/*--------------------------------*- C++ -*----------------------------------*\
| =========                 |                                                 |
| \\      /  F ield         | OpenFOAM: The Open Source CFD Toolbox           |
|  \\    /   O peration     | Version:  2406                                  |
|   \\  /    A nd           | Website:  www.openfoam.com                      |
|    \\/     M anipulation  |                                                 |
\*---------------------------------------------------------------------------*/
FoamFile
{
    version     2.0;
    format      ascii;
    arch        "LSB;label=32;scalar=64";
    class       volScalarField;
    location    "0.003";
    object      dsmcRhoNMean;
}
// * * * * * * * * * * * * * * * * * * * * * * * * * * * * * * * * * * * * * //

dimensions      [0 -3 0 0 0 0 0];

internalField   nonuniform List<scalar> 
654
(
16.49866667
16.95866667
17.23866667
16.96933333
16.786
16.81133333
14.73066667
15.16066667
15.604
16.17
16.57333333
16.88533333
16.93133333
16.82066667
17.04666667
16.876
16.68533333
11.11866667
11.70066667
12.086
12.432
13.13
13.89733333
14.22933333
14.49066667
14.97066667
15.66733333
16.096
16.55666667
16.66133333
16.59733333
16.66666667
16.37
9.222
9.440666667
9.446
9.738666667
9.875333333
10.13733333
10.35133333
10.76
11.204
11.682
12.184
12.59066667
13.31266667
13.71666667
14.006
14.374
14.97933333
15.624
16.01066667
16.202
16.19533333
16.36466667
8.96
8.871333333
8.800666667
8.859333333
8.954666667
8.922666667
9.029333333
8.985333333
9.094
9.234
9.372
9.536
9.789333333
10.04666667
10.26666667
10.53933333
10.75666667
11.12933333
11.66
12.19
12.86533333
13.29933333
13.72333333
14.22266667
14.69
15.09
15.39133333
15.8
15.88066667
9.054666667
9.000666667
9.071333333
9.006
8.929333333
8.835333333
8.929333333
8.965333333
8.998666667
9.142
9.217333333
9.290666667
9.447333333
9.568666667
9.658666667
9.893333333
9.93
10.20933333
10.456
10.726
11.22866667
11.77333333
12.354
12.62066667
13.128
13.68133333
14.09066667
14.674
14.884
15.36333333
9.024
8.922666667
8.824666667
8.860666667
8.927333333
8.943333333
8.934
8.941333333
9.006
9.028
9.024666667
9.054
9.054666667
9.134
9.072666667
9.181333333
9.407333333
9.558
9.867333333
10.176
10.43666667
10.86
11.34533333
11.91266667
12.51666667
12.82533333
13.47066667
13.91733333
14.39466667
14.57933333
8.990666667
9.048
9.061333333
9.049333333
9.086666667
8.962
8.872666667
8.806
8.693333333
8.624666667
8.590666667
8.696666667
8.672666667
8.792
8.990666667
9.05
9.246
9.476
9.394
9.58
9.996
10.25333333
10.44066667
11.018
11.49133333
11.74333333
12.29133333
12.82333333
13.266
13.79266667
9.124
9.118
9.06
8.952666667
8.851333333
8.787333333
8.791333333
8.737333333
8.716666667
8.736
8.587333333
8.550666667
8.608
8.543333333
8.551333333
8.698666667
8.742
8.768
9.072
9.232666667
9.366
9.668
10.076
10.14266667
10.47733333
11.09
11.466
11.91533333
12.566
13.07533333
8.886666667
8.774666667
8.743333333
8.626666667
8.716
8.693333333
8.715333333
8.647333333
8.605333333
8.547333333
8.560666667
8.461333333
8.38
8.449333333
8.464666667
8.382
8.567333333
8.741333333
8.732666667
8.818
9.053333333
9.243333333
9.556666667
9.899333333
10.18266667
10.51933333
10.996
11.28
11.56466667
11.86266667
8.968
8.898
8.890666667
8.719333333
8.626666667
8.527333333
8.404
8.478666667
8.468666667
8.519333333
8.508
8.397333333
8.375333333
8.28
8.292
8.250666667
8.220666667
8.380666667
8.583333333
8.689333333
8.683333333
8.854
9.115333333
9.382666667
9.606666667
9.757333333
10.12333333
10.506
11.10333333
11.46533333
8.999333333
8.846666667
8.638666667
8.697333333
8.688666667
8.705333333
8.619333333
8.512666667
8.403333333
8.212666667
8.312
8.410666667
8.387333333
8.34
8.331333333
8.486666667
8.448
8.325333333
8.362
8.28
8.542666667
8.606666667
8.645333333
8.76
8.998
9.304
9.512
9.877333333
10.18066667
10.77733333
8.82
8.862
8.791333333
8.741333333
8.574
8.504
8.448
8.376666667
8.342666667
8.359333333
8.257333333
8.169333333
8.268
8.258666667
8.224666667
8.170666667
8.194
8.260666667
8.292666667
8.410666667
8.369333333
8.319333333
8.431333333
8.478
8.627333333
8.868
9.073333333
9.353333333
9.722
9.972666667
8.843333333
8.766666667
8.708666667
8.684
8.633333333
8.528
8.474666667
8.344666667
8.345333333
8.360666667
8.294
8.209333333
8.043333333
8.071333333
8.158666667
8.211333333
8.191333333
8.206
8.052
8.129333333
8.044666667
8.146
8.214666667
8.318666667
8.456
8.515333333
8.688666667
8.883333333
9.057333333
9.433333333
8.831333333
8.760666667
8.690666667
8.641333333
8.485333333
8.529333333
8.568
8.573333333
8.407333333
8.348
8.394
8.392666667
8.349333333
8.406666667
8.209333333
8.130666667
8.011333333
7.894
7.85
7.790666667
7.731333333
7.830666667
7.860666667
7.946666667
8.091333333
8.274666667
8.422
8.622666667
8.672666667
8.858666667
8.912
8.744666667
8.642666667
8.596666667
8.613333333
8.572
8.5
8.532666667
8.575333333
8.478666667
8.3
8.280666667
8.251333333
8.155333333
8.108666667
8.080666667
8.041333333
8.020666667
8.007333333
8.019333333
8.008
8.003333333
8.023333333
8.086
8.042
8.014666667
8.016666667
8.167333333
8.407333333
8.548
9.094666667
9.136666667
9.121333333
8.928666667
8.832666667
8.719333333
8.542666667
8.438
8.316
8.357333333
8.340666667
8.163333333
8.058666667
8.004
7.972
7.969333333
7.946666667
7.935333333
7.992
7.959333333
8.055333333
7.966
7.888
7.788666667
7.756
7.736
7.753333333
7.877333333
7.841333333
8.078666667
9.063333333
8.988666667
9.024666667
8.958
8.85
8.853333333
8.765333333
8.704666667
8.472
8.391333333
8.264666667
8.205333333
8.197333333
8.185333333
8.05
7.974666667
7.920666667
7.916666667
7.832666667
7.754666667
7.718
7.682666667
7.694666667
7.731333333
7.814666667
7.722666667
7.778666667
7.735333333
7.772
7.858
8.87
8.664666667
8.625333333
8.566666667
8.499333333
8.482666667
8.431333333
8.450666667
8.432
8.274
8.243333333
8.246666667
8.187333333
8.04
8.094
7.982666667
7.883333333
7.842
7.772666667
7.797333333
7.789333333
7.694
7.62
7.588
7.614666667
7.574666667
7.519333333
7.663333333
7.782
7.793333333
8.784
8.665333333
8.631333333
8.564
8.584666667
8.52
8.416666667
8.354
8.386
8.352666667
8.346
8.129333333
8.040666667
8.078666667
7.964666667
7.917333333
7.951333333
7.88
7.879333333
7.806666667
7.694666667
7.682
7.641333333
7.608
7.652666667
7.693333333
7.616
7.491333333
7.489333333
7.516666667
8.915333333
8.854666667
8.688
8.716
8.566666667
8.561333333
8.595333333
8.61
8.416
8.483333333
8.414666667
8.429333333
8.444666667
8.270666667
8.136
8.120666667
7.987333333
7.829333333
7.726666667
7.612666667
7.653333333
7.621333333
7.602
7.496666667
7.522666667
7.56
7.568666667
7.702666667
7.702666667
7.692666667
9.059333333
8.985333333
9.02
8.926666667
8.848666667
8.695333333
8.560666667
8.418666667
8.401333333
8.236666667
8.104666667
8.09
8.082
8.082666667
8.048666667
8.006666667
7.951333333
7.902666667
7.857333333
7.8
7.691333333
7.696666667
7.644666667
7.58
7.492
7.55
7.534666667
7.338666667
7.266
7.324
8.971333333
8.844666667
8.833333333
8.732666667
8.682
8.675333333
8.624666667
8.447333333
8.357333333
8.319333333
8.216
8.217333333
8.089333333
7.995333333
7.916
7.872666667
7.910666667
7.926666667
7.907333333
7.842666667
7.71
7.566
7.508
7.598
7.612
7.426
7.399333333
7.440666667
7.521333333
7.454666667
8.643333333
8.626
8.536
8.530666667
8.399333333
8.306666667
8.316666667
8.349333333
8.311333333
8.29
8.243333333
8.102666667
8.052666667
7.941333333
7.891333333
7.900666667
7.686
7.585333333
7.48
7.498666667
7.538
7.594666667
7.472666667
7.401333333
7.197333333
7.19
7.159333333
7.117333333
7.13
7.194666667
)
;

boundaryField
{
    flow
    {
        type            calculated;
        value           nonuniform List<scalar> 
55
(
16.49866667
16.81133333
16.68533333
16.37
16.36466667
15.88066667
15.36333333
14.57933333
13.79266667
13.07533333
11.86266667
11.46533333
10.77733333
9.972666667
9.433333333
8.858666667
8.548
8.078666667
7.858
7.793333333
7.516666667
7.692666667
7.324
7.454666667
7.194666667
8.643333333
8.626
8.536
8.530666667
8.399333333
8.306666667
8.316666667
8.349333333
8.311333333
8.29
8.243333333
8.102666667
8.052666667
7.941333333
7.891333333
7.900666667
7.686
7.585333333
7.48
7.498666667
7.538
7.594666667
7.472666667
7.401333333
7.197333333
7.19
7.159333333
7.117333333
7.13
7.194666667
)
;
    }
    obstacle
    {
        type            calculated;
        value           nonuniform List<scalar> 0();
    }
    frontAndBack
    {
        type            empty;
    }
    procBoundary3to1
    {
        type            processor;
        value           nonuniform List<scalar> 
36
(
15.93333333
17.33133333
17.15933333
17.05733333
16.88666667
16.88666667
15.444
15.752
16.45
16.722
17.012
16.95466667
16.95466667
11.90933333
12.43133333
12.86133333
13.50333333
13.96333333
13.96333333
9.469333333
9.468
9.94
10.05666667
10.25866667
10.69866667
10.69866667
9.111333333
9.058666667
9.093333333
9.102
9.019333333
9.060666667
9.1
9.1
8.947333333
8.947333333
)
;
    }
    procBoundary3to2
    {
        type            processor;
        value           nonuniform List<scalar> 
19
(
9.142
8.945333333
9.102
9.191333333
8.922666667
9.170666667
8.976
8.918666667
8.894
8.955333333
8.897333333
9.110666667
9.086666667
9.004666667
8.751333333
8.989333333
8.966
9.102
8.732
)
;
    }
}


// ************************************************************************* //
