/*--------------------------------*- C++ -*----------------------------------*\
| =========                 |                                                 |
| \\      /  F ield         | OpenFOAM: The Open Source CFD Toolbox           |
|  \\    /   O peration     | Version:  2406                                  |
|   \\  /    A nd           | Website:  www.openfoam.com                      |
|    \\/     M anipulation  |                                                 |
\*---------------------------------------------------------------------------*/
FoamFile
{
    version     2.0;
    format      ascii;
    arch        "LSB;label=32;scalar=64";
    class       volScalarField;
    location    "0.003";
    object      iDofMean;
}
// * * * * * * * * * * * * * * * * * * * * * * * * * * * * * * * * * * * * * //

dimensions      [0 -3 0 0 0 0 0];

internalField   nonuniform List<scalar> 
654
(
4.700423609e+20
4.658042717e+20
4.777827346e+20
4.746157991e+20
4.738179696e+20
4.789501417e+20
3.839347794e+20
3.985359303e+20
4.137436024e+20
4.32498025e+20
4.471939303e+20
4.596649131e+20
4.650534979e+20
4.661975431e+20
4.767787375e+20
4.763583972e+20
4.753604416e+20
2.779579798e+20
2.949163588e+20
3.071582064e+20
3.185970545e+20
3.393260078e+20
3.622150832e+20
3.740535111e+20
3.84223313e+20
4.004195279e+20
4.227475686e+20
4.381771029e+20
4.547625201e+20
4.617815029e+20
4.642113198e+20
4.704495551e+20
4.663766838e+20
2.197723797e+20
2.267490231e+20
2.28671592e+20
2.376361249e+20
2.429075513e+20
2.513722415e+20
2.58775246e+20
2.712067728e+20
2.847427249e+20
2.993766724e+20
3.148779954e+20
3.281585918e+20
3.499566419e+20
3.637005306e+20
3.746176461e+20
3.878498926e+20
4.077783884e+20
4.291449372e+20
4.437477783e+20
4.531542258e+20
4.571452375e+20
4.662247387e+20
2.024919711e+20
2.019795255e+20
2.018722881e+20
2.047525191e+20
2.085304498e+20
2.093783204e+20
2.13518368e+20
2.14132302e+20
2.184226712e+20
2.235394361e+20
2.286889834e+20
2.345608326e+20
2.427429978e+20
2.511588194e+20
2.587722594e+20
2.678506286e+20
2.756629875e+20
2.876216465e+20
3.039020317e+20
3.204445462e+20
3.411272282e+20
3.557164719e+20
3.702931237e+20
3.871798506e+20
4.034907204e+20
4.182308029e+20
4.304806692e+20
4.459861742e+20
4.52435711e+20
2.031315051e+20
2.034110165e+20
2.06533055e+20
2.065822832e+20
2.063703244e+20
2.057514913e+20
2.095347565e+20
2.120049446e+20
2.144500513e+20
2.195755493e+20
2.23135961e+20
2.267043408e+20
2.323798592e+20
2.372711926e+20
2.414591224e+20
2.493623631e+20
2.523648034e+20
2.616363842e+20
2.702203174e+20
2.795585974e+20
2.951735074e+20
3.121726061e+20
3.304317007e+20
3.405401596e+20
3.573800389e+20
3.75785646e+20
3.905335246e+20
4.104175515e+20
4.201302669e+20
4.376970344e+20
2.024435321e+20
2.016482531e+20
2.009170345e+20
2.032485858e+20
2.063241014e+20
2.08266525e+20
2.096442656e+20
2.114374152e+20
2.146248159e+20
2.168374599e+20
2.184718287e+20
2.209293683e+20
2.227212827e+20
2.264929029e+20
2.268095783e+20
2.314163349e+20
2.390815517e+20
2.449445501e+20
2.550070699e+20
2.652235913e+20
2.743538075e+20
2.87955363e+20
3.034529536e+20
3.214363773e+20
3.407378689e+20
3.522738619e+20
3.733497539e+20
3.892543185e+20
4.063178717e+20
4.153610954e+20
2.016957368e+20
2.0448073e+20
2.063053799e+20
2.075762775e+20
2.100065344e+20
2.087012237e+20
2.082050243e+20
2.082371605e+20
2.071735583e+20
2.071500679e+20
2.079654285e+20
2.122099721e+20
2.133250749e+20
2.180124373e+20
2.247596424e+20
2.281060682e+20
2.349813668e+20
2.428431217e+20
2.427744492e+20
2.496896624e+20
2.627697876e+20
2.71869461e+20
2.792558882e+20
2.9729582e+20
3.128254965e+20
3.225545316e+20
3.406636321e+20
3.586561993e+20
3.744590245e+20
3.929491839e+20
2.046869223e+20
2.060626986e+20
2.062750245e+20
2.053589089e+20
2.045676271e+20
2.046336985e+20
2.062964652e+20
2.066133883e+20
2.077296223e+20
2.0982411e+20
2.078847342e+20
2.086473791e+20
2.117344412e+20
2.118463288e+20
2.13776654e+20
2.192506798e+20
2.221725152e+20
2.246990791e+20
2.344528213e+20
2.406368937e+20
2.462086686e+20
2.563492126e+20
2.695021684e+20
2.73676929e+20
2.85221643e+20
3.046094029e+20
3.177888952e+20
3.332603197e+20
3.547001433e+20
3.725125561e+20
1.993626095e+20
1.983035182e+20
1.990652617e+20
1.978810233e+20
2.014398717e+20
2.024446907e+20
2.045130591e+20
2.044851411e+20
2.050764026e+20
2.052926506e+20
2.072391796e+20
2.064675329e+20
2.06126235e+20
2.095154406e+20
2.116100534e+20
2.112690678e+20
2.177334736e+20
2.240156895e+20
2.256832382e+20
2.298291694e+20
2.379894415e+20
2.450890796e+20
2.55611593e+20
2.671111291e+20
2.772000111e+20
2.889348799e+20
3.04762483e+20
3.154906596e+20
3.264355343e+20
3.379640282e+20
2.01187235e+20
2.01090799e+20
2.024197003e+20
2.000066386e+20
1.99375241e+20
1.985789878e+20
1.972073422e+20
2.004966453e+20
2.018194548e+20
2.046201374e+20
2.059642076e+20
2.049058465e+20
2.060114455e+20
2.053165356e+20
2.072935216e+20
2.079587976e+20
2.089231531e+20
2.147728213e+20
2.218239325e+20
2.264756478e+20
2.282630708e+20
2.3476582e+20
2.438072767e+20
2.531700472e+20
2.615197195e+20
2.680050051e+20
2.805758692e+20
2.938426329e+20
3.134134936e+20
3.266441136e+20
2.018901639e+20
1.999306873e+20
1.966822493e+20
1.995019976e+20
2.008081557e+20
2.027241359e+20
2.022603321e+20
2.013006528e+20
2.002624772e+20
1.97254517e+20
2.012193825e+20
2.052312003e+20
2.06306616e+20
2.068043366e+20
2.082768259e+20
2.139072023e+20
2.14700689e+20
2.133547825e+20
2.161038901e+20
2.158069334e+20
2.245652966e+20
2.282077186e+20
2.312362147e+20
2.36368797e+20
2.449501495e+20
2.555532809e+20
2.636323017e+20
2.762594383e+20
2.873694062e+20
3.070431848e+20
1.978670161e+20
2.002772123e+20
2.00158111e+20
2.005112826e+20
1.981580366e+20
1.980356178e+20
1.982398428e+20
1.980846333e+20
1.988167108e+20
2.00777205e+20
1.99895994e+20
1.993423517e+20
2.033713243e+20
2.04787538e+20
2.056102409e+20
2.059423904e+20
2.082454363e+20
2.116975602e+20
2.143120714e+20
2.192125822e+20
2.200087977e+20
2.20589012e+20
2.255123695e+20
2.287596626e+20
2.348595899e+20
2.435776542e+20
2.514743198e+20
2.616036639e+20
2.74422632e+20
2.841184611e+20
1.983904752e+20
1.981227247e+20
1.982759842e+20
1.991961522e+20
1.995293192e+20
1.985945127e+20
1.988655999e+20
1.973279247e+20
1.988802609e+20
2.00809231e+20
2.007836347e+20
2.003184037e+20
1.978451079e+20
2.001422944e+20
2.039602924e+20
2.06967399e+20
2.081776663e+20
2.102966079e+20
2.08092385e+20
2.118800117e+20
2.114741248e+20
2.159930356e+20
2.197171972e+20
2.244604128e+20
2.301954263e+20
2.33890947e+20
2.408129933e+20
2.484582197e+20
2.556611039e+20
2.687530041e+20
1.981212669e+20
1.979871245e+20
1.978661663e+20
1.982174531e+20
1.961088165e+20
1.98625564e+20
2.010557512e+20
2.02735249e+20
2.003578024e+20
2.005049973e+20
2.032044615e+20
2.047919754e+20
2.053719147e+20
2.084574488e+20
2.052269195e+20
2.049341868e+20
2.036030761e+20
2.023009289e+20
2.028719849e+20
2.030531242e+20
2.032373767e+20
2.076319044e+20
2.102487822e+20
2.144228338e+20
2.202682032e+20
2.272805456e+20
2.334221221e+20
2.411676258e+20
2.448031305e+20
2.523809176e+20
1.99930935e+20
1.976255332e+20
1.967733199e+20
1.971928759e+20
1.990670905e+20
1.996191575e+20
1.994600676e+20
2.017735951e+20
2.043614632e+20
2.036433921e+20
2.009288814e+20
2.020590298e+20
2.029613692e+20
2.022252158e+20
2.027103331e+20
2.036739355e+20
2.043655075e+20
2.055470362e+20
2.069380391e+20
2.090130097e+20
2.1051025e+20
2.122102002e+20
2.145996178e+20
2.181824288e+20
2.189252169e+20
2.201391208e+20
2.221880011e+20
2.284323919e+20
2.373135714e+20
2.435301073e+20
2.040288626e+20
2.064845568e+20
2.076714396e+20
2.048083899e+20
2.041362123e+20
2.030501588e+20
2.004612805e+20
1.995349944e+20
1.981812075e+20
2.007291684e+20
2.019133538e+20
1.991959439e+20
1.98222268e+20
1.984726511e+20
1.992937716e+20
2.008677655e+20
2.019596128e+20
2.033601855e+20
2.065417711e+20
2.07449193e+20
2.117545247e+20
2.112202966e+20
2.109798652e+20
2.101595628e+20
2.111395154e+20
2.124849721e+20
2.148895198e+20
2.203213751e+20
2.213371047e+20
2.301589352e+20
2.033259322e+20
2.031398234e+20
2.054705656e+20
2.05481245e+20
2.045368117e+20
2.061706651e+20
2.056863521e+20
2.058409119e+20
2.018988941e+20
2.01545793e+20
2.00073523e+20
2.002207985e+20
2.016331095e+20
2.029691179e+20
2.012437123e+20
2.010021943e+20
2.012988405e+20
2.028818099e+20
2.024240281e+20
2.021148332e+20
2.028868768e+20
2.03707649e+20
2.058087884e+20
2.086125506e+20
2.127365824e+20
2.12118745e+20
2.155916505e+20
2.163497728e+20
2.193800345e+20
2.238722021e+20
1.989887112e+20
1.958175677e+20
1.96378679e+20
1.965047271e+20
1.964323776e+20
1.975388195e+20
1.978487446e+20
1.99834527e+20
2.009456415e+20
1.987276411e+20
1.995570793e+20
2.012293872e+20
2.013871354e+20
1.993653316e+20
2.023436779e+20
2.01203835e+20
2.003500337e+20
2.009683141e+20
2.008734159e+20
2.032268818e+20
2.047620496e+20
2.040081549e+20
2.038116852e+20
2.047450247e+20
2.07292034e+20
2.08053624e+20
2.084040322e+20
2.143360026e+20
2.196623063e+20
2.22029871e+20
1.970593984e+20
1.958326369e+20
1.965152864e+20
1.964435583e+20
1.984045593e+20
1.984082139e+20
1.975045783e+20
1.975486318e+20
1.99849401e+20
2.006170828e+20
2.020424631e+20
1.983662982e+20
1.977795148e+20
2.003241367e+20
1.99110444e+20
1.995571025e+20
2.020782149e+20
2.019421484e+20
2.036300628e+20
2.034701441e+20
2.022735036e+20
2.036899739e+20
2.043822866e+20
2.052846795e+20
2.083264978e+20
2.113130454e+20
2.110832222e+20
2.095253294e+20
2.114012102e+20
2.141477118e+20
2.000057147e+20
2.001114822e+20
1.978054525e+20
1.999301791e+20
1.979885522e+20
1.993707591e+20
2.016971507e+20
2.036023111e+20
2.005643405e+20
2.037554776e+20
2.037047679e+20
2.056866913e+20
2.077168654e+20
2.050850982e+20
2.033936435e+20
2.046821359e+20
2.02993131e+20
2.006437049e+20
1.996846135e+20
1.984137981e+20
2.011869505e+20
2.020813818e+20
2.033302403e+20
2.022806012e+20
2.047875444e+20
2.076507742e+20
2.097713411e+20
2.154361178e+20
2.174229644e+20
2.191619041e+20
2.032361966e+20
2.030644916e+20
2.053643165e+20
2.047625118e+20
2.045059979e+20
2.024912639e+20
2.008836665e+20
1.990778153e+20
2.00214813e+20
1.978309584e+20
1.962001952e+20
1.974065153e+20
1.98796209e+20
2.004233235e+20
2.012103784e+20
2.018087572e+20
2.020782149e+20
2.025230311e+20
2.030615044e+20
2.032963848e+20
2.02185877e+20
2.040788622e+20
2.044714414e+20
2.045291646e+20
2.039527139e+20
2.073761039e+20
2.088290053e+20
2.052553889e+20
2.050971862e+20
2.086586928e+20
2.012620147e+20
1.998854882e+20
2.011143528e+20
2.00312484e+20
2.00654079e+20
2.020255169e+20
2.023854835e+20
1.997557015e+20
1.991662367e+20
1.998164719e+20
1.988953858e+20
2.005136141e+20
1.989765884e+20
1.982577465e+20
1.978938169e+20
1.984312751e+20
2.010446935e+20
2.031380817e+20
2.043536826e+20
2.044084351e+20
2.026765768e+20
2.006142059e+20
2.008160279e+20
2.050148521e+20
2.072194419e+20
2.039701917e+20
2.050781392e+20
2.081082319e+20
2.123044752e+20
2.123813531e+20
1.939036934e+20
1.949437199e+20
1.943447692e+20
1.956789485e+20
1.941212272e+20
1.934402461e+20
1.951579892e+20
1.974382783e+20
1.980699962e+20
1.991119343e+20
1.995570778e+20
1.977155984e+20
1.980746852e+20
1.969187256e+20
1.97277168e+20
1.991370176e+20
1.953349325e+20
1.943906739e+20
1.933098659e+20
1.954425416e+20
1.981551279e+20
2.013743108e+20
1.998709694e+20
1.997082467e+20
1.959310803e+20
1.974879718e+20
1.984263588e+20
1.990649121e+20
2.012583178e+20
2.049740226e+20
)
;

boundaryField
{
    flow
    {
        type            calculated;
        value           nonuniform List<scalar> 
55
(
4.700423609e+20
4.789501417e+20
4.753604416e+20
4.663766838e+20
4.662247387e+20
4.52435711e+20
4.376970344e+20
4.153610954e+20
3.929491839e+20
3.725125561e+20
3.379640282e+20
3.266441136e+20
3.070431848e+20
2.841184611e+20
2.687530041e+20
2.523809176e+20
2.435301073e+20
2.301589352e+20
2.238722021e+20
2.22029871e+20
2.141477118e+20
2.191619041e+20
2.086586928e+20
2.123813531e+20
2.049740226e+20
1.939036934e+20
1.949437199e+20
1.943447692e+20
1.956789485e+20
1.941212272e+20
1.934402461e+20
1.951579892e+20
1.974382783e+20
1.980699962e+20
1.991119343e+20
1.995570778e+20
1.977155984e+20
1.980746852e+20
1.969187256e+20
1.97277168e+20
1.991370176e+20
1.953349325e+20
1.943906739e+20
1.933098659e+20
1.954425416e+20
1.981551279e+20
2.013743108e+20
1.998709694e+20
1.997082467e+20
1.959310803e+20
1.974879718e+20
1.984263588e+20
1.990649121e+20
2.012583178e+20
2.049740226e+20
)
;
    }
    obstacle
    {
        type            calculated;
        value           nonuniform List<scalar> 0();
    }
    frontAndBack
    {
        type            empty;
    }
    procBoundary3to1
    {
        type            processor;
        value           nonuniform List<scalar> 
36
(
4.539361736e+20
4.760403113e+20
4.755839468e+20
4.770770738e+20
4.766594849e+20
4.766594849e+20
4.025268419e+20
4.140805981e+20
4.36175477e+20
4.472623322e+20
4.590303625e+20
4.615523639e+20
4.615523639e+20
2.977240312e+20
3.133328831e+20
3.26862823e+20
3.460522998e+20
3.60862312e+20
3.60862312e+20
2.256666581e+20
2.27405524e+20
2.406304935e+20
2.453957382e+20
2.523365537e+20
2.652914463e+20
2.652914463e+20
2.059120334e+20
2.062446661e+20
2.085855624e+20
2.103609123e+20
2.100363651e+20
2.126166117e+20
2.151894362e+20
2.151894362e+20
2.00723601e+20
2.00723601e+20
)
;
    }
    procBoundary3to2
    {
        type            processor;
        value           nonuniform List<scalar> 
19
(
2.035984168e+20
1.992185194e+20
2.027075902e+20
2.046971014e+20
1.987137176e+20
2.042368425e+20
1.999014878e+20
1.98624635e+20
1.980752919e+20
1.99441226e+20
1.981495275e+20
2.029006026e+20
2.023661066e+20
2.005399107e+20
1.948980118e+20
2.001984286e+20
1.996787798e+20
2.027075902e+20
1.944674442e+20
)
;
    }
}


// ************************************************************************* //
