/*--------------------------------*- C++ -*----------------------------------*\
| =========                 |                                                 |
| \\      /  F ield         | OpenFOAM: The Open Source CFD Toolbox           |
|  \\    /   O peration     | Version:  2406                                  |
|   \\  /    A nd           | Website:  www.openfoam.com                      |
|    \\/     M anipulation  |                                                 |
\*---------------------------------------------------------------------------*/
FoamFile
{
    version     2.0;
    format      ascii;
    arch        "LSB;label=32;scalar=64";
    class       volScalarField;
    location    "0.003";
    object      iDof;
}
// * * * * * * * * * * * * * * * * * * * * * * * * * * * * * * * * * * * * * //

dimensions      [0 -3 0 0 0 0 0];

internalField   nonuniform List<scalar> 
654
(
5.697943602e+20
3.845384742e+20
3.325891106e+20
5.593806071e+20
3.951776227e+20
5.69794355e+20
2.867000299e+20
6.571873439e+20
5.037893133e+20
4.279510451e+20
5.396547831e+20
4.627864531e+20
5.768077011e+20
3.603048667e+20
4.475044857e+20
5.080855149e+20
4.273457701e+20
3.49989062e+20
3.024610825e+20
2.287294272e+20
2.050174096e+20
4.134970393e+20
2.345727537e+20
3.154499251e+20
5.303045358e+20
4.546979854e+20
5.666375222e+20
5.172319181e+20
5.493406725e+20
4.711679067e+20
6.153186678e+20
6.49220386e+20
4.843252062e+20
2.859757706e+20
3.122382565e+20
3.147078865e+20
1.708090985e+20
2.95168833e+20
2.231701474e+20
2.749914059e+20
1.26025452e+20
2.287294291e+20
3.84407643e+20
3.101227794e+20
3.38827308e+20
2.365874438e+20
4.772740863e+20
3.744571645e+20
2.968101307e+20
2.722273277e+20
4.394725419e+20
5.820309385e+20
4.475044817e+20
2.822697305e+20
4.273457701e+20
1.355973021e+20
2.049089647e+20
2.064446549e+20
6.933451245e+19
2.561608414e+20
3.519883599e+20
2.364719079e+20
1.668191995e+20
2.882199313e+20
1.694580953e+20
1.952103998e+20
3.197662357e+20
1.239834162e+20
2.249929703e+20
2.52050902e+20
2.033150448e+20
3.844076367e+20
4.393406006e+20
3.38827308e+20
5.257498707e+20
2.916674922e+20
1.872285806e+20
2.968101307e+20
4.627864531e+20
3.021373672e+20
5.543151795e+20
4.754735161e+20
4.516315688e+20
6.267737905e+20
8.973560819e+19
6.779865006e+19
1.593736369e+20
1.605680637e+20
2.080035373e+20
1.862987924e+20
2.111930128e+20
2.601190947e+20
1.668191983e+20
2.642016016e+20
1.936663917e+20
2.196116964e+20
1.967792189e+20
1.983734627e+20
3.249898459e+20
2.520509061e+20
3.812157152e+20
2.818989382e+20
3.359663472e+20
3.909545927e+20
1.577249639e+20
1.590913621e+20
3.209632838e+20
2.968101333e+20
4.355637281e+20
5.218736435e+20
6.374624621e+20
5.314115768e+20
3.951776227e+20
3.703663341e+20
1.346034123e+20
1.807964015e+20
3.187472785e+20
2.523212449e+20
1.61780529e+20
1.164367452e+20
3.050565763e+20
2.364719079e+20
2.14481828e+20
9.607330968e+19
2.904995875e+20
2.196116981e+20
1.229870137e+20
3.967469286e+20
4.249867182e+20
4.032814433e+20
3.558013313e+20
3.84407643e+20
2.067485196e+20
2.867000299e+20
5.257498707e+19
4.507588555e+20
2.407224629e+20
4.047410873e+20
2.994500579e+20
4.39472538e+20
4.157363883e+20
4.475044857e+20
4.798585462e+20
3.988560521e+20
2.019051199e+20
2.033959516e+20
1.821413007e+20
1.605680649e+20
2.080035373e+20
1.630114445e+20
2.111930144e+20
1.418831437e+20
1.906505138e+20
3.362565839e+20
2.178746923e+20
1.708090998e+20
2.95168833e+20
3.223568795e+20
1.74994531e+20
1.764356329e+20
1.524862861e+20
2.56271762e+20
4.393406042e+20
1.563818345e+20
1.840124563e+20
2.121218161e+20
3.477102242e+20
4.587065656e+20
2.994500605e+20
3.021373699e+20
1.662945538e+20
3.076593339e+20
3.951776227e+20
3.703663341e+20
2.019051184e+20
2.033959516e+20
1.82141302e+20
2.523212449e+20
1.155575207e+20
1.862987924e+20
1.877271239e+20
1.655303355e+20
9.532525688e+19
2.642016037e+20
2.904995898e+20
1.952103968e+20
1.721818179e+20
1.239834152e+20
2.499921892e+20
1.764356329e+20
3.81215709e+20
2.562717599e+20
2.325920846e+20
3.127636716e+20
1.840124578e+20
1.856065875e+20
3.477102212e+20
2.968101307e+20
2.177818603e+20
4.120055044e+20
5.265994252e+20
3.635973946e+20
2.540427574e+20
2.27917742e+20
1.570373143e+20
3.389932503e+20
2.504442866e+20
2.981978327e+20
1.617805302e+20
1.16436747e+20
1.173294533e+20
1.891775263e+20
1.906505138e+20
1.681282919e+20
2.662912906e+20
2.440129998e+20
1.475844165e+20
1.983734643e+20
2.499921872e+20
2.268458137e+20
1.524862861e+20
3.587804668e+20
2.067485196e+20
2.345727517e+20
3.680249095e+20
2.386370411e+20
5.349388064e+19
3.777583482e+20
2.177818603e+20
2.472033005e+20
3.603048635e+20
3.356283613e+20
6.209934071e+20
4.273457701e+20
2.243390221e+20
3.389932552e+20
1.82141302e+20
1.605680637e+20
2.080035358e+20
2.095861414e+20
2.346589031e+20
1.182359522e+20
2.144818263e+20
7.205498226e+19
2.420829896e+20
2.928155952e+20
3.197662332e+20
2.231701474e+20
2.749914059e+20
3.528712629e+20
1.779006656e+20
2.306445858e+20
1.550613897e+20
2.606363908e+20
1.05149975e+20
2.386370432e+20
2.674694032e+20
1.618964349e+20
2.450045949e+20
2.746703387e+20
4.157363883e+20
2.796903036e+20
2.82269733e+20
3.988560521e+20
1.570373155e+20
2.937941524e+20
3.415149412e+20
2.293829499e+20
2.080035373e+20
2.561608395e+20
3.050565763e+20
1.891775263e+20
2.621444564e+20
2.401832742e+20
2.420829915e+20
3.416181997e+20
1.475844165e+20
2.479668304e+20
2.499921892e+20
1.764356343e+20
1.016575232e+20
2.050174079e+20
2.325920846e+20
2.867000323e+20
3.154499251e+20
1.856065875e+20
3.209632838e+20
1.888791757e+20
2.994500605e+20
2.19736269e+20
1.940103145e+20
3.356283673e+20
1.411348665e+20
4.273457662e+20
2.019051184e+20
1.581968501e+20
1.366059755e+20
1.835063599e+20
6.933451245e+19
1.397240953e+20
9.386356194e+19
1.418831437e+20
2.859757706e+20
1.200916371e+20
1.210414948e+20
2.684142977e+20
1.967792204e+20
1.735767799e+20
1.999937497e+20
2.772559923e+20
4.066300929e+20
7.68815286e+19
1.55061391e+20
1.042545572e+20
2.891624313e+20
3.181827242e+20
8.024082096e+19
1.349136958e+20
3.266727933e+20
2.472033026e+20
5.543151795e+19
2.796903036e+20
2.822697305e+20
2.279177441e+20
1.346034132e+20
1.355973021e+20
2.276766258e+20
1.835063586e+20
9.24460166e+19
6.986204714e+19
1.407953429e+20
2.601190987e+20
1.906505138e+20
1.921466208e+20
1.936663947e+20
2.196116981e+20
2.459740255e+20
2.231701474e+20
2.499921872e+20
1.764356329e+20
1.779006671e+20
2.306445858e+20
1.292178248e+20
3.388273108e+20
2.1029995e+20
1.85606586e+20
1.337347005e+20
3.237928699e+20
1.905591277e+20
3.845384708e+20
3.048733514e+20
2.237522429e+20
1.693618383e+20
3.133868952e+20
1.794712164e+20
2.937941502e+20
1.821413007e+20
2.293829499e+20
1.848920332e+20
1.164367461e+20
2.346589066e+20
2.601190987e+20
1.429878853e+20
1.200916371e+20
7.262489688e+19
1.708090985e+20
1.721818192e+20
2.231701474e+20
1.999937497e+20
1.512305412e+20
1.779006656e+20
1.537630572e+20
2.067485196e+20
2.345727517e+20
1.840124563e+20
2.386370432e+20
1.604816419e+20
3.237928699e+20
2.722273253e+20
2.197362671e+20
2.217260718e+20
3.91566425e+20
2.258157864e+20
3.703663375e+20
3.140746287e+20
2.48595052e+20
2.276766275e+20
2.293829499e+20
2.542265475e+20
6.986204766e+19
2.581247934e+20
2.364719061e+20
2.14481828e+20
3.122382565e+20
1.936663917e+20
2.196116981e+20
1.96779222e+20
2.479668304e+20
1.999937513e+20
2.772559967e+20
1.524862848e+20
1.537630559e+20
2.067485196e+20
2.867000299e+20
3.154499251e+20
1.325761351e+20
2.139755226e+20
2.698273915e+20
2.177818622e+20
2.197362709e+20
2.494418308e+20
3.356283613e+20
2.258157844e+20
2.27917742e+20
2.019051199e+20
2.937941524e+20
2.049089632e+20
1.146914749e+20
1.386690249e+20
2.561608395e+20
2.111930144e+20
2.364719061e+20
2.144818263e+20
2.642016016e+20
1.210414957e+20
2.684142977e+20
1.967792204e+20
3.223568795e+20
1.999937497e+20
2.016407216e+20
1.524862848e+20
2.306445858e+20
7.753069486e+19
2.085091144e+20
2.365874438e+20
2.121218143e+20
1.604816419e+20
2.428446545e+20
1.088909311e+20
1.922692354e+20
1.940103145e+20
1.118761214e+20
3.104967035e+20
1.994280261e+20
2.019051184e+20
2.48595052e+20
2.276766258e+20
1.376297689e+20
3.466725622e+20
9.314939689e+19
2.111930144e+20
1.891775249e+20
9.532525688e+19
1.441099656e+20
2.904995898e+20
2.440129979e+20
1.721818192e+20
2.727635156e+20
1.249960946e+20
2.520509041e+20
1.01657524e+20
1.537630559e+20
1.550613884e+20
1.303181954e+20
1.314374688e+20
1.856065875e+20
5.349388018e+19
2.698273915e+20
1.905591294e+20
8.240110088e+19
2.494418308e+20
3.356283643e+20
1.129078922e+20
3.133868952e+20
3.140746287e+20
2.937941502e+20
2.049089632e+20
1.835063599e+20
2.311150415e+20
2.095861414e+20
1.877271239e+20
2.601190987e+20
9.532525688e+19
1.681282919e+20
1.69458094e+20
1.708090998e+20
1.96779222e+20
3.471535626e+20
2.249929703e+20
1.764356329e+20
1.524862836e+20
2.050174079e+20
1.809049547e+20
2.345727517e+20
1.051499741e+20
2.651522679e+20
2.407224629e+20
1.079309566e+20
2.177818603e+20
1.373351681e+20
2.217260738e+20
2.517212732e+20
2.258157864e+20
1.424485913e+20
1.121695118e+20
2.485950538e+20
9.1070651e+19
1.146914749e+20
1.848920332e+20
3.725975848e+20
2.815906858e+20
1.418831447e+20
2.383131422e+20
1.921466194e+20
1.694580927e+20
1.464077976e+20
1.721818179e+20
1.487800982e+20
1.74994531e+20
2.520509041e+20
1.779006671e+20
1.793902334e+20
1.292178248e+20
1.824454751e+20
1.840124578e+20
2.121218161e+20
1.872285822e+20
1.618964349e+20
2.450045928e+20
2.472033026e+20
2.217260738e+20
2.796903036e+20
2.822697305e+20
1.424485887e+20
1.346034123e+20
1.355973001e+20
2.959796136e+20
2.981978349e+20
2.080035373e+20
2.794481907e+20
3.050565763e+20
1.655303343e+20
3.098070848e+20
1.441099645e+20
2.420829915e+19
1.464077999e+20
1.967792204e+20
2.727635113e+20
1.249960936e+20
2.016407216e+20
7.624314242e+19
1.793902334e+20
1.292178258e+20
1.824454751e+20
1.840124547e+20
2.386370411e+20
8.024082096e+19
1.888791741e+20
1.361136639e+20
2.19736269e+20
2.217260718e+20
1.957832125e+20
1.693618383e+20
8.546915403e+19
1.121695102e+20
9.039820073e+19
3.187472762e+20
2.752595379e+20
1.848920346e+20
1.862987938e+20
2.815906858e+20
1.18235953e+20
2.621444544e+20
2.40183276e+20
1.210414957e+20
1.952103983e+20
1.229870137e+20
2.727635134e+20
2.999906246e+20
2.268458137e+20
1.524862861e+20
1.793902334e+20
2.067485196e+20
1.042545563e+20
1.577249625e+20
2.386370411e+20
2.674694009e+20
2.428446545e+20
1.905591294e+20
1.098681345e+20
2.217260718e+20
1.957832107e+20
1.411348652e+20
1.13958871e+20
2.467729243e+20
2.259955018e+20
2.049089632e+20
1.605680649e+20
1.848920332e+20
1.164367461e+20
1.173294524e+20
2.364719061e+20
1.906505138e+20
3.362565839e+20
2.420829915e+20
2.440129979e+20
2.951688306e+20
1.983734643e+20
2.249929703e+20
1.512305424e+20
1.27071903e+20
1.537630559e+20
3.359663444e+20
2.085091144e+20
2.628749375e+20
7.954568038e+19
1.069877613e+20
2.698273915e+20
2.994500605e+20
1.648022018e+20
3.325891077e+20
1.957832125e+20
1.975888131e+20
1.994280279e+20
2.019051184e+20
1.355973011e+20
1.593736392e+20
2.752595399e+20
2.080035373e+20
1.862987924e+20
2.111930144e+20
1.418831447e+20
1.191565711e+20
1.441099645e+20
2.420829896e+20
1.708090985e+20
1.475844165e+20
2.975601965e+20
2.249929685e+20
1.26025452e+20
1.779006671e+20
1.28135881e+20
1.809049547e+20
1.303181954e+20
2.628749375e+20
2.651522702e+20
1.604816419e+20
8.094821746e+19
2.450045928e+20
2.472033026e+20
2.49441833e+20
1.398451518e+20
1.129078922e+20
2.564074597e+20
)
;

boundaryField
{
    flow
    {
        type            zeroGradient;
    }
    obstacle
    {
        type            calculated;
        value           nonuniform List<scalar> 0();
    }
    frontAndBack
    {
        type            empty;
    }
    procBoundary3to1
    {
        type            processor;
        value           nonuniform List<scalar> 
36
(
4.273457701e+20
4.944066009e+20
4.434521436e+20
4.195354554e+20
7.621282723e+20
7.621282723e+20
4.691455034e+20
4.731748836e+20
3.977283985e+20
3.209632811e+20
5.666375271e+20
3.538955291e+20
3.538955291e+20
2.99990627e+20
2.520509061e+20
4.066300929e+20
4.100348158e+20
2.325920846e+20
2.325920846e+20
2.383131422e+20
3.602749113e+20
1.69458094e+20
2.196116981e+20
1.475844153e+20
1.983734643e+20
1.983734643e+20
1.581968501e+20
2.959796136e+20
2.981978349e+20
1.848920346e+20
1.630114445e+20
2.346589049e+20
1.182359539e+20
1.182359539e+20
2.692068265e+20
2.692068265e+20
)
;
    }
    procBoundary3to2
    {
        type            processor;
        value           nonuniform List<scalar> 
19
(
1.781653177e+20
1.781653177e+20
3.117893059e+20
2.004359809e+20
2.672479765e+20
2.227066471e+20
1.558946541e+20
3.340599706e+20
1.336239882e+20
1.55894653e+20
8.908265883e+19
2.227066471e+20
2.227066471e+20
1.781653164e+20
2.227066487e+20
2.672479765e+20
2.449773118e+20
8.908265883e+19
2.004359824e+20
)
;
    }
}


// ************************************************************************* //
