/*--------------------------------*- C++ -*----------------------------------*\
| =========                 |                                                 |
| \\      /  F ield         | OpenFOAM: The Open Source CFD Toolbox           |
|  \\    /   O peration     | Version:  2406                                  |
|   \\  /    A nd           | Website:  www.openfoam.com                      |
|    \\/     M anipulation  |                                                 |
\*---------------------------------------------------------------------------*/
FoamFile
{
    version     2.0;
    format      ascii;
    arch        "LSB;label=32;scalar=64";
    class       volScalarField;
    location    "0.003";
    object      internalEMean;
}
// * * * * * * * * * * * * * * * * * * * * * * * * * * * * * * * * * * * * * //

dimensions      [1 -1 -2 0 0 0 0];

internalField   nonuniform List<scalar> 
654
(
2.235235475
2.058551064
2.150098471
2.173610431
2.185074167
2.24506564
1.398490718
1.493547074
1.594549916
1.70185333
1.827175671
1.922571428
1.973447682
2.007584698
2.09087353
2.113132198
2.156887861
0.8165092262
0.8951249239
0.9705897674
1.007704886
1.137021744
1.262185832
1.363209639
1.400076324
1.528920235
1.6212404
1.735139838
1.846974173
1.904014161
1.94867815
2.00810213
2.044253856
0.5228211616
0.539642957
0.5574348553
0.5884613221
0.6130610076
0.6559178591
0.7015945385
0.7644838764
0.8273948778
0.9151463175
1.004136808
1.057145794
1.174164855
1.287297688
1.352119383
1.442319599
1.549404082
1.679226114
1.76400693
1.834426491
1.86545563
1.951270511
0.4274734899
0.4353195881
0.4327752534
0.437858871
0.4512683987
0.4630209801
0.4811359749
0.5008138507
0.5138515315
0.5306867533
0.5568481875
0.5915876659
0.6354052506
0.6797526899
0.7080510017
0.7510417037
0.7948795187
0.8604690182
0.9527724146
1.030941564
1.130145269
1.220257922
1.323994454
1.402402631
1.495540138
1.610192864
1.709375991
1.834726157
1.879734175
0.4261915468
0.4214746736
0.4295240996
0.4308122805
0.4379408636
0.4427801435
0.4563798454
0.4727874599
0.4858483805
0.5124449733
0.5259637165
0.5402446715
0.5660960798
0.5862166202
0.6231513424
0.6499859167
0.6797728836
0.7138268756
0.7615415973
0.8241901497
0.8982309202
0.9846325844
1.08800153
1.16097661
1.272424573
1.354206387
1.445625942
1.554716857
1.639388565
1.74726677
0.4214113264
0.4272135575
0.4314171403
0.4413634515
0.4491898704
0.4522518142
0.4594383064
0.4667822944
0.4822715165
0.4938435031
0.5032069428
0.5050459241
0.5171867794
0.5371032166
0.547341158
0.5787749276
0.6097506577
0.6407787275
0.6739206385
0.706722224
0.7722390848
0.8486014899
0.9343396822
1.017766632
1.122854745
1.199303587
1.318241302
1.383827422
1.482083719
1.571935904
0.4280296635
0.4310124936
0.4352923015
0.4423424252
0.4544105753
0.4528920188
0.4525598897
0.4524590056
0.4452566824
0.447136019
0.4553574968
0.4722853896
0.4787150906
0.4975366713
0.5118135655
0.5280268255
0.5627504505
0.6099138429
0.6188092596
0.6461291162
0.6866640494
0.7449286305
0.782802315
0.8759923917
0.9758156418
1.0395666
1.141323561
1.248275573
1.32627436
1.439784502
0.4266434421
0.4319799283
0.4357513499
0.4328437112
0.4228220228
0.4259060196
0.4381819228
0.4356539635
0.4436783642
0.4523195282
0.4498821946
0.4579904725
0.4633404911
0.4765791419
0.4919946135
0.516413617
0.5276123139
0.5419258549
0.5761758556
0.6098107998
0.6341259924
0.6575332766
0.7377486321
0.7637709632
0.8312870519
0.931197147
0.9921487463
1.083030938
1.203366147
1.300408264
0.4138304133
0.4079746432
0.4073397912
0.4080975593
0.4176889223
0.4180262766
0.4221340525
0.4299879933
0.4351823101
0.4412908242
0.451794433
0.4513095908
0.4547048955
0.4643641811
0.472608912
0.4724932919
0.4941379547
0.5180966097
0.5367151691
0.5548356753
0.5928469231
0.6228516832
0.6538066873
0.7150140886
0.7687403872
0.8408583816
0.9200232288
0.9812002747
1.039028096
1.119077438
0.4140470592
0.4161332514
0.4173327474
0.4120700838
0.4093401866
0.4070979842
0.4123956782
0.4242264472
0.4304655074
0.4384671727
0.4481287621
0.4452745137
0.4538094839
0.4519727568
0.4566975138
0.4599258848
0.4685088497
0.497337837
0.512117862
0.5322153772
0.5526790485
0.5801492734
0.610873103
0.6497879157
0.6926828494
0.7343782099
0.7931360487
0.86834862
0.9594742432
1.030483448
0.4097504022
0.4088073438
0.4089082622
0.4169386725
0.4259960373
0.4347773891
0.4283300029
0.429757137
0.4260899902
0.423594626
0.4263473364
0.4370074014
0.4404958831
0.4432887675
0.4552100667
0.4758735681
0.4782028529
0.4764263924
0.4925379389
0.5055289771
0.5304697154
0.539193261
0.5542785651
0.5824232465
0.6240355496
0.6606961554
0.7112756087
0.7793755649
0.8244035179
0.9313729564
0.417421449
0.4199470248
0.4181715653
0.4177473546
0.4115668078
0.414654555
0.4163049699
0.4197498874
0.4130080001
0.4221436802
0.4244452461
0.4233244096
0.4288225654
0.4381246314
0.4443481527
0.4464089319
0.4553696824
0.4657315165
0.4815921128
0.4959985093
0.5080869718
0.5180787187
0.5276711157
0.5422734068
0.5686867803
0.6110021086
0.6497916986
0.6918715989
0.7572281347
0.8005298407
0.4140521338
0.413396681
0.4187078903
0.4187449238
0.4207133977
0.4100902916
0.4135332003
0.4127127203
0.4180986438
0.4206387439
0.4263276659
0.4266144253
0.4240756822
0.430167755
0.4393342247
0.4527076395
0.4583249699
0.4556107647
0.4543734844
0.4679576548
0.4735669322
0.4950756664
0.5115698861
0.5309584168
0.5497590175
0.5673601275
0.5969128327
0.6298240858
0.6566232577
0.7291249074
0.4141923727
0.412792926
0.4094743205
0.4125336666
0.4053639328
0.4149421507
0.4189058648
0.4224953727
0.4172576918
0.4206560203
0.4241869084
0.4249643091
0.4319931279
0.4363125111
0.4313593863
0.4316538767
0.4312853066
0.4410057627
0.4449655677
0.4463740535
0.4477814931
0.4547873252
0.4684401185
0.4892715102
0.5161657195
0.5401714289
0.5591344728
0.5947423767
0.6138426843
0.6435307781
0.4107885271
0.4031759318
0.3999000978
0.4032131495
0.4115607453
0.4127853161
0.4121468853
0.4163721139
0.4256453006
0.4223671379
0.4165000999
0.4250496508
0.421017652
0.4134229091
0.4144292683
0.4211824351
0.4277753315
0.4339101333
0.4401431265
0.4503184755
0.4622757153
0.4701461409
0.4717677646
0.4773996702
0.4801213703
0.489418448
0.5016964467
0.527260426
0.5659632981
0.5897527712
0.4185046846
0.4315863991
0.4375899717
0.431050844
0.427999776
0.4252092227
0.4204153604
0.424938841
0.4203393864
0.4215807492
0.4140188985
0.4079724256
0.406330349
0.4140610357
0.4225818606
0.425958588
0.4276314806
0.4338925712
0.4373925363
0.4410048229
0.4496228608
0.4512715135
0.4606672193
0.4573390538
0.4694562708
0.4748800442
0.4898578112
0.5026306179
0.5108597436
0.5544582851
0.4267155594
0.4217239229
0.4221073653
0.4217402861
0.4250152508
0.4325672871
0.4285175406
0.4248939681
0.4145004251
0.4194084008
0.4210505232
0.4278213843
0.4257914051
0.426439142
0.416489531
0.4133285798
0.4082596045
0.4169174056
0.4153934148
0.423077609
0.4211632893
0.419883799
0.4397622227
0.4475988009
0.4624306761
0.4594090608
0.4687519017
0.4865906926
0.5012843937
0.5209054063
0.4172595131
0.4109125219
0.4148723588
0.4157064164
0.4089007949
0.4087025531
0.4116811182
0.4181920521
0.4232465839
0.4176664354
0.4143329306
0.4093579138
0.4122399836
0.4102847787
0.4195836711
0.4184203942
0.4135798345
0.4175309173
0.4193977102
0.4233819801
0.4307149615
0.430725191
0.424758573
0.4411249802
0.4507061253
0.4562999744
0.4596088507
0.4752861191
0.4917912523
0.4951942643
0.4205387357
0.4156659838
0.4138543557
0.4135892519
0.4169663181
0.4209111968
0.4223719469
0.418840523
0.4174084166
0.4149080132
0.4221022563
0.4178426975
0.4181354208
0.4224028696
0.4171712726
0.4174637309
0.4277460902
0.4246760029
0.4309367217
0.4344192743
0.4331955479
0.431258383
0.4354844146
0.4328467341
0.4458587784
0.4497390654
0.4624980878
0.4671511042
0.4714451969
0.4850873707
0.4051716519
0.4090279342
0.4026012423
0.4077336969
0.4008064876
0.4044196198
0.4073639167
0.4146811819
0.4123394997
0.4203160336
0.42337543
0.4244473391
0.4337985006
0.4232737978
0.4229999591
0.4275359765
0.4206777431
0.4117902167
0.4054755525
0.4061210932
0.4210970156
0.4223384574
0.4232658001
0.4248484262
0.4366805082
0.4423549252
0.4434064453
0.4526155736
0.470009661
0.4786841621
0.4238692858
0.4196514525
0.425326916
0.4177701437
0.418137117
0.4150477036
0.4169580176
0.4091272953
0.4103533383
0.4069358463
0.406228237
0.405709632
0.3974881819
0.40560967
0.4068815559
0.4084514142
0.4067745409
0.4192093732
0.4227244245
0.4229278817
0.4184698174
0.4300395063
0.4302585244
0.433492188
0.4292516391
0.4406984746
0.4465243036
0.4457292041
0.4425202964
0.4616003912
0.4134971242
0.4102195959
0.4115790166
0.4071873329
0.4121687833
0.4144334501
0.4093212729
0.403149163
0.4016962635
0.4056068088
0.4041807289
0.4114408642
0.4065667566
0.4087083962
0.4109908455
0.4113963966
0.4159057951
0.4193504841
0.4203424526
0.426646938
0.4213663493
0.4196732291
0.4213400682
0.4340394522
0.4402555403
0.4327817747
0.4338747911
0.445445779
0.4629991688
0.4539961443
0.4029741617
0.4051095162
0.4060565638
0.4078822354
0.4046088975
0.3968551597
0.4003155279
0.4044101512
0.4028441142
0.4063354926
0.4019320836
0.4041912971
0.4045965059
0.4014247742
0.4011818657
0.4056619099
0.402615671
0.405011739
0.4085559664
0.4130110617
0.4149462433
0.4197138155
0.4242282351
0.4147308049
0.4084955335
0.4195227364
0.4251663355
0.4257796378
0.4302303818
0.4426643681
)
;

boundaryField
{
    flow
    {
        type            calculated;
        value           nonuniform List<scalar> 
55
(
2.235235475
2.24506564
2.156887861
2.044253856
1.951270511
1.879734175
1.74726677
1.571935904
1.439784502
1.300408264
1.119077438
1.030483448
0.9313729564
0.8005298407
0.7291249074
0.6435307781
0.5897527712
0.5544582851
0.5209054063
0.4951942643
0.4850873707
0.4786841621
0.4616003912
0.4539961443
0.4426643681
0.4029741617
0.4051095162
0.4060565638
0.4078822354
0.4046088975
0.3968551597
0.4003155279
0.4044101512
0.4028441142
0.4063354926
0.4019320836
0.4041912971
0.4045965059
0.4014247742
0.4011818657
0.4056619099
0.402615671
0.405011739
0.4085559664
0.4130110617
0.4149462433
0.4197138155
0.4242282351
0.4147308049
0.4084955335
0.4195227364
0.4251663355
0.4257796378
0.4302303818
0.4426643681
)
;
    }
    obstacle
    {
        type            calculated;
        value           nonuniform List<scalar> 0();
    }
    frontAndBack
    {
        type            empty;
    }
    procBoundary3to1
    {
        type            processor;
        value           nonuniform List<scalar> 
36
(
2.193342237
2.194030959
2.185760596
2.26486639
2.256117109
2.256117109
1.548349958
1.614991108
1.731390198
1.867576459
1.931546085
1.992246344
1.992246344
0.9157860273
0.9888144131
1.056372044
1.176885331
1.283943819
1.283943819
0.5542544918
0.5755341501
0.6122017824
0.6491434151
0.6879686755
0.758078932
0.758078932
0.4491140011
0.4494781755
0.4534241064
0.4665584834
0.4760759418
0.4925477427
0.5017042644
0.5017042644
0.4281985097
0.4281985097
)
;
    }
    procBoundary3to2
    {
        type            processor;
        value           nonuniform List<scalar> 
19
(
0.4235955339
0.4111388221
0.4336505318
0.4266646591
0.4092321724
0.4254475215
0.4046420998
0.412740373
0.4158566288
0.4148634938
0.4073879237
0.4145946945
0.4243989297
0.4193535236
0.4155425954
0.4081676015
0.4129465927
0.4151076815
0.3983135335
)
;
    }
}


// ************************************************************************* //
