/*--------------------------------*- C++ -*----------------------------------*\
| =========                 |                                                 |
| \\      /  F ield         | OpenFOAM: The Open Source CFD Toolbox           |
|  \\    /   O peration     | Version:  2406                                  |
|   \\  /    A nd           | Website:  www.openfoam.com                      |
|    \\/     M anipulation  |                                                 |
\*---------------------------------------------------------------------------*/
FoamFile
{
    version     2.0;
    format      ascii;
    arch        "LSB;label=32;scalar=64";
    class       volScalarField;
    location    "0.003";
    object      internalT;
}
// * * * * * * * * * * * * * * * * * * * * * * * * * * * * * * * * * * * * * //

dimensions      [1 2 -2 0 0 0 0];

internalField   nonuniform List<scalar> 
654
(
688.8627179
640.1836467
651.8899668
663.4159627
668.0378254
679.0240172
527.6531456
542.8724871
558.2814864
570.012525
591.876098
605.8812706
614.708333
623.8070732
635.2684452
642.5978092
657.2807708
425.5282019
439.6744055
457.741179
458.181982
485.3980427
504.7811958
527.9287469
527.8547055
553.1156894
555.5366267
573.6291331
588.3321161
597.2828428
608.0940968
618.328313
634.9571151
344.6088649
344.75255
353.1248689
358.7169182
365.602433
377.9884561
392.7442794
408.3327352
420.9268115
442.8115886
461.9521294
466.6566999
486.0279389
512.7214102
522.8452976
538.6965919
550.4107266
566.8283776
575.8514883
586.4090682
591.1219995
606.2734716
305.80725
312.2103243
310.5504138
309.778518
313.4814452
320.3430873
326.421674
338.7977706
340.7896054
343.8986687
352.7263992
365.3507596
379.1844218
392.0567183
396.3631052
406.1792951
417.7045893
433.3712216
454.1527723
466.0446892
479.914956
496.928675
517.9489022
524.6943268
536.9216556
557.7098059
575.2151873
595.931381
601.8468046
303.9302614
300.1534996
301.2620073
302.0935133
307.4076154
311.7392911
315.5126553
323.0474797
328.18672
338.0723543
341.4543237
345.2049819
352.8889516
357.8981987
373.8490793
377.5890926
390.1947752
395.2220395
408.2460856
427.0718687
440.8156692
456.9048964
476.9734426
493.8573635
515.7605904
522.0247198
536.2212376
548.7465222
565.2548924
578.271797
301.5426149
306.9000512
311.0477288
314.5685012
315.3743658
314.5627156
317.4611705
319.8003478
325.5053085
329.9145215
333.6549552
331.1492824
336.3814931
343.5180436
349.5772116
362.2947967
369.4473962
378.954181
382.8273295
385.9961702
407.7436302
426.8988816
446.0256385
458.6692041
477.3639015
493.1682515
511.4762159
514.9853699
528.3883211
548.2206826
307.4139331
305.340119
305.6446733
308.6933499
313.4454864
314.3518859
314.8699772
314.7512054
311.3311094
312.6806271
317.1814236
322.3926416
325.0735318
330.5903897
329.8677503
335.3247013
346.9195897
363.8221047
369.2327583
374.8565883
378.5430515
396.9178575
406.0655635
426.8329417
451.8684623
466.8695704
485.321363
504.1717746
513.0686402
530.7713859
301.940505
303.6760792
306.0120246
305.3261223
299.4105441
301.4970194
307.6869442
305.4426002
309.3970853
312.2743744
313.4892154
317.9727539
316.9969955
325.8820857
333.3853188
341.1953748
344.0099386
349.3694912
355.9967152
367.0956997
373.0942997
371.5627318
396.5450633
404.2698507
422.1967998
442.8378461
452.2561373
470.7644448
491.4539436
505.6909752
300.6942293
298.0225664
296.4201725
298.7488541
300.3681777
299.1187166
299.0031341
304.6077661
307.3986395
311.3851475
315.8023877
316.6424906
319.5528959
321.0621258
323.528101
323.9709948
328.7527623
335.0261545
344.5013782
349.7080494
360.8537966
368.1349749
370.5230326
387.765364
401.7286942
421.5695978
437.3042396
450.523608
461.079976
479.6628246
298.1231359
299.7689305
298.6593292
298.451024
297.4127319
296.9696436
302.9266093
306.504622
308.9738522
310.4095759
315.1791371
314.7892453
319.1013317
318.8854684
319.1459343
320.373771
324.8460763
335.4428795
334.4320738
340.4178357
350.7387455
357.9738344
362.9532908
371.7968502
383.6863875
396.9385472
409.4904435
428.0807611
443.467736
456.9961935
294.0022312
296.2003916
301.1668163
302.7410613
307.3056961
310.6761329
306.7709129
309.2603998
308.2110083
311.078419
306.9305662
308.4549938
309.296565
310.5084933
316.6046621
322.2645792
322.6451364
323.4743345
330.1592751
339.3337523
342.1876651
342.2634508
347.2311119
356.9397822
369.043891
374.5128446
390.8280205
408.6731069
415.5714505
439.4106309
305.5960633
303.7451622
302.6409581
301.801429
300.8673427
303.3119572
304.2054913
306.9631203
300.9206409
304.5736207
307.5841708
307.6239414
305.4459088
309.9135347
313.0581652
314.0028028
316.7634166
318.6883397
325.5210894
327.7640307
334.5371939
340.2187746
338.9528986
343.3881139
350.7609463
363.3721711
374.3061089
383.1140502
399.7175482
408.1543882
302.3295571
302.2588961
305.9056012
304.5194303
305.4400768
299.1290846
301.2292332
302.9742398
304.5323797
303.4394185
307.5824862
308.5042022
310.5020358
311.347496
312.0296106
316.8562513
318.9229563
313.8398644
316.302912
319.9358933
324.392296
332.0306923
337.2774608
342.6629511
345.9569579
351.3919416
359.068575
367.2081355
372.0471654
393.0022215
302.8429019
302.0241678
299.7792233
301.4837466
299.4293616
302.6208235
301.818835
301.8833011
301.6785904
303.91232
302.3920856
300.5978849
304.7068269
303.1982195
304.4747796
305.1178612
306.8504226
315.7859374
317.7245153
318.4459023
319.1603686
317.2931262
322.7505504
330.5409683
339.4562016
344.2831316
346.9929526
357.2368692
363.2340187
369.3679475
297.6354844
295.5275287
294.3958582
296.2032806
299.488999
299.5493765
299.3246329
298.9260076
301.7138438
300.4458411
300.2749767
304.7247987
300.4922802
296.1458353
296.156269
299.5581876
303.2176914
305.7982332
308.1058846
312.0993362
318.107736
320.9319973
318.453273
316.9631258
317.6886115
322.0545997
327.0896647
334.3596696
345.4713936
350.8033472
297.1358912
302.7795732
305.2368658
304.8787498
303.7175499
303.3512164
303.8046896
308.4989956
307.2444269
304.2402606
297.0308251
296.685771
296.9430866
302.2108775
307.1591967
307.1874923
306.7266687
309.07415
306.7678691
307.9484253
307.5828269
309.49146
316.2952698
315.2357988
322.0861295
323.7442755
330.2183482
330.4750714
334.3442471
348.9694718
304.0129651
300.7319467
297.5909448
297.3166962
301.008965
303.9297405
301.793253
299.0165781
297.3975858
301.446181
304.8533629
309.5278264
305.9013837
304.3501325
299.797611
297.8797877
293.793062
297.6825069
297.2651128
303.2272674
300.7065933
298.585133
309.5283279
310.8099259
314.8841905
313.7378426
314.9615245
325.8020049
331.0041829
337.0583513
303.7555391
303.9793783
306.0318057
306.4503517
301.5444086
299.7100423
301.4213759
303.1458633
305.1133913
304.4512047
300.76598
294.6851049
296.5273703
298.1138575
300.3829908
301.2471788
299.0310829
300.9590787
302.4474928
301.7849756
304.710127
305.8434209
301.8974686
312.1006643
314.9613373
317.703177
319.4689574
321.2228288
324.3184524
323.0803893
309.1400341
307.4721693
305.068657
304.9845578
304.4358024
307.31038
309.7877902
307.1291695
302.555289
299.5920673
302.636578
305.1345087
306.2541977
305.4498938
303.5056302
303.0386057
306.6288049
304.6331401
306.5617784
309.2821043
310.235424
306.7003672
308.6567376
305.4386591
310.0267783
308.3050954
317.3968591
322.9737648
323.0502972
328.135281
293.4560353
296.092467
294.8378599
295.4232342
293.252053
293.84422
292.5695966
295.0380456
297.8157202
298.8223403
301.0723379
298.9262277
302.5259858
298.9741765
301.2654634
302.5792375
300.2026984
297.3013522
294.1483865
296.5036708
303.1996908
302.7476111
301.5487992
304.2469103
308.8920045
308.5913233
306.1979265
304.3388373
313.1466504
316.3955685
302.1184776
299.3650808
300.0159067
295.5516237
296.1822781
296.9190911
300.6727718
297.7021609
296.8986093
297.9738082
299.9280413
297.7146697
289.6426558
293.1611653
292.9301165
293.1884075
291.5953978
299.8492482
301.5616707
301.3582324
299.8193938
305.2507423
304.8198349
307.0240735
304.8799552
307.8429661
309.7424152
314.5740691
312.550279
320.4616647
297.6165487
297.2908452
296.4534834
294.4642941
297.5592818
297.1631635
292.9755349
292.3566501
292.1651917
294.0494346
294.3725386
297.2418509
295.9894852
298.627496
300.8474409
300.3286465
299.6737867
299.042008
297.9663245
302.3543478
301.1637439
303.037226
303.9350506
306.6834081
307.7660629
307.3609274
306.4724553
310.0644581
315.9129733
309.6579109
301.0492278
301.0298725
302.6635192
301.9514249
301.9317604
297.1882219
297.1409449
296.7133532
294.6216978
295.6200361
291.7641564
296.13683
295.8963118
295.3000726
294.5851616
295.092812
298.5775545
301.8134462
306.1568185
306.1180797
303.3422612
301.9225816
307.4653996
300.8269178
302.0162965
307.7239168
310.3887024
309.8393481
309.6660796
312.8399007
)
;

boundaryField
{
    flow
    {
        type            calculated;
        value           nonuniform List<scalar> 
55
(
688.8627179
679.0240172
657.2807708
634.9571151
606.2734716
601.8468046
578.271797
548.2206826
530.7713859
505.6909752
479.6628246
456.9961935
439.4106309
408.1543882
393.0022215
369.3679475
350.8033472
348.9694718
337.0583513
323.0803893
328.135281
316.3955685
320.4616647
309.6579109
312.8399007
301.0492278
301.0298725
302.6635192
301.9514249
301.9317604
297.1882219
297.1409449
296.7133532
294.6216978
295.6200361
291.7641564
296.13683
295.8963118
295.3000726
294.5851616
295.092812
298.5775545
301.8134462
306.1568185
306.1180797
303.3422612
301.9225816
307.4653996
300.8269178
302.0162965
307.7239168
310.3887024
309.8393481
309.6660796
312.8399007
)
;
    }
    obstacle
    {
        type            calculated;
        value           nonuniform List<scalar> 0();
    }
    frontAndBack
    {
        type            empty;
    }
    procBoundary3to1
    {
        type            processor;
        value           nonuniform List<scalar> 
36
(
699.9354785
667.6447208
665.7662939
687.7022394
685.6457653
685.6457653
557.2122801
564.9781496
575.0162369
604.8705852
609.5510168
625.2712458
625.2712458
445.5808532
457.1463028
468.1637367
492.6503646
515.4076877
515.4076877
355.7854819
366.6202815
368.5448326
383.1951806
394.9434318
413.9401743
413.9401743
315.952114
315.6983282
314.8957212
321.2827758
328.3432858
335.581135
337.7328021
337.7328021
309.0246407
309.0246407
)
;
    }
    procBoundary3to2
    {
        type            processor;
        value           nonuniform List<scalar> 
19
(
301.3862082
298.9545569
309.8962144
301.9405049
298.3240863
301.7576638
293.2252989
301.0164563
304.1303224
301.3260535
297.8252455
295.996654
303.7965951
302.9185559
308.8549297
295.3413553
299.5769338
296.6450855
296.7047879
)
;
    }
}


// ************************************************************************* //
