/*--------------------------------*- C++ -*----------------------------------*\
| =========                 |                                                 |
| \\      /  F ield         | OpenFOAM: The Open Source CFD Toolbox           |
|  \\    /   O peration     | Version:  2406                                  |
|   \\  /    A nd           | Website:  www.openfoam.com                      |
|    \\/     M anipulation  |                                                 |
\*---------------------------------------------------------------------------*/
FoamFile
{
    version     2.0;
    format      ascii;
    arch        "LSB;label=32;scalar=64";
    class       volScalarField;
    location    "0.003";
    object      internalE;
}
// * * * * * * * * * * * * * * * * * * * * * * * * * * * * * * * * * * * * * //

dimensions      [1 -1 -2 0 0 0 0];

internalField   nonuniform List<scalar> 
654
(
3.785838658
2.077280961
2.341797856
3.392136065
1.297031493
4.437675035
1.060708649
3.007781717
1.680980049
1.27085971
1.820482381
2.378248065
2.391899607
1.810394816
2.025626369
2.939653285
1.74934602
1.073443967
0.7379580311
0.3316808945
0.405192464
1.426140094
0.8617452829
1.563129499
2.685296461
2.360804763
1.652500193
2.180513873
2.880990834
1.935304946
2.800293598
2.25651742
1.168197435
1.24934116
0.5932643183
0.9082569289
0.5140165711
0.9828000702
1.044883078
0.3846566987
0.3246138154
0.5983670737
1.008842148
0.7593013706
0.9802137061
0.5746553396
1.665911722
2.283254842
1.57971176
0.6787944064
1.818008892
2.924894008
1.464761493
0.7055394725
1.293498974
0.1946325563
0.5588652261
0.677835237
0.1513756339
0.9084133911
0.5014947116
0.397220088
0.3866673357
0.5233035784
0.279552423
0.6792041634
0.7886879313
0.1735865848
0.1920769941
0.2761837671
0.2590571439
1.443497617
1.15752392
0.9560917236
2.105763079
0.5697651427
0.6400842921
0.5206556784
1.688752943
1.147215662
0.9047909661
1.966163029
2.196831805
3.846627181
0.08155183933
0.09572250882
0.3458763593
0.2695909689
0.4379523519
0.4066666542
0.3390893846
0.2174809375
0.2995164252
0.3895883994
0.4072307366
0.6983425429
0.4926599342
0.6318735139
0.5678678589
0.7690765739
0.7773325292
0.5872087506
0.3321231228
0.9921466414
0.3193996317
0.4404571271
0.4942432257
0.7390454448
1.369533878
2.120453834
2.028228065
2.612012673
1.721167076
1.257462469
0.1699319323
0.3501594304
0.9175699604
0.5395292366
0.3508455082
0.1968982772
0.6024075263
0.4488421734
0.7295827777
0.1659493771
0.6524343416
0.6510190504
0.3574905695
0.7754294212
1.071426253
1.825391883
1.759202638
0.9867670459
0.7597238325
0.5372399898
0.1517295972
1.286047979
0.3696117026
2.105013109
0.5860878545
1.982986598
2.724259485
1.752643889
1.6096948
1.751421238
0.3753863677
0.5312498903
0.4838051882
0.3362983072
0.3604667106
0.3467851602
0.3685753326
0.4185597082
0.5145710626
0.6959515749
0.438158175
0.2213297613
0.3908794301
0.8930983084
0.2659285908
0.5548406131
0.36357672
0.5686811048
1.212934016
0.3271359299
0.3699982796
0.6573074984
0.6567292031
0.9898058592
1.008724617
0.9086482964
1.16937441
1.147678823
1.97256907
0.6130513497
0.4789379876
0.4115270162
0.2007607132
0.4866600076
0.3195836916
0.3882959984
0.2096109177
0.3136737295
0.1500544834
0.8912754599
0.6425394946
0.3191112491
0.5186158021
0.2555582356
0.4789366375
0.4884758955
1.21659362
0.5606745543
0.6917170378
1.055123063
0.6849540057
0.2924982742
0.8272753628
0.7074940018
0.3234115421
1.076048693
0.8969178886
0.6770736105
0.81829019
0.7385723261
0.1428565253
0.4780320085
0.6175897479
0.8464686456
0.3186564514
0.2953691534
0.2983667233
0.2678658441
0.5099574246
0.2889415174
0.9014229248
0.4781278836
0.1737079465
0.3859770578
0.5628284182
0.6418169926
0.2559003024
0.850467619
0.4940399454
0.3336721349
1.332343695
0.6396758192
0.07777500573
0.6603717083
0.3741957517
0.3042530713
0.7715887943
0.3905666866
2.245343857
1.387635714
0.6132929851
0.5921123016
0.3145655044
0.1639216065
0.5534781021
0.5520970057
0.4400742877
0.1390791621
0.8227912339
0.1857727091
1.070038077
0.7428770505
0.8597527788
0.2895921612
0.772332886
0.5802742301
0.4570446524
0.2209299148
0.6980065438
0.2432229398
0.1349260404
0.7992174587
1.037470439
0.4646052377
0.3740677038
1.032008146
1.687207234
1.116844589
0.6897216553
1.09714093
0.2746759457
0.8219385793
0.7690017659
0.3680731872
0.4352893478
0.5025068505
0.6970769408
0.6987065008
0.7738319839
0.6877904644
0.4505617861
0.810022497
0.4695745137
0.4533894333
0.4835107281
0.4707893372
0.5531486178
0.2466696232
0.3030655572
0.5135195275
0.8920015387
0.655055422
0.5928866587
0.5748361232
0.4889750063
0.4952108418
0.8365762893
0.955548522
0.1786340194
1.373114503
0.3035883872
0.2652280246
0.2529736488
0.6348192313
0.1148970219
0.282130747
0.2175242868
0.1700477545
0.6766916415
0.3311402816
0.1928879106
0.4579296235
0.253256375
0.3794659482
0.5188799245
0.406991712
0.6104062447
0.04480847867
0.7945121441
0.1445824562
0.3906653911
0.625883109
0.1510643043
0.1962753024
1.136032159
0.4924487892
0.1026764313
0.9581425208
0.3334484346
0.8522403459
0.3040721762
0.1354022358
0.6154341541
0.388033091
0.1292086055
0.1372168287
0.2169095245
0.7736361109
0.1579687651
0.2488263951
0.3975573761
0.889547535
0.230533113
0.7298044537
0.4900597091
0.4433185973
0.4761065749
0.5174301494
0.2023636079
0.8241956283
0.2937761249
0.5825449662
0.4437099903
0.5226781879
0.518429209
1.462191396
0.640485513
0.5060535648
0.4125731725
0.914469817
0.3990289175
0.6802370872
0.3475043923
0.6165434736
0.4643525732
0.181216374
0.6065214986
0.6468470797
0.3422161574
0.1530435878
0.07640958526
0.2834750701
0.4636378389
0.3593873079
0.3789318983
0.257589447
0.4279227344
0.4016332617
0.4602799501
0.4852131829
0.4029390764
0.4426143736
0.2235088215
0.9450393925
0.3187051793
0.4979022598
0.8531765091
0.8754010345
0.5764104859
1.097704125
0.7948456224
0.6743270881
0.6471066303
0.5015939735
0.4583814098
0.08444909749
0.3610174576
0.4441350094
0.5493749659
0.7805644337
0.1948128262
0.5182370643
0.3157392274
0.719426139
1.293967941
0.4700528425
0.1616529048
0.2167823606
0.8057574411
0.5044841571
0.5053429774
0.1839260486
0.3689988006
0.6162060701
0.3708173422
0.479209258
0.3380770439
0.7956578517
0.6922760185
0.4648805677
0.5672751585
0.6453329979
0.4465016391
0.313287928
0.3240823739
0.3835497427
0.3142776331
0.6914415394
0.356723165
0.5420389284
0.4161723432
0.3674121055
0.2615380674
0.5392241002
0.3225634655
0.4460872266
0.4020899026
0.5331342108
0.1166680999
0.2290887534
0.3367780836
0.6180414295
0.2388063027
0.5863720891
0.2999425725
0.5105666759
0.422155756
0.3918543524
0.3740841419
0.4126292182
0.4801811233
0.3962847677
0.4397403377
0.2277270379
0.533499556
0.08358163193
0.3528376984
0.4086354437
0.1038537251
0.4365645668
0.3679572874
0.4130780678
0.486833594
0.9246216954
0.2977495796
1.019448586
0.08107198002
0.2766218377
0.2094892633
0.3501187079
0.5607650751
0.1595698534
0.1054959773
1.055125657
0.4053547293
0.1325277485
0.3838944853
1.27498761
0.3636496992
0.6410701119
0.6953431702
0.6940297611
0.5588019073
0.2351403504
0.4595928321
0.453926508
0.106614765
0.5839224593
0.2063351387
0.3286891139
0.3965207011
0.3359716297
0.3442066132
0.7875795964
0.3584510788
0.404639848
0.1809734329
0.9106219707
0.3407487278
0.3116573942
0.4018720454
0.3468843762
0.4502857175
0.3887926085
0.3325062587
0.552338008
0.452445664
0.1420342236
0.6354728039
0.2677458522
0.4279264115
0.7556475476
0.2820258144
0.5083411876
0.3398007243
0.9259307852
0.3992085746
0.4920061485
0.4990315929
0.6164568941
0.5910939228
0.2300111962
0.226024531
0.09140626814
0.4060684425
0.6901602799
0.452658636
0.3921866157
0.21949244
0.4096773843
0.2279932041
0.219205748
0.6324615552
0.2303633417
0.5003549105
0.9990074707
0.4394176181
0.7709722393
0.446237994
0.3670220719
0.1327023742
0.1887457699
0.8868225308
0.5386241285
0.3948055306
0.4203548025
0.9578478603
0.3592666257
0.7898957583
0.3084797348
0.01102461124
0.3105681347
0.4078488553
0.8093052487
0.2291910084
0.4705912702
0.2052230629
0.3709094668
0.220861497
0.7365850574
0.4531029601
0.5942875159
0.3843716835
0.2796655112
0.1640299932
0.6412108668
0.4569927227
0.6615819624
0.3121259716
0.07121912884
0.2705116515
0.1926558848
0.8361816504
0.3416078713
0.4991882144
0.2273662429
0.4484877101
0.2124902247
0.2486313204
0.3061909167
0.206576156
0.8714341647
0.1937338338
0.4059569575
0.3649038273
0.83534154
0.3458264274
0.5857025258
0.3441033063
0.1749045874
0.259495401
0.4182975627
0.3828472356
0.4771528239
0.5511322605
0.3385879088
0.3042642453
0.4045924832
0.1799073937
0.1346806002
0.6064563166
0.5084387552
0.6831378088
0.3710258682
0.2649638596
0.2332480335
0.148079192
0.4593979209
0.5443832704
0.6568579057
0.4783751823
0.3503240916
0.3184629826
0.343386575
0.3068623811
0.3905844908
0.148934356
0.1397403092
0.7565121454
0.4628073029
0.7814525911
0.3332594283
0.3162102522
0.668663933
0.5151604914
0.2894331749
0.4355199118
0.8272667862
0.5592020285
0.21463184
0.373953672
0.2640780716
0.1333636332
0.5991712306
0.7437596185
0.3867418779
0.4447937589
0.1825345253
0.6016432161
0.4037584741
0.3851134005
0.3930487233
0.1009389323
0.3947028461
0.5461665763
0.07041715846
0.2847581104
0.2896654504
0.3314010677
0.6243341483
0.5605709789
0.5284723879
0.4391142999
0.4138430086
0.4404377685
0.4167749219
0.7095773014
0.3082362483
0.2236502617
0.4591796893
)
;

boundaryField
{
    flow
    {
        type            zeroGradient;
    }
    obstacle
    {
        type            calculated;
        value           nonuniform List<scalar> 0();
    }
    frontAndBack
    {
        type            empty;
    }
    procBoundary3to1
    {
        type            processor;
        value           nonuniform List<scalar> 
36
(
1.259574671
1.988726313
2.321380585
1.828092788
4.8810061
4.8810061
2.170538403
1.863872683
1.618550678
2.55966672
3.839131094
1.08756077
1.08756077
0.3393886255
0.4763688159
1.129489384
1.541894765
0.8819821738
0.8819821738
0.4119531425
1.486229868
0.4630218047
0.9627065124
0.4968353033
0.3763145037
0.3763145037
0.3147224199
0.6355699431
0.4485531873
0.5139122544
0.3008502954
0.4682902154
0.283448455
0.283448455
0.6190865339
0.6190865339
)
;
    }
    procBoundary3to2
    {
        type            processor;
        value           nonuniform List<scalar> 
19
(
0.4011758437
0.8132266508
0.6481672112
0.519107067
0.568107655
0.3378327401
0.4827163339
0.5631331642
0.4854767771
0.3644767711
0.2064246651
0.5201971891
0.9305469155
0.1507384268
0.4744438514
0.4198700365
0.3771373144
0.1804260772
0.234102477
)
;
    }
}


// ************************************************************************* //
