/*--------------------------------*- C++ -*----------------------------------*\
| =========                 |                                                 |
| \\      /  F ield         | OpenFOAM: The Open Source CFD Toolbox           |
|  \\    /   O peration     | Version:  2406                                  |
|   \\  /    A nd           | Website:  www.openfoam.com                      |
|    \\/     M anipulation  |                                                 |
\*---------------------------------------------------------------------------*/
FoamFile
{
    version     2.0;
    format      ascii;
    arch        "LSB;label=32;scalar=64";
    class       volScalarField;
    location    "0.003";
    object      linearKEMean;
}
// * * * * * * * * * * * * * * * * * * * * * * * * * * * * * * * * * * * * * //

dimensions      [1 -1 -2 0 0 0 0];

internalField   nonuniform List<scalar> 
654
(
14.36973564
15.16856805
15.38847528
15.1652794
15.13955823
15.11166502
13.23644014
13.74350323
14.09485557
14.67243576
14.97622167
15.13420712
15.22063681
15.28211517
15.60176184
15.45977883
15.33842384
10.20084514
10.73290094
11.08757585
11.42817578
12.01054313
12.6717743
12.98476783
13.3108017
13.81429001
14.49395506
14.88538087
15.25752388
15.37291322
15.37880969
15.56380681
15.4518785
8.392492229
8.642051499
8.700614586
8.979009966
9.196027331
9.438329878
9.635748609
10.02066445
10.53416164
10.94128896
11.4572743
11.79777695
12.40066073
12.74924898
13.02500678
13.41849098
14.04655854
14.59847738
15.02277882
15.16124843
15.2337096
15.52674991
7.917457434
7.871458963
7.880608056
7.978400843
8.127450674
8.162610556
8.259673392
8.253032831
8.400461887
8.578047026
8.776378047
8.906081771
9.192086749
9.472120573
9.703954008
9.936112694
10.15782069
10.55357953
11.06727761
11.48722266
12.18562709
12.59477708
13.07286115
13.5039536
14.03754859
14.47349102
14.80606194
15.2138101
15.33966057
7.93330055
7.959381483
8.053405536
8.069988813
8.038795531
7.99820585
8.111170063
8.216982319
8.299113931
8.461741539
8.54697394
8.675505705
8.857448148
9.025287453
9.082697246
9.396143971
9.48060967
9.753334695
10.03881383
10.30272215
10.75116214
11.25520208
11.81906384
12.12225763
12.67206353
13.24941723
13.66975329
14.27947191
14.53873726
15.04438888
7.944326072
7.920941832
7.887356073
7.949995475
8.089446785
8.13066124
8.183244584
8.224043365
8.380877821
8.41575751
8.435685838
8.541278994
8.599912723
8.70672386
8.686312996
8.770105389
9.002115101
9.236325151
9.530592302
9.902480693
10.17809628
10.60335921
11.07914204
11.62464942
12.18320244
12.47733082
13.17670311
13.61200243
14.13332744
14.43975446
7.95669854
8.038798862
8.086450853
8.12594001
8.195343537
8.185530655
8.152426093
8.140436482
8.066790649
8.034623692
8.069714538
8.173266133
8.189639268
8.369295674
8.619608778
8.734746355
9.008107948
9.232241828
9.248067396
9.417369731
9.857158545
10.13878651
10.39205698
10.89145252
11.27707093
11.67075351
12.21580811
12.78836237
13.2682472
13.87654907
8.021327551
8.048654411
8.111379272
8.026821593
8.004584196
7.981944702
8.036607107
8.067847619
8.077491336
8.189446829
8.076864867
8.15862249
8.253056196
8.21489681
8.263431899
8.478108236
8.504714049
8.62969597
8.936003117
9.145441335
9.32852758
9.541440604
9.962127879
10.06626903
10.45108475
11.05096747
11.48731402
11.96009577
12.64543295
13.16401112
7.768660805
7.733763209
7.764496777
7.697799204
7.815660694
7.883417278
7.982645313
8.009327037
8.042868619
8.042944197
8.084758339
8.073655395
8.048435497
8.148090065
8.20318275
8.158875462
8.422826254
8.594832015
8.638714258
8.750882847
9.0387785
9.257718882
9.612140816
9.971636406
10.32027055
10.6651109
11.17868677
11.48604687
11.878415
12.20790403
7.915785295
7.899121049
7.950042838
7.901660834
7.86712911
7.847651283
7.770114801
7.859266381
7.886071372
7.965967812
8.005570503
7.919805367
7.968783015
7.996493101
8.062833318
8.099701629
8.087590325
8.304721251
8.509964322
8.646604204
8.751850897
9.028677605
9.222069724
9.513781194
9.730919589
9.936365602
10.45978613
10.79357976
11.40591585
11.82260833
7.957713814
7.879542007
7.736929897
7.8463154
7.87112084
7.954460005
7.942112964
7.861946684
7.822698377
7.76117952
7.908384086
8.018562961
8.024602943
8.026222659
8.087013119
8.284900971
8.299523377
8.217637997
8.354284433
8.325082988
8.597170196
8.728376694
8.873658554
9.078407353
9.364021397
9.681612332
9.85681206
10.30871505
10.67876248
11.24824497
7.764893649
7.86846698
7.897838404
7.860775913
7.739490626
7.743965143
7.773408221
7.782207803
7.811026502
7.843717895
7.815624046
7.842442089
8.005381207
8.016730268
8.026930934
8.053659353
8.117787345
8.236030592
8.302410905
8.465721755
8.480469817
8.513342059
8.60707721
8.700566481
8.892032935
9.21974001
9.528663301
9.873786312
10.2629732
10.51810799
7.758654269
7.759958678
7.750601149
7.762197915
7.824159016
7.777448079
7.778966485
7.715674792
7.794777759
7.87879992
7.869088115
7.847078506
7.764195334
7.892499927
7.977209714
8.049846438
8.064507644
8.162356312
8.067438519
8.203473338
8.176702516
8.331412327
8.469398488
8.62527365
8.783944693
8.891536826
9.089622052
9.340730298
9.603148123
10.08789173
7.740774647
7.760502308
7.763953613
7.79152836
7.715134841
7.794998987
7.879218029
7.916415231
7.83955726
7.82659695
7.933851156
8.006210646
8.006120526
8.118425693
7.998067785
7.977984859
7.981993583
7.893963461
7.919120928
7.93388383
7.897349426
8.039573949
8.118757111
8.246594404
8.434849333
8.641529198
8.896013024
9.109278526
9.232304445
9.525023897
7.836463606
7.735912343
7.730326029
7.740062901
7.814489157
7.833847171
7.832081541
7.92747077
8.025032786
7.989699119
7.892745456
7.900891564
7.934314886
7.885015684
7.912165212
7.940670721
7.982431458
8.03177081
8.054280793
8.183185388
8.230142704
8.290409998
8.358424014
8.45602782
8.440725525
8.547537832
8.559812896
8.825565665
9.046728316
9.238510296
8.00391054
8.051692215
8.120133347
8.00566032
7.983771552
7.95578461
7.867734521
7.832536996
7.766490144
7.874837375
7.908349222
7.834981563
7.798110109
7.80996625
7.86249209
7.889650358
7.925417854
7.933459979
8.08370487
8.101487393
8.255960383
8.232033776
8.24327795
8.222519038
8.248306612
8.295803702
8.352600098
8.500995927
8.518063442
8.748592621
7.983226828
7.969164899
8.075829935
8.087338908
8.046455777
8.08494885
8.040347889
8.045731192
7.874475886
7.854534258
7.818337244
7.818421631
7.885318791
7.941546469
7.858093957
7.887337866
7.919028888
7.967225903
7.936825257
7.880302321
7.896266697
7.943273535
7.999228805
8.130356392
8.301774121
8.228436202
8.399279449
8.418052836
8.497106741
8.64133808
7.785789828
7.678600944
7.664624288
7.643755266
7.658460916
7.701481199
7.702163675
7.778991155
7.843738245
7.741211523
7.799428841
7.836347701
7.86973807
7.806113172
7.94172846
7.855014408
7.828654641
7.844396759
7.879252869
7.94135661
8.015858204
7.956994311
7.954857475
7.976160345
8.033733131
8.059601604
8.055312104
8.313606416
8.517850524
8.558746605
7.793784893
7.691772948
7.699388068
7.681651421
7.749498275
7.743346719
7.715837936
7.720859014
7.829626471
7.843025929
7.909205813
7.794476775
7.726602285
7.796669907
7.755617462
7.795403991
7.936771174
7.878916923
7.963313308
7.945522011
7.898445502
7.935895609
7.929363699
7.984722497
8.092039968
8.194299544
8.20154773
8.189352451
8.219294221
8.30603135
7.813200511
7.824061448
7.780869383
7.862084185
7.799349969
7.864243648
7.93480623
7.971592394
7.856735385
7.973062201
7.965081181
7.995525417
8.069360769
7.988209085
7.917049003
7.959123078
7.901309107
7.868041298
7.827851895
7.777562654
7.885768897
7.926287706
7.991753729
7.959272724
8.037628792
8.099171674
8.134815848
8.355050933
8.41390595
8.484622829
7.974070527
7.986492631
8.013941365
8.003355626
7.984683901
7.896781819
7.860361128
7.819641603
7.853893788
7.773038541
7.696106747
7.763289295
7.830732153
7.900803925
7.953929332
7.980192074
7.995895265
8.00024231
7.992364718
8.008760384
7.988342415
8.047695543
8.060413715
8.037148337
8.039336133
8.102051429
8.16331882
8.025148508
8.004017556
8.118080429
7.918972086
7.857501068
7.930860449
7.888282312
7.917307399
7.980980535
7.998969411
7.913123399
7.91076623
7.925100685
7.891710534
7.959750842
7.881602993
7.883960128
7.84203336
7.842290735
7.91252777
7.978269574
8.043218133
8.056480925
7.985064041
7.868089451
7.893872883
8.051997819
8.140980033
8.017638619
8.042808107
8.137139286
8.292058432
8.299932324
7.623111012
7.709263628
7.693531226
7.728922397
7.678760122
7.644104646
7.740931014
7.773920987
7.821604259
7.85876277
7.856921319
7.772003969
7.783708268
7.71762098
7.737545778
7.821696352
7.65329902
7.637417861
7.562369431
7.664102178
7.746831761
7.896455694
7.864276695
7.875807936
7.727400033
7.768603456
7.78622053
7.810785328
7.866075774
7.977361086
)
;

boundaryField
{
    flow
    {
        type            calculated;
        value           nonuniform List<scalar> 
55
(
14.36973564
15.11166502
15.33842384
15.4518785
15.52674991
15.33966057
15.04438888
14.43975446
13.87654907
13.16401112
12.20790403
11.82260833
11.24824497
10.51810799
10.08789173
9.525023897
9.238510296
8.748592621
8.64133808
8.558746605
8.30603135
8.484622829
8.118080429
8.299932324
7.977361086
7.623111012
7.709263628
7.693531226
7.728922397
7.678760122
7.644104646
7.740931014
7.773920987
7.821604259
7.85876277
7.856921319
7.772003969
7.783708268
7.71762098
7.737545778
7.821696352
7.65329902
7.637417861
7.562369431
7.664102178
7.746831761
7.896455694
7.864276695
7.875807936
7.727400033
7.768603456
7.78622053
7.810785328
7.866075774
7.977361086
)
;
    }
    obstacle
    {
        type            calculated;
        value           nonuniform List<scalar> 0();
    }
    frontAndBack
    {
        type            empty;
    }
    procBoundary3to1
    {
        type            processor;
        value           nonuniform List<scalar> 
36
(
13.77594732
15.14965526
14.95569914
14.9617249
14.65270919
14.65270919
13.73190503
13.93320088
14.47132252
14.72749354
14.97844128
15.06882493
15.06882493
10.73216505
11.20444131
11.67816332
12.19683969
12.59129024
12.59129024
8.551375668
8.570715168
9.067380903
9.176504483
9.336559525
9.746974083
9.746974083
8.023712588
8.026348598
8.052127173
8.136657306
8.135412663
8.20897426
8.280420447
8.280420447
7.824700533
7.824700533
)
;
    }
    procBoundary3to2
    {
        type            processor;
        value           nonuniform List<scalar> 
19
(
7.951332267
7.830528252
7.970892279
8.0232312
7.755032058
8.019546258
7.842782131
7.811003485
7.764440686
7.778931009
7.781006473
7.957420196
7.973465178
7.853139634
7.654516526
7.840896281
7.814549118
7.963010497
7.681053022
)
;
    }
}


// ************************************************************************* //
