/*--------------------------------*- C++ -*----------------------------------*\
| =========                 |                                                 |
| \\      /  F ield         | OpenFOAM: The Open Source CFD Toolbox           |
|  \\    /   O peration     | Version:  2406                                  |
|   \\  /    A nd           | Website:  www.openfoam.com                      |
|    \\/     M anipulation  |                                                 |
\*---------------------------------------------------------------------------*/
FoamFile
{
    version     2.0;
    format      ascii;
    arch        "LSB;label=32;scalar=64";
    class       volScalarField;
    location    "0.003";
    object      linearKE;
}
// * * * * * * * * * * * * * * * * * * * * * * * * * * * * * * * * * * * * * //

dimensions      [1 -1 -2 0 0 0 0];

internalField   nonuniform List<scalar> 
654
(
15.3698031
11.03548458
10.10155987
17.0068292
16.37467977
14.36296053
10.27246446
22.06504999
15.73507149
15.71081011
20.92661329
16.75218649
18.67376484
13.29279906
15.61148303
16.32619079
13.15939863
12.51096665
10.73377711
8.705549803
7.310717634
16.25259494
6.236946257
6.992372322
18.89860279
17.76823201
19.74853172
17.34748336
17.16002999
16.11113193
21.8476808
21.07171387
15.73143382
10.16914784
13.83528283
12.79437531
5.74816162
11.9178777
7.322543383
11.26159126
3.78167574
9.619882944
14.32475807
9.801349325
10.1641781
9.681070278
14.38273574
11.76913647
8.752905644
10.85578745
12.64437249
24.8941454
12.5241718
6.774278939
13.27011213
5.943540404
6.573092564
9.041609837
2.541488358
7.68549303
11.46795094
8.629156263
6.50203024
10.00422619
6.121207123
7.316703138
11.14862357
5.304432648
9.212643597
10.25283522
5.696423695
12.58420918
18.02668847
10.40484371
21.10148925
10.00659314
7.437896776
8.501155863
16.93718674
10.80625981
19.01494794
19.47063106
13.58850426
17.81748518
4.26517071
2.289485095
7.020420429
6.17599358
7.198823151
7.777248863
9.484016156
11.77046696
5.534146198
8.955475214
9.36668611
6.553429889
6.69683757
7.763118568
10.81025199
8.704005255
15.73208686
10.5632362
11.09689935
12.58357935
7.193218031
5.599484858
10.13759919
10.2315263
15.26759051
23.17647603
21.89071264
15.75423215
14.75877485
12.87020503
6.453799128
7.271678838
13.5973604
7.945663322
5.765040184
4.319366627
12.78837296
8.956718024
7.6297872
4.447241596
10.69182016
7.49312958
5.874369036
15.52192546
15.79088669
14.45408701
12.54218389
13.14151406
5.614138698
11.55324004
2.903112818
15.13748959
8.838013476
13.12200155
11.62123018
13.96693445
13.42765366
17.3704195
16.00007212
12.72560699
7.661872918
8.584400905
9.159306619
6.213816389
9.668280906
6.146744527
7.592224513
4.722963469
6.119169013
13.50557185
7.21514271
4.418679027
10.6055169
12.46109345
7.335098409
7.476885102
6.161362234
8.478439016
16.92608086
6.054604389
7.980260587
7.298961774
13.90783097
21.95422502
12.06564434
10.81187251
6.05548698
10.87365042
17.96823223
11.8692092
8.265101533
9.623136215
7.248465758
10.36455208
3.650210635
8.413371031
6.985724711
7.543974305
3.562787412
10.34772546
11.44309978
7.526576959
5.373641376
5.91430397
9.768463126
5.45302088
14.61884945
8.989365202
9.439141616
10.48414174
8.961059091
8.784026203
11.43489075
10.75924685
7.554935445
12.47291429
21.27683264
13.47866484
7.883127315
9.81540052
6.810475286
13.67324562
11.40182317
10.78210756
7.542531565
4.408454953
4.718838752
8.281335375
6.279704862
6.384304062
10.14226324
9.611226376
7.241670345
8.946911306
11.01603883
8.286887227
5.936236383
13.27501646
7.732377519
8.642808484
12.99639959
7.546443563
2.241417898
14.80844615
7.435716514
8.527293975
10.92465605
11.77065637
23.29623751
15.1060157
9.661101994
11.60530369
5.647392224
6.509312519
7.656318735
6.834916644
8.205493197
5.065622646
8.84838021
2.678098006
9.793103785
13.46682748
12.3021859
9.865513138
9.594692667
15.33872991
8.340836004
9.157054201
6.448194758
10.51850312
5.504063906
11.21125498
9.196733734
6.29872945
8.835567691
8.986786095
17.50241189
8.904661293
11.31990204
14.92399987
5.876337942
11.33443474
14.15447233
10.30137727
9.056400329
10.53116214
13.51671257
6.861216802
10.8121198
9.383024015
9.568564387
16.03262846
7.053175281
10.84399613
9.103790597
7.812122407
3.895793163
7.325242888
8.638706881
9.361648322
12.16048291
8.870622058
11.4132776
8.058141949
10.24428788
7.483783563
6.160674936
15.43745397
5.456420265
17.472169
8.326040733
6.554677295
4.999087117
8.393713548
2.392232607
6.177646201
4.498038775
5.753472232
13.51399358
3.935284205
4.717469174
10.92448009
7.143715417
6.545394461
9.44474337
10.17547232
13.39254727
2.257357237
5.408401317
5.029756561
12.62171217
12.9759286
2.745347514
5.85339325
11.82563046
9.679908819
1.24703889
10.60698197
12.91966746
8.680156413
5.347116292
5.19923694
7.750271099
6.945869953
3.384527354
2.685256651
4.041042471
10.07092983
5.856197429
7.754575522
6.571791375
8.328237973
9.937717808
8.663568458
9.855974628
7.719611235
8.582612161
9.250050548
5.403974231
14.91313477
5.697446771
6.553984063
5.728935144
12.24568021
6.689562242
14.23887696
12.1464057
8.128899018
6.695762099
12.45374256
7.156843973
10.3492588
6.501696576
8.043939865
8.577353273
4.507009437
10.16384904
9.470013581
4.88912708
4.922989688
1.700913147
5.895431059
7.018202492
8.959662588
7.429587814
4.865323833
7.477727542
5.077632203
7.22771607
11.21254514
5.685728177
7.619956571
5.877837948
12.35772324
12.56911299
8.896673941
7.195615922
15.97364457
7.16119307
12.94540652
12.25612032
10.91795344
9.933446871
10.32040629
12.12739484
3.594669094
10.06367526
8.7324007
8.534713462
11.37315904
9.067690433
8.143449191
7.523633311
10.69080686
7.560855983
9.942630057
5.090723963
6.019433808
7.44190131
12.27996999
12.42998526
4.814874225
8.556963993
10.54214982
9.350779742
7.843021184
11.34644233
13.11058673
8.02134021
8.710754911
8.163841475
10.55593442
9.108279272
4.172018895
6.651293993
9.619539872
8.088431206
10.30966358
7.907491679
11.03603813
5.04325431
10.73942039
7.369785657
14.51152281
8.141191307
8.938236222
6.141039463
9.293712551
3.233062117
7.810889725
8.907910336
6.825337691
8.241648126
9.334722272
3.868239409
6.208892261
6.177465075
4.679281501
12.925181
5.870455801
9.14429598
8.021237863
9.119106856
4.792413081
13.17651763
3.487785392
8.19937795
7.182122998
3.063078115
5.921114481
10.6572017
9.822568104
7.320637245
11.10837031
4.524309755
10.75818453
2.850586465
5.915448422
4.8204753
5.980865574
5.086441131
6.325814208
2.167676837
11.25823528
9.095284608
2.917113058
8.143523531
12.10565213
4.558842159
13.67364965
12.33946524
13.46777432
7.740879669
7.511306095
8.63072894
8.652224127
8.161218144
9.323182687
3.380740539
5.45267597
6.158547127
7.002689431
6.255493552
13.4279318
7.266097216
7.056957745
5.65880471
8.923685241
6.970859412
8.877455519
3.508074925
10.95006715
6.848076277
5.909973216
7.503068075
5.720177269
9.05623194
11.10558971
10.09125348
4.445035035
3.323310502
9.169354286
4.027378897
3.962069423
7.638575317
14.75729183
10.48904656
6.16860761
9.625021895
8.020943788
7.35423064
4.758331266
4.919728603
4.765784266
6.140582705
10.50024446
6.578260391
7.202256713
4.819839334
7.770406973
8.856488567
7.348610356
7.403320283
6.740877661
10.06618519
7.407485832
8.606204408
10.84489461
12.98923911
4.63740415
6.250267932
5.522529732
12.02135886
11.35173023
9.166131853
9.977286894
11.0677376
6.79060169
12.64523584
5.332439411
1.100003662
5.806632106
8.162492519
9.912886351
5.48203484
9.041256731
3.088670738
7.285397234
3.72782595
7.393060804
5.789189082
9.362008937
1.586016642
6.260538504
5.652296343
7.899728996
8.903948798
7.261704544
5.017018081
5.070167933
5.005996591
4.019133055
12.61554727
10.1789916
6.502944914
7.554117425
10.82690178
4.541591049
10.55589165
10.91679865
4.46217536
7.846610043
5.104611104
10.42473716
13.26424918
9.061188421
5.549730914
6.562047511
7.992980377
4.344982946
6.594087153
8.57691684
10.98211809
9.273828743
7.77089131
4.644428461
10.48205126
8.468778447
8.18769259
4.776220102
8.29336337
8.394310607
7.534145446
6.418738883
7.769910105
4.613999264
5.5451664
10.32991782
6.403875791
12.02433711
11.13030573
9.34947617
11.15307914
7.364689706
9.433845441
5.844589788
5.810814551
7.226539413
14.62704747
6.798604523
10.82509414
4.029449972
4.132773217
10.3849574
11.99233916
5.88414446
12.27271487
6.435698653
7.512276754
8.708325026
8.591254016
4.440446139
7.527832261
13.41698414
7.143616563
7.158269767
9.209559998
5.99922321
6.675516499
6.430807421
9.091860531
6.333570261
5.445555336
12.84449423
7.87119242
5.152643955
6.767336547
4.148930281
5.706304193
6.606297917
10.46629945
9.167649715
5.760952684
3.490027699
8.534028522
9.634939212
8.29488491
5.62049193
4.414869686
11.17186442
)
;

boundaryField
{
    flow
    {
        type            zeroGradient;
    }
    obstacle
    {
        type            calculated;
        value           nonuniform List<scalar> 0();
    }
    frontAndBack
    {
        type            empty;
    }
    procBoundary3to1
    {
        type            processor;
        value           nonuniform List<scalar> 
36
(
11.56267526
15.31450968
14.79397363
13.56184659
23.2674963
23.2674963
14.15932197
13.83422372
13.66388087
9.226908972
16.19884897
9.337552021
9.337552021
11.93497195
9.432794701
17.11476793
10.88021046
4.713629946
4.713629946
8.99596117
13.55713764
7.063564907
9.803083131
6.544938668
8.481179648
8.481179648
5.785992799
11.16706256
9.937602739
5.892399936
5.840492572
7.382045078
4.706173414
4.706173414
11.29094126
11.29094126
)
;
    }
    procBoundary3to2
    {
        type            processor;
        value           nonuniform List<scalar> 
19
(
6.672448966
8.56443446
12.38247354
6.927849612
10.44209513
7.804253824
7.289779806
13.23767572
5.741338151
5.39631282
3.198377348
8.252906997
9.693926285
6.781543936
7.96874319
10.13834917
9.533664865
3.517785098
6.782319296
)
;
    }
}


// ************************************************************************* //
