/*--------------------------------*- C++ -*----------------------------------*\
| =========                 |                                                 |
| \\      /  F ield         | OpenFOAM: The Open Source CFD Toolbox           |
|  \\    /   O peration     | Version:  2406                                  |
|   \\  /    A nd           | Website:  www.openfoam.com                      |
|    \\/     M anipulation  |                                                 |
\*---------------------------------------------------------------------------*/
FoamFile
{
    version     2.0;
    format      ascii;
    arch        "LSB;label=32;scalar=64";
    class       volVectorField;
    location    "0.003";
    object      momentumMean;
}
// * * * * * * * * * * * * * * * * * * * * * * * * * * * * * * * * * * * * * //

dimensions      [1 -2 -1 0 0 0 0];

internalField   nonuniform List<vector> 
654
(
(0.0148713566 0.004544268998 -2.290267609e-05)
(0.01526937001 0.004788508876 3.889194963e-05)
(0.01554783352 0.004895558189 6.944998082e-05)
(0.01543032654 0.004789664029 6.59530106e-05)
(0.01544982278 0.004789301138 0.0001086476746)
(0.01552713193 0.004703484904 4.159972893e-05)
(0.01329365772 0.003409297942 2.944705405e-05)
(0.01379538088 0.003579773277 -3.267075108e-05)
(0.01418251343 0.003870631694 -5.62605958e-05)
(0.0147758102 0.004176861963 -5.536960046e-05)
(0.01505659713 0.004450539506 6.407597759e-06)
(0.01526033026 0.004626824445 -6.657463495e-05)
(0.01539601559 0.004674077014 -0.0001142098998)
(0.01544229981 0.004687089754 -5.89672425e-05)
(0.01576335557 0.004873090649 -3.188651131e-05)
(0.01571437492 0.004780227509 3.378608541e-05)
(0.01563089826 0.004776758879 7.19450648e-05)
(0.01043076069 0.001511681738 2.425616797e-05)
(0.0109244554 0.001731813281 -1.661591767e-06)
(0.01128143468 0.001999107345 4.014183683e-05)
(0.01159783198 0.002206148548 1.676022594e-05)
(0.01217961062 0.002529154038 -3.988257749e-05)
(0.01277354463 0.003004249383 -2.743161404e-05)
(0.01307391893 0.003213050422 -5.256096939e-06)
(0.01341778357 0.003374391056 -2.76225713e-05)
(0.01388015569 0.003690194476 -4.617808373e-05)
(0.01452675456 0.0040516735 -1.478524684e-05)
(0.01493596355 0.004338540646 1.596340552e-06)
(0.01530375623 0.004557302505 -1.34580154e-05)
(0.01547571466 0.004633760602 -6.545938573e-05)
(0.01553682665 0.00465421703 -7.531233979e-05)
(0.01569871874 0.004784392651 -8.818833534e-05)
(0.01562111516 0.004701630803 -3.697682702e-05)
(0.008782401247 0.0004477727566 -1.019546402e-05)
(0.009036994205 0.0004975502316 -3.743804414e-06)
(0.009077544224 0.0005790934362 -1.78691851e-05)
(0.009310691504 0.0007324162284 8.971358691e-06)
(0.009505136493 0.0008293736664 3.552890361e-06)
(0.009739700789 0.0009591372863 -2.726332905e-05)
(0.009898894772 0.001127652889 -3.642499933e-06)
(0.01025664 0.001362682553 -2.442801653e-05)
(0.0107326834 0.001536279848 8.473051628e-06)
(0.01110442968 0.001852017793 8.275301067e-06)
(0.01160160549 0.002096827169 -1.438225919e-05)
(0.01190102664 0.002398513185 -2.786401886e-05)
(0.01245901873 0.002844268406 -6.84611545e-05)
(0.01285399288 0.003026076272 -2.973821901e-05)
(0.01315159601 0.003215366785 -9.538778417e-05)
(0.01353979674 0.003461058211 -6.150587613e-05)
(0.0140954869 0.003849858612 -5.1352486e-05)
(0.01462004546 0.004181177069 -2.782240041e-05)
(0.01507602822 0.00438554677 9.025491349e-06)
(0.01528473484 0.004531557685 2.885009508e-05)
(0.01538558865 0.004617142144 2.440309164e-05)
(0.01569078618 0.004669332033 3.37000737e-05)
(0.008369706721 7.243026723e-05 3.664552423e-05)
(0.0083337392 9.627483306e-05 1.302250741e-05)
(0.008322534463 0.0001180447032 1.425701098e-05)
(0.008410730888 0.0001377726022 4.76837656e-07)
(0.008543276876 0.0001947917194 -1.646606065e-05)
(0.008570462423 0.0002224141798 -2.385350072e-05)
(0.008673452825 0.0002667739032 8.54621184e-06)
(0.008667623476 0.0002938870045 -6.009973785e-06)
(0.008793071675 0.0003777549988 -1.374681993e-05)
(0.008944165909 0.0004731788585 -2.229929004e-05)
(0.009128353035 0.0005449723726 -1.835795769e-05)
(0.009263852451 0.0006578373863 -2.57571833e-06)
(0.009528205798 0.0007807486766 1.155982183e-05)
(0.00979381006 0.0008808961808 -1.809031972e-06)
(0.009997135589 0.001056543983 -1.206790615e-05)
(0.01019717375 0.001253477296 -5.916984531e-05)
(0.01043073897 0.001396648954 -2.174876314e-05)
(0.01076326415 0.001697055347 -1.463429297e-07)
(0.01126548814 0.001948888189 3.554195427e-05)
(0.01165562344 0.002276603864 5.014163122e-05)
(0.01228570983 0.002672310114 -3.637553896e-05)
(0.01271351522 0.00285001824 1.201624494e-05)
(0.0131944967 0.003069725592 -2.301150587e-05)
(0.01358489013 0.003382957664 -4.180718824e-05)
(0.0140758017 0.003714593558 2.043863867e-05)
(0.01446698848 0.004059192141 5.010730231e-05)
(0.01481028407 0.004266627061 3.103403851e-05)
(0.01525975984 0.004428501014 3.847647773e-05)
(0.01545285764 0.004545592555 -2.315703695e-05)
(0.008396988473 8.890326703e-05 -4.743047646e-05)
(0.008412258839 0.0001016442241 -3.81243737e-05)
(0.008515721199 0.0001067130975 -1.316217648e-05)
(0.008524370446 0.0001061801177 -2.045554948e-05)
(0.008488774298 0.0001326293725 5.377057796e-06)
(0.008437496515 0.0001508640594 1.210135254e-05)
(0.008555946009 0.0001709582831 1.680464878e-05)
(0.008645859974 0.0002139889574 9.707508616e-07)
(0.008732816105 0.0002323521975 1.30342992e-05)
(0.008897715534 0.000258802083 8.066372265e-06)
(0.008969817227 0.000334452323 -4.274822315e-06)
(0.009095364749 0.0004014932112 1.07666472e-06)
(0.009267001493 0.000491593228 -1.389909148e-05)
(0.009424468606 0.0005885991977 4.540943292e-06)
(0.009469600216 0.0007300748976 4.339472758e-05)
(0.009759869246 0.0008542623038 2.69099916e-05)
(0.009801079751 0.0009976872895 1.190150079e-05)
(0.01005332907 0.001178103412 2.02941555e-05)
(0.01032499315 0.001347657081 -2.92541145e-05)
(0.01055077786 0.001552362065 -5.46820267e-05)
(0.01097644327 0.001798486361 -1.713795581e-05)
(0.01143614461 0.00212591981 -5.42491019e-05)
(0.01198787993 0.002464350569 -6.450249726e-05)
(0.01228536907 0.002636731691 -1.156985168e-05)
(0.01276874042 0.00293310284 -1.965554644e-05)
(0.01331061903 0.003286844231 -7.355903935e-05)
(0.01372723399 0.003512401725 -5.376004796e-05)
(0.01431803926 0.003857260674 -4.730482738e-05)
(0.01459486262 0.004077609328 -7.083323745e-05)
(0.0151111262 0.004315376976 1.490067687e-05)
(0.008407515029 4.347231461e-05 -6.20018301e-06)
(0.008369587915 5.170532204e-05 -1.61297672e-06)
(0.008332665382 7.787594717e-05 3.593376915e-08)
(0.008403395846 9.349866367e-05 -5.411330475e-06)
(0.008528391614 9.797697951e-05 -1.042362873e-05)
(0.008578751997 0.0001073670236 -2.591071182e-06)
(0.008640429595 0.0001133124415 8.766505327e-07)
(0.008675592522 0.0001053651103 1.733349449e-06)
(0.008809783534 0.0001584934452 -3.397446158e-07)
(0.008865426029 0.0001939673815 8.433631541e-06)
(0.008903600992 0.0002438934643 -1.038490981e-05)
(0.00895542865 0.0003240487439 -3.515085022e-05)
(0.008999408298 0.0003798723452 -3.164742406e-05)
(0.009079038786 0.0004814792965 -2.796585626e-05)
(0.009048918572 0.0005720722733 -1.017428285e-05)
(0.009147865718 0.0006550780355 -1.784375231e-06)
(0.009368047026 0.0007871658708 8.921199199e-06)
(0.00955065635 0.0009677728171 -2.272399254e-05)
(0.009865753992 0.001071479774 -2.433900388e-06)
(0.01021000028 0.001226983879 1.935375479e-05)
(0.01045376886 0.001426474099 -4.20224447e-06)
(0.01082802861 0.001705225909 2.614478309e-05)
(0.01128525225 0.002003797727 8.173848885e-06)
(0.01181893735 0.002285650832 1.691251122e-06)
(0.01238455839 0.002491052434 2.919730251e-05)
(0.01267115749 0.00273943636 8.720128821e-06)
(0.01326982042 0.003161341778 1.675147101e-05)
(0.01370616495 0.003450297957 -1.719019479e-05)
(0.0142390788 0.003744336263 -0.0001172178415)
(0.01452818714 0.003929913303 -0.0001044501075)
(0.008398625561 4.853377603e-05 1.36580616e-06)
(0.008498927746 3.515517915e-05 6.271304372e-07)
(0.008561941019 1.650584918e-05 -1.598747528e-05)
(0.008604547386 2.156891191e-05 -1.026380384e-05)
(0.008683255155 5.572605145e-05 -8.823040333e-06)
(0.008640061962 7.474762551e-05 -1.627254511e-05)
(0.008605189959 9.870457369e-05 -2.461782558e-05)
(0.008599186656 0.0001341816426 -2.07167168e-05)
(0.008505534602 0.0001523064479 -2.984512193e-05)
(0.008476207927 0.0001579530303 -2.422746073e-05)
(0.00850866804 0.0001577860092 -2.304883912e-05)
(0.008632534904 0.0001971831452 -8.731358592e-06)
(0.008656630624 0.0002723649037 -4.895181132e-06)
(0.008823043178 0.0003674092863 -5.703480363e-06)
(0.009036672581 0.0004655205372 -2.638983414e-05)
(0.009138224089 0.0005526641564 -1.400614261e-05)
(0.009376735384 0.0006402858754 9.070772771e-06)
(0.009602401185 0.0007269844433 2.774978599e-05)
(0.009581060511 0.0008517800516 -2.831414349e-05)
(0.009747666899 0.001015714721 -2.341175806e-05)
(0.01016169525 0.001194859328 -2.022074474e-05)
(0.01041034887 0.001373497469 9.377191409e-06)
(0.01063411243 0.001507075138 2.999806045e-05)
(0.01110713133 0.001818845448 -2.537827071e-05)
(0.01152177365 0.002118341066 -2.497423058e-05)
(0.01185190291 0.002345806156 -7.544682374e-06)
(0.01236957427 0.002654533014 -2.730815429e-05)
(0.012898794 0.002998714209 5.588253132e-05)
(0.01334984064 0.003235442422 7.549915844e-05)
(0.01396725842 0.003548987177 -5.010130589e-06)
(0.008502159704 1.77857361e-05 -1.195016773e-05)
(0.008543313936 8.622530818e-06 -5.811444638e-07)
(0.008574288087 3.002664238e-05 -1.027240504e-05)
(0.008517866012 5.280918311e-05 -9.700605941e-06)
(0.008479198905 6.509190636e-05 8.418876256e-06)
(0.008457676572 7.182991478e-05 1.067844035e-05)
(0.008510370864 6.87005604e-05 -3.008918771e-06)
(0.008536155607 6.855535026e-05 -4.338485099e-06)
(0.008538682592 0.0001238185368 -5.976728851e-06)
(0.008625126181 0.0001353523494 -7.942855568e-06)
(0.008521301228 0.0001583311773 -1.449804879e-05)
(0.008593162792 0.0001891609831 -2.838603081e-05)
(0.008680931027 0.0002283901171 -3.531630537e-05)
(0.008648969895 0.0002612285164 -2.521517331e-05)
(0.008679330432 0.0003076826372 -2.832930616e-05)
(0.008873152107 0.0003600644431 -3.677001342e-05)
(0.008902870131 0.0004881900205 -3.836339815e-05)
(0.008988467838 0.0006002124808 -3.362385345e-05)
(0.009291247068 0.0006828480572 -3.021585911e-05)
(0.009470406785 0.0007887510117 -2.679185817e-05)
(0.009648957111 0.0008939863212 -4.725923683e-05)
(0.009860400772 0.001099878663 -3.152407054e-05)
(0.01026503784 0.00130257347 -3.333281068e-05)
(0.01035429185 0.001464992795 -1.269878762e-05)
(0.01069571819 0.001682212821 2.86370617e-05)
(0.01127820089 0.001988757862 -1.169768479e-05)
(0.01169184718 0.002207426407 -1.739388994e-05)
(0.01213929241 0.002466234554 1.251986658e-06)
(0.01281595147 0.002784265689 7.133787244e-05)
(0.0133157942 0.003139882215 3.113522325e-05)
(0.008258442142 -3.917177295e-05 -4.333080382e-06)
(0.008217356865 -2.135664997e-05 -1.38273812e-06)
(0.008247508156 7.626452956e-06 6.152393109e-06)
(0.008186511105 1.105541209e-05 1.018960376e-05)
(0.00830960578 1.911507386e-05 1.753863506e-05)
(0.008364194703 2.844459923e-05 1.96234919e-05)
(0.008458338027 6.252532371e-05 1.350891618e-05)
(0.008473505913 8.251923502e-05 1.573408395e-05)
(0.008490752038 8.732360557e-05 1.472773589e-05)
(0.008491029862 0.0001177051232 1.486542092e-05)
(0.008530574245 0.0001635242567 9.444129212e-06)
(0.00851700335 0.0001570367026 7.884155391e-06)
(0.008489330321 0.0001674593392 -7.619453039e-06)
(0.008585994246 0.0001903737054 -1.118122664e-05)
(0.00863992677 0.0002588227574 -1.904601005e-05)
(0.008607427456 0.0003234526279 -3.078842998e-05)
(0.008838652028 0.0003916878744 -7.324873516e-06)
(0.009004722833 0.0004341172175 5.670688498e-06)
(0.009031929781 0.0005098411188 1.199771002e-06)
(0.009145681103 0.0006092747889 9.596160379e-06)
(0.009418103534 0.0007156608719 2.509754792e-05)
(0.009627649119 0.0008428749511 9.146766956e-06)
(0.009924147221 0.001067119782 -9.67438921e-06)
(0.01029177037 0.001196167528 -2.996429112e-05)
(0.01060870844 0.001388781244 -5.731941409e-05)
(0.01096178699 0.001563048439 -2.415090825e-05)
(0.01143883375 0.001876431366 -2.047310455e-05)
(0.01172070067 0.002155783755 -6.002937247e-05)
(0.01202324911 0.00244136573 -5.198182569e-05)
(0.01236109885 0.002609926504 -1.502915266e-05)
(0.00837868826 5.577654518e-06 1.060578988e-05)
(0.008365982609 2.053415347e-05 4.322363058e-07)
(0.008421113057 -3.247533146e-06 9.435969676e-06)
(0.008344157582 -1.176366622e-05 3.216684937e-06)
(0.008312990264 -1.598344467e-06 -2.185663312e-05)
(0.008282759876 4.605988825e-06 -1.497467514e-05)
(0.008208768832 2.546616541e-05 -6.451595405e-07)
(0.008315508114 3.971466119e-05 2.312054433e-06)
(0.008351890001 6.866229007e-05 -1.22700511e-05)
(0.008443924725 9.18831126e-05 -4.476470333e-06)
(0.008482853891 0.000106888756 7.706559671e-06)
(0.00839859977 0.0001582026906 2.388913758e-05)
(0.00845035661 0.0001776845224 5.274403425e-05)
(0.008437825333 0.0001869541698 2.003702325e-05)
(0.008492405117 0.0001948889216 5.255423429e-06)
(0.008495613227 0.0002027314268 -1.565925756e-05)
(0.008493544328 0.0002306133023 -3.626263641e-06)
(0.008701977951 0.000323532232 -1.480744572e-05)
(0.008925392462 0.0004008603065 -1.168604796e-05)
(0.009061708962 0.0005004851021 -2.703392994e-05)
(0.00913998464 0.0005414334305 -4.698268016e-05)
(0.009398310824 0.0006301533472 -3.045445707e-05)
(0.009612764353 0.0007606914789 -2.001587e-05)
(0.009883100877 0.0009074898083 -4.234356629e-05)
(0.01008836004 0.001090646179 -5.554166018e-05)
(0.01028794919 0.001278872203 -7.670290132e-05)
(0.01070894026 0.001552343336 -5.629379425e-05)
(0.01107217886 0.001783453094 -6.181412682e-06)
(0.01165168858 0.002097461473 -4.140585688e-05)
(0.01205940531 0.002316535893 -6.389551098e-05)
(0.008420152854 -7.159904038e-06 -3.18160138e-05)
(0.008340765234 1.162288335e-06 -2.14417754e-05)
(0.008198443457 1.923029119e-05 -1.782321305e-05)
(0.008304622701 1.860175795e-05 -1.904230823e-06)
(0.008340869034 1.865639064e-05 3.774822609e-06)
(0.008419714873 2.98834952e-05 7.85382739e-06)
(0.008404779743 9.651112196e-06 -3.077672309e-06)
(0.008331132006 1.738388809e-05 8.807604854e-06)
(0.008285289349 4.085079121e-05 4.021452641e-06)
(0.008194256816 8.091428707e-05 1.510921609e-05)
(0.008345985464 9.334913351e-05 1.347780197e-05)
(0.008470648213 0.000101469075 -1.003010443e-05)
(0.008490216677 0.0001077034488 -2.224272259e-05)
(0.008496410938 0.0001325514311 -2.294404823e-05)
(0.008545917348 0.0001646666061 -1.925840812e-05)
(0.008748243978 0.0002097238843 -1.528575499e-05)
(0.008774945755 0.000217216243 -3.991123976e-05)
(0.00867813335 0.0002388514411 -5.367385939e-06)
(0.008785951856 0.0002800471881 -1.143320603e-05)
(0.008736924262 0.0003583117418 1.667758545e-05)
(0.009025811486 0.0004198376052 1.066018073e-05)
(0.009140621447 0.000495077555 6.167932595e-06)
(0.009254407025 0.0005607478721 -8.471953141e-06)
(0.009417862057 0.0007369537571 7.032590616e-06)
(0.009674805073 0.000892225923 7.625877272e-07)
(0.0099782556 0.001060138773 -1.939930986e-05)
(0.01017480967 0.00121237295 -5.211427976e-05)
(0.01058718302 0.001437827141 -4.448280194e-05)
(0.01093924744 0.001595031697 -6.365987064e-05)
(0.01150213477 0.001936563598 -6.72200199e-05)
(0.008230988348 1.314385907e-06 -1.001332942e-05)
(0.008333722196 2.22775133e-06 -2.303978817e-05)
(0.008344286554 -6.789748148e-06 -2.960001581e-05)
(0.008323081411 5.134839291e-06 -4.143930554e-05)
(0.008209158443 1.157653859e-05 -4.696766616e-05)
(0.008216101102 5.987757152e-06 -2.644507834e-05)
(0.008234829091 2.059629979e-05 -2.819537994e-05)
(0.008236016156 4.3309994e-05 -3.898513177e-05)
(0.00826566828 4.89670888e-05 -2.688123788e-05)
(0.00831046991 4.307963831e-05 -1.166893429e-05)
(0.0082741616 4.559919671e-05 -1.015889974e-05)
(0.008272960349 4.842351578e-05 -1.10633847e-05)
(0.008437620581 7.743408665e-05 -1.406660138e-06)
(0.00847093629 8.260125765e-05 1.385978568e-05)
(0.008483085817 0.0001321786225 3.024309331e-05)
(0.008484245609 0.000141847062 2.649025151e-05)
(0.008556215331 0.0001534219806 3.149575915e-05)
(0.008678857976 0.0001557717956 1.473011844e-05)
(0.008750840563 0.0002119379589 1.649751484e-05)
(0.008906790707 0.0002806671053 2.451249355e-05)
(0.008906287162 0.000333934193 1.063604632e-05)
(0.008922582318 0.0003967092885 -1.236919669e-05)
(0.009014034966 0.0005229533303 -1.325144607e-05)
(0.00912178195 0.0005641305497 -5.443109773e-06)
(0.009293553587 0.0006497986578 2.63407754e-05)
(0.009595385946 0.0008029994075 2.238450223e-05)
(0.009852489565 0.0009751974171 2.407994524e-05)
(0.0101900767 0.001111483313 7.154299549e-06)
(0.01055955416 0.001361776651 2.100219009e-05)
(0.01080079293 0.001592977227 4.103440418e-05)
(0.00823993891 -1.180893124e-06 -1.226357796e-05)
(0.008236023559 -1.843404641e-06 -6.131596746e-06)
(0.008231860515 1.757182436e-05 3.817049262e-06)
(0.008248712645 9.342495073e-06 -6.346411101e-06)
(0.008293387108 1.281781204e-05 1.508787173e-05)
(0.008248994092 2.449190223e-05 7.586163137e-06)
(0.008249943888 2.338404279e-05 1.786654722e-06)
(0.00818170802 2.279497523e-05 9.200101583e-06)
(0.008252481533 1.742066147e-05 -1.191460277e-06)
(0.008332117244 3.318490246e-05 -9.916298968e-06)
(0.008325253235 5.520067426e-05 -2.854762037e-06)
(0.008293094968 6.824162138e-05 1.993601226e-06)
(0.008207046104 3.86986773e-05 4.683906724e-07)
(0.008320202479 3.716755674e-05 -5.051887061e-06)
(0.00843633135 2.705176065e-05 1.465424544e-05)
(0.008511226486 7.554013224e-05 9.67406753e-06)
(0.008534525127 0.0001062000129 4.862979151e-06)
(0.008621541329 0.0001424402624 2.759850788e-05)
(0.008518343814 0.0001582900162 2.632660617e-05)
(0.008647860648 0.0002049928365 3.913207493e-05)
(0.00861206304 0.0002647074835 6.019331119e-05)
(0.008768057494 0.0003237521264 4.851215136e-05)
(0.008891846091 0.000387526423 6.679476839e-05)
(0.009038379433 0.0004526630491 6.62661755e-05)
(0.009202508417 0.0005713935281 4.927885055e-05)
(0.009310551883 0.0006160464504 5.402034297e-05)
(0.00951313902 0.0007216288739 3.893150901e-05)
(0.009741496535 0.0008659001661 4.279127327e-05)
(0.00997467984 0.001033834034 5.139306071e-05)
(0.01040796178 0.001251625248 3.447702522e-05)
(0.008229187221 2.167785516e-05 -7.643102143e-06)
(0.008236430119 6.081288327e-06 -1.83481828e-06)
(0.008235313472 1.303118138e-06 1.240399616e-06)
(0.008261472572 -2.247636191e-06 1.157809962e-05)
(0.00817389791 1.548775838e-05 6.193075893e-06)
(0.008266128072 2.232705062e-05 5.37137421e-06)
(0.008356093941 1.423283258e-05 1.657782185e-05)
(0.008407846977 3.108408143e-05 2.051050099e-05)
(0.008314071854 2.605565834e-05 1.452838421e-06)
(0.008305020305 3.234891029e-05 -4.008611569e-06)
(0.008421809144 1.943281504e-06 4.057624034e-06)
(0.008496592393 4.219739146e-06 1.24635774e-05)
(0.008485778521 4.559060518e-05 2.065614066e-05)
(0.008606743628 4.295947191e-05 2.965225206e-05)
(0.008477664533 5.44495508e-05 1.611769722e-05)
(0.008455741353 6.259977622e-05 2.079913849e-05)
(0.008429018514 7.298864537e-05 2.855631742e-05)
(0.008340513654 0.0001237521261 9.908072463e-06)
(0.008362400376 0.0001437929575 1.961333964e-05)
(0.008366063482 0.0001874403563 2.414328697e-05)
(0.008334407909 0.000195201412 3.09041393e-05)
(0.008475185764 0.0002405678779 2.843192667e-05)
(0.008559724865 0.0002578263508 2.083745434e-05)
(0.008672381814 0.0003199029488 1.505394226e-05)
(0.008870819265 0.0003557352452 1.915828798e-05)
(0.009090175086 0.0004553320756 1.483060414e-06)
(0.009313616213 0.0005781788878 2.34420428e-05)
(0.009525816539 0.0007233405751 1.34685829e-05)
(0.009631034043 0.0008323248849 5.650086708e-07)
(0.009881714799 0.0009943004288 2.75454789e-05)
(0.008315269352 -6.026568469e-06 3.762051889e-05)
(0.008209066202 -5.754902886e-06 2.373877159e-05)
(0.008192262292 1.766630684e-05 2.472267208e-05)
(0.008203559815 1.565540874e-06 4.837718365e-06)
(0.008276357363 -1.364958618e-05 1.072871358e-06)
(0.008309412586 -7.710775631e-06 -4.997609233e-06)
(0.008305774025 -4.850587943e-06 -7.689756081e-06)
(0.008407890376 -7.734623342e-06 1.853382596e-06)
(0.008512923562 -1.190550908e-05 5.621869923e-06)
(0.00847168488 2.118531955e-05 7.693873481e-06)
(0.008355293661 8.337664708e-06 -4.583698496e-06)
(0.00838432481 3.848926092e-06 -2.091453163e-05)
(0.008414316474 1.72043237e-05 -1.852854052e-05)
(0.008370416771 4.015152569e-05 -2.873107445e-05)
(0.008386429489 6.726052099e-05 -3.526800902e-05)
(0.008413825904 0.0001018423681 -3.572978089e-05)
(0.008443281312 0.0001058484654 -7.732491503e-06)
(0.008496496743 0.000123878547 -1.821786982e-06)
(0.008528592424 0.0001109627995 -7.699655847e-06)
(0.008637667579 0.0001202851174 -2.182087584e-05)
(0.008666486868 0.0001794235354 -3.4209116e-05)
(0.008728195768 0.0001894338635 -4.679193221e-06)
(0.008791309791 0.000235373083 2.639638389e-05)
(0.008904825242 0.0002529107252 1.123344937e-05)
(0.008904227876 0.0002865408039 3.058040243e-05)
(0.008959797898 0.0003568199439 2.276490862e-05)
(0.008980606959 0.0003997231684 -4.375222593e-06)
(0.009221240326 0.0005202906134 1.379728431e-05)
(0.00944863638 0.0006764409314 3.31496565e-05)
(0.009638067844 0.0007962395113 2.492361371e-05)
(0.008488606605 3.481163996e-05 -1.630091438e-05)
(0.008565844425 2.517685191e-05 3.40064526e-06)
(0.008627905877 9.601089291e-06 -1.781266611e-06)
(0.008511028223 1.374766927e-05 -2.010149901e-05)
(0.008482623417 1.841515175e-05 -1.01461723e-05)
(0.008445017005 4.081127459e-06 -1.006247272e-05)
(0.008339845172 -5.632564617e-06 3.720993291e-06)
(0.008299278455 -2.597580791e-05 -7.192073714e-06)
(0.008232398999 -2.049200869e-05 -9.974166022e-06)
(0.008345565484 -2.419606285e-05 -8.34145062e-06)
(0.008379557892 1.580808823e-05 -5.418168584e-06)
(0.008288803961 4.623806657e-05 1.889577681e-05)
(0.008247243491 6.054681498e-05 9.513163614e-06)
(0.008259112672 5.12310352e-05 -1.375638398e-05)
(0.00830542205 3.94141048e-05 -1.497243975e-05)
(0.008347402653 1.612046007e-05 -2.64163088e-05)
(0.008381753373 4.990698325e-05 -3.600155497e-05)
(0.008410121536 5.85703168e-05 -3.364287923e-05)
(0.008549368236 9.814574176e-05 -3.029813268e-05)
(0.008567789242 0.0001010929749 -3.019716984e-05)
(0.008730910394 0.0001093663543 -2.639344119e-05)
(0.008692602648 0.0001286460098 -4.509149378e-05)
(0.00868627139 0.0001625858128 -5.501454873e-05)
(0.008645088971 0.0002239230413 -4.630139285e-05)
(0.008661501213 0.0002615160033 -2.897691633e-05)
(0.008700117843 0.0002958268041 -1.910484162e-05)
(0.00876099914 0.0003658366035 2.319623254e-06)
(0.008916721323 0.000444816513 -9.541201809e-06)
(0.008911046169 0.0005222004719 -1.440033193e-06)
(0.009171034349 0.0006069444318 -4.426369138e-06)
(0.0084684156 -1.553423183e-05 -8.781823788e-07)
(0.008457332836 5.138288481e-06 -2.182461086e-06)
(0.008560256399 1.010288045e-05 6.095042772e-06)
(0.008566050572 2.404676995e-05 1.385836249e-05)
(0.008525452986 2.586949642e-05 -9.712827495e-06)
(0.008577118834 3.95818417e-05 -6.715409835e-06)
(0.008540470084 3.845210593e-05 1.956435789e-06)
(0.008546321706 3.725807966e-05 1.230132443e-06)
(0.008376088469 3.752025584e-05 1.050827352e-05)
(0.0083521411 3.214798036e-05 2.004453928e-05)
(0.008305420361 3.690176675e-05 1.643009286e-05)
(0.008311512559 -1.322544527e-05 4.887908339e-06)
(0.008374811005 -1.696226409e-06 9.589338036e-06)
(0.008420598849 1.363201257e-05 4.225553727e-06)
(0.008338107888 1.723773495e-05 1.15383435e-05)
(0.00834662841 3.96802328e-05 1.554877831e-06)
(0.008358737784 4.145109261e-05 1.46079717e-06)
(0.008410448152 4.215337652e-05 -2.802006161e-05)
(0.008377464049 4.890720678e-05 -2.831957878e-05)
(0.008347204667 5.049373816e-05 -3.945598685e-05)
(0.00836841651 0.0001028818491 -4.02954322e-05)
(0.008395056773 0.0001329964546 -3.099603751e-05)
(0.008460923187 0.0001578773147 -4.625707278e-05)
(0.00857786856 0.0001752379555 -2.145398107e-05)
(0.008734243949 0.000237236738 -1.834796686e-05)
(0.008679004712 0.0002514341122 -1.600451115e-05)
(0.008823105706 0.0003097412978 6.28147716e-06)
(0.008830873188 0.0003422419909 1.179941889e-06)
(0.008914087945 0.0003927571346 -1.54308255e-05)
(0.009047739138 0.0005342935604 -2.152147582e-05)
(0.008277504872 -1.128870202e-05 1.047844606e-05)
(0.008157213218 -5.005678167e-06 9.593080732e-06)
(0.008157461622 4.752495722e-06 -3.457161543e-06)
(0.008138487569 5.986669351e-07 -5.24839081e-06)
(0.008143238785 4.047460769e-06 2.459772028e-06)
(0.008187210953 7.775812124e-06 5.317000232e-06)
(0.008193387304 2.773196995e-05 1.256872301e-05)
(0.008273445999 3.852745745e-05 6.131108405e-07)
(0.0083309764 4.038717048e-05 -3.959000595e-06)
(0.008234747332 2.349198473e-05 2.970095526e-06)
(0.008275648122 3.558667306e-05 -1.597419675e-05)
(0.008326468962 3.252465266e-05 -1.658359866e-05)
(0.008352850282 1.118224591e-06 -4.600440426e-06)
(0.008277097626 9.011773888e-06 3.620429236e-06)
(0.00840822442 1.236772534e-05 -6.949677402e-06)
(0.008337463142 2.888217561e-05 -6.395048238e-06)
(0.008305526488 2.366998008e-05 -9.711255247e-07)
(0.008324491249 5.228933212e-05 7.495677626e-09)
(0.008337518591 6.920770407e-05 3.078268913e-05)
(0.008408404296 6.352762064e-05 3.648476372e-05)
(0.008481243917 4.75704241e-05 3.825864365e-05)
(0.008428510849 6.369814562e-05 4.893638942e-05)
(0.008413571812 9.546097032e-05 5.87912089e-05)
(0.008428351246 0.0001469281907 3.748726602e-05)
(0.008504834066 0.0001709361199 2.236102125e-05)
(0.008505181313 0.000221929789 2.696700406e-05)
(0.008515125855 0.0002198282409 2.786252685e-08)
(0.008755320572 0.0002728685562 1.493458832e-05)
(0.008941888977 0.0003299159898 6.920263531e-06)
(0.008999327993 0.000348639068 -8.059053773e-06)
(0.008237172222 2.066259442e-05 -1.332731365e-05)
(0.008154124767 2.157783461e-06 -1.092925183e-05)
(0.008172682258 -9.65580049e-06 2.14633149e-06)
(0.008162653077 -6.463359478e-06 5.214228737e-06)
(0.00823793952 6.679047304e-06 8.38060899e-08)
(0.008235445177 5.345788794e-06 -1.190431308e-05)
(0.00820152873 5.93053865e-06 -1.524219765e-05)
(0.008206494127 4.649998673e-06 -1.595173922e-05)
(0.008309377127 6.605082481e-06 -8.627601025e-06)
(0.008329461098 9.164884756e-06 -1.141527427e-05)
(0.008387748405 1.143227774e-05 1.022689572e-05)
(0.008258499981 -1.990380552e-06 1.80989265e-05)
(0.008210297443 1.04698549e-05 1.121431206e-05)
(0.008297225612 1.388054116e-05 1.874113807e-05)
(0.008248364554 1.688976107e-05 1.925048758e-05)
(0.008279482467 2.070942292e-05 2.089467086e-05)
(0.008398218943 3.330927027e-05 3.034474983e-05)
(0.008365989359 1.789358831e-05 3.843981073e-05)
(0.008437154699 4.179365005e-05 2.806045871e-05)
(0.008421326934 4.508808668e-05 3.844454263e-05)
(0.008370237889 6.445688525e-05 2.546591763e-05)
(0.00841863194 8.171489678e-05 1.218384157e-05)
(0.008426213302 9.879964008e-05 -7.026665626e-06)
(0.008463378293 0.0001243157401 -1.374290608e-05)
(0.008570352694 0.0001304398347 1.535124706e-05)
(0.008658404211 0.0001572294188 2.849771397e-05)
(0.008654080881 0.0002101259097 1.547084169e-05)
(0.008618974311 0.0002033839457 -1.96677981e-06)
(0.00865749639 0.0002388147927 9.432688641e-06)
(0.008740028764 0.0002688863119 -1.014219774e-05)
(0.008308687647 3.18734752e-05 -1.996600747e-05)
(0.008314556365 2.360005153e-05 -1.154212214e-05)
(0.008247896987 1.05301933e-05 -1.570647366e-05)
(0.008332654674 -2.083800973e-06 -3.422260591e-06)
(0.008260423642 1.350532344e-06 3.310873318e-07)
(0.008326161913 -1.637627692e-05 2.222066779e-05)
(0.008410898425 -2.475550563e-05 1.896909867e-05)
(0.008465809096 -2.355281757e-05 1.501176552e-05)
(0.008342693969 -5.882147696e-06 1.522757028e-05)
(0.008469478242 -7.805617333e-06 1.06493666e-05)
(0.008466505716 2.86208481e-06 -8.302924721e-07)
(0.008514722265 4.763022914e-05 -1.192408357e-06)
(0.008599806907 4.025091258e-05 6.166545647e-06)
(0.008504371019 3.80430353e-05 -5.456886597e-06)
(0.008427238081 2.458708104e-05 1.126654442e-05)
(0.008470402748 1.632519012e-05 1.884861827e-05)
(0.008405506914 2.478066548e-05 9.894942876e-06)
(0.008340238135 2.565576069e-05 2.742215937e-05)
(0.008301519576 1.086040049e-05 1.024377548e-05)
(0.008245398838 6.12153257e-05 -9.182393633e-06)
(0.008350908552 7.805915429e-05 -3.107532919e-06)
(0.008394364154 6.728422857e-05 1.787010308e-06)
(0.008452410572 7.542950029e-05 1.764580189e-05)
(0.008423060605 5.245837712e-05 9.384947053e-06)
(0.008495270531 8.818362501e-05 -5.756443234e-06)
(0.008566958922 0.0001081254266 5.964234682e-06)
(0.008621777466 0.0001255212732 -1.492590344e-05)
(0.008833482692 0.0001696573298 -6.235382204e-06)
(0.008895041613 0.0001919312406 5.13389748e-06)
(0.008951251278 0.0002456713297 -7.651746272e-06)
(0.008454153249 -6.996661721e-06 2.531179333e-06)
(0.008456283521 3.323106401e-06 -6.903076911e-06)
(0.008515714674 8.04072949e-06 -1.647713763e-05)
(0.008499146724 1.228774715e-05 -7.417598555e-06)
(0.00847914824 1.056489143e-05 -1.681265629e-05)
(0.008397605169 2.463654869e-06 -1.469806177e-05)
(0.008342723438 -6.102894755e-06 -1.543130601e-05)
(0.008283577038 6.103357517e-06 -1.463335866e-05)
(0.00832778684 -9.221774561e-06 -2.308002932e-05)
(0.008236869284 -1.09080208e-05 -1.729562411e-05)
(0.008168029985 -1.787996687e-05 -1.239495672e-05)
(0.008224236699 -1.31294908e-05 8.636713059e-06)
(0.008285872534 -3.696369209e-06 4.598147111e-06)
(0.008353430266 2.842074125e-05 1.723812227e-05)
(0.008397613415 2.806461436e-05 2.358911842e-05)
(0.008427621191 4.292311248e-05 4.480619917e-06)
(0.008440858598 5.338658643e-05 -7.137272348e-06)
(0.008451808257 5.59642333e-05 -1.752962827e-05)
(0.008465220061 4.957310699e-05 -2.184931838e-05)
(0.008468807621 2.436558194e-05 -1.992302671e-05)
(0.008434882378 2.312197766e-05 7.575231323e-06)
(0.008501118166 3.781619687e-05 9.2502638e-06)
(0.008512053793 2.564119981e-05 -9.551443262e-06)
(0.008499968252 3.591214302e-05 -5.774129401e-06)
(0.008493351467 4.183723378e-05 -8.906908383e-06)
(0.008575603711 0.0001037599144 2.077181362e-06)
(0.008631425017 0.0001158039836 2.104299661e-05)
(0.008468308404 0.0001377808995 7.231566795e-06)
(0.008451069831 0.0001694356958 8.289968282e-06)
(0.008556429353 0.000198268237 3.60245605e-05)
(0.008390677808 4.974244499e-06 1.218931195e-05)