/*--------------------------------*- C++ -*----------------------------------*\
| =========                 |                                                 |
| \\      /  F ield         | OpenFOAM: The Open Source CFD Toolbox           |
|  \\    /   O peration     | Version:  2406                                  |
|   \\  /    A nd           | Website:  www.openfoam.com                      |
|    \\/     M anipulation  |                                                 |
\*---------------------------------------------------------------------------*/
FoamFile
{
    version     2.0;
    format      ascii;
    arch        "LSB;label=32;scalar=64";
    class       volVectorField;
    location    "0.003";
    object      momentum;
}
// * * * * * * * * * * * * * * * * * * * * * * * * * * * * * * * * * * * * * //

dimensions      [1 -2 -1 0 0 0 0];

internalField   nonuniform List<vector> 
654
(
(0.0167598657 0.004636847217 -0.0004736815913)
(0.01280678525 0.00154073214 0.0004508094969)
(0.01006481661 0.006247578559 -0.0005416890419)
(0.01703989909 0.005961355059 -0.0002947658448)
(0.01379158179 0.005097058091 -0.002246797564)
(0.01514297332 0.00683768388 0.0005077029195)
(0.009556632022 0.004198013582 0.0001326901476)
(0.02235379609 0.005743974981 0.002537686722)
(0.01538700332 0.005780909235 0.0008091118043)
(0.01567159574 0.002719387566 -0.0005362005671)
(0.02055644993 0.004844231914 -0.0007133953124)
(0.01666587053 0.005882754051 0.0007125237531)
(0.01824079853 0.006339733039 -0.0008956604737)
(0.01324226614 0.003028571246 0.0003752883492)
(0.01461221161 0.006869812399 0.0004393167195)
(0.01570520834 0.006038894431 -0.0001465337043)
(0.01329648223 0.006089342835 0.0008111184444)
(0.01223709354 0.004863087333 0.0005726091858)
(0.01104174084 0.002088710414 5.560054827e-05)
(0.009150856487 0.001445809107 -0.0002804787831)
(0.007512841265 0.00136768062 0.000319716345)
(0.01638302682 0.003469301464 -0.001013619711)
(0.006764925993 0.001675878496 0.0007965544607)
(0.007883077801 0.001573177938 -0.001296145882)
(0.01771048993 0.0047214009 -0.0007849154809)
(0.01625141745 0.006357082537 0.001355008898)
(0.01946542502 0.008106243836 -6.180721006e-05)
(0.01825937874 0.004943834268 -0.000936420618)
(0.01653249982 0.006266046332 -0.001423096106)
(0.01574456803 0.004710848997 -0.001049023583)
(0.02260615007 0.006270601525 0.0001813382082)
(0.02188768361 0.005687084404 -0.000565506098)
(0.01541673644 0.005694760567 -0.0002679638427)
(0.01114893219 0.001349195326 0.0006626743034)
(0.01377221086 0.0004456827952 0.0002690004191)
(0.01347742557 0.0001064777335 -0.0003508920331)
(0.005924468912 0.00188033438 0.00120317847)
(0.01198415644 0.0007064169791 -0.002001262864)
(0.008344631815 8.752001202e-05 0.001127723632)
(0.01107565116 0.002025566198 0.0002053068902)
(0.004290375573 -0.0005479342977 5.840486139e-05)
(0.009070010773 0.001671794265 -6.921245568e-05)
(0.0145495263 0.00291972581 -0.0007258509805)
(0.01089718659 0.002097286284 -0.0005338614976)
(0.01082409338 0.002816287695 -0.0007540111867)
(0.008963495295 0.002871109053 0.0002290295096)
(0.01499075945 0.005146853863 -0.002756647095)
(0.01324892344 0.003098747552 0.001163766588)
(0.009198424023 0.00301062174 0.0004211359884)
(0.01059438074 0.002275069574 -0.0007399291026)
(0.01349820455 0.002551513553 -0.0007099445048)
(0.02224720858 0.007416677993 -0.0006497927832)
(0.01314481238 0.005050593336 -0.001858250702)
(0.007435791515 0.001064430597 -0.001734029841)
(0.01285919339 0.004172130986 -0.0007868472168)
(0.005694120301 0.0001118645054 4.631444141e-05)
(0.007863846217 -0.0004122999835 -0.0004870883229)
(0.009108526351 0.0002443018283 6.006206103e-05)
(0.002792454428 0.000137487614 0.0002621578765)
(0.009266905283 -0.0003250996024 -6.15128211e-05)
(0.01317818464 0.001147638056 -0.0001853011548)
(0.009037959937 -3.391502973e-05 0.0005268220673)
(0.006954043799 0.0004868350049 3.888653499e-05)
(0.01100622116 0.000891081743 0.0006059433984)
(0.006750696439 0.0005150160756 -0.000609598712)
(0.007781818562 0.0009308516504 0.0002359549817)
(0.01200499779 0.0004773608546 0.0006011570034)
(0.005516349489 -0.0001435559946 -0.0002957602682)
(0.008672382796 0.002397917767 -0.0004563222357)
(0.01038078574 0.001580340896 -0.0004589061663)
(0.006450003696 0.0008131578418 -0.0007933186956)
(0.01389330193 0.001352513766 -0.0009355762091)
(0.01725134038 0.002896809931 -0.00156766043)
(0.01148216856 0.002726632386 -0.0005301165919)
(0.02098386414 0.001885054538 0.001488092958)
(0.01017478076 0.001576675854 0.001633696199)
(0.007324984333 0.001596360592 -0.0002613513406)
(0.00988677051 0.003057807109 -0.0007042360925)
(0.01680534453 0.005916972207 -0.0009843663837)
(0.01044761838 0.005139019594 -0.0004244798958)
(0.01860265202 0.007929494073 -1.342131647e-06)
(0.01706869294 0.00836144319 0.000122159073)
(0.01479829794 0.00457637101 0.0008039355243)
(0.01992282003 0.004977887385 -0.0003802490552)
(0.004005226427 4.973655706e-05 0.0001633832735)
(0.002461269132 -0.0003243545448 -0.0005464391919)
(0.007404942021 -0.0001189363821 0.0002589829358)
(0.006715149217 0.0003567429809 -0.0006379187874)
(0.008167718134 -0.0002071999988 -0.000714383436)
(0.008214065412 0.000340084738 0.0002208919659)
(0.009460448834 -0.0002631370505 0.0003717244891)
(0.01068930193 0.002337188027 -0.00116293865)
(0.006112192696 0.0002037574193 0.0008901614081)
(0.00996141812 -0.0001521329024 -0.0001583584385)
(0.008651916176 0.0006412889082 -4.575270298e-05)
(0.00740890868 0.0004888291434 -0.0002587549947)
(0.00747062741 -0.0003310920585 -0.0006701996575)
(0.008025348706 0.0002446374503 0.0005443489906)
(0.01217336052 0.0005546247484 0.000713772721)
(0.00923778821 5.683770938e-05 8.548820361e-05)
(0.01522452616 0.001994791189 -0.000758158747)
(0.01137606141 0.0002178497973 -0.001212656407)
(0.01239064589 0.001153811238 -0.0003498476568)
(0.01372796055 0.002083710002 -0.001268603062)
(0.007193808001 0.0004805424914 0.0007293801827)
(0.005557620849 0.001597014346 0.0006118336448)
(0.01102549975 0.001355143839 8.225476287e-05)
(0.01042414856 0.002424529425 -0.0004658349879)
(0.01659064096 0.003379974324 -0.001185327976)
(0.02161319438 0.002204633823 -0.0007066508052)
(0.02248005826 0.00508561907 0.0005215565448)
(0.01554247097 0.006550133504 0.0006632393765)
(0.01431919037 0.004778192861 -0.0003693388115)
(0.01261099688 0.003735513483 -0.001611843907)
(0.006321017026 5.684428973e-05 -5.793057882e-05)
(0.007557379012 0.0005975234815 0.0002869084825)
(0.01335203384 -0.0009506514114 -0.0001756080619)
(0.009383069852 -0.0001099822651 5.890397631e-05)
(0.006465082424 -2.811975849e-05 0.0003056626445)
(0.004660529298 -9.302304447e-05 -0.0007000926909)
(0.01317672849 0.0008633481869 -0.000283854495)
(0.009836641545 0.0004089629885 0.0003620544862)
(0.008304546327 -0.0002620928839 -0.0003540763454)
(0.004333574035 0.0003317369724 0.0005545840581)
(0.01180903061 0.0001857710942 0.0008048662756)
(0.008427084554 -6.108747754e-05 0.0001305530756)
(0.005664700936 -0.0005901147759 -8.972834244e-05)
(0.01581316224 0.001375593438 0.0001461929484)
(0.01700411998 0.0006842331795 0.0001805785397)
(0.0152328611 0.001607810602 3.081647457e-05)
(0.01337188942 0.0005712287027 -0.0007544644527)
(0.01362444847 0.002906570454 0.002145222586)
(0.006791694823 -0.0001650946519 0.0002154164048)
(0.01146801446 0.0003877662851 -0.0003872404024)
(0.002544464537 -0.0001988526962 0.0005743747445)
(0.01633456674 0.00129852887 -0.0003928975848)
(0.008889389502 0.001675022111 0.000497526651)
(0.01314138795 0.004366156408 0.0001563076543)
(0.01025098882 0.003798828683 -0.0007551236536)
(0.01521859698 0.001636874789 0.002632859683)
(0.0131986883 0.003328175373 0.001127235188)
(0.01654986758 0.004694946507 0.0009886753823)
(0.01695784809 0.004332567968 -0.000811428737)
(0.01362817986 0.002804403658 0.0002200594705)
(0.008217081137 -0.0002896421312 -0.0003211951768)
(0.00891644505 -0.0002254530348 -0.0001547735411)
(0.008757160238 -0.0004769397646 6.734015644e-05)
(0.006599152204 0.0003999256619 -9.898132049e-05)
(0.009702826319 0.000386103568 0.000260627323)
(0.006662480461 0.0002069617497 -0.0007374754331)
(0.008340643506 0.0002967829438 -0.0001330476335)
(0.005327523486 -0.0007794791267 -0.0003681025289)
(0.007053402431 -0.0001471921746 -0.0007062104564)
(0.01400910736 0.001059150215 -7.238598855e-05)
(0.008341675645 0.0003552602647 -0.000146452307)
(0.005730134812 0.0002962921121 -0.0002189207756)
(0.01161362514 0.0006543328632 0.0005947854926)
(0.01298119966 8.927628211e-05 0.0005780315877)
(0.007839600902 -0.0002689747068 -0.000338661025)
(0.00777955128 -0.0004012030456 0.0004169660703)
(0.006218279189 3.502677325e-05 -0.0001530964238)
(0.009136820416 0.001023454921 -0.0007238073294)
(0.01803406964 0.001524329797 -4.71035137e-05)
(0.005703538669 0.002405429822 2.63144679e-05)
(0.007629865771 -0.0005174230999 -5.738900021e-05)
(0.007809628652 0.0002799541176 0.0006020497775)
(0.01334564358 0.0005840187798 0.001045608262)
(0.01951279838 0.0026531057 -0.001212653778)
(0.01129144549 0.00383609903 0.000634367695)
(0.01110832685 0.002420299857 -0.0007629525883)
(0.00553539025 0.002246852292 0.0008280039453)
(0.01083725961 0.002659972121 7.199862697e-05)
(0.01561799318 0.004130576776 0.001898787362)
(0.01182630362 0.004885408177 -0.0004691314819)
(0.008611190754 -0.0007000242018 -0.0006141341196)
(0.009274378375 0.0003300755136 0.0001310475203)
(0.007508046404 0.0003212525709 -0.0004589611581)
(0.01088189412 0.0007083382225 0.0001363225575)
(0.00440236402 -6.193520005e-05 -0.0001889839021)
(0.008582667691 7.254998093e-05 -0.0004644517462)
(0.007440195728 -3.464222258e-05 -0.000212199246)
(0.007582112737 0.0003573663415 -1.355501618e-05)
(0.003965633431 9.285552186e-05 -0.0001656522161)
(0.01104311125 -0.0004119002799 0.0008800970054)
(0.0117898 -0.0002548457304 -0.0008607430528)
(0.008137264103 0.0001744328095 0.000503528547)
(0.006345152274 -0.0002374132186 -0.0001047462013)
(0.005775176258 -0.0006172700353 1.57720046e-05)
(0.01043871166 -0.0002072019714 -0.0004204328736)
(0.006628806018 0.0004203633395 -0.000677456307)
(0.01525434299 0.0003754445212 0.0009169454078)
(0.01008701426 0.0003878053438 0.00020983834)
(0.00962564895 0.0007224052845 -0.0001928635755)
(0.01183937452 0.0008713179532 -0.0002407436524)
(0.008379597685 0.0001167685493 -0.001242856205)
(0.008491206419 0.001078114106 0.0002334397605)
(0.01242687224 0.002261229301 -0.0002010861665)
(0.01085371024 0.001550012703 -0.0001982599937)
(0.007352538296 0.0008667623135 -0.001062025186)
(0.0128373042 0.00362634796 0.0004237021023)
(0.02107669919 0.004725877979 -0.0001596945984)
(0.01336189282 0.002047889926 -0.001078105722)
(0.008489784531 0.002897906222 -0.001042620874)
(0.009358819482 0.001811276065 0.001833057859)
(0.007074068799 0.000258574978 -0.0006556007214)
(0.01402533328 0.0001733723083 -0.000769697379)
(0.01125002059 -0.0004830645095 0.0006687451086)
(0.01218295496 0.000161018718 0.0005724543926)
(0.00760742866 0.0006939060476 -0.0003969091929)
(0.004754445396 3.13104188e-05 -0.0001112129535)
(0.004982543822 1.505326323e-05 6.277453381e-05)
(0.008571969355 -9.920174505e-05 0.0006102541163)
(0.006875094432 0.0009767959916 -0.0004747117701)
(0.006967035542 -0.0008022812882 -0.0001764668139)
(0.01066977888 3.094379054e-05 -0.001530724294)
(0.01008438988 -0.0001460336508 -0.000522609272)
(0.007025366435 8.512447025e-06 -5.87265571e-05)
(0.009053384419 -0.0003877472166 -0.0002612209663)
(0.0110652856 -0.0001151178881 -2.059025364e-05)
(0.009078469838 0.0001563259976 -0.0005780556498)
(0.006477886167 -0.0001293464685 -0.0001892346028)
(0.01383956046 0.001378388849 0.0003253909439)
(0.007549784676 0.00217067652 -0.001112171872)
(0.009312367653 0.001172916688 -7.71445497e-05)
(0.01378740957 0.001867733585 0.0001859378583)
(0.008836803864 0.001019068648 5.761070345e-05)
(0.00229429486 -0.0002524269951 7.210641845e-05)
(0.01489719838 0.001291084971 0.0001033042109)
(0.008272579865 0.001270863577 0.0002434934286)
(0.008867927398 0.001549638613 0.001099971466)
(0.01257071393 9.799137394e-05 0.001505840889)
(0.01122469798 0.004064714091 -0.0003968746769)
(0.02364847209 0.005571380822 0.0001993417186)
(0.01495021377 0.002565262286 0.00241349558)
(0.009805623289 -0.0008938008923 0.0007544553218)
(0.01314877995 -0.0008631027377 0.001280475383)
(0.006546080081 0.001422560814 -0.0003385652729)
(0.006923929937 -0.000157777869 0.0002251904772)
(0.008235842649 -0.0002139644185 0.000100703949)
(0.008050685547 -0.0001779581775 0.0002587360781)
(0.009054750829 0.0007546828202 -0.000706287966)
(0.005174122033 -1.108785777e-06 -4.241785002e-05)
(0.009355980198 0.0002148699259 -0.0002649114829)
(0.002967307851 -0.0002358483645 0.0001537360323)
(0.009786651362 0.0001583986483 -0.0003406708752)
(0.01336193295 2.944936423e-05 3.11131552e-05)
(0.01276725826 0.000547259305 -1.564936716e-05)
(0.009991137394 0.000723141087 0.0002310060605)
(0.01084811314 0.0002579901845 0.0002026463545)
(0.01535979939 -0.0004688048299 -0.0004358772004)
(0.007985179027 0.0001745404322 0.0001592987362)
(0.00951381674 0.001208930656 0.0009990118968)
(0.006186915079 0.0005562927107 -0.0001470016551)
(0.01096050238 0.0002975544227 -0.001459134582)
(0.004892004423 0.0009006206144 -0.0003953488869)
(0.01066798386 -0.0007971801943 0.0001652249359)
(0.009761886776 0.001850358391 0.0003312628891)
(0.006544909425 0.0002811169077 2.975440082e-05)
(0.009237273063 0.0009503475863 -0.002193353664)
(0.00972106312 0.001206930328 8.611991373e-05)
(0.01681658543 0.002617350987 -0.0009555856302)
(0.008431391508 0.003793673995 0.001540602345)
(0.01087269818 0.001432529369 0.001306156701)
(0.01500080882 0.004047196366 -0.0007950091266)
(0.006472856784 -3.759991382e-05 0.0001538048929)
(0.01213711328 0.0001848874374 -0.0003037286303)
(0.01448277582 -6.016779871e-05 0.001135458172)
(0.01051933611 -0.0003930465032 -0.0005012410563)
(0.009184988577 -0.0005375512163 -0.0005732491716)
(0.0107788106 -0.000273118778 -0.000656651955)
(0.01326177064 0.001319200432 0.0002363777769)
(0.007562539113 0.0003605370867 0.0004133117804)
(0.01138500625 -0.000616571616 0.0006661866339)
(0.009756945165 -0.001357282097 0.0009839327123)
(0.01017869373 0.0002383728872 -0.00021279349)
(0.01560509615 5.002529521e-07 0.001275406071)
(0.006847979233 -6.116053022e-05 -0.0003762952985)
(0.01084675919 -1.275351365e-05 -0.0003840818052)
(0.009611421684 0.001182077148 0.0008178735282)
(0.007736131652 0.0001786379824 0.0005867373704)
(0.004225275161 0.000956912092 0.0003150687339)
(0.008037243686 0.0001432698345 0.0002891647768)
(0.009463591626 -0.0008071405793 0.0004301515241)
(0.0107047439 0.000873165526 -0.001377420797)
(0.01251945693 0.002410709582 0.0006187373809)
(0.008241861742 0.0009277792402 -0.0008006853896)
(0.01242874017 0.0002534022016 -0.0006734424844)
(0.008313566548 -3.264371582e-05 -7.591084143e-05)
(0.01122915747 0.0002968203623 -0.0007230078948)
(0.008153861873 0.001000134833 -0.001074856776)
(0.006847197419 0.0007097003867 -0.001114993383)
(0.01474009665 0.001236222545 0.000494150732)
(0.005839316626 0.0005006096978 -0.0002310253825)
(0.01783863024 0.00248012278 0.001061535319)
(0.00885354737 -0.0004546245768 -0.0002741103049)
(0.006765507521 0.0001281196089 -0.0001437675129)
(0.005574661835 -0.0002820373007 0.0002295932769)
(0.008086593065 0.0001719474271 -0.0003298450811)
(0.002757018205 7.863594038e-05 -1.994171012e-05)
(0.006123646987 -9.289618558e-05 -0.0004755683797)
(0.004358411028 -4.85730784e-05 0.0005962744772)
(0.006027006297 -9.728157758e-05 -0.000708809141)
(0.0136558998 -0.0001826883523 -0.0002227683083)
(0.004524332105 -0.0002234480229 -0.001057821955)
(0.005157830068 0.0004448569791 0.0002185542719)
(0.01161214484 0.0006209515665 0.0003394474649)
(0.007921524339 -0.0006043842943 -0.0002345835384)
(0.006959342954 0.0006923784764 -0.0003946320575)
(0.008968690281 -0.0003195557244 0.0009666118385)
(0.01103298926 -0.0003099301478 0.0003628679237)
(0.01489506374 0.0006623402993 2.317038491e-05)
(0.00275543783 -0.0001543353045 0.000497546363)
(0.006023652911 -4.648332177e-05 -0.0009430514879)
(0.004911157019 0.0006764676307 -0.0004136248449)
(0.01278699193 0.0002818392077 0.001015138347)
(0.01300294276 -0.0002254125329 0.0009901487592)
(0.003116683102 0.0003334637245 0.0002106186794)
(0.005263182762 0.001278235199 -0.0007219659642)
(0.01274788545 0.001206898805 0.0007720646627)
(0.009443884016 0.001684110783 0.0007222572533)
(0.001696940097 0.0001621911275 0.0001303914449)
(0.01149085793 0.0009079808492 -7.380817741e-05)
(0.01256634017 -4.336805843e-05 0.0002977329694)
(0.008037695101 0.001683630605 -0.0009226709419)
(0.005659697936 -0.0001251763621 -0.000670466806)
(0.005701554538 -0.0002252326918 0.0003489292936)
(0.008572279628 0.0001518437545 -0.0007233019174)
(0.007511980154 0.0005587050271 -0.0006381468855)
(0.003608423629 0.0005841839101 -0.0001586570112)
(0.002802749149 0.0001356011141 -0.0004553126861)
(0.004942780441 6.450631161e-05 -0.0002619890234)
(0.01096429137 0.0003997808409 0.0002567751666)
(0.006936798368 0.0005244993069 -0.0005957079313)
(0.008132437261 0.0003336400264 -0.0007185096313)
(0.007366311275 0.000603656008 0.0004856147137)
(0.008882745248 2.486341545e-05 -0.0002668423054)
(0.01038627395 0.0004646033035 -8.584029981e-05)
(0.009312770472 -0.0003517683888 -0.0001414240986)
(0.01065869643 -6.8724402e-05 0.0007776319876)
(0.007922006813 -0.0006875229371 8.354478746e-05)
(0.008534526816 -0.0008037213961 -8.715476439e-05)
(0.009310495447 0.0004158703786 -0.0008954918023)
(0.005429167931 0.0005499087784 0.0006495181169)
(0.01505380064 -0.0009879550852 0.0003089553269)
(0.006962125441 0.0002326725033 -0.0002713836518)
(0.007494648869 2.172301001e-05 -7.319096554e-05)
(0.005785780986 -0.0004023665919 -0.0003189246324)
(0.012131084 0.002310915234 -0.0007569658904)
(0.007546512944 0.0007260545015 4.424839196e-06)
(0.01400906707 0.002818990175 3.642304144e-05)
(0.0125746613 0.0008364284436 0.0008493328827)
(0.008807965882 0.001779241908 -1.568502663e-05)
(0.006304262684 0.001501553517 -0.00106351788)
(0.01221903955 0.00192409494 0.0003323670302)
(0.007462152067 -0.0004317406748 -0.000447854921)
(0.01147136456 0.0003610361445 -2.92707304e-05)
(0.007383601818 -0.0002771022295 -8.790581222e-05)
(0.008897577923 0.0004796414437 0.001237093216)
(0.008467713986 -0.001125217624 0.0001877307259)
(0.004838381801 -0.0001502557942 -0.0002987026417)
(0.01027378029 -0.0002485188684 -0.0006295733717)
(0.01060062768 0.0001826246065 0.0006123033156)
(0.005546236562 -0.0006600944369 0.0001451439801)
(0.005152091589 8.567227887e-05 0.0001381107402)
(0.002416780772 0.0002043990349 0.0001826430311)
(0.006589580775 0.0005770606771 0.0001200491641)
(0.007224389131 -9.936054044e-05 -0.0005789166725)
(0.009739875585 -0.0001587993679 -9.427915649e-05)
(0.008130628841 -0.0002619185217 0.0003992341443)
(0.005654966697 -4.32856097e-05 -0.0009465162854)
(0.00786260818 -0.0003486757934 -0.0005270721234)
(0.005846116248 -8.213873745e-06 -0.0003714547241)
(0.008016677264 1.661051106e-05 -0.0005177799577)
(0.01064788633 -0.0007220544343 0.0004656230751)
(0.006568665664 -6.723150029e-05 0.0005629604809)
(0.008800810139 0.0004380091692 -0.0005476803599)
(0.006640749813 0.0002928299436 0.0002572802851)
(0.01270632691 0.0004611863618 0.0004792154408)
(0.01229737484 0.001016303876 0.0002051289413)
(0.009255462304 0.002262129399 1.222970037e-05)
(0.008255733141 0.0003757292937 -0.001049031346)
(0.01664868368 0.0002900857462 0.0004872423553)
(0.008212282117 0.001758488975 -0.0006412489729)
(0.01351609272 0.001616528293 0.001145814845)
(0.01294259419 0.001115931522 0.0002028191545)
(0.01105570002 -0.000397266663 4.647735099e-05)
(0.01017417206 -0.0003623392429 0.0006825028097)
(0.01009140607 -0.0003200634195 0.0001680525061)
(0.01185281791 -0.000609441352 0.0002772156629)
(0.003400152847 0.0001662978323 0.0001027173523)
(0.01053603847 -3.39027645e-05 0.0009996335108)
(0.009658892658 -0.0002765668604 0.0006297361602)
(0.008889627423 0.0004142276044 -0.000554434304)
(0.01280969723 -0.0003399264573 -0.0002353115577)
(0.008673163683 0.001070622396 -0.0002792439386)
(0.008834196868 0.0001628987499 0.0001150228324)
(0.008237910267 0.0004174809056 0.0006438664295)
(0.01096219368 -8.982036602e-06 0.001044899315)
(0.008024829085 -0.0003741435686 0.0002883682893)
(0.01090616902 0.0001023635724 0.0008907250923)
(0.005923396043 0.0006194637159 -0.0004913609088)
(0.006287860086 -7.504859397e-05 -0.0002486293173)
(0.008091851727 0.0008172051066 0.0004921971708)
(0.01230894372 0.0001428720228 -0.001269251886)
(0.01290071046 0.0004878049049 0.0006363718623)
(0.005528786712 -0.0003967175161 -8.019412595e-05)
(0.009142352304 -0.0005281022344 0.0003853837079)
(0.0110796051 0.000364553981 -0.0006233587009)
(0.009376077898 0.001114428426 9.456015481e-05)
(0.00859383833 0.0002457212332 0.001773531518)
(0.01104311317 -0.0006611776681 -0.0003658943287)
(0.01390769524 0.000192621603 0.0004017188596)
(0.008706748521 0.0006631909695 -0.001145456107)
(0.00902459074 0.001833692757 0.0002076788332)
(0.008691670046 0.0004687959662 -0.0001287886503)
(0.0115574868 0.0006831090362 -4.139834998e-05)
(0.009179894253 0.000298436097 0.0003315163377)
(0.004436290796 0.000187521818 0.0004805908248)
(0.006176488763 -0.001017142252 -0.0005013656768)
(0.01056740803 0.0001469484983 0.0001533698526)
(0.008606371054 0.0002905158912 0.0002546385213)
(0.01024023998 0.0001300642765 2.536952166e-05)
(0.008362893204 -0.0001201759183 0.0004510327141)
(0.01134278776 0.0001703408064 0.0003250690798)
(0.005194636248 -8.520396906e-05 0.0002337305297)
(0.01140908583 -0.0002245045496 -0.0006504999616)
(0.008065812735 0.0006345488076 0.0003442615802)
(0.01434692881 -0.0005484262066 -0.0005988551945)
(0.008474567389 0.0004678053254 0.0007518566229)
(0.008759801551 -7.894873045e-06 0.0006091112027)
(0.006571129896 -0.0005238144619 1.800974529e-05)
(0.009433217755 0.000477628685 -0.0001374631527)
(0.003508237282 0.000238003782 0.0001975257105)
(0.008381989628 0.0006106796787 0.0007001603843)
(0.00977265947 0.0008493762359 0.001037075688)
(0.008213748533 0.0006827558095 0.0001484076401)
(0.007716205341 -0.0001370813779 0.0002370543776)
(0.009559986763 0.002043962838 0.0001335737472)
(0.004349993181 -2.494467429e-05 0.0002474796249)
(0.007064022166 0.000424517057 4.235979302e-05)
(0.007324856191 0.001074443487 0.0008115977999)
(0.004731489376 -0.0001555051816 0.0001791583954)
(0.01350986654 -0.0004996541205 -0.000265364198)
(0.00712886456 -0.0008749942376 -0.0004835486476)
(0.009243715184 -0.0002563350379 -0.0004718231991)
(0.009217984997 -0.0001119038187 -0.0003876192236)
(0.009435655533 -0.001060841748 -0.00101520565)
(0.005541769986 -0.0001424592308 -0.0003340225111)
(0.01433812898 -0.0004342078499 -0.0007327202854)
(0.003764333451 -1.739227354e-05 -0.0003894206352)
(0.008781666305 -0.0002958686766 0.0002460487482)
(0.00785459082 0.0001295416761 0.000950148696)
(0.003602074902 -0.0001796279955 0.0001680520645)
(0.006421654692 3.263030666e-05 0.000163027353)
(0.01180734977 0.0002674036464 2.644996001e-07)
(0.01002801714 6.436730732e-05 0.0006657568802)
(0.007614333234 0.0007178880963 0.000444295891)
(0.01171227259 -0.0004900322638 -0.0005044077744)
(0.004990298856 -0.0003376038826 -3.068029135e-05)
(0.01087836839 -0.0005933213943 0.0002749743308)
(0.003449141766 0.000340068068 6.157489999e-05)
(0.006437277505 -8.227032533e-05 -0.0004170306536)
(0.005649384949 0.0005721722212 9.166443839e-05)
(0.006017254478 0.0007096420974 -0.0003870392183)
(0.005336451734 0.000814232116 0.000102081597)
(0.007323998829 0.0003598442129 -0.000765451394)
(0.002325986995 0.0002444081154 -0.000293383298)
(0.0113709119 -0.0003866211016 0.0002610267179)
(0.008765174721 -0.0006638468896 -4.00775018e-05)
(0.003293066447 -0.0001244179511 -0.0001434426696)
(0.009396519484 -0.0001182094421 -0.0004829945853)
(0.01227951425 0.0009709505422 0.0007697626706)
(0.004242518434 0.0001902186305 0.0003016317382)
(0.01315363087 0.002442813379 0.0008644170525)
(0.01317157964 -4.83517612e-05 0.0008552619967)
(0.01316800584 0.0008295214981 -8.345062748e-06)
(0.008436304978 -0.0007149017285 -0.0002299923334)
(0.00809654278 0.0002755555642 0.0009203741344)
(0.009324784403 -0.0003554076442 0.0004376003552)
(0.008949745542 -0.000229726406 -0.0002039241709)
(0.008583521811 0.0001382518189 -0.0005786094862)
(0.01043460871 -0.0002462815585 0.0002967633947)
(0.003719893299 -0.0002047662392 8.183632572e-05)
(0.006524400626 7.714017487e-05 0.0002991037473)
(0.006541741405 0.001096183534 -0.0009054154892)
(0.007332940352 -0.0006803387353 0.0001039319503)
(0.007382578654 0.0006146446679 0.0005106351919)
(0.01452393145 -0.0003218585788 0.0002273987248)
(0.00847246021 0.0003983259472 9.182675148e-05)
(0.007347269082 1.319456248e-05 -0.00052961039)
(0.006288733936 0.0008571876773 -1.494970859e-07)
(0.008866176059 4.695603476e-06 0.0004355973838)
(0.007336287158 0.0001779124552 -0.0005151239956)
(0.009549353141 -3.575369903e-05 -4.736812589e-05)
(0.004072201669 7.230823151e-05 0.0003381148122)
(0.01134399007 -0.00148241119 -2.567540291e-05)
(0.008126583539 -0.0008077597028 -0.0003219379272)
(0.00546022334 -0.0002735124333 0.0001393824336)
(0.008238250572 0.0002595252205 -0.0002997663006)
(0.005318672051 0.0009939362945 0.0003641174186)
(0.009391534904 0.001278702327 -0.0004879957785)
(0.01138989782 0.0009074504323 -0.0002140130828)
(0.009477958116 0.0009971436341 -7.901340975e-05)
(0.005220084041 4.559363527e-06 -0.0001894464451)
(0.004052961336 -0.0004414313976 0.0004486286975)
(0.00985470569 9.317545245e-05 -0.0005956751971)
(0.004123542241 -0.0001028566324 -0.0002040182788)
(0.004477654309 -0.0001935030177 0.0002249275946)
(0.007901139897 -0.0006062080281 0.0008358536861)
(0.01560852819 0.000605404152 2.013280682e-05)
(0.01127597321 -0.0008551424601 0.0001977678977)
(0.006326864503 -2.153848604e-05 -0.001031933694)
(0.01015533311 0.0008611552587 5.001122435e-06)
(0.008360188889 -0.0006957530049 -0.0001923264908)
(0.00753061028 -0.0001597440917 -0.0007772290477)
(0.005513676677 -0.000176989982 0.0002267828977)
(0.006105898851 0.0001039335559 -8.096950696e-06)
(0.005718299875 -0.0002184674527 -0.00010529481)
(0.006922766952 -2.715718827e-05 0.0001198633184)
(0.01082899225 -0.0007361525377 0.001320828759)
(0.007230637737 -0.0008065831753 0.0007855913287)
(0.007825087489 0.0007025881245 0.0002668146727)
(0.005156533073 0.0002260252962 -0.0003830771798)
(0.007915364499 -0.0006265801503 -0.0002914663003)
(0.008516274135 -0.0009092609872 0.0001677022854)
(0.008181463561 -0.0004096967025 -0.0001622827695)
(0.007750176712 0.001036950058 0.0003740665846)
(0.00681070423 0.0008996577527 -0.001169583465)
(0.01071935226 8.169113426e-05 -0.0002898328009)
(0.008959627529 0.0004800547416 0.0003757469397)
(0.009188571222 -0.0001848413369 0.001390730771)
(0.01160097097 -0.0001436354934 0.0006464769395)
(0.01254822522 -0.001144524931 0.0004077673584)
(0.00532655989 -0.000443496739 0.0001939565781)
(0.006344103601 0.0004651757704 0.0001446791566)
(0.005700098229 0.0001697676213 -0.0001499295435)
(0.012767236 -2.894729551e-05 -0.0001559604165)
(0.01232387551 0.0004392633487 -3.6306772e-05)
(0.009208737533 -0.000238613067 -0.0006883482585)
(0.01096886266 -0.0006221136944 0.000247005015)
(0.01218996821 -4.287425801e-05 8.113622089e-05)
(0.007191586232 6.549254071e-05 0.0005061092996)
(0.01318997718 -9.999235205e-05 -0.0008383117064)
(0.005893579193 -0.0004737447384 -5.642497628e-06)
(0.001100591463 0.0001269102052 -0.0001041674342)
(0.006172923769 0.0004438857089 -0.0002450814015)
(0.00848183545 -0.000152329499 -0.0009840213374)
(0.01076250281 0.001622329666 0.0002185834183)
(0.005540829989 -0.0005408808276 -0.0002174701635)
(0.008692227919 0.000922228301 0.0008805219354)
(0.003194702696 -0.0004275616347 0.0002716238709)
(0.007480837278 0.0002630881029 0.0002969574863)
(0.004666103571 5.311509701e-05 3.510221483e-05)
(0.007580067988 0.0002852162262 0.0001119071171)
(0.006860924486 -1.845258202e-05 0.0007224895135)
(0.009805644334 0.0001959460943 0.0002491494744)
(0.002181343231 0.0003049300976 4.333485585e-05)
(0.007052077941 -0.0002590030881 1.147609265e-05)
(0.005946740263 -0.0002709207679 -0.000419860169)
(0.00861991433 0.0002010673991 0.0004622690324)
(0.009219917892 -0.0004325040113 -3.264031787e-05)
(0.007655230455 -0.0004382617451 0.0002042723995)
(0.006123478435 0.0005800068562 -5.936568487e-05)
(0.004654717852 0.000127898535 -0.0003718602012)
(0.005186743853 -0.0004623131652 0.0002960654387)
(0.003997361711 8.483979571e-05 8.388341069e-07)
(0.01316703397 0.0003468664122 0.0007256713396)
(0.01101542566 0.0004114493432 -0.0001806748335)
(0.007302604493 0.0001403163799 0.0002644266587)
(0.007736765181 0.000938301866 0.0001048776439)
(0.01143804201 0.0006988820891 0.0006910636062)
(0.004793026662 0.0001454522616 9.353368945e-05)
(0.01124693948 1.354461429e-05 0.0005548199123)
(0.01068226044 -0.0006333871291 -0.0004970569489)
(0.004812213811 1.558891839e-05 -0.001122523329)
(0.008211938644 0.0002424995391 0.0005056611207)
(0.005078603333 -0.0002649966793 -0.0004124643101)
(0.01126664226 0.0004194626993 -0.0006744096484)
(0.01319601448 -0.0003554401066 -0.000171120551)
(0.009530148106 0.0005111050536 3.424893433e-05)
(0.005958608898 0.0006084894989 -0.0003398104789)
(0.007000055903 3.422007029e-05 -8.576844324e-05)
(0.008555310376 0.0006360950453 -0.001018679323)
(0.004398908683 -2.480739903e-05 -0.0009497833919)
(0.006878555681 0.0001066761281 -0.000303225122)
(0.009394529912 -0.0009097044853 0.0009862248607)
(0.01144239975 0.001262461653 -0.001507705948)
(0.009324527176 4.694983319e-05 0.0007456050011)
(0.008022444675 -0.0003482661786 4.843710951e-05)
(0.004858467104 7.526312292e-06 0.0004136540005)
(0.01042116495 0.0006681075868 0.0004452881688)
(0.008551353816 0.0007017417027 -0.0001213595945)
(0.007221806718 0.0004227348789 4.641124868e-05)
(0.004990751178 0.0001205994269 -0.0005103780988)
(0.009457858128 0.000562870483 -0.0003519959576)
(0.009171731519 0.0001655622068 -0.0003357898107)