/*--------------------------------*- C++ -*----------------------------------*\
| =========                 |                                                 |
| \\      /  F ield         | OpenFOAM: The Open Source CFD Toolbox           |
|  \\    /   O peration     | Version:  2406                                  |
|   \\  /    A nd           | Website:  www.openfoam.com                      |
|    \\/     M anipulation  |                                                 |
\*---------------------------------------------------------------------------*/
FoamFile
{
    version     2.0;
    format      ascii;
    arch        "LSB;label=32;scalar=64";
    class       volScalarField;
    location    "0.003";
    object      overallT;
}
// * * * * * * * * * * * * * * * * * * * * * * * * * * * * * * * * * * * * * //

dimensions      [1 2 -2 0 0 0 0];

internalField   nonuniform List<scalar> 
654
(
724.3886666
717.4719897
721.9457516
717.9415027
712.576978
714.4516427
664.1668919
669.3478403
671.4611727
671.0503983
688.4711756
697.8530133
696.7640459
701.5604587
704.8809534
702.2431487
705.7564885
558.5547305
584.0209645
592.3587878
602.1895005
621.9257723
643.0113464
656.9771752
651.5989913
666.2897167
670.8918139
676.0156176
690.8946157
690.0776891
687.9088979
693.9962636
694.9403833
415.7019307
419.9567725
434.3824108
464.8961578
475.0762065
495.4311061
523.1179374
545.621953
560.9246861
585.9909503
599.4508899
616.9177866
636.0063882
642.0640494
644.2498324
650.4739857
662.3684755
678.6711677
677.0214213
676.4090501
674.7151194
681.9519941
324.3250878
327.2879548
332.6223338
342.6515773
355.2132376
361.4939695
375.993577
386.6667353
401.5143167
419.9991279
431.8363002
452.3141515
471.9701972
489.8964178
508.10475
533.1045011
539.3956756
563.1803027
580.3402838
602.5842545
619.0801112
626.9463638
633.0073852
648.4358843
655.8770781
668.2181741
673.6007485
680.0228547
673.7785136
318.0965851
319.3791372
324.8066039
325.9553088
334.9421915
343.401935
353.9090334
363.3320324
368.0161067
381.4448891
399.430055
406.7785847
423.0695252
433.2423144
459.292305
468.4751147
491.6111717
508.933622
520.4983725
546.5959245
570.2681762
593.2572808
605.3513203
615.7340802
637.3947182
643.7320134
652.5627589
659.0596357
659.6102927
664.8804937
311.9790528
318.7458463
321.9855007
327.2774669
333.4908028
338.880097
337.6777849
348.4304172
358.2378194
363.8104185
366.3067088
386.4152498
397.0774375
418.7220958
427.9558895
442.6270682
460.7792879
482.5378601
490.5222101
503.1423449
526.3547381
554.202727
570.2874611
584.0211469
603.026833
613.9704878
636.6305326
640.2677949
641.3935771
648.3916141
312.9536858
312.9998396
312.9045883
316.6195726
322.1007691
329.558485
332.7260533
332.3593389
346.3729637
350.4375775
353.3277676
361.2921943
364.173977
375.7069216
398.6217181
409.396451
427.9732026
449.1660443
458.4577265
475.2430993
496.7538503
519.466294
533.699474
561.9477319
574.8489232
588.5001521
605.3808129
619.8549489
632.4377074
633.490893
307.2467188
308.424238
313.701397
310.6166296
313.6111301
316.9380077
324.3991223
321.4900691
333.1264589
342.5237525
344.6178781
341.7076251
353.0280778
363.4666439
379.381179
395.7302556
412.1995141
423.286639
443.4193676
464.1291982
471.2602317
494.6484296
518.1892462
528.4925048
550.9329796
570.8768013
581.0676574
598.1363024
609.8469787
619.9512012
307.4670871
307.4203284
306.8818096
306.2862756
311.9860839
314.3750635
315.7481977
318.7395412
326.1584327
329.9524011
340.6179237
337.144006
341.401474
352.4181899
360.0674715
360.3663758
378.9819581
399.7894069
413.526515
423.9981344
441.6080213
456.8073845
483.8063866
499.9385925
518.0602968
533.497609
553.5024118
565.2959943
586.2000251
596.6636546
304.6432536
305.2055804
305.7678241
307.2289945
307.5365845
308.172799
312.2420083
317.9977427
320.0557787
322.8892261
328.6822506
335.3912617
335.5189275
343.079701
351.9344104
365.5413333
371.332792
385.3941971
394.7831049
406.4045148
416.3949435
425.3514297
446.5481476
468.0735859
489.2939089
497.7600061
525.4726488
540.1275367
561.0097789
571.9076823
300.8887635
301.1071836
302.0847217
308.5391826
311.6922929
314.6054749
312.304449
317.1889155
317.9091971
319.4942304
321.7827499
329.6407709
330.3617887
332.2258662
340.6340348
350.9883612
350.3996731
362.2813037
375.9653809
388.3650108
398.731324
409.2964677
419.9787961
438.50986
460.4433648
480.8861379
496.7086706
516.6614442
529.7904073
553.2509678
305.7436124
306.8720006
307.0617642
308.4525206
306.7097524
307.9635679
308.4731479
311.2175048
309.7155051
316.0352243
318.5243637
320.9851626
323.5219859
325.1793033
331.8745795
342.6808337
347.4489779
352.0589138
359.5322263
372.7979757
383.7549671
390.265943
408.7970639
411.1068391
433.9261206
450.8399645
471.0840214
484.5713679
507.8301547
522.9095083
302.2212229
302.8233726
305.7386481
309.1040158
307.4278362
304.6272088
306.5220615
307.9842789
309.7988611
312.2005698
315.7165381
321.4610195
318.3010632
321.2261567
323.4818941
333.9211008
337.4154759
339.817587
344.1905374
355.3184475
364.0579726
374.1125327
386.6381492
400.2670709
410.2873191
420.8384162
436.0734598
454.3881393
467.5077756
495.8245737
302.5635922
301.6832451
300.5175216
300.6699027
301.1829873
301.7992303
305.3609355
305.7111782
307.8860224
310.3998174
308.131467
305.8666523
317.9042938
317.1220486
318.405611
321.9650901
324.0317997
334.7899566
337.6107035
341.8268855
348.304869
357.8524377
363.1626886
383.3635267
392.5299335
402.7963553
415.8953948
435.2889725
445.5589873
461.7360753
298.7096475
298.8995671
298.9651511
300.4557475
304.1061738
300.4899012
300.6469366
301.4431629
302.6822665
305.5295627
307.9411497
307.6462037
309.80688
308.947519
312.5498425
316.7560383
322.4918612
323.32953
326.8940856
329.3781139
343.768494
346.1265386
354.6644362
358.7892831
361.1543168
373.8270832
381.9125798
396.1760716
420.5571082
433.8636588
300.3120881
301.5975411
302.2290508
301.3650852
302.3209193
302.8398994
303.6438111
305.83578
306.9552985
305.4036978
307.417148
306.4514103
307.1033382
308.4689311
311.3301348
312.9101299
315.9447796
318.6846974
320.4041487
325.503921
328.50542
335.0482077
342.1641372
347.6578518
356.1188924
363.3923861
374.4206105
385.0892363
397.5112224
413.8771505
302.163584
301.2048008
301.2682518
300.7799746
301.400272
303.6197806
304.033583
302.6744429
300.2414635
304.5741521
305.1480822
306.5479072
306.2883065
310.8933915
309.1869663
308.5977055
312.3887406
315.8248551
320.3004762
317.5696039
317.9491399
325.9216569
331.4061096
337.3046681
348.8104063
349.1505574
357.5771909
368.8158972
379.4944196
393.4190466
298.2647849
297.3005373
299.2782619
303.6865427
303.4397893
303.4850052
303.7710518
307.1468435
307.4884841
304.9791463
305.9170149
303.7823192
303.0818763
304.1214958
307.054448
307.272402
305.9003392
308.7290695
311.8190515
315.8905658
316.1125947
317.7524351
321.5488955
332.847132
337.0366766
351.6781671
348.8377884
356.8098674
369.0023095
372.3080884
306.9628485
306.1912585
304.8273966
305.1768168
303.8996787
304.1847148
305.0555305
301.782713
302.0375935
302.1161407
306.7111111
305.1834387
303.7783934
304.2114327
304.3879083
304.9538387
312.3030712
309.9453803
314.9572913
316.8466771
317.5921805
315.3420269
318.3743122
321.869072
328.6623547
341.5024759
347.3039604
351.6040668
358.3519721
368.0252986
297.8697259
299.0448249
298.0245745
299.0411816
297.9881448
297.3559537
297.4145035
299.4835502
299.5890502
300.3333943
300.0508001
301.358855
302.1140903
300.9691915
305.0591645
307.2216142
305.7794651
305.4374931
303.9523437
306.1189538
315.1333523
313.7895287
314.470121
311.5629229
322.5436851
329.3322907
328.4853489
337.5567651
343.6221731
351.5774688
304.3815136
304.3218715
302.8933726
302.0800961
304.3741257
300.8935974
302.8063366
302.6359938
302.0545538
302.0342105
301.4001628
303.37689
301.7232004
302.9954459
302.3655917
302.8814294
303.5397187
306.4311318
304.9114766
308.6357845
309.0824728
313.7531914
314.6793379
316.2335143
313.0780205
322.9645597
326.6332102
334.488179
335.2646436
349.9170625
300.3924757
299.3631384
300.1530251
297.3141159
301.0482056
303.380428
300.5413368
297.7208489
298.0166547
300.2410166
300.4875209
301.6634728
301.4004199
302.146762
304.8931658
302.9182062
303.4618572
305.4799931
305.8903249
307.8706225
312.0753129
310.25927
312.4910357
314.8253546
318.4762214
318.7709967
318.7492016
325.7923461
333.4659946
335.2952124
301.5018242
303.7231156
305.7930913
302.1951722
300.4860105
299.1193421
299.7603174
301.3308119
299.62178
299.6969593
298.6871968
301.8973695
301.5179214
298.9315457
296.9877929
298.7851063
299.7115911
303.7573001
303.9799817
304.4047383
304.1657535
309.9180377
314.270238
308.9979586
311.682852
311.5326761
313.4674818
319.2899426
325.2811314
328.6338158
)
;

boundaryField
{
    flow
    {
        type            calculated;
        value           nonuniform List<scalar> 
55
(
724.3886666
714.4516427
705.7564885
694.9403833
681.9519941
673.7785136
664.8804937
648.3916141
633.490893
619.9512012
596.6636546
571.9076823
553.2509678
522.9095083
495.8245737
461.7360753
433.8636588
413.8771505
393.4190466
372.3080884
368.0252986
351.5774688
349.9170625
335.2952124
328.6338158
301.5018242
303.7231156
305.7930913
302.1951722
300.4860105
299.1193421
299.7603174
301.3308119
299.62178
299.6969593
298.6871968
301.8973695
301.5179214
298.9315457
296.9877929
298.7851063
299.7115911
303.7573001
303.9799817
304.4047383
304.1657535
309.9180377
314.270238
308.9979586
311.682852
311.5326761
313.4674818
319.2899426
325.2811314
328.6338158
)
;
    }
    obstacle
    {
        type            calculated;
        value           nonuniform List<scalar> 0();
    }
    frontAndBack
    {
        type            empty;
    }
    procBoundary3to1
    {
        type            processor;
        value           nonuniform List<scalar> 
36
(
735.5613016
726.3191702
718.7609971
732.504823
729.1964135
729.1964135
682.8767041
672.432885
687.6369343
696.0226823
709.5979535
708.599905
708.599905
593.2160272
609.231274
622.0862605
642.7389398
648.3383276
648.3383276
445.0549862
459.0234553
486.7128423
499.8567865
515.5673579
532.1681331
532.1681331
338.0859936
336.2574754
344.0062589
363.0793861
373.4529199
379.4384818
390.3075512
390.3075512
327.4002591
327.4002591
)
;
    }
    procBoundary3to2
    {
        type            processor;
        value           nonuniform List<scalar> 
19
(
312.4484772
309.1398384
310.8127029
303.6551886
302.6397723
304.8777404
298.9805095
303.3851172
305.5894887
301.9685267
299.933473
298.539269
303.0834987
298.4241138
303.8704684
297.3074135
301.5103006
301.0945272
299.1899897
)
;
    }
}


// ************************************************************************* //
