/*--------------------------------*- C++ -*----------------------------------*\
| =========                 |                                                 |
| \\      /  F ield         | OpenFOAM: The Open Source CFD Toolbox           |
|  \\    /   O peration     | Version:  2406                                  |
|   \\  /    A nd           | Website:  www.openfoam.com                      |
|    \\/     M anipulation  |                                                 |
\*---------------------------------------------------------------------------*/
FoamFile
{
    version     2.0;
    format      ascii;
    arch        "LSB;label=32;scalar=64";
    class       volScalarField;
    location    "0.003";
    object      p;
}
// * * * * * * * * * * * * * * * * * * * * * * * * * * * * * * * * * * * * * //

dimensions      [1 -1 -2 0 0 0 0];

internalField   nonuniform List<scalar> 
654
(
2.427360985
2.472760334
2.535201385
2.471355459
2.427878162
2.440290313
2.001516932
2.073477285
2.133318333
2.204624859
2.324172076
2.408976529
2.412497791
2.424638073
2.472735592
2.44003052
2.422012224
1.241931041
1.384912371
1.446326128
1.535577674
1.670037893
1.838251062
1.918587811
1.947106415
2.050312244
2.182314986
2.251312099
2.383604994
2.397032122
2.374964586
2.41767142
2.36611556
0.7025851542
0.7358388904
0.7712203557
0.8787662604
0.9190131197
0.9955787242
1.089758251
1.192873865
1.286039632
1.40832095
1.502267666
1.624471753
1.77803763
1.828535344
1.875388967
1.941112204
2.074671804
2.231448919
2.280530335
2.303661933
2.305125886
2.357218421
0.4706155058
0.4703578692
0.4840400419
0.5153000094
0.5513925549
0.5621528308
0.6029151937
0.6187477266
0.6664553933
0.7264106167
0.764999156
0.8262775206
0.8945428694
0.9624787845
1.040737464
1.14219131
1.180837101
1.290034123
1.393989509
1.534342191
1.676342187
1.752376926
1.814186931
1.953629879
2.047770329
2.141950253
2.19666585
2.2662211
2.254171908
0.4592998404
0.4664689812
0.4854719203
0.4875273598
0.5033183161
0.5177337474
0.5489452456
0.5710497513
0.5841209076
0.6220173629
0.6748031999
0.7008488177
0.7537327635
0.7918988181
0.8605201262
0.9107395401
0.9742417004
1.056125531
1.110533659
1.208631882
1.337863827
1.474366158
1.57606269
1.638496464
1.772560541
1.880416443
1.96837759
2.07561813
2.095481224
2.183418358
0.4457198482
0.4546963609
0.4567012679
0.4710828551
0.4921954794
0.5105209568
0.5082016826
0.5364299644
0.5630994746
0.5784071675
0.5852806983
0.6455256267
0.6727202074
0.7330770969
0.7518733513
0.7926629228
0.8609802945
0.9326971238
0.9898933896
1.064194705
1.146641555
1.270365041
1.368181528
1.481350639
1.615495051
1.688922004
1.855847236
1.944908912
2.010367065
2.050643017
0.4408851774
0.4490330282
0.4525246489
0.4612722387
0.4753235791
0.4894060216
0.4953338621
0.4946455455
0.5287830809
0.5371239653
0.5418458989
0.5672611429
0.5746829837
0.6107035477
0.6896081181
0.7224248261
0.7818836375
0.8483657746
0.8680343316
0.934517839
1.044047908
1.128256638
1.192884371
1.338154191
1.418445402
1.490952805
1.611893817
1.725640921
1.84055296
1.904183923
0.4391396197
0.4432370399
0.4540003845
0.4453438033
0.4562450302
0.4622602202
0.4778487253
0.4738015755
0.5003919435
0.5253449695
0.5243357452
0.5149678118
0.5511155573
0.5681870029
0.6051255472
0.6539816943
0.7019176447
0.733020644
0.8119964844
0.8784604342
0.9122038986
1.020562788
1.114934976
1.15491917
1.253746907
1.379929908
1.463121489
1.571412703
1.68652492
1.790117557
0.4293656552
0.4294162442
0.4313003797
0.4252580339
0.4446151586
0.4535615204
0.4615353204
0.4632356335
0.4794458445
0.4851462593
0.5109639297
0.500010838
0.506520289
0.5399499317
0.5615699228
0.5609609513
0.6199678332
0.6850170181
0.7159444376
0.7512794875
0.8139655319
0.872894753
0.986963729
1.059747641
1.139756957
1.21294248
1.327462749
1.397806993
1.508951079
1.57402545
0.4291394558
0.4287116662
0.4338878845
0.4322695959
0.4325632436
0.4326942142
0.4335318774
0.4507387486
0.4561979282
0.4678472636
0.4801271446
0.4938443267
0.4927232495
0.5091256382
0.5348979748
0.5679961708
0.5802511963
0.6207700804
0.6661443616
0.7041566487
0.7251094092
0.7621414526
0.8453653956
0.9302253795
1.010444617
1.045262111
1.16754311
1.247154334
1.383325306
1.46234112
0.4257466493
0.420094368
0.4109854007
0.4302474112
0.4361307496
0.4439422872
0.4412070362
0.4481199591
0.4484356184
0.4426942713
0.4607318174
0.4870327514
0.490497216
0.4949624342
0.5127919329
0.5465654237
0.546762689
0.5716872441
0.606428651
0.6272710759
0.6765625456
0.7151968187
0.7478215238
0.8042548266
0.8816224395
0.9734599095
1.032432741
1.122614329
1.202046198
1.333532135
0.4177573509
0.4271521135
0.4283522505
0.4330911958
0.4248868638
0.4252531678
0.4260387777
0.4294458264
0.4331259803
0.4486202755
0.4496064503
0.453968595
0.4711182691
0.4740933157
0.488860855
0.5143601785
0.5288907689
0.5470111772
0.5654550629
0.6095800676
0.6326715712
0.6450968555
0.7088897491
0.7205074145
0.7934121749
0.8561273108
0.9298008616
0.9972438352
1.098577119
1.175652999
0.413804854
0.4146833964
0.418327029
0.4292520361
0.4252766332
0.4226530248
0.4256433587
0.4240872123
0.4301494081
0.4408804543
0.4451181339
0.4564766073
0.4418285336
0.4529155495
0.4662087045
0.4933432468
0.5026177128
0.518465166
0.5211417471
0.5542121066
0.5700774077
0.5996528218
0.6363506413
0.6797216653
0.7201376121
0.7542414797
0.8102667114
0.8790381822
0.9374194518
1.047063475
0.4135556954
0.4120163298
0.4111550808
0.4106776351
0.4093206624
0.4130645885
0.4270995585
0.431424101
0.4315670639
0.435621986
0.4376053065
0.4373786684
0.4631772834
0.469707281
0.4642531611
0.4713771693
0.4715333392
0.4852386908
0.491382451
0.500996959
0.5159309732
0.5516791227
0.5661970744
0.6195860319
0.6506692816
0.6931810149
0.7441801651
0.8113162032
0.8457160638
0.911744509
0.4132594124
0.4108431516
0.4102447896
0.4128610878
0.4221356907
0.4149454207
0.415181402
0.422215663
0.4279223177
0.4342783083
0.4342225324
0.4318412552
0.4427686874
0.4432083991
0.4526634562
0.4614830786
0.4730948857
0.4753699724
0.4848761116
0.4918701649
0.5244262801
0.5316602959
0.5611752274
0.582395026
0.5896039119
0.6205473961
0.641843857
0.6897269024
0.7709766964
0.8224807337
0.425960607
0.4287782562
0.4304032597
0.4227712241
0.4247195484
0.424014696
0.4200443118
0.4188248086
0.4196801279
0.4242676756
0.4381473369
0.4303536336
0.4295021214
0.4283513671
0.4321456459
0.4391839889
0.449050955
0.4563787888
0.4697970977
0.4829060941
0.5005970774
0.5133789471
0.5234615991
0.5357347135
0.5521302952
0.5718088959
0.5991431957
0.6410714758
0.6717192224
0.7263386507
0.4223892106
0.4228290814
0.4308006091
0.4299279865
0.4259361062
0.4318320376
0.4338192977
0.4335568361
0.4211065564
0.4266617537
0.4217289461
0.4209567718
0.4266890167
0.4417192502
0.4382295764
0.4381149865
0.4513276988
0.4592659959
0.4690421493
0.4564294987
0.4614125322
0.4839535413
0.4915669692
0.5111908008
0.5454692628
0.5458343064
0.5744588594
0.5936606274
0.6236765977
0.6660760707
0.4046887166
0.3958653421
0.3996132769
0.4094578068
0.4131844243
0.4172821621
0.4170297613
0.4273910237
0.4287377113
0.4188735446
0.4261596416
0.4304200386
0.4274270553
0.4240649865
0.4351151457
0.4323683878
0.42941423
0.4354968779
0.4410566227
0.4563638114
0.4575777238
0.4586780152
0.4708399578
0.4899969532
0.5033553949
0.5376273906
0.5300287062
0.5630446464
0.6047210486
0.6209486949
0.4156025106
0.4127799174
0.4133088683
0.4140237891
0.4157424939
0.4137760246
0.4116184904
0.4066886726
0.4162180531
0.4207340366
0.4315738456
0.41795437
0.4125016396
0.4195484486
0.4191924382
0.421861082
0.4409387257
0.4370186136
0.4506061384
0.4521280058
0.4503164929
0.451510441
0.458335324
0.4716534925
0.4905260778
0.5304500184
0.5351304867
0.5361694922
0.5573080136
0.5833707356
0.415328212
0.4158253426
0.409853676
0.416055989
0.4115950244
0.4124749878
0.4186070548
0.4250949072
0.4164315939
0.4238583849
0.4209812435
0.4302041785
0.4328141243
0.4279812144
0.4318777075
0.4384685568
0.4337023963
0.4305724121
0.4279996997
0.4280711825
0.4487203355
0.4480112527
0.4534939291
0.4418751476
0.468846134
0.4919073503
0.4971972882
0.5349522634
0.5462454548
0.5673970485
0.4291609816
0.4312322088
0.4321257981
0.4331504282
0.4374119342
0.4243072951
0.4218892198
0.4204281072
0.4222303391
0.4161778401
0.4095513524
0.4185699172
0.4251192049
0.4282870673
0.4287247684
0.430957582
0.4345450161
0.4345458983
0.4305506003
0.4399501462
0.4400178951
0.4500033618
0.4534532924
0.455163782
0.4484888991
0.4767778179
0.4871072209
0.4927573458
0.4961200319
0.532314118
0.41992507
0.4149853851
0.4201394025
0.4137552562
0.4202233433
0.4288847837
0.4269384645
0.415477554
0.4151048357
0.4198410811
0.4181740971
0.4216415135
0.4189540559
0.4167359757
0.4202023574
0.4173084509
0.4246679921
0.4343972673
0.4389731584
0.4396201361
0.4468108022
0.43634279
0.4411084327
0.4532445233
0.4657901221
0.4595584923
0.4628418899
0.4831041924
0.5058750817
0.5166418124
0.4039838784
0.4111502148
0.4130543421
0.4084310003
0.4013798937
0.4011530813
0.4061969987
0.4148992149
0.4142386908
0.4156751764
0.4178272967
0.4172953744
0.4174077706
0.4096523558
0.4066352525
0.4141215262
0.4051643159
0.4093592571
0.4037144407
0.4091583602
0.4168236881
0.4382384506
0.4398766331
0.4335056226
0.4302865472
0.4281769285
0.4321951209
0.4474245684
0.4663879838
0.4799113402
)
;

boundaryField
{
    flow
    {
        type            calculated;
        value           nonuniform List<scalar> 
55
(
2.427360985
2.440290313
2.422012224
2.36611556
2.357218421
2.254171908
2.183418358
2.050643017
1.904183923
1.790117557
1.57402545
1.46234112
1.333532135
1.175652999
1.047063475
0.911744509
0.8224807337
0.7263386507
0.6660760707
0.6209486949
0.5833707356
0.5673970485
0.532314118
0.5166418124
0.4799113402
0.4039838784
0.4111502148
0.4130543421
0.4084310003
0.4013798937
0.4011530813
0.4061969987
0.4148992149
0.4142386908
0.4156751764
0.4178272967
0.4172953744
0.4174077706
0.4096523558
0.4066352525
0.4141215262
0.4051643159
0.4093592571
0.4037144407
0.4091583602
0.4168236881
0.4382384506
0.4398766331
0.4335056226
0.4302865472
0.4281769285
0.4321951209
0.4474245684
0.4663879838
0.4799113402
)
;
    }
    obstacle
    {
        type            calculated;
        value           nonuniform List<scalar> 0();
    }
    frontAndBack
    {
        type            empty;
    }
    procBoundary3to1
    {
        type            processor;
        value           nonuniform List<scalar> 
36
(
2.379406107
2.51539339
2.475736561
2.51078645
2.494956092
2.494956092
2.130331944
2.126923715
2.296563721
2.336639635
2.459927531
2.434750878
2.434750878
1.421501315
1.537084594
1.635227398
1.774459376
1.835854722
1.835854722
0.7860328445
0.8172973805
0.939356309
0.9785234851
1.038168544
1.118944786
1.118944786
0.5015514581
0.4982636096
0.5232854324
0.5677183992
0.585085894
0.5998334575
0.6318711482
0.6318711482
0.4706353219
0.4706353219
)
;
    }
    procBoundary3to2
    {
        type            processor;
        value           nonuniform List<scalar> 
19
(
0.4495087289
0.4344844251
0.4357879987
0.4307029544
0.4190990569
0.4327791711
0.417878796
0.4181533771
0.4191819795
0.4163377477
0.4121942458
0.4205303172
0.4227386228
0.4089835189
0.4043655249
0.4126961537
0.4173882855
0.4254848266
0.4038739961
)
;
    }
}


// ************************************************************************* //
