/*--------------------------------*- C++ -*----------------------------------*\
| =========                 |                                                 |
| \\      /  F ield         | OpenFOAM: The Open Source CFD Toolbox           |
|  \\    /   O peration     | Version:  2406                                  |
|   \\  /    A nd           | Website:  www.openfoam.com                      |
|    \\/     M anipulation  |                                                 |
\*---------------------------------------------------------------------------*/
FoamFile
{
    version     2.0;
    format      ascii;
    arch        "LSB;label=32;scalar=64";
    class       volScalarField;
    location    "0.003";
    object      rhoMMean;
}
// * * * * * * * * * * * * * * * * * * * * * * * * * * * * * * * * * * * * * //

dimensions      [1 -3 0 0 0 0 0];

internalField   nonuniform List<scalar> 
654
(
1.126922572e-05
1.117355074e-05
1.146702639e-05
1.139093208e-05
1.137815829e-05
1.149292859e-05
9.201802007e-06
9.551532465e-06
9.918818774e-06
1.037234791e-05
1.072712107e-05
1.103616455e-05
1.11575499e-05
1.118219734e-05
1.144535552e-05
1.143217794e-05
1.141129121e-05
6.661502979e-06
7.067324136e-06
7.359695812e-06
7.637259851e-06
8.139569131e-06
8.683820962e-06
8.966712138e-06
9.21181792e-06
9.604330737e-06
1.013516456e-05
1.050996129e-05
1.091301155e-05
1.107946325e-05
1.113119134e-05
1.128177927e-05
1.117922081e-05
5.268785823e-06
5.433248133e-06
5.483818007e-06
5.692930281e-06
5.822539427e-06
6.027874116e-06
6.202871646e-06
6.502950125e-06
6.83029195e-06
7.177548971e-06
7.550850826e-06
7.872395341e-06
8.389579676e-06
8.713541024e-06
8.975398368e-06
9.29437989e-06
9.762943281e-06
1.027564205e-05
1.062403392e-05
1.085615386e-05
1.095594769e-05
1.117531088e-05
4.857397742e-06
4.846595173e-06
4.841585923e-06
4.910128267e-06
5.001518849e-06
5.021111764e-06
5.118759201e-06
5.134130636e-06
5.233300401e-06
5.356429018e-06
5.480763137e-06
5.625112965e-06
5.821225219e-06
6.022038512e-06
6.205393564e-06
6.418539227e-06
6.602906932e-06
6.887942309e-06
7.280881226e-06
7.677087938e-06
8.172855457e-06
8.516586987e-06
8.864273588e-06
9.26822847e-06
9.66299848e-06
1.00249541e-05
1.031831641e-05
1.068491399e-05
1.084817778e-05
4.86721108e-06
4.874726103e-06
4.950656069e-06
4.951599479e-06
4.94774224e-06
4.930638797e-06
5.024438213e-06
5.081015212e-06
5.140571725e-06
5.262277833e-06
5.346514022e-06
5.43575095e-06
5.572722705e-06
5.688533943e-06
5.788576807e-06
5.976657635e-06
6.051483662e-06
6.271020245e-06
6.474522049e-06
6.698159878e-06
7.074106231e-06
7.48082019e-06
7.921043253e-06
8.168170616e-06
8.570877491e-06
9.012612614e-06
9.367048027e-06
9.84623255e-06
1.007597821e-05
1.049211282e-05
4.857799759e-06
4.838629082e-06
4.820636242e-06
4.875204594e-06
4.947738542e-06
4.997129768e-06
5.031023249e-06
5.072986122e-06
5.150945535e-06
5.208793341e-06
5.248489778e-06
5.302128987e-06
5.344252769e-06
5.433178243e-06
5.438265875e-06
5.54750996e-06
5.731039277e-06
5.879089659e-06
6.120072678e-06
6.365733688e-06
6.580418922e-06
6.907178928e-06
7.276730145e-06
7.705906935e-06
8.175416881e-06
8.450507932e-06
8.952357816e-06
9.339436703e-06
9.749483295e-06
9.96689271e-06
4.834522527e-06
4.903636387e-06
4.948075618e-06
4.979720948e-06
5.038659045e-06
5.009548948e-06
4.997664452e-06
4.99863238e-06
4.974706293e-06
4.971106371e-06
4.989899511e-06
5.091218506e-06
5.118409092e-06
5.231356386e-06
5.397279823e-06
5.47716495e-06
5.636887683e-06
5.825311543e-06
5.821977494e-06
5.991399189e-06
6.313294754e-06
6.527155152e-06
6.704645901e-06
7.129336707e-06
7.499902624e-06
7.736137814e-06
8.167697069e-06
8.596862677e-06
8.978991659e-06
9.42261773e-06
4.909067507e-06
4.942461811e-06
4.947219135e-06
4.929938731e-06
4.911133463e-06
4.907527811e-06
4.9475945e-06
4.952374098e-06
4.976486175e-06
5.026811797e-06
4.981773269e-06
5.001172914e-06
5.077301709e-06
5.084711282e-06
5.12703081e-06
5.25959713e-06
5.334314988e-06
5.388589734e-06
5.62285386e-06
5.768671888e-06
5.898316747e-06
6.144251004e-06
6.457922618e-06
6.561024995e-06
6.839130435e-06
7.301639555e-06
7.617450446e-06
7.989435937e-06
8.501970304e-06
8.930869162e-06
4.786465335e-06
4.762260346e-06
4.778436613e-06
4.746460626e-06
4.829539258e-06
4.856325058e-06
4.907010592e-06
4.908580132e-06
4.922424044e-06
4.928875427e-06
4.973655258e-06
4.954099143e-06
4.945825352e-06
5.025484074e-06
5.075223054e-06
5.069630732e-06
5.223312006e-06
5.370043049e-06
5.408981131e-06
5.509915506e-06
5.70576952e-06
5.875548701e-06
6.125877419e-06
6.40372588e-06
6.647401274e-06
6.930176064e-06
7.312568096e-06
7.563145334e-06
7.827439926e-06
8.104543586e-06
4.826858209e-06
4.822875573e-06
4.857733569e-06
4.799576236e-06
4.786891528e-06
4.765111389e-06
4.732181657e-06
4.813290708e-06
4.843176626e-06
4.908204453e-06
4.939364648e-06
4.914451508e-06
4.940931086e-06
4.924248144e-06
4.969292032e-06
4.982043675e-06
5.001479491e-06
5.141970065e-06
5.313948657e-06
5.42567713e-06
5.469248018e-06
5.625937232e-06
5.845111755e-06
6.066496505e-06
6.266855476e-06
6.421918501e-06
6.723013377e-06
7.04785536e-06
7.510662789e-06
7.830416659e-06
4.843498331e-06
4.79824685e-06
4.719866415e-06
4.788754442e-06
4.8199518e-06
4.863284642e-06
4.851476022e-06
4.826870101e-06
4.800508601e-06
4.730964729e-06
4.826216226e-06
4.923308281e-06
4.945622669e-06
4.956705515e-06
4.991933197e-06
5.128965069e-06
5.150724764e-06
5.119971484e-06
5.189740004e-06
5.177456979e-06
5.383680824e-06
5.47287627e-06
5.544335457e-06
5.668126991e-06
5.869358388e-06
6.123627375e-06
6.319045285e-06
6.618000138e-06
6.884832026e-06
7.355897736e-06
4.745504769e-06
4.804508246e-06
4.79841937e-06
4.803362313e-06
4.744515696e-06
4.749805892e-06
4.752614382e-06
4.751680196e-06
4.770365325e-06
4.81578225e-06
4.793577753e-06
4.778638792e-06
4.877539972e-06
4.911565924e-06
4.934513785e-06
4.943838807e-06
4.999238112e-06
5.080366604e-06
5.139526e-06
5.258018645e-06
5.273449652e-06
5.285794597e-06
5.403583249e-06
5.480794778e-06
5.634512591e-06
5.841860472e-06
6.025546982e-06
6.270834675e-06
6.579085672e-06
6.807621157e-06
4.756041558e-06
4.751523971e-06
4.756619308e-06
4.779315146e-06
4.785577906e-06
4.762851584e-06
4.76592048e-06
4.727772765e-06
4.762797771e-06
4.809530797e-06
4.812452554e-06
4.801493538e-06
4.742487769e-06
4.798694107e-06
4.889643021e-06
4.955434029e-06
4.982464491e-06
5.034222311e-06
4.981516679e-06
5.075113408e-06
5.07002984e-06
5.179406226e-06
5.270852226e-06
5.38423111e-06
5.51778092e-06
5.609977365e-06
5.779750564e-06
5.961499997e-06
6.134284466e-06
6.451191554e-06
4.755326929e-06
4.748969702e-06
4.744528768e-06
4.755902369e-06
4.70436824e-06
4.761363869e-06
4.823107048e-06
4.862468267e-06
4.805512065e-06
4.807810407e-06
4.873063766e-06
4.910942477e-06
4.924596481e-06
4.995961144e-06
4.921740018e-06
4.917116539e-06
4.883676211e-06
4.854769547e-06
4.869837158e-06
4.874891969e-06
4.878351425e-06
4.983839722e-06
5.044101162e-06
5.146272672e-06
5.283548907e-06
5.448648597e-06
5.596475991e-06
5.781871883e-06
5.867199018e-06
6.04589656e-06
4.790718653e-06
4.732633425e-06
4.716407097e-06
4.725500718e-06
4.769221159e-06
4.787291227e-06
4.784505743e-06
4.845849773e-06
4.907800038e-06
4.890106163e-06
4.820263368e-06
4.846001509e-06
4.869311195e-06
4.852101368e-06
4.862181251e-06
4.884089212e-06
4.90185139e-06
4.932955971e-06
4.964486975e-06
5.011446324e-06
5.047445728e-06
5.085955341e-06
5.144785918e-06
5.233147378e-06
5.251783835e-06
5.278246511e-06
5.318586151e-06
5.474421521e-06
5.686464291e-06
5.841938371e-06
4.891935968e-06
4.952020668e-06
4.979635545e-06
4.913393491e-06
4.897125118e-06
4.871635486e-06
4.804935965e-06
4.780391669e-06
4.748017236e-06
4.811061367e-06
4.841816861e-06
4.778304007e-06
4.754133491e-06
4.758725822e-06
4.780925752e-06
4.818233945e-06
4.844119744e-06
4.879001409e-06
4.953391816e-06
4.976065323e-06
5.07933351e-06
5.064344327e-06
5.060331562e-06
5.040482929e-06
5.059953404e-06
5.094044663e-06
5.157642263e-06
5.28596382e-06
5.304547136e-06
5.514775987e-06
4.8787611e-06
4.875751706e-06
4.931479662e-06
4.929695395e-06
4.906082059e-06
4.945985818e-06
4.935377062e-06
4.938275448e-06
4.843445957e-06
4.834658931e-06
4.799895511e-06
4.806008754e-06
4.840220339e-06
4.870655608e-06
4.827585832e-06
4.817855404e-06
4.823933818e-06
4.859509681e-06
4.851552279e-06
4.841804005e-06
4.86126911e-06
4.883765734e-06
4.930837635e-06
4.998322535e-06
5.100749573e-06
5.087166368e-06
5.170297232e-06
5.187699107e-06
5.26446427e-06
5.374581835e-06
4.772227734e-06
4.695984153e-06
4.709291561e-06
4.711171624e-06
4.710565051e-06
4.736765096e-06
4.743262442e-06
4.794922116e-06
4.81949485e-06
4.766804877e-06
4.782546229e-06
4.820897001e-06
4.825979754e-06
4.777565515e-06
4.849629477e-06
4.823044124e-06
4.800752436e-06
4.818413941e-06
4.815956771e-06
4.871742612e-06
4.907245194e-06
4.886949329e-06
4.883755751e-06
4.906675842e-06
4.970799819e-06
4.990106661e-06
4.996763367e-06
5.136558667e-06
5.260064485e-06
5.31703669e-06
4.73138105e-06
4.700523566e-06
4.717391267e-06
4.718354368e-06
4.761773211e-06
4.761038121e-06
4.738056769e-06
4.735513279e-06
4.791325284e-06
4.810098393e-06
4.844124197e-06
4.757776295e-06
4.74188546e-06
4.802648352e-06
4.773243159e-06
4.785313784e-06
4.847325892e-06
4.844787933e-06
4.884325922e-06
4.879526472e-06
4.850198611e-06
4.882477135e-06
4.902806348e-06
4.922497621e-06
4.993589601e-06
5.068070188e-06
5.064130769e-06
5.032301869e-06
5.079641765e-06
5.144715396e-06
4.800674969e-06
4.800655023e-06
4.746533537e-06
4.79643189e-06
4.750418066e-06
4.784033948e-06
4.840919344e-06
4.886227982e-06
4.811944296e-06
4.888207114e-06
4.887206615e-06
4.932013851e-06
4.983621681e-06
4.922642768e-06
4.884908669e-06
4.913314267e-06
4.872130797e-06
4.815786683e-06
4.795217522e-06
4.764266977e-06
4.834797563e-06
4.857130481e-06
4.886078099e-06
4.86200088e-06
4.920499874e-06
4.985831692e-06
5.031183154e-06
5.167690995e-06
5.211550174e-06
5.252179609e-06
4.875140119e-06
4.871407018e-06
4.922628809e-06
4.911567567e-06
4.90521264e-06
4.856534297e-06
4.815015347e-06
4.772423512e-06
4.802450499e-06
4.745321e-06
4.710481673e-06
4.739607449e-06
4.772362664e-06
4.806924292e-06
4.823059602e-06
4.84244801e-06
4.850915081e-06
4.860668581e-06
4.877323005e-06
4.879800099e-06
4.854310109e-06
4.90123149e-06
4.908774619e-06
4.912076929e-06
4.896344417e-06
4.978536448e-06
5.012698775e-06
4.922533636e-06
4.920864854e-06
5.00389357e-06
4.829388902e-06
4.797495189e-06
4.829494346e-06
4.809471087e-06
4.817899498e-06
4.852951306e-06
4.863602881e-06
4.798881565e-06
4.78138413e-06
4.796042227e-06
4.773358534e-06
4.810878278e-06
4.771400048e-06
4.759529399e-06
4.752072858e-06
4.763476597e-06
4.82346476e-06
4.874685753e-06
4.903659321e-06
4.905885325e-06
4.862586464e-06
4.81383253e-06
4.818238229e-06
4.919975274e-06
4.971755198e-06
4.893530373e-06
4.9232894e-06
4.997502801e-06
5.097528303e-06
5.098115238e-06
4.654199087e-06
4.679257807e-06
4.664816635e-06
4.696527816e-06
4.658870779e-06
4.643323211e-06
4.685880518e-06
4.740513871e-06
4.755475838e-06
4.783106756e-06
4.790559139e-06
4.748193616e-06
4.758681096e-06
4.728014138e-06
4.734481037e-06
4.780830638e-06
4.690095927e-06
4.664918301e-06
4.637709052e-06
4.690239079e-06
4.754098328e-06
4.830042213e-06
4.793786711e-06
4.789987547e-06
4.698187564e-06
4.737606249e-06
4.758299561e-06
4.775148824e-06
4.828372214e-06
4.919670937e-06
)
;

boundaryField
{
    flow
    {
        type            calculated;
        value           nonuniform List<scalar> 
55
(
1.126922572e-05
1.149292859e-05
1.141129121e-05
1.117922081e-05
1.117531088e-05
1.084817778e-05
1.049211282e-05
9.96689271e-06
9.42261773e-06
8.930869162e-06
8.104543586e-06
7.830416659e-06
7.355897736e-06
6.807621157e-06
6.451191554e-06
6.04589656e-06
5.841938371e-06
5.514775987e-06
5.374581835e-06
5.31703669e-06
5.144715396e-06
5.252179609e-06
5.00389357e-06
5.098115238e-06
4.919670937e-06
4.654199087e-06
4.679257807e-06
4.664816635e-06
4.696527816e-06
4.658870779e-06
4.643323211e-06
4.685880518e-06
4.740513871e-06
4.755475838e-06
4.783106756e-06
4.790559139e-06
4.748193616e-06
4.758681096e-06
4.728014138e-06
4.734481037e-06
4.780830638e-06
4.690095927e-06
4.664918301e-06
4.637709052e-06
4.690239079e-06
4.754098328e-06
4.830042213e-06
4.793786711e-06
4.789987547e-06
4.698187564e-06
4.737606249e-06
4.758299561e-06
4.775148824e-06
4.828372214e-06
4.919670937e-06
)
;
    }
    obstacle
    {
        type            calculated;
        value           nonuniform List<scalar> 0();
    }
    frontAndBack
    {
        type            empty;
    }
    procBoundary3to1
    {
        type            processor;
        value           nonuniform List<scalar> 
36
(
1.089192783e-05
1.142178184e-05
1.141468138e-05
1.14450708e-05
1.143257575e-05
1.143257575e-05
9.649826232e-06
9.928782102e-06
1.045492891e-05
1.072376303e-05
1.101160666e-05
1.106929499e-05
1.106929499e-05
7.142964157e-06
7.514863823e-06
7.841438277e-06
8.300759334e-06
8.651864913e-06
8.651864913e-06
5.417712631e-06
5.457256853e-06
5.77233272e-06
5.886264219e-06
6.049851193e-06
6.356803274e-06
6.356803274e-06
4.940654414e-06
4.948171242e-06
5.006426322e-06
5.049652301e-06
5.040796535e-06
5.099716046e-06
5.162151323e-06
5.162151323e-06
4.814098553e-06
4.814098553e-06
)
;
    }
    procBoundary3to2
    {
        type            processor;
        value           nonuniform List<scalar> 
19
(
4.878785225e-06
4.780343542e-06
4.861071287e-06
4.912192672e-06
4.767280016e-06
4.900410486e-06
4.791062447e-06
4.767272889e-06
4.74796452e-06
4.788470108e-06
4.749395633e-06
4.861430735e-06
4.859029067e-06
4.806790368e-06
4.680284894e-06
4.805780204e-06
4.786867362e-06
4.863282764e-06
4.667374705e-06
)
;
    }
}


// ************************************************************************* //
