/*--------------------------------*- C++ -*----------------------------------*\
| =========                 |                                                 |
| \\      /  F ield         | OpenFOAM: The Open Source CFD Toolbox           |
|  \\    /   O peration     | Version:  2406                                  |
|   \\  /    A nd           | Website:  www.openfoam.com                      |
|    \\/     M anipulation  |                                                 |
\*---------------------------------------------------------------------------*/
FoamFile
{
    version     2.0;
    format      ascii;
    arch        "LSB;label=32;scalar=64";
    class       volScalarField;
    location    "0.003";
    object      rhoM;
}
// * * * * * * * * * * * * * * * * * * * * * * * * * * * * * * * * * * * * * //

dimensions      [1 -3 0 0 0 0 0];

internalField   nonuniform List<scalar> 
654
(
1.400212661e-05
9.031435406e-06
8.007914311e-06
1.365364155e-05
9.374742289e-06
1.353062165e-05
7.097128921e-06
1.588868698e-05
1.232745934e-05
1.048105603e-05
1.263628657e-05
1.112021401e-05
1.368352669e-05
8.652305636e-06
1.086736675e-05
1.209328206e-05
1.078449786e-05
8.71647759e-06
7.44936441e-06
5.402080784e-06
5.021132633e-06
1.004151716e-05
5.540087169e-06
7.421222362e-06
1.259287666e-05
1.083732528e-05
1.353157386e-05
1.256628556e-05
1.29540024e-05
1.104639299e-05
1.495420146e-05
1.565496166e-05
1.135486201e-05
6.806699967e-06
7.657042781e-06
7.55734677e-06
4.213616447e-06
7.025510173e-06
5.434936989e-06
6.559045015e-06
3.096949458e-06
5.57032403e-06
9.276781512e-06
7.466981222e-06
8.050276202e-06
5.674681277e-06
1.162321492e-05
9.237323309e-06
6.990148405e-06
6.419392615e-06
1.049048425e-05
1.408265429e-05
1.068221167e-05
6.749633796e-06
9.935789156e-06
3.152637273e-06
5.065577285e-06
4.875763983e-06
1.688526493e-06
6.109901815e-06
8.494417761e-06
5.497971858e-06
3.957428039e-06
6.86011473e-06
4.100159658e-06
4.619410099e-06
7.43456498e-06
3.046768469e-06
5.313833973e-06
6.193898867e-06
4.727074791e-06
9.022303505e-06
1.064237996e-05
8.136546848e-06
1.265874251e-05
7.220096194e-06
4.441596872e-06
7.168774139e-06
1.112021401e-05
7.29744143e-06
1.325478457e-05
1.142506921e-05
1.08741591e-05
1.494969449e-05
2.08635289e-06
1.576318614e-06
4.082241871e-06
3.885058994e-06
5.065579479e-06
4.562690299e-06
5.065581741e-06
6.282585554e-06
3.87854636e-06
6.301688565e-06
4.663002546e-06
5.267508544e-06
4.575116839e-06
4.776337049e-06
7.721508747e-06
5.943612417e-06
9.283873384e-06
6.638976266e-06
7.896759772e-06
9.262235574e-06
3.84112862e-06
3.698874169e-06
7.727993467e-06
7.079461333e-06
1.057739291e-05
1.249722574e-05
1.546317638e-05
1.281820661e-05
9.46817357e-06
9.176823068e-06
3.203785551e-06
4.278320845e-06
7.410874225e-06
6.018320456e-06
3.7613973e-06
2.784235452e-06
7.247909594e-06
5.732788463e-06
5.06558415e-06
2.313205114e-06
7.234892227e-06
5.348276887e-06
3.022282876e-06
9.224366091e-06
1.054292051e-05
9.459722405e-06
8.440624153e-06
9.107129606e-06
4.977987481e-06
6.92458763e-06
1.222368449e-06
1.074343959e-05
5.773862007e-06
9.588856013e-06
7.05232109e-06
1.030865239e-05
9.941088517e-06
1.086736675e-05
1.153043633e-05
9.462005145e-06
4.991318902e-06
4.953369409e-06
4.46086813e-06
3.73320751e-06
5.218577637e-06
4.021259464e-06
5.065581779e-06
3.377055291e-06
4.590387745e-06
7.976966903e-06
5.145716067e-06
4.132848177e-06
6.862675366e-06
7.905182553e-06
4.316865088e-06
4.268986162e-06
3.545306151e-06
6.212796326e-06
1.055683785e-05
3.722148297e-06
4.365301213e-06
5.195128429e-06
8.349859829e-06
1.111149198e-05
6.962213906e-06
7.02469385e-06
3.958087539e-06
7.430811985e-06
9.46817357e-06
8.893920168e-06
4.917062651e-06
4.953369409e-06
4.234785271e-06
6.018320456e-06
2.763211436e-06
4.639771424e-06
4.442327728e-06
4.005124704e-06
2.374075523e-06
6.381189278e-06
6.914374403e-06
4.78094663e-06
4.003227266e-06
2.964691424e-06
5.895065813e-06
4.268986162e-06
9.031508433e-06
6.212796275e-06
5.578850366e-06
7.444296656e-06
4.36530125e-06
4.490883962e-06
8.349859758e-06
7.168774139e-06
5.243642741e-06
1.003370738e-05
1.261039329e-05
8.546216916e-06
6.093356672e-06
5.393388467e-06
3.873886206e-06
8.106006601e-06
5.973551588e-06
7.312728389e-06
4.067393645e-06
2.707154367e-06
2.727909789e-06
4.633194091e-06
4.669269395e-06
3.988483451e-06
6.351531447e-06
5.834838851e-06
3.594172489e-06
4.776337087e-06
5.895065766e-06
5.607880565e-06
3.797670955e-06
8.596123713e-06
5.063529681e-06
5.712628413e-06
8.991637163e-06
5.636076607e-06
1.243732725e-06
9.050820195e-06
5.243642741e-06
5.838392616e-06
8.65230556e-06
7.988514379e-06
1.49986844e-05
1.021869206e-05
5.364394696e-06
8.180811229e-06
4.234785271e-06
3.885058994e-06
4.912581286e-06
5.027040039e-06
5.533491594e-06
2.827258088e-06
5.30222906e-06
1.754779001e-06
5.628429508e-06
6.969499191e-06
7.515982324e-06
5.352859968e-06
6.641792429e-06
8.28768571e-06
4.304433677e-06
5.616964479e-06
3.605177311e-06
6.404878667e-06
2.444736919e-06
5.636076655e-06
6.395728369e-06
3.853404979e-06
5.696356832e-06
6.658833021e-06
9.941088517e-06
6.687954539e-06
6.749633856e-06
9.650607078e-06
3.873886233e-06
7.204736598e-06
7.940222384e-06
5.636856611e-06
5.142078558e-06
6.10990177e-06
7.170237497e-06
4.476649688e-06
6.489266862e-06
5.584261125e-06
5.868817962e-06
8.265696355e-06
3.512755086e-06
5.929382849e-06
5.895065813e-06
4.185557347e-06
2.531780616e-06
4.851480686e-06
5.664392566e-06
6.924587688e-06
7.508233966e-06
4.403118561e-06
7.816525839e-06
4.57006657e-06
7.322642888e-06
5.199784136e-06
4.785957302e-06
7.988514522e-06
3.374816928e-06
1.040729389e-05
4.917062651e-06
3.827685787e-06
3.40217182e-06
4.266522868e-06
1.612027414e-06
3.248585216e-06
2.259999913e-06
3.455327492e-06
7.201108218e-06
2.871631226e-06
2.974473693e-06
6.644473932e-06
4.73795168e-06
4.199814173e-06
4.732602095e-06
6.44620182e-06
9.53827126e-06
1.872321493e-06
3.605177341e-06
2.596459747e-06
6.984061341e-06
7.573279141e-06
1.95413146e-06
3.226056293e-06
8.04567867e-06
5.838392668e-06
1.288782792e-06
6.87310952e-06
6.843065076e-06
5.393388516e-06
3.278041791e-06
3.302246296e-06
5.444203477e-06
4.418374348e-06
2.225868965e-06
1.624292596e-06
3.273491723e-06
6.282585649e-06
4.511506095e-06
4.626410263e-06
4.582873147e-06
5.186740283e-06
5.881730899e-06
5.352859968e-06
6.143308008e-06
4.268986162e-06
4.388555313e-06
5.36248662e-06
3.004314426e-06
8.222817562e-06
5.063497047e-06
4.578649324e-06
3.109331786e-06
7.706809957e-06
4.520606965e-06
9.122351208e-06
7.36352291e-06
5.479972118e-06
4.031094021e-06
7.663449177e-06
4.246961997e-06
6.980323014e-06
4.46086813e-06
5.636856611e-06
4.451737929e-06
2.707154347e-06
5.533491677e-06
6.439130052e-06
3.403349984e-06
2.871631226e-06
1.768658322e-06
4.132848145e-06
4.003227297e-06
5.59909103e-06
4.815349509e-06
3.682967781e-06
4.304433677e-06
3.659817033e-06
4.892445281e-06
5.453816477e-06
4.452312817e-06
5.723842056e-06
3.996795292e-06
7.528184224e-06
6.599607048e-06
5.381615851e-06
5.246870331e-06
9.474229343e-06
5.623942161e-06
8.705318314e-06
7.376491332e-06
5.929443981e-06
5.51956448e-06
5.485005098e-06
6.369761706e-06
1.701373734e-06
6.079073543e-06
5.732788419e-06
5.1444658e-06
7.577542118e-06
4.582873076e-06
5.186740283e-06
4.81936912e-06
6.011459869e-06
4.732602133e-06
6.446201924e-06
3.629427723e-06
3.57499105e-06
5.063529681e-06
6.838316985e-06
7.508233966e-06
3.257925944e-06
5.240528017e-06
6.452112587e-06
5.063428295e-06
5.381615946e-06
5.98300089e-06
7.988514379e-06
5.250216987e-06
5.487689433e-06
4.768550253e-06
6.905518554e-06
4.914855322e-06
2.666576793e-06
3.300553908e-06
6.186982895e-06
5.065581779e-06
5.576244018e-06
4.986702462e-06
6.301688565e-06
2.814214776e-06
6.56370563e-06
4.73795168e-06
7.658951491e-06
4.815349509e-06
4.771575627e-06
3.629427723e-06
5.447312573e-06
1.973673055e-06
5.106648847e-06
5.761692881e-06
5.282893786e-06
3.90826292e-06
5.914076819e-06
2.531714148e-06
4.561175604e-06
4.694218139e-06
2.601119823e-06
7.59277348e-06
4.825303539e-06
4.991318866e-06
5.85463947e-06
5.368842514e-06
3.351743639e-06
8.442632466e-06
2.165723478e-06
5.065581779e-06
4.554921855e-06
2.216312222e-06
3.589058694e-06
6.994503873e-06
5.673302201e-06
4.166062103e-06
6.587982802e-06
2.988906614e-06
5.943612369e-06
2.363537434e-06
3.659817003e-06
3.69071948e-06
3.202439334e-06
3.055921149e-06
4.403118561e-06
1.332265086e-06
6.541425453e-06
4.610714249e-06
1.915825595e-06
5.98300089e-06
8.081091941e-06
2.625108494e-06
7.474847246e-06
7.450747548e-06
7.055127525e-06
4.839494359e-06
4.570225894e-06
5.602921951e-06
5.027040039e-06
4.753016118e-06
6.204313447e-06
2.216312222e-06
4.067984115e-06
4.100159627e-06
4.21361648e-06
4.737951717e-06
8.317551392e-06
5.313833973e-06
4.185557313e-06
3.797670893e-06
4.766654734e-06
4.377124596e-06
5.453816477e-06
2.531748502e-06
6.428086431e-06
5.685329634e-06
2.598707608e-06
5.153535496e-06
3.28395854e-06
5.246870378e-06
6.315407055e-06
5.343648316e-06
3.311929749e-06
2.756453584e-06
5.779835001e-06
2.268114563e-06
2.666576793e-06
4.37523885e-06
9.048299472e-06
6.779999738e-06
3.53359972e-06
5.856307156e-06
4.705910891e-06
4.180289065e-06
3.484749595e-06
4.16606207e-06
3.541214305e-06
4.15137026e-06
6.027041218e-06
4.304433712e-06
4.510126739e-06
3.089856626e-06
4.328127942e-06
4.626336065e-06
5.019597627e-06
4.618661655e-06
3.942717845e-06
5.966678517e-06
6.02022443e-06
5.338609541e-06
6.687954539e-06
6.656202515e-06
3.50053162e-06
3.426554199e-06
3.152637228e-06
7.258330831e-06
7.009025417e-06
4.912581322e-06
6.574251559e-06
7.403253789e-06
4.005124674e-06
7.439659673e-06
3.430057339e-06
5.628429552e-07
3.48474965e-06
4.656534277e-06
6.505905678e-06
2.98890659e-06
4.855004475e-06
1.772653061e-06
4.25564888e-06
3.089856651e-06
4.241857295e-06
4.45231278e-06
5.548311206e-06
1.95413146e-06
4.391440797e-06
3.25474993e-06
5.108868255e-06
5.246870331e-06
4.551959691e-06
4.031094021e-06
2.175759764e-06
2.83070976e-06
2.101758167e-06
7.561596097e-06
6.475710011e-06
4.451737962e-06
4.485609207e-06
6.857671835e-06
2.827258109e-06
6.410385163e-06
5.663761832e-06
2.894344246e-06
4.619410063e-06
2.859448069e-06
6.670059771e-06
7.14027685e-06
5.357594017e-06
3.545306151e-06
4.170822926e-06
4.977987481e-06
2.51018908e-06
3.841128587e-06
5.723842008e-06
6.484260686e-06
5.735451084e-06
4.610714249e-06
2.645350009e-06
5.430348656e-06
4.55195965e-06
3.374816898e-06
2.743844716e-06
5.960239139e-06
5.478808951e-06
4.839494359e-06
3.885059022e-06
4.37523885e-06
2.861316599e-06
2.727909769e-06
5.576244018e-06
4.590387745e-06
8.056467566e-06
5.868817962e-06
5.915607107e-06
7.188344922e-06
4.858414108e-06
5.396581388e-06
3.599538961e-06
3.038543344e-06
3.744642956e-06
8.153386307e-06
4.934107555e-06
6.285865507e-06
1.937202469e-06
2.664530195e-06
6.452112587e-06
7.232535643e-06
3.831651191e-06
7.824435916e-06
4.644537181e-06
4.780802469e-06
4.825303583e-06
4.917062651e-06
3.302246273e-06
3.85615904e-06
6.551635815e-06
4.912581322e-06
4.562690299e-06
5.220925974e-06
3.298783115e-06
3.007035228e-06
3.509558003e-06
5.868817917e-06
4.052079843e-06
3.512755086e-06
7.164505631e-06
5.313833931e-06
3.013520609e-06
4.472676914e-06
3.063985186e-06
4.291582396e-06
3.202439334e-06
6.459888715e-06
6.428086486e-06
4.085327665e-06
2.060671789e-06
5.876571272e-06
5.838392668e-06
5.89126178e-06
3.43655476e-06
2.625108494e-06
6.338677302e-06
)
;

boundaryField
{
    flow
    {
        type            zeroGradient;
    }
    obstacle
    {
        type            calculated;
        value           nonuniform List<scalar> 0();
    }
    frontAndBack
    {
        type            empty;
    }
    procBoundary3to1
    {
        type            processor;
        value           nonuniform List<scalar> 
36
(
1.031299302e-05
1.194953287e-05
1.067721899e-05
1.01245093e-05
1.818663874e-05
1.818663874e-05
1.133898618e-05
1.126235085e-05
9.773777665e-06
7.727993401e-06
1.344226111e-05
8.588500037e-06
8.588500037e-06
7.305771736e-06
6.027041267e-06
9.790636061e-06
9.702961373e-06
5.578850366e-06
5.578850366e-06
5.698543856e-06
8.773895007e-06
4.020030157e-06
5.267508585e-06
3.512755059e-06
4.694260066e-06
4.694260066e-06
3.678076765e-06
7.182969868e-06
7.009025417e-06
4.451737962e-06
3.944178338e-06
5.68883583e-06
2.827258131e-06
2.827258131e-06
6.333314932e-06
6.333314932e-06
)
;
    }
    procBoundary3to2
    {
        type            processor;
        value           nonuniform List<scalar> 
19
(
4.437207236e-06
4.363491336e-06
7.470249063e-06
4.807568356e-06
6.287231354e-06
5.472793145e-06
3.698266608e-06
7.988042017e-06
3.254189527e-06
3.771982481e-06
2.144887718e-06
5.325361345e-06
5.546509045e-06
4.289775405e-06
5.251645482e-06
6.360947254e-06
5.769438399e-06
2.071171818e-06
4.955000191e-06
)
;
    }
}


// ************************************************************************* //
