/*--------------------------------*- C++ -*----------------------------------*\
| =========                 |                                                 |
| \\      /  F ield         | OpenFOAM: The Open Source CFD Toolbox           |
|  \\    /   O peration     | Version:  2406                                  |
|   \\  /    A nd           | Website:  www.openfoam.com                      |
|    \\/     M anipulation  |                                                 |
\*---------------------------------------------------------------------------*/
FoamFile
{
    version     2.0;
    format      ascii;
    arch        "LSB;label=32;scalar=64";
    class       volScalarField;
    location    "0.003";
    object      rhoN;
}
// * * * * * * * * * * * * * * * * * * * * * * * * * * * * * * * * * * * * * //

dimensions      [0 -3 0 0 0 0 0];

internalField   nonuniform List<scalar> 
654
(
2.848971801e+20
1.922692371e+20
1.662945553e+20
2.796903036e+20
1.975888113e+20
2.848971775e+20
1.433500149e+20
3.285936719e+20
2.518946567e+20
2.139755226e+20
2.698273915e+20
2.313932265e+20
2.884038506e+20
1.801524333e+20
2.237522429e+20
2.540427574e+20
2.136728851e+20
1.74994531e+20
1.512305412e+20
1.143647136e+20
1.025087048e+20
2.067485196e+20
1.172863768e+20
1.577249625e+20
2.651522679e+20
2.273489927e+20
2.833187611e+20
2.586159591e+20
2.746703363e+20
2.355839534e+20
3.076593339e+20
3.24610193e+20
2.421626031e+20
1.429878853e+20
1.561191282e+20
1.573539432e+20
8.540454926e+19
1.475844165e+20
1.115850737e+20
1.374957029e+20
6.301272602e+19
1.143647146e+20
1.922038215e+20
1.550613897e+20
1.69413654e+20
1.182937219e+20
2.386370432e+20
1.872285822e+20
1.484050653e+20
1.361136639e+20
2.197362709e+20
2.910154692e+20
2.237522409e+20
1.411348652e+20
2.136728851e+20
6.779865104e+19
1.024544824e+20
1.032223275e+20
3.466725622e+19
1.280804207e+20
1.7599418e+20
1.182359539e+20
8.340959977e+19
1.441099656e+20
8.472904767e+19
9.760519991e+19
1.598831179e+20
6.199170809e+19
1.124964851e+20
1.26025451e+20
1.016575224e+20
1.922038183e+20
2.196703003e+20
1.69413654e+20
2.628749353e+20
1.458337461e+20
9.361429032e+19
1.484050653e+20
2.313932265e+20
1.510686836e+20
2.771575897e+20
2.37736758e+20
2.258157844e+20
3.133868952e+20
4.486780409e+19
3.389932503e+19
7.968681846e+19
8.028403187e+19
1.040017687e+20
9.314939619e+19
1.055965064e+20
1.300595474e+20
8.340959913e+19
1.321008008e+20
9.683319584e+19
1.098058482e+20
9.838960944e+19
9.918673137e+19
1.62494923e+20
1.260254531e+20
1.906078576e+20
1.409494691e+20
1.679831736e+20
1.954772964e+20
7.886248193e+19
7.954568105e+19
1.604816419e+20
1.484050666e+20
2.177818641e+20
2.609368218e+20
3.18731231e+20
2.657057884e+20
1.975888113e+20
1.851831671e+20
6.730170614e+19
9.039820073e+19
1.593736392e+20
1.261606224e+20
8.089026452e+19
5.821837262e+19
1.525282882e+20
1.182359539e+20
1.07240914e+20
4.803665484e+19
1.452497938e+20
1.09805849e+20
6.149350687e+19
1.983734643e+20
2.124933591e+20
2.016407216e+20
1.779006656e+20
1.922038215e+20
1.033742598e+20
1.433500149e+20
2.628749353e+19
2.253794277e+20
1.203612314e+20
2.023705437e+20
1.497250289e+20
2.19736269e+20
2.078681941e+20
2.237522429e+20
2.399292731e+20
1.994280261e+20
1.009525599e+20
1.016979758e+20
9.107065033e+19
8.028403246e+19
1.040017687e+20
8.150572227e+19
1.055965072e+20
7.094157183e+19
9.532525688e+19
1.681282919e+20
1.089373462e+20
8.540454992e+19
1.475844165e+20
1.611784398e+20
8.749726551e+19
8.821781643e+19
7.624314304e+19
1.28135881e+20
2.196703021e+20
7.819091724e+19
9.200622814e+19
1.060609081e+20
1.738551121e+20
2.293532828e+20
1.497250302e+20
1.510686849e+20
8.314727692e+19
1.53829667e+20
1.975888113e+20
1.851831671e+20
1.009525592e+20
1.016979758e+20
9.1070651e+19
1.261606224e+20
5.777876037e+19
9.314939619e+19
9.386356194e+19
8.276516776e+19
4.766262844e+19
1.321008018e+20
1.452497949e+20
9.760519839e+19
8.609090894e+19
6.19917076e+19
1.249960946e+20
8.821781643e+19
1.906078545e+20
1.281358799e+20
1.162960423e+20
1.563818358e+20
9.200622892e+19
9.280329377e+19
1.738551106e+20
1.484050653e+20
1.088909301e+20
2.060027522e+20
2.632997126e+20
1.817986973e+20
1.270213787e+20
1.13958871e+20
7.851865717e+19
1.694966251e+20
1.252221433e+20
1.490989163e+20
8.089026512e+19
5.821837349e+19
5.866472665e+19
9.458876315e+19
9.532525688e+19
8.406414597e+19
1.331456453e+20
1.220064999e+20
7.379220824e+19
9.918673216e+19
1.249960936e+20
1.134229068e+20
7.624314304e+19
1.793902334e+20
1.033742598e+20
1.172863759e+20
1.840124547e+20
1.193185206e+20
2.674694032e+19
1.888791741e+20
1.088909301e+20
1.236016502e+20
1.801524317e+20
1.678141806e+20
3.104967035e+20
2.136728851e+20
1.12169511e+20
1.694966276e+20
9.1070651e+19
8.028403187e+19
1.040017679e+20
1.047930707e+20
1.173294515e+20
5.911797608e+19
1.072409132e+20
3.602749113e+19
1.210414948e+20
1.464077976e+20
1.598831166e+20
1.115850737e+20
1.374957029e+20
1.764356314e+20
8.895033282e+19
1.153222929e+20
7.753069486e+19
1.303181954e+20
5.257498751e+19
1.193185216e+20
1.337347016e+20
8.094821746e+19
1.225022975e+20
1.373351693e+20
2.078681941e+20
1.398451518e+20
1.411348665e+20
1.994280261e+20
7.851865773e+19
1.468970762e+20
1.707574706e+20
1.146914749e+20
1.040017687e+20
1.280804198e+20
1.525282882e+20
9.458876315e+19
1.310722282e+20
1.200916371e+20
1.210414957e+20
1.708090998e+20
7.379220824e+19
1.239834152e+20
1.249960946e+20
8.821781714e+19
5.082876161e+19
1.02508704e+20
1.162960423e+20
1.433500161e+20
1.577249625e+20
9.280329377e+19
1.604816419e+20
9.443958786e+19
1.497250302e+20
1.098681345e+20
9.700515727e+19
1.678141836e+20
7.056743326e+19
2.136728831e+20
1.009525592e+20
7.909842506e+19
6.830298775e+19
9.175317996e+19
3.466725622e+19
6.986204766e+19
4.693178097e+19
7.094157183e+19
1.429878853e+20
6.004581855e+19
6.05207474e+19
1.342071488e+20
9.838961021e+19
8.678838995e+19
9.999687487e+19
1.386279961e+20
2.033150464e+20
3.84407643e+19
7.75306955e+19
5.212727859e+19
1.445812157e+20
1.590913621e+20
4.012041048e+19
6.745684789e+19
1.633363966e+20
1.236016513e+20
2.771575897e+19
1.398451518e+20
1.411348652e+20
1.13958872e+20
6.730170662e+19
6.779865104e+19
1.138383129e+20
9.175317928e+19
4.62230083e+19
3.493102357e+19
7.039767146e+19
1.300595493e+20
9.532525688e+19
9.607331042e+19
9.683319734e+19
1.09805849e+20
1.229870128e+20
1.115850737e+20
1.249960936e+20
8.821781643e+19
8.895033354e+19
1.153222929e+20
6.460891238e+19
1.694136554e+20
1.05149975e+20
9.280329298e+19
6.686735023e+19
1.618964349e+20
9.527956387e+19
1.922692354e+20
1.524366757e+20
1.118761214e+20
8.468091915e+19
1.566934476e+20
8.973560819e+19
1.468970751e+20
9.107065033e+19
1.146914749e+20
9.24460166e+19
5.821837305e+19
1.173294533e+20
1.300595493e+20
7.149394266e+19
6.004581855e+19
3.631244844e+19
8.540454926e+19
8.609090961e+19
1.115850737e+20
9.999687487e+19
7.561527061e+19
8.895033282e+19
7.68815286e+19
1.033742598e+20
1.172863759e+20
9.200622814e+19
1.193185216e+20
8.024082096e+19
1.618964349e+20
1.361136627e+20
1.098681335e+20
1.108630359e+20
1.957832125e+20
1.129078932e+20
1.851831687e+20
1.570373143e+20
1.24297526e+20
1.138383137e+20
1.146914749e+20
1.271132738e+20
3.493102383e+19
1.290623967e+20
1.18235953e+20
1.07240914e+20
1.561191282e+20
9.683319584e+19
1.09805849e+20
9.838961099e+19
1.239834152e+20
9.999687567e+19
1.386279984e+20
7.624314242e+19
7.688152797e+19
1.033742598e+20
1.433500149e+20
1.577249625e+20
6.628806754e+19
1.069877613e+20
1.349136958e+20
1.088909311e+20
1.098681355e+20
1.247209154e+20
1.678141806e+20
1.129078922e+20
1.13958871e+20
1.009525599e+20
1.468970762e+20
1.024544816e+20
5.734573747e+19
6.933451245e+19
1.280804198e+20
1.055965072e+20
1.18235953e+20
1.072409132e+20
1.321008008e+20
6.052074787e+19
1.342071488e+20
9.838961021e+19
1.611784398e+20
9.999687487e+19
1.008203608e+20
7.624314242e+19
1.153222929e+20
3.876534743e+19
1.042545572e+20
1.182937219e+20
1.060609072e+20
8.024082096e+19
1.214223272e+20
5.444546554e+19
9.61346177e+19
9.700515727e+19
5.593806071e+19
1.552483518e+20
9.971401303e+19
1.009525592e+20
1.24297526e+20
1.138383129e+20
6.881488446e+19
1.733362811e+20
4.657469844e+19
1.055965072e+20
9.458876244e+19
4.766262844e+19
7.205498281e+19
1.452497949e+20
1.220064989e+20
8.609090961e+19
1.363817578e+20
6.249804729e+19
1.26025452e+20
5.082876202e+19
7.688152797e+19
7.753069422e+19
6.51590977e+19
6.571873439e+19
9.280329377e+19
2.674694009e+19
1.349136958e+20
9.52795647e+19
4.120055044e+19
1.247209154e+20
1.678141821e+20
5.64539461e+19
1.566934476e+20
1.570373143e+20
1.468970751e+20
1.024544816e+20
9.175317996e+19
1.155575207e+20
1.047930707e+20
9.386356194e+19
1.300595493e+20
4.766262844e+19
8.406414597e+19
8.472904702e+19
8.540454992e+19
9.838961099e+19
1.735767813e+20
1.124964851e+20
8.821781643e+19
7.62431418e+19
1.02508704e+20
9.045247734e+19
1.172863759e+20
5.257498707e+19
1.32576134e+20
1.203612314e+20
5.396547831e+19
1.088909301e+20
6.866758407e+19
1.108630369e+20
1.258606366e+20
1.129078932e+20
7.122429567e+19
5.608475592e+19
1.242975269e+20
4.55353255e+19
5.734573747e+19
9.24460166e+19
1.862987924e+20
1.407953429e+20
7.094157237e+19
1.191565711e+20
9.607330968e+19
8.472904636e+19
7.320389879e+19
8.609090894e+19
7.439004912e+19
8.749726551e+19
1.26025452e+20
8.895033354e+19
8.96951167e+19
6.460891238e+19
9.122273754e+19
9.200622892e+19
1.060609081e+20
9.361429112e+19
8.094821746e+19
1.225022964e+20
1.236016513e+20
1.108630369e+20
1.398451518e+20
1.411348652e+20
7.122429437e+19
6.730170614e+19
6.779865006e+19
1.479898068e+20
1.490989174e+20
1.040017687e+20
1.397240953e+20
1.525282882e+20
8.276516713e+19
1.549035424e+20
7.205498226e+19
1.210414957e+19
7.320389993e+19
9.838961021e+19
1.363817556e+20
6.249804679e+19
1.008203608e+20
3.812157121e+19
8.96951167e+19
6.460891292e+19
9.122273754e+19
9.200622737e+19
1.193185206e+20
4.012041048e+19
9.443958704e+19
6.805683193e+19
1.098681345e+20
1.108630359e+20
9.789160625e+19
8.468091915e+19
4.273457701e+19
5.608475512e+19
4.519910036e+19
1.593736381e+20
1.376297689e+20
9.244601728e+19
9.314939689e+19
1.407953429e+20
5.911797652e+19
1.310722272e+20
1.20091638e+20
6.052074787e+19
9.760519915e+19
6.149350687e+19
1.363817567e+20
1.499953123e+20
1.134229068e+20
7.624314304e+19
8.96951167e+19
1.033742598e+20
5.212727816e+19
7.886248126e+19
1.193185206e+20
1.337347005e+20
1.214223272e+20
9.52795647e+19
5.493406725e+19
1.108630359e+20
9.789160537e+19
7.056743262e+19
5.69794355e+19
1.233864621e+20
1.129977509e+20
1.024544816e+20
8.028403246e+19
9.24460166e+19
5.821837305e+19
5.866472621e+19
1.18235953e+20
9.532525688e+19
1.681282919e+20
1.210414957e+20
1.220064989e+20
1.475844153e+20
9.918673216e+19
1.124964851e+20
7.561527122e+19
6.35359515e+19
7.688152797e+19
1.679831722e+20
1.042545572e+20
1.314374688e+20
3.977284019e+19
5.349388064e+19
1.349136958e+20
1.497250302e+20
8.240110088e+19
1.662945538e+20
9.789160625e+19
9.879440656e+19
9.971401394e+19
1.009525592e+20
6.779865055e+19
7.968681962e+19
1.376297699e+20
1.040017687e+20
9.314939619e+19
1.055965072e+20
7.094157237e+19
5.957828555e+19
7.205498226e+19
1.210414948e+20
8.540454926e+19
7.379220824e+19
1.487800982e+20
1.124964842e+20
6.301272602e+19
8.895033354e+19
6.40679405e+19
9.045247734e+19
6.51590977e+19
1.314374688e+20
1.325761351e+20
8.024082096e+19
4.047410873e+19
1.225022964e+20
1.236016513e+20
1.247209165e+20
6.992257589e+19
5.64539461e+19
1.282037299e+20
)
;

boundaryField
{
    flow
    {
        type            zeroGradient;
    }
    obstacle
    {
        type            calculated;
        value           nonuniform List<scalar> 0();
    }
    frontAndBack
    {
        type            empty;
    }
    procBoundary3to1
    {
        type            processor;
        value           nonuniform List<scalar> 
36
(
2.136728851e+20
2.472033005e+20
2.217260718e+20
2.097677277e+20
3.810641362e+20
3.810641362e+20
2.345727517e+20
2.365874418e+20
1.988641993e+20
1.604816405e+20
2.833187636e+20
1.769477646e+20
1.769477646e+20
1.499953135e+20
1.260254531e+20
2.033150464e+20
2.050174079e+20
1.162960423e+20
1.162960423e+20
1.191565711e+20
1.801374556e+20
8.472904702e+19
1.09805849e+20
7.379220766e+19
9.918673216e+19
9.918673216e+19
7.909842506e+19
1.479898068e+20
1.490989174e+20
9.244601728e+19
8.150572227e+19
1.173294524e+20
5.911797697e+19
5.911797697e+19
1.346034132e+20
1.346034132e+20
)
;
    }
    procBoundary3to2
    {
        type            processor;
        value           nonuniform List<scalar> 
19
(
8.908265883e+19
8.908265883e+19
1.55894653e+20
1.002179905e+20
1.336239882e+20
1.113533235e+20
7.794732703e+19
1.670299853e+20
6.681199412e+19
7.794732648e+19
4.454132941e+19
1.113533235e+20
1.113533235e+20
8.908265819e+19
1.113533243e+20
1.336239882e+20
1.224886559e+20
4.454132941e+19
1.002179912e+20
)
;
    }
}


// ************************************************************************* //
