/*--------------------------------*- C++ -*----------------------------------*\
| =========                 |                                                 |
| \\      /  F ield         | OpenFOAM: The Open Source CFD Toolbox           |
|  \\    /   O peration     | Version:  2406                                  |
|   \\  /    A nd           | Website:  www.openfoam.com                      |
|    \\/     M anipulation  |                                                 |
\*---------------------------------------------------------------------------*/
FoamFile
{
    version     2.0;
    format      ascii;
    arch        "LSB;label=32;scalar=64";
    class       volScalarField;
    location    "0.003";
    object      rhoNMean;
}
// * * * * * * * * * * * * * * * * * * * * * * * * * * * * * * * * * * * * * //

dimensions      [0 -3 0 0 0 0 0];

internalField   nonuniform List<scalar> 
654
(
2.350211804e+20
2.329021359e+20
2.388913673e+20
2.373078996e+20
2.369089848e+20
2.394750708e+20
1.919673897e+20
1.992679652e+20
2.068718012e+20
2.162490125e+20
2.235969651e+20
2.298324565e+20
2.32526749e+20
2.330987716e+20
2.383893687e+20
2.381791986e+20
2.376802208e+20
1.389789899e+20
1.474581794e+20
1.535791032e+20
1.592985273e+20
1.696630039e+20
1.811075416e+20
1.870267556e+20
1.921116565e+20
2.002097639e+20
2.113737843e+20
2.190885514e+20
2.2738126e+20
2.308907515e+20
2.321056599e+20
2.352247775e+20
2.331883419e+20
1.098861899e+20
1.133745115e+20
1.14335796e+20
1.188180624e+20
1.214537756e+20
1.256861208e+20
1.29387623e+20
1.356033864e+20
1.423713624e+20
1.496883362e+20
1.574389977e+20
1.640792959e+20
1.749783209e+20
1.818502653e+20
1.873088231e+20
1.939249463e+20
2.038891942e+20
2.145724686e+20
2.218738892e+20
2.265771129e+20
2.285726188e+20
2.331123693e+20
1.012459855e+20
1.009897627e+20
1.009361441e+20
1.023762595e+20
1.042652249e+20
1.046891602e+20
1.06759184e+20
1.07066151e+20
1.092113356e+20
1.11769718e+20
1.143444917e+20
1.172804163e+20
1.213714989e+20
1.255794097e+20
1.293861297e+20
1.339253143e+20
1.378314937e+20
1.438108233e+20
1.519510158e+20
1.602222731e+20
1.705636141e+20
1.77858236e+20
1.851465618e+20
1.935899253e+20
2.017453602e+20
2.091154015e+20
2.152403346e+20
2.229930871e+20
2.262178555e+20
1.015657525e+20
1.017055083e+20
1.032665275e+20
1.032911416e+20
1.031851622e+20
1.028757456e+20
1.047673783e+20
1.060024723e+20
1.072250256e+20
1.097877746e+20
1.115679805e+20
1.133521704e+20
1.161899296e+20
1.186355963e+20
1.207295612e+20
1.246811816e+20
1.261824017e+20
1.308181921e+20
1.351101587e+20
1.397792987e+20
1.475867537e+20
1.56086303e+20
1.652158504e+20
1.702700798e+20
1.786900195e+20
1.87892823e+20
1.952667623e+20
2.052087757e+20
2.100651334e+20
2.188485172e+20
1.01221766e+20
1.008241265e+20
1.004585173e+20
1.016242929e+20
1.031620507e+20
1.041332625e+20
1.048221328e+20
1.057187076e+20
1.073124079e+20
1.0841873e+20
1.092359143e+20
1.104646841e+20
1.113606414e+20
1.132464514e+20
1.134047892e+20
1.157081674e+20
1.195407758e+20
1.224722751e+20
1.27503535e+20
1.326117956e+20
1.371769038e+20
1.439776815e+20
1.517264768e+20
1.607181887e+20
1.703689344e+20
1.76136931e+20
1.866748769e+20
1.946271592e+20
2.031589359e+20
2.076805477e+20
1.008478684e+20
1.02240365e+20
1.031526899e+20
1.037881387e+20
1.050032672e+20
1.043506119e+20
1.041025122e+20
1.041185803e+20
1.035867791e+20
1.035750339e+20
1.039827143e+20
1.061049861e+20
1.066625374e+20
1.090062186e+20
1.123798212e+20
1.140530341e+20
1.174906834e+20
1.214215608e+20
1.213872246e+20
1.248448312e+20
1.313848938e+20
1.359347305e+20
1.396279441e+20
1.4864791e+20
1.564127483e+20
1.612772658e+20
1.703318161e+20
1.793280996e+20
1.872295122e+20
1.96474592e+20
1.023434611e+20
1.030313493e+20
1.031375123e+20
1.026794545e+20
1.022838135e+20
1.023168493e+20
1.031482326e+20
1.033066942e+20
1.038648111e+20
1.04912055e+20
1.039423671e+20
1.043236895e+20
1.058672206e+20
1.059231644e+20
1.06888327e+20
1.096253399e+20
1.110862576e+20
1.123495395e+20
1.172264106e+20
1.203184469e+20
1.231043343e+20
1.281746063e+20
1.347510842e+20
1.368384645e+20
1.426108215e+20
1.523047015e+20
1.588944476e+20
1.666301599e+20
1.773500717e+20
1.862562781e+20
9.968130476e+19
9.915175911e+19
9.953263087e+19
9.894051166e+19
1.007199358e+20
1.012223454e+20
1.022565295e+20
1.022425706e+20
1.025382013e+20
1.026463253e+20
1.036195898e+20
1.032337664e+20
1.030631175e+20
1.047577203e+20
1.058050267e+20
1.056345339e+20
1.088667368e+20
1.120078448e+20
1.128416191e+20
1.149145847e+20
1.189947207e+20
1.225445398e+20
1.278057965e+20
1.335555646e+20
1.386000056e+20
1.444674399e+20
1.523812415e+20
1.577453298e+20
1.632177672e+20
1.689820141e+20
1.005936175e+20
1.005453995e+20
1.012098501e+20
1.000033193e+20
9.968762049e+19
9.928949389e+19
9.860367108e+19
1.002483226e+20
1.009097274e+20
1.023100687e+20
1.029821038e+20
1.024529232e+20
1.030057228e+20
1.026582678e+20
1.036467608e+20
1.039793988e+20
1.044615766e+20
1.073864107e+20
1.109119663e+20
1.132378239e+20
1.141315354e+20
1.1738291e+20
1.219036383e+20
1.265850236e+20
1.307598597e+20
1.340025026e+20
1.402879346e+20
1.469213165e+20
1.567067468e+20
1.633220568e+20
1.00945082e+20
9.996534364e+19
9.834112463e+19
9.975099881e+19
1.004040779e+20
1.01362068e+20
1.01130166e+20
1.006503264e+20
1.001312386e+20
9.86272585e+19
1.006096913e+20
1.026156002e+20
1.03153308e+20
1.034021683e+20
1.041384129e+20
1.069536012e+20
1.073503445e+20
1.066773913e+20
1.080519451e+20
1.079034667e+20
1.122826483e+20
1.141038593e+20
1.156181074e+20
1.181843985e+20
1.224750747e+20
1.277766404e+20
1.318161508e+20
1.381297192e+20
1.436847031e+20
1.535215924e+20
9.893350803e+19
1.001386061e+20
1.000790555e+20
1.002556413e+20
9.907901829e+19
9.901780889e+19
9.911992141e+19
9.904231667e+19
9.940835538e+19
1.003886025e+20
9.994799698e+19
9.967117587e+19
1.016856622e+20
1.02393769e+20
1.028051204e+20
1.029711952e+20
1.041227182e+20
1.058487801e+20
1.071560357e+20
1.096062911e+20
1.100043989e+20
1.10294506e+20
1.127561847e+20
1.143798313e+20
1.174297949e+20
1.217888271e+20
1.257371599e+20
1.30801832e+20
1.37211316e+20
1.420592306e+20
9.91952376e+19
9.906136235e+19
9.913799211e+19
9.959807611e+19
9.976465958e+19
9.929725634e+19
9.943279995e+19
9.866396237e+19
9.944013046e+19
1.004046155e+20
1.003918173e+20
1.001592019e+20
9.892255394e+19
1.000711472e+20
1.019801462e+20
1.034836995e+20
1.040888332e+20
1.051483039e+20
1.040461925e+20
1.059400059e+20
1.057370624e+20
1.079965178e+20
1.098585986e+20
1.122302064e+20
1.150977132e+20
1.169454735e+20
1.204064966e+20
1.242291098e+20
1.278305519e+20
1.343765021e+20
9.906063347e+19
9.899356226e+19
9.893308314e+19
9.910872655e+19
9.805440827e+19
9.931278198e+19
1.005278756e+20
1.013676245e+20
1.001789012e+20
1.002524987e+20
1.016022307e+20
1.023959877e+20
1.026859573e+20
1.042287244e+20
1.026134598e+20
1.024670934e+20
1.01801538e+20
1.011504645e+20
1.014359924e+20
1.015265621e+20
1.016186884e+20
1.038159522e+20
1.051243911e+20
1.072114169e+20
1.101341016e+20
1.136402728e+20
1.16711061e+20
1.205838129e+20
1.224015652e+20
1.261904588e+20
9.996546752e+19
9.881276658e+19
9.838665996e+19
9.859643796e+19
9.953354527e+19
9.980957876e+19
9.973003381e+19
1.008867975e+20
1.021807316e+20
1.01821696e+20
1.004644407e+20
1.010295149e+20
1.014806846e+20
1.011126079e+20
1.013551666e+20
1.018369678e+20
1.021827538e+20
1.027735181e+20
1.034690196e+20
1.045065048e+20
1.05255125e+20
1.061051001e+20
1.072998089e+20
1.090912144e+20
1.094626085e+20
1.100695604e+20
1.110940006e+20
1.142161959e+20
1.186567857e+20
1.217650537e+20
1.020144313e+20
1.032422784e+20
1.038357198e+20
1.024041949e+20
1.020681062e+20
1.015250794e+20
1.002306402e+20
9.976749718e+19
9.909060377e+19
1.003645842e+20
1.009566769e+20
9.959797197e+19
9.911113402e+19
9.923632553e+19
9.964688581e+19
1.004338828e+20
1.009798064e+20
1.016800928e+20
1.032708856e+20
1.037245965e+20
1.058772623e+20
1.056101483e+20
1.054899326e+20
1.050797814e+20
1.055697577e+20
1.062424861e+20
1.074447599e+20
1.101606876e+20
1.106685523e+20
1.150794676e+20
1.016629661e+20
1.015699117e+20
1.027352828e+20
1.027406225e+20
1.022684059e+20
1.030853326e+20
1.02843176e+20
1.029204559e+20
1.00949447e+20
1.007728965e+20
1.000367615e+20
1.001103993e+20
1.008165547e+20
1.014845589e+20
1.006218561e+20
1.005010972e+20
1.006494203e+20
1.01440905e+20
1.01212014e+20
1.010574166e+20
1.014434384e+20
1.018538245e+20
1.029043942e+20
1.043062753e+20
1.063682912e+20
1.060593725e+20
1.077958252e+20
1.081748864e+20
1.096900173e+20
1.11936101e+20
9.949435558e+19
9.790878386e+19
9.81893395e+19
9.825236354e+19
9.82161888e+19
9.876940976e+19
9.892437232e+19
9.991726348e+19
1.004728207e+20
9.936382054e+19
9.977853966e+19
1.006146936e+20
1.006935677e+20
9.968266582e+19
1.01171839e+20
1.006019175e+20
1.001750169e+20
1.004841571e+20
1.004367079e+20
1.016134409e+20
1.023810248e+20
1.020040775e+20
1.019058426e+20
1.023725124e+20
1.03646017e+20
1.04026812e+20
1.042020161e+20
1.071680013e+20
1.098311531e+20
1.110149355e+20
9.852969921e+19
9.791631846e+19
9.82576432e+19
9.822177914e+19
9.920227964e+19
9.920410694e+19
9.875228913e+19
9.877431592e+19
9.992470052e+19
1.003085414e+20
1.010212316e+20
9.91831491e+19
9.88897574e+19
1.001620684e+20
9.955522201e+19
9.977855123e+19
1.010391074e+20
1.009710742e+20
1.018150314e+20
1.017350721e+20
1.011367518e+20
1.01844987e+20
1.021911433e+20
1.026423397e+20
1.041632489e+20
1.056565227e+20
1.055416111e+20
1.047626647e+20
1.057006051e+20
1.070738559e+20
1.000028574e+20
1.000557411e+20
9.890272626e+19
9.996508956e+19
9.89942761e+19
9.968537957e+19
1.008485753e+20
1.018011556e+20
1.002821702e+20
1.018777388e+20
1.018523839e+20
1.028433456e+20
1.038584327e+20
1.025425491e+20
1.016968217e+20
1.023410679e+20
1.014965655e+20
1.003218524e+20
9.984230676e+19
9.920689904e+19
1.005934753e+20
1.010406909e+20
1.016651202e+20
1.011403006e+20
1.023937722e+20
1.038253871e+20
1.048856705e+20
1.077180589e+20
1.087114822e+20
1.09580952e+20
1.016180983e+20
1.015322458e+20
1.026821582e+20
1.023812559e+20
1.022529989e+20
1.01245632e+20
1.004418332e+20
9.953890767e+19
1.001074065e+20
9.891547918e+19
9.810009758e+19
9.870325764e+19
9.93981045e+19
1.002116617e+20
1.006051892e+20
1.009043786e+20
1.010391074e+20
1.012615156e+20
1.015307522e+20
1.016481924e+20
1.010929385e+20
1.020394311e+20
1.022357207e+20
1.022645823e+20
1.01976357e+20
1.036880519e+20
1.044145026e+20
1.026276945e+20
1.025485931e+20
1.043293464e+20
1.006310073e+20
9.994274409e+19
1.005571764e+20
1.00156242e+20
1.003270395e+20
1.010127585e+20
1.011927417e+20
9.987785074e+19
9.958311835e+19
9.990823596e+19
9.94476929e+19
1.002568071e+20
9.948829419e+19
9.912887323e+19
9.894690847e+19
9.921563754e+19
1.005223467e+20
1.015690408e+20
1.021768413e+20
1.022042176e+20
1.013382884e+20
1.00307103e+20
1.00408014e+20
1.02507426e+20
1.036097209e+20
1.019850959e+20
1.025390696e+20
1.040541159e+20
1.061522376e+20
1.061906766e+20
9.695184668e+19
9.747185993e+19
9.717238461e+19
9.783947423e+19
9.706061359e+19
9.672012304e+19
9.75789946e+19
9.871913914e+19
9.903499812e+19
9.955596716e+19
9.977853888e+19
9.885779921e+19
9.903734259e+19
9.845936279e+19
9.863858399e+19
9.956850881e+19
9.766746623e+19
9.719533693e+19
9.665493293e+19
9.772127079e+19
9.907756396e+19
1.006871554e+20
9.993548468e+19
9.985412336e+19
9.796554014e+19
9.874398589e+19
9.921317942e+19
9.953245603e+19
1.006291589e+20
1.024870113e+20
)
;

boundaryField
{
    flow
    {
        type            calculated;
        value           nonuniform List<scalar> 
55
(
2.350211804e+20
2.394750708e+20
2.376802208e+20
2.331883419e+20
2.331123693e+20
2.262178555e+20
2.188485172e+20
2.076805477e+20
1.96474592e+20
1.862562781e+20
1.689820141e+20
1.633220568e+20
1.535215924e+20
1.420592306e+20
1.343765021e+20
1.261904588e+20
1.217650537e+20
1.150794676e+20
1.11936101e+20
1.110149355e+20
1.070738559e+20
1.09580952e+20
1.043293464e+20
1.061906766e+20
1.024870113e+20
9.695184668e+19
9.747185993e+19
9.717238461e+19
9.783947423e+19
9.706061359e+19
9.672012304e+19
9.75789946e+19
9.871913914e+19
9.903499812e+19
9.955596716e+19
9.977853888e+19
9.885779921e+19
9.903734259e+19
9.845936279e+19
9.863858399e+19
9.956850881e+19
9.766746623e+19
9.719533693e+19
9.665493293e+19
9.772127079e+19
9.907756396e+19
1.006871554e+20
9.993548468e+19
9.985412336e+19
9.796554014e+19
9.874398589e+19
9.921317942e+19
9.953245603e+19
1.006291589e+20
1.024870113e+20
)
;
    }
    obstacle
    {
        type            calculated;
        value           nonuniform List<scalar> 0();
    }
    frontAndBack
    {
        type            empty;
    }
    procBoundary3to1
    {
        type            processor;
        value           nonuniform List<scalar> 
36
(
2.269680868e+20
2.380201556e+20
2.377919734e+20
2.385385369e+20
2.383297424e+20
2.383297424e+20
2.01263421e+20
2.070402991e+20
2.180877385e+20
2.236311661e+20
2.295151812e+20
2.30776182e+20
2.30776182e+20
1.488620156e+20
1.566664415e+20
1.634314115e+20
1.730261499e+20
1.80431156e+20
1.80431156e+20
1.128333291e+20
1.13702762e+20
1.203152468e+20
1.226978691e+20
1.261682768e+20
1.326457231e+20
1.326457231e+20
1.029560167e+20
1.031223331e+20
1.042927812e+20
1.051804562e+20
1.050181825e+20
1.063083059e+20
1.075947181e+20
1.075947181e+20
1.003618005e+20
1.003618005e+20
)
;
    }
    procBoundary3to2
    {
        type            processor;
        value           nonuniform List<scalar> 
19
(
1.017992084e+20
9.960925968e+19
1.013537951e+20
1.023485507e+20
9.935685881e+19
1.021184212e+20
9.995074392e+19
9.931231749e+19
9.903764595e+19
9.9720613e+19
9.907476373e+19
1.014503013e+20
1.011830533e+20
1.002699554e+20
9.74490059e+19
1.000992143e+20
9.983938988e+19
1.013537951e+20
9.723372211e+19
)
;
    }
}


// ************************************************************************* //
