/*--------------------------------*- C++ -*----------------------------------*\
| =========                 |                                                 |
| \\      /  F ield         | OpenFOAM: The Open Source CFD Toolbox           |
|  \\    /   O peration     | Version:  2406                                  |
|   \\  /    A nd           | Website:  www.openfoam.com                      |
|    \\/     M anipulation  |                                                 |
\*---------------------------------------------------------------------------*/
FoamFile
{
    version     2.0;
    format      ascii;
    arch        "LSB;label=32;scalar=64";
    class       volScalarField;
    location    "0.003";
    object      translationalT;
}
// * * * * * * * * * * * * * * * * * * * * * * * * * * * * * * * * * * * * * //

dimensions      [1 2 -2 0 0 0 0];

internalField   nonuniform List<scalar> 
654
(
748.0726325
768.9975516
768.6496081
754.2918628
742.2697463
738.0700597
755.1760561
753.6647424
746.9142969
738.4089805
752.867894
759.1675084
751.4678545
753.3960491
751.2892922
742.0067084
738.0736337
647.2390829
680.2520039
682.1038604
698.1945128
712.9442587
735.1647801
743.0094607
734.0951819
741.7390683
747.7952721
744.273274
759.2696155
751.94092
741.1187654
744.441564
734.9292287
463.097308
470.0929208
488.5541054
535.6823175
548.0587222
573.7262061
610.0337094
637.1480982
654.2566025
681.443858
691.1167301
717.0918445
735.9920211
728.2924755
725.186189
724.9922483
737.0069747
753.2330278
744.4680432
736.4090379
730.4438661
732.4043424
336.6703129
337.3397084
347.3369471
364.5669502
383.0344325
388.9278911
409.0415124
418.5793785
441.9974575
470.7327674
484.5762341
510.2897461
533.8273808
555.1228841
582.5991799
617.721305
620.5230665
649.7196901
664.4652915
693.6106313
711.8568814
713.6248229
709.7130405
730.930256
735.1806931
741.8904196
739.1911227
736.0838372
721.7329863
327.5408008
332.1962289
340.5030016
341.8631725
353.2985757
364.5103643
379.5066188
390.1884009
394.5690311
410.3599123
438.0805425
447.8276533
469.8565742
483.4717249
516.2544554
529.0657962
559.2221026
584.7413436
595.3332304
626.2786284
656.5698476
684.1588704
690.936572
696.9852247
718.4841366
724.8702092
730.123773
732.6017113
722.5138929
722.6196248
318.936678
326.643043
329.2773487
335.7501107
345.5684275
355.0916846
351.1555278
367.5171301
380.0594933
386.4076832
388.0745446
423.2592282
437.5414005
468.8581307
480.2083413
496.1819159
521.6672158
551.5936462
562.3187972
581.2397948
605.42881
639.0719573
653.1286761
667.5891088
686.8021208
694.505312
720.0667438
723.7894115
716.7304145
715.1722351
316.6468542
318.1063201
317.7445317
321.903721
327.8709575
339.6962178
344.6301041
344.0980946
369.7341999
375.6088778
377.4253303
387.2252294
390.2409404
405.7846095
444.4576967
458.7776175
482.0089446
506.0620041
517.9410385
542.16744
575.5610494
601.1652516
618.7887478
652.0242587
656.8358972
669.5872066
685.4204461
696.9770651
712.0170856
701.9705644
310.7841946
311.5896772
318.8276453
314.1436344
323.0781875
327.2319999
335.5405744
332.1883818
348.9460413
362.6900045
365.3703199
357.5308726
377.0487993
388.523016
410.0450858
432.0868427
457.659231
472.5647376
501.7011358
528.8181972
536.7041863
576.7055614
599.2853681
611.3076076
636.7570994
656.2361047
666.9420041
683.0508741
688.7756689
696.1246852
311.9823257
313.685503
313.8562343
311.3112232
319.7313546
324.5459615
326.9115734
328.1607247
338.6649616
342.3305703
357.1616144
350.811683
355.9671928
373.3222327
384.4270518
384.6299631
412.4680886
442.9649085
459.543273
473.5248576
495.4441712
515.9223242
559.3286226
574.7207449
595.6146985
608.116283
630.96786
641.8109186
669.6133911
674.6642079
308.9899987
308.8300136
310.5068206
313.0809749
314.2858196
315.6415692
318.4522743
325.6598232
327.4437297
331.2089929
337.6843263
349.1259394
346.4639913
359.2091894
373.7933945
395.6530415
402.3239358
418.6950755
435.0171256
450.3956342
460.1657421
470.2698265
502.2780521
532.2580764
559.6989231
564.974312
602.794119
614.8253871
639.3711408
648.5153416
305.4797851
304.3783783
302.6966587
312.4045968
314.6166909
317.2250363
315.9934731
322.4745927
324.3746563
325.1047714
331.6842056
343.7646223
344.4052711
346.7041147
356.6536166
370.1375493
368.9026975
388.1526166
406.5027849
421.0525164
436.4270966
453.9851457
468.4772523
492.8899119
521.3763473
551.8016667
567.2957706
588.6536691
605.9363786
629.1445256
305.8419785
308.9565596
310.0089682
312.8865817
310.6046922
311.0646418
311.3182524
314.0537612
315.578748
323.6762933
325.8178256
329.8926434
335.572704
335.3564824
344.4188558
361.799521
367.9060188
374.3059632
382.2063177
402.8206058
416.5668159
423.630722
455.3598408
456.2526559
489.3695702
509.1518267
535.6026297
552.2095796
579.9052257
599.4129217
302.1490001
303.1996903
305.6273461
312.1604062
308.7530091
308.2926249
310.0506137
311.3243049
313.3098488
318.0413373
321.1392393
330.0988977
323.5004149
327.8119305
331.1167497
345.2976671
349.7438224
357.1360688
362.7822877
378.9068169
390.5017571
402.167093
419.5452748
438.6698175
453.1742266
467.136066
487.4100496
512.5081418
531.1481824
564.3728084
302.3773858
301.4559633
301.0097205
300.1273401
302.3520711
301.2515015
307.7223358
308.2630963
312.0243103
314.7248156
311.9577212
309.3791638
326.7026052
326.4046014
327.6928319
333.1965759
335.4860511
347.4593027
350.8681624
357.4142076
367.7345359
384.8919788
390.1041141
418.5785657
427.9124214
441.8051711
461.8303563
487.3237081
500.4422996
523.3148272
299.4257563
301.1475927
302.0113463
303.2907255
307.1842903
301.1169177
301.5284724
303.1212665
303.3278816
308.9187105
313.0519316
309.593807
316.0166132
317.4819747
323.4788915
328.2212721
335.3413077
335.0170612
339.419553
340.897299
360.8756661
362.9228995
378.8052116
386.673388
390.1314537
408.3420722
418.4611898
437.3870062
470.6142512
489.2371999
302.4295527
300.8095197
300.2238409
299.0226422
301.3898322
302.4990214
303.5365588
304.060303
306.7625461
306.1793226
314.3413633
312.9618365
313.8768393
312.6409668
314.1107602
316.7252217
322.0901869
325.0917291
329.4950018
337.2075848
342.4538154
352.0860395
359.4100488
369.2725538
378.8074009
389.8244598
403.8887854
421.4986796
439.6225392
457.1489363
300.9306633
301.5200368
303.7197899
303.0888269
301.6611434
303.4131407
305.5271364
305.1130194
302.1373819
306.6594661
305.3445617
304.5612944
306.546255
315.2555642
315.4465366
315.742984
324.7858596
327.9197538
335.6573851
327.1311616
329.4441709
344.1460062
345.9912975
354.9678296
371.4278835
372.759034
385.9876353
397.4918254
411.821244
430.9928434
294.604282
292.8479766
294.7758993
301.8440033
304.7033765
306.0016472
305.3375024
309.8141636
309.0718793
305.3311074
309.3510382
309.8471287
307.451547
308.1265879
311.5020861
311.2892174
310.4798434
313.9090633
318.0667573
325.2942925
323.7142398
325.6917779
334.6498468
346.6781105
351.7535695
374.3281605
368.4170091
380.5345597
398.7915476
405.1265544
305.5113915
305.3373179
304.6665563
305.3049895
303.5422629
302.100938
301.9006908
298.2184087
301.6924632
303.7988562
309.4274665
305.2160588
302.1278571
303.3857919
304.9760937
306.2306606
316.0859154
313.4868738
320.5542999
321.8897257
322.4966849
321.1031334
324.8526952
332.8226806
341.0860723
363.6340628
367.242028
370.6909348
381.886422
394.6186436
300.8121863
301.0130635
300.1490508
301.4531465
301.1455393
299.6971095
300.6444414
302.44722
300.7712702
301.3407637
299.3697749
302.9806065
301.8394933
302.2992016
307.5882985
310.3165321
309.4973095
310.8615871
310.4883151
312.5291424
323.0891266
321.1508072
323.0843355
316.4402646
331.6448054
343.1596022
343.3436305
359.7020503
363.9391882
375.032069
305.8902043
307.6263987
304.8116831
306.432411
309.8353575
303.5432682
304.2287131
305.9252156
305.4918501
304.7411453
302.3815771
307.1517036
309.7768969
309.5516331
308.6559086
309.343444
311.5025993
310.8190542
307.1446806
313.487486
315.2578588
319.4214908
321.2523398
322.3731415
318.5433974
333.0456221
337.8937403
347.7642522
350.4075534
369.5539944
302.2430937
300.7446673
302.6193863
299.2139971
303.3741547
307.5252711
305.5852048
301.2969815
301.9176301
304.368738
304.5641758
304.6112207
305.0077098
304.4929394
307.5903156
304.6445794
305.9872375
309.7719831
311.1729919
311.548139
319.3496923
315.0739659
318.1950257
320.253319
325.6163271
326.3777096
326.9336992
336.2776048
345.1680088
352.3867467
301.8035552
305.5186111
307.8794728
302.3576704
299.5221772
300.4067555
301.5065657
304.4091176
302.9551681
302.4149081
303.3025571
305.7377291
305.265661
301.3525278
298.5895471
301.2466359
300.4676155
305.0532027
302.5287571
303.2625107
304.7147483
315.2483418
318.8067969
314.4453191
318.1272223
314.071849
315.5200013
325.590339
335.691166
339.1630925
)
;

boundaryField
{
    flow
    {
        type            calculated;
        value           nonuniform List<scalar> 
55
(
748.0726325
738.0700597
738.0736337
734.9292287
732.4043424
721.7329863
722.6196248
715.1722351
701.9705644
696.1246852
674.6642079
648.5153416
629.1445256
599.4129217
564.3728084
523.3148272
489.2371999
457.1489363
430.9928434
405.1265544
394.6186436
375.032069
369.5539944
352.3867467
339.1630925
301.8035552
305.5186111
307.8794728
302.3576704
299.5221772
300.4067555
301.5065657
304.4091176
302.9551681
302.4149081
303.3025571
305.7377291
305.265661
301.3525278
298.5895471
301.2466359
300.4676155
305.0532027
302.5287571
303.2625107
304.7147483
315.2483418
318.8067969
314.4453191
318.1272223
314.071849
315.5200013
325.590339
335.691166
339.1630925
)
;
    }
    obstacle
    {
        type            calculated;
        value           nonuniform List<scalar> 0();
    }
    frontAndBack
    {
        type            empty;
    }
    procBoundary3to1
    {
        type            processor;
        value           nonuniform List<scalar> 
36
(
759.3118504
765.4354698
754.0907993
762.3732121
758.2301789
758.2301789
766.6529868
744.0693753
762.7173993
756.790747
776.2959113
764.1523445
764.1523445
691.6394765
710.6212548
724.7012764
742.79799
736.9587542
736.9587542
504.567989
520.6255712
565.4915154
577.6311904
595.9833086
610.9867723
610.9867723
352.8419133
349.9635736
363.4132841
390.943793
403.5260093
408.676713
425.3573839
425.3573839
339.6506713
339.6506713
)
;
    }
    procBoundary3to2
    {
        type            processor;
        value           nonuniform List<scalar> 
19
(
319.8233232
315.9300261
311.4236953
304.7983111
305.5168964
306.9577915
302.8173166
304.9642245
306.5622663
302.3968422
301.338958
300.2343456
302.6081011
295.4278191
300.5474942
298.6181189
302.7992118
304.0608217
300.846791
)
;
    }
}


// ************************************************************************* //
