/*--------------------------------*- C++ -*----------------------------------*\
| =========                 |                                                 |
| \\      /  F ield         | OpenFOAM: The Open Source CFD Toolbox           |
|  \\    /   O peration     | Version:  2406                                  |
|   \\  /    A nd           | Website:  www.openfoam.com                      |
|    \\/     M anipulation  |                                                 |
\*---------------------------------------------------------------------------*/
FoamFile
{
    version     2.0;
    format      ascii;
    arch        "LSB;label=32;scalar=64";
    class       volVectorField;
    location    "0.003";
    object      UMean;
}
// * * * * * * * * * * * * * * * * * * * * * * * * * * * * * * * * * * * * * //

dimensions      [0 1 -1 0 0 0 0];

internalField   nonuniform List<vector> 
654
(
(1319.643157 403.245894 -2.032320291)
(1366.563804 428.5574915 3.480715355)
(1355.873179 426.9248211 6.056494375)
(1354.61492 420.480431 5.789957324)
(1357.84917 420.9205934 9.548792683)
(1351.016133 409.2503376 3.619593441)
(1444.679826 370.5032926 3.200139932)
(1444.310736 374.7852285 -3.42047218)
(1429.859115 390.2311134 -5.672106435)
(1424.538622 402.6920423 -5.338193526)
(1403.600933 414.8866671 0.5973268801)
(1382.75668 419.2420676 -6.032406878)
(1379.874231 418.9160753 -10.23610925)
(1380.971855 419.1564153 -5.273314419)
(1377.270941 425.7701423 -2.78597823)
(1374.574032 418.1379554 2.955349854)
(1369.774723 418.599332 6.304726034)
(1565.826919 226.9280285 3.641245534)
(1545.769685 245.0451185 -0.2351090363)
(1532.866979 271.6290721 5.454279342)
(1518.585489 288.8665033 2.194533939)
(1496.345866 310.7233315 -4.899838903)
(1470.959003 345.9593878 -3.158933626)
(1458.050479 358.3309437 -0.5861788421)
(1456.583672 366.3110892 -2.998601529)
(1445.197596 384.2219283 -4.808048056)
(1433.302289 399.763958 -1.458806786)
(1421.124506 412.8027236 0.1518883379)
(1402.340332 417.6026467 -1.233208207)
(1396.792814 418.2297009 -5.908173007)
(1395.791896 418.1238907 -6.76588314)
(1391.510892 424.0813914 -7.816881824)
(1397.334879 420.5687394 -3.307639025)
(1666.873838 84.98594774 -1.935068982)
(1663.276549 91.57509825 -0.6890545622)
(1655.332874 105.6004112 -3.258529929)
(1635.483142 128.6536445 1.57587714)
(1632.472671 142.441915 0.610196016)
(1615.777072 159.1170067 -4.522876312)
(1595.85678 181.7952963 -0.5872280035)
(1577.228766 209.548363 -3.756451466)
(1571.335965 224.9215493 1.240510902)
(1547.106083 258.02928 1.152942474)
(1536.463342 277.6941589 -1.904720345)
(1511.741487 304.6738739 -3.539458787)
(1485.058752 339.0239459 -8.160260364)
(1475.174426 347.2843318 -3.41287416)
(1465.293847 358.2422365 -10.62769364)
(1456.772469 372.381832 -6.61753413)
(1443.77433 394.3338091 -5.259938988)
(1422.786565 406.9017827 -2.707607006)
(1419.04933 412.7948764 0.8495352532)
(1407.932775 417.4183364 2.657487674)
(1404.31381 421.4279105 2.227383)
(1404.058138 417.8256948 3.015582659)
(1723.084492 14.91133135 7.544270857)
(1719.503879 19.86442639 2.686939376)
(1718.968659 24.38141243 2.944698536)
(1712.935066 28.05886013 0.09711307528)
(1708.136495 38.94651311 -3.292212056)
(1706.885412 44.29580344 -4.750641261)
(1694.444393 52.11690817 1.669586613)
(1688.235865 57.24182444 -1.170592299)
(1680.215352 72.18293807 -2.626797409)
(1669.800137 88.33849136 -4.163088873)
(1665.525914 99.43366625 -3.34952583)
(1646.874029 116.9465201 -0.4578962852)
(1636.804185 134.1210222 1.985805634)
(1626.328035 146.2787358 -0.3004019268)
(1611.039733 170.2622037 -1.944744685)
(1588.706307 195.29012 -9.218584356)
(1579.719217 211.5203149 -3.2938164)
(1562.624027 246.3805983 -0.02124624788)
(1547.269869 267.6720206 4.881545676)
(1518.234979 296.5452373 6.53133475)
(1503.233465 326.9738623 -4.450774781)
(1492.794618 334.6432372 1.410922587)
(1488.502872 346.3031191 -2.595983263)
(1465.748301 365.0058558 -4.510806825)
(1456.670177 384.4141718 2.115144561)
(1443.097728 404.9088007 4.99825753)
(1435.339205 413.5003127 3.007664941)
(1428.159352 414.4629538 3.601009588)
(1424.465744 419.0189952 -2.134647626)
(1725.215598 18.26575128 -9.744898193)
(1725.688513 20.85126876 -7.820823754)
(1720.119734 21.55534459 -2.658673173)
(1721.538764 21.44359983 -4.131099368)
(1715.686446 26.8060392 1.086769992)
(1711.238008 30.59726449 2.45431739)
(1702.8662 34.02535285 3.34458263)
(1701.600883 42.11539396 0.191054508)
(1698.802502 45.19968011 2.535573842)
(1690.848681 49.18061935 1.532867044)
(1677.694511 62.55521292 -0.799553185)
(1673.248983 73.8615906 0.1980710173)
(1662.921696 88.21419152 -2.49412939)
(1656.748241 103.4711586 0.7982624938)
(1635.911647 126.1233844 7.496614285)
(1632.99788 142.9331168 4.502515158)
(1619.615998 164.8665592 1.96670791)
(1603.140905 187.8647119 3.23618083)
(1594.71125 208.147732 -4.518343481)
(1575.175578 231.7594822 -8.163738653)
(1551.636759 254.2351362 -2.422631955)
(1528.728712 284.1827173 -7.251758567)
(1513.42185 311.1143937 -8.143182054)
(1504.053924 322.8056581 -1.416455682)
(1489.782164 342.2173334 -2.293294527)
(1476.887957 364.6938321 -8.161788651)
(1465.481328 374.9742411 -5.739273227)
(1454.164238 391.7499058 -4.804358128)
(1448.480964 404.6861996 -7.029911737)
(1440.236725 411.2972336 1.420178864)
(1730.724905 8.948972119 -1.276335649)
(1729.743647 10.68594454 -0.3333540745)
(1728.540583 16.15470308 0.007454154877)
(1723.701166 19.17840818 -1.109969924)
(1723.694884 19.80237611 -2.10674607)
(1716.735886 21.48573853 -0.5185118864)
(1717.429868 22.52274257 0.1742489528)
(1710.154988 20.76984005 0.3416822769)
(1710.323566 30.76977695 -0.06595771854)
(1702.011473 37.2384483 1.619114253)
(1696.411991 46.46926537 -1.978647239)
(1689.025045 61.11672211 -6.62957282)
(1683.941364 71.08053484 -5.921767818)
(1671.036432 88.61835099 -5.147237033)
(1663.934567 105.1938773 -1.870868966)
(1649.003929 118.085058 -0.3216533622)
(1634.615743 137.3513307 1.556645971)
(1624.512791 164.6126991 -3.865222995)
(1612.032162 175.0763153 -0.397691419)
(1603.900002 192.7482265 3.040302302)
(1588.617531 216.7755756 -0.6385983202)
(1567.64849 246.8773326 3.785160826)
(1550.868594 275.3706248 1.123285971)
(1533.750336 296.6102305 0.2194746363)
(1514.853441 304.700356 3.571353356)
(1499.455133 324.1741658 1.03190588)
(1482.271006 353.1295154 1.87117979)
(1467.557989 369.4331967 -1.840602954)
(1460.495738 384.0548417 -12.02297988)
(1457.64458 394.2967399 -10.47970622)
(1737.219242 10.03900091 0.2825110759)
(1733.188817 7.169205948 0.1278908932)
(1730.357755 3.335811829 -3.231049102)
(1727.917584 4.331349516 -2.061120282)
(1723.326599 11.05969881 -1.751069134)
(1724.718543 14.92102908 -3.248305441)
(1721.842281 19.75014022 -4.925866036)
(1720.307877 26.84367092 -4.144476975)
(1709.756134 30.61616886 -5.999373666)
(1705.094861 31.77422057 -4.873655666)
(1705.178235 31.62107951 -4.619098856)
(1695.573445 38.73004957 -1.714984062)
(1691.273688 53.21280477 -0.9563872374)
(1686.568937 70.23212703 -1.090248865)
(1674.301292 86.25095465 -4.889469327)
(1668.42229 100.9033253 -2.557188388)
(1663.459681 113.5885459 1.609181038)
(1648.392728 124.7975216 4.763656981)
(1645.671169 146.3042501 -4.86332067)
(1626.943322 169.528801 -3.907561043)
(1609.570858 189.2608177 -3.202883047)
(1594.928974 210.4281937 1.436642947)
(1586.081142 224.7807208 4.47421995)
(1557.947364 255.1212718 -3.559695909)
(1536.256432 282.4491427 -3.329940645)
(1532.018068 303.2270382 -0.975251806)
(1514.450667 325.0038526 -3.343433781)
(1500.407123 348.8149482 6.500340115)
(1486.786172 360.3347174 8.408422828)
(1482.311903 376.6455649 -0.5317132385)
(1731.929677 3.623037588 -2.434305031)
(1728.554365 1.744582183 -0.1175819836)
(1733.153081 6.069398093 -2.076399845)
(1727.783341 10.71193497 -1.967693002)
(1726.525856 13.25394776 1.714243019)
(1723.408791 14.63668013 2.175930684)
(1720.102742 13.88564896 -0.6081579181)
(1723.649191 13.84292642 -0.8760414727)
(1715.805549 24.88071551 -1.200993762)
(1715.824369 26.92608255 -1.58009806)
(1710.495594 31.78209219 -2.910218513)
(1718.229491 37.82332392 -5.6758747)
(1709.752842 44.9825774 -6.955723215)
(1700.975614 51.37528994 -4.959017712)
(1692.857085 60.0118565 -5.525479992)
(1687.04026 68.4585595 -6.9910323)
(1668.980956 91.51878386 -7.191813426)
(1668.055703 111.385819 -6.239824354)
(1652.40771 121.4415445 -5.373758569)
(1641.696212 136.7300874 -4.644371996)
(1635.883172 151.5663467 -8.012326034)
(1604.817376 179.0093962 -5.130661251)
(1589.526299 201.7016225 -5.161537641)
(1578.151562 223.287184 -1.935488378)
(1563.900308 245.9688169 4.187237248)
(1544.612111 272.3714102 -1.602062756)
(1534.876696 289.7854633 -2.283426726)
(1519.417954 308.6869427 0.1567052628)
(1507.409578 327.4847582 8.390745896)
(1490.985251 351.5763313 3.486247831)
(1725.373854 -8.183862247 -0.9052777109)
(1725.516093 -4.48456162 -0.2903533237)
(1725.984631 1.596014256 1.28753264)
(1724.761196 2.329190729 2.146779372)
(1720.579404 3.957949784 3.631533801)
(1722.330075 5.857227203 4.040811039)
(1723.725244 12.74203969 2.752982886)
(1726.264151 16.81122296 3.20542469)
(1724.912759 17.73995999 2.991968135)
(1722.711395 23.88072592 3.015986332)
(1715.151896 32.87808426 1.898830683)
(1719.183065 31.69833669 1.591440777)
(1716.463829 33.85872474 -1.540582713)
(1708.490987 37.88166524 -2.224905397)
(1702.373803 50.9973167 -3.752743446)
(1697.841107 63.80200945 -6.073110963)
(1692.154713 74.98841232 -1.402342711)
(1676.843696 80.84054701 1.055985668)
(1669.80242 94.25825428 0.2218109054)
(1659.858684 110.5778824 1.741616612)
(1650.628106 125.4275816 4.398626308)
(1638.595748 143.4546787 1.556751109)
(1620.03686 174.1986835 -1.579265883)
(1607.153487 186.7924315 -4.679196406)
(1595.918165 208.9209281 -8.622830446)
(1581.747259 225.5423851 -3.484891007)
(1564.27039 256.6036092 -2.799714722)
(1549.712474 285.0379915 -7.937090962)
(1536.038503 311.8983669 -6.640974084)
(1525.206043 322.0325088 -1.854410739)
(1735.84719 1.155545549 2.197244961)
(1734.646163 4.257657732 0.08962211429)
(1733.547742 -0.668528461 1.942463402)
(1738.519647 -2.45098018 0.6702018634)
(1736.61555 -0.3339002895 -4.565934488)
(1738.209079 0.9666067484 -3.142565602)
(1734.669002 5.38148517 -0.1363344832)
(1727.613938 8.251041459 0.4803479725)
(1724.465293 14.17711873 -2.533471736)
(1720.369395 18.72031075 -0.912038277)
(1717.397782 21.64018322 1.560232989)
(1708.95974 32.19132193 4.86099772)
(1710.276153 35.96174876 10.67491801)
(1713.525616 37.96603346 4.069052303)
(1708.976865 39.21864932 1.057579912)
(1705.246638 40.69242264 -3.143139358)
(1698.20637 46.10901689 -0.7250381909)
(1692.343176 62.91989799 -2.879722272)
(1679.615864 75.43548731 -2.199126998)
(1670.152636 92.24380481 -4.982590983)
(1671.159291 98.99595496 -8.590336369)
(1670.532471 112.008599 -5.413223756)
(1644.58179 130.1414773 -3.42437764)
(1629.128257 149.5904279 -6.979904506)
(1609.796186 174.0340404 -8.862763851)
(1602.005567 199.1417679 -11.94392319)
(1592.878023 230.8999326 -8.373297968)
(1570.999729 253.0490487 -0.8770629314)
(1551.352911 279.2644979 -5.512943137)
(1540.071983 295.8381391 -8.159912016)
(1738.444463 -1.478250543 -6.568808664)
(1738.294318 0.2422318757 -4.468668678)
(1737.00752 4.074329545 -3.776211333)
(1734.192638 3.884466864 -0.3976463706)
(1730.488059 3.870659172 0.7831660494)
(1731.281529 6.144714406 1.614922417)
(1732.417043 1.989314624 -0.6343785468)
(1725.990514 3.601482477 1.824703104)
(1725.919072 8.509679828 0.8377138706)
(1732.04775 17.10312626 3.193686058)
(1729.302019 19.34209516 2.792622903)
(1720.519563 20.60993731 -2.037269221)
(1716.713394 21.77753056 -4.497456453)
(1714.124616 26.74184107 -4.628890734)
(1711.945455 32.9865404 -3.857905818)
(1705.654817 40.890098 -2.98028058)
(1703.633208 42.17197637 -7.748664816)
(1694.95736 46.65093191 -1.048323405)
(1692.946438 53.96169902 -2.203040234)
(1687.493358 69.20612634 3.221192472)
(1676.513111 77.98337585 1.980091517)
(1670.16775 90.46021334 1.12700019)
(1669.164338 101.1388789 -1.528037617)
(1661.547469 130.017157 1.240725663)
(1648.358208 152.0142176 0.1299269318)
(1629.468122 173.1226785 -3.167944206)
(1610.181476 191.8601459 -8.247176181)
(1599.755636 217.2600652 -6.721487008)
(1588.890971 231.6732916 -9.24639416)
(1563.661593 263.2667918 -9.138248288)
(1734.481103 0.2769749417 -2.110066244)
(1734.562991 0.4636793643 -4.795451894)
(1738.96567 -1.414996819 -6.168701301)
(1732.761526 1.069009364 -8.627145494)
(1730.241603 2.439983199 -9.899359423)
(1729.776182 1.260631969 -5.567612433)
(1732.694561 4.333677873 -5.932604179)
(1733.285031 9.114669383 -8.204494022)
(1732.711798 10.2648509 -5.635048063)
(1725.673936 8.945512085 -2.423061029)
(1726.093124 9.51256015 -2.119272966)
(1731.23785 10.13332831 -2.315174924)
(1729.892657 15.87564369 -0.2883954095)
(1724.691559 16.81770314 2.821866976)
(1719.133067 26.78655452 6.128890225)
(1716.125048 28.69168424 5.358235278)
(1711.503861 30.68907245 6.300111827)
(1708.313327 30.66152657 2.899420374)
(1702.655179 41.23686871 3.20992925)
(1693.944299 53.37887221 4.661925946)
(1688.892044 63.32367142 2.016904877)
(1688.030466 75.05196829 -2.340082737)
(1668.158803 96.77899019 -2.452344206)
(1664.31737 102.928603 -0.9931241715)
(1649.397962 115.3247326 4.674898668)
(1642.522274 137.4561086 3.831742017)
(1635.119533 161.8437994 3.996308603)
(1624.995272 177.2464705 1.140884734)
(1605.018492 206.9856996 3.192265786)
(1586.573736 233.9991004 6.027715591)
(1732.520376 -0.2482932728 -2.57852624)
(1733.343577 -0.3879607159 -1.290448451)
(1730.611592 3.694183457 0.802471044)
(1725.919382 1.954776948 -1.327891321)
(1732.995946 2.678425113 3.152779462)
(1731.944392 5.142277015 1.592777562)
(1731.028439 4.90651132 0.3748813539)
(1730.562873 4.821503987 1.945969496)
(1732.696186 3.657652983 -0.2501597453)
(1732.4179 6.899821181 -2.061801741)
(1729.939806 11.47038306 -0.5932031547)
(1727.190696 14.21258216 0.4152043963)
(1730.536061 8.159995174 0.09876476129)
(1733.847229 7.745348194 -1.052762887)
(1725.347089 5.532461273 2.996996995)
(1717.554191 15.24389827 1.952213968)
(1712.912383 21.31475559 0.9760188275)
(1712.586532 28.29439258 5.482179009)
(1709.990022 31.77546646 5.284857579)
(1703.973873 40.39177453 7.710581378)
(1698.621766 52.21024173 11.87237809)
(1692.869242 62.50757564 9.366353834)
(1686.984516 73.52253609 12.67247981)
(1678.67598 84.07199465 12.30745378)
(1667.791554 103.5549501 8.930918292)
(1659.641613 109.8126446 9.629333499)
(1645.942834 124.8546742 6.735845878)
(1634.068027 145.248707 7.177937313)
(1626.054334 168.5337613 8.378004149)
(1613.339441 194.0145844 5.34428794)
(1730.519761 4.558646646 -1.607271646)
(1734.36148 1.280548984 -0.3863613363)
(1735.749507 0.2746570211 0.2614378954)
(1737.098858 -0.4725993128 2.434469575)
(1737.512349 3.29220792 1.316452194)
(1736.084093 4.689213266 1.128116724)
(1732.512643 2.95096759 3.437166474)
(1729.131485 6.392654866 4.218125418)
(1730.111535 5.422035776 0.3023274942)
(1727.40179 6.728408059 -0.8337707251)
(1728.237008 0.3987802329 0.8326638496)
(1730.134782 0.8592524073 2.537919648)
(1723.141897 9.257734183 4.194483902)
(1722.740306 8.598840278 5.935244732)
(1722.493367 11.06306928 3.274796548)
(1719.654453 12.730993 4.229946214)
(1725.95769 14.9454309 5.847299491)
(1718.004032 25.4908343 2.040894499)
(1717.182753 29.52726197 4.027514475)
(1716.153617 38.45015591 4.952578872)
(1708.447626 40.01380692 6.334955524)
(1700.533371 48.26958557 5.704823641)
(1696.977239 51.11442901 4.131054011)
(1685.177286 62.16206743 2.925212716)
(1678.950914 67.32884497 3.626026431)
(1668.335721 83.56789165 0.2721886699)
(1664.193008 103.3112424 4.188714976)
(1647.531584 125.1049124 2.329450249)
(1641.504577 141.8606872 0.09629955778)
(1634.449862 164.4587232 4.556061889)
(1735.703963 -1.257967521 7.852792371)
(1734.566248 -1.216004361 5.015975136)
(1736.970987 3.745712887 5.241844391)
(1736.019166 0.3312962939 1.02374725)
(1735.36875 -2.862015773 0.2249573509)
(1735.723229 -1.610676114 -1.04393257)
(1735.973259 -1.013811709 -1.607220577)
(1735.070374 -1.596133538 0.3824680259)
(1734.570173 -2.425834179 1.14549694)
(1732.413284 4.332282132 1.573355102)
(1733.368703 1.729711443 -0.9509228328)
(1730.153157 0.7942478114 -4.31583267)
(1728.030133 3.533215071 -3.805166641)
(1725.111686 8.275079731 -5.921367315)
(1724.828643 13.8334047 -7.253536469)
(1722.70111 20.85186484 -7.315546326)
(1722.467827 21.59356882 -1.57746347)
(1722.394603 25.11243719 -0.3693093943)
(1717.920193 22.35131244 -1.550946933)
(1723.587767 24.00207637 -4.354207235)
(1717.004468 35.54739269 -6.777510417)
(1716.136927 37.24646617 -0.9200224751)
(1708.780488 45.74983037 5.130705984)
(1701.619427 48.32860741 2.146595262)
(1695.467322 54.56066222 5.822860078)
(1697.495159 67.60198547 4.312968062)
(1688.532761 75.15590743 -0.8226288845)
(1684.422781 95.04029081 2.520318221)
(1661.601286 118.9563315 5.829572613)
(1649.806491 136.2971433 4.266326025)
(1735.22439 7.116127479 -3.332201093)
(1729.767503 5.084157277 0.6867187131)
(1732.638021 1.92807068 -0.3577102371)
(1732.209773 2.797998835 -4.09116409)
(1732.163915 3.760400502 -2.071862992)
(1733.507573 0.8377325173 -2.065522502)
(1735.682896 -1.172245511 0.7744105891)
(1736.108467 -5.433824195 -1.504494655)
(1733.860386 -4.315908657 -2.100701309)
(1734.662031 -5.029256748 -1.733806739)
(1730.66395 3.264908337 -1.11903625)
(1734.674887 9.676669067 3.954494479)
(1734.752191 12.73561525 2.001029974)
(1735.57229 10.76570433 -2.890770449)
(1737.199547 8.244031981 -3.131703048)
(1732.461053 3.345719667 -5.482570813)
(1730.294422 10.30259075 -7.432011774)
(1723.738288 12.00457058 -6.895443639)
(1725.962442 19.81384583 -6.116643667)
(1721.799994 20.31584561 -6.068483406)
(1718.908667 21.53163483 -5.19624103)
(1716.431997 25.40230314 -8.903718008)
(1716.541947 32.12947824 -10.87172808)
(1715.131088 44.4249181 -9.185904108)
(1711.774896 51.68348054 -5.726716042)
(1707.899797 58.07306839 -3.7504268)
(1698.644205 70.93097677 0.4497448904)
(1686.867642 84.15050275 -1.805007021)
(1679.888206 98.44393093 -0.271471467)
(1662.993088 110.0578579 -0.802638067)
(1735.771731 -3.184052572 -0.1800011029)
(1734.570041 1.053845395 -0.4476153049)
(1735.839339 2.048650941 1.235946042)
(1737.642975 4.877942352 2.811200567)
(1737.731429 5.272944095 -1.979752352)
(1734.157587 8.002821512 -1.357749513)
(1730.459492 7.791118176 0.3964106013)
(1730.628799 7.54475526 0.2491016258)
(1729.365527 7.74660359 2.169586203)
(1727.555391 6.649482585 4.146008966)
(1730.333575 7.688035431 3.423010528)
(1729.400212 -2.751856258 1.017041081)
(1730.254083 -0.350444048 1.981177997)
(1728.842999 2.798804447 0.8675533783)
(1727.179625 3.570673946 2.390085626)
(1732.43647 8.236077981 0.3227323571)
(1732.763777 8.592798777 0.3028228051)
(1730.719497 8.674409413 -5.766026504)
(1726.759513 10.08073375 -5.837220163)
(1723.986485 10.42870346 -8.149026027)
(1721.446873 21.16357822 -8.289076635)
(1718.972046 27.23235754 -6.346749455)
(1715.920055 32.01835599 -9.381179468)
(1716.149468 35.05935327 -4.29223623)
(1712.345181 46.51017161 -3.597111874)
(1706.058753 49.42517976 -3.146056172)
(1706.498739 59.90783196 1.214916063)
(1702.271663 65.97182756 0.2274499473)
(1693.256424 74.60533769 -2.931129306)
(1683.431273 99.4111871 -4.004307029)
(1734.515898 -2.365499438 2.195713752)
(1737.061488 -1.065948692 2.042826471)
(1732.205687 1.009174238 -0.7341149935)
(1727.486965 0.1270738965 -1.11403091)
(1728.718041 0.8592304162 0.5221819466)
(1728.439301 1.641587025 1.122496076)
(1727.373807 5.846602478 2.649805522)
(1725.459934 8.035053859 0.1278666943)
(1728.599502 8.379959255 -0.821455509)
(1727.519281 4.92824551 0.6230788971)
(1730.38539 7.440947008 -3.340102945)
(1727.161763 6.746597709 -3.439940463)
(1730.809226 0.2317093415 -0.9532655876)
(1732.492752 1.886269034 0.7577979254)
(1733.786975 2.550241291 -1.433032654)
(1728.672375 5.988370595 -1.325936084)
(1730.04682 4.930472962 -0.2022861078)
(1727.641367 10.85198008 0.001555631732)
(1731.227872 14.37049944 6.391811761)
(1725.954133 13.04001991 7.489058151)
(1728.310606 9.693916283 7.796358677)
(1724.697819 13.03433724 10.01368873)
(1722.766707 19.54663075 12.03811409)
(1717.731417 29.9445481 7.640053516)
(1710.958875 34.38805144 4.498475511)
(1704.408721 44.47395699 5.404093719)
(1704.128299 43.99412675 0.005576114939)
(1704.510965 53.12283455 2.907508566)
(1699.958052 62.72090213 1.315623326)
(1692.545776 65.57018285 -1.515703999)
(1740.965721 4.367138094 -2.816791443)
(1734.72692 0.4590517269 -2.32511372)
(1732.458004 -2.046851733 0.4549827158)
(1729.97881 -1.369833415 1.10509477)
(1730.015092 1.402638683 0.01759976509)
(1729.758294 1.122819994 -2.500360799)
(1730.989967 1.251681636 -3.216972356)
(1732.968243 0.9819418507 -3.368534365)
(1734.254436 1.378550211 -1.800671112)
(1731.661271 1.905342471 -2.373189348)
(1731.53042 2.360029858 2.11119602)
(1735.789888 -0.4183426097 3.804072612)
(1731.441536 2.207951877 2.364947899)
(1727.635464 2.890184778 3.902250736)
(1728.041979 3.538424611 4.032999565)
(1730.185906 4.327704274 4.366416039)
(1732.546796 6.871679564 6.260101034)
(1726.801972 3.693368741 7.934260749)
(1727.393878 8.556687394 5.745001287)
(1725.849216 9.240258648 7.878744557)
(1725.751574 13.28953522 5.250489654)
(1724.254248 16.73636036 2.495422146)
(1718.651055 20.15165052 -1.433192569)
(1719.32603 25.25460643 -2.791856317)
(1716.270935 26.12145672 3.07419077)
(1708.422317 31.02352828 5.622991181)
(1708.897593 41.4929865 3.054984636)
(1712.729986 40.41568869 -0.3908310473)
(1704.351761 47.01410134 1.856959423)
(1698.836202 52.26456495 -1.971381691)
(1730.73322 6.639373716 -4.159000058)
(1731.962894 4.916006549 -2.404280683)
(1737.667484 2.218501822 -3.309040911)
(1737.261128 -0.4344481525 -0.7135013423)
(1738.88351 0.2842975767 0.06969646192)
(1740.40611 -3.423110517 4.644755457)
(1737.458906 -5.11380254 3.918490957)
(1732.585775 -4.820245323 3.072260561)
(1733.746996 -1.222405609 3.16453586)
(1732.634899 -1.596826229 2.178583345)
(1732.381375 0.585627954 -0.1698910109)
(1726.418968 9.657359158 -0.2417690608)
(1725.613912 8.076638869 1.237362312)
(1727.602717 7.728173076 -1.108527849)
(1725.157757 5.033273437 2.306398171)
(1723.969257 3.322643177 3.836232987)
(1725.221934 5.086206943 2.030927183)
(1731.853731 5.327428805 5.694222185)
(1731.208133 2.264840007 2.136248342)
(1730.675228 12.84884453 -1.927346573)
(1727.250923 16.14527874 -0.6427431302)
(1728.255847 13.85267059 0.3679148244)
(1729.89674 15.43763705 3.611444912)
(1732.426795 10.78946269 1.930264367)
(1726.505589 17.92168017 -1.169889926)
(1718.260754 21.68653763 1.196236666)
(1713.667979 24.94865906 -2.966678609)
(1709.367433 32.83039368 -1.20660895)
(1706.793817 36.82805197 0.9850998855)
(1704.292683 46.77511967 -1.456870641)
(1734.135439 -1.435171411 0.5192013504)
(1735.901658 0.6821656227 -1.417060181)
(1729.912005 1.633421857 -3.347223256)
(1730.434654 2.501797437 -1.51023038)
(1728.599525 2.153809061 -3.427508147)
(1729.135358 0.5072866202 -3.026450731)
(1732.64732 -1.267471506 -3.204830078)
(1735.717087 1.278880112 -3.066232204)
(1734.070313 -1.92022272 -4.805885937)
(1735.787586 -2.298689763 -3.644774317)
(1734.011626 -3.795783129 -2.631356531)
(1735.214738 -2.770164184 1.822242274)
(1736.220216 -0.7745365282 0.963494905)
(1737.791103 5.912458679 3.586102302)
(1741.138221 5.818840461 4.890903361)
(1740.363794 8.863928406 0.9252799219)
(1740.054909 11.00546712 -1.471324942)
(1738.815991 11.51369042 -3.606423269)
(1735.628346 10.16399917 -4.479776786)
(1735.482489 4.993151655 -4.082754684)
(1737.606825 4.763185116 1.560516562)
(1734.486156 7.715652065 1.887334605)
(1734.048608 5.223543919 -1.945789735)
(1730.422462 7.310989534 -1.175496533)
(1734.631134 8.544585555 -1.819093516)
(1722.515 20.84144918 0.4172273085)
(1721.911769 23.10212298 4.19793759)
(1720.31499 27.98983403 1.469074125)
(1717.395231 34.43209696 1.684656768)
(1709.954305 39.62279258 7.1993059)
(1737.420195 1.029994602 2.523986409)
(1736.690024 -2.970127481 8.111485544)
(1738.76814 -5.331544121 4.18130118)
(1738.44807 -2.039179887 4.257907198)
(1739.240158 -0.6663678331 1.210710196)
(1738.955323 5.53344781 0.2271445818)
(1739.527541 3.92082166 0.05618829671)
(1743.031402 2.385281014 -2.244235599)
(1746.004454 1.827006095 0.5789001934)
(1744.191752 5.28107959 -0.5320865491)
(1744.623392 5.605892782 -2.331283756)
(1745.308246 4.42290087 -3.60455702)
(1743.62412 -0.3546883052 -6.684078391)
(1746.47811 -0.7732264061 -7.398720685)
(1742.163877 -0.3703709447 -7.627440496)
(1740.64446 -1.211627997 -3.615093945)
(1736.87084 -0.3271112992 -1.19797693)
(1733.780936 3.370803574 -0.9560371325)
(1735.486162 4.535544286 2.234504185)
(1736.516019 9.38700553 2.529747347)
(1734.50033 11.52734916 0.005215008338)
(1731.132339 14.15314165 0.3638107079)
(1732.584004 12.69626038 2.419987132)
(1731.090946 11.60035323 2.421587293)
(1730.237326 10.36341112 1.166764238)
(1730.621841 5.716059717 3.620650717)
(1727.739727 11.43058635 1.567026384)
(1722.206254 21.53688649 4.068624221)
(1718.991349 26.73125594 -0.8183170043)
(1717.898426 29.47296835 -3.972634897)
(1736.489173 1.745133507 1.40543878)
(1741.11328 2.048853632 0.6176363084)
(1741.505736 6.800813112 2.569415614)
(1740.80697 5.483386301 -1.520474102)
(1742.969054 0.9183394505 -0.5681770536)
(1741.641669 2.971198289 -3.072709409)
(1744.659651 6.714478422 -0.6324030362)
(1736.980524 10.48738477 -1.603386537)
(1740.120454 12.82170891 -2.847007164)
(1739.301153 12.09574414 -4.487297121)
(1737.368227 7.450697281 -2.869723893)
(1734.918182 7.78449094 -3.276377039)
(1734.418042 4.268954636 -1.699673131)
(1733.389487 8.065312319 0.4893112536)
(1735.177553 9.15610895 -1.982650275)
(1735.546413 10.83404462 -2.282998683)
(1733.302536 7.937478531 -6.154928107)
(1735.221829 9.780365928 -7.5654368)
(1732.035034 10.62840997 -6.53251271)
(1733.855543 10.5152644 -5.76325539)
(1730.836922 13.22562994 -3.242860117)
(1731.301857 11.07742396 -1.042497873)
(1733.60674 18.89973542 -0.5278311093)
(1736.888125 12.50529426 1.414105852)
(1736.20862 18.37192827 3.002379063)
(1734.381004 18.11324966 2.723966812)
(1732.03777 15.69000041 -0.336319073)
(1729.152105 19.17827606 0.819989581)
(1722.712564 27.07059173 4.614242265)
(1717.332225 33.37730458 7.359260417)
)
;

boundaryField
{
    flow
    {
        type            calculated;
        value           nonuniform List<vector> 
55
(
(1319.643157 403.245894 -2.032320291)
(1351.016133 409.2503376 3.619593441)
(1369.774723 418.599332 6.304726034)
(1397.334879 420.5687394 -3.307639025)
(1404.058138 417.8256948 3.015582659)
(1424.465744 419.0189952 -2.134647626)
(1440.236725 411.2972336 1.420178864)
(1457.64458 394.2967399 -10.47970622)
(1482.311903 376.6455649 -0.5317132385)
(1490.985251 351.5763313 3.486247831)
(1525.206043 322.0325088 -1.854410739)
(1540.071983 295.8381391 -8.159912016)
(1563.661593 263.2667918 -9.138248288)
(1586.573736 233.9991004 6.027715591)
(1613.339441 194.0145844 5.34428794)
(1634.449862 164.4587232 4.556061889)
(1649.806491 136.2971433 4.266326025)
(1662.993088 110.0578579 -0.802638067)
(1683.431273 99.4111871 -4.004307029)
(1692.545776 65.57018285 -1.515703999)
(1698.836202 52.26456495 -1.971381691)
(1704.292683 46.77511967 -1.456870641)
(1709.954305 39.62279258 7.1993059)
(1717.898426 29.47296835 -3.972634897)
(1717.332225 33.37730458 7.359260417)
(1736.489173 1.745133507 1.40543878)
(1741.11328 2.048853632 0.6176363084)
(1741.505736 6.800813112 2.569415614)
(1740.80697 5.483386301 -1.520474102)
(1742.969054 0.9183394505 -0.5681770536)
(1741.641669 2.971198289 -3.072709409)
(1744.659651 6.714478422 -0.6324030362)
(1736.980524 10.48738477 -1.603386537)
(1740.120454 12.82170891 -2.847007164)
(1739.301153 12.09574414 -4.487297121)
(1737.368227 7.450697281 -2.869723893)
(1734.918182 7.78449094 -3.276377039)
(1734.418042 4.268954636 -1.699673131)
(1733.389487 8.065312319 0.4893112536)
(1735.177553 9.15610895 -1.982650275)
(1735.546413 10.83404462 -2.282998683)
(1733.302536 7.937478531 -6.154928107)
(1735.221829 9.780365928 -7.5654368)
(1732.035034 10.62840997 -6.53251271)
(1733.855543 10.5152644 -5.76325539)
(1730.836922 13.22562994 -3.242860117)
(1731.301857 11.07742396 -1.042497873)
(1733.60674 18.89973542 -0.5278311093)
(1736.888125 12.50529426 1.414105852)
(1736.20862 18.37192827 3.002379063)
(1734.381004 18.11324966 2.723966812)
(1732.03777 15.69000041 -0.336319073)
(1729.152105 19.17827606 0.819989581)
(1722.712564 27.07059173 4.614242265)
(1717.332225 33.37730458 7.359260417)
)
;
    }
    obstacle
    {
        type            calculated;
        value           nonuniform List<vector> 0();
    }
    frontAndBack
    {
        type            empty;
    }
    procBoundary3to1
    {
        type            processor;
        value           nonuniform List<vector> 
36
(
(1312.916196 387.8778812 2.03018952)
(1346.003759 424.625255 7.046352747)
(1338.986059 420.5305635 5.557571553)
(1334.804357 417.9624458 -0.8348602414)
(1320.665759 405.5481324 -1.433703729)
(1320.665759 405.5481324 -1.433703729)
(1423.605459 396.2999273 -6.671427672)
(1414.495786 403.8209343 -10.23504863)
(1393.412184 409.5584056 -0.09592682164)
(1385.516466 416.3695754 1.46604009)
(1368.460101 421.4374039 -2.779234464)
(1372.211716 424.0049433 -4.867691573)
(1372.211716 424.0049433 -4.867691573)
(1528.315711 268.6778418 -1.700546372)
(1512.151475 285.8420155 3.973938608)
(1503.422467 304.4259141 -3.551880351)
(1478.189394 335.0386053 -11.03279157)
(1464.472211 359.6974444 4.119369915)
(1464.472211 359.6974444 4.119369915)
(1646.495912 103.0031896 -2.400958533)
(1636.613017 115.053128 -2.13883817)
(1622.413732 145.7393988 0.6700476511)
(1610.222327 162.5016071 -0.5145412203)
(1593.511288 180.048203 6.270201394)
(1580.84278 198.6311099 6.307711708)
(1580.84278 198.6311099 6.307711708)
(1715.500233 23.44214633 -0.4619587305)
(1714.977641 30.49157585 -0.2793842193)
(1703.549983 32.63841935 -0.6970129326)
(1697.981415 47.30371884 0.4663060836)
(1696.003175 56.37271951 3.631608957)
(1692.018761 59.94790517 0.8617892803)
(1684.153315 67.35924849 2.060073299)
(1684.153315 67.35924849 2.060073299)
(1719.649355 14.6665626 7.011405337)