/*--------------------------------*- C++ -*----------------------------------*\
| =========                 |                                                 |
| \\      /  F ield         | OpenFOAM: The Open Source CFD Toolbox           |
|  \\    /   O peration     | Version:  2406                                  |
|   \\  /    A nd           | Website:  www.openfoam.com                      |
|    \\/     M anipulation  |                                                 |
\*---------------------------------------------------------------------------*/
FoamFile
{
    version     2.0;
    format      ascii;
    arch        "LSB;label=32;scalar=64";
    class       Cloud<dsmcParcel>;
    location    "0.003/lagrangian/dsmc";
    object      coordinates;
}
// * * * * * * * * * * * * * * * * * * * * * * * * * * * * * * * * * * * * * //

5160
(
(0.3163362947 0.3418318526 0.146005924 0.1958259287) 435 841 2
(0.1889231784 0.2743757634 0.1311626474 0.4055384108) 411 797 1
(0.3339875744 0.1325847386 0.3330062128 0.2004214742) 384 747 2
(0.3913304491 0.3043347755 0.2190049476 0.0853298279) 405 767 1
(0.04995595889 0.01742091343 0.4750220206 0.4576011071) 435 843 2
(0.3632472127 0.3183763937 0.3027449997 0.01563139395) 509 981 2
(0.2988602001 0.3505699 0.01191740341 0.3386524966) 454 879 2
(0.3158728504 0.3420635748 0.06598056627 0.2760830085) 385 748 1
(0.9135590034 0.03355390058 0.04322049828 0.009666597698) 464 899 2
(0.5411852946 0.2294073527 0.0254769233 0.2039304294) 505 974 2
(0.2594511578 0.09795035031 0.2723240708 0.3702744211) 522 990 2
(0.5500368177 0.1874196857 0.2249815911 0.03756190543) 374 725 1
(0.4717903488 0.2613280885 0.002776737096 0.2641048256) 433 839 1
(0.06394816476 0.4680259176 0.093364941 0.3746609766) 381 740 2
(0.06300342716 0.389430577 0.07906770939 0.4684982864) 495 2227 1
(0.6574697244 0.1586318703 0.1712651378 0.01263326748) 455 881 2
(0.2973600227 0.3513199886 0.2215566216 0.129763367) 374 725 2
(0.7161557038 0.1272040297 0.1419221481 0.01471811838) 411 795 1
(0.2930972762 0.3534513619 0.0002616137343 0.3531897482) 494 953 2
(0.06220289594 0.468898552 0.3728657906 0.09603276147) 525 1014 1
(0.3901459166 0.08988923466 0.3049270417 0.2150378071) 492 952 2
(0.3301879276 0.3349060362 0.2493382236 0.08556781259) 481 912 1
(0.4297891345 0.2851054327 0.01243003626 0.2726753965) 444 858 2
(0.07438010272 0.4628099486 0.3208278249 0.1419821238) 425 824 1
(0.09233945416 0.4538302729 0.207578119 0.2462521539) 475 917 2
(0.3140429955 0.1566978812 0.186280621 0.3429785022) 442 856 1
(0.13753599 0.3916565347 0.03957547025 0.431232005) 545 1033 2
(0.2233564687 0.3883217656 4.897010913e-05 0.3882727955) 529 1022 1
(0.1090597852 0.07608503331 0.4454701074 0.3693850741) 374 728 2
(0.03006776834 0.4197025283 0.4849661158 0.0652635875) 473 913 1
(0.3779292761 0.3110353619 0.2777514635 0.03328389843) 445 862 1
(0.5636803382 0.1749686401 0.2181598309 0.04319119082) 473 913 1
(0.241608853 0.02818133811 0.3510142354 0.3791955735) 471 893 2
(0.05145811869 0.4742709407 0.3707589642 0.1035119764) 502 968 2
(0.1609741242 0.4195129379 0.2115244591 0.2079884788) 434 841 2
(0.5016212024 0.2491893988 0.01260324694 0.2365861519) 415 786 1
(0.6148266451 0.1925866774 0.1564982568 0.03608842061) 399 775 1
(0.3757433632 0.3121283184 0.1424024044 0.169725914) 453 859 1
(0.3573610254 0.3213194873 0.1427034303 0.178616057) 405 786 1
(0.2211316984 0.1184061349 0.3894341508 0.2710280159) 425 822 1
(0.1669415936 0.4165292032 0.01574277832 0.4007864249) 394 765 2
(0.06632332055 0.1467413866 0.3200969531 0.4668383397) 460 890 1
(0.2293731774 0.1279581612 0.2573552501 0.3853134113) 494 955 1
(0.1173301718 0.4413349141 0.3707349699 0.07059994427) 485 936 2
(0.4855940993 0.09938069334 0.2572029503 0.157822257) 462 895 2
(0.1267228033 0.4366385984 0.3007615081 0.1358770903) 494 955 2
(0.6178845638 0.1910577181 0.1265236533 0.06453406474) 493 935 1
(0.4317682746 0.2095416785 0.2841158627 0.07457418419) 503 970 1
(0.3200103398 0.3399948301 0.02895198857 0.3110428415) 365 710 1
(0.3682858613 0.3158570694 0.233144249 0.08271282034) 464 899 1
(0.3027968542 0.1113837033 0.2372178696 0.3486015729) 415 2219 1
(0.1142619346 0.4428690327 0.3630667641 0.0798022686) 432 838 1
(0.04279498801 0.3930446673 0.08555783867 0.478602506) 414 785 2
(0.1508005068 0.4245997466 0.1452728238 0.2793269228) 470 907 2
(0.01008852378 0.4949557381 0.1244558357 0.3704999024) 435 824 1
(0.3205927764 0.05433274209 0.2853708697 0.3397036118) 461 892 1
(0.6168284813 0.06595631503 0.1915857593 0.1256294443) 441 852 1
(0.3108533856 0.3445733072 0.3008317882 0.04374151894) 482 932 2
(0.01181225323 0.4940938734 0.07735859512 0.4167352783) 545 1042 2
(0.448981387 0.08359793589 0.1919113706 0.2755093065) 471 911 1
(0.8194056237 0.05067553643 0.03962165171 0.09029718814) 415 786 2
(0.1730616852 0.1947768842 0.2186922732 0.4134691574) 365 2208 1
(0.2166396885 0.218397974 0.3916801558 0.1732821818) 455 881 2
(0.4414090171 0.2792954915 0.2632240445 0.01607144696) 362 2205 2
(0.3239124748 0.2059558534 0.1320879092 0.3380437626) 435 2221 1
(0.6958474966 0.1108590632 0.04121718846 0.1520762517) 430 815 2
(0.5803716501 0.209814175 0.2094982558 0.0003159192056) 475 900 1
(0.5706098854 0.08173167533 0.2146950573 0.132963382) 523 1011 2
(0.5375443006 0.2312278497 0.1868131087 0.04441474103) 465 2224 2
(0.09378224015 0.4463551174 0.4531088799 0.006753762565) 524 1013 2
(0.2828234539 0.358588273 0.1820169348 0.1765713383) 542 1087 1
(0.7120995047 0.1439502476 0.0469749021 0.09697534553) 464 898 2
(0.4757050988 0.2621474506 0.1013303065 0.1608171441) 395 767 1
(0.1171290216 0.400510107 0.04092538222 0.4414354892) 432 819 2
(0.3584356668 0.1732458661 0.3207821666 0.1475363006) 395 765 1
(0.1172908479 0.441354576 0.4357670432 0.005587532829) 453 859 1
(0.7224672397 0.1387663801 0.01799648429 0.1207698958) 385 729 1
(0.4743386958 0.2628306521 0.04673489237 0.2160957597) 441 854 2
(0.2961433464 0.2469449938 0.104983333 0.3519283268) 435 824 2
(0.7135562324 0.08046605746 0.1432218838 0.06275582632) 532 1028 2
(0.7996792983 0.1001603508 0.08692858505 0.01323176578) 443 856 2
(0.1501140345 0.4249429828 0.3685601489 0.05638283391) 505 2228 2
(0.1471351958 0.4264324021 0.20451141 0.2219209921) 543 1030 1
(0.09852846869 0.4507357657 0.2513663432 0.1993694225) 534 1031 2
(0.2429619381 0.378519031 0.0964313489 0.2820876821) 455 879 2
(0.7267233826 0.09970548449 0.1366383087 0.03693282421) 373 726 2
(0.2181507659 0.390924617 0.3384566778 0.05246793919) 455 879 2
(0.579980469 0.2100097655 0.07787883759 0.1321309279) 424 823 1
(0.5136589384 0.2431705308 0.08951181664 0.1536587142) 414 801 2
(0.1169614849 0.4382563646 0.003262892929 0.4415192576) 457 884 1
(0.1130954251 0.4434522874 0.01077122885 0.4326810586) 513 992 1
(0.3461597502 0.3269201249 0.1197386959 0.2071814291) 464 898 2
(0.8534901973 0.04098103582 0.03227386554 0.07325490136) 451 873 1
(0.2916353489 0.05670482094 0.2974775046 0.3541823256) 522 990 2
(0.6882457601 0.1250449852 0.15587712 0.03083213482) 412 800 2
(0.5794197225 0.08350837256 0.1267817662 0.2102901388) 472 913 1
(0.4532456672 0.1954250748 0.07795209156 0.2733771664) 511 987 1
(0.4381023086 0.2809488457 0.07665078737 0.2042980583) 394 765 2
(0.07915089617 0.4604245519 0.2226975151 0.2377270368) 384 746 2
(0.06366165959 0.4681691702 0.2391250799 0.2290440903) 394 766 1
(0.3947390454 0.1955544177 0.3026304773 0.1070760596) 365 708 1
(0.9509818879 0.02450905607 0.01011985454 0.01438920153) 434 842 1
(0.1495179594 0.4252410203 0.2003723289 0.2248686914) 364 709 1
(0.8362565003 0.07657268043 0.08187174985 0.005299069421) 404 782 1
(0.2365511682 0.003627340112 0.3817244159 0.3780970758) 505 974 1
(0.3948235313 0.3025882344 0.06669726361 0.2358909708) 403 780 2
(0.2490599608 0.1654379994 0.3754700196 0.2100320202) 383 742 1
(0.03215419405 0.483922903 0.4730460094 0.01087689361) 439 848 2
(0.5162206272 0.02268321146 0.2418896864 0.2192064749) 464 896 1
(0.198603844 0.2768104 0.123887678 0.400698078) 475 2225 1
(0.4999875352 0.2500062324 0.1302369106 0.1197693218) 484 934 2
(0.6446760894 0.04794469052 0.1776619553 0.1297172648) 483 932 1
(0.8587005057 0.07064974713 0.06121084129 0.009438905838) 509 981 2
(0.2801556491 0.3599221754 0.295336102 0.06458607341) 475 2225 2
(0.3331943696 0.3334028152 0.02815781969 0.3052449955) 502 970 2
(0.7417267636 0.1291366182 0.07628352908 0.05285308912) 495 938 1
(0.6567243755 0.1716378123 0.1710076981 0.0006301141348) 414 803 2
(0.2703982662 0.003419943556 0.3648008669 0.3613809234) 385 748 2
(0.1813415468 0.09027811011 0.3190511165 0.4093292266) 445 2222 1
(0.2725455073 0.07876869365 0.2849585527 0.3637272463) 425 805 2
(0.1948984283 0.4025507858 0.304521599 0.0980291868) 412 800 1
(0.0627290728 0.4523118252 0.01632363836 0.4686354636) 414 785 2
(0.3680517759 0.04364283277 0.3159741121 0.2723312793) 365 710 2
(0.002910180154 0.4985449099 0.07553760206 0.4230073079) 383 726 1
(0.07768782683 0.1929878517 0.2681682349 0.4611560866) 429 831 1
(0.8020614826 0.0989692587 0.05254816096 0.04642109774) 443 858 2
(0.1395444065 0.3746648423 0.4302277968 0.05556295443) 390 755 1
(0.07140168008 0.46429916 0.2086151714 0.2556839886) 465 898 2
(0.2114256121 0.3574830277 0.03680416625 0.394287194) 493 935 2
(0.3985372246 0.01157048342 0.3007313877 0.2891609043) 431 833 1
(0.5023620962 0.0478592974 0.2488189519 0.2009596545) 482 933 2
(0.1537456127 0.1984564941 0.4231271936 0.2246706995) 435 843 2
(0.01661329553 0.1193095012 0.372383851 0.4916933522) 501 968 1
(0.06577115334 0.2912631173 0.175851306 0.4671144233) 525 2230 1
(0.4976426634 0.1915209815 0.05965768677 0.2511786683) 525 2230 1
(0.3229683747 0.2281121228 0.3385158126 0.1104036898) 514 991 1
(0.1115065423 0.3250218372 0.1192248917 0.4442467289) 532 1027 1
(0.1275983809 0.4362008096 0.194566822 0.2416339875) 544 1032 1
(0.6818200329 0.05109361179 0.1590899836 0.1079963718) 383 742 1
(0.4195152941 0.05369311636 0.2365492366 0.290242353) 424 822 1
(0.1801992305 0.3862986916 0.4099003847 0.02360169316) 403 780 1
(0.5160994626 0.2419502687 0.1515827731 0.09036749561) 431 836 1
(0.241936146 0.379031927 0.141323282 0.237708645) 423 821 1
(0.7276171679 0.09251202205 0.136191416 0.043679394) 375 729 2
(0.1656488477 0.07409091277 0.4171755761 0.3430846634) 405 784 1
(0.01933613299 0.2015156184 0.4903319335 0.2888163151) 434 839 1
(0.3940612248 0.2681225484 0.3029693876 0.03484683919) 403 780 1
(0.1327241972 0.4336379014 0.01384756678 0.4197903346) 385 748 1
(0.6036655451 0.1981672274 0.007604277312 0.1905629501) 404 785 1
(0.133580923 0.4332095385 0.2960011771 0.1372083614) 403 783 1
(0.01005572421 0.4949721379 0.1847161942 0.3102559437) 452 875 2
(0.08148961851 0.03513527356 0.4592551907 0.4241199172) 485 936 1
(0.282731463 0.04866279934 0.3099714691 0.3586342685) 501 968 1
(0.475005738 0.262497131 0.03452976873 0.2279673623) 444 861 1
(0.1471974534 0.4264012733 0.1355645165 0.2908367568) 454 880 1
(0.1053973116 0.3906980438 0.05660330039 0.4473013442) 540 1038 1
(0.5442565199 0.1825310076 0.04534073246 0.22787174) 524 994 2
(0.151637514 0.424181243 0.4017817529 0.02239949006) 514 994 1
(0.06652271293 0.04448401324 0.4222546303 0.4667386435) 543 1041 1
(0.1502354506 0.0314525494 0.4248822747 0.3934297253) 520 1005 2
(0.2509099689 0.03727827359 0.3745450155 0.3372667419) 395 767 2
(0.0364626585 0.08504497361 0.3967236971 0.4817686707) 373 707 2
(0.264298248 0.3326058728 0.03524500319 0.367850876) 401 778 1
(0.347919925 0.1103171686 0.2157228689 0.3260400375) 425 2220 1
(0.727110617 0.1364446915 0.01328508737 0.1231596042) 372 723 2
(0.6131282453 0.1934358774 0.1468578357 0.04657804167) 398 773 1
(0.559611174 0.1372999406 0.08289447238 0.220194413) 412 781 2
(0.07576684022 0.4621165799 0.06931087187 0.392805708) 464 898 2
(0.4586670286 0.1819836645 0.0886828212 0.2706664857) 369 717 1
(0.0447452914 0.4776273543 0.02105160802 0.4565757463) 392 762 1
(0.4909672416 0.1291360555 0.2545163792 0.1253803237) 442 857 2
(0.119486458 0.3302840654 0.1099727056 0.440256771) 424 804 2
(0.17510316 0.2832597502 0.41244842 0.1291886698) 460 891 2
(0.4518451712 0.2121124933 0.2740774144 0.06196492112) 515 993 1
(0.7248281218 0.01790014189 0.1196857972 0.1375859391) 433 839 1
(0.6556165566 0.1721917217 0.07552239704 0.09666932466) 405 786 1
(0.610616428 0.1800379002 0.0146538858 0.194691786) 474 899 2
(0.2147502094 0.06303783658 0.3926248953 0.3295870587) 445 862 2
(0.1362588112 0.1592537008 0.2726168936 0.4318705944) 474 899 2
(0.4463086569 0.2768456715 0.06764707572 0.2091985958) 444 860 2
(0.3124699436 0.01951363816 0.3437650282 0.32425139) 474 915 1
(0.08025735027 0.3691478509 0.09072347401 0.4598713249) 462 894 1
(0.3130510614 0.3434744693 0.03975484053 0.3037196288) 463 897 1
(0.1923783437 0.4038108282 0.3690912757 0.03471955246) 514 975 1
(0.4760480527 0.2619759736 0.2132609212 0.04871505248) 463 896 2
(0.2189481422 0.04867668183 0.3418492471 0.3905259289) 440 852 1
(0.5999127486 0.2000436257 0.1716168205 0.02842680524) 544 1041 2
(0.4927686366 0.2536156817 0.01375380494 0.2398618768) 473 913 2
(0.7296557939 0.1351721031 0.1086036277 0.02656847537) 493 951 2
(0.09112167222 0.4544391639 0.2470026989 0.207436465) 471 912 1
(0.1432927368 0.4283536316 0.07729854109 0.3510550905) 405 2218 2
(0.8999638928 0.05001805358 0.04542480843 0.004593245152) 374 725 2
(0.3039167223 0.3480416388 0.3174062397 0.03063539919) 415 805 1
(0.02108949609 0.489455252 0.2505981217 0.2388571303) 365 708 2
(0.01094924849 0.4945253758 0.2847183433 0.2098070324) 395 748 1
(0.546522451 0.2267387745 0.01917078783 0.2075679867) 411 795 2
(0.2500426295 0.03571865584 0.3749786852 0.3392600294) 405 784 1
(0.2057944982 0.3971027509 0.04295142999 0.3541513209) 431 817 1
(0.1292861596 0.4353569202 0.1916407269 0.2437161933) 381 740 2
(0.1174838476 0.06208210526 0.3791759709 0.4412580762) 475 900 2
(0.4682297879 0.265885106 0.183362045 0.08252306102) 399 775 1
(0.2227701607 0.3886149197 0.2774880268 0.1111268928) 394 763 2
(0.3006234513 0.3496882744 0.0002189178328 0.3494693565) 375 710 1
(0.4115863387 0.2942068306 0.08164169142 0.2125651392) 422 800 1
(0.4710186353 0.2288896418 0.03560104061 0.2644906824) 413 801 1
(0.0224198949 0.4887900525 0.1078245696 0.3809654829) 473 915 2
(0.3833718455 0.3083140772 0.03471752307 0.2735965542) 435 2221 2
(0.00223006253 0.3136279055 0.4988849687 0.1852570633) 433 840 2
(0.09449960165 0.4527501992 0.3435119678 0.1092382313) 494 953 2
(0.3609988702 0.14014375 0.1793568149 0.3195005649) 472 895 2
(0.0191675629 0.03993405964 0.4504821589 0.4904162185) 495 2227 1
(0.706368293 0.02581901227 0.1209968412 0.1468158535) 523 1010 1
(0.3503773606 0.3248113197 0.2396211889 0.08519013084) 453 877 2
(0.3673537954 0.1672732536 0.3163231023 0.1490498487) 455 879 1
(0.4826184459 0.2168651528 0.04182562421 0.2586907771) 424 822 1
(0.4425988672 0.01362779044 0.265072776 0.2787005664) 498 944 2
(0.539544993 0.2302275035 0.02517194008 0.2050555634) 454 879 2
(0.1673353968 0.03001303351 0.3863192681 0.4163323016) 481 930 1
(0.04637842535 0.4768107873 0.06244239114 0.4143683962) 483 934 2
(0.3097603399 0.150483948 0.34511983 0.194635882) 508 979 1
(0.5279038787 0.2221088728 0.01393918791 0.2360480607) 515 976 2
(0.2186125034 0.01735641581 0.3906937483 0.3733373325) 494 956 2
(0.2936459597 0.3531770201 0.2289836844 0.1241933357) 431 835 2
(0.3593457716 0.3203271142 0.002583118102 0.3177439961) 522 990 1
(0.4965769239 0.251711538 0.1350843316 0.1166272064) 514 991 2
(0.7934883662 0.1032558169 0.02108146138 0.08217435549) 511 988 1
(0.004402605249 0.4977986974 0.3553221938 0.1424765036) 535 1014 1
(0.2369790207 0.1149843206 0.3815104896 0.2665261691) 544 1041 1
(0.392316965 0.1249152396 0.3038415175 0.1789262779) 545 1090 2
(0.5782306573 0.01292679936 0.197957872 0.2108846713) 415 2219 1
(0.4300684776 0.07677830599 0.2849657612 0.2081874552) 363 704 1
(0.6919345296 0.1527666427 0.1540327352 0.001266092503) 364 706 1
(0.293024969 0.3534875155 0.3117808494 0.04170666612) 373 725 2
(0.1135318632 0.2480120262 0.4432340684 0.1952220422) 453 878 2
(0.4438952019 0.1897723231 0.278052399 0.08828007595) 392 762 2
(0.01736033342 0.4913198333 0.2328149221 0.2585049112) 365 2214 2
(0.7333450179 0.01743774654 0.1158897445 0.1333274911) 414 803 1
(0.3260221898 0.3070325752 0.3369889051 0.02995632985) 412 800 2
(0.2124193317 0.1036824519 0.2901078822 0.3937903341) 412 781 2
(0.06839174871 0.03232064548 0.4334834802 0.4658041256) 454 879 1
(0.09026412699 0.4548679365 0.1456568215 0.309211115) 475 919 1
(0.2897337675 0.3551331162 0.1154811171 0.2396519992) 400 776 2
(0.7763426687 0.04551661782 0.06631204785 0.1118286657) 384 746 1
(0.523850127 0.05483823567 0.1832367008 0.2380749365) 454 861 2
(0.5175613219 0.2412193391 0.007685472085 0.233533867) 451 855 1
(0.1226554141 0.438672293 0.2702217783 0.1684505146) 452 876 1
(0.0001702704721 0.345997966 0.1539168988 0.4999148648) 485 919 2
(0.2071131351 0.3964434325 0.04259205282 0.3538513796) 435 824 1
(0.02415117844 0.4879244108 0.3606873512 0.1272370596) 475 919 1
(0.6458877753 0.1770561124 0.05211414361 0.1249419688) 512 990 1
(0.5713353933 0.2143323034 0.1798640429 0.03446826046) 484 918 1
(0.2500064342 0.3749967829 0.09312336809 0.2818734148) 443 856 2
(0.1344728963 0.332197212 0.4327635519 0.1005663398) 465 898 1
(0.7635381036 0.1182309482 0.09049682844 0.02773411977) 544 1041 2
(0.2886211638 0.2110840536 0.1446053645 0.3556894181) 474 917 1
(0.3143159277 0.2935274053 0.3428420362 0.04931463086) 472 914 2
(0.3067060356 0.07378171305 0.3466469822 0.2728652692) 475 917 1
(0.6201800393 0.1899099804 0.06278733981 0.1271226406) 433 821 1
(0.4691240043 0.2252431085 0.04019488937 0.2654379979) 425 2220 1
(0.7282442048 0.1358778976 0.02188767708 0.1139902205) 540 1024 1
(0.2700385305 0.0363315666 0.3286491681 0.3649807347) 521 1006 1
(0.1679037344 0.4160481328 0.3326607261 0.0833874067) 543 1040 2
(0.06753344958 0.1257330989 0.3405001763 0.4662332752) 530 1005 2
(0.0638128561 0.4680935719 0.3344996605 0.1335939115) 449 869 2
(0.261166801 0.04538054962 0.3694165995 0.3240360499) 525 1014 2
(0.4259044653 0.2851967493 0.2870477674 0.001851018088) 483 935 2
(0.6451324826 0.07815804276 0.1774337587 0.09927571596) 512 990 2
(0.2954994271 0.3182701758 0.03398011067 0.3522502865) 535 1014 2
(0.0412344912 0.4793827544 0.3416304541 0.1377523003) 493 954 1
(0.6977427346 0.058468132 0.1511286327 0.09266050068) 395 767 2
(0.04256549072 0.4787172546 0.1617114339 0.3170058208) 373 726 1
(0.01820925574 0.4437561947 0.04713917739 0.4908953721) 413 801 1
(0.6877768049 0.1561115976 0.05768475725 0.09842684031) 461 890 2
(0.03111788768 0.327852816 0.4844410562 0.1565882402) 385 746 1
(0.3326454213 0.09053414635 0.243143143 0.3336772893) 391 741 2
(0.2823972488 0.3588013756 0.05355993848 0.3052414371) 388 735 1
(0.2364686466 0.3817656767 0.2410630937 0.140702583) 400 777 1
(0.3829975549 0.3085012225 0.1651864178 0.1433148047) 422 816 2
(0.2916021992 0.3541989004 0.1979400409 0.1562588595) 414 803 2
(0.5083453034 0.2458273483 0.1850352205 0.06079212776) 403 780 2
(0.5153420689 0.2423289655 0.2135620847 0.02876688085) 362 705 1
(0.01208169965 0.1501024472 0.343856703 0.4939591502) 503 972 1
(0.003873332682 0.3618320836 0.4980633337 0.1362312501) 414 804 2
(0.007824326249 0.05879053968 0.4960878369 0.4372972972) 384 747 2
(0.9381809756 0.0309095122 0.01742664237 0.01348286983) 435 2221 2
(0.07064246868 0.2770949054 0.1875838602 0.4646787657) 410 777 2
(0.05602960409 0.471985198 0.2974380356 0.1745471624) 464 880 1
(0.5918289905 0.0190883488 0.2040855047 0.1849971559) 414 804 2
(0.01999926481 0.4900003676 0.4496558952 0.0403444724) 405 786 1
(0.05546513389 0.2935023054 0.4722674331 0.1787651277) 402 778 1
(0.03358992286 0.3414904061 0.1417146325 0.4832050386) 402 780 1
(0.5912549476 0.19612243 0.008250096192 0.2043725262) 455 2223 1
(0.02128797535 0.03743269439 0.4519233179 0.4893560123) 433 821 2
(0.1133946286 0.0309235861 0.4123790996 0.4433026857) 399 774 1
(0.4280101433 0.2859949284 0.08324513472 0.2027497936) 502 968 2
(0.1532683989 0.4233658006 0.1135224097 0.3098433908) 522 1008 2
(0.07398092696 0.4630095365 0.1423699305 0.3206396061) 495 957 1
(0.3021982867 0.3489008567 0.3227002231 0.02620063357) 435 843 1
(0.00196421654 0.4990178917 0.3749269029 0.1240909889) 422 819 1
(0.02924214099 0.3927889269 0.09259000265 0.4853789295) 434 823 2
(0.4619132584 0.2690433708 0.000321393453 0.2687219774) 457 885 1
(0.2502251217 0.2181979788 0.3748874392 0.1566894604) 435 841 1
(0.1968074255 0.3753893176 0.02620696967 0.4015962872) 485 919 2
(0.2924631536 0.3357556731 0.01801275004 0.3537684232) 453 859 2
(0.02823134242 0.04903836424 0.4368459646 0.4858843288) 515 2229 1
(0.001785969259 0.4991070154 0.1738735746 0.3252334407) 441 852 2
(0.2597510626 0.3701244687 0.1882334433 0.1818910254) 472 913 2
(0.3127161287 0.2768358035 0.06680613214 0.3436419356) 495 2227 1
(0.08377854335 0.4581107283 0.4108886879 0.04722204043) 494 953 2
(0.3396205407 0.3301897296 0.1658250044 0.1643647252) 515 976 1
(0.5591514514 0.07439929307 0.1460249812 0.2204242743) 434 841 1
(0.6329401695 0.1423377222 0.04119219311 0.1835299153) 503 954 2
(0.08437515833 0.3537314368 0.4578124208 0.104080984) 534 1029 1
(0.3570581087 0.3214709456 0.2494258681 0.07204507756) 464 896 2
(0.2397298067 0.3801350967 0.1289728643 0.2511622323) 501 968 2
(0.2455070009 0.3772464995 0.08531810314 0.2919283964) 511 969 1
(0.5490863476 0.1877278337 0.2254568262 0.03772899248) 433 840 2
(0.1249013375 0.4375493313 0.2127992412 0.22475009) 513 973 1
(0.09569802495 0.2984956832 0.1536553043 0.4521509875) 533 1029 1
(0.07357942569 0.4632102872 0.03149576791 0.4317145192) 534 1032 1
(0.1819357935 0.2208912156 0.1881408876 0.4090321032) 503 954 2
(0.7088100342 0.06933411873 0.1455949829 0.07626086417) 374 725 1
(0.109175989 0.02000593765 0.4454120055 0.4254060679) 382 743 2
(0.1507240038 0.4246379981 0.1427537412 0.2818842569) 404 785 1
(0.8582227802 0.0708886099 0.02563755172 0.04525105818) 370 719 2
(0.02834063104 0.03660119521 0.4492284893 0.4858296845) 435 824 2
(0.1811389357 0.04244404831 0.4094305322 0.3669864838) 384 744 1
(0.02105896153 0.3315366199 0.4894705192 0.1579338994) 393 764 2
(0.1223054411 0.4388472795 0.01675911399 0.4220881655) 381 738 2
(0.2364446494 0.2351884969 0.1465891783 0.3817776753) 461 874 2
(0.5360726889 0.07152645586 0.2319636556 0.1604371997) 454 880 2
(0.6141266685 0.01837546215 0.1745612036 0.1929366658) 383 744 1
(0.1712286207 0.4143856897 0.1967727128 0.2176129768) 434 823 1
(0.04064722652 0.3554316075 0.4796763867 0.1242447792) 444 861 2
(0.936054136 0.01046046322 0.02151246878 0.031972932) 399 756 2
(0.3526012488 0.3236993756 0.3125991537 0.01110022187) 381 741 1
(0.625243117 0.1601151695 0.1873784415 0.02726327196) 427 828 2
(0.6818664672 0.1590667664 0.007870617882 0.1511961485) 462 876 1
(0.06570173121 0.05228371205 0.4148654223 0.4671491344) 431 835 1
(0.09927356117 0.4503632194 0.2503686628 0.1999945566) 443 856 2
(0.4040711459 0.05608620539 0.2418782217 0.2979644271) 420 814 1
(0.7426201248 0.1286899376 0.09976909595 0.02892084164) 434 841 2
(0.2872921381 0.3435001177 0.01285381327 0.356353931) 485 2226 1
(0.3164494057 0.152463154 0.1893121432 0.3417752971) 454 861 2
(0.3352907497 0.03313165048 0.3323546252 0.2992229747) 413 802 2
(0.2275023572 0.2078595998 0.1783892216 0.3862488214) 458 886 1
(0.08831935962 0.4558403202 0.3877614992 0.06807882096) 495 938 1
(0.3796516324 0.3101741838 0.189983901 0.1201902828) 422 818 2
(0.4834597724 0.0416583234 0.2166117904 0.2582701138) 495 2227 1
(0.05402019497 0.4729899025 0.1675214458 0.3054684567) 474 899 1
(0.5414764665 0.2292617667 0.05610356214 0.1731582046) 474 917 2
(0.5126841046 0.2436579477 0.03879430451 0.2048636432) 515 976 1
(0.4866991856 0.2566504072 0.1022960743 0.1543543328) 464 899 1
(0.2130773297 0.3934613351 0.3040947566 0.08936657853) 464 896 2
(0.004603141614 0.4976984292 0.2905185889 0.2071798403) 511 969 1
(0.1133738542 0.4433130729 0.3130537144 0.1302593585) 525 1014 1
(0.550637304 0.224681348 0.02858360444 0.1960977436) 504 956 1
(0.414360292 0.1800532224 0.292819854 0.1127666316) 532 1028 2
(0.1506574495 0.4246712752 0.09643423366 0.3282370416) 492 949 2
(0.2823625358 0.2029904165 0.3588187321 0.1558283156) 498 963 2
(0.3039848012 0.1109942991 0.3480075994 0.2370133003) 472 914 2
(0.211824774 0.394087613 0.2594865562 0.1346010568) 503 970 2
(0.5951097307 0.2024451346 0.1613961901 0.04104894448) 513 991 2
(0.7925977237 0.08810929254 0.1037011381 0.01559184559) 534 1029 1
(0.04903755949 0.4754812203 0.4138429843 0.06163823599) 430 831 2
(0.0855934833 0.2560262925 0.4572032584 0.2011769659) 385 746 1
(0.0390458819 0.480477059 0.1142646042 0.3662124549) 424 822 2
(0.247999413 0.3760002935 0.09444560101 0.2815546925) 385 729 1
(0.4046100136 0.06661383524 0.231081158 0.2976949932) 414 803 1
(0.1828936686 0.4085531657 0.3864333647 0.02211980098) 408 791 2
(0.1247281312 0.3023817992 0.4376359344 0.1352541351) 417 806 1
(0.3719079887 0.3140460056 0.1377654634 0.1762805423) 424 820 2
(0.04023464842 0.4798826758 0.4181303466 0.06175232918) 427 809 1
(0.2489091428 0.3755454286 0.0928254545 0.2827199741) 420 815 1
(0.9330283526 0.03348582368 0.02210717776 0.01137864592) 386 750 1
(0.2518605458 0.3740697271 0.3008691633 0.0732005638) 404 785 1
(0.06613457522 0.3541020853 0.112830627 0.4669327124) 440 852 1
(0.3016680641 0.349165968 0.09779370287 0.2513722651) 434 842 1
(0.04456014639 0.4777199268 0.3451769264 0.1325430004) 501 950 1
(0.5128450851 0.2435774574 0.07949704679 0.1640804106) 402 781 1
(0.8339949564 0.0319451614 0.0830025218 0.0510573604) 415 805 2
(0.03793557688 0.1591057547 0.3219264569 0.4810322116) 391 759 1
(0.3827387748 0.1965726939 0.1120579187 0.3086306126) 475 2225 1
(0.2874187113 0.3562906443 0.3476114112 0.008679233139) 454 880 1
(0.7285175418 0.110257199 0.02548403008 0.1357412291) 443 840 2
(0.3533879311 0.3233060345 0.2094625195 0.113843515) 413 802 1
(0.1167801905 0.366529703 0.07508020171 0.4416099047) 435 824 2
(0.7635477778 0.09737074069 0.1182261111 0.02085537041) 451 874 2
(0.09678546553 0.4516072672 0.09138748619 0.360219781) 424 823 1
(0.4028751236 0.2517869079 0.2985624382 0.04677553025) 431 836 2
(0.6795416815 0.09837127507 0.1602291592 0.06185788416) 433 837 1
(0.7280285961 0.1359857019 0.009837715218 0.1261479867) 420 796 1
(0.7139075049 0.1430462476 0.09835086021 0.04469538735) 441 852 2
(0.2458074853 0.2428705749 0.3770962574 0.1342256824) 413 802 2
(0.05461720744 0.1572064412 0.3154849551 0.4726913963) 453 877 1
(0.5101738244 0.007319257884 0.2375938299 0.2449130878) 413 801 1
(0.6450558107 0.02057859841 0.1774720947 0.1568934963) 443 856 1
(0.2964061636 0.3517969182 0.1739892969 0.1778076213) 482 930 2
(0.8079569825 0.01608942464 0.09602150874 0.0799320841) 461 893 2
(0.2151581777 0.2859914393 0.1064294719 0.3924209112) 492 933 2
(0.3109433101 0.2634826102 0.3445283449 0.08104573475) 479 924 1
(0.7981141122 0.1009429439 0.02126871508 0.07967422881) 462 894 2
(0.8976533377 0.02688465685 0.02428867432 0.05117333117) 503 972 1
(0.2046151305 0.1783615049 0.3976924348 0.2193309298) 470 910 2
(0.7107720829 0.1446139586 0.1070105732 0.03760338534) 523 1010 2
(0.6829534082 0.1585232959 0.1537221707 0.004801125195) 515 976 1
(0.04523131665 0.4773843417 0.03125016227 0.4461341794) 540 1024 1
(0.5877455252 0.2061272374 0.1682911826 0.03783605474) 450 869 2
(0.3310330952 0.05928703343 0.3344834524 0.2751964189) 531 1023 1
(0.3975232884 0.3012383558 0.1023114117 0.1989269441) 530 1021 2
(0.009120138355 0.4954399308 0.2151207916 0.2803191393) 485 938 1
(0.02634610312 0.4868269484 0.3977153983 0.08911155013) 534 1029 2
(0.09831687203 0.450841564 0.2532319612 0.1976096027) 541 1039 2
(0.4410040954 0.2794979523 0.03470560838 0.2447923439) 535 1031 2
(0.02582300358 0.4293556243 0.05773287391 0.4870884982) 515 976 2
(0.872500345 0.06374982749 0.03151977303 0.03223005446) 391 760 1
(0.01751047294 0.4912447635 0.04499874047 0.4462460231) 363 704 2
(0.2768735116 0.3615632442 0.2378287862 0.123734458) 422 800 1
(0.4654813661 0.267259317 0.2457721403 0.02148717671) 424 804 1
(0.1907339469 0.1408873686 0.4046330265 0.2637456579) 385 746 1
(0.1367713328 0.2798342668 0.1517800667 0.4316143336) 370 701 2
(0.06865862764 0.4656706862 0.4093478636 0.0563228226) 403 764 1
(0.5251541546 0.0807162699 0.1567066528 0.2374229227) 394 765 1
(0.03439812854 0.3837145539 0.09908638186 0.4828009357) 390 739 2
(0.0109705529 0.2859454309 0.2085692927 0.4945147236) 383 744 1
(0.4375889648 0.2812055176 0.16918516 0.1120203576) 412 781 1
(0.5441149598 0.1034464153 0.1244961048 0.2279425201) 381 740 1
(0.08945014962 0.4019768492 0.4552749252 0.05329807602) 422 819 2
(0.2083649882 0.01606218954 0.3958175059 0.3797553164) 431 833 1
(0.3801844225 0.05656610347 0.2533416853 0.3099077887) 411 797 1
(0.3021839937 0.3489080031 0.1290524337 0.2198555694) 433 839 2
(0.3290499251 0.1079348328 0.2275402046 0.3354750374) 434 841 1
(0.01504911988 0.4924754401 0.3195134222 0.1729620179) 384 728 1
(0.5566525533 0.1976795791 0.2216737234 0.0239941443) 402 778 1
(0.3779355233 0.3110322383 0.1988924528 0.1121397855) 449 851 1
(0.3271205015 0.05937202399 0.2770677253 0.3364397492) 524 994 2
(0.05427281346 0.3071497155 0.1657138777 0.4728635933) 432 819 2
(0.5882221622 0.2058889189 0.01533012847 0.1905587904) 423 821 1
(0.002701734757 0.2178483771 0.4986491326 0.2808007555) 424 820 1
(0.1429640479 0.2060076329 0.2225103432 0.4285179761) 422 818 1
(0.1559100532 0.3725367432 0.04950823024 0.4220449734) 441 854 1
(0.4830171251 0.2584914375 0.1513606051 0.1071308323) 119 198 1
(0.3321349946 0.02711623476 0.3339325027 0.3068162679) 451 874 2
(0.6800740444 0.1599629778 0.1074155203 0.05254745747) 519 984 1
(0.5975921231 0.1951813989 0.006022539544 0.2012039384) 523 1010 1
(0.06529610795 0.2583786812 0.467351946 0.2089732648) 505 976 2
(0.7031410689 0.1484294656 0.1392521685 0.009177297107) 482 930 2
(0.6879526092 0.006554150213 0.1494695452 0.1560236954) 521 1006 1
(0.06746108222 0.3804436805 0.0858257784 0.4662694589) 504 974 1