/*--------------------------------*- C++ -*----------------------------------*\
| =========                 |                                                 |
| \\      /  F ield         | OpenFOAM: The Open Source CFD Toolbox           |
|  \\    /   O peration     | Version:  2406                                  |
|   \\  /    A nd           | Website:  www.openfoam.com                      |
|    \\/     M anipulation  |                                                 |
\*---------------------------------------------------------------------------*/
FoamFile
{
    version     2.0;
    format      ascii;
    arch        "LSB;label=32;scalar=64";
    class       scalarField;
    location    "0.003/lagrangian/dsmc";
    object      Ei;
}
// * * * * * * * * * * * * * * * * * * * * * * * * * * * * * * * * * * * * * //


5160
(
9.510096048e-21
6.484026768e-21
9.895639396e-21
1.814776763e-21
1.486311834e-21
2.10730773e-21
6.412592532e-21
6.105912603e-22
2.599397578e-21
1.019412625e-22
7.60199925e-21
2.783567177e-21
1.422327754e-21
3.748365902e-21
7.415931853e-22
4.958634916e-22
1.512603453e-21
1.167422337e-21
7.608282376e-21
3.522796839e-21
3.168360395e-21
1.869069973e-20
4.890999858e-21
1.09939126e-20
3.963810908e-21
4.702282854e-22
5.372341479e-22
3.557753403e-21
2.295286845e-21
1.275793072e-21
9.77081483e-21
4.927747474e-22
1.08102451e-20
1.446716349e-20
3.546977389e-21
1.590706709e-22
2.494492419e-21
1.446449857e-21
5.782618998e-22
2.466090996e-21
2.451641995e-21
1.304848283e-21
2.944722159e-21
5.806883196e-23
2.061146628e-21
5.989434526e-21
1.178075023e-22
4.626048238e-21
4.970365101e-21
6.195629797e-21
9.133919556e-21
3.827883465e-21
3.435208366e-21
1.268630891e-20
1.024289775e-20
2.2472923e-21
1.521141035e-20
4.258469326e-21
3.133026728e-21
3.414700793e-22
4.514786663e-22
1.334526512e-20
8.172446461e-21
4.60384535e-21
1.815294414e-21
2.587006286e-21
5.257928312e-22
9.102248382e-21
2.42869165e-21
2.139811997e-21
1.005877244e-21
2.059856188e-22
7.064160746e-21
4.618005841e-21
5.555580716e-23
4.197357912e-22
7.059817401e-22
3.61497275e-21
2.330455984e-21
9.114145624e-21
1.537608213e-21
2.185950818e-21
3.351482638e-21
2.276512667e-21
1.075251948e-20
1.594111494e-21
3.117358923e-21
3.750100821e-21
9.195510221e-21
1.508027873e-21
8.53741837e-21
8.148096264e-22
1.36898855e-22
4.267390208e-22
2.058437627e-21
1.316262096e-21
1.148090831e-21
3.26645606e-21
3.002014087e-21
1.380741223e-21
1.343941702e-20
5.363512813e-21
1.093063961e-20
5.440562772e-22
5.150436634e-21
1.574400448e-21
7.601398924e-23
1.484713343e-21
5.609385321e-21
1.064873749e-20
1.832768821e-21
2.253936459e-22
5.791164096e-22
3.594296809e-21
2.982306166e-21
1.615315789e-21
3.418149075e-21
2.882254179e-21
2.774144116e-21
1.241716685e-20
9.164794928e-23
3.289480284e-21
6.22944881e-23
2.623256065e-21
4.204051093e-21
9.701802161e-22
1.02362169e-20
2.704579364e-21
6.888332542e-21
1.449338453e-21
1.230281623e-21
9.151779496e-22
4.858832906e-21
2.517210695e-21
4.324140145e-21
1.19611279e-21
3.149194578e-21
8.5016337e-21
1.958254989e-21
1.192101419e-21
5.716679872e-21
1.648269313e-20
1.224199607e-20
1.473122057e-21
1.473039927e-21
1.918303338e-20
1.001995531e-21
2.594274753e-21
1.850126299e-22
9.774136455e-22
1.873778829e-21
2.827580602e-23
4.052583648e-21
1.097289813e-21
6.763037721e-22
8.671888036e-22
5.776553864e-22
3.112248198e-21
7.763924816e-21
2.558762085e-22
1.845247838e-21
1.020868095e-20
1.32897824e-21
1.596026586e-21
1.00840295e-20
1.876038735e-20
1.71536323e-20
1.661124057e-20
6.799689424e-22
3.759656557e-22
8.952897426e-22
2.68455965e-21
5.868602776e-21
9.776957342e-21
3.355329727e-21
1.478337711e-21
2.571795823e-21
3.777450629e-21
2.034484255e-22
7.945753629e-22
2.178399642e-20
8.762914368e-21
4.011790329e-21
4.511528304e-21
4.857884119e-21
6.212127371e-22
6.329363198e-22
1.289423371e-20
3.095299665e-21
4.24944311e-22
1.271048429e-20
3.472580565e-21
3.828110607e-21
1.103592742e-21
2.221079428e-22
1.571952714e-21
6.160348877e-21
9.751321866e-22
4.673834854e-22
2.686219299e-21
4.093783734e-21
2.095860474e-21
4.378198779e-21
1.112545922e-20
1.086257114e-20
8.748907627e-21
3.119228601e-22
1.964958708e-22
4.192611757e-22
2.381420307e-22
4.880806075e-22
7.072094698e-21
1.870946222e-21
6.718065554e-21
2.895744479e-21
2.124715634e-20
3.567751648e-21
1.214966849e-21
1.340716978e-21
1.82545249e-21
9.989028532e-22
2.741878822e-21
1.186269954e-21
1.589449369e-21
2.357143594e-21
6.773855471e-22
2.811885413e-21
2.42786164e-21
1.971170604e-21
4.73421251e-21
3.965451027e-21
7.897270948e-22
4.368060022e-22
1.197932317e-20
3.696826748e-22
1.17208927e-21
1.954936676e-21
2.603611976e-21
9.824242098e-21
1.569045034e-20
4.313113148e-21
6.75217339e-22
7.864460522e-21
4.859676133e-22
3.721113575e-22
9.570994347e-21
6.359648161e-21
4.751640376e-22
4.052081454e-22
4.866413163e-23
5.050270807e-22
9.346659112e-21
3.634980452e-21
9.409602308e-21
2.525215645e-22
3.937542497e-21
1.461021999e-20
6.250124315e-22
8.123525787e-21
8.097270313e-21
4.746014276e-21
1.153995935e-20
6.15644743e-21
3.051051127e-21
4.017830242e-21
3.602912202e-21
4.57151058e-21
2.040399868e-21
2.895122718e-21
1.599971461e-20
1.167580707e-21
1.280464522e-21
3.147506388e-21
3.621399957e-21
5.666841187e-21
8.279968427e-21
4.906931427e-22
5.743526143e-21
4.108595889e-21
1.934215293e-21
1.046757605e-20
8.724373346e-22
6.200887533e-22
1.706912956e-21
3.6083029e-21
1.264161765e-22
1.830088444e-21
3.126541034e-21
8.711518577e-21
1.079719832e-21
4.369657177e-21
2.217465268e-21
2.649618657e-21
1.305315471e-21
8.32116306e-22
5.382695321e-21
2.894253761e-21
3.784435362e-21
4.254698023e-22
7.684337264e-21
8.009178391e-22
4.322515096e-23
4.762125833e-21
1.042172615e-20
1.356773876e-21
1.958982227e-21
2.587681016e-21
2.570056425e-21
9.963241447e-21
8.623111617e-22
1.739038545e-21
5.689301609e-21
5.552723819e-22
3.881089523e-21
3.162641749e-21
5.525815346e-21
1.979599213e-21
1.622236201e-21
3.03241144e-21
1.328432269e-21
8.230628127e-21
2.90902137e-21
2.552487844e-22
1.83456747e-21
5.15089456e-21
1.114652303e-20
7.409764591e-21
2.579325232e-21
8.492358753e-21
5.047645529e-21
2.47788631e-22
2.821840691e-21
1.690987307e-21
4.015786681e-21
3.514284823e-21
9.000869303e-22
4.576210809e-21
2.159561591e-21
1.95412676e-21
5.986988908e-22
7.323311138e-21
1.144724374e-21
4.98532864e-21
2.577799667e-21
9.167176693e-22
3.738315638e-22
3.299248459e-21
9.908977109e-22
1.046500669e-22
4.78496653e-21
1.365030618e-20
8.186367578e-22
5.843016021e-22
3.676484376e-21
1.437159927e-21
5.354305065e-22
2.267802905e-21
1.776461137e-21
4.33855091e-21
8.740999755e-21
4.920659292e-21
6.007668139e-21
3.448508886e-21
5.726315791e-22
7.421068539e-22
2.730510989e-21
6.18914626e-21
4.371879021e-21
2.133187708e-21
4.486846095e-21
2.273007371e-21
6.466559707e-21
1.428466918e-20
4.193072107e-21
1.223459206e-20
8.823556556e-22
5.801251856e-21
2.261496932e-22
2.222094038e-21
3.199665407e-21
5.886187599e-21
2.086156498e-21
1.403873248e-21
2.193427751e-22
9.578346173e-21
6.81393966e-22
2.048972467e-21
3.973231789e-23
7.055735145e-22
1.781858859e-23
1.400019945e-21
1.503648593e-20
2.68988209e-21
1.875296608e-22
6.359103739e-21
3.923925146e-22
3.049606564e-21
6.162911023e-21
2.534480675e-21
2.351926422e-21
4.9273252e-21
6.274399144e-22
8.965198276e-21
8.373539213e-21
1.127653724e-20
6.566462654e-21
2.942337446e-21
4.424126175e-21
2.116748993e-21
4.05873284e-21
2.501068384e-21
4.368135475e-22
9.84110875e-22
2.206379633e-21
4.71260107e-21
8.083188055e-21
8.112182416e-21
2.018584906e-21
3.814058861e-21
1.743306124e-21
3.596851062e-21
1.238165182e-20
1.05143125e-21
9.408068641e-21
6.395154662e-21
3.066282206e-21
8.331426895e-21
3.161526546e-21
1.185273283e-20
7.054211258e-21
1.572125297e-21
3.566555038e-21
1.028408243e-21
1.759792411e-20
8.703232639e-21
3.314528478e-21
2.251092736e-21
6.56913775e-21
3.451036202e-21
9.616407667e-23
1.663742339e-21
8.606929037e-22
1.983090708e-21
1.185830174e-20
1.677843894e-21
1.381637514e-21
2.604816352e-21
1.094596868e-21
1.813093606e-21
1.417872264e-20
9.884942941e-22
4.59392753e-21
1.104533705e-20
6.370277774e-21
1.383091248e-20
1.26267171e-20
5.939381216e-21
1.926949848e-21
1.022260127e-21
2.449335995e-21
5.798421119e-21
1.408028396e-20
2.558295579e-21
1.658208845e-21
5.559133397e-21
5.299501486e-21
6.379047471e-22
8.511840058e-21
6.365745876e-21
2.998668938e-22
2.732849335e-21
4.070777027e-21
6.87670645e-21
8.678709375e-23
2.806573705e-21
1.486722699e-21
2.624257169e-22
8.076730079e-21
2.28328009e-21
5.778694518e-21
1.024879729e-22
1.51904995e-21
6.655028381e-21
2.674498786e-21
1.655815318e-21
2.932240848e-21
2.289295243e-21
2.415814353e-21
6.230483294e-21
2.39468557e-21
3.392702521e-21
1.292013271e-21
2.582605553e-21
6.011584287e-22
1.743166524e-21
1.391142304e-20
5.920580855e-21
5.670680971e-23
5.675019746e-22
9.593230706e-21
2.548734264e-20
3.766715132e-21
6.592880893e-22
3.206405697e-21
3.133281089e-21
1.275843744e-20
1.094073147e-20
1.454351181e-20
1.376082726e-21
3.722249575e-21
1.209945839e-21
1.619523082e-21
9.954143329e-22
1.224644927e-21
2.186051415e-21
1.897014101e-21
7.593637949e-22
1.823750857e-21
8.069301159e-21
3.245583486e-21
1.420893124e-20
2.970985808e-22
1.74108969e-22
1.280866778e-21
5.173065531e-21
3.21743033e-21
1.797578882e-21
2.430522952e-20
1.132889839e-20
1.798118723e-21
1.12702399e-20
1.25399922e-21
8.097570651e-21
6.305386758e-22
2.159783136e-21
5.633150213e-22
3.969651464e-21
2.939194137e-22
1.560213713e-20
4.405679544e-21
1.230123685e-21
8.931149239e-23
5.330684924e-21
4.464333019e-21
3.315639519e-21
1.414233512e-20
1.088314494e-21
2.972363876e-21
1.33362781e-21
2.315649972e-21
4.176007401e-21
8.473911532e-22
4.506885302e-21
3.654792782e-21
2.769352213e-21
2.01875877e-21
2.861028521e-21
5.845127057e-21
3.51207286e-22
7.382015874e-21
1.001193442e-20
5.423591561e-21
2.037512738e-21
9.769557604e-21
2.960702412e-22
2.799152445e-22
5.786671212e-22
2.251988765e-21
8.856770421e-21
1.882014641e-21
9.443072732e-22
4.56463858e-21
1.284014059e-21
3.879218227e-21
7.691322456e-21
1.452020722e-21
4.98408361e-21
9.369207435e-22
3.383841226e-21
5.751965114e-21
5.418608705e-21
4.49177111e-21
2.050523794e-21
8.599076563e-22
2.57173739e-21
5.957875072e-21
4.142723486e-21
3.093792209e-21
3.541134419e-21
2.943593952e-22
1.546139276e-21
5.90817723e-22
2.187440415e-21
1.129550787e-21
7.039489251e-22
8.039431461e-22
2.75235385e-21
5.546824519e-21
1.355726921e-23
5.30906421e-21
2.505928247e-20
1.885081182e-21
5.507268077e-21
5.307966433e-22
4.505317551e-21
5.865782163e-21
4.187067114e-22
3.447346986e-21
1.1238228e-21
1.295358102e-21
7.994865962e-21
3.007773259e-21
1.832092593e-21
9.104363748e-21
1.146282155e-22
1.583109565e-21
1.85103219e-20
1.005318742e-21
5.631804819e-21
1.708384932e-21
1.032221471e-20
4.065665275e-22
9.296751241e-22
3.001783011e-21
1.074149152e-21
1.388218483e-21
3.85896868e-23
6.794137816e-21
4.540281635e-21
1.648987163e-22
5.097528309e-22
5.420976269e-21
2.90001231e-21
9.383458423e-23
1.053410836e-21
4.507734443e-21
9.090450257e-22
2.696996826e-22
3.844649531e-21
4.321050463e-21
1.06665974e-20
1.175601897e-21
9.888313323e-22
1.071782675e-21
4.27282532e-21
4.75449061e-22
1.208161617e-21
7.721735626e-22
8.789136581e-21
6.982191768e-21
1.943576776e-21
1.607106966e-20
3.857556127e-21
1.293085958e-21
1.097957985e-20
2.215940855e-21
3.180873521e-21
3.805927712e-21
1.063056414e-21
5.361691276e-21
1.425141046e-22
1.718607311e-21
3.578251928e-22
3.14851572e-21
3.62282234e-21
2.608865362e-21
3.305069555e-22
9.926038862e-22
1.275189466e-21
1.796736897e-22
2.57378944e-22
1.622792792e-21
8.145813309e-22
1.850756276e-21
3.591323737e-22
9.916399683e-22
2.149995945e-21
8.357688114e-21
4.819511385e-21
4.417332088e-22
8.193763314e-21
2.689247891e-22
1.576264391e-21
6.472114291e-21
1.641924491e-21
1.541541953e-21
1.291584776e-21
3.254292323e-22
2.320958934e-21
1.652721969e-22
1.815710876e-21
2.685933299e-21
1.443725543e-20
4.385063021e-21
6.354445551e-21
1.396146537e-20
9.670128288e-22
1.800049039e-20
3.980257012e-21
3.609874686e-22
3.046568988e-21
5.141086589e-22
5.64905068e-21
1.032302261e-20
7.760283772e-21
1.328085048e-21
3.486724514e-21
3.449728669e-21
7.508484703e-22
4.322283904e-21
3.789265026e-22
1.437630665e-21
6.906787977e-21
1.009435671e-21
4.868863277e-21
1.41670584e-21
3.72008597e-21
2.703574961e-22
8.566134964e-21
9.367187111e-21
1.285478058e-21
1.810317322e-21
4.867572221e-21
4.334581059e-21
1.493749503e-22
3.37961818e-21
3.283651208e-21
6.944763398e-21
6.898764533e-22
1.936596204e-21
1.901205558e-21
1.40513552e-21
1.550607897e-21
4.282465041e-21
3.189447538e-22
5.455238983e-21
1.316324223e-21
1.11023317e-21
4.277679472e-21
4.387102135e-21
2.784509051e-22
1.472188015e-21
1.455935417e-21
7.665434152e-21
4.152818825e-21
1.107484519e-21
2.994716812e-21
4.365507086e-21
4.350059074e-21
6.535190488e-21
4.225522398e-22
3.81817785e-22
8.195139478e-22
1.969947475e-21
4.027405517e-20
1.909257496e-21
9.118709521e-22
2.94387869e-21
1.187166961e-21
2.698607135e-21
6.074026893e-22
3.847667401e-21
4.209326121e-21
7.028107976e-21
8.934947976e-22
6.294850154e-21
3.229793632e-21
8.900373193e-21
9.344254051e-21
1.284206632e-20
6.227694686e-21
1.428509017e-21
7.998112047e-21
6.314227206e-22
3.160690183e-21
5.135141136e-21
5.827283654e-21
2.022692966e-20
1.960603388e-22
2.578092984e-22
2.331445475e-21
1.413074027e-21
3.191123241e-22
2.090255204e-20
4.803452412e-21
2.566597751e-21
1.631164625e-21
6.180976591e-21
5.997308638e-21
2.792408444e-21
1.205709452e-21
1.281545042e-20
1.981492466e-21
2.978774213e-21
1.208242327e-20
2.670697612e-21
4.174608149e-21
9.739626619e-21
3.133145856e-21
4.22306083e-21
7.10502878e-22
5.909099411e-21
1.501368854e-21
4.365942731e-22
3.251484451e-21
1.630650694e-21
9.107836646e-21
1.023080251e-20
6.430323386e-22
8.169217108e-21
3.047839284e-21
2.587780052e-21
5.685629089e-21
2.838905211e-21
1.324732852e-20
2.304656365e-20
1.297737954e-21
6.178696234e-21
2.578044847e-21
5.298907252e-21
3.351175972e-20
8.845680255e-22
8.092086183e-21
1.209636502e-20
2.025642527e-21
1.655007507e-21
3.610199372e-21
9.295682575e-21
2.051727511e-21
2.546703995e-21
1.642188112e-20
4.382567191e-21
1.69922751e-22
1.966981929e-22
1.794672964e-21
5.380930937e-21
2.714327372e-21
4.932129723e-21
4.729860277e-21
1.188455396e-20
3.412209345e-22
2.096413771e-21
7.215539362e-21
2.03250733e-20
1.151614927e-21
6.775283425e-21
1.936906271e-21
6.23125498e-21
1.189236548e-21
4.751028127e-21
1.214038791e-20
9.950015664e-21
6.225830756e-21
4.703821061e-21
1.257838312e-21
8.488304287e-22
6.766040352e-22
2.423606859e-21
7.394785196e-22
2.749581569e-21
1.251680084e-20
2.227433032e-21
9.2001335e-21
5.842178842e-21
8.899816897e-21
9.624622616e-21
1.918869981e-21
2.707879583e-21
2.051332488e-22
2.330971124e-22
6.542559912e-21
1.54073154e-21
3.910662583e-21
1.196267774e-21
2.468533261e-21
1.874564094e-20
1.338113727e-21
2.846910351e-21
1.776059763e-21
3.845860428e-21
1.354078913e-22
1.179287709e-20
7.884009369e-21
6.923299012e-21
7.250181997e-21
8.365645154e-21
1.771601478e-21
8.229498763e-21
1.846891789e-21
1.098012833e-21
2.830032679e-22
1.461583627e-21
3.057948499e-21
2.999506704e-21
3.819262105e-21
4.000519981e-22
7.129511667e-22
6.66418969e-21
2.402233714e-21
6.046400282e-22
1.888566958e-21
2.828753123e-21
1.032565055e-20
4.545007892e-21
5.058573518e-21
3.914368817e-21
7.479130783e-22
3.251197063e-21
2.260081212e-21
6.022004557e-21
2.595988681e-22
4.701545242e-21
3.11839556e-22
1.818407634e-21
4.426873598e-21
4.048617241e-21
1.258384284e-21
6.408563671e-22
9.995184289e-21
1.139200054e-21
8.58081217e-22
2.513044908e-21
1.511884565e-20
1.466568738e-21
7.431307929e-22
1.22753417e-22
2.102953735e-21
7.016832539e-21
8.746122004e-22
5.123205877e-21
2.222777618e-22
3.346077501e-21
1.225700787e-20
3.606749432e-21
4.074082075e-21
7.503481012e-21
7.904942172e-21
4.624880259e-22
1.013396725e-20
6.625110073e-21
9.493037281e-21
4.657700314e-21
3.963917591e-21
1.009502974e-21
1.790006858e-21
4.551858795e-21
2.307800066e-21
5.874639915e-22
1.919419586e-21
8.687404583e-21
6.516918173e-22
1.825489593e-21
4.513331497e-21
4.496430273e-21
1.318818797e-22
3.322396572e-21
4.754540379e-21
6.317255613e-21
3.110185038e-21
3.264043703e-21
3.034526917e-22
3.102617423e-21
5.232861763e-22
2.077682014e-21
3.708940493e-21
7.971408872e-22
2.56678979e-21
9.632392221e-22
3.591386936e-21
6.738408992e-21
1.22783574e-20
2.054966198e-21
1.657452721e-21
1.555660183e-20
7.404557596e-21
6.062429056e-21
1.176139564e-20
8.376701889e-21
8.723563396e-23
9.963894674e-21
8.667368361e-22
8.407456757e-22
3.527123132e-21
7.567316018e-21
1.291022636e-20
4.410427176e-21
3.651621066e-21
4.663695113e-21
3.724584465e-21
1.702550064e-20
2.662809572e-21
2.58091452e-21
1.051742135e-21
7.327243996e-22
2.117582988e-21
1.687905218e-21
2.494413066e-21
5.656414757e-21
1.653263767e-22
1.447266377e-22
4.39759907e-23
1.980448156e-21
1.091620176e-20
1.183321174e-21
4.098640132e-21
3.709012224e-21
7.686391798e-22
2.298263126e-21
1.346725236e-21
2.698143323e-21
4.818400844e-22
4.800913936e-21
7.010935399e-21
1.461859673e-20
4.08137944e-21
9.006376469e-21
3.198179542e-21
6.294942615e-21
2.371979343e-20
1.201011667e-20
4.606263268e-21
1.472584478e-21
1.530590903e-22
1.345279715e-20
2.139939198e-21
1.368035948e-21
2.398652974e-21
4.684415162e-21
2.688257901e-21
7.42814085e-21
6.566723615e-21
1.777628407e-21
1.4119499e-20
2.693848927e-21
1.399905133e-20
7.113583106e-22
2.273845741e-21
5.852434004e-22
1.036588537e-21
3.189880218e-21
4.763086291e-22
1.535981138e-22
1.014076912e-20
1.492685185e-21
6.861010502e-21
1.019313191e-21
9.026627362e-22
6.521514702e-21
5.781745812e-21
7.670269102e-22
2.650459998e-21
8.595585891e-21
5.736713366e-21
1.143340782e-21
1.900148466e-22
3.834034771e-21
1.238115028e-20
7.192182816e-21
2.534364975e-21
1.133245456e-20
7.099081143e-21
1.676234751e-22
2.407126815e-21
2.595677746e-21
5.104577959e-22
8.340333944e-21
2.34442309e-21
3.019171696e-21
1.86905015e-21
4.415426572e-21
1.41786035e-21
4.040849312e-21
7.165912367e-22
9.062480109e-21
2.679257687e-22
1.391636326e-21
3.752631289e-21
2.422096005e-21
5.683296698e-21
3.668485427e-21
1.376764585e-21
4.814183337e-21
2.407363048e-22
1.138862137e-20
8.096936002e-22
1.662110089e-21
1.01230356e-20
1.403467579e-21
3.165046874e-21
3.137531319e-21
1.096136612e-21
1.191934438e-21
8.412939812e-22
7.572592317e-22
1.33937138e-21
1.636663202e-22
1.743777098e-21
1.108290097e-21
3.935031351e-21
2.974225311e-21
1.604353851e-21
3.257898907e-21
5.792067294e-21
2.504157284e-21
7.817838292e-23
3.429831277e-21
9.642422599e-22
2.751104681e-21
8.731304921e-22
3.086838213e-22
3.79001795e-22
1.478356464e-21
8.250921774e-21
6.808002054e-22
3.899400351e-21
1.63665579e-21
9.159412243e-21
4.299736186e-21
2.944431311e-21
1.403650327e-20
1.487635541e-20
6.544782087e-21
7.970256971e-21
1.101180929e-21
2.761408045e-21
1.440119275e-20
3.007595973e-21
1.93910623e-21
8.191935241e-21
1.536542249e-21
1.756795801e-21
3.634709741e-22
7.059170004e-22
1.213475763e-21
7.955488022e-21
5.575976494e-23
5.292567431e-22
7.889009145e-21
2.365121041e-22
7.758766378e-23
5.20196325e-22
6.116785377e-21
2.691918696e-21
6.13089908e-22
5.745901048e-21
5.586231613e-21
3.079716487e-21
4.347130337e-21
1.52743641e-21
4.643017155e-22
9.973143021e-21
1.481949388e-21
3.334429165e-21
8.051071557e-22
5.79882344e-21
1.826492819e-20
2.674434614e-22
2.405194291e-21
5.281070622e-21
7.70195104e-21
1.434355122e-21
9.465721283e-21
1.241308578e-21
8.857898029e-21
6.084725731e-21
7.697600776e-21
7.046543156e-22
9.723641732e-21
3.747883823e-21
3.783701295e-21
5.021154766e-21
7.675245111e-21
6.007798729e-21
9.43793196e-21
2.083399701e-20
1.621973513e-20
8.437485969e-22
1.399069059e-20
8.141607126e-23
2.052218433e-21
7.919385426e-22
8.028765424e-22
1.29059154e-21
3.582960617e-21
1.395909035e-21
1.228874281e-21
1.004808362e-21
1.108164118e-21
2.208384876e-21
2.559112469e-21
3.938164802e-21
3.807928232e-21
1.034859806e-20
1.38593325e-21
6.416183237e-21
2.216807066e-21
1.662059054e-21
1.947512351e-21
5.133857951e-22
1.435952534e-21
9.08003536e-22
2.190840217e-22
9.822726127e-21
7.448647743e-21
8.11431122e-22
1.42148283e-21
2.498854073e-21
1.08473469e-21
5.418678747e-22
2.157966652e-20
2.149804282e-21
8.925732876e-21
2.39982366e-21
5.341104045e-22
6.306620271e-21
6.585196717e-22
1.040707048e-21
2.560392913e-21
3.646689872e-21
2.268424706e-21
5.815898237e-22
5.76198474e-21
1.120529377e-20
1.99975188e-21
3.540616915e-22
1.955802499e-21
4.963542269e-23
2.019099056e-21
1.157410813e-21
6.165122377e-22
3.211461468e-21
5.178272499e-21
4.191410535e-21
1.601526671e-21
2.856211936e-22
8.663552403e-22
1.092113409e-21
1.306073514e-21
5.717945865e-21
1.406436165e-21
4.221093837e-22
7.411369473e-21
9.057722336e-22
7.028235971e-22
1.264613356e-21
6.856239895e-21
6.224571894e-23
3.241551326e-21
4.404418774e-21
2.963176998e-21
7.446657769e-21
4.633392512e-21
5.827708701e-21
5.700389296e-21
1.693485617e-21
1.067965934e-20
5.898759759e-22
6.553449847e-22
2.411956938e-21
8.537913778e-23
1.940542567e-21
3.827605544e-21
5.894353186e-21
4.165853746e-21
5.510635616e-21
2.318797773e-21
1.290036537e-21
2.40561841e-21
1.027126065e-21
4.222361517e-21
1.487627983e-20
9.396685956e-22
5.68288334e-22
4.11118273e-22
2.398042403e-22
1.178460335e-21
1.981431691e-21
3.426100174e-22
6.354770623e-23
1.17722674e-20
9.008606113e-21
7.50634376e-22
8.415737022e-21
1.271426611e-21
1.231027445e-20
4.926532676e-21
4.684094783e-21
3.139238494e-21
2.715286515e-21
1.569785236e-22
2.872959928e-21
9.743517715e-21
1.808221907e-20
1.499086384e-21
3.225943838e-21
9.410346241e-22
1.495390411e-21
4.083680602e-22
3.562077982e-22
7.415191506e-21
2.82573241e-21
1.2030421e-20
1.019925871e-21
1.413508851e-22
1.353934898e-21
1.10954047e-21
1.305078488e-20
2.119404682e-20
5.422031694e-21
1.176591437e-20
2.558961549e-21
4.53045943e-21
5.876273197e-22
1.514460295e-22
1.038838648e-21
5.334932248e-21
1.795725658e-21
3.00140262e-21
3.194425955e-22
5.524538429e-21
5.056535344e-22
6.931515809e-22
3.766092221e-21
2.717875801e-21
9.188764626e-22
2.873715247e-21
7.773761966e-22
6.130407508e-22
1.608827748e-21
1.255954905e-21
5.074259437e-21
5.520530236e-22
8.842058846e-22
8.259975414e-21
4.92100414e-21
1.316507478e-21
5.139705319e-21
1.553612704e-21
5.927086122e-21
2.668973834e-21
7.871382018e-21
4.595642521e-21
8.817408352e-22
7.422569448e-21
7.061893919e-21
2.280209746e-21
1.78976541e-21
2.006381359e-22
2.420306124e-20
1.262852348e-21
1.688734735e-21
9.417434178e-23
3.408396793e-21
4.800847383e-22
4.136200695e-21
1.346782786e-20
2.40940078e-21
1.517369447e-21
2.769405931e-21
3.998738847e-21
2.796827304e-21
1.376061409e-20
4.126176399e-21
1.975735722e-21
1.531739495e-20
2.436126031e-21
2.829734732e-21
3.670842706e-21
6.020519759e-21
1.077687136e-21
3.938973459e-21
6.36840232e-21
4.336839049e-21
5.052666851e-21
3.039432697e-21
1.770063692e-22
2.033588224e-21
4.633324424e-21
5.719810084e-21
1.195231375e-20
3.50715737e-22
1.212802229e-21
1.690818749e-21
2.842493477e-22
8.985964978e-21
8.920526419e-22
4.551245321e-21
1.247742421e-22
6.94223488e-21
2.324680355e-21
2.269512352e-21
1.958836685e-20
6.889260484e-21
4.15854578e-21
7.282923964e-21
4.130220243e-21
4.113246172e-23
7.777618647e-21
2.928150531e-21
4.070928024e-21
1.219153924e-21
3.519603844e-21
3.718404553e-21
5.582083435e-21
2.799365973e-21
6.041848436e-21
1.61980765e-21
6.844329419e-21
1.823455305e-20
7.21964486e-21
5.108955045e-21
1.570340083e-22
2.607793906e-22
5.440085076e-22
9.080719698e-23
7.210441766e-24
1.082118774e-20
2.401671086e-21
7.004184782e-22
4.676011341e-21
5.950311035e-22
2.615347647e-21
5.814714292e-21
1.971164038e-21
3.657360826e-21
7.378096546e-22
1.634313223e-21
3.059416843e-21
1.908955007e-21
8.277291092e-22
3.509539236e-21
4.890618104e-21
1.090061698e-20
7.304232396e-22
7.809668506e-21
7.746689715e-22
1.189730148e-20
2.846836119e-21
6.794370543e-22
6.106687352e-22
1.377286037e-21
6.43400098e-21
1.365671605e-20
5.13425657e-22
9.739870708e-21
8.921075855e-21
1.734219856e-21
4.006769732e-22
3.659809622e-22
3.355075745e-21
7.194403583e-22
4.327888619e-22
3.927778796e-21
3.475946853e-21
2.503183803e-21
7.279588338e-22
3.935916684e-21
1.660016625e-21
5.724596106e-21
1.141790223e-21
4.730602686e-21
4.024096091e-21
8.438840236e-22
2.759719992e-21
1.345599926e-21
1.725214426e-21
8.553564127e-23
6.53837148e-21
5.10769537e-21
4.070378588e-21
2.337607904e-21
1.836565191e-22
5.362373499e-21
3.60427029e-22
9.499387259e-22
7.321485659e-21
1.91710991e-21
4.726840196e-21
1.97272847e-21
1.137051117e-21
1.593241655e-21
2.702543278e-21
6.517112521e-21
1.14946991e-21
1.592413784e-21
1.200697009e-20
5.848107109e-22
9.704113257e-22
9.974676297e-21
2.404968402e-21
1.677701056e-21
1.494902853e-22
2.826731678e-22
3.233318375e-21
1.725345163e-21
2.695009423e-21
2.999907484e-22
2.272988819e-20
3.967295052e-21
5.307670637e-21
2.110264518e-21
1.478874886e-21
7.823614055e-21
3.650605987e-21
6.239685888e-21
8.856591728e-22
1.623616566e-22
1.121161125e-21
8.567296805e-21
4.163986661e-21
5.024334905e-21
1.657053876e-21
3.043887141e-21
5.345971562e-22
8.751109747e-22
3.323011977e-21
2.247667876e-21
3.157765847e-21
4.799790291e-22
5.137166061e-22
5.427852273e-21
1.768872316e-22
6.301876215e-21
8.164391325e-21
4.211186695e-21
4.147380073e-21
3.410032425e-21
1.397684776e-21
7.949798776e-21
4.939053664e-21
1.48135867e-21
3.119189171e-21
2.384524435e-21
5.788675442e-21
5.390706438e-21
6.64430048e-21
5.82903519e-21
3.336496918e-21
3.037417066e-21
5.956278317e-21
2.076823468e-20
3.192561496e-21
3.87020382e-21
1.647339674e-21
1.115023123e-21
1.380067421e-20
8.326011814e-21
3.33104257e-22
6.008820411e-21
3.032602323e-21
2.536939298e-21
2.583078993e-21
1.401574716e-21
3.956796275e-22
4.085449048e-21
1.45179545e-21
2.059777979e-21
4.638711646e-22
1.623982874e-20
1.347714164e-21
1.068996506e-20
9.508908906e-21
2.429568342e-21
5.240872783e-22
9.877314335e-21
1.322547096e-20
2.827844967e-22
9.783801834e-22
5.314960844e-21
5.176915855e-22
1.289468147e-21
3.31921759e-21
4.262794192e-21
2.795674322e-22
7.848692023e-21
6.490736367e-22
5.002705734e-21
3.928706542e-21
3.758766945e-21
5.736135832e-21
1.085994093e-20
1.605411163e-22
1.223083777e-20
2.453027343e-21
2.520738282e-21
9.04999404e-22
4.089631002e-21
3.433927676e-21
5.791838087e-21
1.382071178e-20
4.997090553e-21
2.814031611e-21
1.258576483e-21
9.211076944e-22
6.518254337e-21
1.473641125e-21
2.707202155e-21
2.172465899e-21
6.629055885e-21
9.146256904e-21
3.10416512e-21
2.515331638e-21
1.160065342e-20
1.201117687e-21
6.425109384e-22
1.925653502e-21
1.183022211e-22
5.960637019e-21
2.930442553e-21
1.989362255e-21
1.459019057e-21
1.153250739e-20
4.639936821e-21
5.124923119e-21
7.693793457e-23
3.739413184e-21
3.906038455e-21
7.008206724e-21
5.987664854e-21
6.590428641e-21
1.886835713e-21
2.938461796e-21
1.14385779e-20
1.532470448e-20
6.477205703e-22
3.285794312e-21
2.171678002e-23
3.505629541e-21
5.108765106e-21
1.097490557e-21
1.434356044e-21
3.325980928e-22
4.508855215e-21
8.832047529e-21
5.791151195e-21
6.039400707e-22
1.598570793e-21
1.091105227e-20
3.751441531e-21
4.286472971e-21
6.346322191e-21
1.361399932e-20
5.648279239e-22
5.680222961e-21
2.695615698e-21
1.828990633e-20
1.61023055e-22
5.062180806e-21
6.039276124e-21
4.104287281e-22
1.55580139e-20
8.81650227e-22
4.352404301e-21
7.069425994e-22
3.043650219e-21
2.165998265e-21
2.089782834e-21
1.027278157e-20
1.702315039e-21
2.228725314e-21
6.718141124e-21
6.03763544e-22
2.330520473e-21
8.733810716e-22
8.47690013e-21
8.069295664e-21
9.108647128e-21
8.770755044e-22
2.033812419e-21
3.939096712e-21
1.563488231e-22
2.495908447e-21
3.719242389e-21
1.799947423e-22
3.458245522e-21
2.173168076e-21
1.57362758e-21
2.90752624e-21
6.619878225e-21
1.495846621e-21
1.830666394e-21
1.622867078e-21
1.306517101e-21
2.216298987e-21
5.356070164e-21
3.045362588e-21
4.903843666e-24
4.744338186e-21
4.758312127e-21
1.409883692e-21
7.27152749e-22
6.894986386e-21
2.145525669e-21
4.459723169e-21
2.181413064e-22
1.113425637e-21
3.048192779e-21
6.066722791e-21
7.99782576e-21
1.876498996e-20
8.394201514e-22
1.119990671e-21
4.357432769e-21
1.554605149e-22
1.641923919e-21
9.808725378e-22
1.307059555e-21
2.460538762e-21
3.429422605e-21
3.547354657e-21
4.566353782e-21
3.821902921e-21
3.837339421e-22
3.10881113e-21
2.746054555e-21
1.730044196e-22
3.621644676e-21
1.161145194e-21
2.489826347e-22
4.657653352e-21
2.631667853e-21
3.308698303e-21
3.798185386e-21
4.3581171e-21
5.119744264e-21
1.569214695e-21
1.693728751e-21
4.8268709e-21
8.072477997e-21
4.956431033e-21
8.142481619e-21
6.803001292e-21
1.826897511e-21
2.769947432e-22
8.393287873e-21
2.066652761e-21
6.35175075e-22
7.87902826e-22
2.691157361e-21
7.058812578e-22
3.646732544e-22
1.16870108e-22
1.561104081e-21
3.580649738e-22
1.726291143e-21
8.977719877e-21
1.426970746e-20
2.91932165e-21
4.140382746e-21
4.262543578e-21
4.912165238e-21
2.23951007e-22
2.259053784e-21
2.40587595e-21
2.118548723e-21
2.145880033e-21
1.093540685e-20
1.472185561e-22
1.157309125e-22
2.991913636e-21
1.671331857e-22
2.314935394e-22
3.614102634e-21
1.110938823e-20
4.713068667e-21
3.056852954e-21
1.933071592e-20
3.531254921e-21
3.492818445e-21
6.825741352e-21
3.263959406e-21
3.901756434e-22
8.846429838e-21
6.604323201e-22
2.257558537e-21
8.331615915e-22
2.273617396e-21
1.131255962e-21
6.00337451e-21
4.190539553e-21
7.09631723e-22
1.311137211e-20
4.094837019e-22
9.951401448e-22
6.774154854e-21
7.086759001e-21
1.188775538e-20
2.202233378e-21
2.684404936e-22
1.545648169e-21
4.734257717e-21
1.607322095e-21
6.524538434e-21
1.261057852e-21
1.534142407e-21
2.424606227e-21
1.382064831e-20
2.30587115e-21
1.101865838e-21
1.830940791e-20
1.05192102e-21
3.864521987e-21
9.130824378e-21
3.457628131e-21
1.223870694e-21
9.105014843e-21
8.959888139e-22
8.455845901e-22
2.321506089e-22
1.313057855e-20
9.807648778e-21
8.772699034e-22
2.211445833e-20
1.810825509e-21
7.407756193e-22
6.762692803e-21
7.457324468e-21
4.383483806e-21
2.567920845e-21
1.292819917e-21
2.66367566e-21
1.073483207e-21
6.641416371e-21
5.216594853e-21
2.819442269e-22
7.855945601e-21
5.194572176e-21
2.698805516e-21
1.316043273e-21
1.402115937e-21
6.317731109e-21
3.764292921e-21
3.478060378e-22
1.281232028e-21