/*--------------------------------*- C++ -*----------------------------------*\
| =========                 |                                                 |
| \\      /  F ield         | OpenFOAM: The Open Source CFD Toolbox           |
|  \\    /   O peration     | Version:  2406                                  |
|   \\  /    A nd           | Website:  www.openfoam.com                      |
|    \\/     M anipulation  |                                                 |
\*---------------------------------------------------------------------------*/
FoamFile
{
    version     2.0;
    format      ascii;
    arch        "LSB;label=32;scalar=64";
    class       labelField;
    location    "0.003/lagrangian/dsmc";
    object      origId;
}
// * * * * * * * * * * * * * * * * * * * * * * * * * * * * * * * * * * * * * //


5160
(
128738
129387
129392
129400
129401
129419
129424
129463
129587
129620
129659
129754
129845
129847
129872
129908
129929
129941
129948
129983
130032
130035
130053
130113
130122
130123
130127
130148
130178
130194
130195
130196
130207
130223
130237
130258
130269
130270
130291
130296
130297
130302
130309
130312
130316
130318
130328
130334
130357
130359
130366
130375
130379
130382
130383
130387
130390
130401
130406
130410
130432
130436
130445
130451
130452
130461
130463
130466
130469
130471
130477
130484
152396
130521
130523
130524
130529
130530
130543
130544
130547
130556
130571
130574
130604
130609
130620
130624
130625
130631
130637
130638
130640
130646
130658
130665
130675
130690
130695
130699
130701
130702
130703
130706
130709
130711
130712
130717
130720
130723
130732
130733
130736
130738
130752
130757
130779
130781
130786
130789
130792
130793
130794
130797
130803
130804
130806
130807
130813
130815
130816
130820
130827
130829
130834
130840
130843
130850
130877
130880
130884
130885
130887
130890
130893
130897
130900
130903
130904
130908
130909
130915
130916
130919
130923
130924
130925
130934
130936
130938
151575
130961
130964
130965
130967
130973
130974
130975
130976
130979
130982
130984
130990
130992
130993
130994
130998
130999
131000
131002
131006
131007
131009
131016
131017
131020
131024
131025
131026
131029
153012
131045
131046
131047
131052
131053
131054
131060
131063
131067
131068
131069
131070
131071
131072
131074
131076
131077
131078
131079
131081
131083
131084
131085
131087
131089
131090
131094
131096
131103
131105
131106
131111
131113
131116
131117
131118
131123
131126
152804
131146
131148
131149
131152
131154
131156
131158
131161
131164
131165
131167
131168
131170
131171
131172
131173
131179
131180
131181
131183
131184
131185
131186
131187
131188
131191
131192
131195
131196
131198
131200
131202
131206
131207
131208
131209
131215
131216
131220
151370
131229
131230
131234
131235
131236
131237
131238
131239
131240
131242
131244
131245
131246
131248
131249
131250
131251
131252
131253
131258
131260
131262
131263
131264
131266
131269
131270
131271
131272
131273
131274
131275
131278
131280
131282
131283
131284
131286
131287
131289
131290
131291
131292
131293
131295
131299
131300
131301
131303
131304
131308
153014
131322
131327
131329
131331
131336
131337
131339
131341
131342
131343
131344
131345
131346
131347
131349
131352
131355
131356
131357
131359
131362
131366
131368
131369
131370
131371
131373
131374
131375
131377
131379
131381
131382
131383
131384
131385
131387
131388
131389
131390
131392
131395
152606
152911
131405
131408
131409
131411
131414
131415
131421
131423
131426
131427
131428
131429
131430
131431
131432
131433
131434
131435
131436
131437
131438
131439
131440
131442
131444
131445
131447
131448
131449
131451
131452
131454
131456
131457
131458
131459
131461
131462
131463
131465
131466
131470
131472
131474
131475
131479
131484
131485
131486
131493
131494
131497
131499
131500
131501
131502
131503
131505
131507
131508
131509
131510
131511
131512
131513
131514
131515
131516
131517
131520
131521
131523
131527
131529
131530
131531
131533
131534
131535
131536
131537
131538
131539
131541
131543
131544
131545
131547
131548
131549
131553
131554
131556
131558
131559
131560
131561
131562
131563
131564
131577
131578
131579
131580
131581
131583
131584
131585
131587
131588
131589
131591
131594
131595
131596
131597
131598
131599
131600
131602
131604
131605
131606
131607
131608
131609
131610
131611
131612
131614
131615
131616
131618
131619
131620
131621
131622
131623
131624
131625
131626
131627
131628
131629
131632
131633
131634
131635
131636
131637
131638
131639
131642
131643
131644
131646
131647
131649
131650
131651
131653
153006
131664
131665
131668
131672
131673
131674
131675
131676
131677
131679
131680
131681
131682
131683
131684
131685
131686
131688
131690
131691
131692
131694
131695
131696
131697
131698
131699
131700
131702
131703
131705
131706
131707
131708
131709
131710
131711
131712
131714
131715
131716
131717
131718
131720
131721
131722
131723
131724
131726
131730
131731
131733
131741
131743
151680
131750
131752
131755
131757
131758
131759
131760
131762
131765
131766
131767
131768
131770
131771
131772
131773
131774
131775
131776
131777
131778
131779
131781
131782
131783
131784
131785
131786
131788
131789
131790
131791
131793
131794
131795
131796
131797
131798
131799
131801
131802
131804
131805
131806
131808
131810
131812
131813
131814
131815
131818
131820
131823
131829
131831
131834
131835
131837
131838
131839
131840
131841
131843
131844
131845
131846
131848
131849
131850
131851
131852
131854
131855
131856
131857
131858
131859
131860
131862
131863
131865
131866
131867
131868
131870
131872
131874
131876
131877
131878
131879
131881
131882
131883
131885
131886
131887
131888
131889
131891
131892
131893
131894
131895
131897
131898
131900
131901
131902
131903
131904
131908
131911
131920
131921
131925
131929
131930
131931
131933
131934
131935
131936
131937
131938
131939
131940
131941
131942
131943
131944
131945
131946
131947
131948
131949
131950
131951
131952
131953
131954
131955
131956
131957
131958
131959
131960
131961
131962
131963
131964
131965
131966
131968
131970
131971
131972
131974
131976
131977
131978
131979
131980
131982
131985
131986
131987
131989
131990
131992
131993
131996
131999
153929
132007
132009
132010
132015
132016
132018
132019
132020
132021
132022
132023
132024
132025
132026
132027
132028
132029
132030
132032
132033
132034
132035
132036
132037
132038
132039
132041
132042
132043
132044
132045
132046
132047
132048
132049
132050
132052
132053
132054
132055
132056
132057
132058
132059
132060
132061
132062
132063
132065
132066
132067
132070
132071
132073
132076
153728
132085
132087
132091
132093
132096
132098
132099
132100
132102
132103
132104
132105
132106
132107
132108
132109
132110
132111
132112
132114
132115
132116
132117
132118
132119
132120
132121
132122
132123
132124
132125
132126
132127
132128
132129
132130
132131
132132
132133
132134
132135
132136
132137
132138
132139
132140
132141
132142
132143
132144
132145
132146
132147
132149
132150
132151
132152
132153
132154
132155
132157
132158
132159
132161
132163
132164
132166
132169
132170
132179
132181
132182
132183
132184
132185
132186
132187
132188
132189
132190
132191
132192
132193
132194
132195
132196
132197
132198
132199
132200
132201
132203
132204
132205
132206
132207
132208
132209
132210
132211
132212
132213
132214
132215
132216
132217
132218
132219
132220
132221
132222
132223
132224
132225
132226
132227
132228
132229
132230
132231
132232
132233
132234
132235
132236
132237
132238
132239
132240
132241
132242
132243
132244
132245
132247
132251
132254
153114
132268
132269
132270
132271
132273
132275
132276
132278
132279
132280
132281
132282
132283
132284
132285
132286
132287
132288
132289
132290
132291
132292
132293
132294
132295
132296
132297
132298
132299
132300
132301
132302
132303
132304
132305
132306
132307
132308
132309
132310
132311
132312
132313
132314
132315
132316
132317
132318
132319
132320
132321
132322
132323
132324
132325
132326
132327
132328
132329
132330
132331
132332
132333
132334
132336
132337
132339
132340
132342
132344
132346
132348
132350
153425
132366
132367
132370
132371
132373
132374
132376
132377
132378
132379
132381
132382
132383
132384
132386
132387
132389
132390
132391
132392
132393
132394
132395
132396
132397
132398
132399
132400
132401
132402
132403
132404
132405
132406
132407
132408
132409
132410
132411
132412
132413
132414
132415
132416
132417
132418
132419
132420
132421
132422
132423
132425
132426
132427
132428
132429
132430
132431
132433
132434
132435
132437
132438
132439
132442
132443
132444
132445
154139
132458
132459
132462
132464
132465
132467
132468
132469
132470
132471
132472
132473
132474
132475
132476
132477
132478
132479
132480
132481
132482
132483
132484
132485
132486
132487
132488
132490
132491
132492
132493
132494
132495
132496
132497
132498
132499
132500
132501
132502
132503
132504
132505
132506
132507
132508
132510
132511
132513
132514
132515
132516
132517
132518
132519
132526
132528
132531
132533
132534
132538
153726
153829
154547
132546
132550
132552
132553
132554
132557
132558
132559
132560
132561
132562
132563
132564
132565
132566
132567
132568
132569
132570
132571
132572
132573
132574
132575
132576
132577
132578
132579
132580
132581
132582
132583
132584
132585
132586
132587
132588
132589
132590
132591
132592
132593
132594
132595
132596
132597
132598
132599
132600
132601
132602
132603
132604
132605
132606
132607
132608
132609
132610
132611
132614
132615
132616
132618
132621
132626
132628
132629
132631
132632
132633
132636
132637
132638
132639
132640
132641
132642
132643
132644
132645
132646
132649
132650
132651
132652
132653
132654
132655
132656
132657
132658
132659
132660
132661
132662
132663
132664
132665
132666
132667
132668
132669
132670
132671
132672
132673
132674
132675
132676
132677
132678
132679
132680
132681
132682
132683
132684
132685
132686
132687
132688
132689
132690
132691
132692
132693
132694
132695
132696
132697
132698
132700
132704
132706
132709
132710
132711
132712
132715
153729
154138
131922
132725
132728
132730
132731
132732
132733
132734
132736
132737
132739
132740
132741
132742
132743
132744
132745
132746
132747
132748
132749
132750
132751
132752
132753
132754
132755
132756
132757
132758
132759
132760
132761
132762
132763
132764
132765
132766
132767
132768
132769
132770
132771
132772
132773
132774
132775
132776
132777
132778
132779
132782
132783
132784
132785
132786
132787
132790
132792
132793
132797
132798
132799
151562
155063
132808
132809
132811
132812
132813
132814
132815
132817
132819
132820
132821
132822
132823
132825
132826
132827
132828
132829
132830
132831
132832
132833
132834
132835
132836
132838
132839
132840
132841
132842
132843
132844
132845
132846
132847
132848
132849
132851
132852
132853
132854
132855
132856
132857
132858
132859
132860
132861
132862
132863
132864
132865
132867
132868
132869
132870
132871
132872
132873
132874
132876
132877
132878
132879
132880
132881
132883
132886
153718
132893
132895
132896
132897
132898
132899
132900
132901
132902
132903
132904
132905
132906
132907
132908
132909
132910
132911
132913
132914
132915
132916
132917
132918
132919
132920
132921
132922
132923
132924
132925
132926
132927
132928
132929
132930
132931
132932
132933
132934
132935
132936
132937
132938
132939
132940
132941
132942
132943
132944
132945
132947
132948
132949
132950
132951
132952
132953
132954
132955
132957
132958
132959
132960
132961
132962
132963
132964
132965
132966
132967
132969
132971
132972
132973
153825
154130
132975
132976
132979
132980
132983
132984
132985
132986
132987
132988
132989
132990
132991
132992
132993
132996
132997
132998
132999
133000
133001
133002
133003
133004
133005
133006
133007
133008
133009
133010
133011
133012
133013
133014
133015
133016
133017
133018
133019
133020
133021
133022
133023
133024
133025
133026
133027
133028
133030
133031
133032
133033
133034
133036
133038
133039
133040
133042
133044
133045
133048
133051
133052
133053
133055
154439
155361
133064
133065
133066
133067
133068
133069
133070
133071
133072
133073
133074
133075
133076
133078
133079
133080
133082
133083
133084
133085
133086
133087
133088
133089
133090
133091
133092
133093
133094
133095
133096
133097
133098
133099
133100
133101
133102
133103
133104
133105
133106
133107
133108
133109
133110
133111
133112
133113
133114
133115
133116
133117
133118
133119
133120
133121
133122
133123
133124
133125
133126
133127
133128
133129
133130
133131
133132
133133
133134
133135
133136
133137
133138
133139
133141
133145
133148
133149
130689
133156
133158
133159
133160
133161
133162
133163
133164
133165
133166
133167
133168
133169
133170
133171
133172
133173
133174
133175
133176
133177
133178
133179
133180
133181
133182
133183
133184
133185
133186
133187
133188
133189
133190
133191
133192
133193
133194
133195
133196
133197
133198
133199
133200
133201
133202
133203
133204
133205
133206
133207
133208
133209
133210
133211
133212
133213
133214
133215
133216
133217
133218
133219
133220
133221
133223
133224
133225
133227
133228
133229
133230
133232
154129
133242
133243
133245
133246
133247
133248
133249
133250
133251
133252
133253
133254
133255
133256
133257
133258
133259
133260
133261
133262
133263
133264
133265
133266
133267
133268
133269
133270
133271
133272
133273
133274
133275
133276
133277
133278
133279
133280
133281
133282
133283
133284
133285
133286
133287
133288
133289
133290
133291
133292
133293
133294
133295
133297
133298
133299
133300
133301
133302
133303
133305
133306
133307
133308
133312
133313
133314
154548
133316
133319
133320
133323
133324
133325
133326
133327
133328
133329
133330
133331
133332
133333
133334
133335
133336
133337
133338
133339
133340
133341
133342
133343
133344
133345
133346
133347
133348
133349
133350
133351
133352
133353
133354
133355
133356
133357
133358
133359
133360
133361
133362
133363
133364
133365
133366
133367
133368
133369
133370
133371
133372
133373
133374
133375
133376
133377
133378
133379
133380
133381
133382
133383
133384
133385
133386
133387
133388
133389
133390
133391
133393
133397
133398
133399
152909
154132
154335
130784
133405
133406
133408
133409
133410
133411
133412
133413
133414
133415
133416
133418
133420
133421
133422
133423
133424
133425
133426
133427
133428
133429
133430
133431
133432
133433
133434
133435
133436
133437
133438
133439
133440
133441
133442
133443
133444
133445
133446
133447
133448
133449
133450
133451
133452
133453
133454
133455
133456
133457
133458
133459
133460
133461
133462
133463
133464
133465
133466
133467
133468
133469
133470
133471
133473
133474
133475
133476
133477
133478
133479
133481
133482
133484
133485
133486
133488
133489
133490
153320
153722
154855
154953
131321
154438
133504
133505
133506
133507
133509
133510
133511
133512
133513
133514
133515
133517
133518
133519
133520
133521
133522
133523
133524
133525
133526
133527
133528
133529
133530
133531
133532
133533
133534
133535
133536
133537
133538
133539
133540
133541
133542
133543
133544
133545
133546
133547
133548
133549
133550
133551
133552
133553
133554
133555
133556
133557
133558
133559
133560
133561
133562
133563
133564
133565
133566
133567
133568
133569
133570
133571
133572
133573
133574
133578
133580
133581
133582
133584
133585
154337
155267
155272
155571
155774
133593
133594
133595
133596
133597
133598
133599
133600
133601
133602
133604
133605
133606
133607
133608
133609
133610
133611
133612
133613
133614
133615
133616
133617
133618
133619
133620
133621
133622
133623
133624
133625
133626
133627
133628
133629
133630
133631
133632
133633
133634
133635
133636
133637
133638
133639
133640
133641
133642
133643
133644
133646
133647
133648
133649
133650
133651
133652
133653
133654
133655
133656
133657
133658
133659
133660
133661
133663
133664
133668
133669
133671
133672
155170
133676
133678
133679
133680
133681
133682
133683
133684
133685
133686
133687
133688
133689
133690
133691
133692
133693
133694
133695
133696
133697
133698
133699
133700
133701
133702
133703
133704
133705
133706
133707
133708
133709
133710
133711
133712
133713
133714
133715
133716
133717
133718
133719
133720
133721
133722
133723
133724
133725
133726
133727
133728
133729
133730
133731
133732
133733
133734
133735
133736
133737
133738
133739
133740
133741
133744
133745
133748
133750
133752
133753
133754
133755
133756
153206
133760
133761
133765
133766
133768
133769
133770
133771
133772
133773
133774
133775
133776
133777
133778
133779
133780
133781
133782
133783
133784
133785
133786
133787
133788
133789
133790
133791
133792
133793
133794
133795
133796
133797
133798
133799
133800
133801
133802
133803
133804
133805
133806
133807
133808
133809
133810
133811
133812
133813
133814
133815
133816
133817
133818
133819
133820
133821
133822
133823
133824
133825
133826
133829
133831
133832
133833
133835
133836
133838
133839
133840
133841
133843
151879
155770
133850
133853
133855
133856
133857
133858
133859
133860
133861
133863
133864
133865
133866
133867
133868
133869
133871
133872
133873
133874
133875
133876
133877
133878
133879
133880
133881
133882
133883
133884
133885
133886
133887
133888
133889
133890
133891
133892
133893
133894
133895
133896
133897
133898
133899
133900
133901
133902
133903
133904
133905
133906
133907
133908
133909
133910
133911
133912
133913
133914
133915
133916
133918
133919
133920
133922
133923
133924
133925
133926
133927
133930
133932
133933
133934
133935
133936
133937
152902
153418
153616
155273
155462
155976
156392
133946
133947
133950
133951
133952
133954
133955
133956
133957
133958
133959
133960
133961
133962
133963
133964
133965
133966
133967
133968
133969
133970
133971
133972
133973
133974
133975
133976
133977
133978
133979
133980
133981
133982
133983
133984
133985
133986
133987
133988
133989
133990
133991
133992
133993
133994
133995
133996
133997
133998
133999
134000
134001
134002
134003
134004
134005
134006
134007
134008
134009
134010
134011
134012
134013
134015
134018
134019
134020
134022
134024
134025
134026
134027
154442
155667
134040
134041
134042
134043
134045
134046
134047
134048
134049
134050
134051
134052
134053
134054
134055
134056
134057
134058
134059
134060
134061
134062
134063
134064
134065
134066
134067
134068
134069
134070
134071
134072
134073
134074
134075
134076
134077
134078
134079
134080
134081
134082
134083
134084
134085
134086
134087
134088
134089
134090
134091
134092
134093
134094
134095
134096
134097
134098
134099
134100
134101
134102
134103
134104
134105
134106
134107
134108
134109
134110
134113
134114
134115
134116
152795
156073
134120
134121
134122
134123
134124
134125
134126
134127
134128
134129
134130
134131
134132
134133
134134
134135
134136
134137
134138
134139
134140
134141
134142
134143
134144
134145
134146
134147
134148
134149
134150
134151
134152
134153
134154
134155
134156
134157
134158
134159
134160
134161
134162
134163
134164
134165
134166
134167
134168
134169
134170
134171
134172
134173
134174
134175
134176
134177
134178
134179
134180
134181
134183
134184
134185
134186
134187
134188
134189
134190
134192
134194
134195
134196
134197
134198
134200
134201
134202
152488
134206
134207
134208
134211
134212
134214
134215
134217
134218
134219
134220
134221
134222
134223
134224
134225
134226
134227
134228
134229
134230
134231
134232
134233
134234
134235
134236
134237
134238
134239
134240
134241
134242
134243
134244
134245
134246
134247
134248
134249
134250
134251
134252
134253
134254
134255
134256
134257
134258
134259
134260
134261
134262
134263
134264
134265
134266
134267
134268
134269
134270
134271
134272
134273
134274
134275
134277
134278
134280
134281
134285
134286
134287
134288
134289
134290
153111
153720
153924
154134
156274
134299
134301
134302
134303
134305
134306
134307
134308
134309
134310
134311
134313
134314
134315
134316
134317
134318
134319
134320
134321
134322
134323
134324
134325
134326
134327
134328
134329
134330
134331
134332
134333
134334
134335
134336
134337
134338
134339
134340
134341
134342
134343
134344
134345
134346
134347
134348
134349
134350
134351
134352
134353
134354
134355
134356
134357
134358
134359
134360
134361
134362
134363
134364
134365
134366
134367
134368
134369
134371
134372
134373
134374
134380
153210
154127
154733
155759
130772
156071
134382
134384
134385
134387
134389
134390
134391
134392
134393
134394
134395
134396
134397
134398
134399
134400
134401
134402
134403
134404
134405
134406
134407
134408
134409
134410
134411
134412
134413
134414
134415
134416
134417
134418
134419
134420
134421
134422
134423
134424
134425
134426
134427
134428
134429
134430
134431
134432
134433
134434
134435
134436
134437
134438
134439
134440
134441
134442
134443
134444
134445
134446
134448
134449
134451
134452
134454
134455
134456
134458
134459
134461
134462
152496
154549
156167
134466
134467
134468
134470
134471
134472
134473
134474
134475
134476
134477
134478
134479
134480
134481
134482
134483
134484
134485
134486
134487
134488
134489
134490
134491
134492
134493
134494
134495
134496
134497
134498
134499
134500
134501
134502
134503
134504
134505
134506
134507
134508
134509
134510
134511
134512
134513
134514
134515
134516
134517
134518
134519
134520
134521
134522
134523
134524
134525
134526
134527
134528
134529
134530
134531
134532
134534
134535
134536
134537
134538
134541
134544
134547
134548
134549
134550
134551
134552
134553
134554
153619
154952
154955
155970
156070
156386
156597
131927
134557
134558
134559
134560
134561
134562
134563
134564
134566
134567
134568
134569
134570
134571
134572
134573
134574
134575
134576
134577
134578
134579
134580
134581
134582
134583
134584
134585
134586
134587
134588
134589
134590
134591
134592
134593
134594
134595
134596
134597
134598
134599
134600
134601
134602
134603
134604
134605
134606
134607
134608
134609
134610
134611
134612
134613
134614
134615
134616
134617
134618
134619
134620
134621
134622
134623
134624
134625
134627
134630
134631
134633
134634
134635
134636
134637
134638
134639
134640
153318
132180
156593
134038
157204
134646
134648
134649
134651
134652
134653
134654
134655
134656
134657
134658
134659
134660
134661
134662
134663
134664
134665
134666
134667
134668
134669
134670
134671
134672
134673
134674
134675
134676
134677
134678
134679
134680
134681
134682
134683
134684
134685
134686
134687
134688
134689
134690
134691
134692
134693
134694
134695
134696
134697
134698
134699
134700
134701
134702
134703
134704
134705
134706
134707
134708
134709
134710
134711
134712
134713
134714
134715
134716
134717
134720
134721
134722
152889
154135
156173
134725
134726
134727
134728
134729
134730
134731
134732
134733
134734
134735
134736
134737
134738
134739
134740
134741
134742
134743
134744
134745
134746
134747
134748
134749
134750
134751
134752
134753
134754
134755
134756
134757
134758
134759
134760
134761
134762
134763
134764
134765
134766
134767
134768
134769
134770
134771
134772
134773
134774
134775
134776
134777
134778
134779
134780
134781
134782
134783
134784
134785
134786
134787
134788
134789
134790
134793
134794
134796
134797
134798
134799
134801
134802
134804
153612
154131
154649
155357
157203
131056
134808
134809
134810
134812
134813
134814
134815
134816
134817
134818
134819
134820
134821
134823
134824
134825
134826
134827
134828
134829
134830
134831
134832
134833
134834
134835
134836
134837
134838
134839
134840
134841
134842
134843
134844
134845
134846
134847
134848
134849
134850
134851
134852
134853
134854
134855
134856
134857
134858
134859
134860
134861
134862
134863
134864
134865
134866
134867
134868
134869
134870
134871
134872
134873
134874
134875
134876
134878
134879
134880
134881
134882
134884
134885
134888
134889
134890
134891
134892
134893
134894
134895
153106
155666
133240
157000
134902
134903
134905
134906
134907
134908
134910
134911
134912
134913
134914
134915
134916
134917
134918
134919
134920
134921
134922
134923
134924
134925
134926
134927
134928
134929
134930
134931
134932
134933
134934
134935
134936
134937
134938
134939
134940
134941
134942
134943
134944
134945
134946
134947
134948
134949
134950
134951
134952
134953
134954
134955
134956
134957
134958
134959
134960
134961
134962
134963
134964
134965
134966
134967
134968
134969
134971
134972
134973
134974
134975
134977
134979
134980
134981
134982
134983
134984
134985
134986
134987
134988
134989
155463
155659
155660
156273
157307
134992
134993
134995
134996
134997
134998
134999
135000
135001
135002
135003
135004
135005
135006
135007
135008
135009
135010
135011
135012
135013
135014
135015
135016
135017
135018
135019
135020
135021
135022
135023
135024
135025
135026
135027
135028
135029
135030
135031
135032
135033
135034
135035
135036
135037
135038
135039
135040
135041
135042
135043
135044
135045
135046
135047
135048
135049
135050
135051
135052
135053
135054
135055
135056
135057
135058
135059
135060
135061
135062
135063
135065
135066
135068
135070
135071
135072
135073
135074
135075
135077
155567
155965
156067
154033
157409
135079
135080
135082
135083
135084
135085
135087
135088
135089
135090
135091
135092
135093
135094
135095
135096
135097
135098
135099
135100
135101
135102
135103
135104
135105
135106
135107
135108
135109
135110
135111
135112
135113
135114
135115
135116
135117
135118
135119
135120
135121
135122
135123
135124
135125
135126
135127
135128
135129
135130
135131
135132
135133
135134
135135
135136
135137
135138
135139
135140
135141
135142
135143
135144
135145
135146
135147
135149
135150
135151
135152
135153
135154
135155
135156
135157
135159
135160
135161
135162
135164
135166
135167
154536
155269
155652
153427
155871
156271
156999
157502
135170
135171
135172
135173
135174
135175
135176
135178
135179
135180
135181
135182
135183
135184
135185
135186
135187
135188
135189
135190
135191
135192
135193
135194
135195
135196
135197
135198
135199
135200
135201
135202
135203
135204
135205
135206
135207
135208
135209
135210
135211
135212
135213
135214
135215
135216
135217
135218
135219
135220
135221
135222
135223
135224
135225
135226
135227
135228
135229
135230
135231
135232
135233
135234
135236
135238
135239
135240
135242
135243
135245
135246
135247
135248
135249
135250
135251
135252
135254
135255
135256
135257
135258
153723
154948
155058
155568
155658
156166
156906
135265
135268
135269
135270
135271
135272
135273
135274
135275
135276
135277
135278
135279
135280
135281
135282
135283
135284
135285
135286
135287
135288
135289
135290
135291
135292
135293
135294
135295
135296
135297
135298
135299
135300
135301
135302
135303
135304
135305
135306
135307
135308
135309
135310
135311
135312
135313
135314
135315
135316
135317
135318
135319
135320
135321
135322
135323
135324
135325
135326
135327
135328
135329
135330
135331
135332
135333
135334
135335
135336
135337
135338
135339
135340
135342
135343
135344
135346
135347
135348
135349
155271
157206
157607
135354
135355
135356
135357
135358
135359
135360
135361
135362
135363
135364
135365
135366
135367
135368
135369
135370
135371
135372
135373
135374
135375
135376
135377
135378
135379
135380
135381
135382
135383
135384
135385
135386
135387
135388
135389
135390
135391
135392
135393
135394
135395
135396
135397
135398
135399
135400
135401
135402
135403
135404
135405
135406
135407
135408
135409
135410
135411
135412
135413
135414
135415
135416
135417
135418
135419
135421
135422
135423
135424
135425
135426
135427
135428
135429
135430
135431
135434
135435
154642
154857
155968
157308
157611
158132
135437
135438
135440
135441
135442
135443
135444
135445
135446
135447
135448
135449
135450
135451
135452
135453
135454
135455
135456
135457
135458
135459
135460
135461
135462
135463
135464
135465
135466
135467
135468
135469
135470
135471
135472
135473
135474
135475
135476
135477
135478
135479
135480
135481
135482
135483
135484
135485
135486
135487
135488
135489
135490
135491
135492
135493
135494
135495
135496
135497
135498
135499
135500
135501
135502
135503
135504
135505
135506
135507
135508
135509
135510
135511
135512
135513
135514
135515
135516
135517
135518
135520
135521
135522
135523
156805
157920
135526
135527
135528
135529
135530
135531
135532
135533
135534
135535
135536
135537
135538
135539
135540
135541
135542
135543
135544
135545
135546
135547
135548
135549
135550
135551
135552
135553
135554
135555
135556
135557
135558
135559
135560
135561
135562
135563
135564
135565
135566
135567
135568
135569
135570
135571
135572
135573
135574
135575
135576
135577
135578
135579
135580
135581
135582
135583
135584
135585
135586
135587
135588
135589
135590
135591
135592
135593
135594
135595
135596
135597
135599
135600
135601
135602
135603
135604
135606
135607
135608
135609
135610
135611
135612
153923
156066
157199
157610
152598
158027
158133
135617
135618
135619
135620
135621
135622
135623
135624
135625
135626
135627
135628
135629
135630
135631
135632
135633
135634
135635
135636
135637
135638
135639
135640
135641
135642
135643
135644
135645
135646
135647
135648
135649
135650
135651
135652
135653
135654
135655
135656
135657
135658
135659
135660
135661
135662
135663
135664
135665
135666
135667
135668
135669
135670
135671
135672
135673
135674
135675
135676
135677
135678
135679
135680
135681
135682
135683
135684
135685
135686
135687
135688
135691
135693
135694
135695
135696
135697
135698
135699
135700
154424
156382
157099
134465
157918
158030
135701
135703
135704
135705
135706
135707
135708
135709
135710
135711
135712
135713
135714
135715
135716
135717
135718
135719
135720
135721
135722
135723
135724
135725
135726
135727
135728
135729
135730
135731
135732
135733
135734
135735
135736
135737
135738
135739
135740
135741
135742
135743
135744
135745
135746
135747
135748
135749
135750
135751
135752
135753
135754
135755
135756
135757
135758
135759
135760
135761
135762
135763
135764
135765
135766
135767
135768
135769
135770
135771
135772
135773
135774
135775
135776
135779
135780
135781
135782
135783
132891
132977
156491
157500
132806
135788
135789
135791
135792
135794
135795
135796
135797
135798
135799
135800
135801
135802
135803
135804
135805
135806
135807
135808
135809
135810
135811
135812
135813
135814
135815
135816
135817
135818
135819
135820
135821
135822
135823
135824
135825
135826
135827
135828
135829
135830
135831
135832
135833
135834
135835
135836
135837
135838
135839
135840
135841