/*--------------------------------*- C++ -*----------------------------------*\
| =========                 |                                                 |
| \\      /  F ield         | OpenFOAM: The Open Source CFD Toolbox           |
|  \\    /   O peration     | Version:  2406                                  |
|   \\  /    A nd           | Website:  www.openfoam.com                      |
|    \\/     M anipulation  |                                                 |
\*---------------------------------------------------------------------------*/
FoamFile
{
    version     2.0;
    format      ascii;
    arch        "LSB;label=32;scalar=64";
    class       Cloud<dsmcParcel>;
    location    "0.003/lagrangian/dsmc";
    object      positions;
}
// * * * * * * * * * * * * * * * * * * * * * * * * * * * * * * * * * * * * * //

5160
(
(0.06978377965 0.2180978514 0) 435
(0.04499935446 0.2037629692 0) 411
(0.06629567959 0.1859255457 1.084202172e-19) 384
(0.07173797857 0.1960809131 0) 405
(0.07587668962 0.2229158286 0) 435
(0.02424236371 0.2720941484 -2.303929617e-19) 509
(0.06743997173 0.2306574233 4.33680869e-19) 454
(0.0718857686 0.1865967521 0) 385
(0.06483946886 0.2402470624 -1.151964808e-19) 464
(0.07063941542 0.2682000018 2.168404345e-19) 505
(0.05160393624 0.2794669468 0) 522
(0.06305311719 0.1764079521 2.710505431e-20) 374
(0.05916033014 0.2183271309 2.168404345e-19) 433
(0.04547607038 0.1785812151 0) 381
(0.07595966583 0.2621012313 0) 495
(0.07248322766 0.2345637988 -5.285485591e-19) 455
(0.06209157766 0.1744576563 2.168404345e-19) 374
(0.04082533782 0.2025485813 -4.065758147e-20) 411
(0.06207535615 0.2610351879 -2.168404345e-19) 494
(0.06954847527 0.2857135928 2.168404345e-19) 525
(0.05116682393 0.2628154334 1.084202172e-19) 492
(0.04125649079 0.2506264232 -5.421010862e-20) 481
(0.06259552511 0.225564611 -2.168404345e-19) 444
(0.0699449483 0.2153616154 0) 425
(0.06893138667 0.2457516708 2.168404345e-19) 475
(0.05214207615 0.2262480443 -2.168404345e-19) 442
(0.0726909296 0.2934693519 -2.168404345e-19) 545
(0.026668638 0.2918610078 4.33680869e-19) 529
(0.06758421399 0.179811066 0) 374
(0.05345442126 0.246901733 -1.626303259e-19) 473
(0.07027178763 0.2283817095 -1.897353802e-19) 445
(0.05548505497 0.2468460967 -1.897353802e-19) 473
(0.04458364369 0.243261352 -2.168404345e-19) 471
(0.04591582275 0.2649669582 3.794707604e-19) 502
(0.06796595018 0.2175214198 0) 434
(0.07058489579 0.203379072 0) 415
(0.02547476132 0.1951383916 -3.523657061e-19) 399
(0.05585497732 0.230078694 -5.421010862e-19) 453
(0.07130094868 0.2004332977 1.084202172e-19) 405
(0.06942149003 0.2139711477 0) 425
(0.06794318675 0.1879827849 -2.168404345e-19) 394
(0.03784701246 0.2407240102 0) 460
(0.06770503603 0.2630563933 0) 494
(0.06902648583 0.2516453365 -1.084202172e-19) 485
(0.05073040985 0.2409782064 -2.168404345e-19) 462
(0.06809660483 0.2603022278 1.084202172e-19) 494
(0.05665543645 0.2594759202 1.626303259e-19) 493
(0.05498307076 0.2684400856 1.084202172e-19) 503
(0.07216790724 0.1725793457 0) 365
(0.06299175145 0.2420745355 1.626303259e-19) 464
(0.07504494491 0.2071945762 -2.168404345e-19) 415
(0.04676291459 0.2205362448 3.252606517e-19) 432
(0.06542175443 0.2012865952 -4.33680869e-19) 414
(0.03105387762 0.2442502768 2.168404345e-19) 470
(0.06956674413 0.2156274919 2.168404345e-19) 435
(0.04449710212 0.2408365117 0) 461
(0.04044734707 0.2250050889 0) 441
(0.05215424299 0.2532084546 -2.439454888e-19) 482
(0.06862495011 0.295935199 -2.168404345e-19) 545
(0.04400736507 0.2473415102 -2.168404345e-19) 471
(0.07268813093 0.2046909644 1.084202172e-19) 415
(0.07405563549 0.1675325185 -4.33680869e-19) 365
(0.07370940924 0.2361839591 -4.33680869e-19) 455
(0.04940553962 0.1653701962 1.76182853e-19) 362
(0.07496439684 0.2204481477 0) 435
(0.03460097268 0.2153109114 0) 430
(0.07238491109 0.2459147811 5.823351512e-20) 475
(0.05816058228 0.2837486322 -1.084202172e-19) 523
(0.07414947249 0.2401615725 -8.131516294e-20) 465
(0.06482103348 0.2855370973 4.540096597e-19) 524
(0.04814175209 0.2989863265 2.168404345e-19) 542
(0.0658636344 0.2393174581 -1.084202172e-19) 464
(0.07161566507 0.1930274481 -3.252606517e-19) 395
(0.04984132178 0.2144262872 0) 432
(0.06994398374 0.1920510499 3.252606517e-19) 395
(0.05710688883 0.2292428273 1.863472484e-19) 453
(0.07146639524 0.1831725727 -1.084202172e-19) 385
(0.04391063988 0.2227839925 0) 441
(0.07318860467 0.2169219873 0) 435
(0.05000497285 0.2902774978 0) 532
(0.05638313621 0.2245948977 2.303929617e-19) 443
(0.07562737193 0.268135642 -3.794707604e-19) 505
(0.05545829195 0.2933950953 0) 543
(0.06820415457 0.2880316412 2.168404345e-19) 534
(0.06950456238 0.232494192 0) 455
(0.05742811847 0.1764537055 -1.626303259e-19) 373
(0.06941014645 0.2307841798 8.131516294e-20) 455
(0.06417390282 0.213109488 -2.168404345e-19) 424
(0.06291468434 0.2038047683 1.084202172e-19) 414
(0.01479386605 0.2371164895 0) 457
(0.05706740817 0.2782443761 -4.33680869e-19) 513
(0.06725954347 0.238621023 -5.421010862e-19) 464
(0.04246437033 0.2316845144 1.084202172e-19) 451
(0.05179545987 0.2795861478 2.168404345e-19) 522
(0.04976182876 0.2043666775 -5.421010862e-19) 412
(0.05112979084 0.2472243477 0) 472
(0.04399109902 0.2753421623 0) 511
(0.06690882058 0.1892587826 0) 394
(0.06827807201 0.1821229686 0) 384
(0.06294757487 0.1936001104 -1.084202172e-19) 394
(0.07008213187 0.1706889132 1.626303259e-19) 365
(0.06468852444 0.2189067482 -1.355252716e-20) 434
(0.063242477 0.1720973383 -1.084202172e-19) 364
(0.06414230125 0.1975178223 8.131516294e-20) 404
(0.06948016697 0.2710064606 0) 505
(0.05484247954 0.1961005389 2.168404345e-19) 403
(0.05428778418 0.1837505703 -1.084202172e-19) 383
(0.02298236513 0.2193910967 -4.33680869e-19) 439
(0.06292443262 0.2413874017 1.084202172e-19) 464
(0.07544240171 0.248406182 -2.168404345e-19) 475
(0.06286265901 0.2530635558 -3.252606517e-19) 484
(0.0557932799 0.2546058669 -1.084202172e-19) 483
(0.02612784729 0.273912874 -6.640738306e-19) 509
(0.07513131252 0.2470732047 -5.421010862e-20) 475
(0.05206902282 0.2656393131 2.168404345e-19) 502
(0.07198383231 0.2604948489 -2.439454888e-19) 495
(0.06607486766 0.2047209024 1.821120837e-20) 414
(0.07514247326 0.1871053092 0) 385
(0.07550825082 0.2287910243 0) 445
(0.07456012487 0.2099489241 -4.33680869e-19) 425
(0.04720866412 0.2059125556 3.252606517e-19) 412
(0.06489409838 0.2013075391 0) 414
(0.07446346377 0.1726876294 0) 365
(0.05392667106 0.1786514395 0) 383
(0.03018366544 0.2180317184 0) 429
(0.05790049298 0.2249933255 1.084202172e-19) 443
(0.03101104206 0.1873752637 5.421010862e-20) 390
(0.06885171049 0.2387015853 0) 465
(0.05742948487 0.2580606066 2.168404345e-19) 493
(0.03961663747 0.2188967899 0) 431
(0.05105904099 0.2552516577 2.168404345e-19) 482
(0.07410128035 0.2224209578 1.084202172e-19) 435
(0.04565662875 0.2703051168 0) 501
(0.07594910801 0.283751029 0) 525
(0.0743016821 0.282911298 0) 525
(0.06218902801 0.2759910001 2.168404345e-19) 514
(0.05291465587 0.2901332779 2.168404345e-19) 532
(0.06292816371 0.2933723537 2.168404345e-19) 544
(0.05593462916 0.1832037856 -2.710505431e-19) 383
(0.06697972236 0.2135239371 -2.168404345e-19) 424
(0.0540257384 0.196666185 0) 403
(0.04075262208 0.218639964 -4.33680869e-19) 431
(0.05607201476 0.2136463816 2.168404345e-19) 423
(0.07271947503 0.1782290207 1.626303259e-19) 375
(0.06921035673 0.2003880338 2.168404345e-19) 405
(0.06103358197 0.2204999289 -4.33680869e-19) 434
(0.05483957863 0.1968255552 2.710505431e-20) 403
(0.07228386829 0.1872818242 -2.168404345e-19) 385
(0.06470928632 0.1989357835 2.168404345e-19) 404
(0.05489386267 0.1996727072 -1.084202172e-19) 403
(0.05330164222 0.2299259444 -2.168404345e-19) 452
(0.06889009892 0.2572356542 0) 485
(0.04464152371 0.2698255391 0) 501
(0.06450470426 0.227642764 0) 444
(0.06373632317 0.2358225117 0) 454
(0.03769796635 0.2967863426 -2.168404345e-19) 540
(0.06511299981 0.2807314234 0) 524
(0.06170772746 0.2782043432 1.626303259e-19) 514
(0.0607062455 0.2994478075 0) 543
(0.03728726471 0.2849534239 -2.168404345e-19) 520
(0.07495881324 0.1941518521 -4.33680869e-19) 395
(0.06017286851 0.1723852281 4.33680869e-19) 373
(0.04471183702 0.1958464747 0) 401
(0.07487281752 0.2140272169 2.168404345e-19) 425
(0.0505664207 0.173798098 0) 372
(0.01792824763 0.1944212318 -1.355252716e-19) 398
(0.05015912543 0.2017097482 1.084202172e-19) 412
(0.06829098079 0.2373728457 2.168404345e-19) 464
(0.028730448 0.1727650205 0) 369
(0.04936938442 0.19230031 1.084202172e-18) 392
(0.05048317802 0.2266220457 2.168404345e-19) 442
(0.06560744392 0.2086354799 -2.168404345e-19) 424
(0.035273637 0.2412537796 -3.252606517e-19) 460
(0.07029944235 0.2758344797 -5.421010862e-20) 515
(0.05819510384 0.2190818519 -1.084202172e-19) 433
(0.07181149006 0.1994350297 -1.084202172e-19) 405
(0.06487886164 0.2456342026 1.084202172e-19) 474
(0.07490046114 0.2292641313 2.168404345e-19) 445
(0.06684671569 0.2440637176 0) 474
(0.06687751675 0.2244810575 3.252606517e-19) 444
(0.06214907715 0.249171875 0) 474
(0.05303385659 0.2399177152 -2.168404345e-19) 462
(0.05684564241 0.2419323256 -2.168404345e-19) 463
(0.06450455455 0.2724080819 -1.084202172e-19) 514
(0.05914408889 0.2392721474 -8.131516294e-20) 463
(0.03726483144 0.226347706 2.168404345e-19) 440
(0.0632429157 0.295244778 5.421010862e-20) 544
(0.05521520433 0.2464257989 6.505213035e-19) 473
(0.05611666556 0.2600417851 -1.219727444e-19) 493
(0.04002743032 0.2490480138 1.084202172e-19) 471
(0.07565339259 0.1961446143 2.168404345e-19) 405
(0.06438473418 0.1759755423 4.743384505e-20) 374
(0.06996996021 0.2075272236 1.897353802e-19) 415
(0.06866025354 0.1679944636 -2.168404345e-19) 365
(0.07079121982 0.1876257851 -1.084202172e-19) 395
(0.04017979675 0.2022446855 -1.084202172e-19) 411
(0.0695315071 0.2003922999 0) 405
(0.03921044296 0.2138947667 0) 431
(0.04522683926 0.1794956497 -4.33680869e-19) 381
(0.07527877807 0.2444462586 2.168404345e-19) 475
(0.02527070827 0.1956559003 -3.252606517e-19) 399
(0.06180773244 0.1881996694 -2.168404345e-19) 394
(0.06972565447 0.174461773 2.168404345e-19) 375
(0.04790839254 0.2081472052 0) 422
(0.05916327388 0.2043527736 0) 413
(0.0608744781 0.2441066905 -2.168404345e-19) 473
(0.0747375819 0.2175951203 0) 435
(0.05856164867 0.2218072394 0) 433
(0.06131961 0.2585731342 -3.252606517e-19) 494
(0.05089506657 0.2440213221 2.168404345e-19) 472
(0.07612688302 0.2647034145 -4.33680869e-19) 495
(0.05826551984 0.2830838291 -2.168404345e-19) 523
(0.05962346656 0.231940176 -1.084202172e-19) 453
(0.0699779206 0.2342526508 1.084202172e-19) 455
(0.06673900989 0.21213281 2.168404345e-19) 424
(0.02106790864 0.2648371532 0) 498
(0.06652185862 0.2315395992 1.084202172e-19) 454
(0.04508170083 0.255992014 -2.168404345e-19) 481
(0.06078308698 0.2509580479 0) 483
(0.01641882502 0.2755748475 3.252606517e-19) 508
(0.07249377744 0.2737941168 2.168404345e-19) 515
(0.06761382767 0.263992259 2.168404345e-19) 494
(0.04459989048 0.2162923562 2.168404345e-19) 431
(0.04710716586 0.2797346133 2.168404345e-19) 522
(0.06284968022 0.2742655754 1.084202172e-19) 514
(0.04174579665 0.2754747216 3.252606517e-19) 511
(0.0713043087 0.285970739 1.084202172e-19) 535
(0.06186180302 0.2983473068 2.168404345e-19) 544
(0.07375160554 0.2986239267 -3.252606517e-19) 545
(0.07399426948 0.2068251507 0) 415
(0.05497660227 0.1695500764 2.168404345e-19) 363
(0.06359309657 0.1691398486 1.702536224e-19) 364
(0.05984224037 0.1754694036 -1.626303259e-19) 373
(0.05863707491 0.2356311309 -2.168404345e-19) 453
(0.05020068698 0.1909532384 1.084202172e-19) 392
(0.07613377692 0.1688781578 0) 365
(0.06578259154 0.2055148409 -1.084202172e-19) 414
(0.04975679303 0.2056644921 1.897353802e-19) 412
(0.05173966155 0.2006135968 0) 412
(0.06831911372 0.2361496715 0) 454
(0.07127967796 0.2505257767 4.33680869e-19) 475
(0.03699482263 0.19310714 0) 400
(0.06561857326 0.1839696347 0) 384
(0.0661638607 0.2312829411 0) 454
(0.04012814817 0.2295562879 4.33680869e-19) 451
(0.04747035543 0.2349223079 5.421010862e-19) 452
(0.07356284598 0.2509500406 0) 485
(0.06969269552 0.2163286912 0) 435
(0.06964145079 0.2506808532 0) 475
(0.04912996965 0.2761723852 1.084202172e-19) 512
(0.06450473107 0.2525432703 -3.523657061e-19) 484
(0.05429138593 0.2244035236 0) 443
(0.0690917204 0.240892075 -2.710505431e-19) 465
(0.06386557774 0.2958221377 1.355252716e-20) 544
(0.06747902943 0.2481582871 2.168404345e-19) 474
(0.04990435621 0.2487135242 5.421010862e-20) 472
(0.06974713286 0.2491752645 0) 475
(0.05617850105 0.2167228673 0) 433
(0.07441046995 0.2127616399 4.33680869e-19) 425
(0.03341814779 0.2953711471 -3.794707604e-19) 540
(0.04468994078 0.2843626294 0) 521
(0.05397894856 0.2940547028 3.252606517e-19) 543
(0.03688431026 0.2857396513 0) 530
(0.03023659051 0.2296995166 2.168404345e-19) 449
(0.07485794798 0.2850868494 4.33680869e-19) 525
(0.05716216509 0.2557818602 -2.490276865e-19) 483
(0.0502835638 0.2761982751 -2.710505431e-19) 512
(0.07264756309 0.2870097733 0) 535
(0.05454658815 0.2641802272 -1.084202172e-19) 493
(0.07309284909 0.1923970677 2.710505431e-19) 395
(0.05591756502 0.1787163297 -6.505213035e-19) 373
(0.06089053981 0.2045907995 0) 413
(0.04071734164 0.2381504997 0) 461
(0.06869841537 0.1849456453 0) 385
(0.04376125723 0.1858910487 -4.33680869e-19) 391
(0.01672281868 0.1828333217 0) 388
(0.03245204498 0.1971838222 0) 400
(0.04717748885 0.2090120585 -1.084202172e-19) 422
(0.06746765801 0.2037511365 4.33680869e-19) 414
(0.05527448049 0.1952972486 3.794707604e-19) 403
(0.04790032665 0.1689286359 -4.878909776e-19) 362
(0.0609139137 0.2705247162 8.67361738e-19) 503
(0.06580806436 0.208217111 -3.252606517e-19) 414
(0.06810216951 0.1872715245 -2.168404345e-19) 384
(0.07262119562 0.219250163 1.423015351e-19) 435
(0.03571907407 0.198606611 2.168404345e-19) 410
(0.06343969361 0.2365226452 -2.168404345e-19) 464
(0.06617696354 0.2061719434 -3.252606517e-19) 414
(0.06896352967 0.2013974042 2.439454888e-19) 405
(0.04593107136 0.1969973464 4.33680869e-19) 402
(0.05321187051 0.1974307768 4.33680869e-19) 402
(0.07394458676 0.2335133452 0) 455
(0.06059355873 0.2149465539 4.33680869e-19) 433
(0.03004746444 0.1971772026 -2.168404345e-19) 399
(0.04734878328 0.2670784518 -2.168404345e-19) 502
(0.05275535435 0.2799203694 2.168404345e-19) 522
(0.0713047993 0.2646287658 -4.33680869e-19) 495
(0.06992962799 0.2215928594 -1.355252716e-20) 435
(0.04667304812 0.2137447617 -2.168404345e-19) 422
(0.06547540168 0.215366539 0) 434
(0.01142553411 0.2388977946 2.168404345e-19) 457
(0.06953220155 0.2202096285 -2.168404345e-19) 435
(0.07258878776 0.2515940816 -2.168404345e-19) 485
(0.05728592521 0.2298781885 2.168404345e-19) 453
(0.07609230814 0.278587386 -4.33680869e-19) 515
(0.03810679652 0.2226706294 -2.168404345e-19) 441
(0.05234917391 0.2450808561 2.168404345e-19) 472
(0.07500710664 0.2619804332 0) 495
(0.06127881195 0.2580938192 1.084202172e-19) 494
(0.07113597158 0.2730973203 -3.252606517e-19) 515
(0.06644706807 0.2198968796 -2.168404345e-19) 434
(0.05746100196 0.2666769589 0) 503
(0.06128108231 0.2901038636 -1.084202172e-19) 534
(0.06231875352 0.2380295404 1.626303259e-19) 464
(0.04480555309 0.265793837 0) 501
(0.03968440334 0.271949533 2.168404345e-19) 511
(0.05743499427 0.2197781784 4.33680869e-19) 433
(0.05543683549 0.2719298993 -1.084202172e-19) 513
(0.0605949547 0.2904485328 4.33680869e-19) 533
(0.06452966473 0.292672305 2.168404345e-19) 534
(0.05858280499 0.2651095884 -4.33680869e-19) 503
(0.06365731483 0.1767532202 5.421010862e-20) 374
(0.05277110057 0.1852646896 -2.168404345e-19) 382
(0.0636815251 0.2004396751 -2.168404345e-19) 404
(0.034826345 0.1725047809 2.439454888e-19) 370
(0.07581299014 0.2161936151 4.33680869e-19) 435
(0.06164930844 0.185666577 2.168404345e-19) 384
(0.05835336041 0.1932884605 2.168404345e-19) 393
(0.0385654346 0.1803911845 -2.168404345e-19) 381
(0.04302594795 0.2359474536 0) 461
(0.06599007243 0.2345844609 2.168404345e-19) 454
(0.05861738052 0.1839668491 -1.084202172e-19) 383
(0.06311100367 0.2156781266 -1.084202172e-19) 434
(0.06571655876 0.2292585649 1.084202172e-19) 444
(0.0268297809 0.1936224833 -2.981555974e-19) 399
(0.03952641133 0.1829636633 1.897353802e-19) 381
(0.01163501612 0.2160366036 9.486769009e-20) 427
(0.04837480209 0.2378603395 1.084202172e-19) 462
(0.04546938142 0.2202371832 0) 431
(0.05371778015 0.2232400237 2.168404345e-19) 443
(0.03655868747 0.2110635638 0) 420
(0.06574721083 0.2186112421 6.776263578e-20) 434
(0.07510408952 0.2546100055 0) 485
(0.06621110694 0.2305533433 -2.168404345e-19) 454
(0.05942855208 0.2064820802 -2.168404345e-19) 413
(0.02199221579 0.2388128211 0) 458
(0.0718708313 0.2581984447 -1.084202172e-19) 495
(0.05189181058 0.2097366333 -3.252606517e-19) 422
(0.07435578444 0.2630035116 0) 495
(0.06244208256 0.2435371187 -2.168404345e-19) 474
(0.06651449085 0.2458725817 2.168404345e-19) 474
(0.07082657019 0.2736960599 4.33680869e-19) 515
(0.06398827136 0.2417095754 -1.084202172e-19) 464
(0.06177084721 0.2376106506 1.626303259e-19) 464
(0.04033126895 0.2710972888 -1.084202172e-19) 511
(0.07000400685 0.2855402108 0) 525
(0.06327320935 0.2665646947 1.084202172e-19) 504
(0.05038740808 0.2913524141 -2.168404345e-19) 532
(0.04629332364 0.2597618633 -2.168404345e-19) 492
(0.02023617034 0.2695013792 1.084202172e-19) 498
(0.05133466679 0.2488176211 2.168404345e-19) 472
(0.05414608769 0.2660287631 -5.421010862e-19) 503
(0.05868992167 0.2748349132 -3.794707604e-19) 513
(0.06397616158 0.2895034104 5.421010862e-20) 534
(0.03066661448 0.2130930896 3.252606517e-19) 430
(0.06890571569 0.1852824895 -2.168404345e-19) 385
(0.06843105608 0.2094016586 -6.505213035e-19) 424
(0.07024340736 0.1813690789 2.168404345e-19) 385
(0.06703657986 0.2064392594 -8.67361738e-19) 414
(0.02216237102 0.2005916952 1.219727444e-19) 408
(0.008094669575 0.2079353022 -2.168404345e-19) 417
(0.06237526345 0.2104959541 -3.252606517e-19) 424
(0.01095927157 0.2110302986 5.421010862e-20) 427
(0.03358156033 0.2117946197 0) 420
(0.003637497221 0.1843785357 -3.523657061e-19) 386
(0.06247622166 0.1999693159 1.626303259e-19) 404
(0.03784773242 0.2247295161 0) 440
(0.06402342819 0.2211518156 2.168404345e-19) 434
(0.04089982227 0.2640307305 -5.421010862e-19) 501
(0.04892191353 0.1977499067 0) 402
(0.07277520362 0.2059122354 2.710505431e-20) 415
(0.04557529513 0.1907979504 4.33680869e-19) 391
(0.07473999683 0.248288208 2.168404345e-19) 475
(0.06211988262 0.2352296463 1.490777987e-19) 454
(0.05734087048 0.2243177228 2.168404345e-19) 443
(0.0555522862 0.2060801209 0) 413
(0.07296157155 0.2162746112 -2.168404345e-19) 435
(0.04206548973 0.2322799332 1.355252716e-19) 451
(0.06407318339 0.2148085568 -2.168404345e-19) 424
(0.04226462071 0.2191600766 -4.33680869e-19) 431
(0.05592595903 0.2185001099 -5.421010862e-20) 433
(0.03332550658 0.2080486056 0) 420
(0.04081678228 0.2234083861 0) 441
(0.05817168024 0.2066910625 -1.084202172e-19) 413
(0.0607516597 0.2348534175 0) 453
(0.05901391429 0.2057717278 4.33680869e-19) 413
(0.05579472491 0.2262950563 4.33680869e-19) 443
(0.0468479672 0.2520382095 3.252606517e-19) 482
(0.04251545491 0.23936196 5.421010862e-20) 461
(0.05034001968 0.2577944381 -2.168404345e-19) 492
(0.0240433174 0.2528923202 -1.626303259e-19) 479
(0.05029557633 0.2385447017 1.626303259e-19) 462
(0.05753585267 0.2681566237 -5.963111949e-19) 503
(0.03596038945 0.2484424127 -2.168404345e-19) 470
(0.05824872135 0.2819588112 1.084202172e-19) 523
(0.07235025984 0.274334116 7.115076757e-20) 515
(0.0308902559 0.2928713488 4.33680869e-19) 540
(0.0327166901 0.2296041999 -2.710505431e-19) 450
(0.03935974981 0.2911392276 2.168404345e-19) 531
(0.03199279145 0.2883250207 -2.168404345e-19) 530
(0.07075073743 0.257811651 -2.168404345e-19) 485
(0.0610602578 0.2865430826 -1.626303259e-19) 534
(0.04534497129 0.2949803259 -2.168404345e-19) 541
(0.07025818795 0.2892116126 -2.168404345e-19) 535
(0.07282980518 0.2720420443 4.33680869e-19) 515
(0.04166590196 0.1885372144 -3.523657061e-19) 391
(0.05340663516 0.1675470854 -2.168404345e-19) 363
(0.04858589147 0.2077233771 -6.505213035e-19) 422
(0.0646041325 0.2097705347 1.355252716e-20) 424
(0.06930581505 0.1857672333 -2.168404345e-19) 385
(0.03544595434 0.1697711581 0) 370
(0.05672050741 0.1934436588 -2.168404345e-19) 403
(0.06657675373 0.1917659942 -2.168404345e-19) 394
(0.03504488487 0.1838811423 4.33680869e-19) 390
(0.06091815223 0.1844623245 0) 383
(0.04867442619 0.2011331675 2.710505431e-19) 412
(0.04364447902 0.1819695743 0) 381
(0.04993572687 0.2136934711 5.421010862e-20) 422
(0.03889293508 0.2194973757 0) 431
(0.04426979039 0.2045759162 -2.168404345e-19) 411
(0.05980730277 0.2167981413 0) 433
(0.06732481039 0.220538413 4.33680869e-19) 434
(0.06345196039 0.1797789779 2.168404345e-19) 384
(0.04783832916 0.1960692201 1.490777987e-19) 402
(0.02581382163 0.2281127019 2.168404345e-19) 449
(0.06687975553 0.2799997702 0) 524
(0.05079249434 0.2142774627 0) 432
(0.05703050552 0.2124911365 1.084202172e-19) 423
(0.06097028122 0.2133466324 -2.168404345e-19) 424
(0.05279466053 0.2122600369 4.33680869e-19) 422
(0.04512528269 0.2247801109 0) 441
(-0.004626944073 0.2043113142 2.168404345e-19) 119
(0.04424644873 0.2339686662 0) 451
(0.02626657754 0.2805173965 5.149960319e-19) 519
(0.05868045244 0.2822754209 1.084202172e-19) 523
(0.07398207458 0.271753314 -3.252606517e-19) 505
(0.04839578802 0.2523554939 2.439454888e-19) 482
(0.04309581178 0.2830469622 2.168404345e-19) 521
(0.06832266382 0.2689138029 4.33680869e-19) 504
(0.03769548917 0.2336455932 -6.505213035e-19) 450
(0.07444346035 0.2669144455 -4.33680869e-19) 505
(0.05591275107 0.2781439942 2.168404345e-19) 513
(0.06152894957 0.2755605494 1.897353802e-19) 514
(0.05214481443 0.248327917 4.33680869e-19) 472
(0.04756581145 0.2550102632 2.168404345e-19) 482
(0.04840035396 0.2877173002 -1.084202172e-19) 532
(0.0377135142 0.2698538348 2.168404345e-19) 500
(0.05499282486 0.2480493811 1.084202172e-19) 473
(0.02774986787 0.2700475828 2.168404345e-19) 499
(0.0731595833 0.2772360807 6.505213035e-19) 515
(0.03254026089 0.2855873273 -1.084202172e-19) 530
(0.04024729925 0.2845038473 2.168404345e-19) 521
(0.04935725239 0.2572778692 1.355252716e-20) 492
(-0.001917632581 0.2230951819 -4.33680869e-19) 159
(0.02824697338 0.272375544 0) 509
(0.06882635954 0.2965357585 1.016439537e-19) 545
(0.05450722552 0.17030731 0) 363
(0.03917449696 0.19951052 0) 411
(0.05392514527 0.187772438 1.084202172e-19) 393
(0.06290614481 0.1822980869 -2.168404345e-19) 384
(0.03612774644 0.1802056922 1.355252716e-20) 380
(0.04663496292 0.1703268578 -5.421010862e-19) 362
(-0.01357236864 0.1778286311 1.084202172e-19) 38
(0.04656466971 0.1987619949 1.490777987e-19) 402
(0.0209897819 0.1885918643 -2.168404345e-19) 388
(0.023010596 0.2373288867 2.168404345e-19) 459
(0.03577475758 0.2057553255 0) 420
(0.03961763125 0.1973738074 2.100641709e-19) 401
(0.05778401478 0.2202525961 -1.626303259e-19) 433
(0.04424938365 0.2895261898 0) 531
(0.06869396859 0.196025456 -3.252606517e-19) 405
(0.04831727087 0.1763252578 -1.084202172e-19) 372
(0.04296790365 0.2044680036 -1.084202172e-19) 411
(0.07223870807 0.2669330253 -1.355252716e-19) 505
(0.06038704565 0.1897101941 -1.084202172e-19) 393
(0.07461209802 0.1961868893 -4.33680869e-19) 405
(0.06378344645 0.2353184222 0) 454
(0.06253994424 0.2199164762 -1.084202172e-19) 434
(0.01514573801 0.2153441112 0) 427
(0.0738672545 0.2525715298 0) 485
(0.06596691408 0.2583932327 0) 494
(0.03807482677 0.1973283014 0) 400
(0.06913867426 0.2221701745 -9.486769009e-20) 435
(0.043691318 0.2519547337 -1.084202172e-19) 481
(0.07356089675 0.2817238308 -1.084202172e-19) 525
(0.02081654921 0.1833175712 -2.168404345e-19) 388
(0.04178999683 0.2419738408 0) 461
(0.06174218473 0.2293769411 -2.168404345e-19) 454
(0.02166202806 0.2475707487 0) 468
(0.04227013984 0.2367534105 0) 461
(0.03049139958 0.2594245335 -2.168404345e-19) 490
(0.03445967578 0.2530426919 9.486769009e-20) 480
(0.06828852421 0.2291260743 4.33680869e-19) 444
(0.05806633596 0.2682259631 0) 503
(0.05504466345 0.2693288714 0) 503
(0.04878492084 0.2587054519 1.084202172e-19) 492
(0.04044401786 0.2827040988 -5.421010862e-20) 521
(0.009461739681 0.2110451055 0) 427
(0.05001882119 0.2936868719 4.33680869e-19) 542
(0.06855185327 0.2662653488 0) 504
(0.06155923509 0.2266373974 0) 444
(0.03516471779 0.263641672 5.421010862e-19) 490
(0.03034973788 0.2730231186 5.421010862e-19) 509
(0.04960098229 0.2775220226 2.439454888e-19) 512
(0.07285440988 0.28487186 0) 525
(0.05040521572 0.2668355345 1.084202172e-19) 502
(0.04736625766 0.2792278903 2.168404345e-19) 522
(0.07046270618 0.2613855855 -8.470329473e-20) 495
(0.0381796137 0.2685413553 -1.084202172e-19) 501
(0.05377478856 0.2921191021 -2.168404345e-19) 533
(0.07259579815 0.2556627272 8.131516294e-20) 485
(0.05581767233 0.2940476129 2.168404345e-19) 543
(0.03448155655 0.2647748281 0) 500
(0.07009551509 0.2701037317 2.168404345e-19) 505
(0.06456817997 0.2486252254 2.168404345e-19) 474
(0.05227026128 0.2911989022 0) 532
(0.05853175357 0.267400131 -6.505213035e-19) 503
(0.07148496787 0.1855275794 2.168404345e-19) 385
(0.05717603717 0.1995122139 2.032879073e-19) 403
(0.07442161447 0.1882034509 0) 395
(0.05114381985 0.2539095648 0) 482
(0.03558161672 0.2039476841 -1.084202172e-19) 410
(0.05834235085 0.1946576201 0) 403
(0.02548187058 0.2298041314 7.047314121e-19) 449
(0.07318103733 0.1870853903 2.710505431e-19) 385
(0.03297619869 0.1730182662 -5.421010862e-20) 370
(0.03418446516 0.1686225682 -2.168404345e-19) 360
(0.03138835953 0.2371045172 0) 460
(0.02936981629 0.2498397715 0) 479
(0.03878854255 0.2073443188 -5.421010862e-20) 421
(0.06079936771 0.1759303136 0) 373
(0.05492883217 0.2094241051 -5.421010862e-20) 423
(0.04843109515 0.2162521833 -1.084202172e-19) 432
(0.03705665082 0.2389560644 0) 460
(0.05228361391 0.1821297811 -6.505213035e-19) 382
(0.06037880656 0.216072271 -2.168404345e-19) 433
(0.05377224996 0.2342215958 4.33680869e-19) 453
(0.0380835316 0.2442381634 2.168404345e-19) 470
(0.01623454971 0.2445184062 0) 468
(0.0480282821 0.2228820531 -1.084202172e-19) 442
(0.0399526768 0.233130733 0) 451
(0.04233460229 0.2128104742 2.710505431e-20) 421
(0.03072441247 0.2064216986 -1.084202172e-19) 420
(0.03988652884 0.2354135296 0) 461
(0.03189853227 0.1986972963 0) 410
(0.06181237882 0.2451880776 2.168404345e-19) 474
(0.04082589271 0.2511083175 0) 481
(0.03067108393 0.2036506857 -4.33680869e-19) 410
(0.02252026216 0.2429059983 0) 468
(0.05859675931 0.2226540722 0) 443
(0.05461776434 0.2687742116 -3.252606517e-19) 503
(0.02405661925 0.2106231555 -4.33680869e-19) 419
(0.06174124435 0.2365901631 0) 464
(0.0721326973 0.2380542119 8.131516294e-20) 465
(0.06981950629 0.2030219818 -2.710505431e-19) 415
(0.03538885471 0.22358218 -4.065758147e-20) 440
(0.04664493276 0.2271311217 -2.168404345e-19) 442
(0.04553858547 0.21795026 4.33680869e-19) 431
(0.03564053534 0.259162851 -1.084202172e-19) 490
(0.06707612117 0.2402753902 -2.168404345e-19) 464
(0.01749616572 0.2272331005 -3.252606517e-19) 448
(0.0728681336 0.2451069065 -2.168404345e-19) 475
(0.05048490239 0.2806572643 1.084202172e-19) 522
(0.05885914356 0.2445927438 2.168404345e-19) 473
(0.04755406358 0.2732275961 -6.776263578e-19) 512
(0.07231037161 0.2817242231 -6.708500942e-19) 525
(0.05536659754 0.2602443725 2.168404345e-19) 493
(0.04199490484 0.2843636787 6.776263578e-21) 521
(0.002875482286 0.2922789015 -6.505213035e-19) 526
(0.03400949177 0.2667894208 -1.084202172e-19) 500
(0.02197659852 0.2395114086 0) 458
(0.06345813472 0.286719003 1.084202172e-19) 534
(0.06653673585 0.1967351868 -1.084202172e-19) 404
(0.04318547617 0.1839626788 -1.084202172e-19) 381
(0.0479501645 0.184185352 -4.33680869e-19) 382
(0.06386859193 0.1919645009 0) 394
(0.02600245593 0.1820277308 0) 379
(0.005007222198 0.2135163204 1.084202172e-19) 426
(0.002412397246 0.2009595131 -1.626303259e-19) 406
(0.0605165699 0.1698137545 2.168404345e-19) 363
(0.05593773518 0.1820338817 -2.710505431e-19) 383
(0.05617551863 0.2034806135 1.626303259e-19) 413
(0.05852216307 0.2002317694 -3.252606517e-19) 403
(0.02967998815 0.1952718781 2.168404345e-19) 399
(0.02916340872 0.1697816923 0) 369
(0.02067640574 0.1871187315 0) 388
(0.02652385437 0.2272330837 5.421010862e-20) 449
(0.04752926479 0.1692439237 -5.421010862e-20) 362
(0.04138675853 0.1867264239 1.084202172e-19) 391
(0.02404925998 0.1859643989 6.505213035e-19) 389
(0.05859169426 0.1993830457 -1.084202172e-19) 403
(0.01194540939 0.2145977812 -6.776263578e-20) 427
(0.01227069263 0.2727528339 1.084202172e-19) 507
(0.05185916121 0.2033331478 -4.33680869e-19) 412
(0.04617262744 0.2162484268 2.168404345e-19) 432
(0.05770315259 0.2031208479 1.084202172e-19) 413
(0.05493650151 0.2278470825 4.878909776e-19) 443
(0.04451502086 0.2397091047 0) 461
(0.02767200889 0.216863566 1.084202172e-19) 429
(0.03329510597 0.2446409632 3.388131789e-19) 470
(0.07508264418 0.2570847924 -2.168404345e-19) 485
(0.02721708908 0.2577258563 2.168404345e-19) 489
(0.05530818406 0.2211963939 0) 433
(0.01300707793 0.2494587408 2.168404345e-19) 477
(0.0358981491 0.2649613274 0) 500
(0.03904858513 0.2581753312 2.710505431e-19) 491
(0.07132542787 0.2266314215 8.131516294e-20) 445
(0.06224902992 0.1863691006 -1.084202172e-19) 384
(0.01585379199 0.2626017304 5.421010862e-20) 488
(0.04192492673 0.229912341 3.252606517e-19) 451
(0.05197626122 0.2546357052 2.168404345e-19) 482
(0.05237947177 0.2132402452 -2.168404345e-19) 422
(0.01694651375 0.2362101349 -2.168404345e-19) 458
(0.04906727179 0.2394482278 2.710505431e-20) 462
(0.03609800667 0.2431565434 0) 470
(0.06057496519 0.2444733681 0) 473
(0.05861386386 0.2701591082 -1.084202172e-19) 503
(0.05375914632 0.2867274971 1.626303259e-19) 533
(0.06094080867 0.264470663 0) 493
(0.02034696108 0.2602141214 0) 488
(0.05704846849 0.296957947 0) 543
(0.05772003434 0.2273510553 -1.626303259e-19) 443
(0.02509444194 0.2943885979 0) 539
(0.01029000006 0.2517578801 -4.065758147e-19) 477
(0.0445273214 0.2949898801 -2.168404345e-19) 541
(0.04092889458 0.2934080287 -1.084202172e-19) 541
(0.04509350075 0.1964144829 4.33680869e-19) 401
(0.0578068465 0.1703042757 1.626303259e-19) 363
(0.04335043027 0.1807994921 5.421010862e-20) 381
(0.03426577961 0.2137801739 2.439454888e-19) 430