/*--------------------------------*- C++ -*----------------------------------*\
| =========                 |                                                 |
| \\      /  F ield         | OpenFOAM: The Open Source CFD Toolbox           |
|  \\    /   O peration     | Version:  2406                                  |
|   \\  /    A nd           | Website:  www.openfoam.com                      |
|    \\/     M anipulation  |                                                 |
\*---------------------------------------------------------------------------*/
FoamFile
{
    version     2.0;
    format      ascii;
    arch        "LSB;label=32;scalar=64";
    class       vectorField;
    location    "0.003/lagrangian/dsmc";
    object      U;
}
// * * * * * * * * * * * * * * * * * * * * * * * * * * * * * * * * * * * * * //


5160
(
(1208.579534 304.2983034 445.9965369)
(1776.586962 -39.69102055 -248.6838607)
(1736.24452 131.5644012 -224.4812029)
(1030.734154 -89.87281602 316.0893545)
(2027.588121 463.6582776 -276.2022713)
(995.8567068 -348.6126408 124.4902104)
(1308.51726 -53.68438293 -122.6899288)
(1222.110053 -71.54662145 -61.36855546)
(1256.18562 115.8668762 -145.8024263)
(2047.815291 375.7398324 20.24971217)
(1175.646104 176.0449514 -401.3864536)
(1262.121366 -346.5864065 -415.9087012)
(1603.566172 206.706135 -52.47656195)
(1317.9582 -473.7020861 501.3703616)
(1251.204984 -55.59432186 19.00854292)
(1302.92422 377.9991427 623.1643323)
(1357.921741 -282.4421089 50.43344209)
(1238.752166 -139.097692 103.2536754)
(1640.861029 423.7437869 -52.18109817)
(1617.747709 -2.711856654 -22.33168524)
(1280.947926 17.37757297 -494.1982666)
(1343.878887 -191.9549244 288.7117083)
(1172.366534 -343.010229 151.2244108)
(1518.944994 568.8318651 537.7063114)
(996.9214699 -115.6880063 -413.8962428)
(1815.140336 182.6445313 133.6571892)
(1401.20463 524.5089277 -315.5742552)
(1598.243314 11.76656683 -236.6683267)
(1498.703953 -157.940412 68.47012266)
(1376.990191 149.5829627 -433.3726433)
(1454.294378 54.17244373 -575.7888732)
(1522.278394 139.6319412 86.28000336)
(1541.302915 -45.30848582 -248.5291733)
(1139.224907 152.7268717 -13.80744888)
(1141.158065 -76.10579457 -144.2390122)
(1331.813727 303.6148731 292.3084771)
(1385.50994 -168.7015908 211.4868797)
(1426.339827 39.26603821 -553.9008093)
(1212.149584 -439.5911347 -481.059449)
(1417.347404 -68.39424316 -216.3273491)
(1385.993828 -18.97874166 363.0488558)
(1004.430592 -13.87572425 -534.4728327)
(1329.358466 -102.5475327 107.4076386)
(1336.570921 197.4007911 -3.068485627)
(1260.552363 -252.6811126 241.5914646)
(1272.205684 380.7418193 -451.6493643)
(1341.237071 -129.6274217 372.9509238)
(1948.540801 -33.67538617 -301.4153275)
(1620.324236 -261.3577243 -7.970957986)
(1325.219481 -347.0522481 297.0579009)
(1783.682074 -187.9196785 -269.9703053)
(1346.22894 -305.7899639 200.1099695)
(1464.5297 -292.571817 1.330845833)
(1545.384107 732.5327214 -207.6782122)
(1683.517931 118.3628949 166.4585359)
(1972.365625 -175.1657039 -678.5900035)
(850.6456586 238.4554463 -607.3883556)
(1039.569421 -170.3843654 169.8258379)
(1872.643566 555.9283681 50.94799893)
(1837.024981 101.9830743 -338.144733)
(1529.972903 231.6009919 -66.19901847)
(1244.082103 -302.5090906 -103.7641664)
(1601.210248 161.4504308 280.7084928)
(1578.944942 -318.0676783 502.8852966)
(1482.177701 -276.0846667 -206.3470091)
(1472.157863 126.5911626 -206.9810392)
(1699.556482 461.3478453 196.9965939)
(1486.552929 324.2686578 -331.4956641)
(1633.937415 573.397901 440.3660033)
(1607.988884 208.0507303 233.0864909)
(1680.681038 218.9107944 -20.42138501)
(1476.270657 86.47843286 -178.9659797)
(1711.599561 5.266917891 -4.606402689)
(1255.730686 333.5670061 357.7938339)
(1790.743044 -85.08213206 63.24522669)
(1532.193878 -24.76516933 -146.8555623)
(1327.796212 25.21258245 593.7892203)
(1646.307025 139.6511357 126.166125)
(1641.56313 -184.021571 93.58854946)
(1775.512257 327.0942516 -335.1449052)
(1462.883544 -55.92838218 552.0639948)
(1617.596574 260.5531073 -430.66505)
(1642.792558 -15.25082425 -246.2198769)
(1788.060093 252.1836785 -170.3213848)
(1714.967472 130.9980114 90.48057049)
(1497.279046 -15.89484329 506.7180819)
(1292.33125 -227.2375226 -108.3703966)
(1460.350294 19.52445065 -280.1872086)
(1396.965983 -33.93829099 173.575988)
(1194.384757 109.8959197 335.9720271)
(1595.269802 135.5013608 152.1442945)
(1342.297363 -115.9106871 -270.0757239)
(1599.107113 283.6299998 62.06703707)
(2284.255902 -294.6486668 -311.7931206)
(1819.241493 160.3860322 -365.93281)
(1357.752575 -290.553935 365.4624932)
(1610.481328 -603.5727483 -130.4654239)
(1965.00014 53.02225101 -299.2474088)
(1257.331732 -597.6118976 362.8599189)
(1181.330504 318.7637908 -512.1054294)
(1818.691873 -425.3029795 247.8909619)
(1790.278905 -193.7310678 120.8826668)
(1551.443147 25.01681008 179.8301833)
(1286.865708 -74.75315403 147.991515)
(1641.09672 546.5567059 -6.922245811)
(1557.679723 10.92457151 -28.56604303)
(1390.108016 -289.6263282 -4.847493011)
(1807.936028 -216.2742354 376.0792171)
(1451.880934 -414.9989803 400.3746588)
(1702.841114 -100.6622752 74.62053971)
(1693.911549 -72.14900122 -165.982815)
(1731.865789 -270.1981308 -116.9408099)
(1534.901544 337.7781709 -170.1468175)
(1575.973196 -165.9769821 21.77487607)
(1603.01531 251.5393406 217.0323244)
(1134.074049 -91.52827086 239.1466195)
(1548.710646 59.88075945 -40.79949922)
(1950.714428 39.11158007 -148.8638328)
(1496.315511 532.8689281 -124.0762465)
(1850.46235 153.698011 35.12546125)
(1477.993424 224.8718059 -363.8535624)
(1529.686834 -573.0444326 105.2408851)
(1329.632998 151.2764982 -327.7529225)
(1500.842177 -413.3193534 -134.4639034)
(1183.623026 6.019578242 83.66098425)
(1604.255599 -274.3357357 381.8055948)
(1393.774526 170.0106821 161.2983629)
(1506.917479 14.02573649 387.5008521)
(1636.762438 549.5404876 -181.518926)
(1071.236678 -103.7995788 226.2225897)
(1583.651848 299.1388904 173.9566845)
(1644.575514 108.6806643 -257.2017594)
(925.6466188 141.8864052 -168.8273611)
(1801.173235 717.6143838 87.41213525)
(1695.003405 1.837618846 -359.2419498)
(1488.952215 207.0398629 22.1879801)
(2130.943433 350.806524 630.2227754)
(1959.37176 95.90489454 -125.7565724)
(1525.89142 -128.5920548 13.07552559)
(2116.845592 144.1389378 88.78153386)
(1253.756876 -61.1294447 -272.8914014)
(2008.906377 48.84641279 -21.19292987)
(1462.297505 183.5833856 361.2552293)
(1644.591139 -253.9680099 23.07529299)
(1524.440519 -95.213331 151.2805851)
(1080.355508 118.9112708 -202.1343665)
(1626.069514 -920.5078857 -2.851601763)
(2192.88607 -149.0778623 270.1790389)
(2138.098556 236.4730586 -579.2171005)
(1887.704034 -511.456811 263.9429694)
(1725.115927 -65.10344174 475.4831319)
(1292.513377 393.5679978 -44.62592483)
(1497.428136 -111.6192437 204.2838268)
(1722.852435 -255.7261043 -184.4370459)
(1787.96295 -173.2649671 -130.193544)
(1448.232751 165.5397826 9.866228408)
(1617.792426 154.1418568 211.6944107)
(1602.642504 203.3685077 249.6458926)
(1578.114527 140.3127617 542.4229618)
(1415.725856 35.5833053 37.29826189)
(1082.284183 155.2006627 280.9834606)
(1556.338419 83.2116573 -257.1018564)
(1235.317093 160.5081942 -349.2644701)
(1796.819564 313.0428945 87.07218893)
(1622.184238 -3.456225435 -125.1272965)
(1578.745669 -181.341951 497.781318)
(1490.428666 53.63633629 -176.0107041)
(1808.083541 646.3316427 -55.03909881)
(1461.206005 143.7086343 178.6921388)
(1726.21739 101.8557649 -117.1791849)
(1215.008097 -188.5080638 226.1325693)
(1733.217872 44.11783278 531.2637536)
(1593.025028 195.960226 585.8901792)
(1884.920961 39.90873928 194.1288705)
(1915.202372 106.5642821 148.7853491)
(1539.994006 -130.6177428 -209.8141567)
(1559.773519 138.5616272 636.3479117)
(1901.693741 242.2163294 -251.0009845)
(1211.041131 -53.17891023 -56.08941994)
(1920.279521 -576.2553702 -320.7437627)
(1543.849545 -47.23014407 538.4533751)
(1451.096371 269.2551929 -64.33696685)
(1528.617927 151.037345 261.6895169)
(1307.278748 -235.1403187 255.8408588)
(1515.699405 -193.4601127 591.8724795)
(1723.130515 599.5755996 -269.994858)
(1942.204467 134.5283762 -26.35819412)
(1556.255074 -222.4930584 -7.294848365)
(1860.602685 -189.6454984 -261.8815962)
(1551.855256 -183.5772408 93.46439365)
(1458.480387 106.0965425 -38.36696797)
(1497.113689 -408.5664318 -58.64470287)
(1850.125273 -648.5848252 37.85032226)
(1980.305014 -275.3685279 287.0253472)
(1875.235787 115.9676291 -85.65457347)
(1995.228545 81.30648227 -320.6339527)
(1903.426517 194.4433549 -222.0805289)
(1338.304906 228.2106755 52.53472636)
(1376.933337 82.7394443 402.5019389)
(1656.398423 562.5966408 63.08594779)
(991.4469525 -157.9387456 204.9655065)
(1492.004944 175.5827705 -35.64535369)
(1951.951533 -3.807889637 -226.8299329)
(1995.862673 24.71696353 -100.3217319)
(1719.43678 -449.0953376 55.4281533)
(1657.240523 187.8891755 249.1288271)
(1684.489764 -309.73515 473.6563195)
(1774.400758 -96.48276026 -29.41918065)
(1614.991458 122.364776 -47.89844505)
(1755.65479 345.7610222 -324.8970766)
(1788.270483 111.6740294 38.66001471)
(1837.913659 -98.91809137 108.447473)
(1616.743692 -304.7059477 927.514822)
(1355.578523 4.413353154 151.4636748)
(1504.968969 -230.0298411 -196.1056603)
(1249.367839 390.8095198 -591.6419574)
(1704.752938 -360.2973654 88.45708001)
(1619.0467 345.47862 -220.2814667)
(2291.124444 -205.4600648 173.649496)
(2008.940473 98.33088572 -219.7341898)
(1675.71734 2.555426065 -116.9527477)
(1368.994259 -252.3268733 529.707544)
(2036.236693 92.46852761 -566.2021804)
(2002.231842 535.1819298 -348.4286857)
(1885.783713 -67.68212487 139.4259376)
(1125.492554 -336.5211636 -395.11466)
(1877.788307 281.4104073 362.6806653)
(1380.622712 319.1007702 90.69526746)
(1578.982691 100.2912141 -48.15252947)
(1722.805691 362.5887773 154.4035421)
(1603.220496 -175.9852735 268.9328635)
(1562.568658 -414.6184506 75.64377712)
(1928.246083 -188.0520641 -8.463195612)
(1631.28995 250.3040018 -83.58860319)
(1592.050957 117.0883394 -275.6123943)
(1875.355972 -425.6085254 126.3359678)
(1612.742824 -29.87653018 -584.2706398)
(1785.28705 -175.2493508 582.2514878)
(1483.173862 -102.5493187 -205.9396092)
(1568.449549 432.690168 89.99804882)
(1894.107038 -290.2663206 101.8695042)
(1849.996333 243.8758583 -189.1341194)
(1654.88211 -421.7775938 -476.192654)
(1790.063339 646.3528168 -211.950631)
(989.3586446 0.03870347797 -215.1850434)
(1510.214796 281.2662638 176.9503576)
(1950.484417 306.2768899 112.6028806)
(1341.621435 -329.5071306 198.5511185)
(1565.051063 121.8591654 405.1362225)
(1319.145742 250.9108469 -36.45241958)
(1859.963006 -16.9282379 61.06750206)
(2078.334747 473.8182878 -408.0797246)
(1953.565139 129.81461 87.82328732)
(1994.374443 521.2982136 6.700680843)
(1717.037026 -41.50567761 -517.5403835)
(1355.469615 -23.58848448 69.31909032)
(2015.257967 -290.9103603 -132.8245101)
(1136.434116 -236.622938 -196.0867559)
(2018.682404 -837.2213496 -189.1476988)
(1782.10465 29.76078094 79.78101953)
(1486.143113 289.9759315 275.0211594)
(1257.689204 -239.487963 -167.7147033)
(1453.47729 -15.82297361 -31.67858205)
(1436.721791 -408.6802201 -99.32326885)
(1597.748472 47.52335043 358.0709003)
(1653.792486 -707.1083381 263.4932553)
(1223.39242 -233.4628332 -525.2187898)
(1807.856861 -302.4309876 -139.3806055)
(1645.904939 -562.394079 -650.7204272)
(904.4504332 -292.1246353 427.3005241)
(1511.129671 56.92509851 -13.50938995)
(2068.757664 267.0741996 -8.947294626)
(1508.706594 234.6523238 -193.2225204)
(1396.258911 189.0323221 -104.5708214)
(1959.264105 242.1595233 -400.2217623)
(1349.9935 61.40220351 408.8331658)
(1586.238599 60.69207894 302.1451346)
(1500.210325 324.8945896 -118.2769381)
(1457.74267 67.91319561 -595.924365)
(1845.627923 567.0758646 -167.7205547)
(1320.945528 -446.4494955 78.79128696)
(1585.289324 794.2961755 -334.4877785)
(2001.827944 -52.73782531 43.22270546)
(1636.532819 -145.413918 303.3781261)
(1538.282887 -694.5345917 -164.5544333)
(1477.440627 -196.2901029 -106.408746)
(1951.473837 362.5146753 144.1603439)
(1940.774943 573.741062 404.0625996)
(1653.452976 332.1694418 -4.562181836)
(1386.450402 -470.1081184 667.1457484)
(1564.420956 -577.1520222 386.3441514)
(1898.039593 519.2601949 225.7254171)
(1713.239365 -270.6308596 152.0727476)
(1656.701927 429.594695 -230.4095322)
(1235.940585 -15.20416631 -253.7111632)
(1481.569212 370.3233526 -171.9363674)
(1942.835714 151.6302986 -60.99483653)
(2199.293141 12.89074032 417.5979603)
(1721.426653 -250.4987727 -57.57942989)
(1274.197132 -150.9346518 -495.780802)
(1297.600279 -18.47026993 132.6702607)
(1954.516607 -11.39832259 704.2621336)
(1753.746545 275.5260966 103.24889)
(1622.943502 -342.4751022 89.09786415)
(1335.430652 -155.9285293 117.1964995)
(1773.102663 -14.47447241 84.47946581)
(1875.333921 -40.88591975 129.7940095)
(1896.373341 238.0683194 439.2533067)
(1883.434963 -427.8340183 215.3550243)
(2006.408168 204.8011623 115.2761482)
(1712.872035 -410.9358677 -254.5607415)
(950.1853525 207.8205759 -300.2489197)
(2012.408054 107.8484314 -510.2815864)
(1593.582645 -595.1273183 73.50032982)
(1684.652609 -3.747073483 259.8895711)
(1387.26068 -247.7468373 334.9365823)
(1684.179206 -637.4582588 190.4636065)
(1740.33929 -297.7596558 648.4889516)
(1403.357749 91.00944012 -403.8688059)
(1698.696863 30.12854906 -329.4436752)
(1479.748266 350.9825576 130.0761499)
(1592.194022 201.2627355 176.4611356)
(1654.76694 112.9370229 35.29121514)
(1455.779244 208.155546 17.5355075)
(1910.183632 -0.2759700497 59.67354232)
(1795.832481 -286.7974451 89.62729977)
(1148.018989 318.4491004 -105.7121742)
(1836.044257 140.3040483 -86.04728657)
(1554.883145 19.13788366 77.84368787)
(1945.470116 284.3810401 -106.9958214)
(1357.400922 -78.85103254 -215.886443)
(1883.990588 466.7810493 502.6634353)
(1863.051944 -256.2059397 -473.1236334)
(1174.572205 -57.72928574 160.21466)
(1408.860069 386.1818582 16.7144584)
(1296.33065 -290.902373 309.6518793)
(903.7752983 -114.8845685 99.51785306)
(1655.084518 195.2023416 -483.4065827)
(1699.123783 375.751437 -96.82924344)
(2492.540761 -67.81016488 584.0411274)
(1382.717911 -262.2932395 -592.0064127)
(1921.597194 -95.69790365 62.34984618)
(1895.596094 176.7684356 40.04190765)
(2133.140027 225.2281567 -158.6320724)
(1861.209683 -428.9720623 -146.744189)
(1391.921738 19.40783174 39.36228617)
(1865.000764 -8.667098726 -180.711688)
(1616.218416 -331.2159907 112.5123301)
(2036.304954 200.2249937 156.72645)
(1750.68149 1.285895891 -75.46976376)
(1814.285599 -276.3516565 -524.9400675)
(1862.115741 -158.1284686 -257.3614273)
(1851.322245 605.9733883 55.99516976)
(1536.317764 99.17391211 -187.8342596)
(1721.241975 109.6860554 112.5793182)
(1687.614725 263.54192 -398.8516115)
(1737.125662 -85.85985267 -127.6708548)
(1710.121009 33.93848479 -131.8641885)
(1872.053964 -138.0375625 74.57700409)
(2089.522334 27.68378458 -340.9103895)
(1497.322219 -461.0257139 139.353437)
(1506.180486 -254.1490755 -205.6800799)
(1757.630223 581.9629813 708.6888497)
(1660.588804 511.7777158 110.7684782)
(1667.52062 622.9520043 -456.5905591)
(1207.891134 191.2396753 -667.3121002)
(1841.580087 237.3422919 40.27978699)
(1544.782818 179.4412585 -106.5468658)
(2229.759251 94.97681753 -17.64341639)
(1086.752712 -165.1564974 184.2218991)
(1240.462948 402.7207246 110.9309244)
(1726.635045 64.22909378 -196.1350745)
(1158.272872 -70.75500619 454.1027355)
(1293.688156 499.0673776 -52.12994903)
(1243.751654 -157.3921959 -412.3984093)
(1639.083987 -221.5210168 274.3655371)
(1760.26255 -189.6176019 -116.4268491)
(1863.183698 -109.3740296 36.87901396)
(1664.037876 154.5896046 -145.6499795)
(1705.315478 -298.5662556 -320.6959712)
(1921.539756 -436.6704338 401.2041075)
(1923.352166 -453.0447602 -257.2708758)
(1988.582638 449.003918 273.6221028)
(1651.789725 -2.963394937 152.2175421)
(1747.261504 -321.4115105 511.9387673)
(1640.208635 -489.7065368 -214.9848315)
(1982.856509 418.9890818 -349.9667888)
(1406.561043 434.5640798 -131.2611627)
(1558.005986 12.27356573 360.3121095)
(1469.464364 -143.666274 317.8932384)
(1873.052288 -289.3570881 -21.5820306)
(1058.159878 -367.554511 349.1975636)
(1616.609298 -16.31133298 -234.231573)
(1928.896535 103.7651328 116.9580274)
(1689.975082 170.8494068 115.8173383)
(1557.87341 -420.4949262 -326.9128555)
(1901.800412 -141.1401867 176.0924725)
(2040.770802 455.675043 30.82995113)
(1798.09979 337.9146379 -339.1412603)
(1280.855556 300.6348011 270.5951009)
(1299.17343 -218.1159899 -74.42464847)
(1683.731383 -0.4128528426 -289.8697686)
(1889.950549 77.77760892 75.16941257)
(1713.319148 -63.59851929 211.7087377)
(2257.366632 617.8027004 -470.1926406)
(1398.694053 264.749436 -654.8291771)
(1517.58885 -67.91488991 132.2542222)
(2172.97251 -534.9298842 -144.6813018)
(1943.020251 -467.4278769 -260.8242058)
(1992.944578 -146.3150852 240.6604033)
(2069.350352 611.1748531 420.9360677)
(1715.825499 86.45934208 -103.5207401)
(1305.919846 76.43932445 70.23951712)
(2018.969733 71.7393094 -392.5854078)
(2044.759665 772.2209452 249.950381)
(1683.471707 -16.93431617 517.1580887)
(1674.421245 -118.3449664 -132.6884681)
(1712.1467 287.6776756 -22.57588629)
(1630.250962 533.714744 60.411317)
(1823.792167 32.2860888 -78.92698622)
(1247.860544 -148.6195484 -22.78884175)
(1782.887914 -166.6176857 21.99383729)
(1793.893564 350.3625266 81.40689191)
(1492.828868 -107.5298891 28.21620489)
(1666.621155 -500.771044 126.5581229)
(1730.286423 29.98378665 50.60705196)
(1765.464013 -373.6699936 -317.4800074)
(1570.151817 247.1734756 4.412799659)
(1894.472618 208.0994769 -436.4158852)
(1675.737997 361.3220609 106.2107977)
(2073.804024 47.053757 -93.69983377)
(1774.252388 39.78407919 182.6762386)
(1862.862895 -620.5252832 358.404702)
(1737.0137 422.8347225 296.6697598)
(1527.239951 -95.6575892 395.3632314)
(1718.764398 -289.3722562 -358.0047362)
(1535.553026 -57.99212491 -141.8677099)
(1731.73395 113.1506377 -87.14584362)
(965.6872967 241.9689236 55.00099905)
(2198.166633 -145.8206594 -142.3800977)
(1831.57315 -217.6521272 -66.54560878)
(1447.763195 -246.1745379 301.9277583)
(1973.689437 -41.30888593 -306.0026217)
(1353.146594 446.8522516 -434.4619262)
(2065.671234 -229.1565673 -683.9623514)
(1370.64624 346.3200126 101.9372417)
(2024.386541 -302.8671806 499.525834)
(1717.895308 199.3853323 498.3017818)
(2195.650406 -138.9477494 335.2654591)
(1800.392177 -464.6010248 -37.97140891)
(1618.124944 -86.38376843 -10.01666349)
(1790.024283 93.71190372 -124.1940679)
(2118.23808 199.8135465 -331.9734919)
(1562.559087 246.6858685 168.1881061)
(1437.746809 -417.9557059 232.35645)
(1861.616544 -259.5504162 156.5739729)
(1466.96789 -323.2910738 319.8372552)
(1900.699866 -159.9565599 44.7710039)
(1798.100004 566.7863258 5.405280378)
(2321.302807 -15.60004547 346.6519144)
(1401.768795 -569.5892408 -282.0911983)
(1004.904252 -31.41075883 -688.6214707)
(1663.601781 -266.6731401 205.0489248)
(1185.491674 -431.4012709 154.9793644)
(1619.497538 -113.175231 121.8632966)
(1811.295245 -26.64895196 407.7583617)
(1811.265706 -8.175543369 473.7694663)
(2106.916222 -104.9282767 -67.77068734)
(1902.032987 505.9382058 -337.3401838)
(1920.344134 50.06431863 132.0737847)
(1645.386383 199.533414 314.7521781)
(1963.333558 -191.9286087 -608.7258598)
(1482.148554 159.4017795 -206.0215066)
(1467.961363 -171.7769963 -122.2095061)
(1381.893927 -497.814445 155.0276788)
(1563.206736 252.7501164 -172.048882)
(1721.73912 -132.8268457 226.7968634)
(1489.785004 -47.44373314 65.49249662)
(1633.261939 345.1977605 30.45766171)
(1176.501494 950.897241 -776.9687669)
(1940.030172 -374.1463373 17.82657491)
(1494.729027 -327.710696 -225.500391)
(1211.588285 162.9869205 -15.90247674)
(1323.193427 -36.6727681 332.9397738)
(1556.400302 -208.5059176 -82.62527915)
(2148.350421 -16.91386893 342.9196826)
(1957.831638 289.5973317 124.5140235)
(2149.614452 -28.02059574 -24.27382434)
(1500.393942 -334.191668 155.5169123)
(1625.672458 346.2659237 495.3144755)
(1958.898761 -191.710782 -205.8156067)
(1496.645638 -343.3561795 -394.0651107)
(1807.211557 227.2220037 285.5339215)
(1977.514029 423.6200129 -239.7133982)
(1477.938287 376.4732656 -201.5242862)
(1394.433351 -336.0358122 -11.94862821)
(1850.287972 -268.997077 -116.4366104)
(1883.24937 -230.6764016 478.4887777)
(2015.091507 -301.450014 -390.7148472)
(1712.910056 -65.82805296 369.7400981)
(1494.571858 150.5089235 -357.5665446)
(1747.539837 47.77627214 476.1920938)
(1768.498215 330.6452067 -424.9008043)
(1356.3367 -217.1583286 -515.0011609)
(1375.785825 149.3303016 -474.4100971)
(1979.823727 -310.7689943 212.4426943)
(1857.802562 -19.15037937 68.93993192)
(1594.624839 -262.4867362 470.241976)
(1789.012457 267.7556081 -422.3508688)
(1824.861266 397.4783236 79.80190712)
(1792.622927 -132.4186947 515.7769296)
(1566.130086 -60.12036011 -65.55759646)
(1565.134657 222.6992539 254.0390286)
(1712.042223 50.72463412 314.1891081)
(1672.204128 530.72157 -218.264108)
(2127.856721 296.0197215 -310.5516665)
(1525.576018 -239.8327305 222.090754)
(1892.305562 -217.4664266 5.060459753)
(2111.78147 -265.9478988 -206.7843513)
(1909.570744 112.6201239 196.5909783)
(2179.537161 246.1695467 -100.0320392)
(2087.675156 -372.6401033 6.076553971)
(1509.03577 -64.95548383 -264.5289997)
(1912.162037 38.82547144 512.2871946)
(2116.261236 -689.92192 -300.3499546)
(1652.655085 89.75928642 246.4083874)
(2129.910946 169.8539864 -135.7854547)
(1858.880802 -156.0791586 -582.4976374)
(1644.385352 276.375285 -273.64821)
(1731.772047 417.2629087 -86.83672458)
(1589.806877 1017.987693 168.590715)
(1691.351835 313.9467872 104.1485426)
(1654.843615 -14.87573165 154.9242206)
(1582.8181 425.9050257 181.2436172)
(2225.265804 -407.1777813 -95.62029296)
(936.2280326 -555.0810628 -87.77617797)
(1553.894173 -152.346811 41.57721544)
(1582.18371 -301.628227 -281.6381598)
(1557.417038 417.4831863 -22.64929311)
(1753.824358 19.99553837 395.2519874)
(1354.488465 -97.99274188 -487.7460752)
(1752.963249 174.7268191 197.5956753)
(1693.691472 631.9248212 228.2423974)
(1823.971721 309.9414089 -92.11101345)
(1688.24569 -275.1279173 55.82823265)
(1924.41033 -76.31453131 -5.886619926)
(1823.599682 220.5987236 -228.8980422)
(1422.596413 -113.6399975 -19.33180393)
(1910.229987 -380.2997458 -554.3246782)
(1965.055287 313.7781061 -69.73812563)
(1495.982768 24.40377356 42.02171257)
(1523.780976 320.6738413 -89.2316068)
(1578.831142 -168.5839247 260.0833809)
(1491.953451 17.12367204 -100.0968852)
(1523.866567 -156.1059673 -278.2765314)
(1752.213798 109.3489311 -35.25762746)
(1168.620619 307.5344481 346.4953242)
(1835.204065 201.6263521 -782.3611192)
(1365.078806 -398.3091513 -244.2698494)
(1704.897265 -151.7203834 423.2374315)
(1748.416743 313.3971034 100.8889899)
(630.2809993 133.2729436 -132.8836084)
(1846.217624 -51.36162762 -339.2897587)
(1516.299713 -409.8337165 266.1627789)
(1723.619135 -281.481001 60.92934425)
(1635.919121 -238.3730898 234.6320827)
(1788.16736 -64.79296281 -186.9286059)
(1776.098003 -428.5272076 516.0323165)
(1635.290255 171.1755338 -0.7170598559)
(1764.546356 243.2801284 -253.6554901)
(1237.034738 -234.0944611 123.4251341)
(1752.551964 -274.8127055 -142.0138363)
(2136.927507 376.6509068 -239.2566282)
(1948.840515 218.224021 -150.2104867)
(1745.443258 -22.29747099 -272.0496895)
(2233.023291 -300.7854602 -356.1739491)
(1971.322141 -145.8442345 298.3087544)
(1708.803541 -55.77864883 -56.67597338)
(1352.410712 -149.7879899 -868.0896963)
(1850.521756 -146.919391 55.03086215)
(1415.322787 -530.1065465 396.8835969)
(1936.015317 554.1400146 -273.0552311)
(1189.061404 -61.12898743 -447.7915667)
(2316.559468 -280.2660586 4.986337579)
(1767.551897 307.1731542 -216.7322793)
(1851.231589 92.14873681 264.352457)
(1212.345687 245.3147141 69.12584441)
(1726.948785 467.5962279 -250.609736)
(1725.550513 393.2044255 100.692501)
(1549.68991 -358.5076322 5.909574501)
(1827.699431 -13.42518973 -404.2221301)
(1463.645095 -158.1904228 159.0013424)
(1736.369764 595.2400497 546.7975009)
(1594.11541 113.3656537 -510.3790004)
(1330.311612 -557.8534034 -133.0070926)
(1695.090825 -150.4130747 -236.0813594)
(1650.134274 -10.61059596 -23.1790258)
(1597.615623 16.68848717 -55.2685108)
(1881.494402 528.9807755 -247.4798666)
(2181.90795 -401.4199905 -111.7201087)
(1691.19819 70.99618559 -100.6854369)
(1592.930205 191.7022177 268.418171)
(1404.019402 -10.55540839 362.6798284)
(1510.125895 -351.2091763 -118.3727239)
(2084.615828 13.5742441 -79.72383428)
(1860.392744 6.926588781 358.3307509)
(1484.56404 -41.44571852 -214.5108578)
(1496.859329 409.2150267 -225.3060643)
(1363.767746 -285.8946693 49.0658515)
(1708.254725 263.4295813 -296.6911881)
(1759.337308 79.58340832 -185.5593978)
(1308.627478 633.7108279 443.8669516)
(1468.059562 180.0894825 68.49969894)
(1516.173252 133.7948058 -106.6521001)
(1777.46718 61.07121246 199.5989655)
(1752.492152 -1.319143975 206.9741029)
(1784.197023 18.47321984 53.8745972)
(1590.621828 -251.7748338 247.2602238)
(1496.759648 19.50279637 -293.7310522)
(2104.897055 -30.82361498 71.19594096)
(1716.703481 26.90867097 -80.9229303)
(1944.891431 -371.0786352 -93.0470689)
(1755.007083 288.3135995 -256.4283295)
(2042.405483 -326.597351 1.778155064)
(1780.060957 204.4257837 -325.8179238)
(1873.767776 392.7713486 -241.3100819)
(1832.109208 121.7738186 80.68489186)
(1792.633699 -82.62395299 171.3635616)
(1705.036964 156.0075132 -37.18188292)
(1781.898801 -228.5811056 437.163603)
(1530.854777 392.3021746 120.4782471)
(825.8084546 -295.5160663 -18.22923117)
(1353.641036 -26.37042806 99.61717755)
(1764.287426 -8.498162337 -159.5353163)
(1680.224931 572.9252402 -452.1479493)
(1581.921493 353.4876728 391.94265)
(1833.604219 11.25726919 69.49700239)
(2070.836666 82.30978804 49.04572721)
(1814.212973 -252.2727036 87.34463484)
(1301.243225 196.2232003 80.31130766)
(1847.785631 211.3529422 -141.9289347)
(1913.731072 -176.0389084 -115.4573628)
(2180.696184 546.4110708 368.4133187)
(1515.788579 -61.42037301 87.67155505)
(2417.829517 -554.7763796 36.40930007)
(1469.56665 203.5059038 -326.6575741)
(1254.675788 295.2934825 -330.1785798)
(1304.822154 177.9505905 118.2561887)
(2048.921397 349.4615999 555.7193899)
(1642.613465 508.1998796 -355.1534987)
(1865.609759 -202.570096 -106.6561517)
(1913.861182 185.5797916 -319.3484814)
(1638.549441 198.365401 -668.1942671)
(1297.993025 78.28628045 -776.468424)
(1958.994795 -195.0303226 -273.8079262)
(1616.222288 259.3372472 -269.4639095)
(1791.26393 138.2476368 458.5375397)
(1947.867073 -269.119445 229.6142455)
(1303.326348 -174.1157641 172.2068294)
(1563.454882 -227.2327897 -82.57101133)
(1535.642691 -28.46292063 -116.9025274)
(2171.830185 321.4744647 171.2058135)
(2148.7444 -370.2023554 -404.4255086)
(1920.993122 -17.65526489 140.5696688)
(1632.894289 11.10077235 114.08844)
(1857.955048 -91.51697002 219.3640953)
(1441.447848 11.58378758 -108.3860767)
(1277.846548 134.7243953 -192.5023653)
(1637.414126 -159.7943406 -7.410680072)
(1867.26787 -306.6431836 -678.8292362)
(1770.335041 -204.2885895 -218.9806761)
(1947.232962 -169.8156755 -67.23674227)
(1462.470895 814.9567885 -155.40104)
(1981.148641 74.9509913 133.3789008)
(1480.034599 -422.682189 145.9122412)
(1758.238074 462.458009 -638.1804166)
(1551.355626 -280.1181448 -402.4047879)
(1860.37921 241.1971576 -343.8389967)
(1886.065092 134.845188 418.4901514)
(1521.904044 -49.85210743 75.90646292)
(1440.776777 493.9181587 -157.0832723)
(1713.588015 -191.3677491 416.8683382)
(1806.568762 -281.4990921 -129.8494801)
(1423.598983 -496.2400511 165.4076462)
(1530.964516 -120.792097 -349.928439)
(1899.979379 -152.7276283 166.0523973)
(1885.374801 -84.14727046 -58.50360479)
(1548.171389 36.67609669 341.5635722)
(1514.59165 98.62963758 -213.6762251)
(1426.442009 -32.01429946 372.6326147)
(1591.596077 135.5428322 -78.44080945)
(1512.256424 -208.5129935 111.7263157)
(1728.623981 277.5255569 -441.7769975)
(1279.414553 -48.47703204 577.0539216)
(2056.09555 -694.0500672 -344.456662)
(1459.245657 -251.8254484 -445.7943114)
(1657.772992 -273.739951 -73.63254301)
(1568.904675 497.6723582 -587.5238104)
(2003.856129 -109.4964507 258.9825111)
(1744.865586 -237.4866692 133.0884888)
(1908.97229 -234.209503 -40.88040446)
(1952.753161 -260.5755597 -246.9473605)
(1431.44248 -48.35900025 94.84047028)
(1628.506427 264.1349345 -177.0773695)
(2045.823996 706.0511144 53.23761104)
(1360.481481 355.9423252 -136.7205066)
(1424.014696 442.427147 68.88081555)
(1931.317341 -223.9663011 -240.4747768)
(1829.32556 -371.3421641 -659.9327924)
(1574.509151 154.0060674 -7.006835868)
(2117.495257 510.506463 -97.19041529)
(1867.216409 290.7658927 -97.73652436)
(1337.618002 231.4580851 44.39215919)
(1478.812089 -73.2270661 -100.9865242)
(1753.450016 139.6702565 -143.2355662)
(1619.837651 45.60514398 136.1905036)
(1650.589936 -144.2269323 16.43649361)
(2148.094693 -187.3529541 -144.6983417)
(2115.046524 -304.7358464 196.5248172)
(1280.493233 -517.6357627 83.87071677)
(1350.472904 173.5199691 -233.4081904)
(1638.618479 401.6240373 -68.80332652)
(1366.674196 -150.4409891 388.7884656)
(1541.985589 -399.7614252 -305.4547816)
(2029.255842 533.6460292 765.2928105)
(1851.049746 306.2564181 112.421335)
(1573.045617 -427.2259841 491.0069572)
(1507.984386 17.43420923 185.8906583)
(2017.499968 375.8539054 -29.85481668)
(1786.220239 -299.1871723 340.1769762)
(1749.684459 -121.678922 87.4220905)
(1412.573587 168.8243065 214.6516299)
(1545.897711 17.91634617 304.9237041)
(1854.64368 14.13631624 265.2273873)
(1585.767861 -410.8392625 -256.1131165)
(1516.866724 -201.4925059 39.85100343)
(1972.508456 -325.732165 -470.858331)
(2375.641389 -360.2256656 132.7231652)
(1614.298553 -168.4876677 125.5200447)
(2003.741174 584.5908229 -614.4544387)
(2036.598271 138.0017368 240.0709744)
(1906.380303 176.2340875 -222.3810422)
(1794.77798 -7.072768265 507.6728682)
(1668.757278 31.49433097 -58.347827)
(1678.564557 -50.78898008 -214.3967961)
(1490.608748 136.636597 -299.1080745)
(1147.459459 336.0128578 -171.1329624)
(1752.763494 210.2509618 88.7670043)
(1730.075328 -173.1836304 59.96341428)
(1718.122966 -54.06808588 148.1705269)
(1751.586643 -67.42793069 227.4497654)
(1739.977657 378.7052724 202.4176591)
(1470.103875 494.2905582 -56.94473604)
(1985.328449 123.0374105 -582.6904337)