/*--------------------------------*- C++ -*----------------------------------*\
| =========                 |                                                 |
| \\      /  F ield         | OpenFOAM: The Open Source CFD Toolbox           |
|  \\    /   O peration     | Version:  2406                                  |
|   \\  /    A nd           | Website:  www.openfoam.com                      |
|    \\/     M anipulation  |                                                 |
\*---------------------------------------------------------------------------*/
FoamFile
{
    version     2.0;
    format      ascii;
    arch        "LSB;label=32;scalar=64";
    class       volScalarField;
    location    "0.012";
    object      dsmcRhoNMean;
}
// * * * * * * * * * * * * * * * * * * * * * * * * * * * * * * * * * * * * * //

dimensions      [0 -3 0 0 0 0 0];

internalField   nonuniform List<scalar> 
654
(
17.1135
17.812
17.93316667
17.76416667
17.533
17.46
15.177
15.70983333
16.31116667
16.73933333
17.151
17.54166667
17.59066667
17.5985
17.68533333
17.54566667
17.34733333
11.358
11.92283333
12.35766667
12.91833333
13.52833333
14.12716667
14.74333333
15.19766667
15.82366667
16.28783333
16.705
17.10516667
17.20383333
17.29683333
17.37066667
17.24916667
9.301666667
9.430666667
9.481666667
9.713333333
9.928333333
10.21483333
10.49716667
10.93716667
11.41966667
11.94066667
12.49133333
13.02716667
13.599
14.19433333
14.7115
15.257
15.76816667
16.28583333
16.75133333
16.96183333
17.03283333
17.11616667
9.033
8.998333333
8.955
8.983
9.011166667
8.993666667
9.038333333
9.0655
9.219166667
9.382
9.488666667
9.667833333
9.908666667
10.13716667
10.39266667
10.71083333
11.14366667
11.59916667
12.08616667
12.63583333
13.21966667
13.79033333
14.3
14.8885
15.41916667
15.91616667
16.3445
16.63666667
16.80433333
9.046833333
8.9975
8.979
8.991666667
8.965666667
8.930166667
8.953166667
8.995166667
9.037833333
9.053833333
9.064
9.166166667
9.237333333
9.436833333
9.632833333
9.877333333
10.14816667
10.4235
10.75966667
11.15416667
11.69
12.14533333
12.71683333
13.267
13.889
14.49233333
14.90916667
15.37433333
15.7615
16.0955
9.001666667
8.938833333
8.897666667
8.850333333
8.829333333
8.8265
8.846
8.855666667
8.823833333
8.907666667
8.941
8.975666667
9.0355
9.133166667
9.253
9.385833333
9.540333333
9.725666667
10.05383333
10.364
10.68666667
11.20166667
11.73633333
12.30566667
12.90683333
13.396
14.03083333
14.60283333
15.12966667
15.54433333
8.998333333
8.964666667
8.920833333
8.887
8.8515
8.770333333
8.682833333
8.671833333
8.669833333
8.631
8.5935
8.6905
8.7355
8.794666667
8.871666667
9.018166667
9.163166667
9.421333333
9.539
9.827333333
10.1935
10.52266667
10.83633333
11.33566667
11.83583333
12.33416667
12.93683333
13.479
14.053
14.50566667
8.971833333
8.914666667
8.8735
8.849666667
8.7745
8.725
8.676666667
8.645333333
8.594333333
8.597
8.586833333
8.623833333
8.593666667
8.582333333
8.638166667
8.707
8.7645
8.920333333
9.132666667
9.358166667
9.597
9.962
10.24
10.51433333
10.989
11.5415
12.03866667
12.58266667
13.14916667
13.72916667
8.936
8.871333333
8.790833333
8.703833333
8.690166667
8.658333333
8.669833333
8.634
8.6205
8.543166667
8.565333333
8.503
8.469
8.4935
8.517
8.556833333
8.6555
8.799333333
8.924333333
9.023333333
9.214833333
9.463333333
9.839833333
10.1395
10.4575
10.907
11.36816667
11.79916667
12.24533333
12.771
8.9025
8.8295
8.799833333
8.7435
8.699666667
8.631666667
8.569
8.508333333
8.485333333
8.465
8.431666667
8.4085
8.4105
8.432833333
8.4125
8.417333333
8.402833333
8.483666667
8.5935
8.731333333
8.873333333
9.089666667
9.269333333
9.5775
9.845333333
10.15883333
10.52633333
10.9485
11.453
12.01733333
9.0375
8.966166667
8.8455
8.771
8.682833333
8.662666667
8.5805
8.5205
8.473
8.403833333
8.4035
8.3865
8.3635
8.313333333
8.347166667
8.415666667
8.424166667
8.427166667
8.459666667
8.442833333
8.558666667
8.605166667
8.754333333
8.958833333
9.195666667
9.484833333
9.849
10.23916667
10.7265
11.188
8.839666667
8.8325
8.790666667
8.747833333
8.666833333
8.618666667
8.5325
8.485666667
8.419666667
8.405
8.3455
8.301166667
8.3205
8.297333333
8.248666667
8.269
8.2445
8.260166667
8.266833333
8.3235
8.360833333
8.4295
8.5135
8.627
8.8195
9.049333333
9.287833333
9.653333333
9.967166667
10.3865
8.872833333
8.8025
8.739
8.683333333
8.6195
8.534833333
8.544666667
8.471833333
8.440166667
8.438833333
8.346
8.312666667
8.2645
8.241
8.253
8.218333333
8.179166667
8.146833333
8.101833333
8.15
8.144333333
8.233
8.314166667
8.426833333
8.518666667
8.690333333
8.894
9.102
9.403
9.739
8.822333333
8.7315
8.667166667
8.6415
8.596833333
8.607666667
8.589666667
8.541666667
8.459166667
8.378166667
8.359166667
8.333166667
8.254333333
8.1925
8.083666667
8.0795
8.018333333
7.975333333
7.984333333
7.977166667
7.941833333
7.967666667
7.990666667
8.053666667
8.168333333
8.310833333
8.458666667
8.716166667
8.862666667
9.1145
8.924166667
8.865166667
8.802833333
8.753166667
8.666166667
8.611833333
8.518666667
8.507833333
8.479
8.415166667
8.3085
8.247166667
8.185666667
8.131333333
8.065666667
8.012166667
7.959666667
7.945
7.896333333
7.908333333
7.910333333
7.93
7.9615
8.011833333
8.004666667
8.018666667
8.115833333
8.265833333
8.525333333
8.721166667
8.954166667
8.937333333
8.900833333
8.772
8.695166667
8.622
8.524833333
8.4455
8.352
8.264333333
8.204
8.155
8.126166667
8.082166667
8.04
8.045
8.05
8.022833333
8.043833333
7.954166667
7.991666667
7.928666667
7.823833333
7.854
7.889166667
7.8675
7.915666667
8.0025
8.069833333
8.3125
9.026166667
8.9395
8.884833333
8.831833333
8.741166667
8.676166667
8.613
8.553166667
8.431666667
8.353666667
8.286166667
8.2415
8.174
8.1645
8.127666667
8.017166667
7.9535
7.907166667
7.819833333
7.807
7.774333333
7.723833333
7.768666667
7.709
7.782666667
7.789
7.854666667
7.875166667
7.896166667
7.991833333
8.9235
8.810333333
8.744666667
8.688166667
8.635833333
8.573833333
8.481833333
8.473833333
8.429333333
8.367833333
8.3635
8.301166667
8.2165
8.1025
8.019333333
7.979833333
7.895333333
7.8915
7.818166667
7.769666667
7.7645
7.765166667
7.712833333
7.714666667
7.671333333
7.6505
7.638
7.6675
7.7565
7.771
8.879666667
8.7895
8.770166667
8.694833333
8.661166667
8.603166667
8.544
8.445166667
8.392333333
8.298833333
8.254
8.133166667
8.092666667
8.112833333
8.061166667
8.011666667
7.9605
7.882833333
7.888
7.84
7.74
7.6765
7.595333333
7.625166667
7.653666667
7.677
7.604166667
7.5565
7.608
7.620666667
8.9
8.8675
8.739166667
8.7005
8.623333333
8.587166667
8.586833333
8.574
8.513333333
8.443
8.364833333
8.3075
8.257833333
8.145666667
8.091166667
8.055666667
8.0055
7.867333333
7.786666667
7.728333333
7.706833333
7.724333333
7.727166667
7.645666667
7.530333333
7.539333333
7.575833333
7.6375
7.667666667
7.668333333
8.970666667
8.923333333
8.878833333
8.8275
8.746
8.643666667
8.521166667
8.414666667
8.392166667
8.355166667
8.291333333
8.260666667
8.154333333
8.099
8.041166667
7.973
7.897
7.845666667
7.819
7.761833333
7.686666667
7.615166667
7.553666667
7.5395
7.5205
7.538666667
7.493333333
7.479833333
7.464666667
7.5035
8.9175
8.831333333
8.7505
8.706833333
8.67
8.630166667
8.570166667
8.479166667
8.407833333
8.326
8.252833333
8.234166667
8.217666667
8.178166667
8.056
8.012
7.9655
7.9425
7.890166667
7.815333333
7.733666667
7.662333333
7.622666667
7.558833333
7.5095
7.417833333
7.441166667
7.395333333
7.4125
7.406166667
8.777333333
8.760333333
8.679333333
8.640666667
8.541833333
8.446166667
8.416166667
8.3735
8.301666667
8.228666667
8.192666667
8.049166667
7.983166667
7.914833333
7.846666667
7.8335
7.780333333
7.695333333
7.588
7.571
7.556166667
7.555
7.449666667
7.405333333
7.3255
7.289333333
7.240666667
7.193666667
7.140833333
7.157666667
)
;

boundaryField
{
    flow
    {
        type            calculated;
        value           nonuniform List<scalar> 
55
(
17.1135
17.46
17.34733333
17.24916667
17.11616667
16.80433333
16.0955
15.54433333
14.50566667
13.72916667
12.771
12.01733333
11.188
10.3865
9.739
9.1145
8.721166667
8.3125
7.991833333
7.771
7.620666667
7.668333333
7.5035
7.406166667
7.157666667
8.777333333
8.760333333
8.679333333
8.640666667
8.541833333
8.446166667
8.416166667
8.3735
8.301666667
8.228666667
8.192666667
8.049166667
7.983166667
7.914833333
7.846666667
7.8335
7.780333333
7.695333333
7.588
7.571
7.556166667
7.555
7.449666667
7.405333333
7.3255
7.289333333
7.240666667
7.193666667
7.140833333
7.157666667
)
;
    }
    obstacle
    {
        type            calculated;
        value           nonuniform List<scalar> 0();
    }
    frontAndBack
    {
        type            empty;
    }
    procBoundary3to1
    {
        type            processor;
        value           nonuniform List<scalar> 
36
(
16.767
18.098
17.89783333
17.70666667
17.45916667
17.45916667
16.246
16.76183333
17.30083333
17.56616667
17.81883333
17.80583333
17.80583333
12.321
12.86433333
13.395
13.98716667
14.54916667
14.54916667
9.634833333
9.7515
10.09983333
10.33633333
10.62633333
10.94766667
10.94766667
9.077666667
9.063
9.039
9.097833333
9.067166667
9.121333333
9.203666667
9.203666667
9.034833333
9.034833333
)
;
    }
    procBoundary3to2
    {
        type            processor;
        value           nonuniform List<scalar> 
19
(
9.076166667
9.0095
9.072833333
9.026333333
8.985
8.995333333
9.084166667
8.915833333
8.901
8.922333333
8.989666667
9.014333333
9.084
8.962666667
8.929666667
9.003166667
8.990333333
9.007666667
8.866333333
)
;
    }
}


// ************************************************************************* //
