/*--------------------------------*- C++ -*----------------------------------*\
| =========                 |                                                 |
| \\      /  F ield         | OpenFOAM: The Open Source CFD Toolbox           |
|  \\    /   O peration     | Version:  2406                                  |
|   \\  /    A nd           | Website:  www.openfoam.com                      |
|    \\/     M anipulation  |                                                 |
\*---------------------------------------------------------------------------*/
FoamFile
{
    version     2.0;
    format      ascii;
    arch        "LSB;label=32;scalar=64";
    class       volScalarField;
    location    "0.012";
    object      iDofMean;
}
// * * * * * * * * * * * * * * * * * * * * * * * * * * * * * * * * * * * * * //

dimensions      [0 -3 0 0 0 0 0];

internalField   nonuniform List<scalar> 
654
(
4.875587892e+20
4.892428073e+20
4.970313294e+20
4.968465168e+20
4.949035185e+20
4.974304719e+20
3.955678503e+20
4.129721456e+20
4.324942871e+20
4.477259497e+20
4.627809592e+20
4.775320999e+20
4.831634286e+20
4.877557843e+20
4.946416249e+20
4.952610601e+20
4.942206349e+20
2.839411262e+20
3.005160897e+20
3.140624465e+20
3.310604045e+20
3.496203612e+20
3.682053763e+20
3.875652829e+20
4.029695784e+20
4.23234668e+20
4.394903582e+20
4.54755747e+20
4.69828188e+20
4.768173023e+20
4.837756566e+20
4.903213443e+20
4.914238942e+20
2.216709411e+20
2.265088398e+20
2.295350213e+20
2.370179586e+20
2.442112136e+20
2.532939845e+20
2.624209654e+20
2.756722746e+20
2.902237597e+20
3.060055686e+20
3.228205844e+20
3.395353702e+20
3.574836276e+20
3.763659707e+20
3.934876125e+20
4.116756513e+20
4.292525875e+20
4.473235357e+20
4.642759172e+20
4.744060272e+20
4.807853275e+20
4.876347617e+20
2.041417383e+20
2.048710186e+20
2.054124316e+20
2.076106418e+20
2.098461851e+20
2.110443986e+20
2.137311927e+20
2.160427791e+20
2.214289652e+20
2.271222644e+20
2.315358017e+20
2.378035902e+20
2.457020686e+20
2.534212487e+20
2.619481008e+20
2.722091949e+20
2.855807045e+20
2.997638147e+20
3.150094858e+20
3.32164387e+20
3.505224568e+20
3.688492195e+20
3.858531699e+20
4.053056533e+20
4.235187656e+20
4.411286391e+20
4.571398167e+20
4.696027416e+20
4.787507136e+20
2.029557728e+20
2.033394513e+20
2.044308408e+20
2.062535009e+20
2.072100424e+20
2.079599082e+20
2.100940269e+20
2.127104191e+20
2.153834444e+20
2.174579334e+20
2.194240218e+20
2.23666379e+20
2.272144047e+20
2.340021632e+20
2.408133093e+20
2.489590817e+20
2.579093742e+20
2.671248711e+20
2.780681467e+20
2.907181791e+20
3.073008046e+20
3.220362705e+20
3.401363822e+20
3.579800035e+20
3.780965388e+20
3.980614105e+20
4.132188735e+20
4.300051957e+20
4.448994357e+20
4.585562562e+20
2.019425083e+20
2.020136125e+20
2.025790739e+20
2.030115568e+20
2.04059174e+20
2.055457864e+20
2.075792672e+20
2.094116392e+20
2.102835448e+20
2.139472545e+20
2.16446401e+20
2.190179331e+20
2.222498325e+20
2.26472239e+20
2.313177708e+20
2.365707758e+20
2.424616643e+20
2.492413733e+20
2.598268948e+20
2.701235554e+20
2.809256809e+20
2.970147321e+20
3.139110072e+20
3.320405938e+20
3.513592717e+20
3.679483825e+20
3.888751983e+20
4.084270888e+20
4.270646971e+20
4.428536733e+20
2.0186773e+20
2.025974342e+20
2.031065233e+20
2.038526276e+20
2.04571479e+20
2.042378151e+20
2.037504161e+20
2.050644958e+20
2.066135224e+20
2.07302184e+20
2.080340187e+20
2.120594975e+20
2.148706117e+20
2.180785618e+20
2.217847354e+20
2.273037061e+20
2.328762089e+20
2.414421694e+20
2.465217661e+20
2.561360691e+20
2.679615676e+20
2.790108955e+20
2.89838761e+20
3.058673368e+20
3.22203728e+20
3.387829706e+20
3.585541546e+20
3.769945602e+20
3.966736523e+20
4.132623529e+20
2.012732302e+20
2.014674567e+20
2.020288554e+20
2.029962646e+20
2.027918932e+20
2.031821204e+20
2.036057098e+20
2.044378468e+20
2.048142582e+20
2.064855624e+20
2.078726301e+20
2.104327408e+20
2.113818784e+20
2.128133994e+20
2.159474195e+20
2.194607222e+20
2.227443388e+20
2.286029522e+20
2.360206642e+20
2.439078805e+20
2.522810797e+20
2.641446893e+20
2.738886665e+20
2.837055137e+20
2.991506078e+20
3.170107686e+20
3.336607867e+20
3.51924986e+20
3.711611731e+20
3.911400833e+20
2.004693487e+20
2.004881414e+20
2.001467257e+20
1.996510951e+20
2.008428245e+20
2.016296335e+20
2.034453611e+20
2.041698453e+20
2.054378442e+20
2.051925742e+20
2.073521516e+20
2.074842537e+20
2.083154039e+20
2.106106274e+20
2.129183458e+20
2.156757578e+20
2.199741748e+20
2.255020658e+20
2.306365882e+20
2.351809033e+20
2.422348717e+20
2.509224295e+20
2.631854349e+20
2.735914837e+20
2.846817255e+20
2.995829331e+20
3.150773645e+20
3.300112477e+20
3.45648694e+20
3.638421887e+20
1.997178144e+20
1.995427298e+20
2.003516376e+20
2.005609808e+20
2.010623808e+20
2.010086345e+20
2.010792141e+20
2.011981786e+20
2.022166434e+20
2.033151416e+20
2.041163074e+20
2.051783277e+20
2.068764542e+20
2.091062953e+20
2.103059275e+20
2.121596459e+20
2.135528062e+20
2.174124205e+20
2.220866754e+20
2.275703207e+20
2.332576946e+20
2.410145752e+20
2.479263055e+20
2.584271843e+20
2.680168784e+20
2.790330192e+20
2.917453201e+20
3.062189289e+20
3.232835253e+20
3.423704379e+20
2.027463912e+20
2.026313335e+20
2.013913608e+20
2.011917854e+20
2.006733386e+20
2.017305424e+20
2.013490733e+20
2.014858891e+20
2.019227254e+20
2.018460206e+20
2.034344419e+20
2.046415023e+20
2.057203779e+20
2.061430917e+20
2.086726468e+20
2.121176409e+20
2.140949796e+20
2.159644833e+20
2.18627945e+20
2.200509626e+20
2.249858965e+20
2.281679458e+20
2.341516312e+20
2.41733865e+20
2.503311763e+20
2.605202361e+20
2.729725126e+20
2.863795659e+20
3.027766291e+20
3.187429622e+20
1.983082161e+20
1.996105255e+20
2.001429325e+20
2.006603815e+20
2.003035545e+20
2.007059005e+20
2.002227106e+20
2.006621771e+20
2.00651722e+20
2.01874042e+20
2.02030359e+20
2.025592564e+20
2.046626879e+20
2.057463431e+20
2.062102221e+20
2.084208909e+20
2.095288625e+20
2.116847466e+20
2.13644446e+20
2.169407017e+20
2.19785354e+20
2.235101061e+20
2.277100764e+20
2.327800907e+20
2.400908917e+20
2.48558343e+20
2.574193501e+20
2.69994373e+20
2.813429449e+20
2.959084561e+20
1.990522753e+20
1.989325419e+20
1.989666033e+20
1.9918086e+20
1.9920961e+20
1.987536429e+20
2.005082122e+20
2.003350592e+20
2.011402639e+20
2.026866636e+20
2.020424663e+20
2.028398714e+20
2.032852334e+20
2.043494649e+20
2.063185521e+20
2.071438347e+20
2.07868458e+20
2.087803333e+20
2.09380256e+20
2.124186603e+20
2.140941116e+20
2.182998603e+20
2.223785177e+20
2.273790457e+20
2.319013842e+20
2.386976779e+20
2.465039625e+20
2.545741143e+20
2.654182276e+20
2.774613612e+20
1.979193618e+20
1.97327971e+20
1.973311262e+20
1.982212762e+20
1.986857493e+20
2.004497396e+20
2.015641788e+20
2.019864213e+20
2.015930589e+20
2.012295502e+20
2.023612057e+20
2.03340098e+20
2.030351614e+20
2.031468258e+20
2.02085351e+20
2.036445263e+20
2.037809768e+20
2.043852726e+20
2.063436371e+20
2.079139929e+20
2.087708942e+20
2.112644905e+20
2.137258845e+20
2.173099869e+20
2.223643536e+20
2.282739366e+20
2.344383666e+20
2.437827301e+20
2.501662554e+20
2.596695372e+20
2.002038809e+20
2.00348779e+20
2.004199406e+20
2.007827191e+20
2.002881484e+20
2.005467703e+20
1.998980976e+20
2.011863565e+20
2.020657133e+20
2.021182283e+20
2.011346519e+20
2.012415862e+20
2.013461398e+20
2.016300954e+20
2.016353667e+20
2.019473868e+20
2.022899997e+20
2.036079132e+20
2.040694034e+20
2.061199457e+20
2.079428381e+20
2.102657502e+20
2.129457654e+20
2.16181209e+20
2.179089016e+20
2.202489889e+20
2.249364805e+20
2.311873414e+20
2.406443542e+20
2.484635768e+20
2.008768994e+20
2.019797132e+20
2.0265117e+20
2.012147236e+20
2.009583805e+20
2.007835235e+20
2.000428054e+20
1.997123483e+20
1.990391348e+20
1.984954639e+20
1.986048862e+20
1.989925998e+20
1.998825927e+20
2.004109251e+20
2.009937185e+20
2.027749507e+20
2.045857655e+20
2.056025635e+20
2.078813292e+20
2.073145309e+20
2.100808876e+20
2.102303948e+20
2.092636032e+20
2.119224351e+20
2.14764676e+20
2.160968871e+20
2.193887114e+20
2.238221654e+20
2.27786968e+20
2.36820781e+20
2.024921389e+20
2.020286789e+20
2.022868874e+20
2.025871968e+20
2.020215097e+20
2.020449231e+20
2.021117148e+20
2.022583625e+20
2.009376977e+20
2.006411027e+20
2.005940015e+20
2.011033122e+20
2.010591701e+20
2.024525203e+20
2.031853183e+20
2.020734106e+20
2.021332794e+20
2.026383517e+20
2.02092369e+20
2.034788303e+20
2.043677389e+20
2.047991925e+20
2.077880619e+20
2.080099361e+20
2.118654549e+20
2.139407249e+20
2.176980482e+20
2.202607756e+20
2.228848837e+20
2.27685076e+20
2.001889249e+20
1.991095688e+20
1.990956201e+20
1.992917299e+20
1.995870979e+20
1.996618495e+20
1.990337721e+20
2.003823535e+20
2.008820913e+20
2.009813608e+20
2.024661099e+20
2.02559258e+20
2.021045597e+20
2.009151243e+20
2.004770696e+20
2.011324206e+20
2.006550063e+20
2.022368593e+20
2.020492981e+20
2.025057878e+20
2.041092435e+20
2.058951552e+20
2.062946929e+20
2.081628383e+20
2.088346555e+20
2.101365408e+20
2.116929689e+20
2.144525403e+20
2.189425184e+20
2.213936007e+20
1.992055751e+20
1.986387478e+20
1.996761969e+20
1.994446519e+20
2.001725894e+20
2.003449451e+20
2.004925683e+20
1.997044674e+20
2.000003327e+20
1.993240962e+20
1.998152996e+20
1.984598365e+20
1.990585797e+20
2.011713567e+20
2.015228686e+20
2.019347827e+20
2.0231118e+20
2.020147588e+20
2.038540404e+20
2.043389321e+20
2.034652034e+20
2.035441402e+20
2.031519274e+20
2.057478832e+20
2.083537206e+20
2.108644172e+20
2.107552524e+20
2.113479779e+20
2.14750811e+20
2.171106424e+20
1.996617282e+20
2.004015098e+20
1.989703979e+20
1.995746356e+20
1.992982041e+20
1.99972349e+20
2.014976906e+20
2.027510123e+20
2.028839217e+20
2.027867384e+20
2.024983877e+20
2.027137996e+20
2.031212507e+20
2.019855129e+20
2.022728452e+20
2.03043805e+20
2.034548255e+20
2.016175376e+20
2.012352274e+20
2.014284924e+20
2.025933314e+20
2.048124502e+20
2.066780657e+20
2.063010293e+20
2.04996252e+20
2.070831222e+20
2.099699707e+20
2.136134693e+20
2.164350203e+20
2.184686543e+20
2.012470573e+20
2.016633195e+20
2.021502815e+20
2.024877975e+20
2.021332168e+20
2.012880842e+20
1.999567638e+20
1.989832266e+20
1.999963593e+20
2.006771302e+20
2.007190777e+20
2.015710038e+20
2.005754211e+20
2.008283359e+20
2.010228842e+20
2.009601858e+20
2.006973669e+20
2.010622821e+20
2.020708344e+20
2.023016226e+20
2.02063202e+20
2.019178712e+20
2.020374698e+20
2.034363636e+20
2.047285618e+20
2.070648108e+20
2.076834206e+20
2.092036837e+20
2.107049448e+20
2.137725971e+20
2.000543229e+20
1.995841608e+20
1.992284314e+20
1.997199114e+20
2.00376741e+20
2.00973705e+20
2.011065924e+20
2.005084704e+20
2.003697181e+20
1.999765941e+20
1.997870582e+20
2.009243693e+20
2.021332551e+20
2.027914067e+20
2.013937076e+20
2.019431843e+20
2.024382487e+20
2.035438453e+20
2.039100347e+20
2.03696029e+20
2.032987142e+20
2.031685061e+20
2.038830104e+20
2.039580281e+20
2.044291117e+20
2.037458776e+20
2.062375818e+20
2.068403025e+20
2.092324396e+20
2.109996018e+20
1.969098362e+20
1.979795928e+20
1.976081342e+20
1.982021609e+20
1.974146165e+20
1.966888313e+20
1.974928453e+20
1.980097521e+20
1.978396269e+20
1.976388102e+20
1.98330524e+20
1.964101289e+20
1.963651657e+20
1.962616135e+20
1.961605362e+20
1.974440757e+20
1.977323557e+20
1.972096632e+20
1.961009709e+20
1.973278115e+20
1.986326841e+20
2.003225401e+20
1.992557897e+20
1.998161777e+20
1.994201272e+20
2.002163638e+20
2.006805739e+20
2.011998814e+20
2.0156411e+20
2.039199031e+20
)
;

boundaryField
{
    flow
    {
        type            calculated;
        value           nonuniform List<scalar> 
55
(
4.875587892e+20
4.974304719e+20
4.942206349e+20
4.914238942e+20
4.876347617e+20
4.787507136e+20
4.585562562e+20
4.428536733e+20
4.132623529e+20
3.911400833e+20
3.638421887e+20
3.423704379e+20
3.187429622e+20
2.959084561e+20
2.774613612e+20
2.596695372e+20
2.484635768e+20
2.36820781e+20
2.27685076e+20
2.213936007e+20
2.171106424e+20
2.184686543e+20
2.137725971e+20
2.109996018e+20
2.039199031e+20
1.969098362e+20
1.979795928e+20
1.976081342e+20
1.982021609e+20
1.974146165e+20
1.966888313e+20
1.974928453e+20
1.980097521e+20
1.978396269e+20
1.976388102e+20
1.98330524e+20
1.964101289e+20
1.963651657e+20
1.962616135e+20
1.961605362e+20
1.974440757e+20
1.977323557e+20
1.972096632e+20
1.961009709e+20
1.973278115e+20
1.986326841e+20
2.003225401e+20
1.992557897e+20
1.998161777e+20
1.994201272e+20
2.002163638e+20
2.006805739e+20
2.011998814e+20
2.0156411e+20
2.039199031e+20
)
;
    }
    obstacle
    {
        type            calculated;
        value           nonuniform List<scalar> 0();
    }
    frontAndBack
    {
        type            empty;
    }
    procBoundary3to1
    {
        type            processor;
        value           nonuniform List<scalar> 
36
(
4.776871019e+20
4.970983702e+20
4.960520348e+20
4.952382975e+20
4.92819427e+20
4.92819427e+20
4.234298805e+20
4.406265854e+20
4.587355156e+20
4.698412075e+20
4.80800936e+20
4.847234468e+20
4.847234468e+20
3.080153763e+20
3.242466873e+20
3.404256309e+20
3.584515818e+20
3.760023338e+20
3.760023338e+20
2.296107406e+20
2.342147198e+20
2.444997867e+20
2.522199684e+20
2.613801987e+20
2.714658204e+20
2.714658204e+20
2.051511819e+20
2.06343326e+20
2.073392484e+20
2.102646144e+20
2.111502766e+20
2.140402091e+20
2.176408616e+20
2.176408616e+20
2.026865675e+20
2.026865675e+20
)
;
    }
    procBoundary3to2
    {
        type            processor;
        value           nonuniform List<scalar> 
19
(
2.021322647e+20
2.006475537e+20
2.020580291e+20
2.010224418e+20
2.001019224e+20
2.003320526e+20
2.023104314e+20
1.985615348e+20
1.982311866e+20
1.987062941e+20
2.002058522e+20
2.007551952e+20
2.023067182e+20
1.996045428e+20
1.988696137e+20
2.005065061e+20
2.002206993e+20
2.006067241e+20
1.974591369e+20
)
;
    }
}


// ************************************************************************* //
