/*--------------------------------*- C++ -*----------------------------------*\
| =========                 |                                                 |
| \\      /  F ield         | OpenFOAM: The Open Source CFD Toolbox           |
|  \\    /   O peration     | Version:  2406                                  |
|   \\  /    A nd           | Website:  www.openfoam.com                      |
|    \\/     M anipulation  |                                                 |
\*---------------------------------------------------------------------------*/
FoamFile
{
    version     2.0;
    format      ascii;
    arch        "LSB;label=32;scalar=64";
    class       volScalarField;
    location    "0.012";
    object      iDof;
}
// * * * * * * * * * * * * * * * * * * * * * * * * * * * * * * * * * * * * * //

dimensions      [0 -3 0 0 0 0 0];

internalField   nonuniform List<scalar> 
654
(
7.122429502e+20
6.31741779e+20
3.880206291e+20
4.754735161e+20
5.92766434e+20
5.128149195e+20
3.127636689e+20
2.1029995e+20
3.977284053e+20
5.616857467e+20
5.396547831e+20
4.355637205e+20
2.197362671e+20
3.603048667e+20
4.195354554e+20
5.080855149e+20
7.122429502e+20
1.499953123e+20
3.276661727e+20
2.541438081e+20
2.818989382e+20
4.651841692e+20
4.691455073e+20
3.417374188e+20
2.386370411e+20
4.279510451e+20
3.777583482e+20
4.355637205e+20
5.493406725e+20
4.98883666e+20
4.195354554e+20
6.209934127e+20
5.128149242e+20
1.191565711e+20
1.681282919e+20
2.662912886e+20
3.660194968e+20
3.197662357e+20
9.918673216e+19
1.74994531e+20
3.528712657e+20
1.779006671e+20
3.331532906e+20
2.067485196e+20
4.691455034e+20
4.205999001e+20
3.446979512e+20
6.68673508e+20
4.047410873e+20
4.083409916e+20
5.493406774e+20
3.880206256e+20
5.593806021e+20
5.080855149e+20
4.558354881e+20
1.355973021e+20
2.276766275e+20
3.211361299e+20
1.155575207e+20
2.328734922e+20
1.642612346e+20
3.31060671e+20
1.668191995e+20
1.441099656e+20
1.694580953e+20
2.684142998e+20
1.229870137e+20
1.487800994e+20
3.999875027e+20
1.008203608e+20
1.524862836e+20
2.050174062e+20
2.325920827e+20
2.606363908e+20
2.365874418e+20
3.446979454e+20
4.814449216e+20
4.856893048e+20
4.900091856e+20
5.493406677e+20
4.157363846e+20
5.314115768e+20
5.363124879e+20
6.267737905e+20
3.140746287e+20
2.259955002e+20
1.593736369e+20
2.293829482e+20
1.61780529e+20
1.862987924e+20
3.05056574e+20
1.65530333e+20
2.383131404e+20
3.122382565e+20
2.420829896e+20
1.22006498e+20
3.44363633e+20
2.975601941e+20
1.499953135e+20
1.764356343e+20
1.779006671e+20
2.818989382e+20
3.359663472e+20
2.345727556e+20
3.417374217e+20
3.446979512e+20
3.209632838e+20
3.777583514e+20
5.444546602e+20
5.768077112e+20
5.543151844e+20
4.475044857e+20
5.080855149e+20
4.558354881e+20
2.019051184e+20
2.937941524e+20
2.73211953e+20
2.064446549e+20
2.080035373e+20
1.862987924e+20
1.642612334e+20
1.418831447e+20
9.532525688e+19
9.607330968e+19
1.452497938e+20
1.708090985e+20
2.213766247e+20
1.983734643e+20
2.749914059e+20
2.016407216e+20
2.541438081e+20
2.306445858e+20
2.842792145e+20
3.909545862e+20
4.205998965e+20
2.916674947e+20
4.012041048e+20
3.50775609e+20
4.08340988e+20
4.944066053e+20
4.98883666e+20
5.314115768e+20
6.209934127e+20
4.843252062e+20
3.365085331e+20
2.259955018e+20
1.593736381e+20
9.175317996e+19
1.386690249e+20
2.561608414e+20
2.581247953e+20
1.655303343e+20
2.383131422e+20
9.607330968e+19
1.210414957e+20
2.684142998e+20
2.459740275e+20
2.479668304e+20
2.999906246e+20
2.268458137e+20
2.795581911e+20
2.306445858e+20
2.325920846e+20
2.085091126e+20
3.417374188e+20
2.651522702e+20
4.546979854e+20
2.968101307e+20
2.722273277e+20
4.120055044e+20
3.603048667e+20
7.271947893e+20
3.951776227e+20
5.697943602e+20
1.570373143e+20
1.581968513e+20
2.504442902e+20
1.376297699e+20
2.542265456e+20
2.561608395e+20
2.581247953e+20
3.31060671e+20
2.621444564e+20
1.921466208e+20
2.904995898e+20
2.44012996e+20
1.967792204e+20
2.479668304e+20
2.749914081e+20
1.26025452e+20
3.049725672e+20
3.075261119e+20
2.584356495e+20
2.345727537e+20
1.577249639e+20
3.181827215e+20
2.139755207e+20
3.50775609e+20
2.722273253e+20
4.39472538e+20
2.49441833e+20
3.635973946e+20
3.104967035e+20
4.273457662e+20
2.692068246e+20
1.807964001e+20
2.959796114e+20
9.175317928e+19
1.848920346e+20
2.095861446e+20
1.642612346e+20
2.128247171e+20
1.906505138e+20
2.642016016e+20
2.420829915e+20
7.320389993e+19
2.459740275e+20
1.983734643e+20
1.249960936e+20
1.764356329e+20
3.558013342e+20
3.587804668e+20
3.618099093e+20
1.563818345e+20
3.154499224e+20
2.121218143e+20
2.942163435e+20
2.698273915e+20
2.450045928e+20
2.746703339e+20
4.157363809e+20
5.593806021e+20
4.234045957e+20
5.413046422e+20
1.570373155e+20
1.807964028e+20
1.366059765e+20
2.52321243e+20
2.080035358e+20
2.794481886e+20
2.581247934e+20
2.128247139e+20
2.621444544e+20
1.200916371e+20
2.178746906e+20
1.464077976e+20
1.967792204e+20
2.231701474e+20
1.999937497e+20
1.512305412e+20
2.541438081e+20
1.28135881e+20
2.584356495e+20
2.085091126e+20
3.417374188e+20
2.386370432e+20
1.872285822e+20
4.587065656e+20
3.53895526e+20
3.570714403e+20
4.434521475e+20
2.796903036e+20
3.104967063e+20
3.703663341e+20
1.570373155e+20
1.355973011e+20
2.049089647e+20
3.670127198e+20
2.542265456e+20
1.164367452e+20
1.877271239e+20
2.364719079e+20
2.14481828e+20
2.642016016e+20
1.936663932e+20
1.708090998e+20
1.721818192e+20
1.487800982e+20
1.999937513e+20
2.268458155e+20
2.287294272e+20
3.587804638e+20
3.876534743e+20
2.085091144e+20
3.417374188e+20
3.181827215e+20
1.872285822e+20
2.428446545e+20
3.53895526e+20
3.845384708e+20
1.662945553e+20
3.076593367e+20
3.104967063e+20
4.55835484e+20
2.019051184e+20
2.937941502e+20
1.821413007e+20
1.605680649e+20
2.773380498e+20
1.397240953e+20
1.407953429e+20
2.128247155e+20
9.532525688e+19
2.161649468e+20
1.936663917e+20
2.440129979e+20
2.705714281e+20
2.479668284e+20
1.249960936e+20
1.26025451e+20
2.541438081e+20
1.537630572e+20
2.325920865e+20
1.824454751e+20
2.1029995e+20
2.121218161e+20
8.024082096e+19
2.968101307e+20
2.994500605e+20
2.19736269e+20
2.217260718e+20
2.796903036e+20
3.669506496e+20
1.994280261e+20
2.019051199e+20
2.033959531e+20
2.73211951e+20
1.146914741e+20
2.542265456e+20
6.986204714e+19
2.581247953e+20
1.182359539e+20
2.621444564e+20
1.921466208e+20
1.694580953e+20
1.220064989e+20
1.721818179e+20
9.918673216e+19
1.999937497e+20
2.520509041e+20
2.541438101e+20
1.537630572e+20
1.550613897e+20
1.303181965e+20
5.257498751e+19
2.121218125e+20
1.604816405e+20
1.888791741e+20
1.905591277e+20
8.240110088e+19
2.771575922e+20
1.678141821e+20
1.975888113e+20
1.424485887e+20
1.794712164e+20
2.033959502e+20
2.049089632e+20
1.376297699e+20
2.080035373e+20
1.630114445e+20
3.285224693e+20
1.655303355e+20
1.906505138e+20
1.441099645e+20
1.210414948e+20
1.464077987e+20
3.197662357e+20
2.231701474e+20
1.74994531e+20
1.26025451e+20
1.016575232e+20
3.075261144e+20
1.809049547e+20
1.563818345e+20
1.840124563e+20
2.386370432e+20
3.209632838e+20
1.888791741e+20
3.538955229e+20
1.373351669e+20
1.108630359e+20
2.237522429e+20
3.387236796e+20
1.994280279e+20
2.692068246e+20
2.033959516e+20
1.82141302e+20
1.605680649e+20
2.773380518e+20
1.630114445e+20
2.346589031e+20
1.891775249e+20
1.429878853e+20
1.200916371e+20
1.694580927e+20
2.196116981e+20
1.229870137e+20
2.479668304e+20
1.999937513e+20
2.268458155e+20
1.27071904e+20
3.075261119e+20
2.842792145e+20
1.563818345e+20
1.840124563e+20
1.060609081e+20
2.942163435e+20
1.618964349e+20
2.722273277e+20
1.648022032e+20
8.314727692e+19
2.51721271e+20
2.258157844e+20
1.994280242e+20
3.140746309e+20
2.033959516e+20
2.276766258e+20
1.605680649e+20
1.155575207e+20
2.095861414e+20
1.407953429e+20
1.891775249e+20
2.621444544e+20
1.681282919e+20
1.936663932e+20
3.172168972e+20
1.967792204e+20
2.975601965e+20
1.999937497e+20
1.764356314e+20
1.27071904e+20
2.050174096e+20
1.809049547e+20
1.303181965e+20
2.891624313e+20
2.916674947e+20
2.674694032e+20
2.698273939e+20
1.361136639e+20
4.39472538e+20
1.940103145e+20
1.957832125e+20
2.540427574e+20
2.279177441e+20
2.019051184e+20
2.711946022e+20
1.821413007e+20
2.064446534e+20
1.155575207e+20
3.027355399e+20
1.407953429e+20
2.601190967e+20
1.429878853e+20
2.642016037e+20
1.936663932e+20
1.952103983e+20
1.229870137e+20
1.735767827e+20
2.499921892e+20
3.024610849e+20
2.541438101e+20
1.793902319e+20
1.550613884e+20
1.824454736e+20
2.365874438e+20
2.386370411e+20
1.872285806e+20
2.158619132e+20
2.450045949e+20
4.120055044e+20
3.325891077e+20
2.237522429e+20
2.540427574e+20
1.709383065e+20
2.019051184e+20
9.039820007e+19
2.73211951e+20
1.835063599e+20
2.311150415e+20
3.725975848e+20
1.173294524e+20
1.655303355e+20
2.859757706e+20
9.607330968e+19
1.69458094e+20
1.464077999e+20
3.197662357e+20
1.735767813e+20
2.99990627e+20
2.268458137e+20
1.524862836e+20
7.688152797e+19
1.550613897e+20
1.042545563e+20
2.365874418e+20
1.590913608e+20
2.942163435e+20
1.349136958e+20
1.361136627e+20
1.648022018e+20
2.217260738e+20
1.118761214e+20
1.411348665e+20
1.994280279e+20
1.121695118e+20
2.033959531e+20
2.049089647e+20
2.293829499e+20
2.080035373e+20
1.862987924e+20
2.815906858e+20
9.458876315e+19
3.098070848e+20
9.607330968e+19
1.694580927e+20
2.684142956e+20
1.967792204e+20
1.487800982e+20
2.499921872e+20
3.276661753e+20
1.524862861e+20
1.537630572e+20
2.584356495e+20
1.563818358e+20
3.154499277e+20
1.325761351e+20
1.872285822e+20
2.158619132e+20
1.905591277e+20
1.648022018e+20
5.543151844e+19
1.957832125e+20
1.975888113e+20
2.848971775e+20
1.570373143e+20
1.355973001e+20
1.821413007e+20
2.064446549e+20
2.773380498e+20
1.630114445e+20
2.111930144e+20
2.364719061e+20
2.621444564e+20
2.161649468e+20
2.662912906e+20
1.952103998e+20
3.443636357e+20
1.487800971e+20
2.499921872e+20
1.764356314e+20
2.541438081e+20
2.56271762e+20
1.55061391e+20
1.563818358e+20
3.154499224e+20
2.651522679e+20
2.674694032e+20
1.888791741e+20
1.905591294e+20
2.19736269e+20
2.494418308e+20
2.517212732e+20
2.258157844e+20
1.709383081e+20
2.692068246e+20
2.033959516e+20
2.049089632e+20
1.376297689e+20
1.155575216e+20
1.630114445e+20
4.693178097e+19
1.418831437e+20
2.859757684e+20
2.161649484e+20
1.69458094e+20
2.440129979e+20
2.459740275e+20
2.231701474e+20
2.249929685e+20
1.008203616e+20
1.270719051e+20
2.818989382e+20
1.550613897e+20
1.563818345e+20
1.314374688e+20
2.386370411e+20
1.872285806e+20
1.618964363e+20
1.905591294e+20
2.746703363e+20
1.385787949e+20
1.398451505e+20
1.129078922e+20
2.564074597e+20
1.12169511e+20
2.033959516e+20
6.830298775e+19
2.293829499e+20
1.848920332e+20
1.862987938e+20
2.111930144e+20
2.128247155e+20
1.429878853e+20
2.161649468e+20
2.662912906e+20
2.684142977e+20
1.229870128e+20
1.983734643e+20
1.499953135e+20
1.26025452e+20
2.287294254e+20
1.537630559e+20
3.618099093e+20
2.60636393e+20
1.840124563e+20
2.121218143e+20
1.604816419e+20
1.079309566e+20
1.088909311e+20
1.648022018e+20
1.940103128e+20
1.398451518e+20
4.234045996e+20
2.564074644e+20
1.794712164e+20
1.807964015e+20
2.049089647e+20
1.605680649e+20
3.697840664e+20
9.314939619e+19
1.877271239e+20
2.837662895e+20
2.383131422e+20
2.161649468e+20
1.936663917e+20
1.464077987e+20
1.475844165e+20
2.231701474e+20
1.999937497e+20
1.26025452e+20
2.287294291e+20
3.075261144e+20
3.359663444e+20
1.824454736e+20
1.840124563e+20
1.325761351e+20
2.407224629e+20
1.349136958e+20
1.633363952e+20
2.746703363e+20
2.49441833e+20
2.796903036e+20
1.411348652e+20
2.27917742e+20
)
;

boundaryField
{
    flow
    {
        type            zeroGradient;
    }
    obstacle
    {
        type            calculated;
        value           nonuniform List<scalar> 0();
    }
    frontAndBack
    {
        type            empty;
    }
    procBoundary3to1
    {
        type            processor;
        value           nonuniform List<scalar> 
36
(
4.843252062e+20
6.317417679e+20
6.097466974e+20
6.153186678e+20
3.669506496e+20
3.669506496e+20
2.867000299e+20
5.520373642e+20
6.09850211e+20
3.209632811e+20
3.777583514e+20
3.538955291e+20
3.538955291e+20
3.249898459e+20
2.772559967e+20
3.303869505e+20
3.331532879e+20
4.651841692e+20
4.651841692e+20
2.14481828e+20
2.161649468e+20
2.662912906e+20
2.928155975e+20
2.705714281e+20
2.479668304e+20
2.479668304e+20
1.581968501e+20
2.049089632e+20
1.605680649e+20
2.311150432e+20
2.328734922e+20
1.407953429e+20
1.182359539e+20
1.182359539e+20
2.243390221e+20
2.243390221e+20
)
;
    }
    procBoundary3to2
    {
        type            processor;
        value           nonuniform List<scalar> 
19
(
1.55894653e+20
1.781653177e+20
3.340599706e+20
2.227066455e+20
3.117893059e+20
1.781653177e+20
2.449773135e+20
1.336239882e+20
1.336239882e+20
2.227066471e+20
2.227066471e+20
1.55894653e+20
1.336239882e+20
2.227066455e+20
2.449773135e+20
1.336239882e+20
2.227066471e+20
2.895186412e+20
1.336239882e+20
)
;
    }
}


// ************************************************************************* //
