/*--------------------------------*- C++ -*----------------------------------*\
| =========                 |                                                 |
| \\      /  F ield         | OpenFOAM: The Open Source CFD Toolbox           |
|  \\    /   O peration     | Version:  2406                                  |
|   \\  /    A nd           | Website:  www.openfoam.com                      |
|    \\/     M anipulation  |                                                 |
\*---------------------------------------------------------------------------*/
FoamFile
{
    version     2.0;
    format      ascii;
    arch        "LSB;label=32;scalar=64";
    class       volScalarField;
    location    "0.012";
    object      internalT;
}
// * * * * * * * * * * * * * * * * * * * * * * * * * * * * * * * * * * * * * //

dimensions      [1 2 -2 0 0 0 0];

internalField   nonuniform List<scalar> 
654
(
706.9956156
657.2128662
664.4967309
678.6885183
684.8682562
695.5985133
539.7639725
558.5999
575.258306
591.824388
609.983051
624.8171564
636.047137
646.5437529
656.5444877
666.4355961
673.540376
431.0412272
443.0043855
464.3609334
478.5822045
500.6312663
519.6258384
536.5369032
551.9909178
569.5572058
583.5488322
596.6713528
611.9575643
622.0418118
632.9027289
643.5292774
653.9905993
345.6915933
351.1996965
361.8758988
368.2593451
380.1280038
390.2864855
403.5609233
419.3405442
432.2094747
449.4618984
468.2545577
481.877521
502.8778329
519.5436147
531.5503128
549.2782812
567.6000592
581.5904538
597.6192045
611.2543118
620.1270648
632.377258
307.5419333
311.169786
312.7090346
315.918123
319.1666505
322.4866044
327.1009231
335.0471012
340.3210928
347.082337
352.4063848
364.7158637
376.9193872
389.5756337
397.7432085
408.6150313
422.9791038
440.1933982
456.0130072
470.8172372
490.9393415
510.514867
525.9598851
542.7097816
557.7269894
573.9446564
587.5145591
602.3714513
610.5230016
303.7649645
304.3731227
305.2393137
307.1889879
310.6462123
316.325757
319.8477046
324.840264
329.4544522
335.2429173
338.1222136
343.1550839
349.2030556
358.2058219
368.6379591
380.424004
394.4692409
404.9489615
416.7119411
435.731361
445.7625123
461.8250779
478.2824581
500.3108847
518.5522495
529.7445896
541.8498628
557.5274952
575.1172017
590.4780736
303.3060595
305.4083682
308.6101616
308.8877463
309.3801468
311.6533926
314.2821235
317.0474217
319.5883892
325.5055197
326.6140272
332.1194004
338.7512904
345.4548911
353.1676616
361.9776904
370.0730302
378.1467164
390.1222388
398.7900534
419.655986
436.757605
455.2372353
469.193482
483.2117027
502.1083528
522.1568005
533.5212683
546.4825054
565.0466684
304.4628766
302.9742603
304.1246337
306.7012652
310.0494924
310.7273281
310.630055
311.6024151
314.1241364
314.1846612
321.7986246
324.1351938
326.4491453
329.4090441
333.1921116
344.4661812
353.5262238
368.2007535
380.9243067
389.4519058
395.7532983
408.4606272
423.8866896
440.5674905
458.1803503
471.7085974
492.1200065
512.8749193
525.8315803
540.815745
300.6935323
302.6486616
304.5199772
304.7545805
303.3143325
305.1944007
308.6243034
310.3811989
311.2394898
313.0465924
315.7172721
320.348185
324.8076328
329.3663404
334.0457989
338.2041348
345.8833533
354.9130533
359.6101716
372.5740857
383.2027158
394.4907748
404.6148699
415.9607588
433.8280963
451.3235204
464.7295103
482.1149588
500.9602548
515.9250427
300.2581358
300.4495977
298.3667823
300.3879481
300.9056361
301.5003917
301.7332734
304.4587273
306.8358264
311.1847383
311.723241
315.4267695
317.4955414
319.0948952
323.9526929
330.922128
333.8457631
338.7021864
345.6866923
353.3782097
363.6018025
373.0339598
385.2483087
397.6944468
408.4616281
427.1272493
443.9927901
458.8468374
475.6581487
492.6987394
298.0699231
299.42512
299.280912
299.7656989
299.4702998
299.8809507
302.0907198
306.4408828
308.8073653
310.1967514
313.2706063
313.8470673
316.5869666
317.6182351
321.4742837
325.0284321
327.0673433
332.4839503
336.7770081
339.8222057
349.2380247
358.5319156
365.1846883
376.3479996
391.1182998
401.5471729
412.3332447
433.1486228
451.7500306
468.5564203
298.3577201
300.2385498
302.4858481
303.3707913
305.9918208
306.3715021
305.4350059
303.2681698
303.434657
304.7388825
305.3807631
307.1798437
308.2178803
311.1725977
312.7072184
315.5303687
319.3140427
322.5888333
328.5524054
335.3413736
340.2824588
342.3513704
352.7967358
364.4150713
370.9541936
381.5818016
396.532595
411.2449589
426.8164216
439.1064742
303.3504288
302.9031859
303.3960181
302.9085445
300.8747264
300.4935435
299.4681693
303.3969219
300.9829392
302.4926128
303.8175917
305.7442025
305.9310196
306.9544513
310.5003922
312.7220826
313.6186235
317.7393586
321.7794615
323.414596
327.9269176
334.859101
338.9931645
346.3709153
357.8784204
367.2861936
378.6044072
387.9763252
405.0559742
416.629765
301.5030101
301.1784245
300.9398702
301.7130583
302.5428681
300.3111173
301.6203761
302.6786737
302.7836065
304.2127952
304.4949188
303.8933956
305.7654599
306.8593922
309.9881179
312.0658964
312.9850811
314.5812756
314.4046233
320.1905418
324.5643522
326.8017181
334.3022148
340.1703814
347.1775162
354.5356735
363.7430492
371.4700445
379.518576
393.4161664
303.1040055
303.5518821
301.7352961
302.573316
302.3093413
303.7490228
305.0530138
303.954845
303.6654152
303.7032853
303.3127179
302.361212
305.5304439
305.688762
306.9178804
307.871189
310.5536686
313.476214
315.7182057
320.1624333
320.3588011
322.7542038
326.8541911
333.55161
335.8809497
343.4164309
348.6091046
360.5300651
372.8523689
382.6805612
300.4721987
299.4306376
300.9006491
302.4461444
302.200626
301.3229756
300.5971252
300.2731836
301.9770788
300.3592163
301.8379757
304.9534042
301.8229896
301.1031447
302.1789868
305.5238346
306.0393438
309.0073853
312.3937932
313.9871178
320.2348589
323.543556
325.1127905
329.4615253
337.7181734
339.2625496
343.4764101
350.5969019
358.6254978
365.8777175
300.2300278
301.3182714
301.746126
302.216096
300.6914732
302.9367362
303.7817138
304.7774168
304.6952223
304.5332912
302.3797346
301.3449625
303.2013169
305.0568376
307.5763692
308.1267091
309.5808849
310.4370957
310.5616738
311.4140845
310.9060189
312.7882659
316.5416992
317.7462789
322.1472755
327.936066
335.5171329
340.8107515
345.9946819
356.3269402
303.3050625
302.5658519
301.7842513
301.7328389
303.6684784
303.6210427
304.8805941
303.1146544
303.3584325
304.2588037
305.1301613
306.1948716
304.0667479
303.9269593
300.8671556
302.4504841
301.8591632
303.3639087
303.5431898
307.2821619
306.5678522
307.1780186
312.5148527
313.5046527
318.8333222
321.8836962
323.4439205
328.963678
334.5071786
338.6952547
303.0178844
303.3607664
302.909033
302.9037961
301.2125614
299.0582909
301.6574332
302.8620504
303.0211356
303.4596226
302.3401057
300.8428493
302.6914233
301.9646215
305.3426803
304.1215253
302.2277748
304.5913166
305.9939713
306.0980886
310.3329535
310.5553522
310.5179949
314.7120619
315.9451131
318.9362354
322.2175442
327.1095527
331.4766868
336.2097592
300.7802157
301.2899354
300.8832966
300.4950774
301.5597518
303.8124546
303.5925522
303.1116284
301.5496323
299.7386453
301.1089851
302.293368
304.2737373
301.938364
299.5590891
301.9772294
304.2685406
303.653862
304.0106215
307.2180417
309.270592
310.8679158
310.1674524
311.7917265
313.3675238
314.1731131
317.8739831
322.0304591
325.8053915
329.8555295
300.3631085
301.2564258
300.840282
301.2492216
301.947408
301.8254004
300.4845107
300.1990631
301.8115946
302.9637135
301.3950143
300.8311709
301.4809339
303.0027421
303.7327371
302.9534982
303.3098757
302.5535273
301.8725453
302.5763436
302.9996141
303.2143439
303.5953648
304.0728161
306.9689609
308.895328
309.3641058
313.7772836
317.767875
321.4619455
299.9501793
300.5084617
299.7930677
298.6280507
298.8496673
299.6709474
301.9849147
302.6621193
301.7273366
302.9467897
305.9948933
305.200059
300.8560988
300.5203779
299.2693297
298.4325377
298.8233836
299.9535405
300.9645342
300.042629
300.3092842
303.2964123
303.8191751
307.2524731
307.0213633
310.3021413
313.3948024
312.5308989
313.2211657
319.0878239
301.2310828
301.0744094
299.6827596
300.0921805
300.3890837
300.0506793
298.5321862
299.0052953
299.751167
299.1441687
298.3170015
300.1488874
300.6371167
300.1509334
302.1843115
302.5378152
302.2769777
301.7332415
302.7656121
304.8351771
303.6764535
302.9558814
306.4117323
305.0928646
305.8268665
305.1848541
307.0866173
309.5044004
312.4788025
313.3601005
300.0275856
300.6674926
301.2793562
302.4985932
302.3270484
300.262154
300.7359081
302.0980779
301.652011
301.225454
300.915731
299.932554
299.2335644
300.727505
300.6189952
301.7232427
301.2250678
301.5054592
300.3450854
302.0356373
302.057249
301.3301086
303.4106773
304.2214489
305.6974031
306.9264735
307.2016171
308.0498118
307.2320607
309.0798318
)
;

boundaryField
{
    flow
    {
        type            calculated;
        value           nonuniform List<scalar> 
55
(
706.9956156
695.5985133
673.540376
653.9905993
632.377258
610.5230016
590.4780736
565.0466684
540.815745
515.9250427
492.6987394
468.5564203
439.1064742
416.629765
393.4161664
382.6805612
365.8777175
356.3269402
338.6952547
336.2097592
329.8555295
321.4619455
319.0878239
313.3601005
309.0798318
300.0275856
300.6674926
301.2793562
302.4985932
302.3270484
300.262154
300.7359081
302.0980779
301.652011
301.225454
300.915731
299.932554
299.2335644
300.727505
300.6189952
301.7232427
301.2250678
301.5054592
300.3450854
302.0356373
302.057249
301.3301086
303.4106773
304.2214489
305.6974031
306.9264735
307.2016171
308.0498118
307.2320607
309.0798318
)
;
    }
    obstacle
    {
        type            calculated;
        value           nonuniform List<scalar> 0();
    }
    frontAndBack
    {
        type            empty;
    }
    procBoundary3to1
    {
        type            processor;
        value           nonuniform List<scalar> 
36
(
730.0936578
682.8329788
687.3784059
699.7344878
705.6331631
705.6331631
575.3867033
586.6993736
603.6028471
623.1467347
632.1324906
645.5782059
645.5782059
457.2850268
471.4737708
492.4480617
511.7067941
527.8744326
527.8744326
358.7071479
366.2129891
375.0182594
389.3740079
399.4684738
417.2900695
417.2900695
316.3858462
315.5156717
318.3759893
323.3076831
328.6193272
333.5564753
338.8241718
338.8241718
307.0334199
307.0334199
)
;
    }
    procBoundary3to2
    {
        type            processor;
        value           nonuniform List<scalar> 
19
(
303.7800595
302.0328873
305.1914004
300.354854
298.0412506
298.9629323
299.4666701
300.4510757
302.1845522
301.2063279
300.5756701
299.1492134
304.8610424
302.9476906
301.7653028
300.7163778
300.7219993
300.6943918
298.6952759
)
;
    }
}


// ************************************************************************* //
