/*--------------------------------*- C++ -*----------------------------------*\
| =========                 |                                                 |
| \\      /  F ield         | OpenFOAM: The Open Source CFD Toolbox           |
|  \\    /   O peration     | Version:  2406                                  |
|   \\  /    A nd           | Website:  www.openfoam.com                      |
|    \\/     M anipulation  |                                                 |
\*---------------------------------------------------------------------------*/
FoamFile
{
    version     2.0;
    format      ascii;
    arch        "LSB;label=32;scalar=64";
    class       volScalarField;
    location    "0.012";
    object      internalE;
}
// * * * * * * * * * * * * * * * * * * * * * * * * * * * * * * * * * * * * * //

dimensions      [1 -1 -2 0 0 0 0];

internalField   nonuniform List<scalar> 
654
(
4.531670644
3.512803248
2.109348925
2.78226914
3.287145101
3.914809498
1.178157561
0.857915399
1.659114242
2.202410055
2.925504702
1.958263346
0.6776855674
1.231213429
1.427676677
2.944690387
2.94545468
0.1652916452
0.7798739197
0.7549763806
0.7182374024
1.052141965
1.950864633
0.8107550579
1.193922386
2.235361789
1.317163473
1.483814261
2.686853096
1.872699637
1.69696532
2.528107316
1.76184252
0.3334230097
0.1243437295
0.453922077
0.8919215335
0.9289331018
0.2346506902
0.5175094931
0.6948532576
0.6573358987
1.064379447
0.3280314118
2.944669958
1.580350989
0.8231286207
2.35340064
2.254052313
1.570479679
2.663142202
1.185247663
1.471663508
2.061465818
1.792083795
0.3740483127
0.6463974079
0.5334515861
0.2249363372
0.5479466725
0.328586549
0.7062478665
0.2703176357
0.2476711419
0.1888236753
0.4740696735
0.126489506
0.8126035243
1.140554479
0.1675829609
0.7049051318
0.6762193941
1.391803382
1.140101117
0.7930184911
1.519311471
1.556967273
1.605418684
1.233089892
2.157576015
1.514938805
2.226325347
2.451784759
2.61892267
0.7266906872
0.3100709765
0.4467026674
0.3813193985
0.1958823678
0.3446237189
0.4684126834
0.3390326788
0.8224250635
0.6591996702
0.1979090213
0.3615196295
0.6711026928
0.5583955974
0.7400184485
0.4717754592
0.286610727
0.5552195021
0.9713584681
0.5228274209
0.5397971165
0.7678330965
1.12292564
1.431238871
1.586112321
2.866841307
3.035197432
2.140605674
2.594512826
1.314539525
0.4100961568
0.5049088499
0.8718995815
0.5970257883
0.5933669499
0.3949953263
0.3818548887
0.689910446
0.2805278961
0.1836897814
0.04590361108
0.2031276629
0.2604473158
0.2196207691
0.2929524749
0.3670250313
0.6829523319
0.2680569884
0.9657186374
0.9325411107
1.855421718
0.7381962576
1.278274459
0.9820566502
2.508821543
1.773965892
3.320325777
2.053967572
3.556554366
1.666993133
0.7739062197
0.429320165
0.3390917565
0.1803437666
0.2209922891
0.4128424828
0.6019961048
0.5133233292
0.3571010479
0.0328473215
0.4303669318
0.7662194296
0.925435239
0.4853358168
1.036774648
0.4257658897
0.6490325876
0.662682951
0.5657883291
0.6782052818
0.8614283903
0.6934800682
1.203904863
0.8733333647
0.937395233
1.557505823
0.6369291319
2.452294259
1.974587329
2.446511413
0.2236134119
0.4092889248
0.4832379782
0.2231542595
0.4515778684
0.411884176
0.4652113586
0.6095432648
0.531129585
0.3231075414
0.7231055796
0.9763392582
0.326057057
0.7375084884
0.5196117024
0.4260456225
0.9830919481
0.5571897094
0.7087805712
0.4620805866
0.2596163674
0.9511470956
0.5346064369
1.427050725
0.4439227247
1.277750946
0.5665873949
1.061603764
1.027657523
1.484699093
0.6306920587
0.6056966744
0.5322460738
0.2494146393
0.610339421
0.4117714719
0.5032310906
0.4267331924
0.4957791767
0.5564261227
0.5488109449
0.2068212184
0.5374959541
0.370729034
0.1916014071
0.3005509225
0.8611172239
0.7021513875
0.5673431485
0.401082714
1.309808272
0.5026890293
0.8005119078
0.5407342074
0.6993058948
0.6764233469
0.8497699426
1.510034492
1.350307514
1.649206344
0.2812719462
0.4869121844
0.163257566
0.3093503322
0.3083655173
0.4646331694
0.6167508079
0.5130059904
0.595544323
0.3668816092
0.4018047432
0.3667404049
0.7884558598
0.548924289
0.3624176604
0.2952577715
0.3546606571
0.2438155179
0.3040483907
0.5019982526
1.048194376
0.4411462662
0.846840295
1.364893921
0.9473055234
0.7779754783
1.88737041
1.184830024
1.390258369
1.145009008
0.5334337436
0.2211603637
0.5264921988
0.6020398748
0.4641548588
0.2087104654
0.5640422973
0.352751504
0.4250927178
0.8788686626
0.3408491519
0.8148873918
0.242882418
0.2099176372
0.5457915993
0.6094129909
0.356962823
0.8413845667
0.6773155843
0.2932439198
0.4713182045
0.7052645393
0.5177108416
0.7279180965
1.179837663
0.746742253
0.2502887426
0.7812523233
1.539635305
1.677699512
0.228129963
0.2074286508
0.2016481407
0.3254762886
0.4900793083
0.2916965938
0.2540936438
0.3139697087
0.1266248563
0.5271694324
0.3322162596
0.7033460433
0.8706222726
0.5507035845
0.1479482217
0.08305108996
0.3956275529
0.4049041419
0.2978512128
0.267901285
0.3770771338
0.5045740986
0.1795642753
0.8111249475
0.9233825779
0.3024137584
0.4163645447
1.240926762
1.445771267
0.3651557966
0.2994768918
0.2973683931
0.336633081
0.2643269932
0.571767965
0.1497109134
0.5633107679
0.1386772762
0.2981277017
0.4117987201
0.1558864683
0.1702867561
0.2807392046
0.1400412711
0.4771401046
0.5702953321
0.4608704288
0.3530569426
0.5561092073
0.2336204701
0.08504954613
0.3804346761
0.4561322344
0.2713768877
0.179069455
0.1147669582
0.6321982014
0.46882179
0.3050871969
0.3162640259
0.3782709153
0.3402702078
0.4159701277
0.2144826505
0.6474180468
0.4417598121
0.9141643061
0.6171273022
0.3705756469
0.1439995655
0.325598835
0.269725775
0.6634443824
0.7549271371
0.2054915938
0.3253291266
0.3879763271
0.4226694221
0.4956594217
0.1309221457
0.3732071429
0.5356414034
1.082005355
0.67545231
0.4167345701
0.1710174756
0.2323301003
0.7952396238
0.4119052025
0.6687469204
0.8608860623
0.3606950025
0.2350481733
0.5471121787
0.5586586669
0.4793164291
0.9466692948
0.3020889076
0.1806382315
0.2754300399
0.1881787974
0.4447178655
0.2493799433
0.4636632538
0.4440179931
0.4290818591
0.3026899457
0.8605718077
0.33786174
0.2327092355
0.2172420806
0.1504422399
0.7683776736
0.3099308057
0.2943147573
0.2643271898
0.2911606397
0.6958900692
0.769731449
0.6997912368
1.039535666
0.460751874
0.3838647269
0.1870343744
0.3695275804
0.4055610323
0.642695633
0.5197357017
0.4598365155
0.3044158835
0.3305269713
0.5515686702
0.2310676029
0.3108588706
0.4014423301
1.029858405
0.3513593281
0.2562584584
0.3448458847
0.1198020997
1.044042787
0.6019553116
0.6381991254
0.7544780592
0.316900208
1.173047167
0.241007666
0.218775504
0.5541751886
0.5502469756
0.5596489465
0.45632101
0.3697669791
0.2792142864
0.3404616699
0.7585154429
0.3011271246
0.4680025936
0.5714457821
0.3682607262
0.3600947972
0.5391115284
0.4211633581
0.1834333309
0.4889475769
0.6556641673
0.7382981777
0.3996948348
0.3639773431
0.8507301613
0.7853144664
0.4727093437
0.5975655441
0.4218779398
0.4672221757
0.6454912476
0.4065483295
0.4416069657
0.5848243863
0.5745297254
0.2283939908
0.1640287716
0.198743038
0.3029198955
0.5515982491
0.4947124472
0.365989169
0.2948262049
0.6915413398
0.1084140705
0.3129537205
0.3300310496
1.230942783
0.168738929
0.6380063117
0.2759153876
0.2994398038
0.2084708797
0.09926442812
0.3707706734
0.7210860188
0.3084909541
0.5987132611
0.3147027583
0.267868705
0.2375986659
0.197425573
0.162284601
0.2487693436
0.280340162
0.3236563874
0.4545368415
0.291722653
0.8408433151
0.5019118395
0.602881502
0.7443297737
0.1770455363
0.4540632563
0.294593865
0.251000772
0.4625093185
0.5734014104
0.354308611
0.3804636765
0.9960393182
0.1661417623
0.2318254969
0.4487628186
0.4543202972
0.8794819023
0.2423155852
0.4142447282
0.3909053471
0.3488662073
0.3096662888
0.06297299812
0.5022988636
0.3823948444
0.8899104752
0.4486647431
0.3038017263
0.383253028
0.6942578189
0.7165719834
0.3114046561
0.4006377786
0.6161994699
0.5438855493
0.6024561336
0.2890123563
0.4321225087
0.8282035242
0.2617596028
0.5534910769
0.3563755598
0.7807655292
0.4300260998
0.1845537975
0.4601953602
0.8064423913
0.5079247197
0.3661753807
0.3372408128
0.3577109754
0.527853036
0.3904351552
0.5269682277
0.2583899408
0.2676493849
0.6271981403
0.3561320284
0.3938130338
0.183194933
0.1699423573
0.289233018
0.1760679693
0.084339572
0.4390577392
0.4871207089
0.1694854244
0.6898741935
0.5503829255
0.6713748096
0.4724914893
0.1741593765
0.1695475429
0.4144497019
0.4192952374
0.2031688086
0.286279646
0.2513691144
0.1455533825
0.2554464161
0.5019701804
0.5272456274
0.3633087864
0.3100105028
0.2403059504
1.238191032
0.4151202177
0.3682819344
0.2470297685
0.3941252163
0.2459231408
0.2182084807
0.1871944697
0.9638935756
0.4193575711
0.5807116864
0.510161069
0.5579858924
0.2802313419
0.2490705542
0.3248978963
0.1245152917
0.3155557221
0.3097255517
0.7740631199
0.6449159285
0.3205605989
0.1689303047
0.271421717
0.399393065
0.09916650274
0.658348025
0.1311090247
0.1734726847
1.157512804
0.429467207
0.2663276089
0.452635017
0.2769569024
0.538175069
0.7758642298
0.06379919915
0.3997897435
0.6209866948
0.4337473534
0.3731269536
0.3777382071
0.5253974065
0.552929316
0.2517725101
0.3596376993
0.1761800663
0.3961631908
0.6678132016
0.6340080591
0.6922186287
0.1989015401
0.1206774754
0.3063617558
0.1732630954
0.3294108986
0.3827205043
0.9868339526
0.5874047487
0.2381542473
0.4475471089
)
;

boundaryField
{
    flow
    {
        type            zeroGradient;
    }
    obstacle
    {
        type            calculated;
        value           nonuniform List<scalar> 0();
    }
    frontAndBack
    {
        type            empty;
    }
    procBoundary3to1
    {
        type            processor;
        value           nonuniform List<scalar> 
36
(
3.254557802
3.963089398
4.078936923
2.698219431
2.197250346
2.197250346
1.141685174
2.108312616
2.232742719
1.295304712
1.478462624
1.645493804
1.645493804
1.474108101
0.7664668248
0.809343233
0.8848611615
1.758054412
1.758054412
0.7631235832
0.4297643269
0.6902653723
0.6505680531
0.8863205106
1.015130107
1.015130107
0.7075390068
0.5522970011
0.1383105113
0.7235614019
0.3520483662
0.1700171141
0.2254611288
0.2254611288
0.4819268085
0.4819268085
)
;
    }
    procBoundary3to2
    {
        type            processor;
        value           nonuniform List<scalar> 
19
(
0.7106166714
0.4478567261
0.4652043679
0.3785865709
0.5035494351
0.5941004364
0.3508600336
0.3022863932
0.302602559
0.4844963516
0.3234503977
0.3750885319
0.4575325744
0.2000297524
0.5042531657
0.2845817855
0.6134588308
0.277543515
0.215510144
)
;
    }
}


// ************************************************************************* //
