/*--------------------------------*- C++ -*----------------------------------*\
| =========                 |                                                 |
| \\      /  F ield         | OpenFOAM: The Open Source CFD Toolbox           |
|  \\    /   O peration     | Version:  2406                                  |
|   \\  /    A nd           | Website:  www.openfoam.com                      |
|    \\/     M anipulation  |                                                 |
\*---------------------------------------------------------------------------*/
FoamFile
{
    version     2.0;
    format      ascii;
    arch        "LSB;label=32;scalar=64";
    class       volScalarField;
    location    "0.012";
    object      internalEMean;
}
// * * * * * * * * * * * * * * * * * * * * * * * * * * * * * * * * * * * * * //

dimensions      [1 -1 -2 0 0 0 0];

internalField   nonuniform List<scalar> 
654
(
2.379563573
2.219648001
2.279975681
2.327803695
2.339813164
2.388606626
1.473935511
1.592484505
1.71750051
1.829189609
1.948708374
2.059724419
2.12147031
2.176977547
2.241859653
2.278483933
2.297936963
0.8448910558
0.9190292973
1.006758457
1.093748295
1.208281951
1.320792108
1.435483044
1.535528193
1.664072282
1.770435697
1.873125968
1.984787327
2.047506012
2.113657334
2.178224861
2.218612096
0.5289945344
0.5491524039
0.5734059811
0.6025438129
0.6408391982
0.682436097
0.7310738292
0.7980195774
0.8659261369
0.9494581201
1.043510526
1.129471538
1.241001339
1.349851405
1.443873163
1.560993914
1.681934021
1.795943294
1.915377155
2.001823278
2.058190139
2.128749221
0.4334008414
0.4400799165
0.4434255916
0.4527701143
0.4623514094
0.469828233
0.4826177389
0.4996883469
0.5202078473
0.5441840694
0.5632685771
0.5987239933
0.6393091068
0.6815353925
0.71923635
0.7678399974
0.8338758088
0.9109118112
0.9916409757
1.079590425
1.1879476
1.299902755
1.400968259
1.518461945
1.630601813
1.74778848
1.854049328
1.952758811
2.017739364
0.4255912519
0.4272494859
0.4307650751
0.4373816652
0.4443554014
0.4541170152
0.4638852304
0.476993235
0.4898479561
0.5032554297
0.5121668626
0.5298400046
0.5477312222
0.5786368847
0.6128217073
0.6538068812
0.7023181202
0.7467379389
0.7999093798
0.8744693859
0.9456291282
1.026681892
1.123029443
1.236380996
1.353470598
1.455694392
1.545655554
1.65498322
1.766329873
1.869175156
0.4228267301
0.4259073835
0.4315771124
0.4328874978
0.4358149932
0.4422155793
0.45035735
0.4583303786
0.4639272511
0.480749318
0.4880213288
0.5021431273
0.5197278652
0.5400822711
0.5639538031
0.5911483754
0.6194184252
0.6506299796
0.699742758
0.7436359493
0.8138389405
0.8955133583
0.9865018935
1.07546617
1.17204008
1.275375135
1.401731348
1.504249505
1.611103857
1.727420907
0.4242822344
0.4237339645
0.4264116607
0.4316040216
0.4378543928
0.4380959194
0.4369136162
0.4411079562
0.4480367631
0.4496167247
0.4621384931
0.4745014214
0.4842238291
0.4959091193
0.5101289428
0.5405137034
0.5683297081
0.6136933243
0.6482575116
0.68861769
0.7320667036
0.7867286472
0.8481249621
0.930248869
1.019108966
1.103186567
1.218090011
1.334750668
1.439904277
1.542868003
0.417795449
0.4209177723
0.4247005207
0.4270629441
0.4246167517
0.4280708464
0.4337841478
0.4380365058
0.4400565434
0.4462233303
0.4530532542
0.4653601397
0.473966428
0.4838734409
0.4979751081
0.5123766365
0.5318509474
0.5600894712
0.5859163228
0.6273242532
0.6673702777
0.7193368963
0.7650142106
0.8146550228
0.8959033618
0.987678463
1.070431848
1.171262693
1.283569567
1.393068699
0.415524241
0.4158281807
0.412242309
0.4140071127
0.4171961041
0.4196583251
0.423764525
0.4291149337
0.4351511318
0.4407918244
0.4462018133
0.4517907061
0.4565755148
0.4639313705
0.4761549236
0.4926979355
0.5069570509
0.5272567234
0.5503823111
0.5737139656
0.6080177985
0.6461620621
0.6999325546
0.7511137337
0.8027206865
0.8833401058
0.9657099887
1.04532199
1.134967598
1.237508265
0.4109495998
0.4124561114
0.4139286783
0.415032382
0.4156599487
0.4161186625
0.4193321537
0.4256222774
0.4310802726
0.4353720754
0.4414189285
0.4445321358
0.4521241414
0.4584860619
0.4667145628
0.4760337411
0.4821654278
0.4990092988
0.5163195135
0.5338521272
0.5623557028
0.5965196166
0.6250125964
0.6714001117
0.7236421953
0.7734740942
0.8304353947
0.9156353949
1.008173704
1.107418445
0.4175841578
0.4199781129
0.420532436
0.4213447728
0.4238899262
0.4266518406
0.4245433541
0.421817961
0.4229645638
0.4246211907
0.4288641654
0.4339503389
0.4377122935
0.4428164359
0.45046083
0.4620314674
0.4719305624
0.4809337618
0.4958655366
0.5094059499
0.528504219
0.5392377707
0.5702632009
0.6081173966
0.6410454571
0.6862505711
0.7472250297
0.8130106138
0.8921072556
0.9661933551
0.4152779984
0.4173888862
0.4191830729
0.419591575
0.4160331779
0.4163407181
0.4139211383
0.4202718403
0.4169062171
0.4215497668
0.4237240884
0.4275273732
0.4322308783
0.4359730683
0.4420037405
0.4499387519
0.4536274234
0.4643165685
0.4745735497
0.4843443726
0.4975416214
0.5166695574
0.5328767744
0.5565969881
0.5931503594
0.6302118281
0.6727914384
0.7231252724
0.7866918891
0.8510621405
0.4142975835
0.4136026291
0.4133457882
0.4148540287
0.4160550584
0.4120406928
0.4174903519
0.4185934057
0.4204215556
0.4256535424
0.424694183
0.4255280467
0.4290894721
0.4328790093
0.4415063256
0.4462435207
0.4491235548
0.4533943014
0.4544417794
0.4695207238
0.4796883186
0.4924831665
0.5131988643
0.533949935
0.555787192
0.5842002471
0.6189737188
0.6528172789
0.6953722959
0.7535434796
0.4141270122
0.4134996839
0.4110316948
0.4140325584
0.41464066
0.4203141274
0.4244653807
0.4238233175
0.4225951502
0.4218857415
0.4237126992
0.4244267105
0.4282322273
0.4286897656
0.4281644692
0.4328081118
0.4368716925
0.4422906852
0.4497221817
0.4595234644
0.4617003593
0.4707084727
0.4822417234
0.5003758358
0.5155895926
0.5411666193
0.5641843224
0.6067335703
0.6439012025
0.6859792951
0.4152698378
0.4141298515
0.4163107785
0.4192064782
0.4178344197
0.4171589074
0.4148079635
0.417031323
0.4212308878
0.4190830025
0.4190968333
0.4236476672
0.419516673
0.4191063571
0.4206148211
0.4259287303
0.4273712248
0.4343272855
0.4400822911
0.4467714897
0.4596911827
0.4696289848
0.4779216068
0.4916728729
0.5080225672
0.5158262585
0.5333476825
0.559533027
0.5957587681
0.6275557245
0.416330017
0.4201330239
0.4221282528
0.4197888984
0.4171390393
0.4198881468
0.4195059896
0.4201857344
0.4186563871
0.4172909482
0.4145684159
0.4139562685
0.418369156
0.4220420832
0.4267652533
0.4313176711
0.4372231535
0.440611409
0.4456736374
0.4456784096
0.4508886207
0.4539411566
0.4572758124
0.4648480469
0.4776072551
0.4892054592
0.5081390611
0.526586816
0.5440663912
0.5825350606
0.4239761516
0.4219748201
0.4214226811
0.4219764125
0.4234975743
0.423480494
0.4253778485
0.4232208174
0.4207955081
0.4214214732
0.4225291558
0.4250800643
0.4220330051
0.4247623494
0.4220080209
0.4219073169
0.4212072009
0.4243646086
0.4234713273
0.4316285703
0.4325064146
0.434282147
0.4482753482
0.4501753105
0.466312928
0.4753856242
0.4860793029
0.5001942722
0.5146828047
0.5323500246
0.4187568368
0.4169703233
0.4163202466
0.4167231187
0.4150105567
0.4121967263
0.4144712461
0.4189458888
0.4202113165
0.4210273391
0.4225729574
0.42067373
0.4223085058
0.4188150655
0.4225769659
0.4222628182
0.4186373522
0.4252373783
0.4267994172
0.427909235
0.4372644492
0.441406524
0.4422098684
0.4522412687
0.455478429
0.4626569004
0.4708788874
0.48425936
0.5009988167
0.5138412679
0.4136226919
0.4131447083
0.414741961
0.4137265185
0.4167077579
0.4201821165
0.4201873697
0.417872681
0.4163351924
0.4124356003
0.4153421964
0.414147315
0.4181181032
0.4193127267
0.416735444
0.4209581567
0.4249428598
0.423463039
0.42782059
0.4333626092
0.4343925557
0.4368055091
0.434981485
0.4428468543
0.4507220942
0.4573260253
0.4624736488
0.4698385524
0.4829994998
0.494377256
0.4139949254
0.4167646834
0.4132168829
0.4150351504
0.4154208526
0.4166576261
0.4179706288
0.4201708945
0.4227047739
0.4241151312
0.4213191846
0.4209783384
0.4227355929
0.4224938405
0.4241141757
0.4246384506
0.4259985762
0.4210989207
0.4193544221
0.4207358066
0.4237608421
0.4287061334
0.4331547951
0.4330445654
0.434404171
0.4415802546
0.4484155992
0.4627045116
0.474778588
0.48481082
0.4167084106
0.418347539
0.4183594064
0.417429423
0.4170076918
0.4164053579
0.4168453389
0.4157460571
0.416572264
0.4196795794
0.4239907998
0.4246843658
0.4165720563
0.4166318984
0.4152994083
0.4140090142
0.4140090695
0.4163304746
0.4198291188
0.4190211359
0.418899258
0.422761698
0.4237412104
0.4314967939
0.433910973
0.4435521351
0.4493111738
0.4513525392
0.4555955052
0.4708860963
0.4160076576
0.4148141065
0.4121607926
0.4137420343
0.4155134215
0.4162818298
0.4144489754
0.4138711988
0.4146164905
0.4129650618
0.4114328448
0.4163158573
0.4195019355
0.4201872281
0.4201181187
0.4217571637
0.422426587
0.423969617
0.4261855758
0.4286484386
0.4261861698
0.4249025885
0.4312608447
0.4295625944
0.431590601
0.4292451615
0.4372021611
0.4419321467
0.4513393323
0.4564349956
0.4078328458
0.410923051
0.4109867247
0.4138903931
0.4120120427
0.4076936031
0.4100060401
0.4129411317
0.4119771329
0.4109769834
0.4119913072
0.4066690188
0.4056284012
0.4074385501
0.4070817758
0.4112505345
0.4111709779
0.4104657958
0.406587362
0.411433916
0.4141842455
0.4167023485
0.4173451885
0.4196372951
0.4208374107
0.4242164651
0.4255811987
0.4278605742
0.4274972652
0.435094792
)
;

boundaryField
{
    flow
    {
        type            calculated;
        value           nonuniform List<scalar> 
55
(
2.379563573
2.388606626
2.297936963
2.218612096
2.128749221
2.017739364
1.869175156
1.727420907
1.542868003
1.393068699
1.237508265
1.107418445
0.9661933551
0.8510621405
0.7535434796
0.6859792951
0.6275557245
0.5825350606
0.5323500246
0.5138412679
0.494377256
0.48481082
0.4708860963
0.4564349956
0.435094792
0.4078328458
0.410923051
0.4109867247
0.4138903931
0.4120120427
0.4076936031
0.4100060401
0.4129411317
0.4119771329
0.4109769834
0.4119913072
0.4066690188
0.4056284012
0.4074385501
0.4070817758
0.4112505345
0.4111709779
0.4104657958
0.406587362
0.411433916
0.4141842455
0.4167023485
0.4173451885
0.4196372951
0.4208374107
0.4242164651
0.4255811987
0.4278605742
0.4274972652
0.435094792
)
;
    }
    obstacle
    {
        type            calculated;
        value           nonuniform List<scalar> 0();
    }
    frontAndBack
    {
        type            empty;
    }
    procBoundary3to1
    {
        type            processor;
        value           nonuniform List<scalar> 
36
(
2.40755209
2.343205774
2.353838823
2.392219923
2.400603331
2.400603331
1.681879685
1.784596032
1.911468942
2.021133633
2.098104035
2.160212575
2.160212575
0.9723284205
1.055326117
1.157274237
1.266208679
1.370170995
1.370170995
0.5685724756
0.5921088217
0.6329720011
0.6779536854
0.7207900712
0.7820000982
0.7820000982
0.4480687664
0.4494330062
0.455696223
0.4692840762
0.479003138
0.4928540664
0.5090593559
0.5090593559
0.4295999473
0.4295999473
)
;
    }
    procBoundary3to2
    {
        type            processor;
        value           nonuniform List<scalar> 
19
(
0.4238854468
0.4183518608
0.4256983885
0.4168048852
0.4117003532
0.4134484679
0.4182349974
0.4118342728
0.413521259
0.4131705106
0.4154169317
0.4145799166
0.4257609604
0.4174377
0.4142774883
0.4162355334
0.4156499911
0.416413131
0.4071544538
)
;
    }
}


// ************************************************************************* //
