/*--------------------------------*- C++ -*----------------------------------*\
| =========                 |                                                 |
| \\      /  F ield         | OpenFOAM: The Open Source CFD Toolbox           |
|  \\    /   O peration     | Version:  2406                                  |
|   \\  /    A nd           | Website:  www.openfoam.com                      |
|    \\/     M anipulation  |                                                 |
\*---------------------------------------------------------------------------*/
FoamFile
{
    version     2.0;
    format      ascii;
    arch        "LSB;label=32;scalar=64";
    class       volScalarField;
    location    "0.012";
    object      linearKEMean;
}
// * * * * * * * * * * * * * * * * * * * * * * * * * * * * * * * * * * * * * //

dimensions      [1 -1 -2 0 0 0 0];

internalField   nonuniform List<scalar> 
654
(
14.80562182
15.67588721
15.77428996
15.62643053
15.52801668
15.46402013
13.50558076
14.00738694
14.56498564
14.96491984
15.33197814
15.61295874
15.76543661
15.82471364
15.95227597
15.85945069
15.73210425
10.33067401
10.83846403
11.25380239
11.76707626
12.25353376
12.84738425
13.36824722
13.75929187
14.34989678
14.8348134
15.28916136
15.59263085
15.75814607
15.86146774
15.9509118
15.93895336
8.47224778
8.630386865
8.703340433
8.951041478
9.210190703
9.483667444
9.739489908
10.12050266
10.58118999
11.07430941
11.56412459
12.04806825
12.59969572
13.16065885
13.59662561
14.11283111
14.62735898
15.10345491
15.49256558
15.78050483
15.90677268
16.05207421
7.975337065
7.984664817
7.998733516
8.078122804
8.163224942
8.201190084
8.260968313
8.311825304
8.487360757
8.669669996
8.797502749
8.995468205
9.254995055
9.524498936
9.756510154
10.04208172
10.44248978
10.88416917
11.34409712
11.84951056
12.44598099
12.9828601
13.49562641
14.05103976
14.59774571
15.10538764
15.45656948
15.81491232
16.00375319
7.948398882
7.972197451
7.99873349
8.068462334
8.094311623
8.095327596
8.162428118
8.257886881
8.338856031
8.38383923
8.435009257
8.58547279
8.688928399
8.892204205
9.092182374
9.372764106
9.647289172
9.950620256
10.30318497
10.64950412
11.14082508
11.60656181
12.15052592
12.69249377
13.29541963
13.85921673
14.30062273
14.8279272
15.22788804
15.60011056
7.929317594
7.925377954
7.943566252
7.951858677
7.990245018
8.037728113
8.100885742
8.176634653
8.2026778
8.304495355
8.370235939
8.433897784
8.546698238
8.652116833
8.783416925
8.958797841
9.149413728
9.356085053
9.677997264
10.0263529
10.36308654
10.81735251
11.33689097
11.87163959
12.47262803
13.00291822
13.64939761
14.25695223
14.80555148
15.21224123
7.929345837
7.955621859
7.964280527
7.979020002
8.003564307
7.994832601
7.959360966
7.987120843
8.047609342
8.05574059
8.061051683
8.190807451
8.301717389
8.414038919
8.5305148
8.721492696
8.899634657
9.163339752
9.312702984
9.598868906
9.979989649
10.34419066
10.67249154
11.13289209
11.60670103
12.14707455
12.74060818
13.33246738
13.86846724
14.3865201
7.900269042
7.883466225
7.919944261
7.946043674
7.941891098
7.956617752
7.964239948
7.994150345
7.999152134
8.071998362
8.107896937
8.193988619
8.201867433
8.22222437
8.337620904
8.449848255
8.532810519
8.710318726
8.962982047
9.219061498
9.478039926
9.815135921
10.12946171
10.46781959
10.93551201
11.45972828
11.9704091
12.53328981
13.15739924
13.79378997
7.850359318
7.86266525
7.831499905
7.820314754
7.859220541
7.893053182
7.957411315
7.99897624
8.036639782
8.018473679
8.098258622
8.092536433
8.125003264
8.19091742
8.258140122
8.33262695
8.479493151
8.675441626
8.835315554
8.95419386
9.170719062
9.443400273
9.833253306
10.13322814
10.49965132
10.96580807
11.44202469
11.9237277
12.43113973
12.94324702
7.832214306
7.826345701
7.852449952
7.865407132
7.869742985
7.884636012
7.883035747
7.880706949
7.913062728
7.953131884
7.985607073
8.00232049
8.05518145
8.160976516
8.179378422
8.261829365
8.288990641
8.397336976
8.539272916
8.734709175
8.921860785
9.191454662
9.406640524
9.74320731
10.02450389
10.35281035
10.80476142
11.21573138
11.72516813
12.34309154
7.947424008
7.947676771
7.906255952
7.910873295
7.884341853
7.921443574
7.909111215
7.89286401
7.907018547
7.906748674
7.962901343
8.008538641
8.038697037
8.049227827
8.134383771
8.244004687
8.310159204
8.368486253
8.462019504
8.50003594
8.654710091
8.750684492
8.957891775
9.219650623
9.478811728
9.773573227
10.14064944
10.61714428
11.14385723
11.62620493
7.809349759
7.856256181
7.865098243
7.860982018
7.827511621
7.855641985
7.84656437
7.868840423
7.869541677
7.899329585
7.911986468
7.938928314
8.008809771
8.03841501
8.043563053
8.126523204
8.143318963
8.216147236
8.267889136
8.381412889
8.465059862
8.606855362
8.7125782
8.874114641
9.118017702
9.402582418
9.674209169
10.08125238
10.44463699
10.8965844
7.79494175
7.792777369
7.803331014
7.815341625
7.831590622
7.797831635
7.84936578
7.854942388
7.890787583
7.948485924
7.925625023
7.944998748
7.964245021
8.003738049
8.062547344
8.107034879
8.106773528
8.134374312
8.137911638
8.231568812
8.30722037
8.428661028
8.577334132
8.715751753
8.855447737
9.101083927
9.36295905
9.589531526
9.936726967
10.34788753
7.762628618
7.759620211
7.750263871
7.789924233
7.799433029
7.872596574
7.894581546
7.905378281
7.891536228
7.887957253
7.929864332
7.962933721
7.958467942
7.965595174
7.917542714
7.949364514
7.976250076
7.980148122
8.050311364
8.114552999
8.114930912
8.184868013
8.252943708
8.37593301
8.5295958
8.717700234
8.922353181
9.225908318
9.422166937
9.735840005
7.863007614
7.842749823
7.858869694
7.864550285
7.846639694
7.880767788
7.864294222
7.89636504
7.926732035
7.926425969
7.887815278
7.880351655
7.874099262
7.874501365
7.867831961
7.866753169
7.890325154
7.947219067
7.940396515
8.038420539
8.123631316
8.199137233
8.284232787
8.384221948
8.419938383
8.490521556
8.614471716
8.827227745
9.142052935
9.377340307
7.894430525
7.924432741
7.94952005
7.903293715
7.885345391
7.873222498
7.842247739
7.825043854
7.792038229
7.784382136
7.775882933
7.789698495
7.814689712
7.83956685
7.873221237
7.94257167
7.98838058
8.01557859
8.111037245
8.078097958
8.161478371
8.167164777
8.128832071
8.22818736
8.316464722
8.384433041
8.494884198
8.632708343
8.735680018
8.994744106
7.94871072
7.93973226
7.945907697
7.962285606
7.94268374
7.935125444
7.9276766
7.929501336
7.873891726
7.869821878
7.858219302
7.8837463
7.899821688
7.942283698
7.952730753
7.908053998
7.917293483
7.938291786
7.902602155
7.940621522
7.957113718
7.977795595
8.063814583
8.100144434
8.244222802
8.287502302
8.419196076
8.513382565
8.613978536
8.770838118
7.856117902
7.816146532
7.798620801
7.806054134
7.819723096
7.810547954
7.79547795
7.847180897
7.868984525
7.865650494
7.918518414
7.917320803
7.898000301
7.870737023
7.866427887
7.887044212
7.861477043
7.906476725
7.892382376
7.929869315
7.989179141
8.038311659
8.054818805
8.107828207
8.100553897
8.156007182
8.215358246
8.292467083
8.450154427
8.532842596
7.827561838
7.790865138
7.833432307
7.804825343
7.835685985
7.82340451
7.839263645
7.807475581
7.834479861
7.786551522
7.829108141
7.78129006
7.797021798
7.857525376
7.859132532
7.890268771
7.930891853
7.897513324
7.982193459
7.992125838
7.9642392
7.951857573
7.939496383
8.039994333
8.134834092
8.216110336
8.198969126
8.234759748
8.327671052
8.401651318
7.82375889
7.846125832
7.81297011
7.83504351
7.816439066
7.853766472
7.900545603
7.943180362
7.949526291
7.941524145
7.926464123
7.910874689
7.935291636
7.89763024
7.920391183
7.954370363
7.97860543
7.922091161
7.910809423
7.904482694
7.930220505
8.029171954
8.100384351
8.075490927
8.024336412
8.095212518
8.187482611
8.308434496
8.380265518
8.454079766
7.872178091
7.900056209
7.899719459
7.920647535
7.90964379
7.876361547
7.822732516
7.79319845
7.831573897
7.867755963
7.883785792
7.928245633
7.882355799
7.91257342
7.902202199
7.888368281
7.864530855
7.866400191
7.907551144
7.932662182
7.941542343
7.924671235
7.921779577
7.976946924
8.021930835
8.082806024
8.098760494
8.153246263
8.178643325
8.279428535
7.845663532
7.822620571
7.818224736
7.818147802
7.852566991
7.873787903
7.896787746
7.893487367
7.881177252
7.87206054
7.844239106
7.893563889
7.933329204
7.960267156
7.90744673
7.930255603
7.943725679
7.986989094
7.983614962
7.982724069
7.949001558
7.934563931
7.950362592
7.963417754
7.981035466
7.958395101
8.033313485
8.03520342
8.136559608
8.200799546
7.714376415
7.76393169
7.753160365
7.774051756
7.756245265
7.719607147
7.754706568
7.755862054
7.764694233
7.751187179
7.77498998
7.709160657
7.689421858
7.703700415
7.703134728
7.734258762
7.748199195
7.745216223
7.695688498
7.737911984
7.786052171
7.838226216
7.792331527
7.806689352
7.801142806
7.836830316
7.853534924
7.875872627
7.888859584
7.966469926
)
;

boundaryField
{
    flow
    {
        type            calculated;
        value           nonuniform List<scalar> 
55
(
14.80562182
15.46402013
15.73210425
15.93895336
16.05207421
16.00375319
15.60011056
15.21224123
14.3865201
13.79378997
12.94324702
12.34309154
11.62620493
10.8965844
10.34788753
9.735840005
9.377340307
8.994744106
8.770838118
8.532842596
8.401651318
8.454079766
8.279428535
8.200799546
7.966469926
7.714376415
7.76393169
7.753160365
7.774051756
7.756245265
7.719607147
7.754706568
7.755862054
7.764694233
7.751187179
7.77498998
7.709160657
7.689421858
7.703700415
7.703134728
7.734258762
7.748199195
7.745216223
7.695688498
7.737911984
7.786052171
7.838226216
7.792331527
7.806689352
7.801142806
7.836830316
7.853534924
7.875872627
7.888859584
7.966469926
)
;
    }
    obstacle
    {
        type            calculated;
        value           nonuniform List<scalar> 0();
    }
    frontAndBack
    {
        type            empty;
    }
    procBoundary3to1
    {
        type            processor;
        value           nonuniform List<scalar> 
36
(
14.16538232
15.52402399
15.34752686
15.24216837
15.0510474
15.0510474
14.2256415
14.67492501
15.07209528
15.33668035
15.58251129
15.66039048
15.66039048
11.04782914
11.51364902
12.01145684
12.51725192
12.98247311
12.98247311
8.694473947
8.829291502
9.169213629
9.408386381
9.672844382
9.939030949
9.939030949
8.013020273
8.039677396
8.040199094
8.149397542
8.151389784
8.226340388
8.334915235
8.334915235
7.927212152
7.927212152
)
;
    }
    procBoundary3to2
    {
        type            processor;
        value           nonuniform List<scalar> 
19
(
7.931948889
7.880982167
7.921108625
7.885779363
7.835785498
7.852782714
7.917448882
7.822556956
7.756505684
7.803515062
7.858730255
7.890958777
7.947565885
7.849031242
7.800066155
7.861562987
7.830853516
7.855549643
7.761801682
)
;
    }
}


// ************************************************************************* //
