/*--------------------------------*- C++ -*----------------------------------*\
| =========                 |                                                 |
| \\      /  F ield         | OpenFOAM: The Open Source CFD Toolbox           |
|  \\    /   O peration     | Version:  2406                                  |
|   \\  /    A nd           | Website:  www.openfoam.com                      |
|    \\/     M anipulation  |                                                 |
\*---------------------------------------------------------------------------*/
FoamFile
{
    version     2.0;
    format      ascii;
    arch        "LSB;label=32;scalar=64";
    class       volScalarField;
    location    "0.012";
    object      linearKE;
}
// * * * * * * * * * * * * * * * * * * * * * * * * * * * * * * * * * * * * * //

dimensions      [1 -1 -2 0 0 0 0];

internalField   nonuniform List<scalar> 
654
(
18.94156485
21.81974421
10.58933608
16.37160442
16.9438751
12.08754241
8.600607113
6.854441697
10.7628892
20.56027702
18.56659948
16.9300695
6.361450308
13.16474744
12.67627666
12.55872769
24.93552155
6.637930166
9.616963852
8.65197057
8.162749265
14.57665054
13.04845345
10.42422154
7.148933422
17.6630676
11.1977792
13.77192554
20.03574418
15.53163334
17.17301199
14.88103762
19.10449387
4.479862915
6.624312025
10.74879321
15.03431625
10.19061252
4.358831826
5.680217291
14.29025764
7.199476684
12.35418451
7.848245883
17.05683163
16.3551102
10.02721647
19.96446371
13.28988227
10.17739975
17.58333647
11.49606968
16.42517919
18.65601109
16.90551967
4.666087142
8.104612996
12.82031672
4.769331288
10.21407648
5.011069603
14.57129903
6.883771458
4.992158938
6.188952081
9.207010867
4.740199454
5.097616943
12.66789804
4.355042847
5.812274185
7.817248803
7.268205608
9.593698107
7.214351357
12.94054507
14.65686883
16.25644238
16.19116753
18.08192822
13.77629866
15.05277502
20.52178784
21.11043911
11.78408146
7.11786515
5.095976354
7.395124278
6.022664105
8.183109442
12.2942847
6.4642208
8.346238995
11.3837107
8.914412665
5.224682542
14.43235123
11.21900243
4.204818333
6.08213867
7.055351722
8.255462936
14.8070325
8.52088801
12.33204582
9.483005658
12.12187758
11.47424912
17.39891255
20.70995906
18.53817906
12.03840075
18.82949169
11.83404358
6.213640861
10.5725235
9.299109496
6.781009221
7.775801988
6.807648076
7.396993635
6.23369789
1.840113002
3.128087204
5.206256863
5.593855465
9.439325794
8.886508487
10.66213482
6.248463886
9.414220107
9.114839696
12.46751334
13.61391857
12.82969331
10.04966962
13.40601172
10.98875971
16.00930143
15.14258623
15.6510894
15.75857463
22.08415894
15.34085779
14.74419309
9.829393566
6.276005949
4.802944481
4.820057964
9.642901661
11.02005648
7.988736443
9.287139755
3.686752025
5.007376013
9.180527269
9.604858564
10.6146149
13.05439724
8.49579538
11.41390081
9.508038005
8.02022579
8.908134761
12.84078072
9.381475525
16.68704105
10.20510444
9.007997633
14.14936982
12.0808154
30.10233802
15.33233779
19.01902682
6.688511249
7.757084092
9.184228366
5.438297388
8.635741628
10.42477075
10.08531345
11.51087559
10.89749174
7.547234082
10.37973444
9.664185367
7.007645892
8.536920662
9.098652965
3.274340521
11.5093828
13.5736914
11.01155716
7.099878643
6.854542553
11.23546123
9.648547084
11.08650732
11.28234461
17.90534579
9.936884564
13.07089759
9.69392181
15.12123987
9.697632999
7.835154044
10.4730972
3.978121074
7.198557065
8.170432416
5.169709436
9.867740448
5.663926725
10.72501951
9.647209194
2.237446652
9.403566861
8.358611209
4.108934861
7.550557771
12.79271488
14.23649638
14.25342248
5.729769932
12.1107455
7.242244968
9.429952954
8.700486853
8.648107877
7.601462693
16.57250745
19.88521369
13.92421699
17.30453044
5.978115361
6.907272447
7.001314374
10.29456514
8.613703154
12.59990382
10.48851082
8.05063323
9.508398207
5.817890913
8.032986654
6.251044851
8.799120511
9.33665654
7.185788521
6.367272455
10.16623165
4.271318244
8.749071115
7.359154374
13.8471757
9.911101882
5.992886378
20.37657082
12.95561738
16.99004975
15.15095921
11.34619082
13.69890744
15.68239583
7.49731783
6.166774088
7.445597873
14.55633895
10.43301299
3.969860617
7.859383474
9.622325891
8.287490364
10.26928546
7.48457635
7.089303178
4.576769517
5.474343104
9.246325038
9.450833578
8.306302256
13.13857127
13.93627855
8.599064094
14.12502566
14.33024305
6.544070977
10.60559592
9.826450804
14.93978003
8.23863226
11.34715828
10.14054192
17.04562043
7.816396142
11.99747612
6.206489508
5.802155891
11.58471392
4.939053087
4.589294506
9.336494767
4.182329067
9.578685091
7.552593855
9.994794629
9.997552403
9.89440303
5.561056292
5.834076813
9.320836246
6.420095115
8.593573216
6.029797161
8.149549351
7.190272152
3.811795102
12.4383543
10.95702618
8.921816463
7.935637207
12.38521863
11.55618433
7.917590748
9.063377765
7.452049157
12.43274192
4.748331636
9.809295251
1.878942161
10.44514975
4.625506908
10.13303858
6.226826661
6.503198882
5.191594909
7.854225558
3.022953679
6.818127742
8.910511653
8.696206487
6.300236325
6.272365192
5.494391438
2.223062483
7.628207908
6.725357982
8.392678166
10.04785077
3.215984129
10.75436318
4.791813435
8.958926852
5.540596829
7.89705474
8.430576904
7.584630223
4.673951472
7.699425256
6.466341338
11.39590478
5.076950815
8.461066593
4.830691529
5.149716382
6.296542345
12.76077429
8.522079968
6.350193323
4.446610716
2.326137742
11.81334203
4.778298531
6.942655398
6.872812498
10.10695744
12.99676726
5.482521576
12.46735498
4.861991469
4.37514893
8.149262117
12.24585398
7.099723072
10.30047769
7.52192322
7.421511896
8.320435965
10.40928861
5.908066172
10.69132307
6.787366122
4.346008013
4.360251301
8.934202498
8.915499414
5.141612106
11.58765602
9.392622667
9.828793582
5.728330031
12.35691707
11.81243901
5.185477649
9.072668715
4.198307942
11.58680772
6.103389942
11.78482241
6.355342972
3.909504894
10.02122059
7.879162556
9.084352567
11.8916658
7.076373177
8.153170827
4.852637153
4.09729349
7.025157709
7.777974252
6.498062376
10.60393078
6.30431195
8.507974639
14.18668869
6.687302085
13.83833288
6.501693268
6.888079988
4.059610487
6.171379211
5.672492382
5.440595195
10.11341587
11.05451003
10.15323418
11.31675116
5.601641272
17.14302659
7.930248878
7.442967006
12.80057007
6.987389855
7.637583551
11.09450589
7.564130328
8.447136089
4.852500015
11.52029391
6.394739196
9.448464678
6.94305626
11.92756411
7.369639452
7.892181976
5.054839049
7.207908615
9.767503129
12.20727307
11.73226851
5.214135058
5.981039305
6.72522549
8.110741548
9.899823376
5.788402967
7.34319571
9.643812663
18.89738307
12.92905163
7.517806719
9.891538108
7.68544086
8.474366796
3.428525112
10.86178843
7.242587966
10.15399025
13.8947133
4.421926377
7.001575868
10.42290481
4.39917104
7.554402583
5.278951115
12.51316127
4.387690078
10.10908692
8.549847563
4.730356307
2.985729787
5.999723012
3.976840001
10.47080398
5.597073507
15.11039079
4.679661153
4.247306154
8.280143728
8.786758752
3.982865501
6.032255079
7.579718692
4.708827169
8.016468493
7.168493916
8.065656109
8.325425772
6.951851464
10.85433855
3.929921924
12.00090966
3.656287463
7.694392205
12.55794701
7.381671538
6.460867525
10.49824366
9.793444838
5.064299454
6.176688466
8.985857803
5.019797598
12.89970426
5.779776619
9.09302322
8.509270675
7.996253765
5.409687282
2.051061085
8.618537177
6.458053174
12.26415359
6.393072527
5.300356614
8.151524658
9.427248389
9.006370605
8.619032688
8.57848059
10.33684978
10.21072027
7.912663061
11.72473732
8.55960523
12.63797393
5.50839412
10.83204479
6.108945379
9.41989708
8.535926276
5.603002307
6.080148734
13.96950684
9.808891645
12.22021438
8.468619559
7.521764289
8.491375312
11.20017505
9.268132318
10.74415388
7.664384265
11.59428444
8.899432043
7.823538435
5.150621303
5.919589381
6.297640927
2.40681776
5.16357298
12.35408248
8.934557295
7.572866968
9.010261502
9.017571634
8.258771232
7.742322617
4.680054657
4.326087999
10.74461373
6.433786787
4.659078801
6.92236391
8.41211042
6.866421003
5.902554646
5.598035962
11.40312011
3.914396749
5.997904624
4.900808773
9.227594675
5.328634309
8.603138617
2.375971834
8.657821726
7.695122252
7.048822511
9.277124399
9.915588048
5.753182727
8.979569524
11.48227482
9.989653469
4.821984831
8.578210977
4.942626246
4.60211287
9.734633068
6.212007245
13.07132813
10.6405674
6.954463639
8.108076693
7.54411689
4.851420519
4.492898331
7.499278953
8.01906261
6.170919438
14.25462769
10.10715045
7.09773525
7.914578247
9.122400968
7.605555856
14.34716843
2.79689785
8.727784959
11.92192091
9.553005403
7.703421273
8.072657749
5.578279185
5.839155436
8.730692751
6.582966327
5.035591608
9.39660406
11.49693977
11.79108121
6.374848706
8.39067508
4.00021681
9.185168607
6.040646905
6.815880312
11.70712109
8.106458821
10.32331416
6.002316262
8.090513882
)
;

boundaryField
{
    flow
    {
        type            zeroGradient;
    }
    obstacle
    {
        type            calculated;
        value           nonuniform List<scalar> 0();
    }
    frontAndBack
    {
        type            empty;
    }
    procBoundary3to1
    {
        type            processor;
        value           nonuniform List<scalar> 
36
(
14.2383068
20.04761419
19.48517717
19.7491564
9.82473374
9.82473374
11.24245601
18.97227431
19.09759525
9.836262045
10.60540003
10.52661039
10.52661039
10.98651914
8.607149038
11.95185161
11.11582331
17.36571325
17.36571325
8.221376774
8.83328912
9.988831238
10.97929004
11.90234092
11.22407463
11.22407463
6.258813456
7.509111026
5.723700638
8.519222121
9.183219763
6.388286409
4.699527118
4.699527118
6.206276291
6.206276291
)
;
    }
    procBoundary3to2
    {
        type            processor;
        value           nonuniform List<scalar> 
19
(
5.971921993
5.758552884
10.97741805
7.008615934
10.33494955
5.431123992
11.62308948
5.064888558
6.878967905
8.281728638
9.962862499
5.509007569
5.553904911
9.115664536
9.820293173
5.077129047
7.509276247
10.85106968
5.987060718
)
;
    }
}


// ************************************************************************* //
