/*--------------------------------*- C++ -*----------------------------------*\
| =========                 |                                                 |
| \\      /  F ield         | OpenFOAM: The Open Source CFD Toolbox           |
|  \\    /   O peration     | Version:  2406                                  |
|   \\  /    A nd           | Website:  www.openfoam.com                      |
|    \\/     M anipulation  |                                                 |
\*---------------------------------------------------------------------------*/
FoamFile
{
    version     2.0;
    format      ascii;
    arch        "LSB;label=32;scalar=64";
    class       volVectorField;
    location    "0.012";
    object      momentum;
}
// * * * * * * * * * * * * * * * * * * * * * * * * * * * * * * * * * * * * * //

dimensions      [1 -2 -1 0 0 0 0];

internalField   nonuniform List<vector> 
654
(
(0.02123133771 0.005709546734 -0.001938781436)
(0.02016555228 0.007823902453 -5.257922541e-05)
(0.01210467137 0.003248434106 0.0001285198723)
(0.01658399567 0.005411997228 -0.0007961523119)
(0.01849375068 0.004314917259 0.000340159097)
(0.01333103727 0.00459797731 0.001076936017)
(0.008795377731 0.002945579768 0.0007055748698)
(0.006737631111 0.00238629587 -0.0001631417583)
(0.01216121743 0.001806855508 -0.0008130692087)
(0.02027324468 0.005966136452 0.0001840002051)
(0.01876559925 0.006954446175 -0.0008495892614)
(0.01487288741 0.004595333281 -0.0003216678516)
(0.00681854818 0.002627502817 -4.488728252e-05)
(0.01288955198 0.004953211412 0.0007793031129)
(0.0139312957 0.002119425369 -0.0001437541642)
(0.01341794211 0.005227695287 -0.0006797663431)
(0.02547365227 0.006013016466 0.00156713403)
(0.006018410607 0.001502574965 -2.37562048e-05)
(0.0106209406 0.002564026851 0.0001511087279)
(0.009157707778 0.001818512362 -0.0008020194046)
(0.009067065019 0.00257672037 0.0005987854365)
(0.01649818346 0.001853099742 0.0003778733103)
(0.01503197579 0.002275307861 0.001233064177)
(0.0119359012 0.0004509661421 -0.000293448792)
(0.007788735425 0.001843816399 0.0008079838345)
(0.01711623168 0.00365196966 -0.0004376650275)
(0.01156039674 0.002619416264 0.002201302285)
(0.0132991977 0.005075488525 0.002686219891)
(0.0202297388 0.004120556336 -0.0003648530911)
(0.01705724064 0.002919825916 0.00181629244)
(0.01519398115 0.007007314368 -0.0004317785739)
(0.01657344202 0.007802734293 -2.928328625e-05)
(0.01840820856 0.005895753491 0.004062599531)
(0.004722639304 0.0004382653907 0.0005807563956)
(0.006863025112 4.954925423e-05 -0.0002508182956)
(0.01051700823 -7.379805936e-05 -0.0009348510184)
(0.01421363897 0.00381056252 -0.00093687887)
(0.01187901597 0.0008948697934 0.0004966779332)
(0.003471080236 0.001414555098 -0.0004749833543)
(0.005963690838 0.001732181589 8.646559527e-05)
(0.01464270157 0.0003157541597 7.753354296e-05)
(0.007062242939 0.001067399482 3.196587207e-05)
(0.01338821087 -0.0005765252807 0.0007024426771)
(0.008112392304 0.0008781129259 0.001339615632)
(0.01749180116 0.004213168325 0.002129332078)
(0.0159149236 0.003895312008 8.606633453e-05)
(0.01102838461 0.003241473097 -0.0009358897412)
(0.02189633273 0.005853926989 0.0007078956909)
(0.01310075963 0.005288368457 0.0003035040621)
(0.01179974438 0.003791012127 -0.0006376222462)
(0.01815323603 0.006039297236 -0.002759422509)
(0.01219621635 0.003655608099 -7.008337582e-05)
(0.01693445677 0.007209399504 -0.0008235990031)
(0.01853532385 0.005389364095 -0.0004068864866)
(0.01684311927 0.005554924426 0.0007982574566)
(0.005242802183 -8.783498798e-06 0.000270454676)
(0.008949568851 0.0004540088051 -0.0001847934388)
(0.01360901242 -0.0003652413109 0.0001395898166)
(0.005016005875 0.0006185561203 -0.000221151095)
(0.01028501998 -0.000534175616 -1.610904783e-05)
(0.006052386079 0.0004348735404 -0.0003161601315)
(0.01300803978 0.002641978579 -0.001039450812)
(0.007033266412 0.0008727885805 0.0007912610553)
(0.004771621571 0.001883321266 -0.0001250520655)
(0.00602612326 0.001429770287 0.0004523192505)
(0.00949931345 0.002138194979 -0.0004214575913)
(0.005103585071 0.0004646007435 0.0002914942308)
(0.005168790965 0.001862280404 0.0002046695545)
(0.01421926395 0.002034110366 0.001243345471)
(0.004292818557 -0.000202336224 -0.0005692672129)
(0.005846660695 0.002052218675 -0.000602113976)
(0.008048559099 0.001892900827 -0.0009545310456)
(0.008220787702 0.001190436912 -0.0004083580056)
(0.009420695951 0.002290784437 0.000100070391)
(0.007537299884 0.002162342538 -0.0001079696065)
(0.01335429694 0.001850834832 -0.0001775314625)
(0.01579248061 0.004824344671 0.0004575110347)
(0.01650876206 0.004937351925 0.00250015002)
(0.01515416607 0.006349748757 -7.51853831e-05)
(0.01796947708 0.007840626402 -0.001200652209)
(0.01501074574 0.002944904768 0.001913538412)
(0.01698411902 0.004382945336 0.0006315045583)
(0.01953274207 0.006456715064 -0.0001709926548)
(0.02073990496 0.008181607425 -0.0002135189704)
(0.01292837331 0.0003266621891 0.0003135667001)
(0.008065751295 -0.0003368807671 -0.0002433409456)
(0.00564938053 0.0008633013975 -0.0003327690432)
(0.008703932642 -0.0004036196851 0.0002644795463)
(0.006535943552 0.0004075878309 -0.000559614937)
(0.008213998906 0.0002234586982 0.0006497682996)
(0.01265209197 0.0007332516198 0.0008429200709)
(0.006723013656 -0.0001353235661 -6.250050729e-05)
(0.009234293233 -8.468919249e-05 -7.972209591e-05)
(0.01234350886 0.0006389627587 0.0002642571832)
(0.01001151062 -0.001419384068 -0.00045304774)
(0.00516515114 -4.345079953e-05 0.0007231523466)
(0.01515029433 0.000796152698 -0.0004014322862)
(0.01105647401 0.0008587514185 0.0003187543385)
(0.004488305556 0.0008579586114 3.05077474e-05)
(0.006584686165 -0.0005168683363 0.0001142078768)
(0.006456407385 0.001757806948 -0.0009968727884)
(0.009289127176 0.001802740709 0.0003600756144)
(0.01269074114 0.002838148164 0.000849880717)
(0.009270106869 0.00133041419 0.0002078205812)
(0.01339743145 0.0009277568062 -5.155190033e-05)
(0.01107234071 0.0009273970954 -0.001231521892)
(0.01213098427 0.001967776073 0.0007573929345)
(0.01241894637 0.003118680452 -0.0004890490828)
(0.01889630853 0.005358220783 0.0005673236115)
(0.01983423214 0.007813693036 0.001336347352)
(0.01826316267 0.007436370582 -0.0009352085476)
(0.0127847163 0.003416357502 7.750890065e-05)
(0.01901157529 0.004066133098 -0.0008038113143)
(0.01272817668 0.006325966567 0.0002573096997)
(0.007356324485 -0.0007002399064 0.0004026574076)
(0.01138531815 0.0002898703121 -0.000733886888)
(0.0105363627 0.0005120266707 -0.0005149817085)
(0.007995324481 0.0004042046253 -0.0002529505923)
(0.008379868609 7.694206619e-05 0.0005219935369)
(0.007370935375 -8.075223904e-05 -0.0006182547008)
(0.007339707436 0.0007845081146 -0.0001194306693)
(0.006324857552 0.0002130697016 0.0002300635121)
(0.002468470983 0.0001826527843 0.0007747078015)
(0.003771040733 4.616256763e-05 -8.102398782e-05)
(0.005697435408 0.0001576145922 -0.0005393354935)
(0.006512947628 -4.22404814e-05 -2.18277087e-05)
(0.009576651828 0.0001046885084 -0.0004884560018)
(0.008866177125 0.0005253230372 1.918812008e-05)
(0.0105437067 0.001542048815 -0.0007146400092)
(0.007062775541 0.0008665632287 -0.0003104742637)
(0.009895885578 0.0007045253231 -5.816530393e-05)
(0.009453948913 0.001410257735 -7.509275006e-05)
(0.01196770509 0.001595275729 0.0005448264907)
(0.01470464715 0.001833939803 0.0003641199953)
(0.0138517282 0.00378929699 0.0006070785789)
(0.01037001942 0.001939298911 -0.0001609834454)
(0.0137088205 0.004944144318 0.000196355173)
(0.0115476896 0.001255409454 -0.0006382216924)
(0.01598094489 0.001858752981 3.986596423e-05)
(0.01615346486 0.004464877715 0.0002407180062)
(0.01652775526 0.004851711304 0.0005981509961)
(0.0160213405 0.006151112698 0.001312583643)
(0.02174921209 0.00805989806 9.824179201e-05)
(0.01609015239 0.005901568221 -0.00169357254)
(0.0150853737 -0.0003631354444 -0.0002676592183)
(0.01005563347 0.0001429371606 -0.000422287764)
(0.00662345751 0.0002264846685 -0.0005074739688)
(0.004566721177 3.697345259e-05 -3.989385912e-05)
(0.005179551664 0.001452096786 -0.0001251424254)
(0.01041104916 0.0005349244101 3.189058512e-05)
(0.01116992626 -0.0006633974891 0.0003811962887)
(0.007492454883 0.000323313666 0.0001703739299)
(0.009818836384 0.0002790791914 0.0009860789477)
(0.003950491356 0.0004214501977 0.000350278773)
(0.005207727718 -0.0002760451903 -0.0002686378019)
(0.01071386538 -0.0001486856581 -0.000108535946)
(0.009885887512 0.001095930737 -0.0003821096652)
(0.01040928163 0.001125361057 0.0004477116257)
(0.01235691303 0.001120210804 -0.0001872839843)
(0.008874121929 -0.0002090572692 0.0008118305566)
(0.01162193573 -0.0004876832759 -1.013419415e-05)
(0.009475505631 0.002048794557 -0.0005254410559)
(0.008641968913 0.0002230990467 -0.001009064988)
(0.008352848747 0.001647201811 -2.108140031e-05)
(0.0133159152 0.001794937148 -0.001259774617)
(0.01004228403 0.0005094334716 -0.0005597886909)
(0.01675909914 0.002464496808 -0.0008890541083)
(0.01062269685 0.002311784128 0.001040044175)
(0.009427559527 0.002372769905 0.0008045878067)
(0.01443148788 0.003141750085 -0.001404611166)
(0.01216688991 0.003460144305 0.001169327766)
(0.02757971606 0.008264185682 -0.0004940139429)
(0.01464498015 0.005162546839 -7.049500568e-05)
(0.01900538219 0.006011980271 0.002563338654)
(0.006849274063 -0.000263777958 -0.0004049175791)
(0.007530209015 0.0002387796368 0.000580389311)
(0.01029718497 0.0004317877887 0.0004775881769)
(0.005807783426 -0.0004840129976 -0.0001436711206)
(0.009879573001 0.0003808666914 -0.0001100013918)
(0.01095711428 0.0001525169825 0.0003464741119)
(0.01092316875 6.920080306e-05 7.766250032e-06)
(0.01311197828 -5.134263108e-05 -0.0005466580754)
(0.01060166989 0.0001672374874 0.0005943115349)
(0.008081299988 0.0009511176027 -0.0002218761676)
(0.01170789832 0.0006208468148 -0.0002331363709)
(0.01002736617 0.0005282707748 -0.0001809419167)
(0.007744959388 -0.0006920616863 0.0004173201955)
(0.009490085564 0.0009464907969 -0.0002643457126)
(0.01015779684 -8.638235067e-06 -1.888390424e-05)
(0.004004244026 0.0004159766095 -3.570287018e-05)
(0.01197276921 0.001610236445 -1.173076471e-05)
(0.01365437619 0.0008147258379 -6.766554258e-05)
(0.01115347341 -3.83150878e-05 -0.0006952318166)
(0.008416874683 -0.0003128234221 -0.0007472189922)
(0.006887574143 0.0006248508784 -8.13748903e-05)
(0.01147585855 0.0009453030446 0.0004867439169)
(0.009182568219 0.002109158918 -0.001181760853)
(0.01169429738 0.002850188881 0.001938725034)
(0.0106222442 0.003295150321 0.001456769798)
(0.01612394241 0.006398173852 0.001543045152)
(0.009486613844 0.001768700473 -0.000159196941)
(0.01242299343 0.004675579037 0.001271587867)
(0.009887975334 0.003089338165 0.0009319640125)
(0.01504489238 0.004151962433 -0.0008545402841)
(0.01079556288 -0.0003792147552 0.0007900375467)
(0.007999745675 -0.000213511576 -0.000936523403)
(0.01168888079 2.224657941e-05 -0.0008709472377)
(0.004099564004 0.0001975043828 -0.0001624653215)
(0.007532342323 1.573335274e-05 0.0004350115867)
(0.008710722427 -0.0007988839444 0.0004794507963)
(0.005975723299 -0.000148268571 -0.0009896472544)
(0.009744174927 -0.0005377091256 -0.0005952486252)
(0.006866416586 -0.0004674014957 0.0009487271087)
(0.01119076132 -0.0008586088839 0.0004268217979)
(0.01020502663 -0.0007411758849 -0.0009490089471)
(0.00259050752 0.0002409084217 1.828241586e-06)
(0.009745815593 0.001674275539 -0.0002447214567)
(0.008740919758 -0.0002273018546 0.0005738137236)
(0.004781088025 0.0001473521286 0.0006543829582)
(0.007542705198 0.0008833886785 -4.331969222e-05)
(0.01386154037 -0.0004186628205 -0.0001116111443)
(0.01540905674 0.0005723753492 0.0006693048791)
(0.01489625271 0.0007199454736 -0.0007455093635)
(0.006216289784 0.0002544269616 -0.0003829859537)
(0.01231605431 0.001131097591 -0.0003968530509)
(0.008265015709 0.0001321545173 -0.0004243780699)
(0.01047551988 0.001318511491 0.001386089646)
(0.009541579755 0.001066884436 -0.0001178161597)
(0.009166313173 0.000807891986 -0.0001157577198)
(0.009274501629 0.001185695073 0.001079166234)
(0.015531343 0.003752383868 0.001338877208)
(0.02088846981 0.004135189213 -0.001409781864)
(0.01370226752 0.004562000558 -0.002179405879)
(0.01816005046 0.006095455225 -0.0008639586705)
(0.006467223857 -0.0001503357463 0.0003727136105)
(0.007563134813 0.0003280311894 -0.0004479452269)
(0.006451770679 -0.0001115196458 0.0002222890619)
(0.01081792072 -0.0001192710448 -3.572941141e-05)
(0.008999642614 -0.0002229383767 0.0006432308384)
(0.01273451659 -6.076778469e-05 -0.000407158142)
(0.01076024916 -7.618161392e-05 -3.602239443e-05)
(0.00891418964 -0.000309175609 -0.0006539981508)
(0.01057213649 0.0001084108596 0.000108807828)
(0.005722036522 -0.0007543120813 0.0002403429489)
(0.008834128326 0.0005392822682 -0.0004136333688)
(0.006487998238 -0.0006850842662 -0.0007185892352)
(0.008829234599 -0.0005557437233 -7.300736131e-05)
(0.009552034577 -0.0002857720261 -0.0001587137921)
(0.008023348095 0.0004070679875 -0.0004419709867)
(0.00643047302 -0.001113838657 -0.0003598311944)
(0.01069260636 0.0005042402478 7.065380799e-05)
(0.005058530725 6.02269532e-05 -0.0003165024078)
(0.009690883472 0.000324383071 0.001094180914)
(0.007441223245 0.001351213672 0.000287482335)
(0.01389290538 0.001914266947 -0.001247518865)
(0.009935873605 -0.0001212563617 -0.0002977077857)
(0.006890649174 -0.0004458221694 0.0007362523342)
(0.02001340499 0.002578850736 -0.0009028425832)
(0.01390512913 0.0009986374559 -2.795696874e-05)
(0.01610458766 5.593337183e-05 0.00083293683)
(0.01477323594 0.004692667367 7.082685054e-05)
(0.01114491997 0.001191035609 0.0002804871189)
(0.01213214725 0.004731830428 -0.0002154743328)
(0.01447621517 0.001421690605 0.001152038746)
(0.007022027664 -0.0008973637545 -0.0007283945368)
(0.0061308042 -0.000218482789 2.844069734e-05)
(0.008095398246 0.0002313008769 -0.0002372295714)
(0.01543482266 -0.0009268462981 0.0002852243372)
(0.01089331195 0.0005076187175 -3.616314207e-05)
(0.004578266233 0.0004409754389 -0.0004148908537)
(0.008021784452 0.0006614578996 0.0001885399273)
(0.009939911474 -1.733257039e-05 -1.505417011e-05)
(0.008697237072 0.0003214221892 -0.0002836193392)
(0.01097305657 8.337775488e-05 -0.0004205617666)
(0.008052014642 -0.000463796005 0.0001004074279)
(0.007408070815 -0.0001188820326 0.0002452489877)
(0.005830938645 -0.0005550608893 -0.0004664154842)
(0.005908250047 -0.0005159555621 -0.0001122719314)
(0.009071552342 -2.243099592e-05 -0.001077500741)
(0.009642948294 0.0001247168954 -0.0004208054262)
(0.009142066484 0.0002412293042 0.0009115496746)
(0.01442028577 -0.0002141594139 0.0007290559546)
(0.01572389468 -0.00033641898 -0.0008190225566)
(0.008294031965 0.001177396642 -0.0001481492256)
(0.01468265721 0.0004231383278 0.0002372902244)
(0.01424977955 -0.0004308438443 0.0002852307814)
(0.006441665508 0.001765535822 -0.0005925791969)
(0.01056288078 0.0002749344154 0.000869835816)
(0.0119212815 0.001775369027 -0.0003752309295)
(0.01490231367 0.001069526126 -0.001120309329)
(0.007317440826 0.001494031911 -6.9102387e-05)
(0.01152264529 0.002667931034 -5.960369725e-05)
(0.01090728968 0.0008836220493 -0.0004087455509)
(0.01746136727 0.004074399266 0.002439119471)
(0.008456190334 0.000178744959 -0.0006045555849)
(0.01251564508 7.963484594e-05 -0.0007213395652)
(0.00717814511 -5.916410398e-05 -0.0005242619343)
(0.006317608701 -2.878387915e-05 -1.205899778e-05)
(0.01201863888 -0.0007702483727 -0.0001726493726)
(0.005521771319 -0.0001223647884 0.0006971814717)
(0.005236006543 0.0003988973797 7.355472077e-05)
(0.009565768915 -0.0002221292732 -0.000548404945)
(0.004244203297 0.0001126186998 -0.0002188068611)
(0.009617165932 -0.0001163460132 0.0001983010129)
(0.008106494825 -0.0001846765088 -0.0004270939018)
(0.01055848771 -0.0007859857195 0.0001184711906)
(0.01076967103 0.001088588334 0.0005977462196)
(0.01018255072 0.0007647524667 1.297105948e-05)
(0.005285419151 0.001161819112 8.903886297e-05)
(0.005714257348 -1.831342512e-05 0.0007635351665)
(0.009976924011 0.0004919889146 0.0004289398869)
(0.006472047654 0.0002894238106 3.108635698e-05)
(0.009321036081 0.0005042567203 -0.0001696953729)
(0.007006671594 3.119824075e-05 0.0005319813562)
(0.008467218463 -8.139448058e-05 0.0004446128843)
(0.008035956344 0.001505289983 -0.0001061011331)
(0.003806099778 0.0001745933099 0.0005589839461)
(0.01288212112 -0.0009300530814 -0.0003142804241)
(0.0115696969 0.001483052831 -0.0009593654689)
(0.009339972579 0.0005185398847 0.0003558732318)
(0.008916012329 0.0003219564864 0.0004714292462)
(0.01104563382 0.00143190377 -0.001575624729)
(0.01306534082 0.002081211548 0.0002440198343)
(0.008093939545 0.001542470009 -0.001203115766)
(0.00918353041 0.0004890667141 0.0002012125956)
(0.008099538628 -0.0002530586435 0.0004760562512)
(0.01233234031 -0.0008400658868 0.001259772807)
(0.004864797489 0.0005365213507 0.0001258610195)
(0.01050752803 5.841813885e-05 0.0002289952586)
(0.002319882256 -0.0002334353899 0.0001250567099)
(0.01093140833 8.199006869e-05 -0.000501985029)
(0.00494625431 -0.0002725658635 -0.0001680001507)
(0.01093681978 0.000260923391 0.0001651763671)
(0.00713322092 0.000284455566 -0.0001121862187)
(0.007056030216 -0.000809050847 -0.000175961411)
(0.005214114205 -0.0002316888644 0.0002923126372)
(0.007589260927 -0.0002217820768 0.0007805502178)
(0.003456535355 0.0003930494725 0.0002885131496)
(0.007696641189 -0.0004551312047 -0.0002489259874)
(0.009731015951 -0.0003057085479 0.0004136408397)
(0.01000265002 -0.0006049433023 -0.000562408939)
(0.006534920441 -0.0004877250615 -9.667591383e-05)
(0.006574253722 -0.0006992619029 0.0002891547793)
(0.005576745326 1.744078966e-05 -0.000922565002)
(0.002310523743 -4.891781537e-05 0.0001812833344)
(0.00849418203 -0.0004056658739 0.00114733933)
(0.006783731072 -5.442338778e-06 0.0001219812662)
(0.008512118708 0.0007177646671 8.824101807e-05)
(0.009042750629 6.63905118e-05 -0.0007471828847)
(0.003642195513 -0.0001648717781 -8.851394784e-05)
(0.01084991999 0.002173140989 0.0009004136425)
(0.005566952475 0.001283713464 -0.0002341539763)
(0.009067310537 0.0002889753647 -0.0004142607469)
(0.00533835854 0.0009541030328 7.454347278e-05)
(0.007942031581 0.0001140517449 -0.0002846683334)
(0.008921363734 0.0001938683013 2.87097091e-05)
(0.008430830872 0.0009345514918 0.0007830957969)
(0.005320351291 7.661989597e-05 -0.0008534603848)
(0.008317003465 -0.000529243352 -0.0004731398452)
(0.006812222581 0.0001843542199 0.0006307438253)
(0.01296190303 -0.0002545727694 -0.0004386346432)
(0.006016811539 -0.000198027135 -0.0003517208294)
(0.008361585778 -0.0007097806697 -0.001128524357)
(0.005409178255 -9.472444783e-05 0.0007856014164)
(0.005404564894 -0.0001212352514 0.0004883289318)
(0.006530388633 -0.0001513819679 9.992597876e-05)
(0.01353213806 -0.0003406054966 -0.0009016155238)
(0.009138676227 0.0002318844834 8.293536345e-05)
(0.007119383717 -0.0003183858704 -0.0003136681092)
(0.005037346934 -0.0008448070737 -6.260657519e-05)
(0.003148505552 -0.0001719118549 -1.812537438e-05)
(0.01256107992 0.0007701288341 0.000646748664)
(0.006209003071 -0.0001124971057 0.0005105103776)
(0.007009194735 -0.000591786836 0.0005568828702)
(0.007537816196 0.0006812236879 -0.0008078235427)
(0.01073441598 -0.0006942667669 -0.0007278575103)
(0.0134736893 0.002247319791 -4.795048268e-05)
(0.00645542449 0.0002367788385 -0.0001133313085)
(0.0137597733 0.0006670225734 0.0009192115209)
(0.005270269704 0.0004684054167 0.0006078267842)
(0.004311280497 0.0008302933384 -0.0006692157821)
(0.008210673117 0.001426232673 -0.0002645641384)
(0.01271365859 0.0003071696369 -0.0001926809415)
(0.007930714262 -0.0008233938127 0.001130725845)
(0.01121041385 -0.0005670080779 0.0002954326361)
(0.007864997672 -0.0003429213617 0.0001983012999)
(0.007722455111 0.0007321861821 0.0006155638659)
(0.007658116073 -0.0003176191134 5.880728762e-05)
(0.01147395801 -0.0002519246794 -0.0005541553421)
(0.006618749467 -4.587096818e-06 0.0001984633394)
(0.01066808015 0.0004309467986 -7.111682713e-05)
(0.00742662878 0.0001931667098 -0.0008781526728)
(0.005061944185 -0.0003076205025 -0.0001957421644)
(0.004815700594 1.33948123e-05 -0.000173958824)
(0.008055724013 0.0004331763688 -0.0003639665696)
(0.009448896905 -0.0002368508726 0.000489645201)
(0.005267160523 -9.537739961e-05 -0.0007422677472)
(0.01128143221 5.685157397e-05 -0.0001849818063)
(0.009177271464 -7.498082489e-05 0.0004665830079)
(0.00981891545 0.0004630909843 -0.0009338410489)
(0.005642826492 9.500419696e-05 0.0001329866343)
(0.01276587133 -1.775789336e-05 0.001059547061)
(0.0121406024 0.0001303962438 0.0001907969115)
(0.00582097897 0.0003567871113 -0.0003767030629)
(0.008538349228 0.0004826890511 -0.0003026090982)
(0.004455020428 -0.0001338568734 0.0004487524541)
(0.01181714713 0.001443485544 0.0003718021051)
(0.006754454005 -4.717402073e-05 0.0003669701351)
(0.01164069394 0.0008449291498 7.757841794e-05)
(0.006308499226 -0.0005940469936 -0.0007316944105)
(0.003773651916 -3.577553568e-05 -0.0008037066022)
(0.01056336134 0.001091595812 0.0003868652572)
(0.008323418409 0.001391078937 -0.0003490482152)
(0.008875850407 0.001736680576 -0.0002968038326)
(0.0128783896 0.0009238134641 -0.0001522134488)
(0.008036942415 2.261583245e-05 6.392116219e-06)
(0.009130447757 0.000391326806 0.0003196017386)
(0.00582639644 0.0007123248408 -0.0002052024153)
(0.004632299777 -0.0005003451046 -0.000306572974)
(0.00818445403 -0.0009661891485 -0.0001144129914)
(0.007153121703 0.0002329763645 0.0001195687354)
(0.007291820513 -8.376063503e-06 0.000106893264)
(0.01106395118 -0.001071122087 -0.0003913170326)
(0.006859040824 -7.499712729e-05 -0.0001912734219)
(0.008594338818 0.0005874769531 0.0005665149717)
(0.01413537016 0.0001772995913 0.0001382297817)
(0.007276948039 0.0002206285132 -0.000114777721)
(0.01326241006 -0.0003656422575 0.0003865056501)
(0.007243238788 0.0001138422031 -0.0002373080042)
(0.007241426252 -0.001176541966 -0.0003632749272)
(0.004662567524 -0.0003471605033 -0.0006588249104)
(0.007224639287 -0.0001643766221 0.000705317346)
(0.006611139393 -4.683411372e-05 -0.0001300560217)
(0.005560218387 9.436989692e-05 0.0003772981445)
(0.01143131791 4.281210538e-05 -0.0002497209148)
(0.01173580003 -0.0003489348591 -0.0008076034631)
(0.01102898213 0.0004495008622 0.0001284699398)
(0.01135476121 0.001042858943 0.0001307782129)
(0.005759224283 0.0001483497329 0.0003958791124)
(0.01767465354 6.412913233e-05 -0.000413118784)
(0.008285567822 0.0006260687686 -0.0004264829296)
(0.007928327513 0.0008956941388 -0.001002854621)
(0.01187560032 -9.938263597e-05 0.0002375114191)
(0.008176960952 0.0007130289838 -0.0002134523212)
(0.008363594954 0.0002065340634 -9.332548222e-05)
(0.011558052 0.0003282249261 -0.0005410454665)
(0.007697338431 -7.30899501e-05 2.335742302e-05)
(0.008631483744 0.0004004371638 -0.0001947527891)
(0.005318001911 0.0001721616704 -0.0003345803022)
(0.01226551852 -0.0006398519302 0.0004152376917)
(0.006412976316 -0.0005333836683 0.0001110568679)
(0.01012727449 -0.000542244856 -0.0001760605284)
(0.006756140539 -0.0005312648637 0.0003273411956)
(0.01171763002 0.0002496272334 -0.000186558732)
(0.007820227461 0.0003586913694 0.0007562010197)
(0.008207995851 -5.708758147e-05 0.0006297268152)
(0.005319318832 -0.0001543659941 -0.0002471938461)
(0.007340271914 0.000690845061 0.000187959184)
(0.01026926171 -0.0003640389468 -0.00105564102)
(0.01278541666 0.0001733305953 -6.649718162e-05)
(0.01154792084 6.09686533e-05 0.0001138096256)
(0.006182851442 -0.0003681667216 -0.0003668462946)
(0.006600741089 0.0005053142826 -0.0003007103309)
(0.007457964736 -4.982182102e-05 0.0001297895819)
(0.009023885067 -0.0007820035359 -0.0003219294627)
(0.0102295055 -0.0005992510321 -1.777698076e-05)
(0.006659242617 -1.99782411e-05 -0.0001416496401)
(0.008404846518 0.0004292261919 -0.0003190480869)
(0.01028650313 0.000865258204 -0.0001734337647)
(0.01852345006 -0.0005991557849 0.0002984625946)
(0.01371568552 0.0008621186265 0.0005409792172)
(0.008615858728 0.0005419567804 0.0007440976071)
(0.01012994558 0.0005869278185 -0.001627773848)
(0.007585554553 0.0006744441018 0.0004331330322)
(0.008784219217 0.0001199604819 -0.0003850165948)
(0.003554177221 -0.0003243517387 0.0004992196732)
(0.01174235577 -0.0003074155895 0.0002190991652)
(0.007425965227 0.0003530469677 5.475004842e-05)
(0.01030535669 -0.0002709341643 0.0007668237404)
(0.01512413805 0.000501471975 -0.0007452721926)
(0.004826098329 6.217032475e-05 4.242031403e-05)
(0.007108630075 0.0007545162767 3.259870027e-06)
(0.01159579362 0.0004970418576 -3.441248178e-05)
(0.004457281978 -0.0001185852425 -0.0004781575769)
(0.007732054404 -0.0003651868854 -0.0008748615686)
(0.005867065536 0.0002121154692 0.0004126445004)
(0.01331913154 0.001209557663 0.00025741998)
(0.005663995915 -7.859607822e-05 0.0005439583109)
(0.01170495361 0.0001354332924 0.0001570871951)
(0.009201977387 -0.0008060011283 -0.0002155680278)
(0.005690007109 -3.84844037e-05 -0.00129601073)
(0.003268966991 -0.0001789035618 -0.0004494702849)
(0.006412402369 3.302747916e-06 0.0003344858928)
(0.004039575963 0.0003493398991 0.0003258589147)
(0.01057334225 0.0002528323152 0.0002822314562)
(0.006368513831 0.0004410052863 -0.0001162607152)
(0.01399650367 8.14132815e-05 0.001175592318)
(0.005359407705 0.0002819230732 -0.0004317757621)
(0.004918704481 0.0005743149956 0.0006918701334)
(0.007464987113 0.0002379277532 4.896730455e-05)
(0.009374502079 0.0006343405753 -0.0005538913289)
(0.004500459818 0.000274071855 -0.0002633354086)
(0.006141516036 8.351604067e-06 0.0004010889583)
(0.008168286306 0.0007547375161 -2.366573556e-05)
(0.004804196358 -0.0007986739745 -0.0002806037594)
(0.008681241878 -0.0002789705892 -0.0002947091734)
(0.008069807857 0.0007200021472 -0.0003268502679)
(0.00904850254 0.0005340369658 -0.0003893108889)
(0.008588773388 0.0004208006976 -0.0001951954466)
(0.007599336599 0.0002975836984 7.811800339e-06)
(0.01182609018 0.0007629475996 -0.000609284509)
(0.004057833644 0.0004201803774 0.0005788853469)
(0.01309026617 -0.0001444127041 0.0002296691287)
(0.00395330673 -0.0005413686006 -0.0005055768929)
(0.007412578603 0.0008084404573 -0.0002751388295)
(0.01218925794 0.0001043874642 0.001324369299)
(0.008063254758 -0.0009319215266 -0.0003083723378)
(0.006501572414 -5.422221236e-05 -0.0004787871166)
(0.01087177002 -0.0005013769196 0.0007131849662)
(0.01151369354 0.0003786473969 -0.0001987168855)
(0.005910004755 -0.0001679837485 -0.000348133827)
(0.006342653947 0.0009584244146 0.0004969323741)
(0.009978065541 7.613044198e-05 -6.807637515e-06)
(0.005761625611 -0.0002697839297 0.0008702433213)
(0.01317859715 0.002074825281 0.000380988359)
(0.005941823749 0.0008192427064 -7.573973756e-05)
(0.008720608557 -1.763833837e-05 0.0008226123542)
(0.008826420353 0.0009419727991 -0.0008559958538)
(0.008206921609 -0.001311017616 -0.0001404401484)
(0.0062846705 -8.876816392e-06 0.000146378158)
(0.002324025938 -0.0002342418 -0.0002341583429)
(0.00847062797 -0.0003366086494 -0.0004528766781)
(0.007227775642 6.0898172e-05 -0.000715862741)
(0.01167913407 0.001851498485 -0.0004379667016)
(0.006698701803 0.0002990321033 0.0002186331757)
(0.005750125364 -3.000555072e-05 0.0006881995025)
(0.008376728163 0.0004301117877 0.0001301205318)
(0.009344665307 2.097830263e-05 0.0004648196581)
(0.01047243936 -0.0006624634202 -0.0001150331)
(0.007940676984 -0.0006275180484 0.0002864332074)
(0.008914773175 0.0003713415562 0.0005581778252)
(0.01060861694 0.0006244399073 -0.000287570909)
(0.01087448716 0.0003234287636 0.0003249835887)
(0.008943561109 -0.0005463877281 -0.0002957107357)
(0.01171099831 -0.0005415641891 -6.360020045e-05)
(0.008923992708 -0.0002055948908 -2.806977044e-05)
(0.01388523107 -0.0002189995335 0.0006630184599)
(0.006056245241 2.535433887e-05 0.0001788703652)
(0.0110882974 0.0004300540849 5.089287268e-05)
(0.006749914195 -0.000570423337 7.43507398e-05)
(0.01012296865 -0.0005366886313 0.0003521252615)
(0.009877125526 -0.0005972872555 -0.0001201404337)
(0.006398634043 0.0001915878144 0.0002727922681)
(0.006590360227 -0.0001629124326 0.0005944651135)
(0.01384144001 -0.0004497112439 -0.0003119479655)
(0.01074703166 0.0005786487598 -0.0008577698726)
(0.01198186007 0.001054023862 4.15606275e-05)
(0.008491484219 1.221607935e-05 0.0003828696793)
(0.007954418642 -0.0002867884438 0.0008562883853)
(0.009078662747 -0.0005919528574 -0.0003386080787)
(0.01102242631 0.00124651481 -0.0009253503778)
(0.01020374715 0.0007733108655 3.914141105e-05)
(0.01056195913 0.0005876908176 -9.302018965e-05)
(0.007066586142 0.001428969086 0.0004547209598)
(0.01176567712 0.0001147358489 0.0003330303605)
(0.009229236668 0.0006161549764 -9.263655148e-06)
(0.008275838473 0.0004629741488 -0.00047557804)
(0.005633921562 4.34171975e-06 -0.0004657757026)
(0.005443395241 -1.347743566e-05 -0.000453654995)
(0.006840577036 -0.0005079218994 0.0006554193895)
(0.002367839953 0.000169366307 7.284955738e-05)
(0.005615973122 0.0002136624659 -0.0006197186336)
(0.01251393463 -0.0005984007798 0.0008339077136)
(0.009162109639 0.000354393157 0.0001843011819)
(0.007585809032 -0.0003061855016 -0.000665324526)
(0.009906534604 9.412284885e-05 0.0001945698078)
(0.009934651614 0.0002049366853 0.0001539667013)
(0.008915481184 0.0005544646885 -0.0008874250124)
(0.008713177026 -0.0005199722044 -0.0002343899466)
(0.004578698984 2.957752775e-05 -7.32097338e-05)
(0.00474941135 0.0001241771595 2.946619727e-05)
(0.01142896739 0.0007984207534 0.0008304208833)
(0.006544034282 0.0001375362098 8.726160675e-05)
(0.00577110335 0.0002681295355 -0.0002499032274)
(0.005433727456 0.001114308258 0.0009377001118)
(0.009480101902 -0.0001867564161 -0.0003318025466)
(0.007563963134 0.0003404393694 0.0004099184263)
(0.006537065644 -0.0001923469861 -0.0002505081262)
(0.006887522206 0.000650771665 -0.0002559347233)
(0.01153369151 0.0004740794147 0.0007345316002)
(0.004854967304 -0.0001458835947 0.0002460658795)
(0.006265683964 0.0001079353317 0.0002787750655)
(0.004916395608 0.0004034316951 -0.0002594899234)
(0.009256170826 0.0008722798504 -0.001482371594)
(0.005076774505 0.0004054457081 5.15226454e-05)
(0.008848910633 4.311862738e-05 0.0002365383061)