/*--------------------------------*- C++ -*----------------------------------*\
| =========                 |                                                 |
| \\      /  F ield         | OpenFOAM: The Open Source CFD Toolbox           |
|  \\    /   O peration     | Version:  2406                                  |
|   \\  /    A nd           | Website:  www.openfoam.com                      |
|    \\/     M anipulation  |                                                 |
\*---------------------------------------------------------------------------*/
FoamFile
{
    version     2.0;
    format      ascii;
    arch        "LSB;label=32;scalar=64";
    class       volVectorField;
    location    "0.012";
    object      momentumMean;
}
// * * * * * * * * * * * * * * * * * * * * * * * * * * * * * * * * * * * * * //

dimensions      [1 -2 -1 0 0 0 0];

internalField   nonuniform List<vector> 
654
(
(0.0152902722 0.004852047822 2.124837542e-05)
(0.01580837333 0.005147731305 -1.007136233e-05)
(0.01595740045 0.005233230123 4.828332086e-06)
(0.0158847561 0.005155268153 1.668081071e-05)
(0.01585102024 0.005091439974 2.310442857e-05)
(0.0158537794 0.005068846688 4.307313313e-06)
(0.01357104197 0.003631789656 1.656768936e-05)
(0.01405921344 0.003894741099 3.940602982e-06)
(0.0145858322 0.004242634856 -2.502069164e-05)
(0.01499777363 0.004513117701 -4.155375108e-05)
(0.0153614158 0.004789978793 -5.869502283e-06)
(0.01569050538 0.004987906433 -2.892159344e-05)
(0.01586328716 0.005053826798 -2.048839494e-05)
(0.01593954148 0.0051340175 -1.323463203e-05)
(0.0161131722 0.005232328123 -1.422353683e-05)
(0.01608863887 0.005188003926 3.892225428e-07)
(0.01602129754 0.005114649501 2.490321172e-05)
(0.01056947163 0.001614061758 4.103266655e-06)
(0.01103047589 0.001892226229 -1.351559388e-05)
(0.01140987041 0.002173729535 9.214825164e-06)
(0.01187979605 0.002479477492 -3.219026956e-05)
(0.01236688645 0.002802687815 -2.191424999e-05)
(0.01291771438 0.003152437335 -2.723743622e-05)
(0.01343380166 0.00345155066 -1.107716092e-05)
(0.01382581041 0.003742019496 -3.75355811e-05)
(0.01438949489 0.004098345324 -5.237499831e-05)
(0.01486835082 0.004367209118 -9.038258839e-06)
(0.01529310596 0.00467242866 1.106881088e-05)
(0.01561956466 0.004929243778 -1.440414964e-05)
(0.01581871605 0.005014000738 -8.963038399e-06)
(0.01596981953 0.005060841233 -1.493129177e-05)
(0.01609341025 0.005165952434 -5.494596909e-05)
(0.01613174977 0.005122502446 -1.807270889e-05)
(0.008860912644 0.0004413266725 2.868058677e-06)
(0.009002413837 0.0005127730756 -2.775441284e-06)
(0.009054694021 0.0006349575817 8.796426997e-06)
(0.009266657621 0.0007620811416 3.29971188e-05)
(0.009495318667 0.0009139300399 2.110396753e-05)
(0.009754744554 0.001067733323 -1.173734491e-05)
(0.009998918218 0.00121848122 -1.137343841e-05)
(0.01034658351 0.00147052542 -1.395147805e-05)
(0.01078177479 0.001728498437 -1.316644981e-05)
(0.01123050611 0.002026590733 -8.794796025e-06)
(0.01169596955 0.002311762623 -3.813754914e-05)
(0.0121665009 0.002606206369 -4.788793777e-06)
(0.0126770874 0.002962685003 -7.010738515e-06)
(0.01322090118 0.003271539788 2.090348891e-05)
(0.0136649615 0.003586979419 4.704980144e-06)
(0.01417050227 0.003931546139 -2.78216369e-05)
(0.01466044777 0.004240128677 -3.395690078e-05)
(0.01512229679 0.004572442413 -2.65125494e-05)
(0.01555505052 0.00478723187 1.515136749e-05)
(0.01584145766 0.004968919 2.212989914e-05)
(0.01600224635 0.005056919784 -3.560518792e-06)
(0.01619221419 0.005092324987 6.566127394e-07)
(0.00843217764 8.310957358e-05 1.400268243e-05)
(0.008438427918 0.0001026951075 1.712457907e-05)
(0.008444041299 0.000134727231 1.853795264e-05)
(0.008512401978 0.0001591830991 9.757376763e-06)
(0.008582817943 0.0001997406455 5.443244796e-06)
(0.008612819175 0.0002361628077 1.091697762e-05)
(0.008673645001 0.0002899198309 1.718896929e-05)
(0.008726341514 0.0003358598833 1.2331577e-05)
(0.008889076208 0.0004040563163 6.301957957e-08)
(0.009058196778 0.0004925579818 -9.947799499e-06)
(0.009184585438 0.0005700196966 -2.212236404e-05)
(0.009360303283 0.000703332401 -1.456415706e-05)
(0.009593354978 0.000842842199 -5.268421147e-06)
(0.009834316956 0.001003347701 -1.042008236e-05)
(0.01004705682 0.001177128996 -1.312369672e-05)
(0.01030666365 0.001367236815 -1.116022952e-05)
(0.01069902332 0.001575920754 -1.235992747e-05)
(0.0110990543 0.001880674163 -1.60376201e-05)
(0.01152797864 0.002146999796 -4.982131786e-06)
(0.01200415671 0.002469932093 -1.534801184e-06)
(0.012533916 0.002812905984 -2.203374716e-05)
(0.01305464804 0.003131634877 2.883125844e-06)
(0.01355472722 0.003453578019 1.017412302e-05)
(0.0140864318 0.003802162218 -9.437660992e-06)
(0.01459785882 0.004100770383 -4.979453132e-06)
(0.01511173121 0.004407507341 -4.883609412e-06)
(0.01549329635 0.004664764755 -1.935219159e-05)
(0.01588296263 0.004839570037 2.411470699e-05)
(0.01609912243 0.005031202431 6.660748585e-06)
(0.008411103142 5.7092367e-05 -4.101013215e-06)
(0.008425724508 7.455212381e-05 -2.70789534e-06)
(0.008450953087 8.739642034e-05 1.292969816e-05)
(0.008521266992 9.047312431e-05 1.082563222e-06)
(0.008538398542 0.0001137506232 5.608270224e-07)
(0.008540170097 0.0001498350496 1.308119413e-06)
(0.008598473653 0.0001966184277 4.298884739e-06)
(0.008684968211 0.0002348339556 -3.294648073e-06)
(0.008767616471 0.0002671594944 -1.684043882e-05)
(0.008803034809 0.0003057792653 -1.166859188e-05)
(0.008848374446 0.0003535945039 -8.306953488e-06)
(0.008973578208 0.0004514693406 -2.363775295e-06)
(0.009072376499 0.0005228140446 5.145487935e-06)
(0.009261447829 0.0006336478235 1.357950821e-05)
(0.009443998933 0.0007631378113 2.313039498e-05)
(0.009704440305 0.000898761199 1.727929928e-05)
(0.009953613597 0.001085902133 6.348742433e-06)
(0.01021927608 0.001288860185 7.083589444e-06)
(0.01054155424 0.001492747136 -6.266559056e-06)
(0.01086809729 0.001752937154 -1.863320607e-05)
(0.01134142928 0.002007502437 -2.715910536e-05)
(0.0117656994 0.00230320865 -2.491966405e-05)
(0.01227793988 0.002637089613 -1.989506589e-05)
(0.01278786451 0.002961401953 2.333728871e-05)
(0.01335449734 0.003287300944 9.328719287e-06)
(0.01391891494 0.003663296476 -1.0086191e-05)
(0.01434044201 0.003947790339 -8.05112058e-07)
(0.01484388542 0.004255643473 -1.240675295e-05)
(0.01525594322 0.004520577162 -2.16964191e-05)
(0.01563289051 0.004736069638 -1.046163958e-05)
(0.008388534039 3.858441036e-05 4.374112417e-06)
(0.008383508808 3.580788038e-05 -5.956458711e-06)
(0.008395779133 6.410501445e-05 -3.623091457e-06)
(0.008402399618 7.246007388e-05 -8.643992468e-07)
(0.008436500568 8.975749481e-05 -8.998349104e-06)
(0.008482341732 0.0001065049278 -1.964187366e-06)
(0.008549345751 0.0001168646443 1.578538819e-06)
(0.008608380329 0.0001491031157 -2.435333712e-06)
(0.008629945316 0.0001923532145 2.176514399e-06)
(0.008729564285 0.0002555135675 -4.835505202e-06)
(0.008796917823 0.0002977480606 -1.893041682e-05)
(0.008854803531 0.0003446090701 -2.062874297e-05)
(0.008950528475 0.0004163942591 -1.970081992e-05)
(0.009051817051 0.0004957545424 -2.254133523e-05)
(0.009165025395 0.0005993176549 -2.903109885e-05)
(0.009328542845 0.0006953671862 -2.682975786e-05)
(0.009486911103 0.0008397812431 -1.618767541e-06)
(0.009675195076 0.0009908892304 1.602941267e-06)
(0.00997886755 0.001184736674 2.02657471e-05)
(0.01029213336 0.001372610724 1.594439351e-05)
(0.01060093206 0.00159547241 1.28153459e-05)
(0.01104271548 0.001870984317 -2.972774583e-06)
(0.011545257 0.00214463458 -2.866708777e-05)
(0.01206388732 0.002445618086 -2.287085075e-05)
(0.01261853141 0.002797385352 4.870633012e-06)
(0.01310058456 0.003124709978 1.685535919e-05)
(0.01370612828 0.003507027876 1.23140753e-05)
(0.01429773491 0.003830244268 -6.505727233e-06)
(0.01483856389 0.00413368891 -4.212922744e-05)
(0.01527911832 0.004391180128 -4.87924131e-05)
(0.008391045798 3.655886352e-05 4.224203448e-06)
(0.008413211191 4.003787812e-05 5.282226085e-06)
(0.008428037838 3.758288365e-05 -2.659586223e-07)
(0.008442237948 5.326173342e-05 -6.480678488e-06)
(0.008465849753 5.688629907e-05 -6.544977321e-06)
(0.008446163641 8.134781813e-05 -1.47502035e-05)
(0.00841013448 0.0001064251905 -9.670902797e-06)
(0.008445573644 0.0001194656556 -5.058815503e-06)
(0.008488110531 0.0001408937739 -7.305903572e-07)
(0.008491725052 0.0001741157187 2.679493599e-06)
(0.008488195532 0.0002054510741 3.064400839e-06)
(0.008618789681 0.0002503765655 -9.251922904e-06)
(0.008726014869 0.0002964971979 -3.377848638e-06)
(0.008820345131 0.0003691707551 -1.578031435e-05)
(0.008919432679 0.0004584468624 -1.243522456e-05)
(0.009099001865 0.0005664552326 -1.354856897e-05)
(0.009261776176 0.0006548438111 -1.496014762e-05)
(0.009504683578 0.000792843502 -1.694238901e-05)
(0.00963753212 0.0009228303296 -2.073168833e-05)
(0.009906356736 0.001101229621 -1.30322385e-05)
(0.01026337656 0.001300875843 -1.720276993e-05)
(0.0105814783 0.001520235185 -6.277302985e-06)
(0.01090194726 0.001694324866 -5.303129633e-06)
(0.01133619208 0.001998883966 -2.380019975e-05)
(0.01178862348 0.002306261997 -2.412992415e-05)
(0.01229235351 0.002613320176 -2.090168233e-05)
(0.01284949621 0.002978275962 -2.062737113e-05)
(0.01338829612 0.003323124129 8.99419513e-06)
(0.01392095383 0.00365878939 2.270176601e-05)
(0.01444107891 0.00392889283 -1.213957748e-06)
(0.008365616232 1.399069491e-05 -1.454933964e-06)
(0.008356991085 1.896575836e-05 -2.184405074e-06)
(0.008383305955 2.776775228e-05 -7.090778245e-06)
(0.008417445226 4.275766037e-05 -1.247084058e-05)
(0.008409676755 6.50916257e-05 -1.727456061e-06)
(0.008414417091 7.629476524e-05 -2.284237482e-07)
(0.008415669022 8.789796094e-05 -1.269223869e-05)
(0.00844268736 0.000102525577 -6.059652589e-06)
(0.008443961376 0.000118281586 -2.470319781e-06)
(0.008505280119 0.0001358585109 -8.690574045e-07)
(0.008534634092 0.0001719744137 -3.656794979e-06)
(0.00862449559 0.0002026808252 -1.201661325e-05)
(0.008632743956 0.0002409666865 -7.689767309e-06)
(0.008654791917 0.0002894035391 -3.363550755e-06)
(0.008749352373 0.0003360387685 -8.981183629e-06)
(0.008853868181 0.0003983625945 -1.692167348e-05)
(0.008928325838 0.0004927589346 -1.562766866e-05)
(0.009085917691 0.0006060234503 -1.88257033e-05)
(0.009324220691 0.0007198774567 -2.337326011e-05)
(0.009554791579 0.0008540686991 -2.413245858e-05)
(0.009800070261 0.0009975408517 -1.597517757e-05)
(0.01011372504 0.001202338409 -1.122346532e-05)
(0.01039776031 0.001420623498 -2.280196105e-05)
(0.01071066792 0.001612446634 -1.850345581e-05)
(0.0111497016 0.001877341802 -2.127154778e-06)
(0.01164787392 0.002212162531 -2.611944915e-05)
(0.01214144399 0.002484224985 -2.016603692e-05)
(0.012670796 0.002809722484 -1.357508521e-05)
(0.01326913083 0.003157949237 2.460423221e-06)
(0.01386436251 0.003516142584 -3.171619281e-06)
(0.00833002146 -1.258462276e-07 -2.52320657e-06)
(0.00833687048 2.0706333e-06 -1.265725866e-06)
(0.008308961347 2.129429526e-05 2.585762022e-06)
(0.008286335533 3.269116252e-05 4.375147187e-06)
(0.008324807224 4.374618039e-05 6.263420112e-06)
(0.008357212636 5.425796046e-05 6.535710378e-06)
(0.008422756831 5.901897521e-05 1.274967772e-05)
(0.008453634116 8.466004977e-05 -2.766082304e-06)
(0.008493575743 9.410918561e-05 -6.0328488e-06)
(0.008472683149 0.0001051928008 -4.783478965e-06)
(0.008547812004 0.0001385893517 -1.858588712e-06)
(0.008528187962 0.0001761687714 3.188642976e-06)
(0.008557995765 0.0001933940043 -7.204748614e-06)
(0.008620767466 0.0002293068507 -1.725559793e-05)
(0.008681856088 0.0002811456377 -1.716328438e-05)
(0.008759709585 0.0003205674474 -2.220450417e-05)
(0.008899491648 0.0003834416605 -1.911242973e-05)
(0.009078808821 0.0004557246833 -6.444315199e-06)
(0.009224899096 0.0005440907179 6.687199148e-07)
(0.009337356851 0.0006654772478 -1.980309839e-05)
(0.00952913313 0.000810142635 -1.116928915e-05)
(0.009785914881 0.0009382146785 -1.902443131e-05)
(0.01014793637 0.001151658405 -7.344415104e-06)
(0.01045773296 0.0013060116 -1.865561775e-06)
(0.01079284306 0.001527950277 -1.767841715e-05)
(0.01122866793 0.0017772165 -6.136917267e-06)
(0.01167722792 0.002087616852 -7.599188629e-06)
(0.01211451064 0.002392319266 4.112237798e-06)
(0.012574517 0.002718562363 1.567056999e-06)
(0.01307712886 0.003034816915 8.810028444e-06)
(0.008302683545 1.43307945e-05 5.0098815e-06)
(0.008295159105 1.344540008e-05 -3.519954173e-06)
(0.008327097102 1.347072513e-05 -9.091063011e-06)
(0.008335120628 1.058388495e-05 -7.818642983e-06)
(0.008344047827 1.799245696e-05 -1.205910633e-05)
(0.008346271358 2.474731822e-05 -1.310768956e-05)
(0.008346917368 3.594205024e-05 -8.539876249e-06)
(0.008341667749 4.571306444e-05 -2.691694789e-06)
(0.008374025466 6.937507112e-05 -8.439015047e-06)
(0.00841258281 8.49342216e-05 -1.147853465e-05)
(0.008437409937 0.0001035474062 -1.053221829e-05)
(0.008454159656 0.0001285958051 -6.341191736e-06)
(0.008506435056 0.0001683736468 8.835053031e-06)
(0.008595166816 0.0001873028008 1.124393661e-05)
(0.008606535674 0.0002108598583 4.839315594e-06)
(0.008669457187 0.0002429948854 4.678014897e-06)
(0.008698277613 0.0002826281323 1.171104072e-05)
(0.008804407697 0.0003430077791 -1.513732283e-05)
(0.008955368866 0.0004084017572 -1.258326521e-05)
(0.00913482318 0.0004934885548 -5.198101073e-06)
(0.009310952415 0.0005829619414 -9.999965065e-06)
(0.009565446398 0.0007213684901 -2.0134805e-05)
(0.009756027131 0.0008651889972 -1.782723869e-05)
(0.01007084212 0.001047081452 -2.669278615e-05)
(0.01034919077 0.001219733534 -2.373778058e-05)
(0.01064542982 0.001459839867 -2.231400484e-05)
(0.01104268269 0.001706451206 -2.0514518e-05)
(0.01144438942 0.001988180692 8.734456196e-06)
(0.01193651535 0.002275389126 -2.63961229e-06)
(0.01253093893 0.002584791462 -2.092165543e-05)
(0.008432486576 2.367429658e-05 -2.359739267e-05)
(0.00843121686 2.65461114e-05 -1.724577841e-05)
(0.00838409204 2.271058336e-05 -1.552770956e-05)
(0.008379427696 2.120085672e-05 -6.946418038e-06)
(0.008351918261 3.046604584e-05 -5.562641659e-06)
(0.008386470399 4.164564205e-05 -1.120206408e-06)
(0.00837177903 3.894795836e-05 -8.368521276e-06)
(0.008360774167 4.266950778e-05 -7.183865296e-06)
(0.008370894528 5.010098823e-05 -1.035763343e-05)
(0.008369299448 6.544030562e-05 -2.695845315e-06)
(0.008419784324 8.168199078e-05 4.298709543e-06)
(0.008458419779 9.996250682e-05 -9.958484814e-06)
(0.008488830972 0.000110562201 -1.132033206e-05)
(0.008499268632 0.0001197531562 -8.225044195e-06)
(0.008583346555 0.000154559098 -1.35655451e-05)
(0.008693413575 0.000188139038 -1.528454613e-05)
(0.008756147333 0.0002248799636 -2.049858887e-05)
(0.008801929513 0.0002607999298 8.238918954e-06)
(0.008880284699 0.000318793652 -1.388291624e-05)
(0.008906909404 0.0003869425199 -1.271874943e-06)
(0.009060191455 0.0004563106457 -4.145603575e-06)
(0.009143431885 0.0005369970391 -1.025082116e-06)
(0.009317888221 0.0006655834192 -2.403825073e-06)
(0.009558616622 0.0008164935838 -1.00893086e-05)
(0.009807572333 0.0009646538164 -1.616155586e-05)
(0.01009959195 0.001141104803 -1.283807634e-05)
(0.01045390425 0.001368669673 -2.05257942e-05)
(0.01088195588 0.001603380549 -3.252504444e-05)
(0.01138955082 0.001860963757 -3.456206931e-05)
(0.01184723861 0.002131670332 -2.821607811e-05)
(0.008268668119 3.300564045e-06 3.306329064e-07)
(0.008318988741 1.382164362e-05 1.413940972e-06)
(0.00833153626 2.164501914e-05 -5.30482374e-06)
(0.00833650465 2.714418988e-05 -1.606965105e-05)
(0.008311734919 2.256233644e-05 -1.374197009e-05)
(0.008331451122 2.069324799e-05 -1.056371062e-05)
(0.008316797779 2.978191059e-05 -3.010578471e-06)
(0.008332170243 3.996105823e-05 -1.112377e-05)
(0.008331578351 5.219183878e-05 -4.051343451e-06)
(0.008367278941 4.973862212e-05 -8.324711929e-07)
(0.008377853817 5.192779426e-05 -3.908165656e-06)
(0.00839412594 5.675816558e-05 7.91537268e-07)
(0.008468347093 7.096292407e-05 -1.918563386e-06)
(0.008497840286 9.446612353e-05 1.866235923e-05)
(0.008497047521 0.0001264090329 1.921729767e-05)
(0.00857254509 0.0001464488115 1.303791237e-05)
(0.008597078503 0.0001635555131 6.778822664e-06)
(0.008666199066 0.0001908745003 -1.94570619e-06)
(0.008714397318 0.0002431049941 -9.688149519e-06)
(0.008822726765 0.0002939089732 -9.599546735e-06)
(0.008890781068 0.0003688395129 -1.516448902e-05)
(0.009017492299 0.0004348551875 -5.429431682e-06)
(0.0091215016 0.0005207203737 -9.14904144e-06)
(0.009265123922 0.0006319379733 -1.098199291e-05)
(0.009491480805 0.0007487528176 -7.659094017e-06)
(0.009761923043 0.0008812140736 -1.896283843e-05)
(0.01001964267 0.001052243591 -1.046461587e-05)
(0.01039635785 0.0012669662 -4.113181437e-05)
(0.01072589646 0.001491384091 -2.965142926e-05)
(0.0111645707 0.001775750375 -1.307992478e-05)
(0.008274881563 -2.761414376e-06 -1.042929908e-05)
(0.008273221858 -2.531445267e-08 -1.231725982e-05)
(0.008276776337 7.298997036e-06 -6.913281353e-06)
(0.008284276722 1.008221323e-05 -1.576989509e-06)
(0.008293764079 2.336111535e-05 2.5789124e-06)
(0.008267145356 2.624408722e-05 -8.597036964e-07)
(0.008323642633 3.061556422e-05 -1.740971039e-06)
(0.008322699111 2.323373822e-05 5.877936897e-06)
(0.008355214086 2.14758504e-05 9.392692871e-06)
(0.008414017285 3.206408179e-05 -2.408572226e-07)
(0.008383347019 4.474117068e-05 -4.126021815e-06)
(0.008405394378 5.268031988e-05 1.923181051e-06)
(0.008424678861 4.571906534e-05 5.771892722e-07)
(0.008464086925 4.935001689e-05 -1.729681218e-05)
(0.008527647819 6.743000964e-05 -1.615072339e-05)
(0.008554542354 0.0001121323681 -2.478543636e-05)
(0.008558241222 0.0001384509305 -1.643447892e-05)
(0.00857833748 0.000170971294 -1.021181786e-05)
(0.008577382793 0.000198526492 -1.396292788e-05)
(0.008673552436 0.0002266881175 -1.609608088e-05)
(0.008743983819 0.0002585017679 -1.38975635e-05)
(0.00886475849 0.0003333692444 -2.110802861e-05)
(0.008994104349 0.0004090983073 -1.519587363e-05)
(0.009131566121 0.000473171568 -4.718156346e-06)
(0.009262008419 0.0005770224465 5.879322818e-06)
(0.009484340134 0.000693435301 1.216999926e-05)
(0.009725523803 0.000846723256 1.466006679e-05)
(0.009941624463 0.001009081903 2.304262166e-05)
(0.01027653782 0.001192372798 1.341651341e-05)
(0.0106477349 0.001410342148 1.744657805e-06)
(0.008237958412 5.061812965e-06 3.187351187e-07)
(0.008222310334 -2.588687465e-06 2.347625072e-06)
(0.008216893265 -4.526696771e-06 2.218581506e-06)
(0.008255098585 1.836633717e-06 -2.460887625e-06)
(0.008265350987 -4.3743375e-06 5.998599769e-07)
(0.008340857479 8.042341462e-07 -2.734666829e-06)
(0.00837043442 2.707069792e-06 -4.092730577e-07)
(0.008381990758 1.267734876e-05 -7.689850725e-06)
(0.008366586912 1.532570066e-05 -1.77610142e-05)
(0.008354246733 1.883111953e-05 -2.656426254e-05)
(0.008396527432 1.916861136e-05 -1.758844606e-05)
(0.008434642372 2.51814282e-05 -1.906412891e-05)
(0.008419089907 5.389880563e-05 -1.876001088e-05)
(0.008422164982 6.228561083e-05 -1.201072994e-05)
(0.008371976371 7.294534929e-05 -3.374867001e-06)
(0.008412091599 7.170328133e-05 -5.456110859e-06)
(0.008423785683 8.821331415e-05 -1.005449636e-06)
(0.008425797078 0.0001186386455 -1.171423535e-05)
(0.008493873774 0.0001476194963 -9.741839638e-07)
(0.008544164285 0.0001897490825 1.096791666e-05)
(0.008549574672 0.0002076304738 7.569940204e-06)
(0.008617976095 0.0002431465106 6.057517803e-06)
(0.008679326277 0.0002974691385 -7.912270316e-06)
(0.008782342197 0.0003673431442 -1.102438792e-05)
(0.008946675102 0.0004161263113 -1.85885678e-05)
(0.009127911056 0.0005176356445 -1.543078564e-05)
(0.00932415413 0.0006412870196 -1.235497315e-05)
(0.009606661509 0.0007992762521 4.028786119e-06)
(0.009787290827 0.0009420089123 3.557056105e-06)
(0.01007777876 0.001134298076 4.790464151e-06)
(0.008334861775 1.204570398e-05 1.050506935e-05)
(0.008327612798 1.292804e-05 7.328805588e-06)
(0.008338500801 7.022622506e-06 7.864580492e-06)
(0.008347468519 -4.94030561e-06 -2.763989373e-06)
(0.008320853772 -7.798801055e-06 -8.715182504e-06)
(0.008347020728 -9.419159853e-06 -9.345403565e-06)
(0.00832421306 -1.277455876e-05 -1.647962916e-05)
(0.008367263749 -2.710866569e-06 -1.458943811e-05)
(0.008403407169 -4.259235733e-06 -1.348847545e-05)
(0.008403057777 1.354303837e-06 -1.278946658e-05)
(0.008354650168 2.079362934e-05 -2.19823071e-05)
(0.00834800381 3.048675675e-05 -1.851792362e-05)
(0.008344079651 3.519357829e-05 -1.14080031e-05)
(0.008349876109 5.089677531e-05 -1.81881766e-05)
(0.008339225363 7.053106016e-05 -2.106582526e-05)
(0.008337756104 9.334240751e-05 -1.157419341e-05)
(0.008354414683 9.810208628e-05 -5.400033867e-06)
(0.008402945531 0.000106558464 1.386407857e-07)
(0.008402629993 0.00010755761 -1.009787287e-06)
(0.00848669533 0.0001243212494 -1.083914332e-05)
(0.008551246089 0.00016301173 -8.616169185e-06)
(0.008629581984 0.0001934720613 3.235418707e-06)
(0.008714745533 0.0002277015789 1.271531575e-05)
(0.008807821459 0.0002939333585 1.009009305e-05)
(0.00884644665 0.0003412806055 1.32213888e-05)
(0.008908397812 0.0004071224148 4.14415271e-06)
(0.009033858781 0.0004697526049 6.212682728e-06)
(0.009232385413 0.0005758719225 8.470328713e-07)
(0.009522615632 0.0007470151926 1.187376756e-07)
(0.009753433503 0.0008810153018 -3.566523042e-06)
(0.008364752595 1.472981366e-05 -2.418569313e-05)
(0.008405153569 3.555611852e-06 -2.39425716e-05)
(0.008431715446 2.54866671e-06 -2.115755915e-05)
(0.008380630349 7.574473307e-06 -2.576037841e-05)
(0.008367331452 9.955055794e-06 -2.037399133e-05)
(0.008353518745 7.270102154e-06 -1.242280685e-05)
(0.008317670908 6.871088996e-06 -6.460872184e-06)
(0.008300181291 -7.26836769e-06 -6.698633268e-06)
(0.008266611189 2.004146198e-06 -4.853186025e-06)
(0.008250730254 5.685067441e-06 -3.549489473e-06)
(0.008247467487 1.542234902e-05 9.952424538e-07)
(0.008257766472 3.073632308e-05 -5.969596149e-07)
(0.008286007506 4.093051924e-05 1.685672809e-06)
(0.008309940096 3.73967042e-05 -2.257168012e-06)
(0.008339094098 3.997407514e-05 -1.584132043e-06)
(0.00840805242 3.956868894e-05 -2.224091359e-06)
(0.008458751934 5.504616657e-05 -4.866976507e-06)
(0.008491574604 7.438764574e-05 -8.244414783e-06)
(0.008583088201 9.51735619e-05 -3.167643309e-06)
(0.008549874098 0.0001016430711 -2.296640547e-06)
(0.008640455654 0.000125193167 -1.767902798e-07)
(0.008634089761 0.0001596877446 -1.45766365e-05)
(0.008586848009 0.0001912035503 -1.577633943e-05)
(0.008676087514 0.0002336630087 -1.72164247e-05)
(0.008753543982 0.0002881667057 -1.71203253e-05)
(0.008797911141 0.0003226930811 -1.14173154e-05)
(0.008898409893 0.0003877482311 -1.54417719e-05)
(0.009027106336 0.0004605605339 -1.264033055e-05)
(0.009124412846 0.0005554172416 -1.292910656e-05)
(0.009391664746 0.000692267239 -9.266513673e-06)
(0.008431831077 -5.826242771e-06 -1.439526528e-05)
(0.008414710751 6.025135861e-06 -7.945554667e-06)
(0.008423490412 6.216727665e-06 -1.105997161e-05)
(0.0084379503 1.241487876e-05 -9.385131943e-06)
(0.008419350402 1.736214336e-05 -9.914490096e-06)
(0.008415499645 2.343488349e-05 -1.425571193e-05)
(0.008411293051 1.89198828e-05 -1.550003258e-05)
(0.008413759272 2.457058624e-05 -1.999802609e-05)
(0.008358293918 2.756541338e-05 -5.527287309e-06)
(0.008349493662 1.611389761e-05 9.432930784e-06)
(0.008340268497 2.419419649e-05 1.163458285e-05)
(0.008365103586 1.481881177e-05 1.352378365e-05)
(0.008367429411 2.016560199e-05 1.567158987e-05)
(0.008414965066 2.931017709e-05 9.264029813e-06)
(0.008433579975 1.567351346e-05 3.948457642e-06)
(0.008384869898 2.553433294e-05 5.107944184e-06)
(0.00838732839 3.965387802e-05 4.401419721e-06)
(0.00840006699 5.355745716e-05 1.915528818e-07)
(0.008366035333 6.853448524e-05 -9.503418747e-07)
(0.008409435699 9.132691798e-05 -5.409185004e-06)
(0.00842942073 0.0001133638864 -1.172821452e-05)
(0.008437110062 0.0001292112022 -7.661454324e-06)
(0.008529398646 0.0001440732825 -1.306669076e-05)
(0.008545289066 0.000165419416 -1.071639555e-05)
(0.008682165163 0.0002160546778 -8.17298197e-06)
(0.008734180888 0.0002591916226 -1.390223394e-05)
(0.008857018611 0.0003229804076 2.473935001e-06)
(0.00894028351 0.0003767514965 2.402918392e-06)
(0.009021582175 0.0004447535399 1.395068089e-05)
(0.009158273847 0.0005493885199 8.61083302e-06)
(0.008338597303 6.849236764e-07 -2.469622607e-06)
(0.008296709561 8.917480414e-06 -4.291506111e-06)
(0.008286785842 1.653570519e-05 -4.472957452e-06)
(0.008293582265 1.234590761e-05 -4.33168277e-06)
(0.008303679391 5.801844753e-06 -7.529218046e-06)
(0.008299156315 9.325687369e-06 -8.101935581e-07)
(0.008277640159 2.133618811e-05 -4.027775875e-07)
(0.008331331622 1.90800918e-05 5.567031254e-06)
(0.008354819012 1.781316874e-05 -4.397141917e-06)
(0.00835320147 1.675973846e-05 2.302756949e-06)
(0.008410114647 1.743388378e-05 4.873003113e-06)
(0.008407095228 1.425173854e-05 1.007056224e-05)
(0.008385869222 1.318464707e-05 4.243298398e-06)
(0.008347716636 2.068978356e-05 6.852595798e-06)
(0.008334873177 2.86182146e-05 1.320779072e-05)
(0.008359610147 3.905202493e-05 1.131521858e-05)
(0.008330685737 4.109615162e-05 2.564665336e-06)
(0.008384428997 4.17473976e-05 2.264315541e-06)
(0.008368381109 5.921143706e-05 9.968406786e-06)
(0.008393946252 5.447186709e-05 1.423305601e-05)
(0.008454006964 6.181683304e-05 1.5205985e-05)
(0.008504075935 8.627187004e-05 2.572710878e-05)
(0.008515750836 0.0001177781548 2.780126726e-05)
(0.008565756159 0.0001537137672 2.110236729e-05)
(0.008566627453 0.0001764082153 2.082886256e-05)
(0.008601901233 0.0002194990452 2.783845721e-05)
(0.008653554012 0.0002390897914 1.790430461e-05)
(0.008732627213 0.0002892861375 1.718254263e-05)
(0.008884726305 0.0003539435729 3.718789871e-06)
(0.008955208043 0.0004089099848 4.71361213e-06)
(0.008301896911 5.818104791e-06 3.331808476e-06)
(0.008270195637 -2.762280534e-06 8.807563369e-07)
(0.008313610212 -2.933370469e-06 -1.014638837e-07)
(0.008291001531 -1.293053633e-06 1.3089491e-06)
(0.00831905789 6.782749116e-06 -6.825448957e-07)
(0.008315322834 1.244346563e-05 -6.153995885e-07)
(0.008329563768 9.265025692e-06 1.449597279e-06)
(0.008296335234 1.416034648e-05 -9.725715405e-07)
(0.008315852443 1.096778996e-05 -2.831109868e-06)
(0.008277282411 1.334668908e-05 -1.346723322e-05)
(0.008310688826 1.185420682e-05 -1.841737341e-05)
(0.008259073352 1.127708661e-05 -1.091342147e-05)
(0.008278188305 2.446934145e-05 -1.892293843e-05)
(0.00835024254 1.857347545e-05 -1.44353522e-05)
(0.008355174875 2.568176327e-05 -2.047189346e-05)
(0.008379045904 2.030737715e-05 -1.819314267e-05)
(0.008408199986 2.105967398e-05 -1.015924321e-05)
(0.008383506386 3.306677317e-05 -1.902359211e-06)
(0.008459373411 3.671834942e-05 -1.141176493e-05)
(0.008471170975 3.942184717e-05 -5.966034716e-06)
(0.008432599478 6.485363812e-05 4.941742481e-06)
(0.008420222174 7.37557449e-05 3.603478329e-06)
(0.008406133925 8.869728127e-05 1.428357837e-06)
(0.00850167876 0.0001115654177 -2.041623195e-06)
(0.008594520259 0.0001346540004 -1.116839487e-06)
(0.008672988101 0.0001683072726 -4.835985175e-07)
(0.008646831143 0.0002182309276 -7.313250083e-06)
(0.00867074055 0.0002432636816 -1.231591607e-05)
(0.008764761164 0.0002896423199 5.272401388e-07)
(0.008835879516 0.000332055564 4.487155369e-06)
(0.008305709024 1.309463998e-05 -7.882173011e-06)
(0.008329508627 1.681716507e-05 -2.853270428e-06)
(0.008287646132 1.165602488e-06 -8.978712657e-08)
(0.008313286581 6.507381165e-07 7.315366684e-06)
(0.008299069162 -2.889981077e-08 8.386108493e-06)
(0.008333517091 4.764884316e-07 1.373380995e-05)
(0.008387342226 -5.505922772e-06 8.49185165e-06)
(0.008435412374 3.325834706e-06 6.853008173e-06)
(0.00844066556 1.920863717e-05 8.818780664e-07)
(0.008434054905 1.647571602e-05 8.558309066e-06)
(0.008419584676 1.398722722e-05 3.903847705e-06)
(0.008413674751 1.907624867e-05 -1.570896393e-07)
(0.008437573526 6.399061359e-06 7.349206462e-07)
(0.008393986494 1.369773346e-05 -8.887161011e-06)
(0.008408114757 1.566478466e-05 -8.916856227e-07)
(0.008440554495 1.791523367e-05 3.787009952e-06)
(0.0084600478 1.928821989e-05 2.409911021e-06)
(0.008390455322 2.148679154e-05 6.774611653e-06)
(0.008374685373 1.948477846e-05 3.563710702e-06)
(0.008372491102 5.611416229e-05 -2.235591374e-06)
(0.008409370291 5.770097972e-05 -4.227835915e-06)
(0.008504671966 6.018799792e-05 -1.465430592e-06)
(0.008570155608 7.047699786e-05 -4.406077453e-06)
(0.008546041824 8.591325282e-05 6.1985384e-08)
(0.008490293666 0.0001026858034 3.309637638e-06)
(0.008555705577 0.0001308070448 4.047639381e-06)
(0.008647782922 0.000159921464 -2.317511211e-06)
(0.008765746333 0.0001943483647 6.583184154e-06)
(0.008845314028 0.0002249172671 6.849388578e-06)
(0.008904611126 0.0002747113484 -2.366188408e-06)
(0.008362094697 4.817629407e-06 -3.535787612e-06)
(0.008386412519 4.033221887e-06 -6.444627782e-06)
(0.008394225111 8.556572962e-06 -6.734823515e-06)
(0.008413576789 9.322454571e-06 -1.067088539e-05)
(0.008400547949 5.587860153e-06 -4.741576048e-06)
(0.008366638841 4.000343892e-06 -2.464653e-06)
(0.008311515146 6.78753332e-06 6.237801048e-07)
(0.008275180297 2.670133391e-06 1.055988253e-06)
(0.008317793233 -1.251203518e-05 2.228918729e-08)
(0.008348451357 -9.24894303e-06 9.376407212e-07)
(0.008357906631 -1.145554639e-05 -1.991703294e-07)
(0.008396496752 5.605298156e-06 1.065332498e-05)
(0.008349913151 1.270361088e-05 1.551933609e-05)
(0.008371336906 1.67010108e-05 1.427384842e-05)
(0.00836793139 1.096509685e-05 1.525537031e-05)
(0.008359260691 2.125153507e-05 8.233845014e-06)
(0.008339796165 3.801416577e-05 1.134375777e-08)
(0.008348304914 3.442473198e-05 -5.304624233e-06)
(0.008394170565 2.818086056e-05 -3.152803288e-06)
(0.008408372497 2.775582963e-05 -1.491732404e-05)
(0.008401281462 3.209375178e-05 -4.425224475e-06)
(0.008385190473 4.703585575e-05 -2.300332049e-06)
(0.008386215258 4.761533103e-05 -1.632764653e-06)
(0.008437749656 5.498425465e-05 -6.00776056e-06)
(0.00848532773 6.1070333e-05 -9.983700445e-08)
(0.008554312058 8.47159683e-05 -7.134252511e-07)
(0.008566389122 0.0001160217519 7.076713092e-06)
(0.008616970592 0.000150853029 -2.691270157e-06)
(0.008645375915 0.0001939241458 -5.939478416e-06)
(0.008742277506 0.0002255989925 1.863769571e-05)
(0.008327405881 -4.423869849e-06 3.08037851e-06)