/*--------------------------------*- C++ -*----------------------------------*\
| =========                 |                                                 |
| \\      /  F ield         | OpenFOAM: The Open Source CFD Toolbox           |
|  \\    /   O peration     | Version:  2406                                  |
|   \\  /    A nd           | Website:  www.openfoam.com                      |
|    \\/     M anipulation  |                                                 |
\*---------------------------------------------------------------------------*/
FoamFile
{
    version     2.0;
    format      ascii;
    arch        "LSB;label=32;scalar=64";
    class       volScalarField;
    location    "0.012";
    object      overallT;
}
// * * * * * * * * * * * * * * * * * * * * * * * * * * * * * * * * * * * * * //

dimensions      [1 2 -2 0 0 0 0];

internalField   nonuniform List<scalar> 
654
(
735.0054693
724.4163415
726.1054179
729.2683298
725.6094588
727.7142766
670.1966776
680.98246
690.7279394
695.0190227
703.2842828
708.8729948
711.1629052
715.1758474
714.9215095
715.4595281
715.7552486
567.3269052
591.2717276
609.483477
627.311478
642.1092555
653.8552605
665.3544973
672.1577051
682.1533498
687.0288148
693.6395483
699.8707649
700.9317918
704.5828553
706.7995813
707.7588763
418.9291544
434.7273801
454.0287559
476.7964238
494.0356419
512.3512821
531.9779726
558.5221744
575.0623959
595.8931909
614.8591489
626.475902
640.7686016
652.0085033
657.4081865
664.2317723
673.6567128
681.4915947
687.4290272
692.2016086
693.6073061
696.8454454
325.651681
333.3201922
340.3802092
350.4752205
361.8678671
368.8967493
379.601336
390.3625132
405.7513699
423.1796195
434.06555
455.6122158
478.1978666
495.8505541
515.1228381
537.7366828
554.6185355
575.3836511
594.5279891
610.6652768
630.5970279
642.3260957
648.5072609
659.8357944
671.2572737
675.3906218
680.6854445
681.9886969
681.9761298
317.4306614
321.0870368
326.2885454
328.7329513
336.7408834
344.4918941
355.008762
364.2960691
371.4679601
386.2915611
395.275054
412.9618395
423.6230324
442.9289252
464.5967273
481.9151404
504.0060797
523.6449994
541.5297027
563.9547789
581.0025519
598.0211487
614.198539
629.907363
645.8305078
650.1163882
656.6701352
663.349426
668.3974457
674.3065062
313.2850764
316.3537422
322.1196421
325.3106083
329.3743542
334.0892484
338.3100168
347.6806336
353.1672548
367.2100742
373.6823941
386.2524297
400.1815264
416.3182637
436.6656975
450.0166657
469.8752043
487.2135837
507.6672203
525.789777
546.4295033
567.5456313
584.474978
599.3964695
615.3738662
629.1223471
642.8814839
649.3915481
655.6881389
659.9184247
310.6566581
313.490419
313.7690077
317.9370466
321.5643078
326.8922898
330.1219287
333.0846603
343.8643322
349.860541
361.9322651
370.5541694
375.3250546
388.5680035
404.0321122
419.2249328
436.3052894
460.9524047
477.6484307
497.898264
516.545773
538.6236825
553.0207886
573.9738588
591.5060124
603.9758151
620.7550811
636.1473856
645.0685022
648.3750831
306.9206169
308.7109263
312.3191118
313.20705
313.2791179
318.5416233
325.4043282
328.2515754
332.6509146
339.3539471
348.6230739
354.4183586
362.1544183
371.2983545
384.6960841
396.0054163
411.52283
432.2466937
446.9355736
469.7281898
486.800128
513.2400694
529.6874742
542.6700459
565.5600368
584.9621194
597.316607
612.4790313
621.8665034
633.9511148
304.8051351
305.1059707
305.3718819
308.9511591
311.9619119
313.3187071
316.5601964
321.5141144
325.2882755
329.7462581
335.3335743
344.2693761
346.6937311
355.3307128
365.5185383
375.3405817
386.3355105
401.2939792
417.8382609
432.2464036
454.8858344
474.1963966
498.2116334
510.9961786
528.1542381
552.0527334
569.5292978
585.5028885
600.3650908
613.1827259
304.0863348
304.5990987
303.8543983
306.0471626
307.8938296
310.4118682
311.503547
315.8913809
319.563798
322.4205324
327.8421688
334.6118479
339.4210484
346.2040027
357.4315758
366.5298487
372.4629502
385.4852567
393.4405939
407.9993894
423.3576547
439.346932
459.1754613
479.9861709
496.6011135
517.4837358
537.3561541
556.8393297
575.1240924
588.9673994
301.3322412
302.0138214
303.1945433
305.5226919
308.1978291
311.1443314
310.5013054
311.4763591
314.4732504
314.968119
320.6889684
326.4684747
330.3796937
333.3091149
339.6787604
348.4245637
355.110625
366.0319372
378.9123325
389.0369332
400.8033801
412.4681526
435.1515917
453.139779
469.3783305
487.6902076
508.652518
529.2349457
546.8037701
564.5309479
303.2724809
303.9867227
305.2298213
305.8403888
303.8165023
306.77602
306.4540152
311.0334929
310.3413677
312.9647935
313.4936377
318.6176848
321.5539205
325.0756596
332.8215811
339.9471256
343.1318119
350.7946785
359.9965698
367.3559601
381.5344027
393.769829
406.458869
423.7313188
443.685605
459.2922349
477.4872527
499.7155397
522.1865541
536.1291858
302.0867078
301.329867
302.7581096
305.074523
305.1803596
303.5391486
306.9601724
307.338628
308.7025407
311.9133373
315.1499124
316.3894529
316.5223192
319.2140442
323.481701
331.0339445
335.4587075
341.9389849
348.4340552
358.4145197
361.7678528
373.6794902
389.0411292
402.8660636
415.9406754
432.8606558
451.4062999
469.9155941
485.1403122
508.0975485
301.5134322
301.9973196
301.1207821
302.2779124
304.2340474
304.6465257
307.6945573
308.1017797
307.9077169
309.6213522
311.6655863
311.646278
316.9926997
318.5621788
320.4158662
324.1314666
328.1082644
335.0150166
339.2121469
348.0371176
352.6194572
361.6460265
373.0061336
389.9157397
396.8872366
411.0798573
423.7078791
447.445715
464.7722765
482.839173
301.7906904
300.1869646
300.9019136
301.6479585
304.0237329
303.9348478
304.2713764
305.0923065
305.4695931
305.0105139
308.1876646
311.0180971
311.0684806
311.3810749
315.045275
320.2349904
322.5311941
327.507691
331.7780545
337.521774
347.9397369
352.302158
359.3596365
371.6474081
380.0869689
389.6261808
401.5934111
417.8574998
441.1634908
456.1265825
302.0199154
301.8173268
302.4281786
301.5197924
300.8459326
302.9585433
304.1826167
304.7887262
304.9974734
306.006958
306.233676
308.4306718
310.4911242
310.6266906
312.5211786
315.1223133
319.8519562
321.6706709
324.4582762
326.5127282
331.1175445
337.6716159
342.336917
350.7548734
363.0048723
373.2738918
386.1580286
399.8081199
413.3367022
431.7756043
301.6067122
302.6078508
302.1093195
302.6578308
302.0855447
302.1019551
303.8354718
303.7938968
303.4930626
304.211129
304.7370496
305.2043572
306.9188153
308.422727
307.5563273
308.4161615
310.0659172
314.6758143
317.0425648
320.3839942
323.6554494
329.8698041
337.3389106
341.9413716
352.8602175
358.9991205
368.7030385
377.6349497
389.6411717
405.7906241
300.3833266
300.0606303
299.7189014
300.9619199
301.6795006
300.5104102
301.3765014
302.6967503
301.9305581
302.0958452
302.6617932
303.3676929
305.6563601
305.1206451
307.4642111
307.3859438
308.7670576
312.0141131
314.6734447
316.5946959
319.7897784
324.9828519
327.6134284
336.9176593
340.420878
350.8695423
357.4375693
365.9653805
375.9132363
386.9292281
299.9359159
300.1257832
300.2762538
300.7085111
301.8850575
302.9589574
302.3434473
301.9058899
302.3478757
300.9249319
301.8985516
301.8728148
303.2806284
304.1383143
304.9603037
306.6430345
307.6955098
307.1350877
310.5198438
313.0769509
316.6381278
319.8983568
320.4028857
326.422639
331.954844
339.9495322
347.7567986
353.3044407
365.1703056
372.4055818
300.915612
302.0328044
300.2301932
299.4842975
298.8398762
298.8474989
299.5002725
299.5331916
301.4336572
301.6968477
301.0425468
300.9649095
300.7323177
302.2588925
304.5631802
304.6741904
306.2902845
307.129583
307.9210658
309.580216
310.4705086
312.563669
316.8661922
318.5597646
320.3352046
326.8155172
333.0625172
343.4208758
350.3429533
360.1586158
300.8131466
301.1117405
300.7901467
300.486878
300.9360707
300.5102554
300.7242727
301.3900569
300.5762354
302.2073741
304.7188356
305.7644907
304.3777775
303.9242239
303.7282468
304.1554577
304.8730089
304.8568139
304.7017999
306.2781977
309.545604
313.2381684
312.7969417
317.4687083
318.0993837
323.9447678
329.3579555
332.3472904
339.212163
349.2864668
300.1681149
300.0326212
299.467606
299.7588464
300.8884224
301.9995712
301.14255
300.7160012
301.0910117
299.9233923
299.5863955
300.4680653
301.2818174
302.2617092
303.5469391
302.6451818
303.0043673
304.0329192
304.7246206
306.147721
308.0254165
307.6452187
310.7091184
312.5171097
315.1246785
316.4625705
321.0500116
326.2279587
331.6240778
338.1850902
298.8091659
301.1363534
301.37021
301.1071686
301.1045178
299.4980057
300.2389453
301.3190917
301.4408505
301.1363178
301.3980021
301.8503669
301.7618764
301.388352
301.9616262
304.2477506
303.2535062
304.644868
303.0063797
303.0383239
303.8429208
306.1918808
308.5693909
309.4742772
312.1120005
311.7271672
314.0712643
319.7906392
320.6602416
327.5798073
)
;

boundaryField
{
    flow
    {
        type            calculated;
        value           nonuniform List<scalar> 
55
(
735.0054693
727.7142766
715.7552486
707.7588763
696.8454454
681.9761298
674.3065062
659.9184247
648.3750831
633.9511148
613.1827259
588.9673994
564.5309479
536.1291858
508.0975485
482.839173
456.1265825
431.7756043
405.7906241
386.9292281
372.4055818
360.1586158
349.2864668
338.1850902
327.5798073
298.8091659
301.1363534
301.37021
301.1071686
301.1045178
299.4980057
300.2389453
301.3190917
301.4408505
301.1363178
301.3980021
301.8503669
301.7618764
301.388352
301.9616262
304.2477506
303.2535062
304.644868
303.0063797
303.0383239
303.8429208
306.1918808
308.5693909
309.4742772
312.1120005
311.7271672
314.0712643
319.7906392
320.6602416
327.5798073
)
;
    }
    obstacle
    {
        type            calculated;
        value           nonuniform List<scalar> 0();
    }
    frontAndBack
    {
        type            empty;
    }
    procBoundary3to1
    {
        type            processor;
        value           nonuniform List<scalar> 
36
(
747.2666638
740.6710052
740.254825
743.2823029
740.4553209
740.4553209
690.3867695
695.2382213
705.2915114
710.8230126
716.7968423
719.4011646
719.4011646
607.4383543
623.6587487
639.8183436
654.5049824
665.5799408
665.5799408
449.4062556
465.0432893
491.181401
508.9804472
527.070523
546.8193396
546.8193396
338.1343139
344.339818
353.6930065
366.6261807
379.8803051
387.2631389
400.9355194
400.9355194
322.9399318
322.9399318
)
;
    }
    procBoundary3to2
    {
        type            processor;
        value           nonuniform List<scalar> 
19
(
313.938599
308.6782722
308.179757
304.7411792
302.4022215
303.445777
299.9364718
302.1056697
302.1548734
301.1939917
301.2806964
300.516821
302.0388027
299.8772668
299.8752015
300.2588116
300.1573296
300.4889433
298.1717324
)
;
    }
}


// ************************************************************************* //
