/*--------------------------------*- C++ -*----------------------------------*\
| =========                 |                                                 |
| \\      /  F ield         | OpenFOAM: The Open Source CFD Toolbox           |
|  \\    /   O peration     | Version:  2406                                  |
|   \\  /    A nd           | Website:  www.openfoam.com                      |
|    \\/     M anipulation  |                                                 |
\*---------------------------------------------------------------------------*/
FoamFile
{
    version     2.0;
    format      ascii;
    arch        "LSB;label=32;scalar=64";
    class       volScalarField;
    location    "0.012";
    object      p;
}
// * * * * * * * * * * * * * * * * * * * * * * * * * * * * * * * * * * * * * //

dimensions      [1 -1 -2 0 0 0 0];

internalField   nonuniform List<scalar> 
654
(
2.536686724
2.597932489
2.632288195
2.616939454
2.571796472
2.572409791
2.067557308
2.173975033
2.292080521
2.360773406
2.445489641
2.521544493
2.539038607
2.562129436
2.57408667
2.557831359
2.537979776
1.290117417
1.431672948
1.531147058
1.660256297
1.777381114
1.889435762
2.009893587
2.092661422
2.212358215
2.293684267
2.380478535
2.460008205
2.480295001
2.51263182
2.535154876
2.522619905
0.7157808216
0.7668321111
0.8167720984
0.8985233814
0.9608913857
1.038163776
1.118798617
1.239465347
1.342932795
1.46500193
1.588027148
1.694344522
1.808145807
1.923457132
2.013661829
2.105471113
2.205719185
2.310098868
2.395113196
2.443652972
2.464656051
2.49044419
0.4759358535
0.4922912244
0.5088224173
0.5353148195
0.5654478515
0.5825192
0.6117197419
0.6371837751
0.6869001482
0.7430366394
0.7808017234
0.8474190841
0.9256137137
0.9914029907
1.072997665
1.172233542
1.26640678
1.3771705
1.493662956
1.614046234
1.751174049
1.859278497
1.945005262
2.064645188
2.183807626
2.262664168
2.344089433
2.382928816
2.411319374
0.4575018941
0.4663517734
0.4802741731
0.4885061897
0.5065660859
0.5215091567
0.5488772177
0.5735542949
0.5939606331
0.6309762845
0.6564529116
0.7094789563
0.7422796577
0.806736251
0.8786905844
0.9445158562
1.027352786
1.111536317
1.199237583
1.303355406
1.423787031
1.531310326
1.654924901
1.77015119
1.90715116
2.006980665
2.091540444
2.178525471
2.243808437
2.311443974
0.4460123042
0.4513471776
0.4630644241
0.471246911
0.4827571099
0.4952739085
0.5077428301
0.5321370642
0.5451679518
0.5834072604
0.6052359667
0.6385525461
0.6768097043
0.7247279476
0.7861760883
0.8307768505
0.8978288131
0.9633929476
1.051133687
1.138336365
1.223592121
1.342452436
1.453266868
1.572876136
1.706310228
1.813076109
1.941874248
2.048738298
2.147691993
2.210813001
0.4386677401
0.4482467926
0.4489488769
0.4579565293
0.4649565848
0.4760810118
0.482607118
0.4917921443
0.5187344029
0.5347071943
0.5581990866
0.5877559642
0.605053675
0.6443439603
0.6908931991
0.7360245736
0.7901227891
0.8713474646
0.9225995912
1.008203924
1.104471049
1.204569836
1.278750471
1.399723376
1.513358947
1.618742918
1.748750206
1.869442463
1.984089146
2.054286364
0.4322157105
0.4349699019
0.4428290333
0.4468041652
0.447866641
0.4592725813
0.4730925058
0.4800701798
0.4905119959
0.508721777
0.5317527843
0.5478479946
0.5647951769
0.5865442639
0.623819036
0.6583241239
0.7000695945
0.7634902636
0.8230498567
0.8999641035
0.9680720165
1.08022725
1.159143405
1.228253161
1.349305256
1.475104001
1.579421299
1.699112506
1.799883252
1.924213127
0.4260118192
0.4265690344
0.4283734525
0.4336773996
0.4427447293
0.4470748426
0.4584702543
0.4691790468
0.4787662262
0.484612344
0.5025283457
0.5206435687
0.5265564372
0.5517366637
0.5779793687
0.6029196392
0.639803066
0.6896508308
0.7418415522
0.7871198059
0.862427594
0.9382146891
1.041992064
1.107763114
1.194759691
1.313936572
1.420791926
1.526224492
1.630906186
1.741873026
0.4247743313
0.4243346469
0.4244711544
0.429527096
0.4351461548
0.4404733901
0.4411087307
0.4474989413
0.4561060462
0.4639662547
0.475639415
0.4935507673
0.5064738186
0.5272592755
0.553718888
0.5773380817
0.5937030704
0.6315878525
0.661106293
0.7123598581
0.7612725527
0.820617484
0.8931208486
0.979548775
1.048913837
1.14567581
1.250093728
1.35141957
1.467064965
1.581731084
0.4245227687
0.4241169064
0.4221745477
0.4263259823
0.428983225
0.4377295486
0.4362799689
0.4408460138
0.4486094801
0.4483767776
0.4646945204
0.4793651458
0.4901670601
0.4953189899
0.5152158814
0.5423098108
0.5601065634
0.588879508
0.6225411795
0.6453511872
0.6851660424
0.7233060536
0.7921281774
0.854882887
0.9245231609
1.004299256
1.099355867
1.201777736
1.310091736
1.426158839
0.4151001511
0.4198773391
0.4234058227
0.426360269
0.4228127235
0.4308482444
0.4300140523
0.4379024069
0.4385109135
0.4458729246
0.4462155101
0.4575293925
0.4690185838
0.4788695457
0.4949615319
0.515223566
0.5247753643
0.5448235014
0.5685138148
0.5940217171
0.6331000522
0.6681630248
0.7096301268
0.7637860911
0.8301794708
0.8933276965
0.965654431
1.070231718
1.165839805
1.257903903
0.415634356
0.4139492508
0.4175080904
0.4225573588
0.4221001614
0.4194223724
0.4298088909
0.429334313
0.4341191683
0.4436111643
0.4494625975
0.4546908109
0.4542484893
0.4619263496
0.4735371355
0.4914496169
0.5028717768
0.5191103841
0.536418922
0.5629387954
0.5713295425
0.6102228251
0.6532515243
0.6979675239
0.7392556933
0.7993054179
0.867598164
0.9411624487
1.017914388
1.119641838
0.4105050465
0.4099702976
0.4096365163
0.4133588557
0.4190404654
0.4223840005
0.4305913312
0.4334605365
0.4324347963
0.4355874267
0.443160265
0.446149239
0.4550081042
0.4587786596
0.4595483142
0.4709061882
0.4780299352
0.492939992
0.5054984315
0.5262035314
0.5391903302
0.5652422814
0.5957295969
0.641299797
0.671667744
0.7188769463
0.7667490796
0.8505164872
0.9084712395
0.9852137867
0.4183068901
0.4158732578
0.4163136943
0.417362598
0.4220355848
0.4231854738
0.4232584139
0.428186305
0.4293504605
0.429899383
0.4337908897
0.4376896648
0.4409345113
0.4429494929
0.450463309
0.4601099365
0.4657548641
0.4776659883
0.4855946663
0.5025838295
0.5259742443
0.539201653
0.5618273986
0.5965999159
0.6142467603
0.64345054
0.68375378
0.7384399412
0.8242828287
0.8855480772
0.4204667559
0.4212927593
0.4237185172
0.4181769143
0.4174961663
0.4199385234
0.4204286979
0.4202117208
0.4193485506
0.4206564687
0.4233747953
0.4301789487
0.4351337628
0.4348851128
0.4382002065
0.4476384879
0.4613996579
0.467184916
0.4789109935
0.4816922993
0.4997412555
0.5141287122
0.5193820539
0.5453314476
0.5785646233
0.6019282031
0.6359647104
0.6785149084
0.7205552792
0.7881116776
0.4200194092
0.4220724431
0.4221792432
0.42413243
0.4198182957
0.4199492062
0.4229475425
0.4248014597
0.4211067555
0.421311418
0.4216218863
0.4227882346
0.4286306056
0.4352343439
0.4376455099
0.4357771518
0.4402930546
0.4507376228
0.4548594923
0.4623013841
0.4726850967
0.4877508023
0.5076219313
0.5182312318
0.5492568996
0.5667443942
0.5994401212
0.6235366195
0.6560675045
0.7081138372
0.4126887732
0.4094102442
0.4090126822
0.412270524
0.4160828045
0.4155325243
0.4138279215
0.4185647924
0.4176907387
0.4178737752
0.4233223144
0.4265579503
0.4292028649
0.4261105681
0.42747043
0.4298170491
0.4337340677
0.4425088847
0.4469762536
0.4523654217
0.4594724965
0.4755839658
0.4827859894
0.5054236787
0.5142870769
0.5398623266
0.5566613376
0.5801309018
0.6129355916
0.6430351988
0.4116876048
0.4104841297
0.4133473664
0.4142162836
0.4174569594
0.4182147611
0.4173059963
0.415102276
0.41817202
0.4151561193
0.4171573768
0.4131870394
0.4158436335
0.4244046442
0.4292587249
0.431798426
0.4329197282
0.4315543265
0.443087487
0.4471369314
0.4516396031
0.4579535389
0.45890525
0.4774813718
0.4952795507
0.5198617572
0.5349343066
0.5458858217
0.5802622334
0.6006650912
0.4152641318
0.418554782
0.4118202447
0.4109825506
0.4082952544
0.409806174
0.4156888548
0.4186175929
0.4218225681
0.4211593485
0.4204979959
0.4212902578
0.420986081
0.420765188
0.4260468106
0.4286581659
0.4329752139
0.4317139687
0.4333585322
0.4369674122
0.4411749046
0.4507373745
0.4647117247
0.4674304866
0.4659293561
0.4842764961
0.5056660319
0.5355599231
0.5558962368
0.5820777216
0.4187065521
0.4197472789
0.4206784359
0.4217599449
0.4218598878
0.418349114
0.4139451238
0.4128338167
0.4139235326
0.4179723618
0.4210439276
0.4259933723
0.4246990475
0.4244968715
0.4256122239
0.4272411532
0.4279783006
0.427673243
0.4285179221
0.4335348241
0.4403720513
0.445857881
0.4446102559
0.4554091196
0.4600051105
0.4760538772
0.4874548774
0.499050109
0.5186041334
0.545160951
0.4135610156
0.4124218495
0.411667616
0.4129760791
0.4166646058
0.4207882256
0.4204888747
0.4178176836
0.4177052842
0.4147579103
0.4143507164
0.4170537066
0.421001269
0.4251120895
0.4232754886
0.4220066237
0.4241207767
0.4293551328
0.4307815466
0.4317245265
0.4363585525
0.4358640941
0.4413414768
0.4469844922
0.4534594463
0.4556821725
0.4703351914
0.4817306008
0.497427876
0.5167010922
0.4050724795
0.4119910398
0.4111932864
0.4107173904
0.4092352633
0.4059643452
0.4088768227
0.4111664571
0.4114964835
0.410774295
0.4130917898
0.4110028547
0.4113405232
0.4089307899
0.4101119714
0.4169853995
0.4157856613
0.4175890496
0.4125918364
0.4137103542
0.4182651337
0.4279077334
0.4291716471
0.4317133812
0.4355551378
0.435275212
0.4414426206
0.4550392802
0.4586382786
0.4784991283
)
;

boundaryField
{
    flow
    {
        type            calculated;
        value           nonuniform List<scalar> 
55
(
2.536686724
2.572409791
2.537979776
2.522619905
2.49044419
2.411319374
2.311443974
2.210813001
2.054286364
1.924213127
1.741873026
1.581731084
1.426158839
1.257903903
1.119641838
0.9852137867
0.8855480772
0.7881116776
0.7081138372
0.6430351988
0.6006650912
0.5820777216
0.545160951
0.5167010922
0.4784991283
0.4050724795
0.4119910398
0.4111932864
0.4107173904
0.4092352633
0.4059643452
0.4088768227
0.4111664571
0.4114964835
0.410774295
0.4130917898
0.4110028547
0.4113405232
0.4089307899
0.4101119714
0.4169853995
0.4157856613
0.4175890496
0.4125918364
0.4137103542
0.4182651337
0.4279077334
0.4291716471
0.4317133812
0.4355551378
0.435275212
0.4414426206
0.4550392802
0.4586382786
0.4784991283
)
;
    }
    obstacle
    {
        type            calculated;
        value           nonuniform List<scalar> 0();
    }
    frontAndBack
    {
        type            empty;
    }
    procBoundary3to1
    {
        type            processor;
        value           nonuniform List<scalar> 
36
(
2.501934745
2.67400018
2.655619635
2.640352019
2.598048199
2.598048199
2.242129786
2.334843756
2.448175942
2.495086942
2.566451575
2.571919172
2.571919172
1.504448576
1.623066367
1.734485127
1.855127657
1.96589377
1.96589377
0.8081784074
0.8584305816
0.959747273
1.025039112
1.104526194
1.186562413
1.186562413
0.4994027584
0.5178634302
0.5399458308
0.5740794058
0.6035351177
0.6251132662
0.6645892011
0.6645892011
0.4666938283
0.4666938283
)
;
    }
    procBoundary3to2
    {
        type            processor;
        value           nonuniform List<scalar> 
19
(
0.4475103079
0.4336929559
0.4326456059
0.4269497839
0.4217404247
0.4237809934
0.4193285389
0.4156142478
0.4134535694
0.4131423074
0.4170409258
0.4177387785
0.4191918502
0.4103863691
0.4099527896
0.415179969
0.4143492051
0.4159389425
0.4059650416
)
;
    }
}


// ************************************************************************* //
