/*--------------------------------*- C++ -*----------------------------------*\
| =========                 |                                                 |
| \\      /  F ield         | OpenFOAM: The Open Source CFD Toolbox           |
|  \\    /   O peration     | Version:  2406                                  |
|   \\  /    A nd           | Website:  www.openfoam.com                      |
|    \\/     M anipulation  |                                                 |
\*---------------------------------------------------------------------------*/
FoamFile
{
    version     2.0;
    format      ascii;
    arch        "LSB;label=32;scalar=64";
    class       volScalarField;
    location    "0.012";
    object      rhoMMean;
}
// * * * * * * * * * * * * * * * * * * * * * * * * * * * * * * * * * * * * * //

dimensions      [1 -3 0 0 0 0 0];

internalField   nonuniform List<scalar> 
654
(
1.169642733e-05
1.173292201e-05
1.192409709e-05
1.191787178e-05
1.187534236e-05
1.193562551e-05
9.484751392e-06
9.902387e-06
1.036891705e-05
1.073653412e-05
1.109922482e-05
1.145635233e-05
1.159104611e-05
1.170249291e-05
1.186867561e-05
1.188416907e-05
1.185907935e-05
6.808348015e-06
7.205888574e-06
7.530930878e-06
7.938088388e-06
8.385713452e-06
8.828616598e-06
9.290678642e-06
9.65872703e-06
1.014638049e-05
1.053775692e-05
1.091061286e-05
1.126930393e-05
1.143789842e-05
1.160417649e-05
1.175846708e-05
1.178416925e-05
5.319303641e-06
5.434818932e-06
5.508740572e-06
5.685248223e-06
5.85651336e-06
6.074319296e-06
6.293233864e-06
6.609998958e-06
6.959114017e-06
7.335487977e-06
7.740149556e-06
8.142599302e-06
8.570745416e-06
9.026136062e-06
9.436228669e-06
9.870761194e-06
1.02885898e-05
1.072285691e-05
1.112940062e-05
1.137605651e-05
1.153354688e-05
1.169657486e-05
4.89632833e-06
4.914136393e-06
4.928500423e-06
4.981781557e-06
5.037877931e-06
5.065673491e-06
5.128181936e-06
5.183623946e-06
5.309026786e-06
5.446220263e-06
5.551972759e-06
5.703410967e-06
5.894743045e-06
6.079122146e-06
6.280163498e-06
6.524642784e-06
6.84504432e-06
7.185317403e-06
7.552170781e-06
7.965279832e-06
8.402499238e-06
8.840102015e-06
9.248238911e-06
9.717121075e-06
1.015337965e-05
1.057904039e-05
1.096285977e-05
1.126139012e-05
1.148381259e-05
4.871144977e-06
4.8811785e-06
4.906791094e-06
4.949776267e-06
4.97086114e-06
4.988125287e-06
5.039603123e-06
5.101944237e-06
5.16538894e-06
5.216024539e-06
5.262775579e-06
5.366720243e-06
5.450549745e-06
5.608890263e-06
5.773754728e-06
5.969353158e-06
6.183717737e-06
6.404127115e-06
6.664411995e-06
6.969295445e-06
7.365724179e-06
7.719833838e-06
8.155781177e-06
8.583009952e-06
9.063469125e-06
9.547464797e-06
9.908946597e-06
1.031352606e-05
1.06717311e-05
1.099558843e-05
4.846150956e-06
4.848308093e-06
4.862293097e-06
4.872718045e-06
4.898266441e-06
4.932369513e-06
4.980397077e-06
5.023186439e-06
5.044936263e-06
5.133036494e-06
5.191021818e-06
5.251872802e-06
5.330007717e-06
5.431685524e-06
5.546818774e-06
5.67289873e-06
5.812543111e-06
5.978467705e-06
6.232447261e-06
6.480002937e-06
6.738363165e-06
7.124420921e-06
7.529397123e-06
7.964348465e-06
8.425803589e-06
8.819607549e-06
9.321275127e-06
9.795201982e-06
1.02413614e-05
1.062272355e-05
4.841677259e-06
4.859351062e-06
4.871391133e-06
4.887097336e-06
4.905052095e-06
4.899556821e-06
4.888554202e-06
4.920523817e-06
4.956860531e-06
4.972629053e-06
4.989904998e-06
5.085821915e-06
5.154844897e-06
5.232278203e-06
5.321907178e-06
5.455423165e-06
5.587536174e-06
5.789473602e-06
5.910984541e-06
6.142831017e-06
6.429522542e-06
6.692886324e-06
6.952143721e-06
7.334266068e-06
7.727122426e-06
8.124934728e-06
8.597993604e-06
9.037054473e-06
9.510368472e-06
9.906199307e-06
4.825169537e-06
4.829176782e-06
4.843132515e-06
4.869224237e-06
4.864237718e-06
4.871427646e-06
4.881823989e-06
4.900266449e-06
4.909177249e-06
4.949998823e-06
4.984055991e-06
5.047542134e-06
5.070407303e-06
5.106580097e-06
5.178687154e-06
5.26307623e-06
5.342857016e-06
5.480542348e-06
5.65833673e-06
5.847166665e-06
6.045199565e-06
6.329211239e-06
6.562712225e-06
6.8007392e-06
7.172725467e-06
7.600638771e-06
7.998229825e-06
8.435162198e-06
8.895106834e-06
9.378151463e-06
4.811120306e-06
4.811382201e-06
4.801771988e-06
4.788449978e-06
4.816078656e-06
4.835345174e-06
4.879597543e-06
4.89849693e-06
4.929276222e-06
4.923328874e-06
4.975467209e-06
4.975745617e-06
4.994891636e-06
5.05007168e-06
5.104330686e-06
5.171863797e-06
5.275969121e-06
5.407202625e-06
5.528922623e-06
5.636413815e-06
5.80550541e-06
6.013178063e-06
6.30614502e-06
6.555436106e-06
6.822867937e-06
7.184152872e-06
7.556563223e-06
7.91355556e-06
8.288067149e-06
8.722839222e-06
4.790429365e-06
4.78521233e-06
4.804828009e-06
4.810503275e-06
4.823567559e-06
4.821549288e-06
4.824040918e-06
4.825987791e-06
4.850610129e-06
4.87647204e-06
4.895439416e-06
4.922159757e-06
4.961151093e-06
5.014329906e-06
5.042792068e-06
5.085205799e-06
5.118652705e-06
5.210466125e-06
5.323906829e-06
5.458303115e-06
5.593465101e-06
5.779675523e-06
5.945792721e-06
6.195334093e-06
6.424822642e-06
6.68594161e-06
6.990959637e-06
7.342084665e-06
7.751415067e-06
8.209523021e-06
4.863318983e-06
4.861273756e-06
4.83251842e-06
4.828193859e-06
4.816791803e-06
4.840748854e-06
4.830548163e-06
4.833264105e-06
4.843342688e-06
4.84155972e-06
4.878945008e-06
4.908090126e-06
4.934150194e-06
4.944532575e-06
5.005590604e-06
5.087858338e-06
5.135282054e-06
5.179713941e-06
5.244361025e-06
5.276331957e-06
5.395025981e-06
5.471805276e-06
5.615792984e-06
5.797538862e-06
6.000924948e-06
6.247882467e-06
6.545149756e-06
6.863075459e-06
7.255164882e-06
7.63689187e-06
4.75676513e-06
4.788371942e-06
4.800490583e-06
4.811941197e-06
4.802087147e-06
4.814125317e-06
4.802444318e-06
4.813290942e-06
4.812818984e-06
4.841548711e-06
4.845672398e-06
4.857860622e-06
4.908636172e-06
4.933160488e-06
4.945553398e-06
4.99818241e-06
5.025488583e-06
5.077735975e-06
5.124659532e-06
5.20180411e-06
5.267993551e-06
5.358873567e-06
5.457085065e-06
5.579524306e-06
5.757131538e-06
5.957888776e-06
6.169701402e-06
6.470763551e-06
6.742848172e-06
7.09239455e-06
4.774027378e-06
4.771873247e-06
4.77250036e-06
4.778200345e-06
4.777915171e-06
4.767001002e-06
4.80827962e-06
4.802972014e-06
4.82140358e-06
4.860362665e-06
4.846114154e-06
4.863954155e-06
4.872892292e-06
4.899807583e-06
4.945810307e-06
4.965723797e-06
4.98220141e-06
5.004086759e-06
5.018973136e-06
5.095473237e-06
5.135701169e-06
5.237062481e-06
5.334778929e-06
5.451270625e-06
5.558450639e-06
5.722112675e-06
5.910949438e-06
6.105237505e-06
6.363317655e-06
6.654226662e-06
4.747810899e-06
4.731250637e-06
4.730883311e-06
4.752283547e-06
4.763440436e-06
4.805201954e-06
4.832882625e-06
4.841914089e-06
4.832351765e-06
4.823675753e-06
4.852109224e-06
4.877092099e-06
4.87113542e-06
4.873761354e-06
4.848726133e-06
4.885296499e-06
4.888134868e-06
4.903386052e-06
4.948371747e-06
4.985419695e-06
5.005265473e-06
5.065327953e-06
5.12404371e-06
5.210734481e-06
5.332059136e-06
5.470790322e-06
5.619446212e-06
5.844354883e-06
5.997824559e-06
6.22717602e-06
4.800616566e-06
4.803292199e-06
4.805561963e-06
4.813165796e-06
4.799051486e-06
4.80768916e-06
4.792437448e-06
4.825647702e-06
4.848297377e-06
4.848643805e-06
4.82242997e-06
4.823657523e-06
4.826559966e-06
4.835132213e-06
4.835009267e-06
4.844016478e-06
4.853231308e-06
4.883389724e-06
4.895709668e-06
4.944685833e-06
4.986622251e-06
5.040849272e-06
5.10642238e-06
5.1849965e-06
5.226082037e-06
5.283831474e-06
5.391555185e-06
5.542316062e-06
5.770460753e-06
5.957600262e-06
4.816388007e-06
4.843829577e-06
4.860188722e-06
4.826512673e-06
4.822411788e-06
4.816957799e-06
4.796695135e-06
4.787750399e-06
4.770120144e-06
4.758200231e-06
4.762824979e-06
4.77236473e-06
4.793333101e-06
4.804105322e-06
4.818656656e-06
4.861491425e-06
4.903425261e-06
4.929213974e-06
4.983210638e-06
4.969756793e-06
5.037405045e-06
5.041475386e-06
5.018584046e-06
5.082824289e-06
5.149134215e-06
5.179915766e-06
5.260107886e-06
5.364518151e-06
5.458212566e-06
5.675636295e-06
4.857160094e-06
4.845429324e-06
4.851555869e-06
4.859295819e-06
4.846594049e-06
4.847325936e-06
4.850402614e-06
4.853911455e-06
4.823227946e-06
4.8159569e-06
4.81337219e-06
4.826177201e-06
4.824013069e-06
4.857208367e-06
4.874107295e-06
4.845806337e-06
4.847063912e-06
4.858316778e-06
4.847106066e-06
4.879627775e-06
4.902544068e-06
4.913049681e-06
4.982728392e-06
4.987809835e-06
5.082433166e-06
5.13307312e-06
5.222787646e-06
5.283042781e-06
5.346543744e-06
5.459820601e-06
4.803882643e-06
4.778894029e-06
4.7787154e-06
4.784852753e-06
4.79120521e-06
4.791546916e-06
4.775073351e-06
4.80733295e-06
4.81904277e-06
4.819574864e-06
4.855496446e-06
4.856043373e-06
4.847056408e-06
4.818098752e-06
4.807541e-06
4.824748702e-06
4.812315513e-06
4.853180964e-06
4.848670934e-06
4.858528651e-06
4.895518913e-06
4.937068057e-06
4.947225527e-06
4.993151069e-06
5.008693182e-06
5.039443633e-06
5.077084191e-06
5.142816971e-06
5.249386879e-06
5.309190242e-06
4.779559389e-06
4.766189535e-06
4.790807075e-06
4.784624555e-06
4.799692448e-06
4.804332796e-06
4.809288105e-06
4.789915336e-06
4.797516421e-06
4.781931219e-06
4.794145559e-06
4.762441416e-06
4.776725877e-06
4.828132647e-06
4.837675728e-06
4.846977155e-06
4.854649089e-06
4.847069905e-06
4.88977577e-06
4.900847311e-06
4.879587854e-06
4.87999341e-06
4.873093841e-06
4.935365959e-06
4.997616569e-06
5.059563968e-06
5.057438152e-06
5.072934903e-06
5.156367665e-06
5.211748948e-06
4.790053563e-06
4.805914541e-06
4.772952829e-06
4.787013961e-06
4.78030648e-06
4.796736227e-06
4.833550428e-06
4.863552257e-06
4.868609124e-06
4.865644177e-06
4.85830356e-06
4.862678737e-06
4.873666209e-06
4.848238213e-06
4.854657573e-06
4.872080588e-06
4.882753034e-06
4.838824147e-06
4.829772307e-06
4.835250083e-06
4.864914575e-06
4.918565334e-06
4.960786895e-06
4.952454082e-06
4.920907035e-06
4.968057683e-06
5.03499093e-06
5.121595889e-06
5.187241293e-06
5.234662753e-06
4.826306038e-06
4.836847446e-06
4.847023283e-06
4.856503923e-06
4.848885243e-06
4.828406207e-06
4.796105711e-06
4.772729034e-06
4.797450332e-06
4.812779756e-06
4.816093243e-06
4.83597412e-06
4.811490367e-06
4.815930447e-06
4.819982948e-06
4.820813767e-06
4.815024892e-06
4.823284853e-06
4.849627878e-06
4.854313813e-06
4.847049328e-06
4.845283699e-06
4.84715319e-06
4.880744887e-06
4.910343073e-06
4.965813626e-06
4.981048857e-06
5.01541156e-06
5.052210699e-06
5.124756449e-06
4.798797734e-06
4.789591674e-06
4.782079588e-06
4.792631435e-06
4.809730159e-06
4.824642622e-06
4.829570809e-06
4.814322274e-06
4.808904929e-06
4.798996561e-06
4.792540747e-06
4.819741806e-06
4.846868691e-06
4.86464973e-06
4.831845532e-06
4.842152859e-06
4.854743297e-06
4.882635303e-06
4.889737479e-06
4.88408813e-06
4.875354431e-06
4.871391564e-06
4.888040522e-06
4.891221298e-06
4.900993017e-06
4.886451295e-06
4.947157888e-06
4.962900822e-06
5.020264021e-06
5.062893304e-06
4.725391392e-06
4.749368091e-06
4.740677311e-06
4.754509174e-06
4.735862826e-06
4.716424761e-06
4.736269372e-06
4.748686853e-06
4.7451765e-06
4.742072565e-06
4.759050263e-06
4.714274183e-06
4.714117572e-06
4.710547561e-06
4.708284897e-06
4.738396776e-06
4.746046322e-06
4.732014946e-06
4.705524935e-06
4.735681989e-06
4.766970744e-06
4.806905026e-06
4.781844648e-06
4.794744649e-06
4.786456412e-06
4.804693151e-06
4.815174701e-06
4.829261439e-06
4.83769309e-06
4.891814973e-06
)
;

boundaryField
{
    flow
    {
        type            calculated;
        value           nonuniform List<scalar> 
55
(
1.169642733e-05
1.193562551e-05
1.185907935e-05
1.178416925e-05
1.169657486e-05
1.148381259e-05
1.099558843e-05
1.062272355e-05
9.906199307e-06
9.378151463e-06
8.722839222e-06
8.209523021e-06
7.63689187e-06
7.09239455e-06
6.654226662e-06
6.22717602e-06
5.957600262e-06
5.675636295e-06
5.459820601e-06
5.309190242e-06
5.211748948e-06
5.234662753e-06
5.124756449e-06
5.062893304e-06
4.891814973e-06
4.725391392e-06
4.749368091e-06
4.740677311e-06
4.754509174e-06
4.735862826e-06
4.716424761e-06
4.736269372e-06
4.748686853e-06
4.7451765e-06
4.742072565e-06
4.759050263e-06
4.714274183e-06
4.714117572e-06
4.710547561e-06
4.708284897e-06
4.738396776e-06
4.746046322e-06
4.732014946e-06
4.705524935e-06
4.735681989e-06
4.766970744e-06
4.806905026e-06
4.781844648e-06
4.794744649e-06
4.786456412e-06
4.804693151e-06
4.815174701e-06
4.829261439e-06
4.83769309e-06
4.891814973e-06
)
;
    }
    obstacle
    {
        type            calculated;
        value           nonuniform List<scalar> 0();
    }
    frontAndBack
    {
        type            empty;
    }
    procBoundary3to1
    {
        type            processor;
        value           nonuniform List<scalar> 
36
(
1.145931937e-05
1.192310986e-05
1.190209298e-05
1.188348945e-05
1.182296312e-05
1.182296312e-05
1.015622489e-05
1.05669316e-05
1.100251748e-05
1.126781536e-05
1.153264308e-05
1.162623935e-05
1.162623935e-05
7.386623544e-06
7.774644458e-06
8.163713592e-06
8.596309396e-06
9.017072433e-06
9.017072433e-06
5.507742887e-06
5.617876175e-06
5.862280431e-06
6.048764065e-06
6.267199254e-06
6.509043956e-06
6.509043956e-06
4.92082022e-06
4.950226441e-06
4.976006932e-06
5.046648383e-06
5.06521759e-06
5.133863257e-06
5.222773577e-06
5.222773577e-06
4.861160767e-06
4.861160767e-06
)
;
    }
    procBoundary3to2
    {
        type            processor;
        value           nonuniform List<scalar> 
19
(
4.851503624e-06
4.815300914e-06
4.846743009e-06
4.820564699e-06
4.800477225e-06
4.805668035e-06
4.851014186e-06
4.762844887e-06
4.753407396e-06
4.768557164e-06
4.800092388e-06
4.813085762e-06
4.856038822e-06
4.786333092e-06
4.77271064e-06
4.811026394e-06
4.800118148e-06
4.810800977e-06
4.739081605e-06
)
;
    }
}


// ************************************************************************* //
