/*--------------------------------*- C++ -*----------------------------------*\
| =========                 |                                                 |
| \\      /  F ield         | OpenFOAM: The Open Source CFD Toolbox           |
|  \\    /   O peration     | Version:  2406                                  |
|   \\  /    A nd           | Website:  www.openfoam.com                      |
|    \\/     M anipulation  |                                                 |
\*---------------------------------------------------------------------------*/
FoamFile
{
    version     2.0;
    format      ascii;
    arch        "LSB;label=32;scalar=64";
    class       volScalarField;
    location    "0.012";
    object      rhoM;
}
// * * * * * * * * * * * * * * * * * * * * * * * * * * * * * * * * * * * * * //

dimensions      [1 -3 0 0 0 0 0];

internalField   nonuniform List<scalar> 
654
(
1.684255149e-05
1.496074401e-05
9.296697115e-06
1.123991423e-05
1.406211343e-05
1.211154881e-05
7.444296594e-06
5.150508651e-06
9.422716225e-06
1.323625836e-05
1.272559944e-05
1.030707099e-05
5.10886821e-06
8.468827312e-06
1.021708679e-05
1.19064195e-05
1.721975536e-05
3.487391011e-06
7.86852506e-06
6.077086738e-06
6.893454126e-06
1.107215853e-05
1.116644498e-05
8.2064298e-06
5.899372809e-06
1.012692654e-05
8.961507328e-06
1.030707099e-05
1.331766592e-05
1.205774105e-05
9.939354318e-06
1.490525325e-05
1.230015085e-05
2.770390278e-06
3.988483451e-06
6.431660868e-06
8.994563115e-06
7.841651996e-06
2.306091523e-06
4.234117674e-06
8.621401174e-06
4.388555313e-06
8.085117819e-06
4.892445281e-06
1.151152747e-05
1.003998249e-05
8.365288972e-06
1.590078855e-05
9.767481747e-06
9.584035299e-06
1.295400251e-05
9.388436195e-06
1.346848645e-05
1.237357591e-05
1.106967993e-05
3.227441785e-06
5.368842553e-06
7.921969558e-06
2.839710515e-06
5.568470946e-06
3.974417901e-06
8.010249408e-06
4.036309689e-06
3.589058694e-06
3.939900717e-06
6.402169075e-06
2.859448069e-06
3.623291355e-06
9.547951681e-06
2.344073389e-06
3.881792493e-06
4.936306599e-06
5.493308121e-06
6.232337376e-06
5.93571604e-06
8.10199263e-06
1.145919154e-05
1.173884067e-05
1.16630353e-05
1.304491817e-05
1.021630592e-05
1.281820661e-05
1.274955919e-05
1.513829642e-05
7.673516195e-06
5.32919989e-06
3.705437058e-06
5.560930813e-06
3.914395458e-06
4.331446923e-06
7.403253734e-06
4.005124643e-06
5.619662163e-06
7.657042781e-06
6.029076856e-06
2.91741938e-06
8.413541477e-06
6.918274513e-06
3.487391039e-06
4.268986197e-06
4.304433712e-06
6.638976266e-06
8.067844174e-06
5.712628509e-06
8.206429869e-06
8.27752357e-06
7.639461094e-06
9.14013314e-06
1.319921433e-05
1.413810634e-05
1.343826302e-05
1.068221176e-05
1.237357591e-05
1.097537897e-05
4.768550219e-06
6.830714042e-06
6.578260798e-06
4.951689739e-06
4.989080401e-06
4.485609174e-06
3.896745774e-06
3.377055316e-06
2.216312222e-06
2.392705778e-06
3.377057705e-06
4.052079843e-06
5.472676137e-06
4.940491129e-06
6.807287257e-06
4.688146778e-06
5.992965138e-06
5.616964479e-06
6.695033937e-06
9.175964774e-06
1.003998241e-05
7.044565454e-06
9.947722044e-06
8.334158643e-06
9.764249705e-06
1.176770122e-05
1.196600189e-05
1.281820661e-05
1.51855471e-05
1.163776491e-05
8.195104477e-06
5.478808951e-06
3.780798049e-06
2.20918719e-06
3.377052986e-06
6.186982941e-06
6.156745687e-06
3.926852473e-06
5.619662206e-06
2.313205114e-06
2.894344246e-06
6.482937378e-06
5.800313542e-06
6.011459869e-06
7.14027685e-06
5.357594017e-06
6.667971146e-06
5.786616386e-06
5.407765966e-06
5.106648805e-06
8.293441405e-06
6.428086486e-06
1.074879291e-05
6.990148405e-06
6.419392615e-06
9.942791503e-06
8.560566474e-06
1.73701663e-05
9.655036131e-06
1.371922371e-05
3.79962999e-06
3.827685814e-06
6.199634567e-06
3.351743664e-06
6.140264422e-06
6.186982895e-06
6.156745687e-06
7.853705005e-06
6.410385212e-06
4.705910928e-06
6.994503873e-06
5.83483876e-06
4.575116875e-06
5.765228807e-06
6.559045067e-06
2.93009176e-06
7.342976986e-06
7.319634006e-06
6.350797652e-06
5.712628461e-06
3.754117015e-06
7.573279076e-06
5.240527972e-06
8.155532909e-06
6.509499803e-06
1.067231592e-05
5.983000943e-06
8.546216916e-06
7.312479638e-06
1.021869196e-05
6.481827318e-06
4.353125325e-06
7.032247891e-06
2.28511293e-06
4.451737962e-06
4.949958987e-06
3.974417901e-06
5.104719076e-06
4.511506095e-06
6.540190556e-06
5.788688492e-06
1.701990673e-06
5.963148348e-06
4.858414108e-06
2.98890659e-06
4.352415012e-06
8.440624222e-06
8.765775619e-06
8.668706992e-06
3.722148297e-06
7.508233903e-06
5.370659187e-06
7.106127104e-06
6.452112587e-06
5.876571272e-06
6.749748784e-06
9.757610018e-06
1.346848645e-05
1.031131325e-05
1.315113873e-05
3.725373801e-06
4.353125388e-06
3.251449917e-06
6.018320412e-06
4.989080364e-06
6.72841376e-06
6.079073543e-06
5.261263399e-06
6.331503513e-06
2.95113189e-06
5.466233905e-06
3.646286199e-06
4.656534277e-06
5.188705926e-06
4.815349509e-06
3.599538932e-06
5.992965138e-06
3.14881114e-06
6.179713252e-06
4.934107514e-06
8.2064298e-06
5.636076655e-06
4.530129282e-06
1.120080485e-05
8.858821698e-06
8.574658633e-06
1.031026243e-05
6.595377048e-06
7.405910986e-06
8.799619202e-06
3.725373801e-06
3.302246273e-06
4.914855358e-06
8.760823005e-06
6.140264422e-06
2.784235452e-06
4.442327728e-06
5.57624406e-06
4.9867025e-06
6.381189229e-06
4.582873112e-06
4.132848177e-06
4.166062103e-06
3.459137284e-06
4.732602133e-06
5.44102291e-06
5.570323985e-06
8.511297689e-06
9.611738677e-06
5.020378201e-06
8.380453009e-06
7.748809878e-06
4.44159691e-06
5.824763952e-06
8.588499962e-06
9.395098852e-06
3.958087574e-06
7.245657069e-06
7.499342267e-06
1.097537887e-05
4.842806435e-06
7.055127525e-06
4.46086813e-06
3.73320751e-06
6.677606894e-06
3.325666342e-06
3.273491723e-06
5.261263439e-06
2.295193872e-06
5.18483634e-06
4.663002546e-06
5.99637541e-06
6.53503791e-06
5.929382801e-06
3.071654004e-06
3.013520585e-06
6.077086738e-06
3.659817033e-06
5.578850413e-06
4.328127942e-06
4.889473838e-06
5.107363028e-06
2.042663832e-06
7.168774139e-06
7.232535643e-06
5.290700017e-06
5.430348656e-06
6.687954539e-06
8.905327727e-06
4.731002573e-06
4.991318902e-06
4.878564933e-06
6.57826075e-06
2.666576773e-06
6.140264422e-06
1.624292596e-06
6.234417784e-06
2.827258131e-06
6.331503562e-06
4.467408934e-06
4.100159658e-06
2.8366511e-06
4.003227266e-06
2.306091523e-06
4.649854681e-06
6.027041218e-06
5.992965186e-06
3.829468939e-06
3.690719511e-06
3.20243936e-06
1.22236846e-06
5.195128341e-06
3.819730514e-06
4.748692264e-06
4.43049972e-06
2.097657358e-06
6.810870671e-06
3.994257225e-06
4.780802425e-06
3.406230654e-06
4.246961997e-06
4.953369373e-06
5.065577248e-06
3.275817907e-06
4.912581322e-06
3.867097212e-06
8.026507901e-06
3.848580301e-06
4.669269395e-06
3.430057339e-06
2.974473693e-06
3.565517925e-06
7.67881719e-06
5.352859968e-06
4.15137026e-06
3.180378282e-06
2.363537415e-06
7.319634066e-06
4.377124596e-06
3.808418942e-06
4.452312817e-06
5.98713826e-06
7.727993467e-06
4.391440797e-06
8.588499887e-06
3.193042631e-06
2.577565585e-06
5.387394627e-06
7.875325552e-06
4.825303583e-06
6.481827318e-06
4.728955876e-06
4.385507199e-06
3.73320751e-06
6.601107864e-06
4.098340589e-06
5.688835788e-06
4.398377453e-06
3.324468334e-06
2.792130563e-06
3.939900656e-06
5.186740283e-06
2.940865472e-06
6.011459869e-06
4.815349548e-06
5.44102291e-06
2.954421769e-06
7.319634006e-06
7.037202737e-06
3.635877651e-06
4.452312817e-06
2.465916113e-06
6.840529987e-06
4.032030712e-06
6.50949986e-06
3.922567107e-06
1.933174188e-06
5.945097039e-06
5.437079549e-06
4.919604461e-06
7.376491385e-06
4.803760387e-06
5.594925403e-06
3.809133266e-06
2.839710515e-06
5.104121164e-06
3.428835918e-06
4.476649654e-06
6.252621864e-06
3.988483451e-06
4.743132052e-06
7.536829465e-06
4.73795168e-06
7.000351589e-06
4.649854681e-06
4.102128431e-06
3.038543369e-06
4.936306679e-06
4.206040196e-06
3.116168714e-06
7.071072945e-06
6.956800053e-06
6.395728369e-06
6.54142551e-06
3.25474993e-06
1.039956827e-05
4.785957302e-06
4.737114672e-06
6.093356672e-06
5.393388516e-06
4.917062651e-06
6.529688034e-06
4.385507167e-06
4.951689703e-06
3.069207751e-06
7.192763554e-06
3.428835918e-06
6.047768998e-06
3.482231634e-06
6.222187949e-06
4.502743642e-06
4.700178365e-06
2.940865472e-06
4.19981424e-06
6.060560642e-06
7.365935621e-06
5.992965186e-06
4.255648845e-06
3.861803879e-06
4.414398551e-06
5.674681277e-06
5.811607408e-06
4.3530645e-06
5.108102349e-06
5.786464078e-06
9.942791503e-06
8.00791424e-06
5.387394627e-06
5.999925391e-06
4.068616592e-06
4.991318866e-06
2.101758152e-06
6.955065566e-06
4.494300137e-06
5.602921951e-06
8.894137222e-06
2.727909769e-06
4.005124704e-06
7.043344917e-06
2.392705778e-06
4.180289097e-06
3.48474965e-06
7.597399786e-06
4.199814206e-06
7.305771736e-06
5.274165168e-06
3.713549293e-06
1.872321478e-06
3.690719511e-06
2.596459725e-06
5.587669626e-06
3.874404939e-06
7.194659477e-06
3.226056293e-06
3.254749902e-06
3.922567072e-06
5.430348704e-06
2.693697314e-06
3.46824821e-06
5.013905518e-06
2.682197367e-06
5.028173956e-06
4.839494394e-06
5.409079341e-06
4.912581322e-06
4.562690299e-06
6.935343933e-06
2.277460945e-06
7.676304623e-06
2.313205114e-06
4.100159595e-06
6.402168975e-06
4.900786485e-06
3.623291326e-06
6.060560594e-06
7.951953973e-06
3.545306151e-06
3.744642986e-06
6.094171052e-06
3.635877682e-06
7.508234029e-06
3.257925944e-06
4.44159691e-06
5.286728083e-06
4.610714209e-06
3.831651191e-06
1.380521967e-06
4.922269652e-06
4.593939864e-06
6.718160343e-06
3.79962999e-06
3.302246249e-06
4.611590056e-06
4.951689739e-06
6.524608736e-06
4.021259464e-06
4.987909682e-06
5.81106062e-06
6.252621912e-06
5.264337004e-06
6.351531447e-06
4.780946705e-06
8.250706739e-06
3.541214277e-06
6.060560594e-06
4.185557279e-06
6.077086738e-06
6.127970373e-06
3.861803943e-06
3.722148328e-06
7.595245507e-06
6.428086431e-06
6.484260742e-06
4.480753664e-06
4.520607004e-06
5.199784136e-06
6.074740052e-06
6.037674583e-06
5.53051083e-06
3.974315662e-06
6.333314887e-06
5.02817392e-06
4.764133396e-06
3.275817883e-06
2.763211456e-06
4.021259464e-06
1.246508103e-06
3.29878309e-06
6.806699915e-06
5.105335716e-06
4.020030157e-06
5.834838805e-06
5.881730945e-06
5.352859968e-06
5.396581345e-06
2.427502257e-06
2.954421793e-06
6.638976266e-06
3.776261711e-06
3.808418942e-06
3.055921149e-06
5.636076607e-06
4.441596872e-06
3.942717879e-06
4.520607004e-06
6.386085318e-06
3.405435305e-06
3.529132219e-06
2.718539774e-06
6.244376336e-06
2.830709781e-06
4.803760387e-06
1.588044465e-06
5.409079341e-06
4.298739772e-06
4.331446955e-06
4.987909682e-06
5.182991238e-06
3.403349984e-06
5.105335676e-06
6.271401977e-06
6.402169025e-06
2.859448047e-06
4.940491129e-06
3.570138454e-06
3.096949458e-06
5.40208074e-06
3.57499105e-06
8.668706992e-06
6.232337428e-06
4.452312817e-06
5.195128385e-06
3.731198175e-06
2.598707608e-06
2.621821393e-06
3.831651191e-06
4.510739773e-06
3.343977269e-06
1.00310195e-05
6.432978385e-06
4.469730644e-06
4.427929867e-06
4.990216321e-06
3.73320751e-06
8.903475858e-06
2.242804587e-06
4.67534402e-06
6.754110633e-06
5.698543856e-06
5.264337004e-06
4.502743607e-06
3.484749623e-06
3.431337683e-06
5.51701401e-06
4.649854681e-06
3.096949458e-06
5.57032403e-06
7.574111926e-06
7.811217507e-06
4.586939841e-06
4.626336026e-06
3.170160542e-06
5.685329634e-06
3.31536916e-06
3.887678433e-06
6.658832962e-06
5.89126178e-06
6.87310952e-06
3.468248179e-06
5.487689433e-06
)
;

boundaryField
{
    flow
    {
        type            zeroGradient;
    }
    obstacle
    {
        type            calculated;
        value           nonuniform List<scalar> 0();
    }
    frontAndBack
    {
        type            empty;
    }
    procBoundary3to1
    {
        type            processor;
        value           nonuniform List<scalar> 
36
(
1.154346394e-05
1.523349139e-05
1.481878485e-05
1.467646899e-05
8.811896446e-06
8.811896446e-06
7.097128921e-06
1.344394994e-05
1.479337521e-05
7.727993401e-06
8.961507405e-06
8.49839279e-06
8.49839279e-06
7.638761332e-06
6.529630774e-06
7.9338614e-06
7.830639895e-06
1.124324293e-05
1.124324293e-05
5.06558415e-06
5.18483634e-06
6.511790388e-06
7.13103585e-06
6.616455313e-06
5.929382849e-06
5.929382849e-06
3.827685787e-06
4.839494359e-06
4.036910535e-06
5.449923834e-06
5.49138982e-06
3.584180113e-06
2.827258131e-06
2.827258131e-06
5.364394696e-06
5.364394696e-06
)
;
    }
    procBoundary3to2
    {
        type            processor;
        value           nonuniform List<scalar> 
19
(
3.771982481e-06
4.289775436e-06
7.914326117e-06
5.177929508e-06
7.617680863e-06
4.363491336e-06
6.138017944e-06
3.106757727e-06
3.401621327e-06
5.251645445e-06
5.251645445e-06
3.624550681e-06
3.254189527e-06
5.251645407e-06
5.990586142e-06
3.106757727e-06
5.399077245e-06
6.878740208e-06
3.254189527e-06
)
;
    }
}


// ************************************************************************* //
