/*--------------------------------*- C++ -*----------------------------------*\
| =========                 |                                                 |
| \\      /  F ield         | OpenFOAM: The Open Source CFD Toolbox           |
|  \\    /   O peration     | Version:  2406                                  |
|   \\  /    A nd           | Website:  www.openfoam.com                      |
|    \\/     M anipulation  |                                                 |
\*---------------------------------------------------------------------------*/
FoamFile
{
    version     2.0;
    format      ascii;
    arch        "LSB;label=32;scalar=64";
    class       volScalarField;
    location    "0.012";
    object      rhoNMean;
}
// * * * * * * * * * * * * * * * * * * * * * * * * * * * * * * * * * * * * * //

dimensions      [0 -3 0 0 0 0 0];

internalField   nonuniform List<scalar> 
654
(
2.437793946e+20
2.446214036e+20
2.485156647e+20
2.484232584e+20
2.474517592e+20
2.48715236e+20
1.977839251e+20
2.064860728e+20
2.162471435e+20
2.238629748e+20
2.313904796e+20
2.387660499e+20
2.415817143e+20
2.438778922e+20
2.473208124e+20
2.476305301e+20
2.471103174e+20
1.419705631e+20
1.502580448e+20
1.570312233e+20
1.655302023e+20
1.748101806e+20
1.841026881e+20
1.937826415e+20
2.014847892e+20
2.11617334e+20
2.197451791e+20
2.273778735e+20
2.34914094e+20
2.384086512e+20
2.418878283e+20
2.451606721e+20
2.457119471e+20
1.108354705e+20
1.132544199e+20
1.147675107e+20
1.185089793e+20
1.221056068e+20
1.266469922e+20
1.312104827e+20
1.378361373e+20
1.451118798e+20
1.530027843e+20
1.614102922e+20
1.697676851e+20
1.787418138e+20
1.881829853e+20
1.967438063e+20
2.058378256e+20
2.146262937e+20
2.236617679e+20
2.321379586e+20
2.372030136e+20
2.403926637e+20
2.438173809e+20
1.020708691e+20
1.024355093e+20
1.027062158e+20
1.038053209e+20
1.049230925e+20
1.055221993e+20
1.068655964e+20
1.080213895e+20
1.107144826e+20
1.135611322e+20
1.157679009e+20
1.189017951e+20
1.228510343e+20
1.267106244e+20
1.309740504e+20
1.361045974e+20
1.427903522e+20
1.498819073e+20
1.575047429e+20
1.660821935e+20
1.752612284e+20
1.844246098e+20
1.92926585e+20
2.026528267e+20
2.117593828e+20
2.205643196e+20
2.285699083e+20
2.348013708e+20
2.393753568e+20
1.014778864e+20
1.016697256e+20
1.022154204e+20
1.031267505e+20
1.036050212e+20
1.039799541e+20
1.050470135e+20
1.063552096e+20
1.076917222e+20
1.087289667e+20
1.097120109e+20
1.118331895e+20
1.136072024e+20
1.170010816e+20
1.204066546e+20
1.244795408e+20
1.289546871e+20
1.335624356e+20
1.390340733e+20
1.453590895e+20
1.536504023e+20
1.610181353e+20
1.700681911e+20
1.789900017e+20
1.890482694e+20
1.990307053e+20
2.066094368e+20
2.150025979e+20
2.224497179e+20
2.292781281e+20
1.009712541e+20
1.010068062e+20
1.01289537e+20
1.015057784e+20
1.02029587e+20
1.027728932e+20
1.037896336e+20
1.047058196e+20
1.051417724e+20
1.069736273e+20
1.082232005e+20
1.095089666e+20
1.111249163e+20
1.132361195e+20
1.156588854e+20
1.182853879e+20
1.212308322e+20
1.246206867e+20
1.299134474e+20
1.350617777e+20
1.404628404e+20
1.485073661e+20
1.569555036e+20
1.660202969e+20
1.756796358e+20
1.839741912e+20
1.944375992e+20
2.042135444e+20
2.135323486e+20
2.214268367e+20
1.00933865e+20
1.012987171e+20
1.015532616e+20
1.019263138e+20
1.022857395e+20
1.021189076e+20
1.018752081e+20
1.025322479e+20
1.033067612e+20
1.03651092e+20
1.040170094e+20
1.060297487e+20
1.074353058e+20
1.090392809e+20
1.108923677e+20
1.136518531e+20
1.164381045e+20
1.207210847e+20
1.23260883e+20
1.280680346e+20
1.339807838e+20
1.395054477e+20
1.449193805e+20
1.529336684e+20
1.61101864e+20
1.693914853e+20
1.792770773e+20
1.884972801e+20
1.983368261e+20
2.066311764e+20
1.006366151e+20
1.007337283e+20
1.010144277e+20
1.014981323e+20
1.013959466e+20
1.015910602e+20
1.018028549e+20
1.022189234e+20
1.024071291e+20
1.032427812e+20
1.03936315e+20
1.052163704e+20
1.056909392e+20
1.064066997e+20
1.079737098e+20
1.097303611e+20
1.113721694e+20
1.143014761e+20
1.180103321e+20
1.219539402e+20
1.261405398e+20
1.320723447e+20
1.369443333e+20
1.418527569e+20
1.495753039e+20
1.585053843e+20
1.668303933e+20
1.75962493e+20
1.855805866e+20
1.955700416e+20
1.002346743e+20
1.002440707e+20
1.000733628e+20
9.982554754e+19
1.004214122e+20
1.008148168e+20
1.017226805e+20
1.020849226e+20
1.027189221e+20
1.025962871e+20
1.036760758e+20
1.037421269e+20
1.041577019e+20
1.053053137e+20
1.064591729e+20
1.078378789e+20
1.099870874e+20
1.127510329e+20
1.153182941e+20
1.175904516e+20
1.211174358e+20
1.254612148e+20
1.315927175e+20
1.367957418e+20
1.423408627e+20
1.497914666e+20
1.575386823e+20
1.650056239e+20
1.72824347e+20
1.819210943e+20
9.98589072e+19
9.977136489e+19
1.001758188e+20
1.002804904e+20
1.005311904e+20
1.005043173e+20
1.00539607e+20
1.005990893e+20
1.011083217e+20
1.016575708e+20
1.020581537e+20
1.025891638e+20
1.034382271e+20
1.045531476e+20
1.051529637e+20
1.06079823e+20
1.067764031e+20
1.087062102e+20
1.110433377e+20
1.137851603e+20
1.166288473e+20
1.205072876e+20
1.239631527e+20
1.292135921e+20
1.340084392e+20
1.395165096e+20
1.458726601e+20
1.531094644e+20
1.616417626e+20
1.711852189e+20
1.013731956e+20
1.013156668e+20
1.006956804e+20
1.005958927e+20
1.003366693e+20
1.008652712e+20
1.006745367e+20
1.007429446e+20
1.009613627e+20
1.009230103e+20
1.017172209e+20
1.023207511e+20
1.028601889e+20
1.030715458e+20
1.043363234e+20
1.060588204e+20
1.070474898e+20
1.079822416e+20
1.093139725e+20
1.100254813e+20
1.124929483e+20
1.140839729e+20
1.170758156e+20
1.208669325e+20
1.251655882e+20
1.302601181e+20
1.364862563e+20
1.431897829e+20
1.513883146e+20
1.593714811e+20
9.915410806e+19
9.980526277e+19
1.000714663e+20
1.003301908e+20
1.001517773e+20
1.003529502e+20
1.001113553e+20
1.003310886e+20
1.00325861e+20
1.00937021e+20
1.010151795e+20
1.012796282e+20
1.02331344e+20
1.028731716e+20
1.031051111e+20
1.042104455e+20
1.047644313e+20
1.058423733e+20
1.06822223e+20
1.084703508e+20
1.09892677e+20
1.117550531e+20
1.138550382e+20
1.163900453e+20
1.200454458e+20
1.242791715e+20
1.28709675e+20
1.349971865e+20
1.406714724e+20
1.479542281e+20
9.952613765e+19
9.946627096e+19
9.948330166e+19
9.959043001e+19
9.960480501e+19
9.937682145e+19
1.002541061e+20
1.001675296e+20
1.005701319e+20
1.013433318e+20
1.010212331e+20
1.014199357e+20
1.016426167e+20
1.021747325e+20
1.03159276e+20
1.035719173e+20
1.03934229e+20
1.043901666e+20
1.04690128e+20
1.062093301e+20
1.070470558e+20
1.091499302e+20
1.111892589e+20
1.136895229e+20
1.159506921e+20
1.193488389e+20
1.232519813e+20
1.272870572e+20
1.327091138e+20
1.387306806e+20
9.895968091e+19
9.866398549e+19
9.866556311e+19
9.911063808e+19
9.934287463e+19
1.002248698e+20
1.007820894e+20
1.009932107e+20
1.007965294e+20
1.006147751e+20
1.011806029e+20
1.01670049e+20
1.015175807e+20
1.015734129e+20
1.010426755e+20
1.018222632e+20
1.018904884e+20
1.021926363e+20
1.031718186e+20
1.039569964e+20
1.043854471e+20
1.056322452e+20
1.068629422e+20
1.086549935e+20
1.111821768e+20
1.141369683e+20
1.172191833e+20
1.21891365e+20
1.250831277e+20
1.298347686e+20
1.001019404e+20
1.001743895e+20
1.002099703e+20
1.003913595e+20
1.001440742e+20
1.002733851e+20
9.994904879e+19
1.005931783e+20
1.010328566e+20
1.010591141e+20
1.00567326e+20
1.006207931e+20
1.006730699e+20
1.008150477e+20
1.008176834e+20
1.009736934e+20
1.011449999e+20
1.018039566e+20
1.020347017e+20
1.030599729e+20
1.03971419e+20
1.051328751e+20
1.064728827e+20
1.080906045e+20
1.089544508e+20
1.101244945e+20
1.124682403e+20
1.155936707e+20
1.203221771e+20
1.242317884e+20
1.004384497e+20
1.009898566e+20
1.01325585e+20
1.006073618e+20
1.004791902e+20
1.003917617e+20
1.000214027e+20
9.985617415e+19
9.951956742e+19
9.924773195e+19
9.930244311e+19
9.949629988e+19
9.994129636e+19
1.002054626e+20
1.004968592e+20
1.013874753e+20
1.022928827e+20
1.028012817e+20
1.039406646e+20
1.036572655e+20
1.050404438e+20
1.051151974e+20
1.046318016e+20
1.059612176e+20
1.07382338e+20
1.080484435e+20
1.096943557e+20
1.119110827e+20
1.13893484e+20
1.184103905e+20
1.012460694e+20
1.010143394e+20
1.011434437e+20
1.012935984e+20
1.010107548e+20
1.010224615e+20
1.010558574e+20
1.011291812e+20
1.004688489e+20
1.003205513e+20
1.002970007e+20
1.005516561e+20
1.00529585e+20
1.012262601e+20
1.015926591e+20
1.010367053e+20
1.010666397e+20
1.013191759e+20
1.010461845e+20
1.017394151e+20
1.021838695e+20
1.023995963e+20
1.03894031e+20
1.040049681e+20
1.059327275e+20
1.069703625e+20
1.088490241e+20
1.101303878e+20
1.114424418e+20
1.13842538e+20
1.000944625e+20
9.955478442e+19
9.954781003e+19
9.964586496e+19
9.979354896e+19
9.983092476e+19
9.951688606e+19
1.001911768e+20
1.004410457e+20
1.004906804e+20
1.01233055e+20
1.01279629e+20
1.010522798e+20
1.004575622e+20
1.002385348e+20
1.005662103e+20
1.003275031e+20
1.011184297e+20
1.01024649e+20
1.012528939e+20
1.020546218e+20
1.029475776e+20
1.031473464e+20
1.040814192e+20
1.044173278e+20
1.050682704e+20
1.058464845e+20
1.072262701e+20
1.094712592e+20
1.106968003e+20
9.960278754e+19
9.931937388e+19
9.983809846e+19
9.972232594e+19
1.000862947e+20
1.001724725e+20
1.002462842e+20
9.98522337e+19
1.000001663e+20
9.96620481e+19
9.990764981e+19
9.922991825e+19
9.952928987e+19
1.005856784e+20
1.007614343e+20
1.009673913e+20
1.0115559e+20
1.010073794e+20
1.019270202e+20
1.02169466e+20
1.017326017e+20
1.017720701e+20
1.015759637e+20
1.028739416e+20
1.041768603e+20
1.054322086e+20
1.053776262e+20
1.056739889e+20
1.073754055e+20
1.085553212e+20
9.983086411e+19
1.002007549e+20
9.948519896e+19
9.978731778e+19
9.964910206e+19
9.998617449e+19
1.007488453e+20
1.013755061e+20
1.014419609e+20
1.013933692e+20
1.012491938e+20
1.013568998e+20
1.015606254e+20
1.009927564e+20
1.011364226e+20
1.015219025e+20
1.017274128e+20
1.008087688e+20
1.006176137e+20
1.007142462e+20
1.012966657e+20
1.024062251e+20
1.033390328e+20
1.031505147e+20
1.02498126e+20
1.035415611e+20
1.049849853e+20
1.068067347e+20
1.082175102e+20
1.092343271e+20
1.006235286e+20
1.008316597e+20
1.010751407e+20
1.012438988e+20
1.010666084e+20
1.006440421e+20
9.99783819e+19
9.949161329e+19
9.999817964e+19
1.003385651e+20
1.003595388e+20
1.007855019e+20
1.002877106e+20
1.00414168e+20
1.005114421e+20
1.004800929e+20
1.003486834e+20
1.00531141e+20
1.010354172e+20
1.011508113e+20
1.01031601e+20
1.009589356e+20
1.010187349e+20
1.017181818e+20
1.023642809e+20
1.035324054e+20
1.038417103e+20
1.046018418e+20
1.053524724e+20
1.068862986e+20
1.000271615e+20
9.979208042e+19
9.961421572e+19
9.985995571e+19
1.001883705e+20
1.004868525e+20
1.005532962e+20
1.002542352e+20
1.00184859e+20
9.998829705e+19
9.989352908e+19
1.004621847e+20
1.010666275e+20
1.013957033e+20
1.006968538e+20
1.009715922e+20
1.012191243e+20
1.017719226e+20
1.019550174e+20
1.018480145e+20
1.016493571e+20
1.01584253e+20
1.019415052e+20
1.019790141e+20
1.022145559e+20
1.018729388e+20
1.031187909e+20
1.034201512e+20
1.046162198e+20
1.054998009e+20
9.845491812e+19
9.898979639e+19
9.880406711e+19
9.910108045e+19
9.870730826e+19
9.834441564e+19
9.874642265e+19
9.900487603e+19
9.891981344e+19
9.881940511e+19
9.916526198e+19
9.820506444e+19
9.818258285e+19
9.813080674e+19
9.80802681e+19
9.872203786e+19
9.886617787e+19
9.860483162e+19
9.805048543e+19
9.866390573e+19
9.931634203e+19
1.001612701e+20
9.962789487e+19
9.990808884e+19
9.971006359e+19
1.001081819e+20
1.00340287e+20
1.005999407e+20
1.00782055e+20
1.019599515e+20
)
;

boundaryField
{
    flow
    {
        type            calculated;
        value           nonuniform List<scalar> 
55
(
2.437793946e+20
2.48715236e+20
2.471103174e+20
2.457119471e+20
2.438173809e+20
2.393753568e+20
2.292781281e+20
2.214268367e+20
2.066311764e+20
1.955700416e+20
1.819210943e+20
1.711852189e+20
1.593714811e+20
1.479542281e+20
1.387306806e+20
1.298347686e+20
1.242317884e+20
1.184103905e+20
1.13842538e+20
1.106968003e+20
1.085553212e+20
1.092343271e+20
1.068862986e+20
1.054998009e+20
1.019599515e+20
9.845491812e+19
9.898979639e+19
9.880406711e+19
9.910108045e+19
9.870730826e+19
9.834441564e+19
9.874642265e+19
9.900487603e+19
9.891981344e+19
9.881940511e+19
9.916526198e+19
9.820506444e+19
9.818258285e+19
9.813080674e+19
9.80802681e+19
9.872203786e+19
9.886617787e+19
9.860483162e+19
9.805048543e+19
9.866390573e+19
9.931634203e+19
1.001612701e+20
9.962789487e+19
9.990808884e+19
9.971006359e+19
1.001081819e+20
1.00340287e+20
1.005999407e+20
1.00782055e+20
1.019599515e+20
)
;
    }
    obstacle
    {
        type            calculated;
        value           nonuniform List<scalar> 0();
    }
    frontAndBack
    {
        type            empty;
    }
    procBoundary3to1
    {
        type            processor;
        value           nonuniform List<scalar> 
36
(
2.388435509e+20
2.485491851e+20
2.480260174e+20
2.476191488e+20
2.464097135e+20
2.464097135e+20
2.117149402e+20
2.203132927e+20
2.293677578e+20
2.349206037e+20
2.40400468e+20
2.423617234e+20
2.423617234e+20
1.540076881e+20
1.621233437e+20
1.702128154e+20
1.792257909e+20
1.880011669e+20
1.880011669e+20
1.148053703e+20
1.171073599e+20
1.222498933e+20
1.261099842e+20
1.306900993e+20
1.357329102e+20
1.357329102e+20
1.025755909e+20
1.03171663e+20
1.036696242e+20
1.051323072e+20
1.055751383e+20
1.070201045e+20
1.088204308e+20
1.088204308e+20
1.013432837e+20
1.013432837e+20
)
;
    }
    procBoundary3to2
    {
        type            processor;
        value           nonuniform List<scalar> 
19
(
1.010661323e+20
1.003237768e+20
1.010290146e+20
1.005112209e+20
1.000509612e+20
1.001660263e+20
1.011552157e+20
9.928076738e+19
9.911559328e+19
9.935314704e+19
1.001029261e+20
1.003775976e+20
1.011533591e+20
9.98022714e+19
9.943480685e+19
1.002532531e+20
1.001103496e+20
1.003033621e+20
9.872956843e+19
)
;
    }
}


// ************************************************************************* //
