/*--------------------------------*- C++ -*----------------------------------*\
| =========                 |                                                 |
| \\      /  F ield         | OpenFOAM: The Open Source CFD Toolbox           |
|  \\    /   O peration     | Version:  2406                                  |
|   \\  /    A nd           | Website:  www.openfoam.com                      |
|    \\/     M anipulation  |                                                 |
\*---------------------------------------------------------------------------*/
FoamFile
{
    version     2.0;
    format      ascii;
    arch        "LSB;label=32;scalar=64";
    class       volScalarField;
    location    "0.012";
    object      rhoN;
}
// * * * * * * * * * * * * * * * * * * * * * * * * * * * * * * * * * * * * * //

dimensions      [0 -3 0 0 0 0 0];

internalField   nonuniform List<scalar> 
654
(
3.561214751e+20
3.158708895e+20
1.940103145e+20
2.37736758e+20
2.96383217e+20
2.564074597e+20
1.563818345e+20
1.05149975e+20
1.988642026e+20
2.808428734e+20
2.698273915e+20
2.177818603e+20
1.098681335e+20
1.801524333e+20
2.097677277e+20
2.540427574e+20
3.561214751e+20
7.499765615e+19
1.638330863e+20
1.27071904e+20
1.409494691e+20
2.325920846e+20
2.345727537e+20
1.708687094e+20
1.193185206e+20
2.139755226e+20
1.888791741e+20
2.177818603e+20
2.746703363e+20
2.49441833e+20
2.097677277e+20
3.104967063e+20
2.564074621e+20
5.957828555e+19
8.406414597e+19
1.331456443e+20
1.830097484e+20
1.598831179e+20
4.959336608e+19
8.749726551e+19
1.764356329e+20
8.895033354e+19
1.665766453e+20
1.033742598e+20
2.345727517e+20
2.1029995e+20
1.723489756e+20
3.34336754e+20
2.023705437e+20
2.041704958e+20
2.746703387e+20
1.940103128e+20
2.796903011e+20
2.540427574e+20
2.279177441e+20
6.779865104e+19
1.138383137e+20
1.605680649e+20
5.777876037e+19
1.164367461e+20
8.213061732e+19
1.655303355e+20
8.340959977e+19
7.205498281e+19
8.472904767e+19
1.342071499e+20
6.149350687e+19
7.439004971e+19
1.999937513e+20
5.041018041e+19
7.62431418e+19
1.025087031e+20
1.162960413e+20
1.303181954e+20
1.182937209e+20
1.723489727e+20
2.407224608e+20
2.428446524e+20
2.450045928e+20
2.746703339e+20
2.078681923e+20
2.657057884e+20
2.68156244e+20
3.133868952e+20
1.570373143e+20
1.129977501e+20
7.968681846e+19
1.146914741e+20
8.089026452e+19
9.314939619e+19
1.52528287e+20
8.276516651e+19
1.191565702e+20
1.561191282e+20
1.210414948e+20
6.100324899e+19
1.721818165e+20
1.487800971e+20
7.499765675e+19
8.821781714e+19
8.895033354e+19
1.409494691e+20
1.679831736e+20
1.172863778e+20
1.708687108e+20
1.723489756e+20
1.604816419e+20
1.888791757e+20
2.722273301e+20
2.884038556e+20
2.771575922e+20
2.237522429e+20
2.540427574e+20
2.279177441e+20
1.009525592e+20
1.468970762e+20
1.366059765e+20
1.032223275e+20
1.040017687e+20
9.314939619e+19
8.21306167e+19
7.094157237e+19
4.766262844e+19
4.803665484e+19
7.262489688e+19
8.540454926e+19
1.106883124e+20
9.918673216e+19
1.374957029e+20
1.008203608e+20
1.27071904e+20
1.153222929e+20
1.421396072e+20
1.954772931e+20
2.102999483e+20
1.458337474e+20
2.006020524e+20
1.753878045e+20
2.04170494e+20
2.472033026e+20
2.49441833e+20
2.657057884e+20
3.104967063e+20
2.421626031e+20
1.682542666e+20
1.129977509e+20
7.968681904e+19
4.587658998e+19
6.933451245e+19
1.280804207e+20
1.290623977e+20
8.276516713e+19
1.191565711e+20
4.803665484e+19
6.052074787e+19
1.342071499e+20
1.229870137e+20
1.239834152e+20
1.499953123e+20
1.134229068e+20
1.397790956e+20
1.153222929e+20
1.162960423e+20
1.042545563e+20
1.708687094e+20
1.325761351e+20
2.273489927e+20
1.484050653e+20
1.361136639e+20
2.060027522e+20
1.801524333e+20
3.635973946e+20
1.975888113e+20
2.848971801e+20
7.851865717e+19
7.909842564e+19
1.252221451e+20
6.881488497e+19
1.271132728e+20
1.280804198e+20
1.290623977e+20
1.655303355e+20
1.310722282e+20
9.607331042e+19
1.452497949e+20
1.22006498e+20
9.838961021e+19
1.239834152e+20
1.37495704e+20
6.301272602e+19
1.524862836e+20
1.537630559e+20
1.292178248e+20
1.172863768e+20
7.886248193e+19
1.590913608e+20
1.069877604e+20
1.753878045e+20
1.361136627e+20
2.19736269e+20
1.247209165e+20
1.817986973e+20
1.552483518e+20
2.136728831e+20
1.346034123e+20
9.039820007e+19
1.479898057e+20
4.587658964e+19
9.244601728e+19
1.047930723e+20
8.213061732e+19
1.064123585e+20
9.532525688e+19
1.321008008e+20
1.210414957e+20
3.660194997e+19
1.229870137e+20
9.918673216e+19
6.249804679e+19
8.821781643e+19
1.779006671e+20
1.793902334e+20
1.809049547e+20
7.819091724e+19
1.577249612e+20
1.060609072e+20
1.471081718e+20
1.349136958e+20
1.225022964e+20
1.373351669e+20
2.078681905e+20
2.796903011e+20
2.117022979e+20
2.706523211e+20
7.851865773e+19
9.039820138e+19
6.830298825e+19
1.261606215e+20
1.040017679e+20
1.397240943e+20
1.290623967e+20
1.064123569e+20
1.310722272e+20
6.004581855e+19
1.089373453e+20
7.320389879e+19
9.838961021e+19
1.115850737e+20
9.999687487e+19
7.561527061e+19
1.27071904e+20
6.40679405e+19
1.292178248e+20
1.042545563e+20
1.708687094e+20
1.193185216e+20
9.361429112e+19
2.293532828e+20
1.76947763e+20
1.785357201e+20
2.217260738e+20
1.398451518e+20
1.552483532e+20
1.851831671e+20
7.851865773e+19
6.779865055e+19
1.024544824e+20
1.835063599e+20
1.271132728e+20
5.821837262e+19
9.386356194e+19
1.182359539e+20
1.07240914e+20
1.321008008e+20
9.683319659e+19
8.540454992e+19
8.609090961e+19
7.439004912e+19
9.999687567e+19
1.134229078e+20
1.143647136e+20
1.793902319e+20
1.938267371e+20
1.042545572e+20
1.708687094e+20
1.590913608e+20
9.361429112e+19
1.214223272e+20
1.76947763e+20
1.922692354e+20
8.314727766e+19
1.538296683e+20
1.552483532e+20
2.27917742e+20
1.009525592e+20
1.468970751e+20
9.107065033e+19
8.028403246e+19
1.386690249e+20
6.986204766e+19
7.039767146e+19
1.064123577e+20
4.766262844e+19
1.080824734e+20
9.683319584e+19
1.220064989e+20
1.35285714e+20
1.239834142e+20
6.249804679e+19
6.301272551e+19
1.27071904e+20
7.68815286e+19
1.162960433e+20
9.122273754e+19
1.05149975e+20
1.060609081e+20
4.012041048e+19
1.484050653e+20
1.497250302e+20
1.098681345e+20
1.108630359e+20
1.398451518e+20
1.834753248e+20
9.971401303e+19
1.009525599e+20
1.016979766e+20
1.366059755e+20
5.734573705e+19
1.271132728e+20
3.493102357e+19
1.290623977e+20
5.911797697e+19
1.310722282e+20
9.607331042e+19
8.472904767e+19
6.100324947e+19
8.609090894e+19
4.959336608e+19
9.999687487e+19
1.26025452e+20
1.270719051e+20
7.68815286e+19
7.753069486e+19
6.515909824e+19
2.628749375e+19
1.060609063e+20
8.024082027e+19
9.443958704e+19
9.527956387e+19
4.120055044e+19
1.385787961e+20
8.390709107e+19
9.879440567e+19
7.122429437e+19
8.973560819e+19
1.016979751e+20
1.024544816e+20
6.881488497e+19
1.040017687e+20
8.150572227e+19
1.642612346e+20
8.276516776e+19
9.532525688e+19
7.205498226e+19
6.05207474e+19
7.320389936e+19
1.598831179e+20
1.115850737e+20
8.749726551e+19
6.301272551e+19
5.082876161e+19
1.537630572e+20
9.045247734e+19
7.819091724e+19
9.200622814e+19
1.193185216e+20
1.604816419e+20
9.443958704e+19
1.769477615e+20
6.866758346e+19
5.543151795e+19
1.118761214e+20
1.693618398e+20
9.971401394e+19
1.346034123e+20
1.016979758e+20
9.1070651e+19
8.028403246e+19
1.386690259e+20
8.150572227e+19
1.173294515e+20
9.458876244e+19
7.149394266e+19
6.004581855e+19
8.472904636e+19
1.09805849e+20
6.149350687e+19
1.239834152e+20
9.999687567e+19
1.134229078e+20
6.353595201e+19
1.537630559e+20
1.421396072e+20
7.819091724e+19
9.200622814e+19
5.303045403e+19
1.471081718e+20
8.094821746e+19
1.361136639e+20
8.240110161e+19
4.157363846e+19
1.258606355e+20
1.129078922e+20
9.971401212e+19
1.570373155e+20
1.016979758e+20
1.138383129e+20
8.028403246e+19
5.777876037e+19
1.047930707e+20
7.039767146e+19
9.458876244e+19
1.310722272e+20
8.406414597e+19
9.683319659e+19
1.586084486e+20
9.838961021e+19
1.487800982e+20
9.999687487e+19
8.821781572e+19
6.353595201e+19
1.025087048e+20
9.045247734e+19
6.515909824e+19
1.445812157e+20
1.458337474e+20
1.337347016e+20
1.349136969e+20
6.805683193e+19
2.19736269e+20
9.700515727e+19
9.789160625e+19
1.270213787e+20
1.13958872e+20
1.009525592e+20
1.355973011e+20
9.107065033e+19
1.032223267e+20
5.777876037e+19
1.513677699e+20
7.039767146e+19
1.300595484e+20
7.149394266e+19
1.321008018e+20
9.683319659e+19
9.760519915e+19
6.149350687e+19
8.678839133e+19
1.249960946e+20
1.512305424e+20
1.270719051e+20
8.969511596e+19
7.753069422e+19
9.122273678e+19
1.182937219e+20
1.193185206e+20
9.361429032e+19
1.079309566e+20
1.225022975e+20
2.060027522e+20
1.662945538e+20
1.118761214e+20
1.270213787e+20
8.546915325e+19
1.009525592e+20
4.519910004e+19
1.366059755e+20
9.175317996e+19
1.155575207e+20
1.862987924e+20
5.866472621e+19
8.276516776e+19
1.429878853e+20
4.803665484e+19
8.472904702e+19
7.320389993e+19
1.598831179e+20
8.678839064e+19
1.499953135e+20
1.134229068e+20
7.62431418e+19
3.844076398e+19
7.753069486e+19
5.212727816e+19
1.182937209e+20
7.954568038e+19
1.471081718e+20
6.745684789e+19
6.805683133e+19
8.240110088e+19
1.108630369e+20
5.593806071e+19
7.056743326e+19
9.971401394e+19
5.608475592e+19
1.016979766e+20
1.024544824e+20
1.146914749e+20
1.040017687e+20
9.314939619e+19
1.407953429e+20
4.729438158e+19
1.549035424e+20
4.803665484e+19
8.472904636e+19
1.342071478e+20
9.838961021e+19
7.439004912e+19
1.249960936e+20
1.638330877e+20
7.624314304e+19
7.68815286e+19
1.292178248e+20
7.819091789e+19
1.577249639e+20
6.628806754e+19
9.361429112e+19
1.079309566e+20
9.527956387e+19
8.240110088e+19
2.771575922e+19
9.789160625e+19
9.879440567e+19
1.424485887e+20
7.851865717e+19
6.779865006e+19
9.107065033e+19
1.032223275e+20
1.386690249e+20
8.150572227e+19
1.055965072e+20
1.18235953e+20
1.310722282e+20
1.080824734e+20
1.331456453e+20
9.760519991e+19
1.721818179e+20
7.439004853e+19
1.249960936e+20
8.821781572e+19
1.27071904e+20
1.28135881e+20
7.75306955e+19
7.819091789e+19
1.577249612e+20
1.32576134e+20
1.337347016e+20
9.443958704e+19
9.52795647e+19
1.098681345e+20
1.247209154e+20
1.258606366e+20
1.129078922e+20
8.546915403e+19
1.346034123e+20
1.016979758e+20
1.024544816e+20
6.881488446e+19
5.77787608e+19
8.150572227e+19
2.346589049e+19
7.094157183e+19
1.429878842e+20
1.080824742e+20
8.472904702e+19
1.220064989e+20
1.229870137e+20
1.115850737e+20
1.124964842e+20
5.041018082e+19
6.353595253e+19
1.409494691e+20
7.753069486e+19
7.819091724e+19
6.571873439e+19
1.193185206e+20
9.361429032e+19
8.094821816e+19
9.52795647e+19
1.373351681e+20
6.928939743e+19
6.992257527e+19
5.64539461e+19
1.282037299e+20
5.608475552e+19
1.016979758e+20
3.415149387e+19
1.146914749e+20
9.24460166e+19
9.314939689e+19
1.055965072e+20
1.064123577e+20
7.149394266e+19
1.080824734e+20
1.331456453e+20
1.342071488e+20
6.149350638e+19
9.918673216e+19
7.499765675e+19
6.301272602e+19
1.143647127e+20
7.688152797e+19
1.809049547e+20
1.303181965e+20
9.200622814e+19
1.060609072e+20
8.024082096e+19
5.396547831e+19
5.444546554e+19
8.240110088e+19
9.700515641e+19
6.992257589e+19
2.117022998e+20
1.282037322e+20
8.973560819e+19
9.039820073e+19
1.024544824e+20
8.028403246e+19
1.848920332e+20
4.65746981e+19
9.386356194e+19
1.418831447e+20
1.191565711e+20
1.080824734e+20
9.683319584e+19
7.320389936e+19
7.379220824e+19
1.115850737e+20
9.999687487e+19
6.301272602e+19
1.143647146e+20
1.537630572e+20
1.679831722e+20
9.122273678e+19
9.200622814e+19
6.628806754e+19
1.203612314e+20
6.745684789e+19
8.16681976e+19
1.373351681e+20
1.247209165e+20
1.398451518e+20
7.056743262e+19
1.13958871e+20
)
;

boundaryField
{
    flow
    {
        type            zeroGradient;
    }
    obstacle
    {
        type            calculated;
        value           nonuniform List<scalar> 0();
    }
    frontAndBack
    {
        type            empty;
    }
    procBoundary3to1
    {
        type            processor;
        value           nonuniform List<scalar> 
36
(
2.421626031e+20
3.158708839e+20
3.048733487e+20
3.076593339e+20
1.834753248e+20
1.834753248e+20
1.433500149e+20
2.760186821e+20
3.049251055e+20
1.604816405e+20
1.888791757e+20
1.769477646e+20
1.769477646e+20
1.62494923e+20
1.386279984e+20
1.651934752e+20
1.665766439e+20
2.325920846e+20
2.325920846e+20
1.07240914e+20
1.080824734e+20
1.331456453e+20
1.464077987e+20
1.35285714e+20
1.239834152e+20
1.239834152e+20
7.909842506e+19
1.024544816e+20
8.028403246e+19
1.155575216e+20
1.164367461e+20
7.039767146e+19
5.911797697e+19
5.911797697e+19
1.12169511e+20
1.12169511e+20
)
;
    }
    procBoundary3to2
    {
        type            processor;
        value           nonuniform List<scalar> 
19
(
7.794732648e+19
8.908265883e+19
1.670299853e+20
1.113533227e+20
1.55894653e+20
8.908265883e+19
1.224886568e+20
6.681199412e+19
6.681199412e+19
1.113533235e+20
1.113533235e+20
7.794732648e+19
6.681199412e+19
1.113533227e+20
1.224886568e+20
6.681199412e+19
1.113533235e+20
1.447593206e+20
6.681199412e+19
)
;
    }
}


// ************************************************************************* //
