/*--------------------------------*- C++ -*----------------------------------*\
| =========                 |                                                 |
| \\      /  F ield         | OpenFOAM: The Open Source CFD Toolbox           |
|  \\    /   O peration     | Version:  2406                                  |
|   \\  /    A nd           | Website:  www.openfoam.com                      |
|    \\/     M anipulation  |                                                 |
\*---------------------------------------------------------------------------*/
FoamFile
{
    version     2.0;
    format      ascii;
    arch        "LSB;label=32;scalar=64";
    class       volScalarField;
    location    "0.012";
    object      translationalT;
}
// * * * * * * * * * * * * * * * * * * * * * * * * * * * * * * * * * * * * * //

dimensions      [1 2 -2 0 0 0 0];

internalField   nonuniform List<scalar> 
654
(
753.6787051
769.2186584
767.1778759
762.9882042
752.7702605
749.1247855
757.1518144
762.5708334
767.7076951
763.8154458
765.485104
764.9102204
761.240084
760.9305771
753.839524
748.1421494
743.8984969
658.1840238
690.1166224
706.2318394
726.464327
736.427915
743.3415419
751.2328934
752.2688966
757.2174458
756.0154699
758.285012
758.4795653
753.5251119
752.3696061
748.9797839
743.6043942
467.7541951
490.4125026
515.463994
549.1544762
569.9740673
593.7278131
617.5893389
651.3099278
670.2976767
693.5140525
712.5955429
722.8748227
732.6957807
740.318429
741.3134356
740.867433
744.3611485
748.0923554
747.3022424
746.1664732
742.5941335
739.824237
337.7248462
348.0871296
358.8276588
373.5132855
390.3353449
399.8368459
414.6016113
427.2394545
449.3715546
473.9111411
488.5049935
516.2097839
545.7168529
566.700501
593.3759246
623.8177839
642.3781566
665.5104864
686.8713104
703.8973033
723.7021521
730.2002482
730.2055115
737.9198029
746.9441299
743.0212654
742.7993682
735.0668607
729.6115487
326.5411261
332.2296462
340.3213665
343.0955935
354.1373309
363.2693188
378.449467
390.5999392
399.4769653
420.3239903
433.3769477
459.4996766
473.2363503
499.4109941
528.5692394
549.575898
577.030639
602.7756914
624.7415437
649.4370575
671.1625784
688.8185292
704.8092595
716.3050151
730.6826801
730.364254
733.2169834
733.8973799
730.584275
730.1921279
319.9377543
323.6506581
331.1259625
336.259183
342.7038258
349.0464856
354.3286123
368.1027749
375.5531652
395.0131105
405.0613054
422.3411159
441.135017
463.5605122
492.3310548
508.7093158
536.4099871
559.9248285
586.0305413
610.4562594
630.9451814
654.7376488
670.6334731
686.1984612
703.4819753
713.7983432
723.3646062
726.6384013
728.4918946
723.1662622
314.7858457
320.5011914
320.1985904
325.4275676
329.2408514
337.6689309
343.1165111
347.4061571
363.6911293
373.6444609
388.6880254
401.5001532
407.9089942
428.0073097
451.2587792
469.0641006
491.4913332
522.7868389
542.13118
570.1958361
597.0740895
625.3990528
639.110188
662.9114377
680.3897872
692.1539603
706.5117974
718.3290298
724.5597835
720.0813084
311.0720067
312.752436
317.5185349
318.8420297
319.9223081
327.4397717
336.5910114
340.1651597
346.9251978
356.8921836
370.5602751
377.1318077
387.0522754
399.2530305
418.4629409
434.539604
455.2824811
483.802454
505.1525084
534.4975926
555.8650695
592.4062659
613.0692104
627.142904
653.3813306
674.0545187
685.7080048
699.388413
702.4706692
712.6351629
307.8364679
308.2102193
310.0419483
314.6599664
319.3327625
321.1975841
326.4448117
332.8843725
337.5899082
342.1206046
351.0737965
363.4977805
366.1591909
379.4879245
393.2291018
404.9528841
421.3286755
443.021841
465.9393066
484.8251995
515.7418557
541.638021
573.5205165
586.5306664
607.9493115
635.3363895
653.2203029
669.9402558
683.5030522
693.5053836
308.097276
308.0484179
306.9033891
310.2348051
313.5095162
317.4324799
317.7787651
322.191713
326.7347531
330.5697198
337.5565439
348.4550349
354.6437697
365.2611812
381.4031039
394.1974597
402.7266882
420.819461
431.2163177
453.4508451
472.7707414
493.2236096
521.8359767
549.0782851
566.9229893
594.7747777
620.7047605
639.2998009
657.3734669
669.2413854
303.3152552
303.1973358
303.6670068
306.9572924
309.6685012
314.3262176
313.8788384
316.9484852
321.8323126
321.7876101
330.8944387
339.327562
345.154236
348.066793
357.6597884
370.354027
378.9750131
394.9940064
412.4856173
424.833973
441.150661
459.2126741
490.0548289
512.2895842
534.9944217
558.4291449
583.3991334
607.8949369
626.7953357
648.1472637
303.2205157
304.7090805
306.4523568
307.7949516
305.7776862
310.9643377
311.1112459
316.1245403
316.58032
319.9462473
319.944335
327.2000064
331.9691877
337.1564652
347.7023737
358.0971542
362.8072708
372.8315585
385.474642
396.6502029
417.272726
433.0436477
451.4360053
475.3049211
500.8903947
520.6295957
543.4091497
574.2083494
600.2736073
615.7954663
302.4758396
301.4308286
303.9702692
307.3154995
306.9386873
305.6911695
310.5200365
310.4452642
312.6484969
317.047032
322.2532415
324.7201578
323.6935588
327.4504788
332.4774231
343.6793099
350.441125
360.1774577
371.1203431
383.8971717
386.5701866
404.9313382
425.5337387
444.6631851
461.7827815
485.0773106
509.8484671
535.5459606
555.5548031
584.5518032
300.45305
300.9609446
300.7111061
302.0809768
305.5171847
305.244861
309.4555864
310.8664029
310.7359181
313.5667302
317.2341652
317.836322
324.6342036
327.1444567
329.4145233
334.9716517
339.8113282
349.3742183
354.8747744
366.6202404
374.1265612
387.5739084
403.7740952
427.4918262
437.5580946
456.1888083
473.7737287
505.3894815
526.0522148
549.6115808
302.6696849
300.6911825
300.9027566
301.1158347
305.2391376
305.676096
306.7208772
308.3050551
307.797936
308.1113789
312.4207906
315.0612257
317.2321412
318.2330284
323.6228005
330.0424276
333.525761
339.841228
344.7008954
353.2115448
366.4096556
371.4745594
382.1908672
399.7713299
408.3328326
423.201935
440.3380785
462.6978983
496.1888194
516.2924926
303.2131738
302.1500305
302.8828804
301.05559
300.9489055
302.9730814
304.4498852
304.7962658
305.1989741
306.9894025
308.8029702
313.154478
315.3509957
314.339926
315.8177182
319.7860495
326.699337
329.159721
333.7226778
336.5784906
344.5918949
354.2605159
359.5337288
372.760603
390.2432701
403.499109
419.9186258
439.1396989
458.2313824
482.0747138
300.4744787
302.63585
302.3260316
303.274492
301.0302556
301.08923
303.1387236
304.246725
303.5828159
304.1793459
304.4749751
304.5440143
308.8201935
311.4199055
312.0157751
312.3932798
315.5370865
322.2170848
326.0421481
329.1185491
335.0471808
344.9976612
353.8882826
360.8991843
375.5448145
383.7427367
398.8757838
410.0824641
426.3971671
450.5208704
298.6269548
297.8605395
297.5921471
299.6673358
301.9907934
301.4784897
301.1892134
302.5865503
301.2035064
301.1866602
302.8762515
305.0509219
307.6329846
307.2246608
308.878565
309.5622227
313.1265795
316.9626441
320.4597603
323.5924341
326.0943284
334.6011851
339.0103841
351.7213909
356.7380546
372.1584136
380.9175861
391.8692657
405.5376027
420.7422074
299.3730494
299.3496817
299.8715586
300.8508002
302.101928
302.3899593
301.5107107
301.1020642
302.880038
301.7157896
302.4249292
301.592446
302.6185558
305.6049478
308.5611135
309.7535712
309.9801559
309.4559049
314.8593253
316.9828903
321.5498184
325.9186508
327.2265079
336.1765807
344.3463908
357.1338117
367.6786756
374.1537617
391.4135817
400.7722833
301.2839478
302.5503902
299.8234673
298.3076815
296.7681882
296.8622313
298.8441137
299.0892773
301.1816988
300.8522706
300.8075685
301.0540686
300.2332403
301.7629928
305.1168089
305.8213185
308.2772236
310.1802868
311.9534128
314.2494643
315.4511049
318.7965523
325.7134105
328.2177303
329.2460336
338.7623101
348.8614581
363.1832707
372.0596722
385.956396
301.3884581
301.5139264
301.454866
301.7260962
302.3270064
301.0697941
299.8838447
300.5420153
299.8088347
301.7144303
303.8681305
306.1407785
306.7255633
306.1934546
306.7008582
307.9707377
308.9060924
308.1256628
307.1933104
310.4352436
315.7031505
319.8660057
318.7821195
324.2795318
325.4847306
333.0398522
340.0000576
345.558218
356.5394946
369.4188954
299.4594697
299.3380958
299.3241702
299.5366238
301.2213148
303.2988325
302.8827926
301.8564718
301.9842415
300.4428746
300.4326583
300.6808505
301.7116178
303.6688931
304.4553576
302.7167596
303.4892938
305.5660377
306.0306262
307.0227502
310.9247251
310.7714435
313.5740425
317.4666065
321.3232198
323.9810482
330.358941
337.3769975
344.3875946
354.7350833
297.996886
301.4489272
301.4307791
300.1795521
300.2894974
298.9885734
299.9076368
300.7997675
301.3000768
301.0768936
301.7195162
303.1289089
303.4474178
301.8289167
302.8567135
305.9307559
304.6057984
306.7378073
304.7805759
303.7067816
305.0333687
309.4330623
312.0085333
312.9761627
316.3883988
314.9276297
318.6510291
327.6178575
329.6123623
339.9131243
)
;

boundaryField
{
    flow
    {
        type            calculated;
        value           nonuniform List<scalar> 
55
(
753.6787051
749.1247855
743.8984969
743.6043942
739.824237
729.6115487
730.1921279
723.1662622
720.0813084
712.6351629
693.5053836
669.2413854
648.1472637
615.7954663
584.5518032
549.6115808
516.2924926
482.0747138
450.5208704
420.7422074
400.7722833
385.956396
369.4188954
354.7350833
339.9131243
297.996886
301.4489272
301.4307791
300.1795521
300.2894974
298.9885734
299.9076368
300.7997675
301.3000768
301.0768936
301.7195162
303.1289089
303.4474178
301.8289167
302.8567135
305.9307559
304.6057984
306.7378073
304.7805759
303.7067816
305.0333687
309.4330623
312.0085333
312.9761627
316.3883988
314.9276297
318.6510291
327.6178575
329.6123623
339.9131243
)
;
    }
    obstacle
    {
        type            calculated;
        value           nonuniform List<scalar> 0();
    }
    frontAndBack
    {
        type            empty;
    }
    procBoundary3to1
    {
        type            processor;
        value           nonuniform List<scalar> 
36
(
758.7153345
779.2296895
775.5057711
772.3141796
763.6700928
763.6700928
767.0534803
767.5974531
773.0839543
769.2738645
773.2397435
768.6164704
768.6164704
707.5405726
725.1154007
738.0651981
749.7037746
757.3836129
757.3836129
509.8723275
530.9301562
568.6234954
588.7180733
612.1385557
633.1721863
633.1721863
352.6332924
363.5559155
377.2376846
395.5051791
414.0542903
423.0675812
442.3430845
442.3430845
333.544273
333.544273
)
;
    }
    procBoundary3to2
    {
        type            processor;
        value           nonuniform List<scalar> 
19
(
320.7109586
313.1085289
310.1719948
307.6653959
305.3095355
306.4343402
300.249673
303.2087323
302.1350874
301.1857675
301.750714
301.4285594
300.1573096
297.8303176
298.615134
299.9537675
299.7808831
300.3519775
297.8227034
)
;
    }
}


// ************************************************************************* //
