/*--------------------------------*- C++ -*----------------------------------*\
| =========                 |                                                 |
| \\      /  F ield         | OpenFOAM: The Open Source CFD Toolbox           |
|  \\    /   O peration     | Version:  2406                                  |
|   \\  /    A nd           | Website:  www.openfoam.com                      |
|    \\/     M anipulation  |                                                 |
\*---------------------------------------------------------------------------*/
FoamFile
{
    version     2.0;
    format      ascii;
    arch        "LSB;label=32;scalar=64";
    class       volVectorField;
    location    "0.012";
    object      UMean;
}
// * * * * * * * * * * * * * * * * * * * * * * * * * * * * * * * * * * * * * //

dimensions      [0 1 -1 0 0 0 0];

internalField   nonuniform List<vector> 
654
(
(1307.260052 414.8316136 1.816655191)
(1347.351777 438.7424803 -0.858384835)
(1338.248115 438.8785233 0.4049222385)
(1332.851737 432.5661703 1.399646768)
(1334.784275 428.7404793 1.945579999)
(1328.273862 424.6821151 0.3608787246)
(1430.827378 382.9082604 1.746771072)
(1419.780245 393.3133596 0.3979447563)
(1406.688098 409.1685597 -2.413047719)
(1396.891536 420.3514517 -3.870313328)
(1384.007987 431.5597593 -0.5288209202)
(1369.589982 435.3834703 -2.524502792)
(1368.581145 436.0112754 -1.767605335)
(1362.063759 438.7114387 -1.130924166)
(1357.621755 440.8518943 -1.198409773)
(1353.787444 436.5474687 0.03275134681)
(1350.973129 431.2855449 2.09992791)
(1552.428226 237.0709832 0.6026816851)
(1530.758598 262.5944336 -1.875631817)
(1515.067738 288.6402186 1.223597098)
(1496.556283 312.3519632 -4.055166432)
(1474.756622 334.2217488 -2.613283904)
(1463.164046 357.0703631 -3.085130713)
(1445.944067 371.5068396 -1.192287598)
(1431.431944 387.4236724 -3.886183033)
(1418.189955 403.921904 -5.161939116)
(1410.959745 414.4344143 -0.8577023465)
(1401.672496 428.2462151 1.014499463)
(1386.027456 437.4044582 -1.27817563)
(1383.008965 438.3673079 -0.7836263334)
(1376.213085 436.122394 -1.286717052)
(1368.665672 439.3389375 -4.672885395)
(1368.933985 434.6935569 -1.533643017)
(1665.803128 82.96700137 0.5391793494)
(1656.433075 94.34961533 -0.5106777832)
(1643.695851 115.2636566 1.596812717)
(1629.947763 134.0453594 5.803989115)
(1621.32622 156.053608 3.603503695)
(1605.899209 175.7782677 -1.932289749)
(1588.83627 193.6176608 -1.807248651)
(1565.29276 222.4698415 -2.11066267)
(1549.302794 248.3790944 -1.891972136)
(1530.982826 276.2721088 -1.198938101)
(1511.07798 298.6715704 -4.927236725)
(1494.179002 320.0705662 -0.5881161038)
(1479.111418 345.6741344 -0.817984688)
(1464.735418 362.4518582 2.315884534)
(1448.13802 380.1284968 0.4986081102)
(1435.603799 398.3022243 -2.818590821)
(1424.922955 412.1195189 -3.300442671)
(1410.286169 426.4201651 -2.472526643)
(1397.653929 430.142829 1.361382163)
(1392.526281 436.7874753 1.94530496)
(1387.452317 438.4531347 -0.3087097862)
(1384.355196 435.368905 0.05613718096)
(1722.143016 16.97385632 2.859833223)
(1717.174137 20.89789523 3.484758603)
(1713.308425 27.33635375 3.761377914)
(1708.70639 31.95304677 1.958611925)
(1703.657385 39.64777398 1.080463812)
(1700.231803 46.62021904 2.155089079)
(1691.368424 56.5346227 3.35186417)
(1683.44417 64.79248625 2.378948999)
(1674.332522 76.10741717 0.01187026966)
(1663.207939 90.44033441 -1.826551079)
(1654.292238 102.6697575 -3.984595205)
(1641.176366 123.317854 -2.553587169)
(1627.442436 142.9820083 -0.8937490756)
(1617.719914 165.0481232 -1.714076821)
(1599.808161 187.436043 -2.08970622)
(1579.65179 209.5496811 -1.710473644)
(1563.032002 230.2279839 -1.805675302)
(1544.685318 261.738495 -2.231998839)
(1526.445703 284.2890949 -0.6596953287)
(1507.060262 310.087297 -0.192686411)
(1491.689037 334.7701564 -2.622284934)
(1476.753098 354.2532509 0.3261416937)
(1465.654958 373.4308826 1.10011464)
(1449.650744 391.2848455 -0.9712404444)
(1437.733969 403.8823056 -0.490423219)
(1428.459544 416.6263836 -0.4616306613)
(1413.253172 425.5061956 -1.765250308)
(1410.390943 429.7489018 2.141361477)
(1401.897001 438.1125512 0.5800119545)
(1726.719936 11.72052305 -0.8418992319)
(1726.166029 15.27338609 -0.5547626131)
(1722.297307 17.81131878 2.635061879)
(1721.545891 18.278225 0.2187095261)
(1717.690014 22.88348438 0.1128229107)
(1712.100159 30.03834928 0.2622467035)
(1706.180714 39.01466502 0.8530204926)
(1702.285993 46.02832659 -0.6457632463)
(1697.377791 51.72107996 -3.260246037)
(1687.690451 58.6230496 -2.237066139)
(1681.313275 67.18783625 -1.57843582)
(1672.078626 84.12388203 -0.4404506268)
(1664.48834 95.91950704 0.9440310016)
(1651.208598 112.9720486 2.421068621)
(1635.677194 132.1735763 4.006127047)
(1625.710533 150.5625778 2.894668621)
(1609.648762 175.6066786 1.026686971)
(1595.732861 201.2546225 1.106097571)
(1581.768091 223.9878233 -0.9403018692)
(1559.425536 251.5228645 -2.673614029)
(1539.757531 272.5465125 -3.687228126)
(1524.08713 298.3495109 -3.228005236)
(1505.42782 323.3399174 -2.439382011)
(1489.904425 345.0307025 2.719009863)
(1473.442139 362.6978697 1.029265854)
(1457.865018 383.6931116 -1.0564261)
(1447.221647 398.4066621 -0.08125102402)
(1439.263869 412.627403 -1.202959384)
(1429.565932 423.6029862 -2.033074006)
(1421.742056 430.724528 -0.9514397201)
(1730.968374 7.961867204 0.9025951641)
(1729.16173 7.385644578 -1.228564398)
(1726.711855 13.18411152 -0.7451404893)
(1724.376321 14.87056571 -0.1773957038)
(1722.344154 18.32433901 -1.837047701)
(1719.729576 21.59305534 -0.3982238882)
(1716.599223 23.46492508 0.3169503946)
(1713.729011 29.68297464 -0.4848184995)
(1710.615331 38.12797713 0.4314255494)
(1700.662813 49.77824877 -0.9420360069)
(1694.640888 57.3582757 -3.646761175)
(1686.027797 65.61641592 -3.927883204)
(1679.271204 78.12263719 -3.696208518)
(1666.484006 91.27084775 -4.1499706)
(1652.303017 108.047095 -5.233828619)
(1644.404966 122.5770491 -4.729461804)
(1632.144643 144.4774218 -0.2784955758)
(1618.340276 165.7430096 0.2681190811)
(1601.115442 190.0917287 3.251651599)
(1588.291465 211.8225467 2.46055344)
(1573.220648 236.7744764 1.901848504)
(1549.980778 262.6156339 -0.4172654333)
(1533.357427 284.8348341 -3.807354998)
(1514.736249 307.0707035 -2.871653701)
(1497.605691 332.0022028 0.5780615416)
(1485.39314 354.2912721 1.911123494)
(1470.413446 376.239069 1.32107197)
(1459.667186 391.0326989 -0.6641748935)
(1448.885877 403.6268955 -4.113635461)
(1438.342836 413.376109 -4.59321123)
(1733.086562 7.550867512 0.8724669618)
(1731.344594 8.239346698 1.087022942)
(1730.10904 7.715020746 -0.0545960312)
(1727.454431 10.89843925 -1.326079274)
(1725.944922 11.59749132 -1.334333906)
(1723.86278 16.6030972 -3.010517897)
(1720.372555 21.77027932 -1.978274639)
(1716.397269 24.2790524 -1.028105074)
(1712.396481 28.42399399 -0.1473897344)
(1707.693246 35.0148215 0.5388484783)
(1701.073575 41.17334382 0.6141200764)
(1694.669972 49.23030529 -1.819159825)
(1692.779326 57.51816085 -0.6552764837)
(1685.756145 70.55640789 -3.015954759)
(1675.984263 86.14334055 -2.336610569)
(1667.881957 103.8334178 -2.483504682)
(1657.577846 117.1972388 -2.677414007)
(1641.718096 136.9456977 -2.926412688)
(1630.444481 156.1212558 -3.507315607)
(1612.669583 179.2707007 -2.121536221)
(1596.28907 202.3285299 -2.675590578)
(1581.003738 227.1419402 -0.9379067088)
(1568.141813 243.7125777 -0.7628049485)
(1545.647781 272.5404216 -3.24506904)
(1525.616242 298.4632403 -3.122756806)
(1512.917201 321.6419902 -2.572535415)
(1494.47613 346.3919723 -2.39909124)
(1481.488925 367.7220425 0.995257377)
(1463.76598 384.7158394 2.387054305)
(1457.781987 396.6095076 -0.1225452578)
(1733.745554 2.899524006 -0.3015301229)
(1730.520845 3.927327413 -0.4523348745)
(1730.967701 5.733428148 -1.464089249)
(1728.70355 8.781205853 -2.561155529)
(1728.878653 13.38167036 -0.355133972)
(1727.300024 15.66168499 -0.04689051441)
(1723.87801 18.00514749 -2.599896825)
(1722.903733 20.92244944 -1.236596551)
(1720.035954 24.09397338 -0.5032044385)
(1718.238816 27.44617034 -0.1755671942)
(1712.387282 34.50491206 -0.7336986154)
(1708.65252 40.15436024 -2.380686071)
(1702.574062 47.52412815 -1.516597553)
(1694.831326 56.67267204 -0.65866993)
(1689.492358 64.88879488 -1.734258773)
(1682.261057 75.69006738 -3.215167849)
(1671.077068 92.22761028 -2.924964793)
(1657.850102 110.5772772 -3.43500736)
(1647.873065 127.2242164 -4.13076514)
(1634.089145 146.0653934 -4.127205528)
(1621.132629 165.0137172 -2.642622034)
(1597.943987 189.9665477 -1.773280255)
(1584.369382 216.4689613 -3.47447218)
(1574.92702 237.098731 -2.720800676)
(1554.458156 261.733397 -0.2965615773)
(1532.486186 291.0495549 -3.436480792)
(1518.016393 310.5968495 -2.521312511)
(1502.140173 333.0964382 -1.609344894)
(1491.733722 355.0209454 0.2766041226)
(1478.368372 374.9291743 -0.3381923713)
(1731.409928 -0.02615736452 -0.5244530192)
(1732.739186 0.4303614249 -0.2630690752)
(1730.394814 4.434674391 0.5385016259)
(1730.483888 6.827086567 0.9136875621)
(1728.544698 9.083360866 1.300522803)
(1728.359059 11.22111421 1.351653324)
(1726.117115 12.09504979 2.612854362)
(1725.760828 17.28286268 -0.5646798076)
(1723.087804 19.0918872 -1.223881261)
(1720.925692 21.36619419 -0.9715944409)
(1717.991828 27.85454026 -0.3735505902)
(1713.951761 35.40550201 0.6408372173)
(1713.349636 38.71835836 -1.442423408)
(1707.058436 45.40665267 -3.416901586)
(1700.880413 55.07982435 -3.362494602)
(1693.723951 61.98296397 -4.293327327)
(1686.797524 72.67701 -3.622543895)
(1679.021381 84.28104418 -1.191802055)
(1668.480412 98.4080905 0.1209494074)
(1656.61308 118.0674929 -3.513421662)
(1641.395961 139.5473052 -1.923913314)
(1627.411458 156.0264254 -3.163789782)
(1609.213923 182.6247893 -1.164644181)
(1595.276468 199.2257386 -0.2845824054)
(1581.863105 223.9454569 -2.591053691)
(1562.977309 247.3801061 -0.8542297716)
(1545.309366 276.2653855 -1.005640845)
(1530.855574 302.3064978 0.5196447749)
(1517.183292 328.0092106 0.1890738783)
(1499.182608 347.9161817 1.00999551)
(1733.181498 2.991546981 1.045810535)
(1733.498648 2.809781292 -0.7355899654)
(1733.068715 2.803581129 -1.892068352)
(1732.692018 2.200161677 -1.625327442)
(1729.849893 3.730114015 -2.500038857)
(1731.035163 5.132648603 -2.718563843)
(1730.274993 7.450610568 -1.770274422)
(1728.489194 9.47227105 -0.5577500204)
(1726.38601 14.30233914 -1.739784238)
(1725.137095 17.4171452 -2.353860446)
(1723.524534 21.15181037 -2.151434713)
(1717.571163 26.12589014 -1.28829458)
(1714.609149 33.93842348 1.780847401)
(1714.120725 37.35350571 2.242360758)
(1706.700486 41.81410922 0.9596500369)
(1704.839004 47.78467087 0.9199263672)
(1699.329514 55.21533664 2.28791469)
(1689.75433 65.83053624 -2.905176325)
(1682.104731 76.71091369 -2.363539712)
(1673.564657 90.41061743 -0.9523291329)
(1664.612588 104.2219681 -1.787794307)
(1655.014431 124.8112437 -3.483725846)
(1640.828665 145.5128084 -2.99829468)
(1625.552709 169.0112972 -4.308530541)
(1610.813457 189.8470358 -3.694698189)
(1592.211006 218.3446928 -3.337451348)
(1579.566077 244.0939863 -2.934435195)
(1558.738416 270.7923952 1.189642533)
(1539.914357 293.5449988 -0.3405329566)
(1526.390619 314.8528186 -2.548461753)
(1733.895434 4.867930042 -4.85211699)
(1734.363725 5.460731638 -3.547584291)
(1734.932247 4.699533739 -3.213171314)
(1735.520143 4.391053331 -1.438719787)
(1733.917222 6.324966304 -1.154843698)
(1732.473766 8.603140405 -0.2314118005)
(1733.090893 8.062844432 -1.732416486)
(1729.840122 8.828300472 -1.486338247)
(1728.330012 10.34429968 -2.138529958)
(1728.637037 13.51636857 -0.5568133972)
(1725.738722 16.74173221 0.8810735795)
(1723.362767 20.36688493 -2.028993877)
(1720.424113 22.40754672 -2.294282017)
(1718.922568 24.21930778 -1.663462435)
(1714.752011 30.87729506 -2.710078824)
(1708.658732 36.97804174 -3.004121796)
(1705.095697 43.79116108 -3.991716258)
(1699.308034 50.35025732 1.590612734)
(1693.301559 60.78789208 -2.647208339)
(1688.087383 73.33551471 -0.2410528664)
(1679.360116 84.57987919 -0.7684121615)
(1671.008273 98.13891614 -0.1873389246)
(1659.229293 118.519935 -0.4280473088)
(1648.736964 140.8345167 -1.740274423)
(1634.343442 160.750855 -2.693177468)
(1616.482384 182.6386474 -2.054788388)
(1597.198634 209.1120485 -3.136031254)
(1585.580101 233.6242052 -4.739135484)
(1569.854167 256.5019248 -4.763788263)
(1551.316794 279.1279971 -3.694707034)
(1738.296488 0.6938673562 0.06950793184)
(1737.331361 2.886501673 0.2952863707)
(1735.559339 4.508918155 -1.10505867)
(1732.461871 5.641006148 -3.339536039)
(1730.858826 4.698443771 -2.86166612)
(1730.626141 4.298443979 -2.19431567)
(1731.784322 6.201406747 -0.6268846178)
(1731.075546 8.30223203 -2.311052902)
(1731.122317 10.84433862 -0.8417818048)
(1728.223641 10.27328755 -0.1719431617)
(1728.935249 10.71632376 -0.806527007)
(1727.947052 11.68377811 0.1629394768)
(1725.193475 14.45674961 -0.390854673)
(1722.595546 19.14920947 3.783043198)
(1718.118649 25.56013912 3.88577296)
(1715.1325 29.30041352 2.608530722)
(1710.695062 32.54519643 1.348888283)
(1706.705333 37.59047363 -0.3831838047)
(1700.483176 47.43827226 -1.890496229)
(1696.089775 56.50135356 -1.84542642)
(1687.697789 70.01517928 -2.878608122)
(1682.721599 81.14675258 -1.013166594)
(1671.497052 95.42097429 -1.676543673)
(1660.558036 113.2601883 -1.968266882)
(1648.64755 130.0565764 -1.330366341)
(1638.486956 147.9071038 -3.182811756)
(1624.007713 170.5501648 -1.696130037)
(1606.666318 195.7985623 -6.356562722)
(1590.707099 221.1801382 -4.39746358)
(1574.160972 250.3738846 -1.844218435)
(1733.312549 -0.5784244951 -2.184591385)
(1733.747195 -0.005304929817 -2.58122108)
(1734.264162 1.529386377 -1.448565916)
(1733.765042 2.110044054 -0.3300383817)
(1735.854192 4.889395169 0.5397568412)
(1734.244518 5.505366417 -0.1803447694)
(1731.106194 6.367259527 -0.3620777444)
(1732.822737 4.837366978 1.223812439)
(1732.942275 4.454273543 1.948124175)
(1731.150094 6.597055406 -0.04955540137)
(1729.911173 9.232380679 -0.8514083003)
(1728.099014 10.83075995 0.3953945677)
(1728.886738 9.382326265 0.1184490109)
(1727.432513 10.07182753 -3.530100292)
(1724.216517 13.63376382 -3.265536361)
(1722.718118 22.58127368 -4.991303861)
(1717.762996 27.78910749 -3.298638006)
(1714.266337 34.16633288 -2.040695605)
(1708.991573 39.55520117 -2.782028814)
(1702.207437 44.4881382 -3.158898131)
(1702.588124 50.33426973 -2.706069346)
(1692.696721 63.65576993 -4.030509218)
(1685.937593 76.68514717 -2.848454235)
(1675.126177 86.8002344 -0.8655149727)
(1666.293185 103.8099434 1.05772691)
(1657.48923 121.1851881 2.126836705)
(1645.340381 143.246574 2.48015432)
(1628.376366 165.281351 3.774238372)
(1614.965397 187.3822529 2.108414845)
(1600.146108 211.9468151 0.2621879136)
(1735.106681 1.066136178 0.06713306941)
(1737.872492 -0.5471465503 0.4961954569)
(1736.862384 -0.9568396584 0.4689571396)
(1737.080396 0.3864739337 -0.5178326589)
(1735.164132 -0.9183147263 0.1259299838)
(1735.797488 0.1673673976 -0.5691054934)
(1731.975525 0.5601356379 -0.08468508124)
(1731.131657 2.618251487 -1.588184049)
(1731.369594 3.171478693 -3.675439012)
(1731.925436 3.903894145 -5.507058082)
(1730.490194 3.950572933 -3.624907283)
(1729.440864 5.163205386 -3.908913041)
(1728.362934 11.06493681 -3.851260386)
(1728.062654 12.77978266 -2.464365624)
(1726.634201 15.04422962 -0.696031681)
(1721.920379 14.6773653 -1.11684334)
(1723.312861 18.04641577 -0.205691877)
(1718.362982 24.1952488 -2.389009397)
(1716.498721 29.83193338 -0.1968695995)
(1713.830491 38.06080412 2.199998662)
(1708.116127 41.48240986 1.512395345)
(1701.365869 48.00212601 1.195878699)
(1693.843138 58.05359113 -1.54414575)
(1685.432683 70.49738297 -2.115707097)
(1677.902453 78.04232862 -3.486189355)
(1668.481247 94.61807418 -2.820577052)
(1659.265661 114.1192558 -2.198610448)
(1643.750542 136.7603898 0.6893465917)
(1631.806788 157.0584306 0.5930577112)
(1618.354568 182.1528847 0.7692835621)
(1736.206519 2.509199354 2.188275029)
(1733.730211 2.691495637 1.525787998)
(1735.177044 1.461353024 1.63655792)
(1734.298978 -1.026415008 -0.5742560074)
(1733.853824 -1.625071345 -1.81602188)
(1736.181448 -1.959186532 -1.943845214)
(1736.94767 -2.665566093 -3.438673815)
(1733.915169 -0.5617622207 -3.023311898)
(1733.269747 -0.8785013382 -2.782105634)
(1733.073848 0.279316009 -2.637741004)
(1732.456504 4.31185719 -4.558346566)
(1730.637751 6.320257316 -3.838979764)
(1728.784001 7.291648408 -2.363588805)
(1726.917847 10.52644955 -3.761670995)
(1724.75892 14.58757497 -4.35693586)
(1721.248501 19.26963047 -2.389379447)
(1721.412839 20.21376688 -1.112667731)
(1720.719829 21.82059389 0.02839027674)
(1716.325224 21.96976889 -0.2062596345)
(1716.3265 25.14239601 -2.192079272)
(1714.837351 32.68980921 -1.727856804)
(1711.930177 38.38084633 0.6418400022)
(1706.624499 44.59121513 2.490063455)
(1698.713096 56.68921058 1.946017332)
(1692.749289 65.30333873 2.529885431)
(1685.973116 77.05060558 0.7843082677)
(1675.557139 87.12747784 1.152298829)
(1665.799155 103.9045619 0.1528301276)
(1650.234884 129.4550339 0.02057681019)
(1637.141311 147.8809022 -0.5986509476)
(1736.727311 3.058269732 -5.021541681)
(1735.229003 0.7340497421 -4.942901317)
(1734.853506 0.5243966553 -4.353238189)
(1736.373841 1.569347026 -5.337265259)
(1735.092692 2.064331341 -4.22485516)
(1734.18973 1.509272544 -2.578973571)
(1734.042017 1.432463144 -1.346942426)
(1733.628656 -1.518117505 -1.39911915)
(1732.998528 0.4201458533 -1.017413792)
(1734.002323 1.194793654 -0.7459731202)
(1731.633542 3.238067551 0.2089605346)
(1730.330127 6.44048073 -0.1250867544)
(1728.652554 8.539051717 0.3516702832)
(1729.7581 7.784322302 -0.469841492)
(1730.584828 8.295688611 -0.3287497234)
(1729.521187 8.139207802 -0.4574915729)
(1725.070024 11.22606416 -0.992566675)
(1722.703589 15.09117805 -1.672561757)
(1722.401244 19.09884386 -0.6356631375)
(1720.380786 20.45232299 -0.4621233278)
(1715.259261 24.85271006 -0.03509550617)
(1712.611706 31.67480398 -2.891343384)
(1711.010104 38.09910296 -3.143583785)
(1706.942247 45.97109707 -3.387176837)
(1700.003072 55.96410846 -3.32489397)
(1698.466064 62.29697465 -2.204150786)
(1691.67821 73.71488179 -2.935637867)
(1682.74318 85.85310383 -2.356284421)
(1671.685142 101.7580819 -2.368743686)
(1654.733365 121.9717408 -1.632682785)
(1735.959061 -1.199516314 -2.963720569)
(1736.628519 1.243467907 -1.639804058)
(1736.245163 1.281388452 -2.279675202)
(1736.455366 2.554871987 -1.931376951)
(1737.168477 3.5823391 -2.045661344)
(1736.111777 4.834600313 -2.940943546)
(1734.14327 3.900682954 -3.195617729)
(1733.397766 5.062017811 -4.119981642)
(1732.925338 5.715138013 -1.14597265)
(1733.714366 3.345938917 1.958682559)
(1732.728775 5.026454539 2.417137588)
(1733.277341 3.070507185 2.802173042)
(1734.537053 4.180254427 3.248662398)
(1732.469441 6.034366837 1.907274532)
(1730.28197 3.215668533 0.8100883717)
(1730.335328 5.269367194 1.054095816)
(1730.393603 8.181009934 0.9080589404)
(1729.007674 11.02387094 0.03942782872)
(1725.985613 14.13925842 -0.1960637671)
(1723.376472 18.71595994 -1.108524103)
(1719.397238 23.12348137 -2.392271106)
(1717.285721 26.29959203 -1.559409089)
(1711.792812 28.91453661 -2.622396753)
(1713.234736 33.16473992 -2.148517266)
(1708.269421 42.51008735 -1.608084495)
(1701.550062 50.49443413 -2.70836468)
(1695.841227 61.84061644 0.4736809475)
(1692.26029 71.31335333 0.4548360655)
(1687.36713 83.18524287 2.609289582)
(1677.394646 100.6239142 1.577127464)
(1735.803708 0.1425771043 -0.5140888716)
(1736.11499 1.866013425 -0.8980124031)
(1734.103237 3.460282483 -0.9360167068)
(1733.299371 2.580206381 -0.9052907149)
(1733.108691 1.210936392 -1.571466409)
(1732.041126 1.946279048 -0.1690880988)
(1733.510577 4.468243006 -0.08435003148)
(1733.046516 3.968955759 1.158029059)
(1733.709247 3.696412252 -0.912451316)
(1733.182222 3.47743088 0.4777925469)
(1732.08131 3.590546089 1.003605536)
(1731.264444 2.93484581 2.073820489)
(1730.095241 2.720134852 0.8754382126)
(1732.574832 4.294180054 1.422261384)
(1733.708184 5.952775983 2.747306933)
(1732.651929 8.094105484 2.345245168)
(1731.117944 8.539787449 0.5329379026)
(1727.615158 8.602069015 0.4665631795)
(1725.912363 12.2118902 2.055904994)
(1727.672482 11.21159738 2.929499244)
(1726.886795 12.62722791 3.106102799)
(1722.495181 17.4743125 5.211009548)
(1721.318502 23.80691039 5.619567393)
(1715.501102 30.78492221 4.226262535)
(1710.351811 35.22040757 4.158542318)
(1706.914862 43.55620603 5.524113223)
(1704.433822 47.09194931 3.526493542)
(1698.024111 56.25052168 3.341076055)
(1692.526482 67.42569772 0.708423661)
(1686.737079 77.01927529 0.88782129)
(1736.958627 1.217288942 0.6970953189)
(1735.179765 -0.5795574251 0.184792554)
(1735.32561 -0.612291504 -0.02117887072)
(1732.842658 -0.2702518491 0.2735740463)
(1733.248115 1.413163279 -0.1422059649)
(1730.796593 2.590050723 -0.1280926228)
(1731.974377 1.926485893 0.3014161861)
(1732.042145 2.956283252 -0.2030456641)
(1733.366124 2.286139118 -0.5901198912)
(1730.9497 2.791066719 -2.816274974)
(1733.507822 2.472642241 -3.841638346)
(1734.209963 2.36792133 -2.291560255)
(1733.025616 5.122617894 -3.961487201)
(1729.497334 3.846927334 -2.989841675)
(1727.105194 5.308698787 -4.231762237)
(1728.715782 4.189699374 -3.753502871)
(1731.98924 4.338042481 -2.092683327)
(1729.602946 6.822012848 -0.3924761244)
(1730.012542 7.509209245 -2.333801276)
(1728.511508 8.04388398 -1.217347601)
(1728.137648 13.29080243 1.01273768)
(1725.457694 15.11390256 0.7384186876)
(1725.009655 18.20143099 0.2931110878)
(1722.603517 22.6052979 -0.4136720989)
(1719.72382 26.94364374 -0.2234744246)
(1714.176984 33.26517338 -0.09558106599)
(1709.725533 43.15048864 -1.446038461)
(1709.215812 47.95324329 -2.427769388)
(1699.793679 56.17177415 0.1022502996)
(1695.377042 63.71288551 0.8609692089)
(1733.949092 2.73371473 -1.645529201)
(1733.178681 3.499264278 -0.5936997846)
(1736.377129 0.2442099325 -0.01881165178)
(1736.633034 0.1359382115 1.528169072)
(1736.095624 -0.00604559789 1.754303522)
(1737.330697 0.09933596702 2.863157219)
(1735.234245 -1.139105271 1.756855913)
(1734.413846 0.6838283071 1.409054084)
(1733.691357 3.945405491 0.1811355243)
(1733.389167 3.386132528 1.758926209)
(1733.029765 2.879035252 0.8035413303)
(1730.255114 3.922991771 -0.03230516507)
(1731.257982 1.312987202 0.1507942101)
(1731.347785 2.825301246 -1.833070204)
(1731.968657 3.226753778 -0.1836763169)
(1732.433268 3.677121785 0.7772880362)
(1732.638891 3.950275542 0.493555788)
(1733.986412 4.440498536 1.400053287)
(1733.971053 4.034305806 0.7378630865)
(1731.552858 11.60522441 -0.4623527917)
(1728.575119 11.86063575 -0.8690462801)
(1729.096065 12.23690118 -0.2979386248)
(1727.579876 14.20681826 -0.8881811588)
(1725.617579 17.34761219 0.01251609464)
(1725.351364 20.86725124 0.6725665847)
(1722.142963 26.32961474 0.8147327667)
(1717.536942 31.7620163 -0.4602811095)
(1711.526353 37.94683706 1.285377507)
(1705.205817 43.35970787 1.320429915)
(1701.085924 52.47928306 -0.4520230852)
(1732.607636 0.998202221 -0.7326074195)
(1733.859216 0.833853441 -1.332402532)
(1731.830986 1.765325327 -1.389476205)
(1732.43488 1.919581394 -2.197236027)
(1732.469945 1.15240099 -0.9778693061)
(1732.795147 0.8285019363 -0.5104485609)
(1732.971633 1.415217622 0.1300597073)
(1733.846661 0.5594563137 0.2212546)
(1733.794549 -2.608059348 0.004646048577)
(1734.642303 -1.921746579 0.1948231103)
(1735.412129 -2.378597301 -0.04135516472)
(1736.257586 1.159083572 2.202932588)
(1735.410967 2.640265263 3.225473793)
(1738.259512 3.46786794 2.963881762)
(1736.091493 2.274924407 3.165025785)
(1733.993698 4.408287916 1.70797824)
(1732.03594 7.894905348 0.002355908437)
(1730.833896 7.137196545 -1.099794931)
(1730.889622 5.810932563 -0.6501124143)
(1732.144402 5.717765827 -3.073003645)
(1733.277483 6.621296712 -0.9129728574)
(1730.588134 9.707554536 -0.4747569373)
(1730.132085 9.823360055 -0.336850227)
(1728.783178 11.26554571 -1.230910588)
(1728.051911 12.43708069 -0.02033198149)
(1722.640579 17.05983645 -0.1436673433)
(1719.796245 23.29263479 1.420727501)
(1718.098403 30.07789634 -0.5366000626)
(1711.206525 38.38401788 -1.175619698)
(1705.891313 44.02140761 3.636796382)
(1735.310872 -0.9218704546 0.6419063025)
(1734.410765 -1.578265351 1.15835953)
(1735.380026 -0.3350850863 0.8905846058)
(1733.222926 0.2024114139 1.17212354)
(1733.607521 0.4575100218 -0.01171804931)
(1732.725577 -0.8282882704 -0.2478363607)
(1734.641285 -1.50771257 -1.704840597)
(1737.470343 -1.373038796 -2.096402726)
(1736.997505 0.5379929728 -0.1178080352)
(1738.225213 2.503072974 0.06937135596)
(1736.127083 2.873833436 -1.508376405)
(1736.639854 1.639501481 -1.265684446)
(1735.80005 -0.08230388152 -2.504900679)
(1735.086236 1.991850454 -2.595677265)
(1735.002455 3.479462794 -2.280127966)
(1736.100719 1.990967623 -0.6599118879)
(1735.071892 0.5177368419 1.197871526)
(1734.291693 3.81456754 1.365369739)
(1732.377749 4.792385181 2.126464681)
(1733.103681 6.153466251 1.134230059)
(1729.833517 7.637865747 0.7826382994)
(1728.897036 10.27939552 1.899484724)
(1726.84537 10.86103391 1.572683082)
(1726.832646 9.85646842 2.246199263)
(1726.032014 12.02778732 1.51760542)
(1725.514771 12.72997022 2.295603753)
(1721.094327 16.20488851 2.058526131)
(1716.531525 20.44551997 3.176255478)
(1715.672414 26.4919822 1.026006698)
(1712.356004 35.18261197 0.08029728281)
(1734.321246 5.754240513 1.784657929)
(1734.696045 6.901641644 1.153047381)
(1735.122172 6.320263761 2.76778338)
(1735.223219 4.881552411 1.636536876)
(1736.746938 2.997411088 1.203066754)
(1736.444634 5.982799705 -0.02579202391)
(1736.536812 7.656850747 0.1053282176)
(1733.98443 8.166853982 2.139783763)
(1735.641922 7.587276547 1.04924613)
(1734.701346 7.399231621 -0.2858593404)
(1734.07529 5.594400946 1.454900057)
(1734.641874 5.53590228 0.1393535485)
(1732.193198 5.471550693 -0.7906066914)
(1735.027845 8.535244329 0.6705579136)
(1735.155831 9.065768239 -0.8779694604)
(1732.163337 10.39352232 -1.590111753)
(1732.680814 10.08036558 -3.570293445)
(1734.551928 10.7385859 -3.130169648)
(1734.291094 10.14115645 -0.5709757046)
(1733.699365 11.1552985 0.2798345436)
(1732.996146 12.80658539 0.01035906168)
(1730.313174 13.7625844 -2.213654531)
(1729.036906 17.4112202 -3.094169529)
(1728.004863 15.28969399 -1.143804628)
(1728.116326 17.06139206 -2.060202355)
(1729.163445 19.08045054 -2.205780246)
(1728.168965 19.73661435 -2.026228582)
(1725.818289 24.54269443 -1.49323429)
(1725.180837 27.35109825 -1.159053282)
(1721.18664 33.59112016 -0.6122733556)
)
;

boundaryField
{
    flow
    {
        type            calculated;
        value           nonuniform List<vector> 
55
(
(1307.260052 414.8316136 1.816655191)
(1328.273862 424.6821151 0.3608787246)
(1350.973129 431.2855449 2.09992791)
(1368.933985 434.6935569 -1.533643017)
(1384.355196 435.368905 0.05613718096)
(1401.897001 438.1125512 0.5800119545)
(1421.742056 430.724528 -0.9514397201)
(1438.342836 413.376109 -4.59321123)
(1457.781987 396.6095076 -0.1225452578)
(1478.368372 374.9291743 -0.3381923713)
(1499.182608 347.9161817 1.00999551)
(1526.390619 314.8528186 -2.548461753)
(1551.316794 279.1279971 -3.694707034)
(1574.160972 250.3738846 -1.844218435)
(1600.146108 211.9468151 0.2621879136)
(1618.354568 182.1528847 0.7692835621)
(1637.141311 147.8809022 -0.5986509476)
(1654.733365 121.9717408 -1.632682785)
(1677.394646 100.6239142 1.577127464)
(1686.737079 77.01927529 0.88782129)
(1695.377042 63.71288551 0.8609692089)
(1701.085924 52.47928306 -0.4520230852)
(1705.891313 44.02140761 3.636796382)
(1712.356004 35.18261197 0.08029728281)
(1721.18664 33.59112016 -0.6122733556)
(1734.321246 5.754240513 1.784657929)
(1734.696045 6.901641644 1.153047381)
(1735.122172 6.320263761 2.76778338)
(1735.223219 4.881552411 1.636536876)
(1736.746938 2.997411088 1.203066754)
(1736.444634 5.982799705 -0.02579202391)
(1736.536812 7.656850747 0.1053282176)
(1733.98443 8.166853982 2.139783763)
(1735.641922 7.587276547 1.04924613)
(1734.701346 7.399231621 -0.2858593404)
(1734.07529 5.594400946 1.454900057)
(1734.641874 5.53590228 0.1393535485)
(1732.193198 5.471550693 -0.7906066914)
(1735.027845 8.535244329 0.6705579136)
(1735.155831 9.065768239 -0.8779694604)
(1732.163337 10.39352232 -1.590111753)
(1732.680814 10.08036558 -3.570293445)
(1734.551928 10.7385859 -3.130169648)
(1734.291094 10.14115645 -0.5709757046)
(1733.699365 11.1552985 0.2798345436)
(1732.996146 12.80658539 0.01035906168)
(1730.313174 13.7625844 -2.213654531)
(1729.036906 17.4112202 -3.094169529)
(1728.004863 15.28969399 -1.143804628)
(1728.116326 17.06139206 -2.060202355)
(1729.163445 19.08045054 -2.205780246)
(1728.168965 19.73661435 -2.026228582)
(1725.818289 24.54269443 -1.49323429)
(1725.180837 27.35109825 -1.159053282)
(1721.18664 33.59112016 -0.6122733556)
)
;
    }
    obstacle
    {
        type            calculated;
        value           nonuniform List<vector> 0();
    }
    frontAndBack
    {
        type            empty;
    }
    procBoundary3to1
    {
        type            processor;
        value           nonuniform List<vector> 
36
(
(1287.777305 398.6526649 -0.6073547183)
(1320.382109 433.3475265 3.542939772)
(1313.129484 430.4364675 3.447234083)
(1310.077287 427.0899833 -0.01681944779)
(1306.631368 423.728456 1.044071088)
(1306.631368 423.728456 1.044071088)
(1406.17118 402.1866908 0.4675379334)
(1393.958376 414.1535106 -1.683015079)
(1376.289256 421.9595128 -0.6434004611)
(1368.85801 429.1074812 -0.2761139331)
(1358.330342 435.4912408 1.820713325)
(1355.438347 439.4384206 -1.989802634)
(1355.438347 439.4384206 -1.989802634)
(1517.774814 276.7864783 -6.302694979)
(1498.052395 302.3024844 -2.416968955)
(1483.532976 323.0796483 -2.549440343)
(1464.32023 347.2566064 -1.516905508)
(1445.715582 367.9096001 4.847372112)
(1445.715582 367.9096001 4.847372112)
(1644.925452 105.817951 0.4103932776)
(1633.968567 122.5490049 1.656594954)
(1617.467684 144.4235695 0.3994780495)
(1604.550397 166.9607007 0.5580406995)
(1588.548507 186.0338612 1.75814473)
(1569.505802 209.0026029 0.6321211623)
(1569.505802 209.0026029 0.6321211623)
(1718.122545 18.91758837 -4.037112874)
(1712.781709 27.18816709 -1.806552152)
(1704.387632 33.35187786 -2.763219361)