/*--------------------------------*- C++ -*----------------------------------*\
| =========                 |                                                 |
| \\      /  F ield         | OpenFOAM: The Open Source CFD Toolbox           |
|  \\    /   O peration     | Version:  2406                                  |
|   \\  /    A nd           | Website:  www.openfoam.com                      |
|    \\/     M anipulation  |                                                 |
\*---------------------------------------------------------------------------*/
FoamFile
{
    version     2.0;
    format      ascii;
    arch        "LSB;label=32;scalar=64";
    class       Cloud<dsmcParcel>;
    location    "0.001/lagrangian/dsmc";
    object      coordinates;
}
// * * * * * * * * * * * * * * * * * * * * * * * * * * * * * * * * * * * * * //

9352
(
(0.3529807205 0.03147799719 0.2920316425 0.3235096397) 143 224 2
(0.05694018714 0.1515580853 0.4715299064 0.3199718211) 328 644 1
(0.8372458946 0.0221960253 0.08137705271 0.05918102742) 299 587 1
(0.4212278036 0.2893860982 0.1592275741 0.1301585241) 59 117 1
(0.0564169513 0.3449603408 0.4717915244 0.1268311835) 77 153 2
(0.4111170455 0.0318394143 0.2944414772 0.2626020629) 85 166 1
(0.1897731382 0.4051134309 0.3407619048 0.06435152604) 82 160 2
(0.1960370301 0.401981485 0.05027445322 0.3517070318) 25 50 2
(0.3503985707 0.3248007146 0.02119437833 0.3036063363) 115 225 2
(0.7148329394 0.1425835303 0.1277435597 0.01483997053) 178 351 2
(0.6167089838 0.1916455081 0.09906836694 0.09257714118) 20 41 1
(0.4774064243 0.007247375583 0.2540494122 0.2612967878) 29 1041 1
(0.6117527318 0.1941236341 0.1806224701 0.01350116397) 359 648 1
(0.0305547912 0.02061468152 0.4847226044 0.4641079229) 145 284 1
(0.5339165022 0.2192771302 0.2330417489 0.0137646187) 354 698 2
(0.1202050387 0.4398974807 0.4254385467 0.01445893398) 58 115 2
(0.1466807788 0.1197016813 0.3069579293 0.4266596106) 205 404 1
(0.5378510148 0.2310744926 0.06950401846 0.1615704741) 147 291 1
(0.7823094972 0.1088452514 0.03973692636 0.06910832505) 29 1085 2
(0.3644383497 0.02466327595 0.2931175492 0.3177808252) 263 518 1
(0.5237930227 0.06763944867 0.2381034886 0.17046404) 208 408 1
(0.1399368117 0.4300315941 0.3295591638 0.1004724304) 328 588 1
(0.873578904 0.03013497707 0.06321054802 0.03307557095) 118 231 1
(0.4089319415 0.2955340293 0.02988778784 0.2656462414) 207 350 1
(0.1174906112 0.1588706247 0.2823840697 0.4412546944) 49 97 1
(0.1722171408 0.4138914296 0.07859035044 0.3353010792) 112 221 2
(0.8171913263 0.0004867382111 0.09140433686 0.09091759865) 144 282 1
(0.2493054897 0.3753472552 0.1722943452 0.20305291) 83 106 1
(0.7377164315 0.07096762608 0.06017415815 0.1311417842) 44 87 1
(0.07577751031 0.3777625138 0.4621112448 0.08434873108) 175 346 2
(0.6136405824 0.1931797088 0.03324329916 0.1599364096) 356 643 1
(0.1569871716 0.4215064142 0.2865384694 0.1349679448) 475 934 2
(0.2638348848 0.3680825576 0.1198342021 0.2482483555) 59 117 1
(0.565296276 0.1173054998 0.217351862 0.1000463622) 145 287 2
(0.6734750889 0.1632624555 0.003962506287 0.1592999492) 446 820 1
(0.009030372211 0.4954848139 0.2561875931 0.2392972208) 141 278 2
(0.2579463751 0.3710268124 0.3425794065 0.02844740594) 109 215 2
(0.7920094139 0.1039952931 0.07590980475 0.0280854883) 89 1043 2
(0.01179882615 0.4941005869 0.3077378807 0.1863627062) 207 409 1
(0.1256007811 0.4371996095 0.1827172592 0.2544823503) 29 1041 2
(0.1060201375 0.1250839606 0.4469899312 0.3219059707) 140 274 1
(0.2510214119 0.3744892941 0.06653122232 0.3079580717) 85 168 2
(0.5285465897 0.08015472701 0.1555719781 0.2357267051) 117 231 1
(0.5575866679 0.2212066661 0.01354297849 0.2076636876) 83 162 2
(0.01920116673 0.4903994166 0.3300890212 0.1603103955) 179 351 2
(0.6932180597 0.0345648019 0.1533909702 0.1188261683) 149 294 2
(0.5527810967 0.2236094516 0.1776103139 0.04599913768) 25 1081 2
(0.2700266376 0.05287957406 0.3649866812 0.3121071071) 29 56 1
(0.1787797295 0.1898638164 0.2207463188 0.4106101352) 206 348 2
(0.1925828845 0.2883085092 0.1154000486 0.4037085578) 26 1082 1
(0.5342099447 0.2328950277 0.1985313204 0.03436370728) 27 54 2
(0.4636985946 0.2681507027 0.2226546474 0.04549605527) 267 527 1
(0.4562110819 0.1400048782 0.1318895808 0.2718944591) 26 52 1
(0.4092984984 0.2953507508 0.07958934112 0.2157614097) 89 176 1
(0.5117121846 0.2441439077 0.148238675 0.09590523267) 23 1079 2
(0.2036033515 0.3981983242 0.03126227477 0.3669360495) 56 112 1
(0.2436591074 0.3781704463 0.164362603 0.2138078434) 46 92 1
(0.6098812629 0.09902391449 0.1950593686 0.09603545408) 86 168 1
(0.1621449757 0.3855192717 0.03340824048 0.4189275121) 114 167 2
(0.02131099562 0.4893445022 0.1164615372 0.372882965) 114 226 1
(0.5125006647 0.2437496677 0.04938766183 0.1943620058) 238 469 2
(0.0646848811 0.4676575594 0.1034553802 0.3642021792) 55 109 2
(0.3472737176 0.05368856797 0.3263631412 0.2726745732) 179 351 1
(0.4157571897 0.06615130652 0.2921214052 0.2259700986) 179 351 1
(0.2124040417 0.3937979792 0.05640749843 0.3373904807) 85 110 1
(0.1587625809 0.4206187096 0.1614540756 0.2591646339) 17 35 1
(0.3363812358 0.3318093821 0.2988746912 0.03293469092) 56 109 2
(0.4617781637 0.2293535956 0.2691109182 0.03975732261) 232 455 1
(0.1131731366 0.4434134317 0.3115614628 0.1318519689) 88 175 1
(0.1066433049 0.24643736 0.2002409876 0.4466783475) 386 702 2
(0.09978126556 0.2227626191 0.2273467481 0.4501093672) 28 56 1
(0.04830795558 0.4758460222 0.4481463405 0.02769968176) 297 527 1
(0.5343040446 0.2328479777 0.1127632032 0.1200847745) 58 116 1
(0.2810266412 0.3594866794 0.08493102914 0.2745556503) 147 291 1
(0.1034279461 0.16675268 0.448286027 0.281533347) 89 176 2
(0.07872098754 0.4321386264 0.02850087982 0.4606395062) 176 347 1
(0.74118274 0.0763461163 0.12940863 0.05306251372) 51 102 2
(0.3298167639 0.1179094245 0.3350916181 0.2171821935) 55 110 2
(0.5582615764 0.2208692118 0.03466913343 0.1862000784) 80 159 1
(0.8178672236 0.09106638821 0.05610378559 0.03496260261) 29 1041 2
(0.2684431407 0.3657784296 0.04765263131 0.3181257983) 145 284 2
(0.4754650421 0.2622674789 0.1311402432 0.1311272357) 202 340 1
(0.07904102995 0.02626037976 0.460479485 0.4342191053) 20 38 1
(0.3141684566 0.2657689885 0.07714678317 0.3429157717) 236 407 2
(0.01220111475 0.4938994426 0.2244190315 0.2694804111) 203 398 2
(0.4292710365 0.2761896764 0.009174805398 0.2853644818) 232 457 1
(0.6152406953 0.1743385609 0.01804109146 0.1923796523) 77 94 2
(0.1002633989 0.4498683006 0.1714692652 0.2783990354) 116 227 2
(0.1310789687 0.4344605157 0.07120676575 0.3632537499) 146 289 1
(0.3414040052 0.3292979974 0.22593076 0.1033672374) 26 53 1
(0.5367842285 0.1946897447 0.03691814101 0.2316078857) 113 165 2
(0.2665295434 0.3667352283 0.3290933861 0.03764184217) 18 36 2
(0.5209078362 0.2395460819 0.1456877888 0.09385829311) 59 115 2
(0.14194052 0.1830238875 0.2460058525 0.42902974) 55 51 2
(0.5243514954 0.2378242523 0.02224752501 0.2155767273) 417 821 2
(0.2157200557 0.2381210998 0.1540188723 0.3921399721) 262 458 2
(0.1353012394 0.4323493803 0.2422706914 0.1900786889) 82 160 2
(0.1482778212 0.12256148 0.4258610894 0.3032996094) 378 745 2
(0.3372588697 0.3313705651 0.2811108988 0.05025966637) 236 463 2
(0.238521256 0.2754334226 0.380739372 0.1053059494) 119 233 1
(0.5337280618 0.2331359691 0.1069611421 0.126174827) 19 39 1
(0.2173793671 0.3913103165 0.2209156967 0.1703946197) 52 101 2
(0.05816161106 0.4709191945 0.2816582832 0.1892609113) 175 346 1
(0.286777536 0.356611232 0.1706753985 0.1859358336) 58 116 1
(0.6032996278 0.1983501861 0.1775055489 0.02084463723) 51 99 2
(0.06433386067 0.4678330697 0.2376058319 0.2302272377) 21 1077 2
(0.128587057 0.05330079488 0.3824056766 0.4357064715) 29 1085 1
(0.9252584343 0.02057434663 0.03737078283 0.01679643621) 148 293 2
(0.7062346311 0.1468826844 0.1439712096 0.002911474881) 299 587 2
(0.5340762449 0.1627000626 0.2329618776 0.07026181493) 149 294 2
(0.5498001397 0.2250999302 0.0729960513 0.1521038789) 118 175 1
(0.1625552111 0.3683303144 0.05039208003 0.4187223945) 237 409 2
(0.00295087363 0.4071749511 0.4985245632 0.09134961212) 258 506 1
(0.5671232178 0.2164383911 0.05939904228 0.1570393488) 27 55 1
(0.4545699385 0.03240113238 0.2403138984 0.2727150307) 13 1069 1
(0.4909068284 0.2545465858 0.08530509777 0.169241488) 25 1081 2
(0.4265667333 0.2867166334 0.2021662513 0.08455038208) 172 337 2
(0.2694169088 0.2563673392 0.1089242064 0.3652915456) 238 469 1
(0.04667244543 0.05750510517 0.4766637773 0.4191586721) 20 41 2
(0.1739890066 0.03635792027 0.3766475764 0.4130054967) 56 111 1
(0.5748340227 0.01829349386 0.1942894948 0.2125829887) 139 216 2
(0.3961994727 0.3019002637 0.002150021555 0.2997502421) 114 225 2
(0.07844991291 0.04855117601 0.4607750435 0.4122238675) 179 351 1
(0.3668832155 0.3165583923 0.08896507254 0.2275933197) 208 410 2
(0.2918689211 0.3540655395 0.01646449054 0.3376010489) 117 229 2
(0.07471347379 0.4626432631 0.3686626737 0.09398058936) 56 109 2
(0.006826134299 0.1530752567 0.3435116762 0.4965869329) 83 106 2
(0.3231536181 0.2517455755 0.08667761547 0.3384231909) 239 1048 1
(0.5217279708 0.2391360146 0.1624608759 0.07667513876) 198 391 1
(0.483511848 0.07897334994 0.179270726 0.258244076) 57 113 1
(0.124939285 0.3392304566 0.4375303575 0.09829990089) 50 100 2
(0.9133601587 0.04331992067 0.003648093287 0.03967182738) 146 286 2
(0.8958456053 0.05207719735 0.05170838861 0.0003688087418) 145 287 1
(0.4993553352 0.2503223324 0.1924131983 0.0579091341) 88 174 2
(0.05998493248 0.0460869179 0.4239206159 0.4700075338) 203 342 2
(0.5425574039 0.228721298 0.008621470911 0.2200998271) 29 1041 2
(0.3638418735 0.2115013561 0.3180790633 0.1065777072) 21 43 2
(0.2579672659 0.3710163671 0.1652693003 0.2057470668) 57 114 1
(0.1912204555 0.4043897723 0.1246948688 0.2796949034) 78 152 2
(0.6235537438 0.1741396623 0.0140834658 0.1882231281) 328 588 2
(0.06453472595 0.1538049276 0.3139277094 0.467732637) 144 226 2
(0.05627387814 0.4718630609 0.4635509754 0.008312085519) 15 30 2
(0.1374518349 0.4312740825 0.2409930579 0.1902810247) 114 223 2
(0.3863549742 0.3068225129 0.0974182148 0.2094042981) 299 589 1
(0.1002174962 0.3508882087 0.09900304324 0.4498912519) 388 764 1
(0.09666901538 0.02233418187 0.4516654923 0.4293313104) 78 155 2
(0.3391346647 0.3304326677 0.1347324134 0.1957002542) 71 138 2
(0.3605992387 0.3197003807 0.253436085 0.06626429568) 170 335 2
(0.1200496592 0.419317194 0.4399751704 0.02065797634) 179 353 2
(0.3086320079 0.344911334 0.3456839961 0.0007726620244) 149 294 2
(0.6680007831 0.1659996085 0.1565036969 0.009495911579) 172 281 1
(0.1332702269 0.4333648865 0.3926615835 0.040703303) 22 1078 2
(0.3368979582 0.3315510209 0.2606700181 0.07088100277) 113 165 1
(0.3150367537 0.3424816232 0.1598446031 0.18263702) 418 823 2
(0.05883153881 0.3252905568 0.4705842306 0.1452936738) 259 508 1
(0.533703728 0.233148136 0.2266847211 0.006463414908) 57 114 1
(0.5354286943 0.2322856528 0.1251146568 0.1071709961) 173 283 1
(0.2405541064 0.3797229468 0.3296500891 0.05007285773) 139 275 1
(0.1774901705 0.4112549148 0.1976686231 0.2135862917) 299 587 2
(0.6838928108 0.1580535946 0.121116985 0.03693660959) 47 35 1
(0.1029259052 0.1192336711 0.3293033763 0.4485370474) 48 95 1
(0.2186465249 0.3906767376 0.1792179259 0.2114588117) 47 35 1
(0.5460966342 0.2269516829 0.09040429055 0.1365473923) 59 115 2
(0.3619023498 0.3190488251 0.1441345576 0.1749142676) 133 263 1
(0.3478609892 0.3174717384 0.3260695054 0.008597767031) 19 36 1
(0.1415502553 0.4292248724 0.3586300905 0.07059478188) 85 169 1
(0.2904647757 0.3514948809 0.3547676121 0.003272731279) 25 51 2
(0.1997917938 0.092757572 0.3073465311 0.4001041031) 172 339 1
(0.2394095515 0.07646530528 0.3038299189 0.3802952242) 81 160 1
(0.8089412235 0.09552938825 0.02245707789 0.07307231036) 53 103 2
(0.2621053536 0.3689473232 0.351570628 0.01737669522) 25 1081 2
(0.5416535368 0.01224573969 0.2169274919 0.2291732316) 20 1076 1
(0.503177947 0.2484110265 0.1366260609 0.1117849656) 207 409 1
(0.2375075898 0.3812462051 0.3454864725 0.03575973261) 18 36 2
(0.03499719103 0.4825014045 0.07447339113 0.4080280134) 83 165 1
(0.5011174722 0.1459916071 0.2494412639 0.1034496568) 296 584 2
(0.1612505257 0.4193747371 0.2701386882 0.1492360489) 86 168 2
(0.2934243582 0.3532878209 0.3220085955 0.03127922539) 74 144 2
(0.3687934544 0.3156032728 0.0748428188 0.240760454) 195 384 2
(0.5817604076 0.2091197962 0.01749238706 0.1916274092) 20 38 2
(0.03082046089 0.3698674005 0.4845897696 0.114722369) 116 227 1
(0.145573311 0.4272133445 0.226883244 0.2003301005) 53 103 2
(0.1313600784 0.4343199608 0.0761029306 0.3582170302) 357 701 2
(0.4160888286 0.05942513504 0.2325304506 0.2919555857) 149 1045 1
(0.5815601817 0.05826115451 0.2092199091 0.1509587546) 48 93 1
(0.4196750325 0.2464020531 0.2901624837 0.04376043062) 27 52 1
(0.4959270877 0.2520364562 0.1156431036 0.1363933526) 139 275 1
(0.6459132859 0.1770433571 0.0118485559 0.1651948011) 266 524 2
(0.2769333258 0.2399935508 0.3615333371 0.1215397863) 168 332 2
(0.8163913 0.09180434999 0.06674324433 0.02506110565) 264 521 1
(0.4141774551 0.2376887394 0.05522253301 0.2929112724) 341 613 2
(0.02767152455 0.2601875881 0.2259766496 0.4861642377) 79 98 2
(0.2309044623 0.3845477689 0.1214107561 0.2631370128) 177 349 2
(0.001943801665 0.4717415865 0.4990280992 0.02728651263) 389 766 2
(0.1210612902 0.4394693549 0.4337066579 0.005762696974) 24 1080 2
(0.3261789889 0.3369105055 0.2886209122 0.04828959333) 23 1079 2
(0.263890516 0.1833544876 0.368054742 0.1847002544) 324 636 1
(0.4569641695 0.2715179153 0.2678582375 0.003659677803) 29 1041 2
(0.1593232077 0.2123167015 0.2080216946 0.4203383962) 83 164 1
(0.4046245187 0.2976877407 0.001595865384 0.2960918753) 57 114 1
(0.1442776909 0.006146961347 0.4217141932 0.4278611546) 200 394 1
(0.5383510905 0.2308244548 0.1973990485 0.03342540625) 205 404 2
(0.1925417172 0.2802581345 0.1234710069 0.4037291414) 138 272 1
(0.02112040181 0.3214946918 0.4894397991 0.1679451073) 22 42 1
(0.2089828228 0.07875304361 0.316755545 0.3955085886) 322 576 2
(0.1444109237 0.4277945381 0.3787237137 0.04907082447) 195 326 1
(0.03840948359 0.4807952582 0.08012138111 0.4006738771) 15 28 2
(0.04873362439 0.4756331878 0.3340595427 0.1415736452) 23 44 2
(0.6178226458 0.168139873 0.1910886771 0.02294880409) 385 756 1
(0.2397311765 0.3801344117 0.3112237877 0.06891062405) 203 400 2
(0.4053620347 0.2973189827 0.2971210384 0.0001979442448) 16 32 2
(0.1206833083 0.197537984 0.2421203619 0.4396583459) 299 530 2
(0.08444606979 0.4577769651 0.4559007129 0.001876252223) 104 203 2
(0.2558766496 0.1954685669 0.3720616752 0.1765931083) 103 204 2
(0.1957171123 0.04195581065 0.3601856332 0.4021414439) 12 24 1
(0.1437991698 0.4281004151 0.07056246007 0.357537955) 18 37 1
(0.4897581705 0.07662931198 0.2551209147 0.1784916028) 53 106 2
(0.07296304822 0.4635184759 0.0935854236 0.3699330523) 21 42 2
(0.07647846148 0.4617607693 0.05458618049 0.4071745888) 136 266 2
(0.03395090639 0.4830245468 0.3173127125 0.1657118343) 202 396 2
(0.3145408471 0.2494859801 0.0932435963 0.3427295764) 54 107 1
(0.4765016488 0.1350792742 0.1266699014 0.2617491756) 109 215 1
(0.1971339675 0.009641110463 0.3917919058 0.4014330163) 138 214 2
(0.627010477 0.1548075388 0.1864947615 0.03168722273) 59 115 1
(0.3192876417 0.3403561792 0.0844938294 0.2558623498) 353 695 2
(0.8600807223 0.04268168489 0.06995963885 0.02727795396) 75 146 1
(0.4367704221 0.1428273416 0.2816147889 0.1387874473) 26 50 1
(0.0505693886 0.1549420085 0.4747153057 0.3197732972) 142 278 1
(0.1356160244 0.2039954789 0.2281965089 0.4321919878) 112 221 1
(0.0648834973 0.3869242458 0.08063400553 0.4675582514) 24 1080 1
(0.1432890265 0.06565659287 0.3626988939 0.4283554868) 78 154 1
(0.3057088151 0.1931229549 0.1540226376 0.3471455925) 141 278 1
(0.06606925785 0.4669653711 0.3372623018 0.1297030693) 21 42 2
(0.49857597 0.0949069238 0.250712015 0.1558050912) 23 47 2
(0.5380431936 0.1876485839 0.2309784032 0.0433298193) 51 102 2
(0.05566459508 0.4721677025 0.2996745639 0.1724931386) 49 39 1
(0.2288746176 0.3855626912 0.1689150877 0.2166476036) 267 526 2
(0.7205393589 0.1397303206 0.04270484724 0.09702547331) 148 292 2
(0.7541348345 0.02669545174 0.09623713099 0.1229325827) 27 1083 1
(0.3026717827 0.2962137317 0.05245037697 0.3486641086) 50 99 1
(0.4410893217 0.2794553391 0.02473744412 0.254717895) 47 93 2
(0.4348256462 0.1736725454 0.1089146314 0.2825871769) 231 397 2
(0.6287381313 0.0560628716 0.1295680628 0.1856309344) 14 28 1
(0.07543967703 0.4622801615 0.4571664999 0.005113661593) 119 235 1
(0.6721123696 0.05661189264 0.1073319226 0.1639438152) 27 54 1
(0.01250991155 0.4937450442 0.2655862093 0.2281588349) 19 39 1
(0.04892894599 0.475535527 0.05946584635 0.4160696807) 76 92 1
(0.4366862423 0.1263669416 0.1552899373 0.2816568788) 56 111 1
(0.4616802694 0.2341485737 0.03501129157 0.2691598653) 205 404 1
(0.267206624 0.366396688 0.1101081445 0.2562885435) 289 569 2
(0.03701144924 0.4790801484 0.002414127029 0.4814942754) 53 105 1
(0.3846418227 0.3076790886 0.2447885486 0.06289054003) 27 52 2
(0.2717479088 0.3543319368 0.3641260456 0.009794108757) 205 405 2
(0.05897975262 0.4705101237 0.1515631237 0.318947) 40 79 2
(0.3973265275 0.3013367362 0.08333351352 0.2180032227) 84 167 1
(0.7302001474 0.1348999263 0.1154428446 0.01945708165) 327 642 2
(0.003013247749 0.1407965412 0.357696835 0.4984933761) 78 96 2
(0.1199823877 0.4400088062 0.04747528169 0.3925335245) 207 408 2
(0.2336431795 0.3831784103 0.1735560062 0.2096224041) 386 761 1
(0.4495898968 0.2752050516 0.2074356118 0.0677694398) 46 33 1
(0.2938813156 0.3530593422 0.343080895 0.009978447178) 88 174 2
(0.04331420554 0.4783428972 0.2355932244 0.2427496728) 170 333 2
(0.268066851 0.1778962991 0.3659665745 0.1880702754) 83 162 1
(0.255898237 0.3720508815 0.127547443 0.2445034385) 23 1079 2
(0.01791975721 0.3721427081 0.4910401214 0.1188974133) 83 165 2
(0.1036487651 0.4481756174 0.2153484934 0.232827124) 82 104 1
(0.06587545104 0.2097111599 0.2573511145 0.4670622745) 16 1072 1
(0.3290535042 0.06386038225 0.2716128656 0.3354732479) 83 106 2
(0.2675514931 0.3383456837 0.3662242534 0.02787856968) 112 222 2
(0.03523270002 0.2929847537 0.48238365 0.1893988963) 69 134 1
(0.4211205984 0.2894397008 0.2573380912 0.03210160957) 15 1071 2
(0.4868627891 0.2565686054 0.2185494476 0.03801915779) 56 112 1
(0.2181069762 0.3909465119 0.05253145414 0.3384150578) 21 1077 2
(0.4452364637 0.09816981439 0.1792119538 0.2773817682) 50 99 1
(0.1693424414 0.4153287793 0.07002321912 0.3453055602) 27 1083 2
(0.4970252353 0.2379198423 0.01356754005 0.2514873824) 263 460 2
(0.6562180495 0.09990058921 0.07199038605 0.1718909753) 79 98 2
(0.1941740867 0.02394628852 0.3789666681 0.4029129566) 85 110 2
(0.7810911987 0.01335246562 0.1094544006 0.096101935) 37 71 1
(0.2488041918 0.3011036563 0.07449424783 0.3755979041) 83 164 1
(0.4223494638 0.2888252681 0.2318366866 0.05698858154) 98 191 2
(0.4422345833 0.2788827083 0.1938769606 0.0850057477) 105 149 1
(0.2359904552 0.3820047724 0.09911913197 0.2828856404) 109 213 2
(0.5767383496 0.006996237084 0.2116308252 0.2046345881) 201 397 2
(0.0101121664 0.4949439168 0.1233565849 0.3715873319) 88 175 1
(0.8753011308 0.03053765017 0.03181178441 0.06234943458) 89 117 2
(0.5605780088 0.1398645629 0.2197109956 0.07984643268) 117 232 2
(0.7567473463 0.00420053156 0.1174257953 0.1216263268) 197 388 1
(0.2107577533 0.3946211234 0.1927143112 0.2019068122) 235 405 1
(0.02588404502 0.02770347415 0.4593545033 0.4870579775) 87 172 1
(0.9000379893 0.04998100536 0.04004062834 0.009940377021) 12 22 2
(0.4635969975 0.2682015012 0.1885806946 0.07962080668) 264 520 2
(0.8321275344 0.08393623281 0.01317177648 0.07076445633) 359 648 1
(0.3968207449 0.3015896276 0.1038251411 0.1977644865) 24 1080 2
(0.01916039187 0.3398964594 0.1505233447 0.4904198041) 113 165 2
(0.8012707151 0.01838013635 0.08098450609 0.09936464244) 107 153 2
(0.5903178941 0.2048410529 0.1074086731 0.09743237979) 209 412 1
(0.7578595752 0.1210702124 0.03123832469 0.08983188773) 107 153 1
(0.4739357857 0.2630321072 0.2272357365 0.03579637067) 234 461 2
(0.4738243831 0.09112339593 0.1719644125 0.2630878085) 87 172 1
(0.322950858 0.338524571 0.2995304224 0.03899414863) 55 51 1
(0.1679515319 0.2290079801 0.416024234 0.1870162539) 299 589 2
(0.7025147142 0.01644360897 0.1322990339 0.1487426429) 26 52 1
(0.1894773911 0.2186634709 0.4052613044 0.1865978336) 323 634 1
(0.3935708732 0.3032145634 0.1388488911 0.1643656723) 56 109 2
(0.3118764389 0.3094754165 0.3440617806 0.03458636407) 205 402 1
(0.03380163093 0.3298201663 0.1532790183 0.4830991845) 116 171 2
(0.3208517516 0.3395741242 0.1191801867 0.2203939375) 26 53 1
(0.1147903959 0.442604802 0.2218457931 0.2207590089) 49 98 1
(0.1765203322 0.2372544284 0.1744854055 0.4117398339) 85 110 2
(0.1928074791 0.4035962605 0.02058774879 0.3830085117) 50 100 1
(0.03943981056 0.4802800947 0.3638824055 0.1163976893) 20 38 2
(0.3334536988 0.3332731506 0.1541112473 0.1791619032) 203 400 2
(0.8217092578 0.03906361937 0.08914537108 0.05008175171) 108 214 2
(0.0652560057 0.4181952023 0.4673719971 0.04917679484) 200 395 2
(0.1755481713 0.4122259144 0.1830568471 0.2291690673) 117 231 2
(0.3805395141 0.3097302429 0.249858058 0.0598721849) 176 289 1
(0.3562878565 0.3218560718 0.2240297369 0.09782633489) 230 395 1
(0.2339385143 0.3830307428 0.3807030451 0.002327697779) 111 161 1
(0.5684264742 0.2157867629 0.07831298177 0.1374737811) 203 401 1
(0.2615309036 0.2923738998 0.3692345482 0.07686064838) 58 113 1
(0.1837388994 0.3646312543 0.4081305503 0.04349929598) 382 753 2
(0.7041357841 0.147932108 0.09649926624 0.05143284173) 81 102 1
(0.5166559581 0.1444150685 0.2416720209 0.09725695249) 262 517 2
(0.2417146503 0.02595215196 0.3791426748 0.3531905229) 195 385 2
(0.08392205366 0.4384336728 0.4580389732 0.01960530034) 58 113 1
(0.03494865393 0.482525673 0.3924901435 0.09003552953) 109 157 1
(0.6196384413 0.1598350015 0.1901807794 0.03034577789) 269 528 1
(0.1737292849 0.0773929056 0.4131353576 0.335742452) 176 348 2
(0.7153324373 0.1423337814 0.01317585604 0.1291579253) 253 499 1
(0.3924751016 0.01086847282 0.2928939764 0.3037624492) 111 219 1
(0.4898816448 0.1440873992 0.2550591776 0.1109717784) 14 26 1
(0.1408177309 0.07376297688 0.3558281576 0.4295911345) 20 1076 1
(0.5803230393 0.1586414173 0.05119706305 0.2098384803) 208 352 2
(0.1806880529 0.002438083252 0.4072178903 0.4096559735) 204 344 2
(0.6793237658 0.1181482662 0.1603381171 0.04218985095) 109 216 2
(0.2461889541 0.06642061976 0.376905523 0.3104849032) 24 46 1
(0.1910571226 0.4044714387 0.3792928331 0.0251786056) 148 234 1
(0.256539726 0.371730137 0.2391108948 0.1326192422) 142 278 2
(0.3180080416 0.3409959792 0.07232069979 0.2686752794) 108 213 2
(0.3390748841 0.330462558 0.1344401557 0.1960224023) 26 1082 2
(0.6402892127 0.1798553936 0.122705865 0.05714952862) 50 41 1
(0.1476445483 0.04360438122 0.3825733446 0.4261777258) 111 219 1
(0.03942003749 0.2243169684 0.4802899813 0.2559730129) 23 47 2
(0.226779712 0.3035068818 0.0831032622 0.386610144) 84 108 2
(0.3583255233 0.3208372383 0.1651532622 0.1556839761) 263 518 2
(0.01129220432 0.4943538978 0.08786478188 0.406489116) 356 643 1
(0.6297024126 0.1851487937 0.0203610255 0.1647877682) 57 111 2
(0.07136098782 0.1975427881 0.266776718 0.4643195061) 206 348 2
(0.01729220876 0.4913538956 0.1524193661 0.3389345295) 57 111 2
(0.03668628936 0.4816568553 0.4034860928 0.07817076252) 172 339 2
(0.3377171842 0.3311414079 0.2888069158 0.04233449212) 53 103 2
(0.6394948408 0.1246663296 0.05558624996 0.1802525796) 204 402 1
(0.8155970233 0.09220148833 0.0553876615 0.03681382683) 21 40 2
(0.1648662912 0.4175668544 0.3561893549 0.06137749948) 418 765 1
(0.6021129536 0.03001393456 0.1689295887 0.1989435232) 262 458 2
(0.2049426882 0.3975286559 0.346097976 0.0514306799) 82 160 2
(0.5090869765 0.1223724286 0.2454565118 0.1230840832) 23 44 1
(0.1110065592 0.4444967204 0.4156848596 0.02881186077) 149 292 2
(0.7986643805 0.1006678097 0.03573268111 0.06493512863) 267 524 2
(0.3468753287 0.3265623356 0.223680064 0.1028822716) 54 108 1
(0.4045926224 0.01091921708 0.2867844717 0.2977036888) 449 1055 1
(0.1184930297 0.4407534851 0.08437432332 0.3563791618) 115 225 2
(0.435841918 0.282079041 0.02055678278 0.2615222582) 24 1080 2
(0.3584280901 0.2651935586 0.3207859549 0.05559239631) 104 203 1
(0.0641247173 0.4679376414 0.02634644759 0.4415911938) 52 103 2
(0.2231158593 0.132592957 0.3884420704 0.2558491133) 118 231 1
(0.3818409859 0.2440311737 0.0650483334 0.3090795071) 298 587 1
(0.3532136448 0.3233931776 0.1659956645 0.1573975131) 146 288 2
(0.107830118 0.354510728 0.09157421304 0.446084941) 145 286 1
(0.08610624036 0.4569468798 0.3460447245 0.1109021553) 145 286 2
(0.4626308167 0.0564037909 0.2122808007 0.2686845916) 296 525 2
(0.02441501978 0.233250489 0.4877924901 0.2545420012) 355 697 1
(0.180860821 0.4095695895 0.3796861419 0.02988344758) 76 92 1
(0.3174930568 0.05323162218 0.3412534716 0.2880218494) 22 42 1
(0.3172489841 0.3413755079 0.06261986228 0.2787556457) 24 1080 2
(0.009746405113 0.4951267974 0.3309273962 0.1641994013) 149 294 1
(0.5522649481 0.2214569095 0.223867526 0.002410616411) 145 287 2
(0.1260535847 0.03908260348 0.3978906042 0.4369732076) 27 54 1
(0.2141025098 0.3929487451 0.1180289258 0.2749198193) 176 345 2
(0.4258613358 0.2870693321 0.218518854 0.06855047811) 168 329 2
(0.221904403 0.3420433961 0.3890477985 0.0470044024) 202 396 1
(0.3457920157 0.3271039922 0.008946366148 0.318157626) 206 404 2
(0.2573523839 0.3713238081 0.2389569125 0.1323668956) 325 640 2
(0.7488919827 0.1114711805 0.1255540086 0.01408282814) 59 115 1
(0.2151521854 0.2703187536 0.1221051537 0.3924239073) 239 1048 1
(0.2288370514 0.2137322642 0.1718492101 0.3855814743) 135 266 1
(0.5049360666 0.2475319667 0.1445878593 0.1029441074) 352 635 1
(0.06373822347 0.4681308883 0.2347498605 0.2333810277) 196 384 2
(0.1757394308 0.4121302846 0.2298003419 0.1823299426) 21 42 2
(0.175857429 0.1539365276 0.2581347579 0.4120712855) 105 207 1
(0.536996982 0.1595123079 0.07198920106 0.231501509) 237 467 1
(0.1783020718 0.4108489641 0.08148204166 0.3293669224) 204 400 2
(0.6188059426 0.1905970287 0.01762488093 0.1729721478) 148 290 2
(0.2529883815 0.3735058093 0.1104806913 0.263025118) 174 343 2
(0.3584653577 0.3207673211 0.2138911031 0.106876218) 319 629 1
(0.6666294166 0.1666852917 0.02316368668 0.143521605) 140 218 1
(0.09648186408 0.007457432216 0.4443016357 0.451759068) 43 27 2
(0.007180493313 0.3938928341 0.1025169193 0.4964097533) 325 582 2
(0.1153240121 0.3821065467 0.4423379939 0.06023144722) 175 346 2
(0.1878996194 0.4060501903 0.3850364824 0.02101370794) 441 868 2
(0.1034868095 0.4482565953 0.04732375095 0.4009328443) 56 109 2
(0.1413409287 0.1335674103 0.2957621253 0.4293295356) 56 111 1
(0.4521215564 0.2739392218 0.2295404378 0.04439878394) 81 158 2
(0.3714023445 0.3142988278 0.2216456069 0.09265322084) 45 90 1
(0.01745814913 0.4912709254 0.06402396919 0.4272469562) 57 55 1
(0.08579282343 0.3463090471 0.1107945412 0.4571035883) 82 162 1
(0.4041537714 0.04823960345 0.2979231143 0.2496835108) 42 84 2
(0.1575428599 0.4212285701 0.3233716599 0.09785691013) 53 103 2
(0.05292175229 0.1484457753 0.3250933486 0.4735391239) 49 39 2
(0.005266380573 0.3634175818 0.4973668097 0.133949228) 144 282 1
(0.22155341 0.389223295 0.1810720349 0.2081512601) 326 642 2
(0.06407781613 0.1519063028 0.4679610919 0.3160547891) 77 153 2
(0.2006041532 0.3996979234 0.3570483549 0.04264956848) 144 226 1
(0.6119190831 0.1940404585 0.01252069714 0.1815197613) 83 106 1
(0.02446620179 0.1840875917 0.3036793074 0.4877668991) 72 84 2
(0.3318378034 0.2312790674 0.1028020309 0.3340810983) 209 1047 1
(0.8227077732 0.08864611338 0.054368074 0.03427803938) 265 520 2
(0.5702684099 0.114862308 0.1000034871 0.214865795) 266 524 1
(0.3215277106 0.3392361447 0.0486395508 0.2905965939) 142 222 1
(0.05660061903 0.3681556046 0.4716996905 0.1035440859) 206 407 2
(0.1527740956 0.4152620106 0.008350941614 0.4236129522) 40 79 1
(0.3977423454 0.3011288273 0.2128857895 0.0882430378) 25 48 2
(0.2032559703 0.3983720149 0.04403601628 0.3543359986) 146 286 2
(0.04663361557 0.4000900905 0.07659310174 0.4766831922) 165 267 2
(0.02532430986 0.4873378451 0.3068351165 0.1805027286) 56 53 1
(0.2862771945 0.3568614028 0.1001468259 0.2567145769) 201 397 1
(0.5865316164 0.2067341918 0.1334417049 0.07329248685) 449 2199 1
(0.1703313947 0.08567864637 0.3291556563 0.4148343027) 57 113 1
(0.2396200624 0.03025423151 0.3499357373 0.3801899688) 292 517 2
(0.1130875927 0.4434562036 0.1565808485 0.2868753552) 164 265 1
(0.1127872555 0.4436063723 0.3348328407 0.1087735315) 168 273 1
(0.4955330648 0.2522334676 0.05624655326 0.1959869143) 117 229 2
(0.3845856275 0.3077071862 0.2606059215 0.04710126472) 205 405 1
(0.6018200527 0.1764515883 0.1990899737 0.02263838538) 234 459 1
(0.4547907299 0.05969479208 0.2726046351 0.212909843) 148 293 2
(0.4671972926 0.2664013537 0.2075186947 0.05888265899) 47 93 2
(0.2815118077 0.1303220393 0.3592440962 0.2289220569) 260 510 1
(0.5568682493 0.05473220146 0.1668336739 0.2215658753) 105 149 2
(0.1718985795 0.1508313014 0.2632194089 0.4140507102) 28 1084 1
(0.4055521816 0.2972239092 0.05008135718 0.247142552) 82 160 2
(0.1116401339 0.444179933 0.1803683514 0.2638115816) 15 30 2
(0.09987125073 0.4500643746 0.08029548096 0.3697688937) 58 113 2
(0.194083216 0.1143171103 0.2886412817 0.402958392) 20 1076 1
(0.3873231025 0.3063384487 0.2310187081 0.0753197406) 197 386 2
(0.1498634825 0.3545655277 0.07050273103 0.4250682588) 447 880 1
(0.5921586404 0.2039206798 0.0912457309 0.1126749489) 175 287 1
(0.302965317 0.3198693984 0.3485173415 0.02864794309) 28 57 2
(0.5386610925 0.2306694537 0.1536773106 0.07699214318) 21 40 2
(0.3024531666 0.2997296327 0.04904378394 0.3487734167) 25 1081 1
(0.2376434252 0.1632618431 0.2179164443 0.3811782874) 21 42 1
(0.07368619794 0.3038410404 0.463156901 0.1593158606) 112 219 1
(0.2359512563 0.08080243485 0.301221937 0.3820243719) 18 36 1
(0.2341894291 0.3829052854 0.2206514046 0.1622538808) 109 157 1
(0.1719558256 0.2819553309 0.4140220872 0.1320667563) 26 53 2