/*--------------------------------*- C++ -*----------------------------------*\
| =========                 |                                                 |
| \\      /  F ield         | OpenFOAM: The Open Source CFD Toolbox           |
|  \\    /   O peration     | Version:  2406                                  |
|   \\  /    A nd           | Website:  www.openfoam.com                      |
|    \\/     M anipulation  |                                                 |
\*---------------------------------------------------------------------------*/
FoamFile
{
    version     2.0;
    format      ascii;
    arch        "LSB;label=32;scalar=64";
    class       scalarField;
    location    "0.001/lagrangian/dsmc";
    object      Ei;
}
// * * * * * * * * * * * * * * * * * * * * * * * * * * * * * * * * * * * * * //


9352
(
2.410187278e-20
9.590582881e-21
6.053034087e-21
3.946772681e-22
7.168897209e-22
4.261142344e-21
2.699599808e-21
6.605611178e-21
1.176906987e-20
2.489579927e-20
1.514173863e-20
4.902916091e-20
1.907583961e-20
3.422315747e-21
7.122056932e-21
1.048603492e-21
2.210236272e-21
1.430963282e-20
8.076827973e-21
9.282911032e-21
6.81675208e-21
4.634439706e-21
7.429662989e-21
6.388461197e-21
2.595046604e-21
6.788448162e-21
2.967677285e-20
2.274503313e-20
1.126429844e-20
1.465710607e-20
2.287685081e-20
1.422087805e-20
1.08357899e-20
9.26322491e-21
2.396844336e-21
1.371679258e-20
4.1747289e-21
1.843356098e-20
6.843420976e-21
7.11292647e-22
6.298535085e-21
1.425728824e-20
9.389179659e-21
6.482636725e-22
1.84969703e-21
5.43833013e-21
4.633492961e-22
9.161637932e-21
3.271762869e-21
1.44071454e-20
1.263887128e-20
4.74366784e-21
2.90775844e-20
7.099140988e-21
1.061104061e-20
1.029997536e-20
1.958801435e-20
9.103888091e-21
5.647832739e-21
4.719426426e-21
1.771025118e-21
1.527941566e-20
2.078123416e-21
4.465838888e-21
4.960361489e-20
3.924703466e-21
3.122671345e-21
2.883519573e-20
2.263774616e-21
4.980760692e-21
2.165316941e-21
1.301476745e-20
3.443856817e-20
1.496653016e-20
1.24862804e-20
3.025405465e-21
4.777117207e-21
2.019937417e-21
4.387259593e-21
1.751464096e-20
1.056102985e-20
1.598377757e-20
2.585527816e-22
1.356645696e-21
1.387492895e-20
2.109839603e-21
7.911627327e-23
8.339872807e-22
2.195174368e-20
8.654739672e-21
7.608582873e-21
3.126296381e-21
4.442479759e-21
4.484157518e-21
3.456220599e-20
4.902286972e-20
4.115787456e-21
1.135408021e-20
7.222515643e-22
1.05247368e-20
3.431458666e-21
7.451748615e-21
9.578868958e-22
2.880873005e-20
4.755846634e-21
1.440512997e-20
2.543221588e-21
5.659858349e-21
1.418757131e-20
1.501269981e-20
3.028176274e-21
9.654654711e-21
9.460492633e-21
7.503785462e-21
3.064092369e-20
2.650555424e-21
5.451377964e-21
2.986582748e-20
1.295036728e-20
2.472768094e-20
4.178624924e-20
3.470848251e-21
6.311564384e-22
2.980716455e-20
1.409450656e-20
2.845065685e-20
7.926640487e-21
1.38678835e-20
4.261897545e-23
5.701674735e-21
7.693931497e-21
3.322166001e-21
3.795253405e-21
5.554112141e-21
5.747282079e-21
1.945479404e-22
4.325424897e-21
1.697288556e-20
2.000587032e-20
4.193644315e-21
1.291249033e-20
1.232456802e-20
2.258802514e-20
1.196037975e-20
4.77164915e-20
5.036578929e-21
7.81395282e-21
7.66949913e-21
3.707337211e-21
1.411311803e-20
1.368036313e-20
5.975921746e-21
1.171727528e-20
7.251374074e-21
3.125597681e-21
6.99750287e-21
9.599178627e-21
2.805938752e-20
8.051443031e-21
5.168701556e-21
1.608442584e-20
3.101711249e-21
1.312173859e-20
8.746177434e-22
1.283769481e-20
5.292076043e-22
9.508613085e-21
1.116600469e-20
2.624085401e-21
4.146771015e-21
3.886163098e-21
1.52819406e-20
8.511773635e-21
3.490179053e-21
2.910744789e-21
8.571399346e-21
1.185748932e-20
6.88501847e-21
1.697418651e-20
1.429448074e-20
2.919634102e-21
1.69424776e-20
3.047920911e-20
2.321419976e-20
3.820726771e-20
4.730763452e-21
1.0678942e-20
1.563163439e-20
6.379402904e-21
9.635501543e-21
1.570254147e-21
5.814245011e-21
5.96199938e-21
1.173627359e-20
4.687714435e-21
6.189477854e-20
7.016567458e-21
7.923688319e-21
1.178289926e-20
1.499800185e-20
2.809878854e-23
1.220497572e-22
2.21623794e-20
5.5928663e-21
5.4556198e-21
2.840542684e-21
8.20014001e-21
5.026340549e-20
3.566565385e-22
1.582229199e-20
5.002510208e-21
6.186528785e-21
5.922376131e-21
4.365279781e-21
8.376595113e-21
7.915351204e-21
8.736390123e-21
4.717904496e-21
1.750431179e-20
7.572350987e-21
3.003732705e-21
9.99051405e-21
1.137964833e-20
2.931441414e-20
1.283659161e-20
8.660259592e-21
1.398268623e-20
4.621464805e-21
2.93036069e-20
4.096003173e-22
3.511824079e-21
2.229794143e-20
7.023847857e-22
9.191959595e-21
1.734510591e-23
3.410696449e-21
7.791717359e-21
1.892128155e-22
8.52078976e-21
8.261580265e-21
2.345879659e-22
4.829531886e-21
6.850404375e-21
8.516718197e-21
3.640029607e-21
1.952770828e-20
1.469099461e-20
2.339996167e-20
1.112797953e-20
9.153690243e-21
6.270642825e-21
2.238505291e-21
8.015135261e-21
8.023784845e-21
6.438069661e-21
2.424320304e-21
2.622457754e-20
1.496305139e-21
7.069573146e-23
2.824003288e-21
1.11916354e-20
9.68459064e-21
1.000353305e-21
6.710675113e-22
6.661525508e-21
1.029527326e-20
8.9368617e-22
1.118690231e-21
1.935007412e-20
3.047535454e-20
3.797749104e-21
1.837693962e-21
2.898836944e-21
4.757101041e-21
1.041595763e-20
1.943198496e-21
2.21069503e-20
1.724407214e-21
1.453962463e-21
8.400317304e-23
8.441082597e-21
1.563684141e-20
9.82300758e-21
8.191053125e-21
1.992199545e-21
6.243825812e-22
4.453713753e-21
7.59899902e-21
3.249164103e-20
1.371644744e-20
2.226836877e-20
1.026026343e-20
2.223641897e-20
7.475189829e-21
1.601870225e-21
3.557811481e-21
2.727314262e-21
5.431209176e-21
7.965743639e-21
6.703739604e-20
1.675279361e-20
7.99843041e-21
3.58518477e-21
2.1003208e-20
5.823855414e-21
4.262805919e-21
4.553817275e-21
3.55966361e-21
1.004280345e-21
9.400831376e-22
1.720188932e-21
9.154729872e-21
1.118494653e-20
2.010411137e-20
2.807793996e-21
6.686375866e-21
8.122895297e-21
1.114353944e-20
5.933014251e-21
7.484774874e-21
3.454540888e-21
4.196385209e-21
1.006112951e-20
7.626043932e-21
3.306919234e-20
3.144718022e-20
1.03688707e-20
7.770270932e-21
1.395574192e-20
2.533683344e-21
1.165471617e-20
8.227379344e-21
9.892561436e-22
1.21827361e-20
7.275675504e-22
8.42485789e-20
4.251307897e-21
4.672201754e-21
1.354526956e-20
1.037058174e-19
6.654502203e-21
4.183634472e-22
3.693117864e-21
2.527842111e-20
3.043202519e-21
3.2741032e-22
3.098260547e-21
1.631064777e-21
4.812620661e-22
9.29167781e-21
4.394911009e-21
3.11844715e-20
2.003729389e-22
2.901962857e-21
9.105852069e-21
1.279506784e-20
9.537480094e-21
3.113832452e-21
1.693133091e-20
7.555697543e-21
5.298487416e-21
1.66698556e-20
6.940028558e-21
1.984601086e-21
2.037667262e-20
2.055862831e-21
1.607950382e-21
7.498801914e-21
2.093178632e-20
5.454785846e-21
1.128908715e-20
9.930792384e-22
5.412226225e-21
1.344437906e-20
1.233149931e-21
6.963783992e-21
8.031783269e-21
3.326959035e-21
5.894943042e-21
3.657800371e-21
1.79653084e-20
1.065823398e-20
4.968469173e-21
6.072442787e-21
2.568428315e-21
8.544752815e-22
1.303543887e-20
2.09173528e-20
4.633005424e-21
6.092131541e-21
2.416334036e-20
4.081642892e-22
4.749685203e-21
6.84922453e-21
2.12964836e-22
1.406015004e-20
2.406864013e-20
3.43293686e-23
1.055295328e-21
3.380484479e-20
1.085633105e-20
4.018327843e-20
1.031117503e-20
1.448620248e-20
1.103631386e-23
7.760934291e-22
3.214544176e-21
4.807238196e-21
2.400045559e-20
9.424732261e-22
5.701310571e-21
5.36277958e-21
3.260155313e-21
3.067026526e-22
1.27087268e-21
3.663370205e-21
3.964105579e-21
1.238823006e-20
6.951134333e-21
2.521703932e-21
6.169542301e-22
3.135134686e-20
1.040059698e-20
1.563021718e-21
3.03072053e-21
3.335614383e-21
4.254955437e-21
4.075717779e-21
1.752171013e-20
6.500991866e-21
5.679131031e-21
4.801755414e-21
4.778422028e-21
1.316275218e-21
2.470113672e-20
4.5013534e-21
3.495245459e-21
1.566379498e-20
2.460900474e-20
8.295903364e-21
6.962918804e-22
9.616761589e-21
7.603719326e-21
1.273733214e-20
3.418225925e-20
2.415104776e-20
5.382283369e-21
2.538351017e-21
1.16751303e-20
3.174573019e-20
1.123171467e-20
1.769441027e-21
3.030189028e-21
1.244069383e-20
5.080706795e-21
1.523028001e-20
3.268075144e-21
3.361826899e-21
1.869215615e-20
1.217179081e-21
2.164188174e-21
4.878706522e-20
1.568789376e-20
1.235628433e-20
3.323031242e-21
8.433386917e-21
6.782883976e-22
1.802397544e-20
2.91761955e-21
4.796716678e-21
2.935031373e-21
1.143547421e-20
1.302872569e-20
6.109577619e-21
1.560106609e-20
2.636102357e-21
1.932091623e-20
6.136116315e-21
1.219018368e-21
1.205216624e-21
1.637092228e-21
1.510074293e-21
1.809042953e-20
2.499603758e-21
6.22562229e-21
1.353712997e-21
9.990339057e-22
2.282425665e-20
3.988089831e-21
2.799850979e-20
1.213504187e-20
8.732837943e-21
2.77031749e-20
3.050525263e-21
2.972403001e-20
6.755866525e-21
6.916862301e-21
5.696455108e-21
4.135821684e-20
1.160500822e-20
5.233479078e-21
1.345448063e-20
1.992794163e-21
6.553324538e-21
2.196060473e-20
2.035226548e-20
2.800361853e-21
2.15311882e-21
3.472238405e-20
1.210451459e-20
2.485562589e-23
5.076958417e-22
5.781840199e-21
1.724512529e-21
2.782189459e-20
7.057966387e-21
2.662984757e-20
6.403682036e-21
6.020655231e-20
1.648190266e-20
1.360053754e-20
8.184468548e-21
1.176804563e-20
4.057076397e-21
4.844334724e-21
3.373915339e-21
2.639253131e-22
2.167977967e-21
1.529383246e-20
3.404584492e-21
1.179865433e-20
7.288792601e-22
1.002023888e-20
2.799783019e-20
1.424869011e-20
9.767290007e-21
7.403963945e-21
4.392384666e-22
2.101917428e-20
9.814132267e-21
2.376295513e-20
3.507477957e-21
2.930564271e-21
3.088008124e-21
5.671770076e-21
1.02175599e-21
1.791898339e-20
2.780725126e-21
4.596007067e-20
1.230231631e-20
1.246351834e-20
3.560061757e-21
2.600012338e-22
2.803678454e-20
1.43338763e-20
1.208730759e-20
2.030296127e-20
2.127547766e-20
1.364931519e-21
6.907721023e-21
8.473775445e-21
5.883333006e-20
2.769507183e-20
1.4577975e-20
9.597983717e-21
5.535330953e-22
4.996735587e-21
1.573003051e-20
2.685072939e-21
1.730261984e-20
6.320618398e-21
1.137700779e-21
1.200379577e-20
1.822149454e-20
1.02434812e-20
3.458980068e-21
2.057856358e-20
4.036770179e-21
2.668952272e-20
6.896873112e-21
7.875449207e-22
4.506060908e-21
5.447971853e-21
3.868524578e-21
1.12812528e-21
7.707185179e-21
5.957385697e-21
1.824347049e-20
5.197279509e-21
2.461417078e-21
5.902319119e-21
8.048085065e-21
4.379984316e-21
1.24326144e-20
9.293241663e-21
2.218549559e-21
3.748776371e-20
2.220971917e-20
1.495709997e-20
2.717035661e-21
5.194828693e-20
3.01404511e-21
1.855888928e-21
3.751098591e-22
2.539379004e-22
6.375014069e-21
9.018080675e-21
5.450308677e-21
1.780476138e-20
4.245518062e-21
4.630811885e-21
3.972834729e-21
6.308961964e-21
2.82447149e-21
2.611918151e-20
1.545634242e-20
8.502933252e-23
3.822346359e-21
8.674630008e-21
8.665856056e-23
8.748807888e-22
2.061136426e-21
1.003901393e-21
8.064709508e-21
2.156937842e-20
2.795822898e-20
1.09440036e-20
6.247509037e-21
5.028529665e-21
2.864911024e-20
1.142523635e-21
1.671509832e-20
3.745385811e-20
1.584486183e-20
1.184980579e-20
9.666355219e-21
9.858780697e-21
3.70626241e-22
1.606644781e-21
2.555135753e-20
5.847046429e-21
8.154672078e-22
1.900599862e-20
2.55518581e-20
4.489552499e-23
6.533386688e-21
5.475839938e-20
7.814639431e-21
5.229395299e-21
5.033427417e-22
2.107896699e-20
2.311182345e-22
2.796799115e-20
1.305195664e-20
4.517580255e-21
2.735614958e-22
5.779552008e-22
9.942472173e-21
3.462412538e-20
5.95974399e-21
5.934985885e-21
3.526138858e-21
3.94135983e-21
1.389338631e-20
2.169114663e-20
2.441086224e-21
3.635404837e-20
2.699309405e-20
1.012038171e-20
2.208780096e-20
2.810765965e-20
8.485038504e-21
3.811365998e-20
3.236808278e-21
1.048344302e-20
3.559378377e-22
3.220177728e-21
1.74165345e-20
1.960121138e-20
3.688512634e-22
6.205788166e-21
1.3684521e-20
4.472787098e-21
6.690845468e-21
2.866956092e-20
3.835959288e-20
2.977028602e-20
2.089416062e-20
5.329709599e-21
9.431959637e-21
9.474175891e-22
1.481721486e-20
3.924244192e-21
5.958121892e-21
6.278168904e-21
1.822148143e-20
1.969335873e-20
9.796736395e-21
1.036368807e-21
5.814397259e-22
9.029364574e-21
2.917977663e-20
3.306158013e-21
2.668970249e-20
6.25063619e-21
3.664027395e-22
2.077763323e-20
3.078684959e-22
5.185015006e-21
7.134039951e-21
2.952277327e-20
5.584046035e-22
8.268193234e-20
5.538196639e-22
3.459032981e-20
1.467092655e-20
2.198639534e-20
3.064354697e-21
4.136999882e-22
4.070801323e-21
1.459338175e-22
1.068278534e-21
1.783199616e-20
5.095058092e-21
3.000072045e-21
2.03893065e-21
5.891783509e-21
1.204020318e-20
8.852773757e-21
1.61900847e-20
2.530508937e-20
2.293765066e-21
8.805963421e-21
3.447987288e-20
8.586099341e-22
1.237920914e-21
7.734562022e-21
6.500138462e-21
7.449950375e-21
4.440718182e-21
1.852335982e-20
9.330009021e-21
3.196068151e-20
1.726878623e-21
3.049945692e-21
2.376935035e-20
6.995605699e-21
1.745340424e-20
2.737001401e-20
3.884741491e-21
2.831685818e-20
9.643475985e-22
1.125291384e-20
8.428002144e-21
1.774055316e-20
8.563041472e-21
2.036448742e-20
3.150342685e-20
2.413885959e-21
4.671764927e-21
2.717196478e-20
5.884862696e-21
4.53830634e-21
3.635052445e-20
1.660698076e-20
8.215804328e-21
3.191460827e-21
1.649559499e-21
1.702979433e-20
6.255742444e-23
1.761256171e-20
5.793088089e-20
2.243396473e-21
2.722839521e-20
3.356620854e-20
1.493415208e-20
3.181445583e-21
5.167323462e-21
2.830170939e-21
5.068599963e-21
1.913752377e-21
1.765030154e-20
2.137771777e-21
1.451912285e-20
6.647959973e-21
6.791022741e-21
1.798488806e-21
1.757437405e-21
6.47080145e-22
2.07883549e-20
4.108693618e-21
2.649307179e-22
2.243085247e-20
1.623320048e-20
1.113908278e-20
1.505824233e-20
1.140693831e-20
6.912111701e-21
8.98591354e-21
8.407744387e-22
9.958811457e-21
1.096906931e-20
9.868982474e-21
3.733143321e-21
1.441461921e-20
3.184461935e-20
2.48967922e-22
2.175881305e-20
7.880909452e-21
7.106070803e-22
5.164427287e-22
5.174455458e-20
6.813529622e-21
1.821029188e-22
3.353912171e-21
6.284517459e-21
1.073650583e-21
5.559066105e-21
5.050764068e-21
7.001300357e-22
2.213764582e-21
2.450884393e-20
3.592906051e-21
5.388543486e-21
2.667812938e-20
7.634123565e-21
6.27535387e-22
4.160796865e-21
2.186351983e-20
1.345636546e-20
1.254904046e-20
5.009981207e-22
1.264234159e-21
4.623747261e-20
4.624006761e-21
2.237931324e-21
7.058989153e-21
9.954912696e-21
3.519679922e-21
3.744165981e-21
9.138384759e-21
1.082188916e-20
3.212941599e-21
1.163519871e-21
5.808057143e-21
3.067022082e-20
3.95927768e-21
2.178822755e-20
8.830101228e-21
4.450721887e-21
1.897123501e-21
2.390525497e-21
1.911602974e-20
5.216675633e-21
5.324800506e-21
4.359007175e-21
3.745333389e-20
4.972379212e-21
9.55403572e-21
1.304707265e-20
2.038566901e-21
1.747454518e-20
3.144363475e-21
1.533993796e-20
2.115813737e-20
2.026393454e-21
3.244881415e-20
8.109755726e-21
7.756001563e-21
3.312146305e-21
6.992177379e-21
1.962008168e-20
3.611147375e-21
1.555418701e-20
4.326847786e-21
1.405392653e-20
1.488114848e-22
7.122791346e-22
1.269458211e-20
2.204694475e-20
9.362945632e-22
4.985234989e-21
1.486767877e-21
3.608046627e-20
9.145927672e-21
9.775429744e-22
9.032639435e-21
1.526304322e-22
3.655377597e-20
5.434348387e-21
1.404407262e-20
1.438250993e-20
2.472483342e-21
6.262585727e-21
2.635676896e-20
4.118128762e-21
2.013202263e-20
2.628057536e-22
7.825011353e-21
8.236452452e-21
3.557853572e-21
8.736869658e-21
1.065473889e-20
1.834915003e-21
2.764833909e-21
1.379264979e-20
1.493761415e-20
5.9730683e-21
2.650185312e-20
2.316302096e-21
5.77249868e-21
2.099174189e-20
4.849898245e-20
7.209625658e-22
1.15453849e-20
2.172822332e-20
3.088353956e-21
1.776302615e-20
2.234050058e-20
2.855002235e-20
6.418700138e-21
3.195068577e-21
2.102038471e-21
8.846618611e-21
4.67888204e-21
7.718397834e-21
6.206103991e-21
4.559206015e-21
4.417752716e-21
2.907671649e-20
3.16340619e-21
1.274169396e-20
3.265502699e-21
1.561500098e-20
2.215206194e-21
3.662851275e-21
9.823470079e-21
1.236139765e-20
7.93971222e-21
6.701770827e-22
4.459923272e-21
7.487114956e-21
1.520022178e-20
9.476855087e-21
5.264845475e-21
2.095767052e-20
4.462756651e-20
7.04091398e-21
1.092270338e-20
9.703883132e-21
8.061593995e-21
5.314174814e-20
2.29019524e-20
1.696928337e-20
5.125349306e-21
5.911866517e-21
1.494297205e-20
4.134205447e-21
2.897022314e-21
7.132358024e-21
9.130527328e-21
4.915035037e-21
3.319289012e-20
4.587606082e-21
1.477433865e-21
4.150075622e-21
4.920889606e-20
2.588639168e-21
2.434659735e-20
4.14000121e-22
2.681978291e-21
9.668443897e-21
6.431386494e-21
6.423084847e-22
1.019605377e-20
5.519293572e-21
1.368973242e-20
1.522663461e-20
1.597442417e-22
2.143161728e-21
1.382314591e-21
1.13907212e-21
9.811865526e-21
8.28223555e-21
1.244441247e-20
8.213596028e-21
1.71342649e-20
9.036849094e-21
8.502821392e-21
2.177646376e-20
4.796790559e-21
4.819068802e-21
4.320251377e-21
1.030779451e-20
7.669382098e-21
8.835447748e-21
1.072254606e-21
2.338414931e-20
2.139798426e-20
2.620318139e-20
2.706009917e-20
6.583613572e-21
2.977562508e-20
2.060055143e-20
2.447113728e-21
7.130855223e-21
8.672886571e-21
5.114753353e-21
6.447051743e-21
5.619650124e-21
1.080954408e-20
3.342808221e-21
4.190016384e-21
1.23159023e-21
4.773560351e-21
1.928239222e-21
1.688897847e-20
3.701458744e-20
2.462223467e-20
6.434035164e-22
1.137581739e-20
8.294944084e-21
2.250726716e-20
8.906821448e-22
5.965284366e-21
1.749150076e-20
1.471386907e-20
1.810239036e-21
2.175024285e-20
1.492934563e-20
3.55805715e-20
2.328422541e-20
1.109732688e-20
1.028103033e-20
1.969158878e-20
4.767793448e-21
9.5980347e-21
1.214618244e-20
1.739131997e-22
1.37341929e-20
3.184392257e-20
7.029440066e-21
1.690171235e-20
9.53202091e-21
1.101793683e-21
2.840834109e-21
1.344602271e-20
1.273125702e-20
3.378871894e-21
3.839811436e-21
1.772493216e-20
3.623086993e-20
5.737630401e-21
7.843336222e-21
7.890503662e-22
1.067847621e-20
1.257868057e-21
1.020105808e-21
1.881039181e-21
2.366660651e-22
3.062597142e-21
1.668752189e-20
3.759639762e-21
3.005167907e-22
5.135193668e-21
2.019050038e-21
6.79761933e-21
1.364857521e-20
1.361356982e-20
2.245240152e-20
5.475378558e-22
9.083887871e-21
2.016189711e-20
2.397657786e-20
3.948039116e-22
3.383336839e-21
3.995888423e-21
7.215897185e-21
6.746840261e-21
6.925997782e-21
6.442690648e-21
7.444768385e-21
2.066724969e-20
1.881602787e-20
6.786421136e-21
4.868354614e-21
3.530902035e-20
1.294243514e-21
2.57720368e-21
6.73307037e-20
2.288124962e-20
5.464569669e-21
2.958944474e-21
3.571628201e-22
2.078005933e-21
4.131298131e-21
1.084798756e-20
9.42090716e-21
1.829764672e-20
1.471423728e-20
3.171915804e-21
1.410877139e-20
3.020670985e-20
3.669186941e-20
1.301405278e-20
6.313449615e-20
9.32955791e-21
6.69226648e-21
1.051645758e-20
4.93156918e-21
5.651414959e-22
2.945907911e-21
1.536805055e-20
7.589107836e-21
8.315610346e-22
2.594867062e-21
2.308561621e-20
1.915536638e-21
1.174462425e-20
9.168291353e-21
8.662672763e-21
2.910347397e-20
3.749285879e-20
7.73383564e-21
3.242085437e-20
2.192828713e-20
1.780375491e-20
1.317663079e-20
3.445885498e-21
9.036026764e-21
2.134985825e-22
1.310427079e-20
1.390890181e-20
1.816778698e-20
1.416167056e-21
3.181591573e-20
5.591269151e-21
1.075919696e-20
1.841766131e-20
2.085848916e-21
1.175959063e-20
3.858243627e-21
1.523269233e-20
1.261488181e-20
1.536813219e-20
2.81441481e-21
1.14768864e-20
1.937999444e-20
1.364704699e-20
1.799065694e-20
7.265261911e-21
3.358351892e-21
7.724945526e-21
4.793828897e-21
7.460514753e-21
1.155284759e-20
1.601350696e-21
7.95228762e-21
1.179266007e-20
3.229987019e-20
4.330992906e-20
4.142357222e-21
5.510563308e-23
1.264363679e-21
1.081777265e-20
3.112497148e-22
5.33382208e-21
1.12272793e-20
1.353985269e-20
8.950916265e-21
9.722771699e-21
9.035308192e-21
1.633532597e-21
1.179430949e-21
1.982106539e-20
1.326057479e-20
2.471123951e-20
1.498229842e-20
1.076710005e-20
1.599889664e-20
1.049337479e-20
1.980944569e-20
7.956811106e-21
3.182077734e-21
1.740977362e-20
1.385751676e-20
2.048621719e-20
1.248276267e-20
5.686143803e-21
3.311345654e-21
5.392906504e-21
2.634616487e-21
1.903383045e-20
3.253840206e-21
2.459381617e-21
7.349338947e-21
2.010290231e-20
6.063740588e-21
1.714366189e-20
3.888912573e-21
1.553077107e-20
1.489724498e-20
5.110210699e-21
8.421654898e-21
9.419805729e-21
9.692905763e-21
1.430372653e-20
2.08744512e-20
6.018208715e-21
5.124008466e-21
3.268913719e-21
7.01653909e-22
1.635365603e-20
1.417629397e-21
1.573671756e-20
8.337383243e-21
2.646860241e-21
5.957460872e-21
7.830187047e-21
1.873400297e-20
7.25281373e-22
1.410586818e-20
1.227217442e-20
1.565089963e-20
6.441283336e-21
6.002367925e-20
2.172003756e-21
7.745204682e-22
1.947569819e-21
3.614858754e-20
1.53854891e-20
3.393423082e-20
1.56707946e-20
3.262827452e-20
4.503508929e-21
1.86736331e-20
9.596834998e-21
5.064536372e-21
2.559527397e-21
1.461964615e-20
1.767233191e-20
1.315185741e-20
1.875624825e-20
1.380483416e-20
2.94303669e-21
2.560684557e-21
2.349712379e-20
2.096676845e-20
2.247358212e-21
2.478515327e-21
1.628225436e-20
5.328207205e-21
1.072316555e-21
3.665926719e-21
6.392946083e-21
1.811620104e-20
1.205985324e-21
1.152380906e-21
3.555532624e-21
9.211078686e-21
4.191509399e-20
1.943536973e-20
1.678387821e-20
2.683521906e-20
2.069366869e-20
2.184790953e-20
3.178765135e-21
2.755237963e-21
4.379944147e-21
1.236296419e-21
3.131046528e-20
2.738175439e-21
2.350627708e-20
2.988113802e-21
8.324043116e-21
5.429744125e-22
4.772047135e-21
1.197579679e-21
1.000440804e-21
2.388851363e-20
6.567784517e-22
3.968350745e-21
2.004000183e-21
2.211925885e-20
1.026834054e-21
5.539829401e-21
2.636808812e-21
2.106809189e-21
3.154441056e-21
1.384608917e-21
2.804114875e-21
4.256847151e-21
2.080408621e-20
4.721364551e-21
8.266094486e-22
1.622494046e-20
1.758865182e-20
1.531887935e-20
2.049639734e-22
1.267535778e-21
5.036529232e-21
6.394531726e-21
2.044786935e-20
6.758122191e-21
1.152733349e-21
1.304132177e-22
3.52810843e-20
7.243257577e-21
1.435820207e-20
1.341588566e-21
7.740911461e-21
1.181482651e-21
1.985659691e-21
1.311594743e-20
6.104826991e-21
2.74083903e-20
5.546879262e-21
7.115924285e-21
1.518523061e-20
3.734439095e-20
1.406609305e-20
1.0129383e-20
6.354912863e-21
4.399022461e-21
1.831474413e-21
4.211649963e-21
1.544950717e-21
4.190792517e-20
2.90509147e-20
1.710885028e-20
2.102135347e-20
2.768461675e-20
8.198730854e-21
1.734697708e-20
5.387967743e-21
3.379727147e-20
9.204125219e-21
1.515410026e-20
2.427043554e-21
7.504184015e-21
9.158910572e-21
2.234814175e-21
2.031763668e-20
1.477137816e-20
7.836620371e-21
5.121014797e-23
1.449110699e-20
4.81211619e-20
1.683560704e-20
4.910513168e-20
3.476482198e-20
9.529337981e-21
4.850041206e-21
1.303829971e-20
2.416202906e-20
1.309493803e-21
1.336373986e-20
1.8390042e-21
1.858156121e-20
2.016552362e-22
8.028606012e-21
4.110562506e-21
1.3350995e-20
1.393678805e-22
1.491737779e-20
1.876506805e-20
5.250447109e-21
1.215103675e-20
4.184812222e-21
1.677160853e-20
1.278276085e-21
4.493445402e-21
1.687128694e-20
1.788401878e-20
3.082515793e-20
1.186807438e-20
1.168415545e-21
3.5539785e-21
1.003497999e-20
1.569848845e-20
1.824761361e-21
4.733215323e-22
3.614621723e-20
5.555785283e-22
7.754128379e-22
1.833298451e-21
2.694301586e-21
4.668633387e-21
4.028788059e-21
1.160185597e-20
4.895172765e-21
8.536144298e-21
1.527446239e-20
9.42327989e-21
5.146242963e-21
2.93260523e-21
2.005541628e-20
4.272611107e-21
5.279956065e-21
2.626632603e-21
4.578450181e-21
1.022164076e-20
2.114319354e-21
8.84102486e-21
8.53000799e-21
1.18280045e-21
8.907011944e-22
9.283267641e-22
8.52532216e-21
7.579092013e-21
3.770667321e-21
8.013088736e-21
1.451756576e-20
1.735237188e-20
3.171795659e-21
2.406558539e-21
2.463438669e-20
1.774361182e-22
8.951521326e-21
2.0162387e-20
6.88040587e-20
5.533018271e-21
2.10660427e-22
1.379810974e-20
8.165874606e-21
2.771377437e-21
4.273973744e-20
8.400388673e-21
8.61137965e-21
5.852886186e-21
1.747672164e-20
1.921560397e-21
4.535036944e-21
4.416159835e-21
3.402266859e-20
2.925076477e-21
3.664864744e-21
3.488814298e-21
5.555898637e-21
2.943847354e-21
6.052268898e-21
4.414426487e-20
9.917847595e-21
5.880743238e-21
2.633496343e-20
1.568295675e-20
8.931645829e-21
1.911494458e-21
2.353694527e-20
1.626996719e-20
1.385874537e-20
5.989616143e-21
3.404928674e-20
1.114720389e-20
3.822828148e-21
2.688018574e-22
8.309566819e-21
3.446072002e-21
1.200053689e-21
1.126022224e-21
8.658200215e-22
1.873970568e-21
1.945942425e-20
1.600511311e-21
3.688800025e-21
3.450428681e-20
3.453680513e-21
1.383824606e-21
3.006539656e-20
1.92060099e-20
1.421108554e-20
4.055603117e-21
5.784400231e-22
5.803527646e-21
2.773603615e-21
7.000111774e-21
1.202844575e-21
1.21497778e-20
2.341700555e-20
7.330376933e-21
2.051627227e-21
2.029358005e-21
4.676778118e-21
2.336888643e-20
1.018602577e-21
1.238839128e-20
2.366125141e-21
6.039214065e-21
4.923760442e-21
6.521552532e-21
4.367493217e-20
2.09024677e-20
1.708285186e-21
1.049361975e-21
7.56452056e-22
1.449176104e-20
1.09508552e-20
2.927387809e-21
1.583903939e-20
8.861928966e-21
8.578219398e-21
3.275313138e-21
5.838356638e-21
5.072061253e-21
1.25985203e-20
4.264544766e-20
4.737292532e-20
1.34397401e-21
1.462276121e-20
8.834078842e-20
4.918726706e-21
1.906000729e-20
3.132121551e-21
5.591992167e-21
7.853697338e-21
1.945907793e-20
1.397944585e-21
1.710811902e-20
1.206595026e-20
5.546220129e-21
2.259566243e-20
7.269231646e-21
1.250021544e-21
1.238046409e-20
5.522187417e-21
2.723352197e-21
1.721761714e-20
3.055848412e-22
6.677124928e-21
4.144998802e-21
2.826178619e-21
7.12963734e-21
9.317554385e-21
3.562981261e-21
1.383533335e-20
1.485561327e-20
4.440899025e-21
5.955836648e-21
9.240763795e-22
4.531768227e-21
7.426276304e-22
2.002974834e-20
1.26443567e-22
6.083278196e-22
1.967289864e-20
3.818227895e-20
2.119189484e-20
1.16847975e-21
3.445202959e-21
5.903258795e-21
5.951229035e-21
4.689106419e-21
8.816713726e-21
3.582971754e-20
1.605449564e-21
4.230170059e-21
2.764752714e-21
1.476144556e-20
2.483173661e-20
9.97507797e-22
2.95608762e-20
5.996801533e-21
2.462898601e-20
1.532973932e-20
5.144907611e-21
1.287762376e-20
1.017708591e-21
1.181696811e-21
1.945365762e-20
5.661997967e-22
1.124647265e-20
9.504322857e-21
1.126796452e-20
1.337326955e-20
1.399985497e-20
1.195144433e-20
5.100440644e-21
6.451547984e-22
2.755343971e-20
2.531737868e-22
2.622291989e-21
1.37764192e-20
8.190592043e-21
3.189028609e-20
8.185210632e-21
5.194911021e-20
6.958407794e-21
2.201407403e-21
6.555858527e-21
1.893788979e-20
1.831875824e-20
3.898277496e-20
1.275827798e-20
2.069301388e-20
5.766709642e-21
8.14196443e-21
1.307965057e-20
1.312785918e-20
2.099091898e-20
1.387585378e-21
1.081005755e-21
1.017925583e-20
9.377953485e-21
9.939143949e-21
8.156425466e-21
1.168523432e-20
1.65979502e-20
4.446429221e-21
3.379451268e-21
4.36818935e-21
6.113402754e-23
5.572142344e-22
2.147148646e-20
2.41172769e-20
8.36796494e-21
1.664041584e-20
8.623738679e-20
1.016378927e-20
4.737983323e-21
3.052621535e-20
3.621326105e-20
2.867802282e-21
5.43575421e-21
1.633309455e-21
1.759238329e-20
3.805927298e-21
1.936750612e-20
8.160553364e-21
1.425520473e-22
3.189994153e-20
1.043035241e-21
3.624643755e-21
9.258588593e-21
4.212583915e-20
1.184605585e-20
1.511305699e-20
7.387358399e-21
1.630824752e-21
1.106946565e-21
1.876642405e-20
1.768043717e-20
5.454777834e-21
9.684214835e-21
7.963951611e-21
6.126878932e-22
4.121296362e-21
9.982404279e-22
1.418508134e-20
4.176753347e-21
8.567621463e-21
2.984003137e-21
2.454683802e-21
1.553543232e-20
4.964997709e-21
8.299403305e-21
1.36105022e-20
8.470037441e-21
1.023932424e-20
7.21933401e-21
1.090657345e-20
8.993105449e-21
1.003370759e-20
5.063267262e-21
1.580546532e-20
1.316715871e-20
3.205014934e-21
2.19532764e-22
5.682133616e-21
1.041278068e-21
1.364097467e-20
1.749553128e-21
5.430014139e-21
3.71097098e-21
5.628205298e-20
5.119850931e-20
1.008315726e-20
4.102363938e-21
6.586165323e-21
6.368015442e-21
7.414987682e-21
2.492374451e-20
9.42811534e-21
5.517217937e-21
1.074255461e-21
3.523464418e-20
3.461688601e-21
3.757934372e-21
1.106000669e-20
1.072020235e-20
3.056583872e-20
8.089734845e-21
1.758185129e-20
1.131211029e-20
3.083780278e-21
3.336884374e-21
6.46772143e-21
1.729266656e-21
6.837558212e-22
1.331159984e-20
1.858567783e-20
1.156980946e-20
7.684021141e-21
7.53875556e-21
2.985032639e-21
1.205603286e-21
3.268626136e-20
1.064853952e-20
8.50641292e-21
9.418818061e-21
3.875850783e-22
4.849036649e-21
4.79301799e-21
2.145708081e-20
5.96339545e-21
5.199718168e-20
2.103644508e-20
1.825958632e-20
1.297443564e-20
1.7614006e-21
2.678541069e-20
2.119617337e-20
6.994839744e-21
1.299338774e-20
3.821416971e-20
1.579410981e-20
6.525117038e-22
1.580222666e-21
2.048023281e-20
1.013052759e-20
8.760975148e-21
4.410386565e-21
1.495932891e-20
7.475199754e-22
1.151386672e-20
1.242277995e-20
7.332293948e-21
1.742637863e-20
2.813559103e-20
1.034250007e-20
1.749793158e-21
8.359468416e-22
1.138720199e-20
3.266073901e-20
1.254073901e-20
1.618756173e-20
8.592284955e-21
2.919686441e-21
8.012315664e-20
9.865600514e-22
2.575989173e-20
4.603812353e-21
1.102292164e-21
4.668124397e-21
6.179885094e-21
3.824828108e-21
2.117435809e-21
1.48682021e-21
4.092265755e-21
3.506653054e-21
3.600474966e-21
3.876305383e-22
8.840659041e-21
4.749978836e-21
1.416212882e-20
1.554683041e-20
1.414799556e-20
1.707176677e-21
1.159887677e-22
1.322337044e-20
3.882184945e-21
1.335272658e-20
4.015493567e-20
1.583331013e-22
3.282051975e-20
1.706453026e-21
1.832281052e-20
7.297921694e-21
1.017871998e-21
1.244325421e-20
9.926471074e-21
6.464487242e-22
2.692552941e-20
1.065957665e-20
1.071961778e-20
7.406812935e-22
3.165051551e-20
3.886243015e-21
1.309569855e-20
4.892293698e-21
2.581224185e-20
2.953704723e-20
3.003897921e-21
8.950665285e-21
2.901919414e-21
1.839093766e-20
2.88108494e-22
4.338295043e-21
5.614019891e-21
1.279497817e-20
5.057383822e-21
5.577665335e-21
5.561549395e-21
3.052281716e-20
2.910910266e-21
3.495992241e-20
1.760304718e-21
1.705210402e-20
4.515321408e-22
2.074375268e-21
1.478993657e-20
1.778825823e-21
4.574719144e-21
7.055190847e-21
1.319143784e-20
3.261000424e-20
4.686988527e-21
1.12234327e-21
2.165150807e-20
1.081478187e-20
1.394741126e-20
9.181353734e-20
1.047607421e-21
5.774362431e-22
1.181910832e-20
1.880846714e-20
5.042293959e-21
4.278923095e-21
3.849849621e-21
4.646326366e-21
6.282811659e-21
3.484603776e-21
2.232765613e-20
9.273678173e-21
3.967765616e-22