/*--------------------------------*- C++ -*----------------------------------*\
| =========                 |                                                 |
| \\      /  F ield         | OpenFOAM: The Open Source CFD Toolbox           |
|  \\    /   O peration     | Version:  2406                                  |
|   \\  /    A nd           | Website:  www.openfoam.com                      |
|    \\/     M anipulation  |                                                 |
\*---------------------------------------------------------------------------*/
FoamFile
{
    version     2.0;
    format      ascii;
    arch        "LSB;label=32;scalar=64";
    class       labelField;
    location    "0.001/lagrangian/dsmc";
    object      origId;
}
// * * * * * * * * * * * * * * * * * * * * * * * * * * * * * * * * * * * * * //


9352
(
18044
10793
15701
17069
15705
14078
16522
13373
18771
19902
21343
21264
16716
18878
20354
21009
19177
20822
19786
21114
22055
23086
20024
18965
20617
21860
23193
22750
19264
24239
17862
20919
21938
24216
24128
23606
23889
21532
22980
24304
20638
22145
23998
26437
24016
25131
25650
24412
26181
25707
21861
24408
25738
22855
19595
23399
24194
25555
25850
24607
17244
23815
23984
27352
22144
22554
25944
21543
25016
21022
23368
25036
25727
26241
15618
25628
27053
25815
22778
25435
26740
25717
28816
26554
27452
24087
24497
27287
27900
27904
28060
22857
23699
26878
27165
27290
27376
28097
18975
28528
30312
26735
26974
28712
28079
24822
25414
28520
29247
26937
28137
25932
26964
29029
29036
25529
25834
28280
28597
27368
28697
28992
29009
29191
29317
31947
26859
28480
28794
28908
29015
29053
22669
27768
24800
26237
29321
29763
29836
30617
25018
27981
28103
23681
27574
28096
28509
28515
29622
30440
29440
30225
27997
28702
29192
29629
27357
30741
30753
26140
26443
27582
27885
29513
29638
29730
30118
30119
30450
29866
29919
29948
30009
28487
28738
29528
30132
31076
27260
27668
28187
29221
29928
30253
27054
28618
30742
27657
28975
29719
24080
27283
28971
26744
27779
29008
29632
30255
30573
30744
26991
30172
30271
30857
27464
28891
28901
29531
31280
28881
25610
30671
32350
27799
29001
29420
29727
29929
31069
31779
28895
29817
29949
30037
30117
30135
25215
30843
31466
31855
31865
27242
27994
28371
28889
29843
30021
30140
31254
32157
35021
27563
29188
29729
29935
31050
30621
28994
29325
30340
30852
31049
31064
30925
30327
30552
23477
28494
31916
23286
28199
29204
31498
26377
26355
30214
30423
31758
31876
31883
32148
21338
29609
29704
30425
31244
31670
31862
32459
32797
28398
28694
29912
30544
31163
31363
31676
31884
24714
27987
30531
30613
31253
31350
31858
31878
32488
32585
23379
25741
26544
27044
27549
30634
30750
31235
31650
31683
31879
32284
32399
32704
30234
30648
31549
31666
31693
32165
32186
34716
27460
29294
29404
29505
32261
32287
32678
32900
33620
30447
31366
27762
31357
32567
33129
23776
30029
30470
32182
32279
32304
32388
32469
33016
33524
33615
34339
29110
31951
31976
32053
32372
34818
29023
30320
31766
32347
32491
33406
33407
26143
28106
30838
31655
32262
32575
32713
32825
32911
27455
31771
32070
32277
32582
32689
33401
33443
28873
31356
32382
32604
33093
34104
36359
29921
30962
31751
31970
32373
33197
33509
33514
33516
33577
34066
34132
34345
34913
27458
31572
32695
33318
33481
33519
33534
28112
29738
30737
30747
31060
31671
33178
27568
32511
27476
30345
32047
32882
33666
33791
25517
30209
30933
31945
32374
33474
33792
33917
34152
35836
31056
31761
32169
32890
33683
33834
33997
34003
34134
34451
34542
34765
34944
36250
30105
30831
32080
33696
33828
33951
34525
34877
35023
36650
31753
32345
32681
33303
34242
34861
35270
35345
27559
30325
31547
32172
32902
33189
33207
34106
34224
34257
35033
35374
31669
26752
30532
30627
33217
33312
34223
37165
37170
32683
27386
28281
30332
31445
33396
33711
33814
33848
33929
34356
34417
34740
31179
31061
31852
31958
32694
33012
33188
33530
33819
33830
34449
34532
34643
34673
34927
35059
35523
36144
31239
32792
29112
30212
31585
32462
32785
33504
33822
34255
34334
34545
34922
34929
35219
28989
31468
31677
32069
32827
33008
33392
33707
33878
34592
34936
35051
35632
31663
28381
29825
32584
33021
33932
34021
34172
34326
34458
35945
36078
36357
30732
33223
33416
33732
34228
34658
29816
31548
32292
32873
32897
34540
34612
34954
35150
35777
27996
28291
32784
33495
33598
33722
34037
34247
34953
34971
35067
35330
36116
34308
31545
32275
32685
32687
32974
33377
34432
34538
34543
34647
34663
34823
35243
35351
35432
35568
35649
35764
36192
36375
36469
34912
31154
31364
31840
33682
34043
34513
34553
34722
34830
34838
34847
34872
36561
31447
33177
33212
33918
34260
34539
34909
34955
35249
35251
35338
36564
37320
31890
31353
31441
33536
34101
34916
34959
35224
35353
35771
35912
37375
31658
31859
32360
35141
35318
35472
35686
36916
30936
32483
33086
33594
33809
33896
35245
35362
35659
35853
36794
27778
32771
33702
33921
34442
34534
35444
35464
35865
35993
36083
36266
36285
36295
36373
39723
32200
33795
32468
33078
34322
34518
35242
35346
35789
35815
35850
35904
35991
36277
36579
36591
37272
32886
31151
32386
34014
34528
34755
34978
35133
35266
35334
35554
35661
35946
35981
36181
36398
36478
33402
34143
34763
34939
34941
35158
35552
35669
35692
35856
36076
36139
36305
36356
36470
36599
36750
36989
36998
37715
32590
32898
33014
34327
35241
35445
36145
36265
36355
36408
36578
36594
36808
38386
29811
34441
35032
35152
35774
35847
35870
36758
36965
31894
33812
33904
34448
34937
35148
35217
35757
36377
36627
36903
36993
37107
33820
32475
33175
33292
34032
34229
34348
34435
34867
35232
35748
35749
35875
36182
36472
36486
37229
37506
37718
38281
33745
29424
30012
31052
33521
34121
35634
35965
36183
36582
36793
36875
36890
36893
37677
33617
33910
35770
36184
37094
37577
39213
28587
29821
30951
32167
32587
34218
34842
35268
35344
35973
35994
36152
36584
36684
36804
37204
37710
39522
31354
33180
34926
35359
35576
35776
35861
37164
37332
37412
38027
28814
32050
33077
33486
33724
33937
34840
35037
35549
35664
35855
36047
36177
36197
36910
37311
37421
38636
38796
39724
40023
30027
34211
35841
36208
36362
36693
36806
37325
37495
37574
37615
30940
35443
28586
34122
35139
35453
35555
35744
35943
36376
36379
37407
37420
37428
37490
37614
37716
38225
31678
29003
33922
34145
34731
35542
36009
36169
36262
36363
36501
36560
37493
37636
37982
38086
38591
38905
39521
30822
33705
34344
35750
36456
36574
36895
36983
37157
37212
37739
37983
38083
38237
38938
32778
33924
35556
35730
36055
36069
36303
36660
36679
37069
37083
37098
37160
37209
37314
37807
37995
38104
38325
38611
35530
36381
36467
36568
36990
37020
37321
37389
37391
37475
37621
37631
37714
38051
38111
38128
38199
38424
38696
35132
35656
35760
36057
36163
36569
37057
37112
37802
37822
37942
38099
38427
38941
28599
29298
31969
33282
35238
35457
35538
35567
35832
35846
36061
36683
37091
37617
38209
37059
36751
31943
32979
36058
36289
36388
36457
37327
37400
37509
37681
37847
37859
38024
38143
38222
39827
31558
35047
35956
36886
37070
37512
37832
37916
38409
38711
38714
38809
38822
29331
30946
30524
31456
32888
33708
34354
36164
36176
36870
37121
37616
37691
38035
38731
38904
39826
33194
33578
33695
35784
36669
36882
37061
37191
37214
37265
37383
37488
37504
37528
37713
37729
37915
37945
38335
38621
38734
38753
38940
32876
33203
33488
34116
34232
34952
35218
35424
35743
35953
36064
36261
36290
36405
36593
36662
37307
37326
37402
37515
37918
37922
37924
37947
38005
38007
38110
38323
38901
39069
39252
39328
39444
40022
34135
32583
33211
34013
36254
36301
36785
36798
37062
37074
37205
37390
37531
37593
37602
37911
38081
38193
38228
38639
38776
38898
39452
40149
35134
35874
36572
36771
37184
37404
37595
37598
37813
37818
38014
38314
38402
38420
38629
38768
38813
38845
38955
39350
31554
33083
30540
33080
34536
34648
34828
36044
36149
36269
36284
36658
36975
37027
37427
37913
38101
38117
38144
38162
38207
38310
38934
39251
30619
33383
33595
34125
34841
35024
35040
36199
36371
36390
36461
36475
37004
37105
37283
37482
37508
37719
38204
38745
38840
38877
38947
38953
39140
39552
39653
39750
33807
35441
35543
35655
36460
37803
37823
37892
38301
38302
38406
38863
39196
39214
39565
39699
39946
35335
33310
34343
34613
35642
35731
36248
36563
36748
36775
36826
37299
37408
37717
37723
37728
38008
38248
38455
38547
38628
38832
38888
38944
38948
39065
39166
39633
39855
41458
42584
35633
33580
34123
34728
34742
35325
35944
36052
36389
36567
36747
36970
37239
37430
37620
37720
37793
38003
38129
38417
38505
38527
38606
38973
39385
39457
39528
39546
39626
40385
40649
34126
34919
35468
37188
37393
37721
38054
38520
38539
38719
38903
38960
39026
39223
39352
39371
39720
40181
40232
30839
32155
35843
36866
37063
37178
37183
37597
38107
38311
38413
38419
38631
38818
38959
39139
39375
39382
39659
40812
30614
31068
33413
34017
34100
36193
37433
37487
37592
37608
37799
37903
38053
38404
38414
38441
38630
38655
38724
38830
39039
39124
39262
39361
39718
40691
33813
37888
33291
34222
35027
36040
36668
36768
36770
37086
38023
38395
38530
38649
38728
38747
38749
38795
38928
39046
39122
39161
39242
39342
39420
39657
39769
39777
39842
40006
40126
40155
40516
34634
33905
33491
34645
35120
36571
36592
37392
37609
37994
38134
38716
38792
39091
39367
39622
39825
40046
40466
40469
40475
41057
34210
33605
35772
36077
36783
37081
37722
38219
38224
38295
38428
38488
38492
38532
38868
39137
39345
39347
39449
39472
39623
39701
39957
39968
40166
40402
40651
40957
36466
35740
36788
37090
37297
37800
38321
38388
38595
38824
39047
39128
39142
39148
39154
39341
39627
39851
39877
39963
39975
40905
31746
36588
32486
35438
35639
36142
36481
36659
37675
37689
37910
38021
38105
38245
38640
38920
33016
39027
39194
39238
39322
39377
39652
39758
39768
39776
39828
39870
40255
40332
40350
40582
40887
41195
34982
27671
32479
33195
34002
34533
37377
38004
38385
38499
38588
38627
38713
38819
38829
39030
39131
39132
39143
39160
39359
39445
39482
39564
39864
39953
40034
40045
40119
40593
40990
40992
41417
42180
34933
37285
37374
37711
37795
38042
38203
38400
38425
38650
39028
39034
39330
39372
39531
39558
39763
39831
39852
39935
40051
40261
40262
40380
40602
40690
29514
41375
41543
37397
37009
34639
35693
38103
38610
38708
38894
39017
39141
39334
39648
39668
39880
40190
40273
40279
40331
40364
40406
40449
40450
40485
40581
40771
41091
41213
41759
39320
35759
35747
36562
36767
36769
37492
37702
37985
38213
38398
38635
39037
39279
39346
39426
39450
39853
39857
39871
39967
40160
40161
40162
40399
40452
40455
40490
40617
40752
40854
41076
41127
41136
41426
41501
41564
42026
42075
35246
35328
35845
36963
38299
38308
38494
38814
39024
39123
39329
39847
40052
40143
40355
40789
40987
41094
41413
41970
42078
35236
37998
36994
33939
34140
35638
38410
38914
39035
39206
39209
39246
39354
39432
39589
39647
39675
39732
39762
40146
40335
40461
40592
40699
40756
40797
41636
42144
36746
37483
38312
38396
38442
38833
39025
39174
39244
39442
39561
39643
33549
39728
39839
40491
40502
40676
40776
40793
40998
41089
41267
41490
42691
34751
34908
37704
38300
38405
38431
39006
39156
39239
39254
39618
39759
39867
39989
40169
40191
40482
40487
40511
40635
40644
40862
40865
40918
41056
41116
41287
41353
41509
41779
42284
42349
33897
33728
35635
37379
37573
37682
38434
38607
38699
38841
38902
39033
39344
39349
39456
39636
39644
39748
40416
40694
40802
41221
41380
41590
41908
42222
42494
36369
35534
37197
35959
36091
36268
36352
37003
37288
37382
38296
38389
38701
39240
39443
39461
39560
39747
39856
40258
40386
40413
40451
40551
40563
40612
40658
40670
40700
40786
41119
41209
41275
41304
41927
41956
42076
42208
42787
39010
36074
36991
37185
37388
37709
38316
39234
39428
39429
39614
39646
39834
39868
40163
40234
40267
40348
40356
40792
41102
41110
41188
41202
41286
41455
41702
41709
41802
41910
42108
42187
42210
37738
40170
34428
36361
37073
37167
37885
38085
38202
38543
38709
39121
39158
39949
40048
40056
40257
40373
40382
40430
40454
40667
40674
40686
40818
40908
41095
41132
41197
41314
41608
41742
41903
41994
42432
42445
42618
43202
43718
35553
38208
38616
38697
38790
39038
39135
39245
39471
39683
39754
40055
40176
40241
40458
40473
40604
40779
40888
41045
41184
41270
41274
41412
41928
43915
35221
35645
36967
37899
38215
38330
38528
39364
39438
39542
39945
40032
40036
40240
40247
40264
40470
40498
40544
40656
40678
40878
40968
40982
40991
41001
41005
41066
41582
41587
41591
42017
42100
42110
42414
42731
32051
32880
36358
37092
37179
37286
38412
39869
40173
40562
40580
40681
40751
40790
40893
41223
41250
41291
41470
41548
41773
41780
41789
41867
42010
42131
42139
42147
42443
42826
42959
44019
36264
36665
36980
37287
37806
38190
38212
38392
38815
39012
39319
39551
39554
39740
40096
40157
40159
40164
40546
40897
41085
41120
41159
41182
41205
41253
41373
41387
41667
41683
41808
41896
42043
42390
42822
39042
37084
37066
37694
37743
37809
38201
38408
38652
38799
39742
39771
39837
40212
40672
40685
40799
40821
40969
40979
40986
41007
41096
41105
41186
41262
41391
41402
41453
41595
41611
41675
41706
41897
41953
42205
42211
42223
42298
42417
42457
42621
34723
36570
38305
38593
38927
39072
39368
39640
40020
40389
40446
40571
40595
40784
40867
41021
41074
41090
41092
41170
41306
41349
41487
41549
41597
41601
41685
41781
41806
42008
42020
42107
42244
42416
42435
42456
42659
42808
42818
43917
36884
39455
42891
35329
35654
35967
36663
37290
37801
38391
38608
38798
38935
39250
39948
40179
40584
40600
40669
40689
40856
40879
40950
40993
41004
41046
41065
41098
41117
41324
41477
41508
41546
41628
41793
41983
42047
42102
42247
42314
42530
42976
44018
36676
39318
31965
38897
39029
39938
39962
40564
40589
40614
40817
40923
40989
41093
41352
41379
41396
41419
41463
41512
41522
41532
41592
41696
41882
41913
41929
41936
41993
42025
42305
42308
42313
42320
42529
42532
42630
42653
42907
43010
43203
43715
33517
38511
41684
37599
39172
39283
39423
40127
40391
40448
40545
40603
40652
40874
40934
41081
41179
41292
41299
41386
41481
41737
41809
41872
41916
41996
42011
42015
42074
42094
42112
42126
42918
38619
33196
31037
34734
37590
38186
39739
40174
40476
40675
40741
40775
40794
40999
41024
41166
41187
41191
32801
41263
41289
41372
41491
41557
41701
41790
41795
41838
41892
41977
42117
42219
42225
42230
42413
42520
42736
42861
43142
43346
45238
37999
31742
34231
35320
35961
36462
38632
38802
39436
39568
39928
40134
40228
40230
40248
40688
40767
41078
41290
41374
41420
41497
41588
41829
41912
41918
41998
42148
42199
42212
42216
42377
42392
42408
42508
42513
42537
42564
42635
42651
42811
43023
43032
43201
43231
43322
34111
36978
38040
38908
39114
39231
39803
39846
40018
40369
40443
40477
40855
40956
40960
40977
41029
41087
41123
41478
41503
41516
41599
41618
41638
41704
41828
41875
41899
41909
42120
42137
42181
42234
42300
42345
42475
42560
42607
42619
42954
43088
43165
43353
43539
43803
35331
37171
37202
37696
38291
39111
39133
39439
39824
39863
40556
40594
40671
40760
40974
41006
41272
41381
41385
41492
41649
41668
41694
41799
41833
41919
41987
42007
42021
42023
42027
42162
42221
42450
42454
42721
42754
42759
42823
42856
43224
43411
43600
43729
43730
41868
33489
35451
39225
39332
39434
39956
40049
40557
40975
40996
41070
41075
41269
41467
41471
41474
41485
41510
41622
41687
41788
41805
41883
41884
41911
41989
42028
42077
42096
42128
42142
42174
42191
42207
42307
42309
42318
42451
42527
42544
42570
42599
42689
42717
42739
42820
42825
42834
42835
43145
43163
43649
43748
44064
44161
45040
45762
35450
36072
36252
36573
38195
38733
39325
39630
39749
39832
39849
40025
40140
40353
40698
40985
41137
41178
41210
41251
41356
41475
41500
41577
41593
41921
42079
42109
42113
42115
42119
42217
42241
42242
42322
42420
42422
42465
42548
42615
42627
42794
42960
43076
43234
43329
43345
43382
43474
43690
40081
34747
40994
37819
38098
39215
39440
39535
39941
40238
40441
40481
40559
40693
40980
41086
41172
41280
41300
41499
41581
41677
41766
41796
41801
41973
41986
42081
42243
42389
42439
42549
42611
42815
42890
42923
42937
43035
43042
43146
43309
43364
43632
44017
34653
36894
39655
33700
34425
36762
38102
38192
38290
38514
39756
40246
40340
40457
40548
40749
40880
40988
41235
41498
41598
41730
41785
42014
42134
42154
42195
42214
42253
42258
42312
42351
42359
42415
42428
42438
42440
42526
42617
42624
42646
42660
42664
42708
42719
42746
42780
42783
42817
42916
43018
43031
43034
43047
43158
43170
43179
43359
43392
43432
43461
43522
43556
43658
43659
43717
43757
43974
44044
44123
44412
44828
36059
37727
38196
38285
39011
39422
39954
40039
40568
40598
40648
40973
41365
41384
41390
41399
41604
41692
41695
41746
41768
41798
41886
41990
42034
42240
42301
42424
42510
42540
42574
42638
42737
42802
42816
42845
43019
43131
43135
43162
43258
43264
43271
43339
43354
43426
43496
43500
43552
43713
43848
43953
43971
44048
44162
44635
43295
40336
35918
41153
34099
39125
39339
39437
39621
39873
40662
40764
40963
40970
40971
41169
41410
41473
41480
41482
41580
41682
41778
41865
42111
42132
42203
42257
42384
42391
42452
42469
42533
42538
42622
42625
42631
42753
42838
42846
42852
42934
43008
43071
43159
43361
43467
43482
43498
43505
43535
43537
43560
43584
43670
43793
43990
44345
36375
40537
34923
37384
37409
37245
39447
38812
38816
38945
39136
40133
40346
40765
40772
40891
41111
41158
41168
41366
41624
41700
41756
41775
41877
41878
42143
42197
42404
42409
42444
42476
42503
42541
42572
42603
42623
42636
42637
42712
42733
42766
42812
42843
42974
43014
43022
43143
43341
43428
43483
43513
43520
43531
43583
43643
43711
43792
43852
44016
44078
44085
44654
45010
35317
40650
36170
38407
38490
38509
38604
38615
39324
39327
39421
39536
40337
40474
40570
41181
41676
41895
42090
42118
42281
42324
42407
42421
42521
42534
42535
42542
42551
42614
42645
42701
42703
42803
42832
42945
42962
43021
43038
43129
43152
43172
43227
43235
43243
43268
43336
43417
43424
43442
43444
43533
43541
43651
43863
44224
40948
40953
35480
39760
39943
40053
40151
40274
40536
40540
41297
41309
41520
41600
41710
41776
41787
42116
42220
42340
42355
42447
42491
42612
42620
42632
42647
42761
42837
42897
42925
42929
42969
43017
43109
43128
43221
43229
43233
43252
43253
43402
43412
43448
43450
43493
43527
43602
43633
43653
43661
43686
43735
43750
43762
43780
43853
44155
44487
44728
44792
44825
45039
33996
38397
39944
40178
40813
40870
41161
41317
41641
41689
41729
41835
42046
35738
42114
42194
42303
42329
42383
42388
42446
42511
42590
42605
42711
42767
43050
43074
43077
43108
43118
34060
43217
43238
43249
43261
43310
43344
43414
43431
43452
43463
43543
43553
43615
43622
43743
43835
43850
43876
43934
43945
44050
44113
44125
44387
44423
44479
44874
45236
45552
36973
37079
39431
39730
40245
40352
40354
40442
40976
41084
41261
41554
41813
41907
42215
42286
42310
42319
42412
42467
42587
42609
42628
42718
42722
42740
42847
42854
42860
42903
42926
42941
42952
42971
43069
43130
43160
43207
43256
43267
43277
43298
43300
43386
43427
43434
43565
43665
43763
43813
43836
43837
43861
43891
43950
44122
44157
44197
44374
44426
44503
44890
45451
36521
38800
38803
40347
40569
40572
40587
40907
41295
41707
41727
41876
42201
42213
42337
42344
42363
42427
42531
42704
42716
42819
42841
42944
42956
43029
43058
43064
43093
43094
43120
43245
43251
43259
43266
43270
43273
43330
43360
43451
43540
43542
43546
43555
43631
43634
43635
43654
43656
43681
43702
43716
43779
43897
43956
43970
43976
43982
43999
44004
44035
44036
44089
44093
44160
44195
44239
44264
44282
44359
44392
44465
44490
44508
37046
44676
44936
45084
45214
45450
45553
36111
37051
36968
34942
37173
38735
38925
40024
40768
40777
41258
41619
41760
41794
41825
42001
42036
42135
42235
42528
42679
42702
42765
36100
42804
42810
42889
42946
43000
43024
43040
43044
43087
43089
43127
43148
43222
43223
43232
43440
43471
43545
43554
43558
43677
43751
43754
43864
43887
44063
44267
44341
44699
44811
44877
44912
45138
45373
34701
40574
43907
40788
35122
35551
36392
36557
39735
40137
40156
40361
40467
40484
40566
40646
41266
41279
41404
41769
41869
41879
41981
41999
42037
42295
42302
42554
42556
42727
42782
42831
42833
42939
43026
43039
43106
43112
43115
43226
43288
43327
43375
43433
43457
43458
43514
43526
43572
43638
43644
43645
43671
43672
43676
43708
43758
43759
43847
43855
43857
43858
43905
43960
44287
44299
44331
44391
37330
44578
44662
44684
44700
44714
44769
44980
45263
45265
45759
46565
44008
43469
41771
39018
40259
40871
41060
41156
41367
41394
41486
41680
41893
41991
42514
42629
42807
42842
42928
42958
43025
43030
43140
43197
43257
43289
43367
43369
43429
43438
43447
43455
43626
43652
43753
43769
43794
43811
43869
43916
43955
44038
44061
44062
44076
44142
44151
44159
44192
44199
44296
44310
44363
44464
44505
44653
44678
44761
45078
45116
45125
45182
35835
46063
33432
38612
39950
40783
40858
40966
41383
41690
41740
41864
41982
42012
42098
42182
42255
42515
42750
42786
42830
43033
43056
43331
43349
43454
43490
43550
43561
43573
43578
43647
43736
43740
43828
43868
43933
43957
43959
43964
44014
44055
44170
44248
44270
44307
44318
44348
44379
44467
44560
44586
44774
44794
44976
33206
34426
36874
39556
40175
41185
41388
41817
41915
42097
42141
42347
42395
42418
42565
42567
42729
42813
42931
42935
43065
43237
43275
43335
43351
43430
43437
43475
43532
43544
43570
43574
43752
43841
44047
44069
44103
44135
44156
44178
44218
44272
44284
44304
36363
44364
44471
44523
44593
44599
44609
44685
44767
44790
44812
44864
44898
44937
45037
45051
45186
45202
45347
45405
45737
45853
35950
41963
37058
37604
37997
40037
40050
40243
40370
41254
42029
42250
42293
42321
42332
42472
42600
42633
42699
42706
42707
42864
42911
42919
43004
43125
43149
43150
43180
43317
43343
43418
43419
43421
43425
43449
43453
43639
43773
43782
43787
43789
43865
43870
43878
43940
43993
44041
44075
44145
44257
44292
44371
44376
44415
44481
44527
44576
44656
44765
44797
44841
44888
44979
44982
44986
45086
45101
45115
45184
45277
45332
45524
45543
45695
45900
46062
37050
46669
36666
41484
39534
36791
38119
38605
39453
39733
39939
40344
40577
40864
41757
41917
41932
41974
41980
41992
42442
42762
43016
43119
43198
43242
43407
43408
43462
43466
43510
43525
43528
43564
43618
43668
43775
43798
43886
43896
43898
43911
43914
43961
43972
43984
44073
44087
44136
44158
44168
44263
44268
44353
44362
44393
36612
44478
44516
44663
44677
44724
44814
44868
44946
44961
45023
45025
45173
45179
45213
45478
45513
38454
42431
37275
40567
37159
38002
38309
38497
39632
39743
39952
41180
41472
41571
41712
41767
41777
42123
42957
43055
43060
43061
43105
43213
43241
43378
43439
43530
43666
43761
43771
43913
43967
44013
44091
44100
44177
44250
44266
44297
44346
44351
44352
44367
44368
44383
44402
44405
44432
44499
44545
44546
44598
44603
44623
44687
44705
44747
44775
44799
44876
44970
45105
45135
45191
45267
45319
45404
45485
42888
42287
37605
37937
37698
38019
38695
39058
40251
40253
40555
40673
40692
40785
41068
41764
41978
42124
42228
42496
42725
42828
42887
42978
43101
43225
43521
43650
43746
43788
43826
43944
43968
44046
44072
44144
44166
44187
44203
44260
44273
44309
37590
44372
44384
44602
44632
44658
44659
44664
44669
44780
44793
44848
44850
44884
44914
44995
45038
45272
45288
45333
45341
37152
45509
45523
45632
38816
45892
46101
46673
35939
41479
39348
37612
37445
38211
38489
39934
39955
40343
41273
42291
42509
42626
42784
42913
43085
43200
43240
43416
43523
43551
43620
43624
43832
43838
43946
44042
44086
44139
44210
44274
44278
44360
44370
44378
44388
44438
44473
44483
44529
44540
44568
44592
44641
44661
44675
44692
44771
44778
44781
44798
44804
44853
44859
44880
44905
44989
45060
45080
45095
45108
45169
45170
45205
45259
45284
45291
45360
45394
45402
45872
38550
46220
46232
46233
37238
37331
46986
37342
40042
45032
36623
37248
36901
38512
39529
41171
41863
41969
42087
42184
42517
42525
42687
42912
42943
42968
42997
43124
43204
43219
43325
43342
43420
43619
43747
43846
43854
43856
43962
43965
44052
44053
44149
44171
44240
44289
44390
44396
44431
44451
44485
44595
44606
44682
44703
44817
44851
44862
44902
44933
44959
44992
45004
45122
45166
45167
45201
45283
38281
45369
45430
45576
45583
45779
45897
46166
46228
46529
37755
38286
40868
36360
38089
40552
40763
41351
41594
41678
41902
42306
42459
43092
43246
43323
43357
43399
43413
43441
43445
43470
43497
43612
43642
43674
43742
43756
43765
43827
43829
36874
44066
44164
44172
44173
44258
44269
44355
44403
44470
44477
44486
44497
44513
44548
44564
44580
44582
44614
44648
44660
44709
44777
44860
44861
44886
44972
45008
45043
45076
45174
45180
45209
45228
45271
45305
45408
45427
45438
45441
45830
46117
46259
47090
38289
37859
27137
39537
39850
40021
40029
40586
40754
41064
41468
41758
42206
42224
42294
42328
42405
42518
42732
42792
42795
42799
42882
43141
43214
43326
43435
43524
43538
43603
43623
43679
43705
43818
44002
44065
44092
44147
44169
44180
44262
44280
44338
44354
44404
44454
44495
44627
44764
44821
44865
44891
44967
44991
45002
45026
45177
45189
45196
45203
45210
45248
45301
45508
45527
45533
45587
45595
45602
45616
45641
45707
45720
45855
46099
46104
46158
46164
45334
46238
46527
47502
38462
43783
37064
36289
36625
37906
40758
40857
41679
42178
42209
42504
42670
42709
42785
43136
43304
43374
43529
43621
43687
43707
43728
43745
43872
43973
43987
44174
44189
44225
44235
44255
44283
44365
44369
44380
44500
44506
44544
44549
44557
44565
44587
44591
44605
44665
44711
44783
44785
44837
44900
44920
44935
44954
44968
44985
45012
45085
45089
45110
45200
45218
45239
45273
45295
45298
45331
45459
45470
45476
45502
45503
45516
45588
45623
45640
45642
45739
45753
38022
45790
45884
45885
45893
45922
46010
46124
46191
46196
46307
47086
47396
44220
44925
38390
36555
39545
39930
40759
41126
41194
41891
42101
41560
42501
42505
42519
42591
42910
43138
43536
43741
43749
43768
43833
43867
43893
43937
43942
43951
44000
44030
44039
44120
44152
44366
44444
44447
44559
44566
44570
44589
44667
44668
44671
44686
44702
44758
44788
44863
44896
44916
44953
44981
44984
44999
45001
45005
45075
45195
45207
45224
45278
45389
45421
45491
45506
45542
45579
45608
45692
45717
45722
45746
45899
46017
46139
46665
46950
47193
38827
38288
41596
39324
38757
38936
38376
38921
37775
38594
39947
41488
41669
41783
42296
42441
42592
42616
42800
42805
42886
42921
42942
43116
43122
43239
43844
43862
43881
43932
43938
44082
44191
44196
44207
44332
44373
44375
44442
44457
44474
44542
44670
44708
44754
44791
44822
44893
44971
44990
45068
45072
45081
45093
45113
45280
45290
45302
45309
45310
45372
45391
45395
45400
45411
45419
45500
45679
45684
45693
45699
45701
45714
45724
45725
45742
45800
45815
45839
45902
45923
45926
45942
45990
46006
46098
46121
46162
46291
46306
46315
46409
46452
46520
46567
38284
46885
39682
36878
43338
37513
39329
40139
41459
42686
42809
42824
43075
43114
43301
43673
44022
44049
44057
44060
44094
44121
44167
44244
44253
44256
44285
44337
44407
44449
44456
44466
44512
44531
44655
44666
44680
44805
44807
44831
44834
44885
44915
44964
44998
45030
45102
45150
45266
45308
45326
45338
45382
45384
45393
45403
45519
45582
45592
45631
45718
45719
45727
45794
45889
45905
45932
45959
46048
46084
46118
46129
46398
46444
46564
46646
46709
46748
46978
38997
38813
38915
37506
40153
38367
31566
39146
39971
40659
41364
41672
41890
41995
42311
42596
42601
42914
42917
43372
43770
43871
43939
44045
44071
44124
44179
44190
44221
44271
44288
44398
44462
44510
44630
44706
44756
44760
44786
44871
44875
44903
44952
44993
45011
45073
45083
45123
45128
45161
45163
45178
45187
45270
37752
45374
45390
45528
45529
45597
45607
45705
45706
45726
45736
45774
45843
45881
45883
45896
45911
45933
45983
45989
46004
46035
46153
46441
46492
46539
46632
47360
47392
38377
38118
34633
40271
40654
42419
42430
42924
43480
43815
43825
43919
43954
43958
44059
44153
44154
44193
44339
44394
44436
44458
44459
44530
44621
44642
44672
44768
44773
44873
44878
44879
44887
44904
44929
44962
44988
45018
45087
45094
45096
45165
45197
45246
45275
45312
45316
45325
45364
45379
45435
45496
45499
45534
45548
45581
45609
45622
45625
45653
45674
45677
45698
45713
45715
45729
45801
45812
45820
45846
45880
45931
45988
45997
46024
46037
46052
46094
46112
46131
46138
46222
46227
46298
46397
46416
46423
46432
46523
46883
47089
39002
38551
36157
38090
39332
43516
43139
34729
37914
38917
39112
39451
39854
41583
41966
42204
42933
43776
43983
44081
44175
44238
44275
44534
44588
44683
44707
44729
44772
44806
44835
44889
45058
45063
45066
45104
45109
45175
45279
45365
45376
45388
45392
45429
45448
45482
45493
45511
45515
45568
45594
45618
45628
45688
45748
45796
45827
45831
45887
45901
45936
45943
38735
45986
46018
46123
46199
46213
46234
46296
46331
46360
46402
46406
46491
46678
46700
46983
37866
38822
35952
43908
36552
36972
40965
41358
41464
41784
41894
42099
43196
43311
43373
43406
43409
43630
43663
44222
44226
44259
44265
44281
44401
44484
44550
44689
44738
44763
44869
44870
44966
45006
45014
45059
45062
45217
45375
45406
45480
45486
45555
45747
45752
45757
45791
45795
45817
45836
45894
45914
45925
45994
46076
46087
46089
46141
46143
46225
46241
46328
46447
46554
37518
46718
46725
46733
46795
46875
46944
46954
47047
47190
47236
47340
39169
48066
48205
39961
40265
41691
42000
42189
42593
42726
42814
42905
43027
43605
43616
43648
43812
44043
44097
44137
44254
44480
44571
44572
44784
44974
45064
45065
45090
45133
45221
45240
45328
45378
45410
45420
45484
45512
45530
45554
45590
45599
45600
45604
45620
45689
45710
45750
45809
45878
45987
46011
46014
46026
46029
46065
46212
46283
46294
46299
46391
46404
46427
39083
46514
46524
46549
46609
46615
46637
46675
46677
46735
46867
46916
46952
38016
46999
47158
38021
39526
38293
36800
43314
43333
43830
43920
44301
44537
44555
44563
44577
44657
44736
44746
44816
44910
44996
45000
45103
45107
45120
45193
45206
45253
45293
45368
45415
45469
45490
45504
45517
45535
45606
45612
45644
45744
45771
45803
45882
45904
45915
45929
45945
46049
46081
46125
46126
46186
46190
46343
46420
46450
46504
46509
46530
46537
46593
46597
46612
46627
46670
46717
46829
46938
46973
46980
38817
47068
47183
47241
40158
47459
39094
46551
39421
37970
41749
39233
41576
41681
42403
42460
42502
43133
43332
43511
43534
43598
43731
44148
44247
44326
44358
44460
44498
44526
44647
44757
44849
44857
45015
45111
45156
45183