/*--------------------------------*- C++ -*----------------------------------*\
| =========                 |                                                 |
| \\      /  F ield         | OpenFOAM: The Open Source CFD Toolbox           |
|  \\    /   O peration     | Version:  2406                                  |
|   \\  /    A nd           | Website:  www.openfoam.com                      |
|    \\/     M anipulation  |                                                 |
\*---------------------------------------------------------------------------*/
FoamFile
{
    version     2.0;
    format      ascii;
    arch        "LSB;label=32;scalar=64";
    class       Cloud<dsmcParcel>;
    location    "0.001/lagrangian/dsmc";
    object      positions;
}
// * * * * * * * * * * * * * * * * * * * * * * * * * * * * * * * * * * * * * //

9352
(
(0.2574933051 0.09311749934 -6.505213035e-19) 143
(0.2897766087 0.137792633 4.33680869e-19) 328
(0.3003649581 0.1329439872 3.794707604e-19) 299
(0.2997741961 0.09015307889 -2.168404345e-19) 59
(0.2105161537 0.07450509306 1.084202172e-19) 77
(0.2682640132 0.08763891876 -2.168404345e-19) 85
(0.2445619826 0.07818544156 -5.421010862e-20) 82
(0.2735719818 0.07414559174 0) 25
(0.2680330218 0.09166395596 -2.168404345e-19) 115
(0.2944523003 0.1092179884 1.219727444e-19) 178
(0.2316517356 0.06618651538 -1.084202172e-19) 20
(0.3029782597 0.08530465466 0) 29
(0.3008835052 0.1426279433 5.421010862e-20) 359
(0.2668162396 0.09985186821 -2.168404345e-19) 145
(0.2629918709 0.1377958458 -1.965116438e-19) 354
(0.2967213149 0.08769509462 -1.829591166e-19) 58
(0.2737603104 0.1119219727 0) 205
(0.2852172584 0.1028685825 1.084202172e-19) 147
(0.3004587705 0.08265269499 -1.626303259e-19) 29
(0.2576894497 0.119814722 -2.168404345e-19) 263
(0.2915525839 0.1151244054 -2.168404345e-19) 208
(0.2926035806 0.1341894333 2.168404345e-19) 328
(0.2928832197 0.09804492338 -2.439454888e-19) 118
(0.2837234027 0.1107620598 2.168404345e-19) 207
(0.2281517254 0.07177603787 2.168404345e-19) 49
(0.250802897 0.0856222648 0) 112
(0.2621888835 0.09662389727 4.33680869e-19) 144
(0.2537213412 0.08030695302 0) 83
(0.1876854742 0.06002880727 0) 44
(0.2711523055 0.1065412752 -1.626303259e-19) 175
(0.276907756 0.1380224986 2.168404345e-19) 356
(0.2737209843 0.1604085384 -3.252606517e-19) 475
(0.3000753039 0.09066128118 -4.33680869e-19) 59
(0.2712691319 0.09949285908 0) 145
(0.2769122618 0.1551271339 3.252606517e-19) 446
(0.2438055446 0.09032429847 2.168404345e-19) 141
(0.2276158295 0.08173310521 2.57498016e-19) 109
(0.3017777628 0.09440399161 8.131516294e-20) 89
(0.2834049689 0.1151160059 2.168404345e-19) 207
(0.3043207186 0.08288418719 -2.168404345e-19) 29
(0.2290033585 0.0901294733 -2.168404345e-19) 140
(0.273362178 0.08567544324 -4.33680869e-19) 85
(0.2875431705 0.09742038062 2.168404345e-19) 117
(0.2535812838 0.08237145924 4.33680869e-19) 83
(0.297253043 0.1081284648 1.084202172e-19) 179
(0.3018913579 0.1063793716 2.168404345e-19) 149
(0.2701563365 0.0739602719 1.355252716e-19) 25
(0.2982072054 0.0843750579 0) 29
(0.2798110589 0.1092327588 0) 206
(0.279008241 0.07530282008 2.168404345e-19) 26
(0.2875215602 0.07963708218 2.710505431e-20) 27
(0.2840506809 0.1251910601 2.981555974e-19) 267
(0.2801992125 0.07863074323 -2.168404345e-19) 26
(0.30038111 0.09582810686 2.168404345e-19) 89
(0.2545363375 0.06968422635 -1.084202172e-19) 23
(0.2778906107 0.0851636885 -4.33680869e-19) 56
(0.2006762722 0.0653335626 0) 46
(0.2766401407 0.08878644998 1.626303259e-19) 86
(0.263143655 0.08818622083 0) 114
(0.2620024427 0.09312185666 -2.168404345e-19) 114
(0.2952243711 0.1194521265 -1.084202172e-19) 238
(0.274073182 0.07987151446 0) 55
(0.2985010602 0.1117376776 0) 179
(0.2987615775 0.1115405771 -1.084202172e-19) 179
(0.2679378741 0.0838081235 2.168404345e-19) 85
(0.2083188758 0.06143946919 0) 17
(0.2755996783 0.08063511018 5.421010862e-20) 56
(0.2455968123 0.1099518069 -1.897353802e-19) 232
(0.2909952389 0.09431084662 3.252606517e-19) 88
(0.2796552231 0.1427539437 2.168404345e-19) 386
(0.296799249 0.08353554506 2.168404345e-19) 28
(0.2855386481 0.126930055 2.710505431e-20) 297
(0.2925076154 0.08797967856 1.084202172e-19) 58
(0.2851011948 0.1035586654 0) 147
(0.3031346728 0.09734925044 -4.33680869e-19) 89
(0.2816396204 0.1064985851 0) 176
(0.240430259 0.07401836255 1.355252716e-19) 51
(0.2721630488 0.08334158262 3.252606517e-19) 55
(0.2321427765 0.07837835845 -2.168404345e-19) 80
(0.3016790917 0.08338340179 1.084202172e-19) 29
(0.2677212386 0.09714316372 2.168404345e-19) 145
(0.246648172 0.1025644204 0) 202
(0.2289007152 0.06690880048 2.168404345e-19) 20
(0.278716052 0.1149979077 -2.168404345e-19) 236
(0.2515064179 0.1038847963 -4.33680869e-19) 203
(0.2498220952 0.1106918047 2.168404345e-19) 232
(0.209684202 0.07025082804 -1.084202172e-19) 77
(0.274701427 0.09244456996 0) 116
(0.2775866507 0.1022122882 0) 146
(0.2764064445 0.07874907782 -4.33680869e-19) 26
(0.2555483113 0.08739242085 -1.084202172e-19) 113
(0.2199630934 0.06172560342 0) 18
(0.2991615799 0.08760146627 -1.084202172e-19) 59
(0.2723837557 0.07906405854 -2.168404345e-19) 55
(0.2875591781 0.1510977781 4.33680869e-19) 417
(0.2488224267 0.1139674355 0) 262
(0.2443547469 0.07871119022 -1.084202172e-19) 82
(0.219480348 0.1367482779 -2.168404345e-19) 378
(0.275603017 0.1146594161 -3.252606517e-19) 236
(0.2980873561 0.09971360211 -1.084202172e-19) 119
(0.22397207 0.06441316286 0) 19
(0.2446670091 0.07305387024 1.084202172e-19) 52
(0.2683634324 0.1059561897 0) 175
(0.292067774 0.08855272511 -1.084202172e-19) 58
(0.2385152528 0.07171293405 6.776263578e-20) 51
(0.2382753145 0.06403521019 -3.252606517e-19) 21
(0.3039031712 0.08178318144 0) 29
(0.2934925703 0.1037503846 4.065758147e-20) 148
(0.2998665796 0.131722942 -8.978549241e-20) 299
(0.3015222382 0.1067291795 0) 149
(0.2922077487 0.09644609395 -1.084202172e-19) 118
(0.2861330444 0.1162060292 0) 237
(0.213371227 0.1093280218 2.168404345e-19) 258
(0.2852940884 0.08044927237 -1.084202172e-19) 27
(0.1808988533 0.049903709 0) 13
(0.2692175824 0.07353276416 -1.084202172e-19) 25
(0.2454628522 0.09679195688 -5.963111949e-19) 172
(0.2961519438 0.1213249533 2.168404345e-19) 238
(0.2356037345 0.06891289316 -2.168404345e-19) 20
(0.2812761014 0.08590492051 0) 56
(0.2262673776 0.0862881883 0) 139
(0.2651882423 0.08937688238 0) 114
(0.2974784305 0.1122701565 2.168404345e-19) 179
(0.2957800264 0.1138713677 1.084202172e-19) 208
(0.283050327 0.09536444652 0) 117
(0.2746042287 0.07998321487 -5.421010862e-20) 56
(0.2578875208 0.08066547712 0) 83
(0.3035668746 0.1228122615 2.168404345e-19) 239
(0.2159292507 0.09865591244 -2.168404345e-19) 198
(0.2877150142 0.08644881983 0) 57
(0.2331583638 0.07397959691 -1.084202172e-19) 50
(0.2777946502 0.09979027434 5.421010862e-20) 146
(0.270110877 0.09828122333 8.618560238e-20) 145
(0.2952745318 0.09260462444 2.168404345e-19) 88
(0.2584999393 0.1040487805 -4.33680869e-19) 203
(0.3027296494 0.08265085815 2.168404345e-19) 29
(0.2408401206 0.06934768916 2.168404345e-19) 21
(0.284489151 0.08669671967 -1.084202172e-19) 57
(0.2140875247 0.07177230063 2.168404345e-19) 78
(0.2934736643 0.1357026564 0) 328
(0.2652817647 0.09415901383 0) 144
(0.1979053023 0.0560643996 2.710505431e-19) 15
(0.2596029152 0.08833465441 -1.084202172e-19) 114
(0.3002453896 0.1342785377 -2.168404345e-19) 299
(0.2967975844 0.1489700224 4.33680869e-19) 388
(0.2204409863 0.07684476515 -2.168404345e-19) 78
(0.1613103862 0.05840548169 -1.084202172e-19) 71
(0.2348441502 0.09513180678 2.710505431e-19) 170
(0.3011467042 0.1132590503 -2.710505431e-19) 179
(0.3009940634 0.1072234903 2.947674656e-19) 149
(0.2475739343 0.09749600988 5.421010862e-20) 172
(0.2473391013 0.06666353459 5.421010862e-20) 22
(0.2547280008 0.08661042841 3.252606517e-19) 113
(0.295977865 0.1527847104 -1.084202172e-19) 418
(0.22120383 0.1113008442 -2.168404345e-19) 259
(0.2840195655 0.0858070709 -1.660184577e-19) 57
(0.2544503596 0.09870737752 -2.168404345e-19) 173
(0.2222767655 0.08889305168 2.981555974e-19) 139
(0.2978551884 0.1310161585 -1.084202172e-19) 299
(0.2092649069 0.06425516734 -2.981555974e-19) 47
(0.2205873004 0.0701220193 2.168404345e-19) 48
(0.2079375213 0.06249024289 1.084202172e-19) 47
(0.2992574003 0.08793075027 2.168404345e-19) 59
(0.1779698328 0.07808593227 0) 133
(0.2223034693 0.06262321575 -1.016439537e-19) 19
(0.2677764321 0.08846662639 -1.084202172e-19) 85
(0.270533283 0.07735086863 1.423015351e-19) 25
(0.2506976846 0.1009751691 -2.168404345e-19) 172
(0.2429265326 0.08155616326 0) 81
(0.2545375375 0.07676491036 -5.421010862e-20) 53
(0.270376096 0.07319247957 2.168404345e-19) 25
(0.2340600334 0.06432577044 3.252606517e-19) 20
(0.2847059896 0.1140312154 5.421010862e-20) 207
(0.2200738226 0.06176623212 -2.710505431e-20) 18
(0.2547023168 0.08552741631 4.33680869e-19) 83
(0.2789154049 0.1296389884 1.084202172e-19) 296
(0.2749334373 0.08628429595 -1.084202172e-19) 86
(0.1839964249 0.06294975421 2.439454888e-19) 74
(0.1967129684 0.09140767775 -4.33680869e-19) 195
(0.2308133343 0.06471876216 0) 20
(0.2744372487 0.09400051019 1.084202172e-19) 116
(0.2520138194 0.07492519267 2.168404345e-19) 53
(0.2824397197 0.1397445991 2.168404345e-19) 357
(0.3032122422 0.1071245634 0) 149
(0.2155726261 0.06776285113 -3.252606517e-19) 48
(0.2835365266 0.07901927157 0) 27
(0.2239061179 0.08850968033 -2.168404345e-19) 139
(0.2794753563 0.1217951244 -1.084202172e-19) 266
(0.2180946483 0.09383547341 5.421010862e-19) 168
(0.2623768056 0.1196426928 1.355252716e-19) 264
(0.1642486989 0.1157333744 0) 341
(0.2265117924 0.07274190399 0) 79
(0.2886789141 0.1065023557 -2.168404345e-19) 177
(0.3011979117 0.151971043 4.743384505e-19) 389
(0.2628454045 0.07077659978 -3.083199928e-19) 24
(0.2549002073 0.06924460148 3.252606517e-19) 23
(0.2600839324 0.1312105471 3.252606517e-19) 324
(0.3030562655 0.08391866023 -1.694065895e-20) 29
(0.2584720867 0.08487793983 -2.168404345e-19) 83
(0.2857354916 0.08660437314 0) 57
(0.2356695151 0.1041315415 4.33680869e-19) 200
(0.2722658145 0.1096592086 -1.355252716e-19) 205
(0.2202453837 0.08686869351 2.168404345e-19) 138
(0.2439203515 0.06927654664 -1.084202172e-19) 22
(0.2500625176 0.1258633816 0) 322
(0.1939353251 0.08961765037 -2.710505431e-20) 195
(0.1906461393 0.05369626875 -2.168404345e-19) 15
(0.2516454023 0.06839259428 3.252606517e-19) 23
(0.2690503836 0.143444252 8.131516294e-20) 385
(0.2581652822 0.1062869775 0) 203
(0.2041934333 0.05777833545 3.292840582e-20) 16
(0.3028342438 0.130717649 0) 299
(0.1832013015 0.0681826368 -3.472835084e-19) 104
(0.1804143231 0.07270161045 -1.084202172e-19) 103
(0.174513319 0.05220472145 -2.168404345e-19) 12
(0.216631543 0.06366043823 2.168404345e-19) 18
(0.2566273643 0.07890707745 1.084202172e-19) 53
(0.2435616094 0.06602611736 2.168404345e-19) 21
(0.1984109797 0.08059615265 -2.168404345e-19) 136
(0.2439691646 0.1016369568 0) 202
(0.2654998229 0.08025543827 -2.168404345e-19) 54
(0.2267819521 0.08245506322 -2.168404345e-19) 109
(0.2201543973 0.08368703798 -2.168404345e-19) 138
(0.2995652038 0.08868276841 -8.131516294e-20) 59
(0.2578617267 0.1340044453 2.168404345e-19) 353
(0.1937724099 0.06759586325 1.084202172e-19) 75
(0.2759815838 0.07756055013 0) 26
(0.2440323888 0.09365807601 0) 142
(0.2509425504 0.08893345186 -6.505213035e-19) 112
(0.2635040647 0.07079188481 0) 24
(0.2204333005 0.07630671091 -4.33680869e-19) 78
(0.2426735677 0.09236255189 0) 141
(0.2435879127 0.06744240603 2.168404345e-19) 21
(0.2564544437 0.07305545148 -1.084202172e-19) 23
(0.2403572134 0.07459823205 -1.084202172e-19) 51
(0.2234753013 0.066049859 0) 49
(0.2886866596 0.1234611398 1.084202172e-19) 267
(0.2944305254 0.1032324844 1.626303259e-19) 148
(0.2864789509 0.07886805569 1.084202172e-19) 27
(0.2350651698 0.07218394703 -4.33680869e-19) 50
(0.2116771045 0.06429542664 2.168404345e-19) 47
(0.2408575375 0.1070245326 2.168404345e-19) 231
(0.1881012467 0.05432797506 1.084202172e-19) 14
(0.2975059454 0.1015379824 1.456896669e-19) 119
(0.2869953518 0.08028571997 0) 27
(0.2227661654 0.06566027014 1.084202172e-19) 19
(0.198759291 0.06574491389 0) 76
(0.2802737144 0.08440428636 -2.168404345e-19) 56
(0.2725583672 0.1101123759 2.168404345e-19) 205
(0.2275804979 0.1162175563 0) 289
(0.2589387792 0.07804451162 0) 53
(0.2834032534 0.07736485526 -3.794707604e-19) 27
(0.2705830825 0.1115417314 2.303929617e-19) 205
(0.1597949909 0.05041109016 2.168404345e-19) 40
(0.2622527546 0.08636000256 -2.168404345e-19) 84
(0.2847178254 0.1343660183 1.355252716e-20) 327
(0.2198956337 0.07098392256 0) 78
(0.2891021709 0.1114440702 -2.168404345e-19) 207
(0.2768061597 0.1469062272 -2.168404345e-19) 386
(0.2014112263 0.0615006717 1.084202172e-19) 46
(0.2960585911 0.09306564516 -1.558540623e-19) 88
(0.2287647909 0.0927127783 -2.168404345e-19) 170
(0.252479834 0.08326726188 -2.168404345e-19) 83
(0.2534054513 0.06864061817 0) 23
(0.256175898 0.08594208744 1.084202172e-19) 83
(0.2458752821 0.07789069036 0) 82
(0.2038906681 0.05483481996 0) 16
(0.257337848 0.08145841369 0) 83
(0.24786095 0.08899133017 -1.355252716e-19) 112
(0.144914061 0.05638955997 0) 69
(0.1940631836 0.05330421129 0) 15
(0.2764618537 0.08400164041 1.084202172e-19) 56
(0.2374500774 0.06426711499 -2.168404345e-19) 21
(0.2345212208 0.07279378961 0) 50
(0.283117789 0.07633414593 -2.168404345e-19) 27
(0.2553706023 0.1161799784 2.168404345e-19) 263
(0.2253350183 0.07432617992 0) 79
(0.2733966195 0.08514581091 0) 85
(0.1325121254 0.04606239432 0) 37
(0.2581306632 0.0840224554 0) 83
(0.1387670632 0.05865328769 -1.084202172e-19) 98
(0.1936599436 0.07186977308 -1.084202172e-19) 105
(0.2218778475 0.07990327204 2.168404345e-19) 109
(0.2415861429 0.104205458 1.084202172e-19) 201
(0.2924299636 0.09495166007 0) 88
(0.3012272321 0.09407789722 5.421010862e-20) 89
(0.2863551769 0.09749011471 1.626303259e-19) 117
(0.2104727691 0.09669452083 -3.252606517e-19) 197
(0.2689702691 0.1125574436 4.33680869e-19) 235
(0.2894612316 0.09401750289 0) 87
(0.1710645516 0.04875831078 1.355252716e-20) 12
(0.2649310771 0.1191981943 -1.084202172e-19) 264
(0.3004458563 0.1431471687 0) 359
(0.2613807934 0.07117545138 -4.33680869e-19) 24
(0.2564168806 0.08610916372 4.33680869e-19) 113
(0.2101628417 0.07703189149 -1.084202172e-19) 107
(0.3001680567 0.117235986 -1.626303259e-19) 209
(0.2088614516 0.07657701401 -5.421010862e-20) 107
(0.2648916279 0.1137146962 -2.981555974e-19) 234
(0.2877519796 0.09199015509 -2.168404345e-19) 87
(0.2702110242 0.07901122164 -2.710505431e-20) 55
(0.3024140711 0.1353131992 -4.33680869e-19) 299
(0.2792593793 0.07838436113 0) 26
(0.2521808481 0.1296692619 1.084202172e-19) 323
(0.2758172419 0.08159735088 0) 56
(0.267886472 0.1090633271 -2.168404345e-19) 205
(0.2792977918 0.09182006498 -4.33680869e-19) 116
(0.277220002 0.07901954582 1.084202172e-19) 26
(0.2230989143 0.07144617529 -2.168404345e-19) 49
(0.2718385729 0.08469900048 0) 85
(0.2322520698 0.07354722158 0) 50
(0.2287500506 0.0621053298 0) 20
(0.2578076747 0.105571185 0) 203
(0.2175472171 0.07997871273 2.981555974e-19) 108
(0.2327843713 0.1037649528 2.981555974e-19) 200
(0.2888901428 0.09561043854 2.168404345e-19) 117
(0.2776715858 0.1036741781 0) 176
(0.2316626202 0.1047696371 -2.168404345e-19) 230
(0.240010976 0.08267664048 -1.6093626e-19) 111
(0.254670073 0.1071512687 -1.084202172e-19) 203
(0.2905549012 0.08661179743 0) 58
(0.247980445 0.1418145397 2.981555974e-19) 382
(0.2396342082 0.07807373651 -1.626303259e-19) 81
(0.248388231 0.1175715363 -1.626303259e-19) 262
(0.1970000478 0.09529933043 0) 195
(0.2898792516 0.08611918884 -3.523657061e-19) 58
(0.2241037403 0.07814953013 -2.710505431e-19) 109
(0.2995371599 0.127122516 5.421010862e-20) 269
(0.2806873585 0.1084388093 2.168404345e-19) 176
(0.1789659199 0.1024107011 1.084202172e-19) 253
(0.2423425108 0.087221912 0) 111
(0.1847439083 0.0533295471 -5.421010862e-20) 14
(0.2351206426 0.0634188392 0) 20
(0.2937567231 0.1135110907 0) 208
(0.2659919798 0.1060999709 2.168404345e-19) 204
(0.2251078133 0.08224970008 -1.626303259e-19) 109
(0.2600165895 0.07434013281 -2.168404345e-19) 24
(0.2931770201 0.1012296258 2.846030703e-19) 148
(0.2448159928 0.0905656811 1.084202172e-19) 142
(0.2197666843 0.07836640531 0) 108
(0.2766343595 0.07507962237 -1.084202172e-19) 26
(0.2319710285 0.07000521706 -1.626303259e-19) 50
(0.2432766621 0.08797642672 0) 111
(0.2572202937 0.07458479867 0) 23
(0.263521966 0.08273071846 0) 84
(0.2577127738 0.1172325304 1.084202172e-19) 263
(0.275032488 0.1359605081 0) 356
(0.2843355122 0.08446618767 -1.084202172e-19) 57
(0.2801624283 0.10901003 -4.33680869e-19) 206
(0.282005783 0.08312432104 0) 57
(0.2513200217 0.09887700477 5.421010862e-20) 172
(0.2527448119 0.07475359701 1.626303259e-19) 53
(0.2642599129 0.108369482 -1.084202172e-19) 204
(0.239322938 0.06674704464 -8.131516294e-20) 21
(0.292901338 0.1509320606 2.168404345e-19) 418
(0.2489339022 0.1151198104 -2.168404345e-19) 262
(0.2446196944 0.0781686344 -1.626303259e-19) 82
(0.2533967715 0.07151454211 -1.084202172e-19) 23
(0.2976022789 0.1022311619 -1.897353802e-19) 149
(0.2849782769 0.1236827541 -2.168404345e-19) 267
(0.2611835988 0.08048937738 3.252606517e-19) 54
(0.3032561107 0.1621168189 -2.168404345e-19) 449
(0.2671507832 0.09108727004 -2.168404345e-19) 115
(0.2608947388 0.07115718487 2.168404345e-19) 24
(0.184243752 0.07164710641 -3.523657061e-19) 104
(0.251215329 0.073470619 -6.505213035e-19) 52
(0.2904087648 0.09867860139 0) 118
(0.2957229497 0.1320278972 -2.168404345e-19) 298
(0.280592225 0.0995929942 -4.33680869e-19) 146
(0.2739085528 0.09940532852 0) 145
(0.2739914445 0.0982785375 -2.710505431e-19) 145
(0.2797449195 0.1268959112 2.168404345e-19) 296
(0.2667928821 0.1386387555 0) 355
(0.2017013345 0.06689933257 -3.523657061e-19) 76
(0.2450478867 0.07027933228 0) 22
(0.2607640902 0.07078187473 0) 24
(0.2984682756 0.1074508181 -1.084202172e-19) 149
(0.2705252218 0.09935550609 -1.948175779e-19) 145
(0.2890790044 0.08245265212 2.168404345e-19) 27
(0.2751344994 0.1041669552 2.168404345e-19) 176
(0.2149802483 0.08960668833 1.626303259e-19) 168
(0.2446842244 0.1039347177 -4.33680869e-19) 202
(0.2756354792 0.1105539967 0) 206
(0.2733380209 0.1320155028 -1.084202172e-19) 325
(0.3000288519 0.08870535638 6.09863722e-20) 59
(0.3039789985 0.123095356 4.33680869e-19) 239
(0.1972469342 0.08171708808 -2.168404345e-19) 135
(0.2468627639 0.1319310319 2.168404345e-19) 352
(0.1983625066 0.09181494888 -2.168404345e-19) 196
(0.243169466 0.06702294526 -1.084202172e-19) 21
(0.1974490636 0.07612044091 -2.168404345e-19) 105
(0.2875109254 0.1192439179 0) 237
(0.2597583239 0.1065720001 -4.33680869e-19) 204
(0.2919140268 0.1030705884 1.084202172e-19) 148
(0.2657346854 0.1011601471 2.168404345e-19) 174
(0.2231582114 0.1247770587 -2.710505431e-19) 319
(0.2313127297 0.08776300409 -1.084202172e-19) 140
(0.1824550821 0.05547041625 4.33680869e-19) 43
(0.271291138 0.1295396022 0) 325
(0.2709683064 0.1063868986 5.421010862e-20) 175
(0.2431230688 0.1501564229 1.626303259e-19) 441
(0.2747136897 0.08183099591 0) 56
(0.2814006783 0.08548317163 2.168404345e-19) 56
(0.237940096 0.07716278105 -2.710505431e-20) 81
(0.1926191183 0.06288047929 -3.252606517e-19) 45
(0.2824942769 0.08135052006 2.168404345e-19) 57
(0.2511326533 0.08247944695 -4.33680869e-19) 82
(0.1733505259 0.05784317793 4.33680869e-19) 42
(0.2520593564 0.07437580471 -5.421010862e-20) 53
(0.2272669251 0.06703220188 4.33680869e-19) 49
(0.2591000352 0.0961374095 4.33680869e-19) 144
(0.2810946075 0.1331298047 0) 326
(0.2119579968 0.07483910668 0) 77
(0.2625638773 0.09389403549 -4.607859233e-19) 144
(0.2538833938 0.08139797971 4.33680869e-19) 83
(0.1737639115 0.05930960375 -4.33680869e-19) 72
(0.3035337366 0.1174263482 -2.168404345e-19) 209
(0.2698298283 0.1203761599 -6.776263578e-19) 265
(0.2797639982 0.1233441538 -1.084202172e-19) 266
(0.2454338697 0.0901264637 0) 142
(0.2789186805 0.1139977024 -4.878909776e-19) 206
(0.1594371634 0.05242269988 2.168404345e-19) 40
(0.2682131318 0.07350283636 -1.084202172e-19) 25
(0.2750932365 0.09891917215 0) 146
(0.1948933956 0.08333836397 4.33680869e-19) 165
(0.2767544236 0.07987359676 0) 56
(0.2392653063 0.1045481373 2.168404345e-19) 201
(0.2999697074 0.1611271927 -1.084202172e-19) 449
(0.288910049 0.08759042817 0) 57
(0.2503151806 0.1201804286 2.168404345e-19) 292
(0.1845034233 0.08111121792 2.168404345e-19) 164
(0.216340541 0.08856315394 -5.421010862e-20) 168
(0.2838251055 0.09533065122 0) 117
(0.2685219913 0.1107652021 3.794707604e-19) 205
(0.2613695354 0.1132829255 1.355252716e-20) 234
(0.2949897096 0.1054033773 2.168404345e-19) 148
(0.2115774943 0.06545860559 0) 47
(0.2296710247 0.1135792407 0) 260
(0.1955783606 0.07270053141 0) 105
(0.2953747252 0.07962113404 0) 28
(0.2453829033 0.08009695998 0) 82
(0.1976940673 0.0544313474 0) 15
(0.2899399246 0.08557935659 2.168404345e-19) 58
(0.2346083881 0.06343986433 2.168404345e-19) 20
(0.2072136417 0.09383603356 -1.626303259e-19) 197
(0.2889881505 0.1585062827 -4.33680869e-19) 447
(0.2696480424 0.1024045671 -5.421010862e-19) 175
(0.2935865231 0.08336118378 1.219727444e-19) 28
(0.2382693355 0.06588662023 -5.421010862e-20) 21
(0.2708819901 0.07344278196 -2.168404345e-19) 25
(0.2429332712 0.0693085263 4.33680869e-19) 21
(0.2441203355 0.08687294968 1.084202172e-19) 112
(0.2200797606 0.06379633681 2.168404345e-19) 18
(0.2235523591 0.07861001603 0) 109
(0.2791353599 0.07993959122 1.084202172e-19) 26
(0.2592660316 0.09315381939 -2.710505431e-19) 144
(0.3031263067 0.1090102273 0) 179
(0.2300082783 0.07564679637 1.084202172e-19) 80
(0.277822415 0.0931928038 0) 116
(0.2242463471 0.0608607586 -5.421010862e-20) 19
(0.1836644089 0.09455679127 -2.168404345e-19) 224
(0.2398042588 0.07643130136 1.084202172e-19) 81
(0.2502479289 0.07795193932 2.168404345e-19) 52
(0.2326159429 0.06675997797 -6.776263578e-20) 20
(0.2170312715 0.07314431571 1.355252716e-19) 78
(0.2203464439 0.08024266664 4.33680869e-19) 108
(0.2782186498 0.07550000297 -2.168404345e-19) 26
(0.2055980928 0.08833635842 5.421010862e-20) 166
(0.2696522369 0.1083013482 -1.084202172e-19) 205
(0.2072713316 0.06346983516 -2.168404345e-19) 47
(0.2254597941 0.0632236718 -8.131516294e-20) 19
(0.2114349504 0.06467895015 3.252606517e-19) 47
(0.173658404 0.08932836714 0) 192
(0.2935494253 0.1152125475 -1.76182853e-19) 208
(0.180459646 0.057207907 5.421010862e-20) 43
(0.1985609917 0.06400607265 0) 46
(0.1818395852 0.06170873012 4.33680869e-19) 73
(0.2194299167 0.07602323327 -2.168404345e-19) 78
(0.2206951505 0.07037922523 0) 48
(0.2266670964 0.07055483455 2.168404345e-19) 49
(0.3039449417 0.107514652 0) 149
(0.2720990465 0.1254444422 0) 295
(0.2981690051 0.1491029953 -1.626303259e-19) 389
(0.25746943 0.08734686153 2.168404345e-19) 113
(0.3013017451 0.1018680375 -2.168404345e-19) 119
(0.1915091043 0.07080182357 -4.912791094e-20) 105
(0.2788966341 0.07757882074 0) 26
(0.2446486526 0.07063622364 2.168404345e-19) 22
(0.2867160768 0.09941527567 -2.168404345e-19) 147
(0.2031258903 0.100159926 2.710505431e-20) 226
(0.2703125624 0.08357637329 -4.33680869e-19) 55
(0.2800957848 0.08148760141 0) 56
(0.2102167731 0.09506685635 -2.168404345e-19) 197
(0.2820673301 0.09556793549 2.168404345e-19) 117
(0.2178499331 0.08667919794 -5.421010862e-20) 138
(0.2809317187 0.07954368667 2.168404345e-19) 26
(0.236549425 0.09610649655 8.131516294e-20) 171
(0.2951826913 0.08819711117 0) 58
(0.1863810469 0.07316705458 1.084202172e-19) 104
(0.1461152769 0.04742595795 5.421010862e-20) 39
(0.2657331523 0.07668011526 -2.168404345e-19) 24
(0.282362522 0.07861020311 9.486769009e-20) 27
(0.2363265954 0.08047968491 -2.168404345e-19) 81
(0.2961293787 0.1435663219 2.168404345e-19) 358
(0.260204595 0.08550328883 0) 84
(0.2497990711 0.07958167392 2.168404345e-19) 82
(0.2672010673 0.09035482948 -2.168404345e-19) 115
(0.2418380554 0.08261280999 0) 111
(0.1641947385 0.04997229257 2.981555974e-19) 11
(0.2865271325 0.08210412916 5.421010862e-20) 27
(0.2662967914 0.1351843176 0) 354
(0.2758407088 0.1496023966 -1.084202172e-19) 416
(0.2672603313 0.09283786488 1.084202172e-19) 115
(0.2736610332 0.09836241874 -3.794707604e-19) 145
(0.2734321032 0.112812314 -2.168404345e-19) 205
(0.1878780688 0.05289438038 -1.626303259e-19) 14
(0.2839759496 0.08698856811 0) 57
(0.2975259413 0.1157880927 8.131516294e-20) 209
(0.2514215808 0.08248191064 0) 82
(0.2674803032 0.1164364754 0) 235
(0.2859267773 0.08207944784 -8.131516294e-20) 27
(0.2272659783 0.08135867896 2.710505431e-19) 109
(0.2996547284 0.1389014106 3.252606517e-19) 329
(0.2870781142 0.07761154712 0) 27
(0.2670815066 0.07479425431 0) 25
(0.22565166 0.06406948902 5.421010862e-20) 19
(0.1930528877 0.07878619738 1.355252716e-19) 135
(0.1951221346 0.06427941173 0) 45
(0.2017265878 0.07722186248 2.168404345e-19) 106
(0.2637903969 0.1421657907 -1.084202172e-19) 384
(0.2847114425 0.1188352787 4.878909776e-19) 237
(0.2725063873 0.07487448985 1.084202172e-19) 25
(0.262236769 0.1228008966 0) 294
(0.2995350434 0.09909016636 -5.421010862e-19) 119
(0.2600857589 0.07892968827 1.626303259e-19) 54
(0.2910984112 0.09915447924 4.065758147e-20) 118
(0.1993726652 0.05652555895 3.388131789e-21) 16
(0.2946935843 0.09348278604 2.168404345e-19) 88
(0.3003237466 0.09914660227 -1.084202172e-19) 119
(0.2783041781 0.1316779146 0) 326
(0.1834968692 0.05177531815 4.33680869e-19) 14
(0.2587212406 0.0868556041 0) 113
(0.1886386935 0.1148857684 -1.084202172e-19) 314
(0.2675196103 0.1010679183 2.710505431e-19) 175
(0.2971806806 0.0843285252 -4.33680869e-19) 29
(0.1797998065 0.06740029241 2.168404345e-19) 103
(0.2329974951 0.1155533266 -1.084202172e-19) 260
(0.2590421045 0.1091633179 0) 203
(0.2237051261 0.08721706199 1.084202172e-19) 139
(0.2915641693 0.1372279212 1.084202172e-19) 328
(0.2742240961 0.1405478777 -4.33680869e-19) 355
(0.2232309296 0.08113839044 -1.084202172e-19) 109
(0.1997260248 0.07059651726 -2.168404345e-19) 76
(0.2801656188 0.09629091127 0) 116
(0.2921087799 0.0903397026 -2.168404345e-19) 88
(0.2232311376 0.07667254928 -4.33680869e-19) 79
(0.2734141938 0.08626695615 -1.084202172e-19) 85
(0.2740158313 0.11370778 4.33680869e-19) 235
(0.2708597952 0.09106320566 2.168404345e-19) 115
(0.2499599615 0.1317926913 0) 352
(0.2962337363 0.09987189697 2.168404345e-19) 118
(0.2977786265 0.1181827843 -1.084202172e-19) 209
(0.2793473144 0.07742332817 -8.131516294e-20) 26
(0.1849240869 0.05279936002 -5.421010862e-20) 14
(0.1826685754 0.07532931372 -4.33680869e-19) 133
(0.2141016438 0.1135651016 1.084202172e-19) 288
(0.2128705244 0.08639314397 -4.33680869e-19) 137
(0.2369354675 0.08601563006 2.168404345e-19) 111
(0.1826603468 0.05683314605 -4.33680869e-19) 43
(0.2295720783 0.07375073852 4.33680869e-19) 80
(0.2252520626 0.06837341225 -2.168404345e-19) 49
(0.2896179699 0.08395913543 0) 58
(0.2275447037 0.1187060047 0) 289
(0.2876487098 0.08484434117 -1.084202172e-19) 57
(0.1704825552 0.09847914835 0) 252
(0.1526760415 0.05449424184 -1.084202172e-19) 70
(0.3037743582 0.1491827791 1.626303259e-19) 389
(0.193488262 0.07916910955 1.76182853e-19) 135
(0.2979676765 0.1006004855 2.168404345e-19) 119
(0.1758857723 0.06357138184 -1.084202172e-19) 73
(0.2071169042 0.07860679082 -2.168404345e-19) 107
(0.2867597558 0.09796623436 -1.084202172e-19) 117
(0.2967526723 0.1130554513 -2.168404345e-19) 208
(0.2834679459 0.1176160218 2.168404345e-19) 237
(0.1963534319 0.05673167586 0) 15
(0.2074326254 0.06716362351 3.252606517e-19) 47
(0.2906625711 0.09030851502 1.084202172e-19) 88
(0.1821293838 0.0653528822 -2.168404345e-19) 73
(0.2323715529 0.1120598602 -1.76182853e-19) 260
(0.2977561935 0.09538876312 0) 89
(0.1920808192 0.07767202882 -8.809142651e-20) 135
(0.2920910874 0.1554208309 -2.168404345e-19) 418
(0.2883007219 0.1160733865 4.33680869e-19) 207
(0.2663873624 0.1113077478 2.168404345e-19) 204
(0.2982149552 0.08374364072 0) 29
(0.2855109482 0.1210170183 -4.33680869e-19) 237
(0.2375072149 0.07757902917 2.168404345e-19) 81
(0.2717055325 0.09673150975 -2.168404345e-19) 145
(0.2575227538 0.09419718768 1.084202172e-19) 143
(0.2370342649 0.06385146691 4.33680869e-19) 21
(0.1702662349 0.09190231755 -1.084202172e-19) 222
(0.2038036155 0.05743972158 -5.421010862e-20) 16
(0.2669132048 0.1562428848 0) 445
(0.2965269456 0.1343307912 0) 298
(0.2611725247 0.1001108023 6.505213035e-19) 174
(0.2705897496 0.09053226001 4.33680869e-19) 115
(0.2678330263 0.1000215873 3.794707604e-19) 145
(0.2718651778 0.08416111022 3.252606517e-19) 55
(0.2042786329 0.05719849676 1.626303259e-19) 16
(0.2964010347 0.1096951265 -1.490777987e-19) 178
(0.297065545 0.09932747588 0) 118
(0.283397216 0.08889636114 -1.084202172e-19) 87
(0.2809808646 0.09229064463 -4.33680869e-19) 116
(0.2607321652 0.0908727421 0) 114
(0.1975654825 0.1323984531 0) 375
(0.2791965386 0.07881718037 -1.084202172e-19) 26
(0.2248280024 0.06073345966 2.168404345e-19) 19
(0.1939661218 0.05778682221 2.168404345e-19) 15
(0.2803398659 0.09498206544 0) 116
(0.2641308886 0.1269678177 1.084202172e-19) 294
(0.2285462607 0.0921225614 0) 169
(0.2833935756 0.08164989636 4.33680869e-19) 57
(0.2212473301 0.07180244999 -1.355252716e-19) 79
(0.2557593283 0.09330489046 -1.084202172e-19) 143
(0.2972871999 0.1051446641 1.084202172e-19) 149
(0.2661064258 0.09832305311 4.33680869e-19) 144
(0.268845642 0.08333939955 0) 55
(0.2802299739 0.1282645869 1.084202172e-19) 296
(0.2139699258 0.08853895326 -2.168404345e-19) 168
(0.2164569253 0.07776123967 0) 108
(0.2149983572 0.06452838008 2.168404345e-19) 48
(0.2371529926 0.06490659982 -3.252606517e-19) 21
(0.217878369 0.09527859007 0) 198
(0.2508225875 0.1101431163 2.168404345e-19) 232
(0.2770616043 0.1030547476 -1.084202172e-19) 176
(0.2249068004 0.1153581052 0) 289
(0.2076154233 0.07164632958 -2.168404345e-19) 77
(0.2357934241 0.06846464758 0) 20
(0.2985807325 0.1040753857 -2.168404345e-19) 149
(0.2113319715 0.1234816042 -6.505213035e-19) 317
(0.1338067374 0.03889518192 1.897353802e-19) 7
(0.1677656967 0.07578459328 2.168404345e-19) 132
(0.29686069 0.08353589848 0) 28
(0.2656063299 0.08479425644 1.084202172e-19) 84
(0.1972176413 0.07117682107 -4.33680869e-19) 75
(0.2333406789 0.09712055798 0) 170
(0.2257489546 0.1343917863 -1.084202172e-19) 379
(0.2773924407 0.1095118196 -1.084202172e-19) 206
(0.1551485868 0.08528041503 1.084202172e-19) 190