/*--------------------------------*- C++ -*----------------------------------*\
| =========                 |                                                 |
| \\      /  F ield         | OpenFOAM: The Open Source CFD Toolbox           |
|  \\    /   O peration     | Version:  2406                                  |
|   \\  /    A nd           | Website:  www.openfoam.com                      |
|    \\/     M anipulation  |                                                 |
\*---------------------------------------------------------------------------*/
FoamFile
{
    version     2.0;
    format      ascii;
    arch        "LSB;label=32;scalar=64";
    class       vectorField;
    location    "0.001/lagrangian/dsmc";
    object      U;
}
// * * * * * * * * * * * * * * * * * * * * * * * * * * * * * * * * * * * * * //


9352
(
(2171.015791 316.6998961 -699.5786553)
(903.4781763 1238.263475 -201.5884697)
(663.8933665 -1044.641236 -227.6813405)
(653.4873405 244.7756873 -251.2643723)
(-451.84249 641.0399164 335.0728786)
(219.693135 283.6099151 -21.79078991)
(-595.3134588 453.2042254 74.10303568)
(509.5114431 -211.120039 -221.3896799)
(809.9686541 762.687501 -133.4709975)
(189.9234794 395.3740113 -48.60303984)
(-447.2005528 467.0924151 434.962741)
(-99.77838015 267.522892 190.505432)
(1225.62444 474.3781159 -44.40898169)
(-616.8989527 582.1377025 -430.0441167)
(1640.156399 230.7770797 617.3625557)
(911.7592401 60.83192941 -608.0694724)
(698.5306697 818.8339898 328.1182651)
(-67.16722512 -511.7794666 -879.5569371)
(-0.08087881196 292.6682989 235.6319142)
(675.993805 -44.35291229 33.96880443)
(79.22824999 984.158869 -149.4150224)
(1071.196912 457.2689583 -1012.210473)
(1537.727403 -487.379361 -116.5850471)
(300.4750104 -198.8674618 -257.5496459)
(167.2320096 29.67154875 195.1849362)
(137.4215327 398.2097563 -476.982829)
(1251.560988 1060.321424 -325.6010747)
(449.7566024 -136.2092006 75.14210585)
(397.4306124 -648.6572782 196.3697909)
(-88.62462518 255.3608558 119.0992018)
(1683.749028 1080.28287 522.8457503)
(1185.566455 1004.325057 -855.4855657)
(302.1694664 -249.9217801 -554.0212299)
(-224.3984121 130.3330272 299.3767947)
(1306.234118 280.0616591 282.1762667)
(-261.9351974 -564.1745368 329.328144)
(614.5713705 29.34112028 410.1989141)
(133.3521493 81.00528081 385.2067354)
(620.8674937 465.0243979 -321.9629218)
(673.4930564 -197.1235055 740.1693671)
(1374.189933 -196.1518539 -1392.03446)
(894.6332721 612.9931432 -275.2434622)
(516.842291 211.2943802 43.67427998)
(-538.0832731 788.6156868 -392.7388009)
(874.8592666 131.5050114 -279.3699346)
(676.7246052 215.773077 -327.188557)
(-1055.989892 78.39281596 171.9922096)
(-27.05867988 486.442484 580.427793)
(-281.4462092 756.4618047 -4.984993181)
(158.1653613 -124.3979951 -459.310539)
(245.1790245 111.9006619 -472.6551561)
(701.221571 208.3304851 184.8205826)
(-401.3110682 59.48363834 736.5067654)
(1035.046996 531.4955724 873.7254031)
(395.3509022 -514.1315446 158.9941123)
(608.3383893 -169.072041 808.357849)
(977.752345 711.1414018 872.5720189)
(176.9733686 751.3228716 -601.913055)
(337.0003274 437.3673099 -511.5257529)
(1370.695769 178.0861573 227.5416119)
(1160.300443 437.00518 -406.5943582)
(-540.3529953 656.0665173 213.426619)
(407.3669952 -413.8868493 -70.67225682)
(931.5696425 370.7713713 -284.7592586)
(249.9192867 -255.1568389 -470.6555569)
(-168.207356 465.8432301 328.7953483)
(533.137585 50.45352904 -107.2676458)
(658.0151383 243.9225134 -324.3963513)
(2.069422336 656.0130607 347.0731953)
(372.5074005 1013.882139 -1033.310214)
(693.0775236 282.7249365 -650.8152778)
(1926.973008 201.0616461 967.2701123)
(614.5502017 121.6642853 -342.0041094)
(728.1616925 1218.528212 84.68930935)
(447.0175522 -287.6338884 62.33455756)
(586.6682744 95.60494379 -360.5753063)
(714.4386375 133.6368282 150.659974)
(-841.6542697 681.6857195 673.4541301)
(196.4877848 318.7938613 476.8752233)
(172.024745 286.9988983 -363.7618826)
(850.1916216 -21.73707364 762.2723015)
(957.8373305 252.6980871 875.9713337)
(1057.863984 -86.23875881 -600.3540565)
(1174.117418 829.385568 309.8036514)
(533.6886845 -445.1863705 366.0936559)
(446.2831139 -571.9167595 -101.0381303)
(-378.8658791 343.4159269 377.8481404)
(762.8514793 201.5129785 -124.413781)
(700.1991537 201.858807 807.628928)
(335.0725753 -151.8653388 -48.79418191)
(846.3115365 960.6674095 104.2147734)
(191.2160112 -276.0952692 869.974799)
(1500.246271 510.6583909 325.2103168)
(271.6969648 -371.5634323 -8.382785842)
(1263.745337 -246.3108349 323.0749735)
(892.3746315 -274.4381755 -96.38015683)
(-70.87385728 220.499376 145.2558204)
(632.6265313 1544.610209 -289.102298)
(1186.584534 -209.1369251 -65.5760246)
(373.2522163 418.724248 -127.7836077)
(717.6375736 -234.0982661 -391.6571041)
(981.5287355 44.22556581 -139.3030707)
(-107.6124519 -42.66076372 234.5414486)
(101.8166203 423.317204 522.6812494)
(547.3018274 381.6597642 -163.0961641)
(1400.162503 -738.5707303 -75.08506097)
(369.5971507 -11.38645967 -366.3595364)
(613.583029 -224.3787043 -751.7828843)
(-241.4887072 375.7599599 506.625065)
(946.6917286 657.0947306 214.9273959)
(1259.255182 594.5512789 557.8227436)
(1415.481105 560.8359555 2.385882967)
(1425.602183 895.3727783 229.6842481)
(-16.67034897 254.8647229 300.1361659)
(-111.65568 -940.1089513 737.8571808)
(-280.0876804 571.1227771 361.6296003)
(1411.534144 142.0609779 607.8623104)
(1156.266449 319.2889479 -434.1350668)
(17.64213889 844.4401478 39.13462372)
(852.9619461 37.96644633 129.7141632)
(-408.9048748 391.7125903 -709.5328103)
(92.9606716 50.20913394 -195.5323314)
(215.532096 279.8987934 -472.8907369)
(1532.801505 666.9649118 -661.8882667)
(629.3780105 25.40454339 13.75715908)
(383.4127566 -196.4860533 194.7015131)
(951.333117 140.6959098 371.3582364)
(1481.565742 -453.4098656 -108.6617354)
(773.0177674 284.1568269 -225.4556398)
(456.696872 867.4280779 521.4268778)
(-720.3699397 429.7439807 376.7272343)
(432.8574036 7.9261214 435.5479899)
(317.6063015 485.6013965 128.4421624)
(486.405847 450.128674 -223.1526609)
(925.3164271 817.4617769 469.8470988)
(1087.961632 -501.538853 733.5458745)
(-50.00449414 -137.5834993 149.1657512)
(392.7934301 204.8960932 142.5796708)
(237.6687173 377.1241399 229.158498)
(121.3869235 -187.5365747 214.3162463)
(-56.36723021 1052.481166 -149.3002511)
(-445.9236163 -295.1814655 -576.2695937)
(-102.6612013 350.9848112 -107.7213598)
(769.1805107 340.2646457 -78.84446533)
(574.9873192 335.2062575 -183.3784795)
(497.7942639 525.518143 -1446.992092)
(952.6463955 98.63597342 482.3214103)
(805.5930944 -328.3584243 -138.9634467)
(814.8711981 68.49699283 -338.4140848)
(676.2733058 -303.3036562 -279.9322666)
(417.5386861 329.3095846 -259.6266841)
(53.85390682 -414.766019 136.011071)
(935.1618066 36.25984716 -862.0906096)
(996.8012278 301.433219 -895.2163999)
(579.370607 546.0947113 283.8921751)
(118.9914582 -361.0489461 -1172.522653)
(251.4467142 395.5242253 -241.2937612)
(1173.609239 334.7434818 -782.673669)
(1603.061228 854.8382873 -497.8744145)
(-573.4533987 189.9041426 -98.4991363)
(357.2873373 910.0672284 -250.5852888)
(816.0219022 -318.0646744 8.7137673)
(113.1304934 260.3108091 815.6172292)
(314.9373791 1347.694733 364.9462724)
(35.28544205 -307.8052118 -610.592271)
(-33.65736098 379.8010296 401.1222733)
(-593.968748 -288.5100007 -376.118965)
(-385.3336676 770.5683741 -930.2928732)
(-246.054244 100.7409758 119.9550768)
(-265.3616365 512.9743437 258.5512425)
(-278.9938559 458.9926896 -421.4519964)
(-18.87424434 -478.5856556 -84.71243439)
(891.2105765 371.4381341 299.0893528)
(1617.164812 -450.5440283 211.6010821)
(176.5255183 1421.908027 -189.5919257)
(1106.224719 557.8047835 -356.0192396)
(-12.15898977 329.2342634 300.5317662)
(2625.382958 -200.9311051 350.5221505)
(-538.3902846 583.5973416 -512.3422606)
(-572.0880105 204.5736326 438.1485461)
(490.7567748 280.5003761 -1126.237329)
(625.8780738 -318.3407018 -797.1965317)
(-148.2466948 457.8298392 -436.9904371)
(1287.651394 137.3666729 -827.8226724)
(-412.1956278 -368.5666873 -203.2791456)
(38.53065526 38.17732511 -308.4026891)
(1096.905266 -155.0286314 -1011.521909)
(2315.848877 231.5136092 426.0623112)
(663.7009509 349.132493 4.527850483)
(346.5256079 269.8220398 221.2409785)
(1516.601192 666.7574441 426.4097891)
(233.9536839 287.3811496 76.46507041)
(1102.010195 -133.1285668 739.7268329)
(1059.345004 -262.7891168 1044.724309)
(-501.845277 170.9781679 129.2394035)
(1245.561712 -542.8305003 -1001.742146)
(1732.118139 -619.4331855 -852.9331853)
(1386.053855 -299.7184235 8.772015978)
(-260.8276127 578.748732 211.9665861)
(881.5401677 0.8464071524 745.8170004)
(943.5753579 1074.208084 -925.917627)
(433.5178757 909.1655316 207.6577966)
(242.9621097 272.7015991 -251.833765)
(590.0811245 408.139406 697.6413953)
(199.3422441 894.998603 -332.5356899)
(601.6871254 566.2637429 -179.1089112)
(-269.9284872 -85.22723891 -937.5428892)
(-292.646072 81.37057622 -98.6757959)
(1097.8781 280.5728922 -506.9281514)
(598.5187975 891.656614 728.1670409)
(667.3263432 644.9870384 -820.5397435)
(352.6929918 510.1793453 -368.5872993)
(604.9494368 -51.18940875 126.5276723)
(-250.4229175 -56.84457984 -353.1467963)
(-233.6677359 -0.2200127215 -732.2656781)
(249.9866947 396.6641922 -50.37034914)
(717.082762 224.9253359 -834.8391625)
(114.4629279 -121.0083629 170.3843352)
(236.6223406 1149.918805 -296.8799888)
(1415.567978 -195.6472144 -419.9685927)
(-514.0787705 198.5308129 -234.4038927)
(-142.7320183 -218.4505648 -356.9474046)
(951.1652837 271.0410094 153.9270634)
(1209.037004 15.75959296 187.3081398)
(1017.567792 -133.2995374 711.2021471)
(491.9981478 519.4329298 199.9397255)
(-301.6199775 -194.4415469 -118.2162427)
(254.970207 -412.8467813 -122.8677394)
(1458.846151 465.7903314 399.6894361)
(218.0269809 153.2090005 348.5585287)
(1005.338433 -87.09150124 -246.2011438)
(1295.883171 565.4789493 -580.2313463)
(415.8056943 140.2394203 -96.1849139)
(-213.4298773 60.3081431 707.8668031)
(-471.2555031 570.6114757 -1006.812032)
(271.6849981 -441.3298541 -354.6632395)
(310.6503897 994.7141547 46.25466683)
(791.688943 499.6799656 -530.5744252)
(118.7630225 109.183835 -371.9252567)
(456.5444859 -137.1669995 -10.46660682)
(739.3560786 403.9280765 930.4972465)
(1944.532841 619.3371322 60.38374303)
(236.2977558 -101.0736631 787.2992451)
(450.3250895 37.78677126 403.801992)
(416.904057 210.954472 5.585103343)
(842.7708151 -85.87255482 86.87533381)
(414.9409621 430.2101682 13.28014843)
(781.1134514 192.37696 -571.1558312)
(516.8674488 927.0871641 -406.2646318)
(207.1718971 656.5762521 251.6955843)
(616.6574587 -668.0428433 -149.0320604)
(1179.28443 -400.120906 -961.2048211)
(1473.83442 -22.86966875 357.6654304)
(525.0212674 234.8121712 508.3547883)
(632.5319197 151.4013056 -518.3502287)
(818.0086161 478.7299088 729.0536895)
(168.5332832 -330.7499551 154.6461444)
(514.030972 744.5848869 -573.0232627)
(549.434742 1143.481579 -578.2892733)
(-147.5822466 443.4239852 -89.68560946)
(13.79906273 569.13369 -343.7847119)
(712.7699105 1082.41675 -251.0101988)
(-840.1801897 536.8157799 75.55475235)
(-306.1021349 -626.2015027 -254.4655387)
(648.4503412 365.8890424 29.16359149)
(1214.398721 297.909921 621.3622273)
(-495.6972415 556.5753449 -68.64537508)
(978.4229921 432.6355864 -392.4675303)
(830.4468172 721.4602871 162.9811754)
(447.3218903 -621.6663851 -574.4705741)
(-349.917439 526.1588308 -183.6575879)
(453.6123946 -99.56210083 -1077.480835)
(-359.8286101 -280.4738541 -47.936323)
(-184.9416612 -992.6461103 -390.7670835)
(-149.3914441 55.57765667 -644.3389384)
(1190.713022 121.9768602 -60.54909324)
(543.9094752 -117.3186106 -700.7648244)
(323.0721374 471.5636481 361.3732884)
(368.4138211 255.8168513 -0.1494070898)
(430.7041924 559.5159109 -103.4929252)
(1370.181691 253.9602894 -420.7606315)
(206.1664324 188.2923704 906.3921509)
(-292.5953635 233.7418172 -83.15118313)
(1202.06438 728.8614255 -1281.57616)
(31.1372313 160.5806742 438.3779555)
(450.4393342 -255.3633006 -78.88559626)
(1554.962704 -102.7095489 -555.9709136)
(1640.132783 872.796614 95.82047139)
(884.1662834 -747.5342618 -2.107276714)
(156.6518728 245.8824886 486.9250731)
(47.57065018 162.7567484 226.0443531)
(497.670698 594.1227627 -145.25304)
(1845.364499 132.970595 306.8368725)
(714.4017212 -184.591904 -74.24805931)
(1374.783333 -290.4710467 2.250531579)
(496.1295296 181.2753699 88.40202172)
(1290.984672 578.7382496 418.0875938)
(383.1299447 -156.413017 -289.6454168)
(940.368283 362.9831844 71.41147713)
(313.322816 147.0214729 188.2079517)
(746.3253557 -299.0708607 0.04030876062)
(872.2025892 541.4966209 674.4598419)
(-576.4522095 -299.426485 817.8991404)
(1155.456473 157.7065873 410.6629486)
(-74.72553874 380.0407011 621.1428368)
(1542.891907 705.8740741 -146.5440777)
(-647.2593267 397.3895281 284.6716695)
(40.02188998 407.8836053 -157.5409755)
(329.0489425 262.6633781 -382.785461)
(445.1673956 483.1880556 -635.8210785)
(225.3990217 993.8356971 176.4126927)
(338.3416526 375.8811975 24.04182186)
(1476.911026 730.0413012 -223.5092119)
(-500.2754101 -391.6879527 -0.002015700241)
(891.8088528 1681.669675 -442.5504166)
(570.3574463 962.3112697 725.9883739)
(874.6312213 415.7680184 48.51273867)
(224.1679383 86.88692968 -17.9928901)
(1301.672026 415.9216848 -534.2978008)
(904.3783857 490.0469287 -155.8657315)
(207.2985384 -317.8342365 514.3356512)
(313.9424677 583.0266154 204.821801)
(915.6484453 206.8934912 56.09562896)
(1142.809875 1217.294003 622.8818433)
(-748.1678442 849.9755254 935.7228252)
(682.5299225 -577.946554 651.9369023)
(528.1959586 537.2153781 -352.0042612)
(451.4260964 939.4293967 -144.0921931)
(831.3086638 112.0684181 641.8274842)
(1150.877836 458.8142526 -1114.455991)
(564.4836146 234.6709675 -603.7566983)
(-366.9008602 -60.80702931 -17.26902099)
(399.6014618 534.3647761 -181.8536736)
(682.3862576 1032.063228 237.4879536)
(1045.281355 603.1340556 1093.270596)
(471.0186836 613.0658823 -774.651139)
(709.0432785 976.6513244 241.0541536)
(906.259552 1221.793005 253.542607)
(1138.986741 -397.143919 302.2923499)
(993.3203978 382.5594013 569.0907534)
(88.42207148 565.3457577 879.7254035)
(623.7301069 395.7821032 203.8330194)
(501.6797926 940.7942654 279.2873244)
(552.1526416 348.4540281 -495.2941545)
(829.7622552 264.8543927 -776.7708173)
(1630.814437 714.5266872 -739.9450353)
(1234.923874 693.2260113 783.4377002)
(153.9156257 138.0345968 -611.3555512)
(481.6909859 468.9931454 977.5484445)
(383.2286723 808.3739331 49.68388979)
(175.5686719 637.0704735 428.0800788)
(-102.3365269 -568.7109751 233.7960283)
(51.33108661 316.1142534 -600.6646597)
(-485.4717974 136.7711935 -80.1207122)
(655.3743957 661.6366651 248.9667951)
(1650.025915 584.139897 107.3736489)
(42.45089303 351.2740436 -394.8347789)
(212.0494215 -99.77836369 142.8290746)
(1709.999858 275.7642903 36.95835862)
(1395.799391 813.9475487 48.49591882)
(277.529324 715.6132929 -83.86989266)
(1138.394008 422.0510862 250.6843132)
(672.1870076 799.8981561 -487.0906996)
(-424.3655781 415.608769 -331.1101262)
(487.4254858 177.1129354 -233.3953017)
(1133.358464 -197.8724028 -405.3804194)
(441.3959611 -318.8336844 559.8026723)
(566.0317984 107.3642844 -563.6374302)
(-13.13123177 519.9827886 238.7797653)
(501.9665905 215.6970114 -202.9124566)
(903.2399177 463.3152444 263.9846052)
(979.8846764 1669.334617 -595.2242255)
(1533.243271 -136.3796936 445.6326179)
(417.1782008 -395.8812022 -475.7600323)
(-400.5491788 705.9403867 -193.8276955)
(2115.812136 -599.9470117 -981.3832367)
(249.9760625 1277.576878 239.4409491)
(793.3570692 153.2840056 109.285724)
(-33.0835846 197.7821251 -858.2934142)
(1134.424658 -14.30324234 -51.90208767)
(376.7424521 1335.895514 -79.82299861)
(449.9073272 343.3807073 528.8773813)
(319.2086077 312.3167971 -168.3811321)
(1274.525032 -392.3838255 -147.075014)
(1131.2243 -106.4461383 -332.6030016)
(2233.332175 313.9629759 426.8798613)
(-486.8738797 121.036788 271.2257908)
(375.7124312 -450.6942982 282.9988523)
(602.3008425 581.5222376 103.468328)
(24.22887176 98.41351875 218.0544113)
(656.3437513 466.1076503 463.5208528)
(1897.787547 812.6384283 208.1507675)
(317.8408778 -358.9635824 809.1205074)
(980.7726481 1091.310742 -604.9145614)
(-139.6950993 831.5962219 -719.8095739)
(651.8132983 807.942225 396.8198536)
(-6.947374808 342.1171599 7.825561423)
(391.8661677 602.6434933 -353.4141433)
(1425.334406 1077.532296 -315.5459838)
(1923.769379 612.498593 -372.0123585)
(1708.228887 216.6095825 673.17688)
(1372.056238 421.6213483 -90.76127621)
(357.1982439 505.0362561 707.0178189)
(-258.3891405 630.4436118 -485.4356844)
(-381.5579184 295.7606933 421.1697232)
(-402.3948607 352.9983557 -1103.914927)
(1323.38736 958.7525001 419.2590383)
(26.13728418 -668.0597343 325.5822344)
(-128.7965697 -465.2734014 566.4773365)
(-212.1567595 206.4689188 101.2124704)
(572.8701453 906.9775307 -309.9458045)
(1348.459412 466.2164561 -310.2024868)
(803.0533433 173.3849687 -393.1045896)
(2034.307898 1.79839795 -320.9332078)
(920.4701294 -605.8294505 -685.0261923)
(765.2694184 241.4716418 129.1936932)
(1279.251886 -80.73578942 317.8808404)
(1668.096522 502.7005895 -500.1762489)
(534.6281079 643.3755348 214.5129255)
(851.949981 1554.124418 505.2357529)
(1286.188533 -65.74250604 738.1859854)
(-166.0317521 277.565681 696.9840703)
(1152.647151 37.90914606 -658.0900157)
(1643.242022 387.2592405 179.2672806)
(160.2615712 1512.366665 -170.1332148)
(475.3531674 577.0700605 337.5798088)
(720.4362304 41.03145717 -380.9872029)
(1245.952528 969.5559647 511.400611)
(346.8113197 -154.7714936 -342.8727439)
(1325.948314 3.809905883 -244.6680797)
(-54.00341094 747.8209827 -790.1087857)
(242.9521757 74.47148819 -60.84839884)
(207.1329268 -341.3131025 -372.3128088)
(909.3369274 -157.4328493 -433.1364481)
(1577.971435 -144.1694612 220.3799311)
(-69.83656887 433.0720666 -206.6281027)
(-152.4449179 -48.01736069 571.3101507)
(263.7885316 902.4353193 479.2998901)
(1321.183827 -91.30139123 676.7693578)
(390.2462491 733.6838002 -357.1449951)
(-150.5322874 214.2624099 67.85565796)
(216.5822173 36.53997639 -882.9981907)
(614.7975095 344.1604617 335.9777034)
(-209.6061575 52.22124478 -70.37491483)
(929.2953154 616.6895563 136.7871021)
(1108.600495 698.0855088 1414.85636)
(1648.039593 -532.4394447 619.8023237)
(413.8832296 -239.2922821 -375.0850584)
(-406.3359366 -130.6276553 294.9921124)
(-326.2651002 374.3711402 -172.7028031)
(871.2752815 -130.0984774 54.32153212)
(614.5435108 754.7447286 266.304109)
(237.3807053 26.5905909 1057.717906)
(573.2354395 313.1063043 149.6918885)
(517.8286179 397.2056071 157.7081546)
(109.3161122 138.9226036 -308.1428834)
(55.70540214 355.1347368 -97.27583772)
(993.6405758 114.5122644 -582.7767642)
(154.1479304 -339.5362412 -247.8054366)
(-622.0212739 -539.7084994 -167.729508)
(1084.231831 1039.408071 728.6304257)
(1073.73989 -41.84630985 -391.1071851)
(133.5926504 525.0267754 -16.58677244)
(352.1098006 60.22246498 491.8856962)
(11.34005729 252.5902939 -487.8162299)
(602.4039439 387.2732053 440.101341)
(-11.84396638 364.6828952 -278.1929315)
(513.777139 1099.361898 -190.3155921)
(261.3960499 -253.1353761 216.5707997)
(333.5787956 -583.1864774 -307.3877499)
(100.3424615 404.5043415 -75.85579402)
(-721.8293844 663.9561619 54.21921908)
(-58.48840468 345.1735559 845.4387501)
(806.4775852 348.88759 -166.9056387)
(898.5518762 591.1320731 174.0884062)
(715.048052 -167.1422108 177.171945)
(1515.925372 278.3482691 194.1190705)
(681.9343507 587.231078 -125.1830453)
(482.6561428 451.1178399 -385.3666446)
(-168.4253923 -624.1257693 -357.7658426)
(468.1516729 418.8497631 -237.1455197)
(-126.579063 1123.262243 592.4524763)
(595.4267514 -143.1467473 -41.59006664)
(-688.4989573 814.1845506 -26.98856664)
(879.625265 944.6116014 468.504935)
(671.8956806 621.8159075 816.4399401)
(-122.7339885 203.1926341 307.3041827)
(334.5432185 15.8998228 -106.9315117)
(395.3592048 -111.5768871 -808.5093783)
(754.2619334 807.1366881 -258.8994375)
(627.9602868 359.1668665 960.4816281)
(455.8372416 227.4254067 257.2714688)
(1098.307676 710.0757019 111.2841089)
(1155.047187 511.1492326 -41.93398164)
(404.7961639 908.939216 -527.2222184)
(442.9991558 83.91437643 -51.2828908)
(70.659961 932.9677955 -319.2673346)
(573.9478028 -349.9703946 -61.13148605)
(1299.690325 -101.6512924 138.7663758)
(375.4646617 473.9289914 -544.1028818)
(416.6342326 -45.9040351 146.5326258)
(138.9400967 -364.1511845 -446.0163934)
(1151.570937 565.0072815 516.0059029)
(1005.056146 197.5546683 696.6286918)
(388.9371912 131.7262346 508.4552928)
(1129.471038 -756.0037425 -762.4116326)
(845.1081279 112.6873274 -62.89390197)
(1353.376411 -302.1830576 136.0938298)
(-489.8717245 265.2425194 -774.3284169)
(368.5857201 -111.628058 -1029.557297)
(472.9404892 325.2193717 -270.1453492)
(1054.309189 388.0227661 -1185.924933)
(531.3669703 853.0941053 -244.903585)
(1091.806364 -390.1390667 -510.9429052)
(1497.670088 -384.1520875 -780.8317601)
(285.9420625 365.6618435 778.4035011)
(980.1432801 -333.5116643 -846.254931)
(1363.527518 256.3460081 -50.88501275)
(-554.3089425 -152.9599029 254.9904494)
(992.1616318 101.180771 -277.8811215)
(1177.952202 -623.3468866 -130.1899276)
(233.9087531 640.3289992 270.7279871)
(520.545523 891.2683096 -610.9170186)
(-109.4417459 558.4930399 330.8343396)
(1019.187488 -117.5982254 1000.165033)
(192.246704 53.58828435 766.3560285)
(1411.987973 150.5052072 491.0743065)
(590.5604733 -340.2926548 -263.9840214)
(1079.808289 456.2393216 -493.7488164)
(702.7195613 742.3897101 902.8068996)
(994.0484676 846.7743659 198.4336062)
(576.9125688 114.5167567 330.1136496)
(1019.973496 -43.03442378 375.3846736)
(535.7619662 -95.06593211 406.5719219)
(426.8762281 763.543018 -59.43655265)
(399.9893234 75.05946492 432.3278128)
(10.40595878 21.76309409 82.60218222)
(432.7951963 -67.32745705 152.3606131)
(422.787129 -232.414313 -543.2345513)
(1720.662566 519.516918 371.2344477)
(103.3367714 76.94967763 95.37384916)
(425.0720424 151.3531539 -1023.987881)
(528.8719755 17.43617441 647.7306956)
(-17.60377906 969.3422185 547.5783037)
(308.7752795 596.0411925 224.2561071)
(408.693077 708.3380658 -53.00120172)
(153.0471197 327.213796 -373.8169596)
(1312.39001 516.4408037 -370.6685158)
(918.7724647 484.3518225 351.8172086)
(877.5802611 266.705088 200.8611804)
(1378.713246 418.6260117 -353.1573934)
(77.08423532 202.9193126 38.11372258)
(162.2677992 -409.3555303 -514.4827996)
(299.7308903 421.9509462 -435.7167981)
(123.2379943 -511.1359224 -97.21285239)
(1109.309596 624.7856006 1389.484744)
(1298.556938 342.0744131 223.8131538)
(879.7400169 527.3639602 681.8454274)
(559.9714395 409.5706796 -340.5612322)
(750.0888272 789.6947131 706.6001223)
(1196.839032 374.5431888 1085.0772)
(1192.062633 221.7169413 67.84779344)
(-68.70726396 -616.1099614 -49.07163535)
(-512.4124019 131.5990251 451.5865678)
(303.0774276 836.2975192 -218.5545057)
(1933.377995 149.4223884 -1098.470612)
(358.5799714 1914.087182 579.9373613)
(-636.9797735 697.8561143 141.5811533)
(70.7495581 209.6304673 -118.0707926)
(807.1554423 167.1929244 379.8524539)
(-62.46766358 393.4026394 -96.75655171)
(130.6474596 -161.4028672 -441.1986932)
(1013.141323 738.7358502 -118.1424432)
(267.4874816 172.1921011 654.5782691)
(1015.28537 995.3010066 -556.7129556)
(-302.102279 287.4166578 -773.0691412)
(639.8873453 60.54902348 269.7539094)
(487.0271497 396.8373015 -877.582664)
(339.0998307 156.1352316 299.5840462)
(-284.6315746 136.0818394 60.66043164)
(1043.930034 412.1854102 -413.3238667)
(1469.58293 180.5481402 900.2191409)
(844.7203095 209.4823484 85.88488534)
(597.0595537 -375.2542436 -1.290589682)
(11.72498721 309.3898593 53.54678157)
(-519.2281631 225.8390273 -312.4189237)
(552.7305553 -663.2685896 -325.5460686)
(647.8705038 98.44218967 539.7241946)
(681.0350164 950.2779409 271.4465053)
(1117.54996 420.8435469 281.9256489)
(1892.309307 347.3585266 -253.9368317)
(2266.175873 489.3680236 -524.5746013)
(1471.915868 -234.0874627 77.37533668)
(908.4305261 1089.570793 899.3517775)
(976.2845559 -198.2291525 -154.6534634)
(1486.589908 862.9424817 471.4844443)
(644.0474139 280.2987938 -504.4324602)
(341.8462616 549.2749515 -453.7252977)
(1177.671234 -155.9371331 160.042596)
(624.7192418 -149.564707 -679.525167)
(50.20429109 1247.141155 15.87303413)
(-22.61745034 482.4892968 268.2618254)
(1361.502842 1598.709117 -239.2620901)
(994.374019 142.408043 368.3968401)
(-789.8545033 416.105924 733.79148)
(347.0344409 -171.3312444 203.7786124)
(-74.55289627 534.8921495 -862.1867769)
(-209.1418479 218.3700079 288.7446557)
(369.7233986 153.6438919 -515.5378197)
(510.3070061 857.528244 305.3808651)
(1224.361038 339.9618634 -362.6795559)
(749.2724507 566.9237446 -147.6457213)
(547.9136934 84.33174371 161.2121748)
(446.5229074 -78.85359821 212.7886924)
(735.7201479 1023.254026 -31.31869565)
(-221.1874996 279.7806286 91.15682839)
(330.697172 -402.9288281 -249.6485886)
(105.3007479 -358.7340149 374.1247549)
(1498.942389 0.7893911169 -499.2227562)
(1359.930888 998.739635 -654.3906329)
(475.6302295 661.1898215 -479.405604)
(682.0879712 -239.1827469 488.0272652)
(593.4364095 164.5816744 -737.292017)
(1189.878652 199.5642852 451.0097869)
(969.2548794 289.3893106 306.4856196)
(1405.195623 -269.3447257 191.4671923)
(1199.334073 -685.6519162 712.7841654)
(1174.813175 608.4292169 -265.472844)
(1081.629063 486.3633502 -1021.804015)
(315.971496 799.5801813 293.5104329)
(761.2099203 -391.2377703 432.5608793)
(186.4165054 -78.89190532 205.0043041)
(851.4879629 523.7891059 -718.0929212)
(145.3890428 712.4722356 328.1235414)
(894.5362995 949.3761729 -57.04475924)
(1026.722419 1054.587396 61.66527661)
(645.8989891 -142.2666455 -963.4407399)
(-81.39401552 416.7686335 288.0458418)
(1219.99844 192.7435319 -707.8541624)
(649.2783262 1272.38015 -72.47600499)
(-320.4255457 333.5634278 256.363017)
(1585.209999 -348.7165268 -434.8756156)
(348.1186743 -240.1996373 43.61662562)
(-290.5902852 103.7984067 -159.708375)
(-117.6772561 411.9200932 -369.9922159)
(1669.696516 486.647186 -656.5367108)
(474.4128231 274.0806344 703.0163366)
(838.3875098 7.415455906 -148.8222054)
(376.1988776 -27.77077915 144.2478125)
(8.185271817 -266.772995 44.2312361)
(582.7828228 13.54886338 -445.1895645)
(67.20122248 449.6447235 631.9902261)
(743.7915886 -527.3890715 -124.6146603)
(161.4481642 -156.1309345 -378.1122062)
(46.49195285 370.5339469 106.842669)
(1716.548279 202.5945645 -1079.087022)
(-313.5081348 -473.8967496 -162.4771459)
(112.2723668 -22.37113248 249.3516871)
(1105.898163 95.35057979 19.62062062)
(843.0956104 -199.2331476 793.5700354)
(711.8710216 534.4068845 489.785032)
(-280.2212223 -440.600826 -39.03047077)
(666.2543869 876.7330693 338.2372283)
(423.1959609 -58.20737338 -680.4422928)
(1290.947009 366.3398574 322.8399346)
(-240.2676582 1040.449109 624.8796296)
(975.5896078 20.74326289 -64.11988932)
(25.30076215 462.7302785 -245.8115825)
(154.3303118 400.2442038 814.9052721)
(407.7588196 -307.4563107 -335.2966576)
(855.1340306 1019.371018 112.3309511)
(1214.914742 -464.5431591 -534.381319)
(2051.542443 964.8968054 -954.6457085)
(420.6328506 530.9422045 39.32611654)
(1146.344329 329.279336 -62.32354851)
(672.2534807 108.6080224 209.5640884)
(1239.288331 -119.8553833 114.7060722)
(746.7561792 -715.1626286 272.6126832)
(780.4524451 364.9275595 101.596871)
(1515.276579 -572.8417281 177.3708675)
(1047.578816 210.2466729 -587.6101848)
(1627.335248 20.59740996 1092.226683)
(855.5496443 -48.99919285 229.6367286)
(971.2399351 314.539735 -426.9930803)
(871.7107299 733.182299 -652.3014497)
(984.2049111 919.2596873 -583.684743)
(720.2253268 654.0279704 -409.7890518)
(-490.5289215 400.0672513 -408.3233685)
(475.8767558 -221.0729447 105.1016787)
(-159.2454989 944.115789 -55.60097547)
(1040.035777 353.2348584 -463.6344751)
(1495.490383 370.5571467 -332.9652291)
(1049.481125 521.0540961 -221.364876)
(-288.5688332 -53.70701771 259.2960854)
(-7.537896744 -147.3402923 221.0909811)
(186.3305087 104.8080759 56.6093068)
(404.8126342 -196.8691686 285.6967566)
(607.8492414 14.49687037 1.936619144)
(1344.17064 419.2183563 236.746233)
(705.6974522 -288.7199632 204.7724487)
(811.4895146 -89.41185836 302.5680345)
(1279.617242 -748.4848974 173.2057293)
(283.5917979 875.6845566 247.7167134)
(-325.464486 302.1925583 -592.9053254)
(972.5315901 914.341116 1069.214271)
(-1005.698192 -250.519855 115.2468578)
(2003.419943 516.2741402 -786.0099294)
(207.7250735 325.9353379 -73.10890132)
(956.9107726 179.974149 91.3423939)
(1602.199266 -631.1694684 642.1277127)
(404.6592627 723.493757 536.0657263)
(66.24849571 96.27003987 -345.9436757)
(532.8046759 1648.276258 1013.8434)
(85.09371213 431.7471291 -490.232207)
(427.2171277 -1010.725437 -111.8280909)
(1406.194413 -143.2155069 145.3160863)
(-773.8178884 298.6976382 569.1950084)
(430.5875685 167.1158532 499.603826)
(117.1127189 538.2482503 232.9697194)
(485.9734015 -532.1021584 502.1202354)
(1507.391588 161.1606279 -1030.336398)
(465.2726086 49.48226033 -568.6900472)
(563.8097642 -534.2883531 141.0729761)
(125.2293229 835.4771583 653.5702302)
(1064.460263 -191.1083422 -141.3143155)
(-26.7148072 -345.4357208 -257.1717541)
(-37.97463063 -708.8359947 -84.43674174)
(796.2248475 -129.5459632 -1135.935186)
(493.9300445 487.7771684 649.170182)
(712.8720361 144.0279452 23.57286404)
(699.8927703 634.7781904 -810.4393926)
(1053.529052 416.0221771 513.7822116)
(2246.697969 728.4791815 827.1943168)
(1536.822643 -350.3673208 -620.0614142)
(785.8906639 224.3634799 854.9345098)
(2052.658472 -466.3367552 609.874842)
(523.9876336 208.1772543 456.4631743)
(1150.865816 819.2697571 489.7673974)
(83.91287624 0.1719216556 -1200.270445)
(202.2689043 196.1871666 849.1343786)
(1840.102161 -51.1183859 49.7149846)
(1776.200338 508.9566982 330.7742579)
(282.4513047 -363.6608559 -7.065109653)
(1344.362348 851.8351892 -72.77852531)
(1414.147225 272.1019222 -275.4315233)
(342.9934643 382.0309931 -106.0378457)
(100.1562438 727.2290142 224.5151605)
(2201.935156 1323.54388 -112.8057875)
(1470.642218 98.71710964 -76.83739152)
(-292.1573164 281.9467707 125.8718282)
(-111.1993835 -72.70986417 741.6223734)
(-765.8124758 16.21368222 55.44759341)
(-12.07790996 367.6668392 -73.47018102)
(239.6495518 294.3272978 -190.2436406)