/*--------------------------------*- C++ -*----------------------------------*\
| =========                 |                                                 |
| \\      /  F ield         | OpenFOAM: The Open Source CFD Toolbox           |
|  \\    /   O peration     | Version:  2406                                  |
|   \\  /    A nd           | Website:  www.openfoam.com                      |
|    \\/     M anipulation  |                                                 |
\*---------------------------------------------------------------------------*/
FoamFile
{
    version     2.0;
    format      ascii;
    arch        "LSB;label=32;scalar=64";
    class       Cloud<dsmcParcel>;
    location    "0.001/lagrangian/dsmc";
    object      coordinates;
}
// * * * * * * * * * * * * * * * * * * * * * * * * * * * * * * * * * * * * * //

6884
(
(0.2268431344 0.3865784328 0.04053946876 0.346038964) 466 910 2
(0.1107767093 0.4446116454 0.1110521995 0.3335594459) 457 875 1
(0.27195677 0.1026381366 0.2613834784 0.364021615) 469 897 2
(0.3439965138 0.1628368766 0.3280017431 0.1651648665) 471 917 1
(0.6421138063 0.02977657732 0.1789430968 0.1491665195) 469 916 2
(0.09068670425 0.243705282 0.2109513659 0.4546566479) 449 2616 1
(0.3534226464 0.3232886768 0.1024703209 0.2208183559) 468 914 2
(0.1445020184 0.4277489908 0.1071752156 0.3205737752) 486 930 1
(0.2327014464 0.3836492768 0.2409318682 0.1427174086) 467 894 1
(0.04885048171 0.06811869154 0.4074560676 0.4755747591) 469 897 2
(0.3141134011 0.3429432995 0.09020709484 0.2527362046) 535 1041 2
(0.1417810372 0.2928065838 0.1363028976 0.4291094814) 498 953 2
(0.3724798756 0.2000042998 0.3137600622 0.1137557624) 456 889 1
(0.04508538137 0.4774573093 0.190941809 0.2865155003) 497 951 1
(0.5775312508 0.1350241701 0.07621020453 0.2112343746) 459 878 2
(0.4745293244 0.2627353378 0.08964420284 0.173091135) 533 1038 1
(0.8311978537 0.02510114974 0.08440107317 0.05929992343) 483 940 1
(0.8595187914 0.02580273472 0.07024060428 0.04443786956) 498 972 2
(0.3119188689 0.3440405655 0.1126191113 0.2314214542) 447 1305 2
(0.4100610264 0.2891186597 0.2949694868 0.00585082714) 456 892 2
(0.1826987345 0.3586851441 0.04996548858 0.4086506327) 484 926 2
(0.2194065672 0.203949975 0.1863467415 0.3902967164) 463 904 1
(0.1786293905 0.1852459249 0.2254393799 0.4106853048) 482 940 1
(0.322599647 0.131070904 0.2076292725 0.3387001765) 517 1007 1
(0.5544805735 0.189806256 0.2227597133 0.03295345725) 513 1000 2
(0.2812259745 0.3593870127 0.1831204085 0.1762666042) 496 967 2
(0.4882809277 0.2558595361 0.140080986 0.1157785501) 459 2617 2
(0.3978896228 0.3010551886 0.04082206388 0.2602331247) 447 875 1
(0.2903180338 0.3548409831 0.3163600285 0.03848095457) 499 973 1
(0.20352771 0.004968997683 0.398236145 0.3932671473) 456 892 2
(0.1004611003 0.4354489449 0.01432050499 0.4497694498) 578 1105 2
(0.2330931432 0.3834534284 0.01435313816 0.3691002902) 479 2619 2
(0.8006186369 0.09969068154 0.03534629202 0.06434438952) 451 881 2
(0.1895333131 0.3094547199 0.4052333435 0.09577862359) 474 923 1
(0.6307987472 0.1846006264 0.01371389337 0.170886733) 452 881 2
(0.2136745304 0.3931627348 0.3523133066 0.04084942824) 457 891 2
(0.7084278935 0.1457860533 0.03930627859 0.1064797747) 192 384 2
(0.4246233928 0.2876883036 0.1123639384 0.1753243652) 478 934 1
(0.0790710521 0.206854335 0.460464474 0.2536101389) 524 1021 2
(0.4749184971 0.1439313367 0.1186094148 0.2625407515) 468 896 2
(0.409832765 0.1140330051 0.2950836175 0.1810506124) 508 991 2
(0.1276735611 0.4361632195 0.1642584333 0.2719047862) 478 933 2
(0.4189567202 0.2014187861 0.08910285382 0.2905216399) 445 1303 1
(0.2011978405 0.1187098758 0.3994010798 0.280691204) 507 986 1
(0.534558817 0.2327205915 0.006592612902 0.2261279786) 489 952 2
(0.4352890591 0.1432853913 0.1390700792 0.2823554704) 495 947 2
(0.6494890575 0.1264595549 0.04879591631 0.1752554712) 465 908 1
(0.3441271545 0.213296749 0.1146396737 0.3279364228) 467 894 2
(0.616147534 0.191926233 0.1546362932 0.03728993975) 447 1305 2
(0.003508207007 0.1245478402 0.4982458965 0.3736980563) 468 915 2
(0.6967212515 0.05862084568 0.09301852859 0.1516393743) 469 2618 1
(0.1652882037 0.4173558981 0.3353337221 0.08202217602) 467 910 2
(0.2985833461 0.3507083269 0.3132866321 0.03742169483) 456 892 1
(0.2413506394 0.3793246803 0.03939330605 0.3399313742) 505 984 2
(0.3659613216 0.05941484484 0.3170193392 0.2576044944) 466 908 1
(0.7921782662 0.09727978793 0.1039108669 0.006631078989) 444 869 2
(0.3611602631 0.07358085119 0.2458390173 0.3194198684) 484 926 2
(0.3532547734 0.3233726133 0.1376848697 0.1856877436) 477 913 1
(0.5816796872 0.192027077 0.2091601564 0.01713307936) 467 910 1
(0.03244073009 0.483779635 0.09909074337 0.3846888916) 607 1179 1
(0.3314741519 0.2856559369 0.334262924 0.0486069871) 446 873 2
(0.3301859168 0.1230361528 0.2118708888 0.3349070416) 532 1017 2
(0.0007931803839 0.1674105778 0.332192832 0.4996034098) 447 1305 1
(0.82688702 0.06979688455 0.08655649001 0.01675960546) 447 875 2
(0.06415264603 0.467923677 0.458321125 0.009602552006) 447 1305 2
(0.1700633482 0.4149683259 0.2386047585 0.1763635674) 485 928 1
(0.004369554919 0.4978152225 0.3385052171 0.1593100054) 449 1307 2
(0.3987036089 0.125192753 0.1754554426 0.3006481955) 493 943 2
(0.3477286777 0.0675308627 0.2586047984 0.3261356611) 468 914 1
(0.05163771158 0.07821161107 0.4741811442 0.3959695331) 445 871 2
(0.5202899016 0.2398550492 0.0005938807968 0.2392611684) 449 1307 2
(0.4749297465 0.1215597087 0.140975418 0.2625351267) 476 911 2
(0.02363520436 0.09245455622 0.3957278416 0.4881823978) 469 897 2
(0.08007594473 0.4599620276 0.1461198644 0.3138421632) 446 1304 2
(0.07679414898 0.4616029255 0.2137467434 0.2478561821) 448 877 1
(0.03955452749 0.4802227363 0.2343192634 0.2459034729) 530 399 2
(0.1899438045 0.1340839192 0.2709441786 0.4050280978) 478 915 2
(0.8986589519 0.05067052403 0.01901948003 0.031651044) 469 2618 2
(0.3610277808 0.1293919048 0.3194861096 0.1900942048) 489 954 2
(0.06743850101 0.2024468052 0.4662807495 0.2638339443) 478 931 1
(0.5467210465 0.06165662731 0.1649828494 0.2266394768) 447 1305 1
(0.2590552051 0.04059613707 0.3704723975 0.3298762604) 466 911 2
(0.2637892033 0.3681053983 0.01623794072 0.3518674576) 447 1305 2
(0.8697332014 0.06513339929 0.03067471964 0.03445867965) 455 887 2
(0.557152753 0.2186393688 0.002784254663 0.2214236235) 469 897 2
(0.4266392495 0.04952552499 0.2866803752 0.2371548503) 464 907 2
(0.1331883504 0.4334058248 0.134491564 0.2989142608) 457 891 2
(0.2807448446 0.3596275777 0.001443604888 0.3581839728) 218 436 2
(0.6834274855 0.1582862573 0.005688062103 0.1525981952) 448 876 2
(0.1266585837 0.4366707081 0.2416246242 0.195046084) 449 2616 2
(0.05100743622 0.3833233161 0.09117296578 0.4744962819) 449 1307 1
(0.388942111 0.3055289445 0.2681887083 0.03734023617) 456 891 2
(0.6534453931 0.1732773035 0.06447066535 0.1088066381) 507 970 1
(0.07404891334 0.4629755433 0.02628448696 0.4366910564) 459 897 1
(0.1009266404 0.3169561326 0.1325805472 0.4495366798) 499 2621 1
(0.05449559959 0.4727522002 0.4681674459 0.004584754341) 500 279 2
(0.4962775709 0.08268414839 0.2518612145 0.1691770661) 458 896 2
(0.3702654014 0.02520440016 0.3148672993 0.2896628991) 509 990 1
(0.1662327177 0.1809867019 0.2358969392 0.4168836411) 115 191 2
(0.3086360774 0.3456819613 0.2740454967 0.07163646459) 497 970 1
(0.8300637158 0.08496814212 0.0349893491 0.04997879302) 489 954 1
(0.1131711384 0.1717964699 0.4434144308 0.2716179609) 464 907 2
(0.07521689068 0.4623915547 0.06357872351 0.3988128311) 138 277 1
(0.5284338325 0.08691316224 0.1488699215 0.2357830838) 491 939 2
(0.006690299226 0.4966548504 0.4357639683 0.06089088212) 499 971 2
(0.1097690405 0.3366313433 0.4451154797 0.1084841364) 509 990 1
(0.00871919068 0.4956404047 0.1000557646 0.39558464) 494 961 2
(0.2760564179 0.2791639056 0.08280788544 0.361971791) 489 2620 1
(0.6427541133 0.1427168958 0.1786229434 0.03590604759) 494 961 1
(0.1608273131 0.4195863435 0.3043295005 0.1152568429) 494 964 1
(0.4176415987 0.01385868127 0.2911792006 0.2773205194) 478 931 1
(0.2635587736 0.1467886846 0.2214319286 0.3682206132) 449 1307 1
(0.03091616443 0.4845419178 0.1478494575 0.3366924603) 631 1223 2
(0.1481011764 0.4259494118 0.3724495719 0.05349983992) 468 915 1
(0.5347747447 0.2326126276 0.04448822143 0.1881244062) 523 1016 2
(0.9011747439 0.002711406061 0.04670122198 0.04941262805) 449 1307 1
(0.02380663234 0.4880966838 0.2448539799 0.2432427039) 469 897 1
(0.6654733276 0.1672633362 0.1391050286 0.02815830762) 468 896 1
(0.1136719507 0.4431640247 0.2990836944 0.1440803303) 457 891 2
(0.453447579 0.2732762105 0.1235346208 0.1497415897) 457 875 1
(0.1683493351 0.4158253324 0.2650718798 0.1507534527) 449 1307 2
(0.3858338826 0.1850458338 0.3070830587 0.1220372249) 448 874 1
(0.4998970445 0.2287659589 0.02128551883 0.2500514777) 458 895 1
(0.1133181159 0.443340942 0.3637343022 0.07960663985) 467 894 1
(0.07197872469 0.4640106377 0.1275134009 0.3364972368) 478 933 2
(0.2647966393 0.1475405367 0.2200611436 0.3676016804) 447 1305 1
(0.08837356988 0.4225643162 0.03324889885 0.4558132151) 471 919 1
(0.1969985305 0.4015007348 0.2762196055 0.1252811292) 465 906 2
(0.190660553 0.174361579 0.4046697235 0.2303081445) 466 911 2
(0.1137693419 0.4355274339 0.443115329 0.007587895136) 471 920 2
(0.2468526872 0.1288253603 0.2477482961 0.3765736564) 469 897 2
(0.3667098674 0.3166450663 0.09344650707 0.2231985592) 448 874 2
(0.4534161323 0.2732919338 0.08174044709 0.1915514868) 451 882 1
(0.3330718199 0.3334640901 0.2719219632 0.06154212689) 479 916 1
(0.1582319664 0.2223089897 0.1985750271 0.4208840168) 448 876 1
(0.2777713491 0.3611143254 0.2373929238 0.1237214016) 479 935 1
(0.3971170559 0.1047474825 0.3014414721 0.1966939896) 535 1039 1
(0.2840236887 0.3579881556 0.3540302355 0.00395792015) 475 928 1
(0.2005471685 0.3997264158 0.2457085931 0.1540178226) 527 1024 2
(0.5464700624 0.1670783457 0.2267649688 0.05968662309) 446 873 2
(0.2121957212 0.3939021394 0.2534844345 0.1404177049) 446 870 2
(0.6586963896 0.1706518052 0.06006423757 0.1105875676) 455 890 1
(0.4209379565 0.2895310218 0.03604955429 0.2534814675) 505 966 1
(0.01958896762 0.2234583595 0.2667471567 0.4902055162) 515 1003 1
(0.1603310606 0.1665716712 0.4198344697 0.2532627985) 478 934 2
(0.5561528627 0.2219235686 0.04855511257 0.1733684561) 459 897 1
(0.002173248678 0.3991025991 0.4989133757 0.09981077654) 484 942 1
(0.4507979544 0.1432766029 0.1313244199 0.2746010228) 458 895 1
(0.7150145327 0.06482087 0.1424927337 0.07767186366) 449 876 1
(0.4289219032 0.2855390484 0.08074780919 0.2047912392) 447 875 1
(0.6713178879 0.1643410561 0.03549279748 0.1288482586) 457 891 2
(0.1655128106 0.4094459316 0.007797663133 0.4172435947) 499 954 2
(0.2711780622 0.3496162215 0.3644109689 0.01479474735) 469 916 2
(0.6995205444 0.1502397278 0.09810832024 0.05213140756) 456 889 2
(0.1425271123 0.05362530442 0.4287364438 0.3751111394) 492 960 2
(0.2774424722 0.3159269156 0.04535184827 0.3612787639) 447 1305 1
(0.281767881 0.3591160595 0.2756322531 0.08348380645) 457 891 2
(0.4788518521 0.2605740739 0.1905720088 0.07000206514) 483 942 2
(0.6884639681 0.005913066699 0.155768016 0.1498549493) 457 894 2
(0.1903375637 0.4048312182 0.1202765061 0.284554712) 446 1304 2
(0.5666399972 0.2166800014 0.1779665819 0.0387134195) 487 932 1
(0.7472168105 0.05697327665 0.1263915947 0.06941831808) 474 926 2
(0.2012498277 0.3993750862 0.2157331202 0.183641966) 558 1067 1
(0.06914729514 0.4654263524 0.2934128435 0.172013509) 448 1306 2
(0.09364714843 0.4531764258 0.177903644 0.2752727818) 456 891 2
(0.7952551002 0.08234298594 0.1023724499 0.02002946397) 445 868 1
(0.1387520076 0.4306239962 0.3393848098 0.09123918643) 455 887 2
(0.1340831188 0.1144224695 0.318535971 0.4329584406) 458 877 2
(0.1247670624 0.4376164688 0.005616779903 0.4319996889) 445 1303 2
(0.07894113943 0.3504640244 0.1100654059 0.4605294303) 455 889 1
(0.303266796 0.1746396186 0.1737269835 0.348366602) 509 973 2
(0.6390512795 0.1804743603 0.1603376929 0.02013666733) 487 950 2
(0.4490943627 0.1325670308 0.2754528186 0.1428857878) 462 900 1
(0.1584143083 0.4207928459 0.1555884069 0.2652044389) 459 895 2
(0.07592133185 0.4620393341 0.2213247449 0.2407145892) 528 1028 2
(0.02566787411 0.4871660629 0.3848360327 0.1023300303) 447 1305 2
(0.2521156444 0.1819781891 0.3739421778 0.1919639887) 518 1007 1
(0.5013038765 0.2493480617 0.1694267557 0.07992130605) 557 1083 2
(0.1346793172 0.3088884724 0.4326603414 0.123771869) 478 934 2
(0.8460786579 0.07156680057 0.005393870489 0.07696067106) 486 948 1
(0.2499947006 0.3750026497 0.3410195031 0.0339831466) 472 921 2
(0.2558511556 0.3720744222 0.2894908819 0.08258354026) 445 1303 2
(0.1600202937 0.4199898532 0.1063103672 0.3136794859) 443 864 2
(0.9358377725 0.02641407797 0.03208111376 0.005667035787) 497 967 1
(0.398674144 0.06851926771 0.2321436603 0.300662928) 508 990 1
(0.2374537602 0.05188855838 0.3293845615 0.3812731199) 547 1064 1
(0.03767538787 0.3482237858 0.4811623061 0.1329385203) 498 972 2
(0.01193585426 0.3593988269 0.134633246 0.4940320729) 465 908 1
(0.6790328215 0.1604835892 0.01074278647 0.1497408028) 465 908 2
(0.09518818151 0.4181999612 0.4524059092 0.03420594805) 489 952 1
(0.0432486701 0.478375665 0.3824524546 0.09592321032) 518 991 1
(0.7155454856 0.1422272572 0.07062842545 0.07159883174) 490 956 1
(0.3971395301 0.301430235 0.2000726814 0.1013575536) 469 916 1
(0.5580374175 0.2209812912 0.1240101802 0.09697111103) 477 913 1
(0.02724728803 0.486376356 0.4117010951 0.07467526084) 455 887 2
(0.2327217273 0.3291759316 0.05446320477 0.3836391364) 458 877 2
(0.350093693 0.0760289781 0.2489241754 0.3249531535) 509 2622 1
(0.3326754559 0.1804729184 0.1531893537 0.333662272) 517 989 2
(0.4540608608 0.2729695696 0.1479108629 0.1250587067) 458 896 1
(0.3424470817 0.0396261785 0.3287764591 0.2891502806) 443 867 2
(0.2237110152 0.3881444924 0.003716012061 0.3844284803) 458 877 1
(0.09507037093 0.4524648145 0.1964891701 0.2559756444) 469 916 1
(0.1014899547 0.4492550227 0.006863045568 0.4423919771) 138 274 2
(0.3513581755 0.3243209122 0.05547318374 0.2688477285) 456 892 1
(0.2356177974 0.3648189088 0.01737219248 0.3821911013) 497 951 2
(0.5713838505 0.09143110409 0.2143080748 0.1228769707) 458 896 2
(0.4457760526 0.1148119535 0.1623000202 0.2771119737) 488 934 2
(0.3887980713 0.3056009644 0.2079928455 0.0976081189) 517 1007 2
(0.06303178232 0.4684841088 0.1791377281 0.2893463807) 578 1121 2
(0.06411244822 0.4679437759 0.1681888155 0.2997549604) 509 2622 2
(0.07247958691 0.0351000106 0.4286601959 0.4637602065) 449 2616 1
(0.6835120989 0.009829881408 0.1582439506 0.1484140692) 454 885 1
(0.1465978961 0.2808842662 0.4267010519 0.1458167858) 447 875 2
(0.001619879219 0.0961948169 0.4991900604 0.4029952435) 518 1010 2
(0.1572481385 0.3812705873 0.04010534349 0.4213759307) 448 876 1
(0.3325809056 0.2003384113 0.1333711359 0.3337095472) 509 973 2
(0.1571129825 0.4214435087 0.242983903 0.1784596057) 488 952 2
(0.09823835069 0.4508808247 0.2091258393 0.2417549853) 489 935 1
(0.5917526245 0.1458501373 0.05827355045 0.2041236878) 499 2621 1
(0.183160546 0.408419727 0.2753980369 0.1330216901) 568 1104 2
(0.7526590006 0.01367657259 0.1236704997 0.1099939271) 607 1179 2
(0.3949963517 0.1857163386 0.1167854855 0.3025018241) 455 889 1
(0.02055006063 0.4653221902 0.02440277952 0.4897249697) 445 870 1
(0.5936160656 0.2031919672 0.1331101099 0.07008185733) 462 902 2
(0.3594332021 0.2389686999 0.3202833989 0.08131469899) 446 873 2
(0.09866153621 0.2422675597 0.2084016722 0.4506692319) 516 987 2
(0.3745661436 0.2206116992 0.09210522896 0.3127169282) 475 927 1
(0.2785173279 0.03729614881 0.3607413361 0.3234451873) 449 876 1
(0.0448704971 0.3195526895 0.4775647515 0.1580120619) 538 1048 2
(0.1333181874 0.06314962633 0.4333409063 0.37019128) 489 952 1
(0.4902250237 0.2548874881 6.668556354e-05 0.2548208026) 557 1065 1
(0.1897254511 0.2378607367 0.1672765377 0.4051372745) 628 1218 1
(0.03118489635 0.4471664313 0.03724112053 0.4844075518) 628 1200 2
(0.4266057396 0.2866971302 0.01237796302 0.2743191672) 509 992 1
(0.3196427582 0.3401786209 0.294240604 0.04593801689) 495 947 1
(0.2660754936 0.3669622532 0.1211229299 0.2458393233) 464 904 2
(0.4200394415 0.2674559023 0.2899802792 0.02252437697) 464 907 2
(0.4425031085 0.2787484458 0.1748374486 0.1039109972) 465 890 1
(0.4083370378 0.2958314811 0.043423822 0.2524076591) 449 2616 2
(0.4046110799 0.29769446 0.1541574151 0.1435370449) 465 908 2
(0.2523604038 0.3738197981 0.1880185055 0.1858012926) 488 950 2
(0.2388033418 0.08828615612 0.292312173 0.3805983291) 506 986 1
(0.6349327842 0.1825336079 0.1596573237 0.02287628422) 446 872 2
(0.1810735645 0.348474711 0.4094632177 0.06098850675) 479 933 1
(0.3137810773 0.3431094613 0.2646759587 0.07843350264) 549 1049 1
(0.6129009788 0.1935495106 0.02405015752 0.1694993531) 629 1220 1
(0.1972298194 0.3874494078 0.01393568247 0.4013850903) 539 2625 1
(0.7457529568 0.1271235216 0.1058597914 0.02126373025) 489 2620 2
(0.1293549576 0.4353225212 0.1748941282 0.260428393) 444 866 2
(0.2935659874 0.3532170063 0.1205662474 0.2326507589) 447 875 1
(0.03850620725 0.319802764 0.1609441324 0.4807468964) 499 2621 1
(0.3834177674 0.3082911163 0.05504813061 0.2532429857) 499 971 2
(0.3579239493 0.1989005235 0.1221375018 0.3210380253) 454 887 1
(0.7044164854 0.1477917573 0.04258329201 0.1052084653) 478 933 2
(0.370028415 0.03549460407 0.2794911885 0.3149857925) 449 1307 1
(0.3885230175 0.1233144751 0.1824240162 0.3057384912) 516 1005 1
(0.2093481385 0.3942516378 0.3953259307 0.001074292977) 477 929 1
(0.0729426502 0.3334735224 0.4635286749 0.1300551525) 493 962 2
(0.5050399879 0.247480006 0.1614219327 0.08605807337) 465 890 1
(0.1704773259 0.4147613371 0.1823854376 0.2323758995) 468 914 2
(0.6982800493 0.1508599753 0.1102948416 0.04056513379) 509 992 1
(0.49936381 0.250318095 0.02575081401 0.224567281) 489 2620 2
(0.8639986123 0.04747329032 0.02052740351 0.06800069384) 619 1182 2
(0.8339078434 0.003070127204 0.08304607832 0.07997595112) 452 884 2
(0.08543787478 0.4572810626 0.01928111013 0.4379999525) 446 1304 2
(0.08660256016 0.2527507163 0.2039480036 0.4566987199) 515 1003 1
(0.6259004876 0.1135776628 0.07347209339 0.1870497562) 499 954 2
(0.0592930005 0.1594526199 0.3109008798 0.4703534997) 459 2617 1
(0.05733021786 0.05284745615 0.4713348911 0.4184874349) 449 876 1
(0.4687046712 0.2549767716 0.01067089277 0.2656476644) 509 973 2
(0.3328969572 0.3040447618 0.02950675963 0.3335515214) 449 2616 1
(0.396777355 0.2301736339 0.3016113225 0.07143768861) 528 1029 2
(0.07239810846 0.4094370463 0.0543638995 0.4638009458) 456 891 1
(0.7187863279 0.140606836 0.08244589703 0.058160939) 608 1181 1
(0.0627333393 0.4686333303 0.3532938651 0.1153394652) 619 1201 1
(0.2939863546 0.3530068227 0.2423322521 0.1106745706) 448 876 2
(0.04431119229 0.4778444039 0.01563576107 0.4622086428) 474 923 2
(0.4862171194 0.2207563851 0.03613505519 0.2568914403) 476 911 2
(0.2270705405 0.3864647297 0.2183881187 0.1680766111) 447 874 2
(0.5379433858 0.1696816967 0.06134661038 0.2310283071) 485 946 1
(0.5198487326 0.1208549684 0.1192206653 0.2400756337) 477 913 2
(0.6113609363 0.1044220907 0.08989744113 0.1943195318) 529 1011 2
(0.4014211552 0.2992894224 0.1057303338 0.1935590887) 471 919 2
(0.3059363201 0.34703184 0.2259062061 0.1211256339) 479 933 2
(0.70424629 0.1121771463 0.03569970866 0.147876855) 458 877 2
(0.2221604863 0.3889197569 0.03498972281 0.3539300341) 444 868 2
(0.2331975734 0.3834012133 0.1177120396 0.2656891738) 477 932 1
(0.5857769757 0.1480778621 0.2071115121 0.05903365009) 446 870 1
(0.007681311433 0.4961593443 0.2210092777 0.2751500666) 508 990 2
(0.4318776141 0.284061193 0.1259724453 0.1580887477) 453 867 1
(0.08003131676 0.1532322623 0.3067520794 0.4599843416) 509 2622 1
(0.6821875849 0.1393705727 0.01953563479 0.1589062075) 606 1176 1
(0.243433164 0.378283418 0.2300326579 0.1482507601) 533 1019 1
(0.3867826691 0.1279802463 0.1786284191 0.3066086654) 485 928 2
(0.8541854066 0.0729072967 0.0004429343339 0.07246436236) 447 875 1
(0.7408623431 0.1076726055 0.02189622295 0.1295688285) 487 950 1
(0.04287235957 0.4785638202 0.4687756184 0.009788201786) 445 1303 2
(0.5987913848 0.1225083163 0.2006043076 0.07809599128) 509 990 1
(0.2388996255 0.03413032262 0.3805501872 0.3464198646) 467 913 2
(0.4376861659 0.281156917 0.1866635839 0.09449333315) 474 923 2
(0.5608470412 0.06334965565 0.1562268237 0.2195764794) 498 971 1
(0.0361508701 0.3699259388 0.4819245649 0.1119986261) 444 869 2
(0.634482932 0.182758534 0.1557199777 0.02703855628) 487 932 1
(0.301120799 0.1941498163 0.1552897842 0.3494396005) 447 1305 1
(0.3961378169 0.2565151099 0.3019310915 0.04541598169) 469 914 1
(0.3892422583 0.2629431206 0.3053788708 0.04243575029) 516 1003 1
(0.005917263647 0.1827313157 0.4970413682 0.3143100525) 505 985 2
(0.6152522375 0.1871169758 0.1923738812 0.00525690546) 495 963 1
(0.3854004748 0.3072997626 0.1831449378 0.1241548248) 559 1068 1
(0.02833006648 0.4858349668 0.06005184327 0.4257831235) 457 891 2
(0.006081357825 0.4969593211 0.1666873269 0.3302719942) 509 973 1
(0.2225575534 0.03718017249 0.3515410508 0.3887212233) 466 892 2
(0.4609739601 0.2695130199 0.006755596442 0.2627574235) 504 983 1
(0.1836036096 0.1823113087 0.2258868865 0.4081981952) 518 1009 1
(0.133631766 0.3551494677 0.433184117 0.07803464925) 508 991 2
(0.1706910129 0.4146544936 0.1781718473 0.2364826463) 539 1049 1
(0.04092984197 0.2125963274 0.2669387516 0.479535079) 488 934 2
(0.4868800515 0.2565599742 0.1595992652 0.09696070906) 451 863 1
(0.4658131317 0.01260149501 0.2544919391 0.2670934341) 471 901 2
(0.101359595 0.4493202025 0.2980405763 0.1512796262) 486 946 2
(0.2980241572 0.2328086359 0.3509879214 0.1181792855) 489 952 1
(0.4994321368 0.1767129286 0.07357100303 0.2502839316) 509 2622 1
(0.4864569536 0.2567715232 0.06683228087 0.1899392423) 464 907 1
(0.5132014752 0.1535281375 0.08987112489 0.2433992624) 479 916 2
(0.0875455312 0.05982284031 0.4562272344 0.3964043941) 509 990 1
(0.3671696582 0.3164151709 0.1475570865 0.1688580844) 468 912 2
(0.5909961212 0.2045019394 0.023573604 0.1809283354) 479 916 1
(0.4147879332 0.01782851129 0.2926060334 0.2747775221) 529 1028 1
(0.03506561078 0.4110269712 0.0714402234 0.4824671946) 548 1048 2
(0.2743564231 0.3628217884 0.1425462655 0.2202755229) 499 954 1
(0.02339446763 0.4883027662 0.3256523079 0.1626504583) 549 2626 2
(0.140370151 0.1613963753 0.2684185492 0.4298149245) 569 1087 2
(0.1032826766 0.1904962787 0.257862383 0.4483586617) 479 2619 1
(0.4104933396 0.2947533302 0.1788425134 0.1159108168) 458 877 1
(0.1781440759 0.410927962 0.09000442801 0.320923534) 456 889 2
(0.581519488 0.209240256 0.1223949227 0.08684533331) 466 911 1
(0.2577526951 0.1215224111 0.3711236524 0.2496012414) 449 876 1
(0.7783804286 0.08244259981 0.02836718588 0.1108097857) 474 925 1
(0.6064934622 0.1885184299 0.008234839057 0.1967532689) 506 986 1
(0.01751615936 0.4912419203 0.1303760216 0.3608658987) 506 986 2
(0.2076390013 0.119699178 0.2764813214 0.3961804994) 497 951 2
(0.3825890799 0.01567791334 0.2930275467 0.3087054601) 466 892 2
(0.9491033471 0.01178082848 0.02544832644 0.01366749796) 519 1011 2
(0.2231330117 0.1582238877 0.2302096065 0.3884334941) 467 912 1
(0.03812060688 0.4809396966 0.000836388633 0.4801033079) 481 938 2
(0.0532983707 0.4733508147 0.2750988104 0.1982520043) 458 877 1
(0.2911901145 0.008842852702 0.3455620901 0.3544049428) 508 972 2
(0.2574319893 0.2406782041 0.3712840054 0.1306058012) 476 927 1
(0.04639393949 0.07704687384 0.4768030303 0.3997561564) 499 971 1
(0.4784156744 0.2607921628 0.2169597141 0.04383244869) 487 932 1
(0.712998446 0.02160230436 0.143500777 0.1218984727) 586 1139 2
(0.5181971623 0.2409014189 0.1600094688 0.08089195006) 627 1217 1
(0.5328569095 0.02430401628 0.2335715452 0.209267529) 617 1195 1
(0.6239644644 0.1747311063 0.01328666145 0.1880177678) 627 1216 1
(0.7127176336 0.1436411832 0.07834841429 0.0652927689) 464 906 2
(0.6393574506 0.1358550673 0.1803212747 0.04446620735) 447 872 1
(0.3807376145 0.03087534432 0.2787558484 0.3096311927) 469 897 2
(0.5095195954 0.2444163284 0.2452402023 0.0008238738417) 619 1199 1
(0.09450365482 0.3120766305 0.4527481726 0.1406715421) 446 870 1
(0.1214725841 0.3557080965 0.08355561142 0.4392637079) 463 886 2
(0.2730670371 0.3634664814 0.1227381286 0.2407283528) 473 905 1
(0.3940392876 0.3029803562 0.2353767473 0.06760360892) 478 933 2
(0.5753140552 0.1416248815 0.2123429724 0.07071809089) 498 969 1
(0.46352762 0.26823619 0.07780238892 0.1904338011) 505 984 2
(0.8332743906 0.04094536061 0.08336280469 0.04241744408) 448 874 1
(0.398627793 0.3006861035 0.1058028143 0.1948832892) 442 865 1
(0.3966953883 0.05377662494 0.2478756809 0.3016523059) 495 965 1
(0.4718527889 0.2640736055 0.13902563 0.1250479756) 447 875 1
(0.04737482224 0.4763125889 0.3280035737 0.1483090152) 529 2624 2
(0.01344475054 0.4932776247 0.4599577008 0.03331992398) 503 980 2
(0.5429154227 0.1543885959 0.07415369276 0.2285422887) 463 904 1
(0.1934032373 0.4032983814 0.08607318658 0.3172251948) 458 877 1
(0.4287446221 0.1462566959 0.285627689 0.1393709931) 493 962 2
(0.3637703706 0.3181148147 0.2687667917 0.04934802304) 558 1083 2
(0.6066463158 0.04458307212 0.15209377 0.1966768421) 446 1304 1
(0.02871098853 0.4856445057 0.2721435134 0.2135009923) 517 1005 2
(0.1636076375 0.01382173109 0.4181961813 0.4043744502) 479 933 1
(0.1485943627 0.2335990708 0.4257028187 0.1921037478) 527 1024 1
(0.193128895 0.4034355525 0.1762402042 0.2271953483) 558 1085 2
(0.9885866052 0.005706697398 0.003200406686 0.002506290713) 519 992 1
(0.5638478763 0.03517276769 0.2180760619 0.1829032942) 487 948 1
(0.3907714784 0.2630169244 0.04159733643 0.3046142608) 554 1077 1
(0.2051305536 0.3190756068 0.07835911636 0.3974347232) 638 1237 1
(0.2263703733 0.1388168515 0.2479979618 0.3868148133) 577 1103 2
(0.7603512773 0.1198243614 0.01296793395 0.1068564274) 553 1076 1
(0.2161106245 0.3919446877 0.01118298221 0.3807617055) 441 862 2
(0.07551139655 0.4622443017 0.242672744 0.2195715577) 480 199 2
(0.1917931337 0.4041034332 0.1226649508 0.2814384823) 459 895 2
(0.2694846598 0.09164546458 0.2736122055 0.3652576701) 456 873 2
(0.1352773008 0.4323613496 0.1448853893 0.2874759603) 468 914 2
(0.4360485048 0.2819757476 0.1530715728 0.1289041747) 470 918 1
(0.2009972908 0.3995013546 0.2522638056 0.147237549) 444 869 1
(0.4044182388 0.2977908806 0.2095767151 0.08821416548) 463 904 2
(0.709922741 0.1450386295 0.1269146199 0.01812400958) 469 914 2
(0.07803372808 0.06855276946 0.3924303665 0.460983136) 445 1303 1
(0.2524769316 0.319162411 0.05459912315 0.3737615342) 497 969 1
(0.2597055414 0.2698744161 0.3701472293 0.1002728132) 506 987 2
(0.02131694061 0.3271278696 0.1622136601 0.4893415297) 499 2621 1
(0.2162921521 0.3247361107 0.391853924 0.06711781324) 529 1030 2
(0.0704580379 0.464770981 0.1421106674 0.3226603136) 477 932 1
(0.339344007 0.01437932918 0.3303279965 0.3159486673) 508 988 1
(0.2873592027 0.2776154571 0.07870494156 0.3563203987) 489 2620 1
(0.04192161327 0.4790391934 0.4658209553 0.01321823804) 519 1011 1
(0.3175576005 0.3412211998 0.04393172885 0.2972894709) 587 1141 1
(0.685877068 0.157061466 0.09232722927 0.06473423672) 559 1068 1
(0.3453400664 0.3273299668 0.1054630738 0.221866893) 529 1030 1
(0.4829656296 0.2585171852 0.03110237464 0.2274148105) 558 1085 2
(0.1297403783 0.1950945875 0.2400352233 0.4351298109) 613 1189 1
(0.1111513419 0.4444243291 0.4261026879 0.01832164115) 449 1307 2
(0.0334478668 0.4832760666 0.3607125091 0.1225635575) 500 279 2
(0.06546497012 0.4672675149 0.2553192465 0.2119482684) 472 921 2
(0.5060716642 0.2469641679 0.02927987953 0.2176842884) 485 947 1
(0.06261906337 0.2634008937 0.4686904683 0.2052895746) 508 991 2
(0.2769832809 0.3026967889 0.05881157066 0.3615083595) 458 877 2
(0.7042545633 0.1478727183 0.06322504228 0.08464767605) 458 877 1
(0.3311964256 0.05633062893 0.2780711583 0.3344017872) 445 870 1
(0.1995210471 0.0170656484 0.4002394765 0.3831738281) 454 885 1
(0.4914295884 0.2542852058 0.2256661766 0.02861902921) 506 986 2
(0.4481085867 0.07119470248 0.2759457067 0.2047510042) 506 987 2
(0.6465689096 0.03265100609 0.1767155452 0.1440645391) 442 865 2
(0.7087022673 0.1456488664 0.1031761109 0.04247275541) 530 1032 1
(0.1755264886 0.4122367557 0.02657913311 0.3856576226) 569 1106 1
(0.03473050343 0.3499819101 0.1326528382 0.4826347483) 528 1028 1
(0.7122212146 0.1438893927 0.07456583892 0.06932355376) 466 892 1
(0.348834787 0.2127249948 0.1128576117 0.3255826065) 489 2620 1
(0.07139835935 0.2881248356 0.1761759848 0.4643008203) 586 1120 2
(0.009279614395 0.1321980062 0.4953601928 0.3631621866) 467 913 2
(0.7116681352 0.1291299134 0.01503601906 0.1441659324) 487 950 1
(0.630518282 0.184740859 0.07640761064 0.1083332483) 528 1028 2
(0.08044819722 0.4597759014 0.1096405213 0.3501353801) 458 893 2
(0.2099628663 0.3428947994 0.05212376747 0.3950185669) 577 1103 2
(0.165408712 0.417295644 0.007445475423 0.4098501686) 638 1238 1
(0.3638478508 0.3180760746 0.3139542921 0.004121782527) 559 1085 2
(0.2935478803 0.3532260598 0.1539516638 0.199274396) 477 913 1
(0.4703163606 0.2620963559 0.00274546385 0.2648418197) 556 1063 2
(0.7268979975 0.1365510013 0.1250965134 0.01145448783) 568 1104 2
(0.4270513874 0.2562028006 0.2864743063 0.03027150569) 606 1177 2
(0.2709184805 0.3645407597 0.3068210153 0.05771974448) 519 1009 2
(0.1228869087 0.2960969076 0.142459638 0.4385565456) 628 1218 1
(0.1956987412 0.4021506294 0.2509505295 0.1512001) 456 889 2
(0.621531913 0.1892340435 0.01097431017 0.1782597333) 469 916 1
(0.6064220135 0.1873108923 0.1967889933 0.009478100971) 448 877 2
(0.4070725388 0.02762229532 0.2964637306 0.2688414353) 448 877 2
(0.5216805992 0.05194138377 0.2391597004 0.1872183166) 468 915 2
(0.1680334377 0.2150311736 0.2009521075 0.4159832811) 462 902 1
(0.5773427311 0.2113286344 0.1204838762 0.09084475823) 467 912 2
(0.7514441387 0.1242779306 0.01383317591 0.1104447547) 445 1303 2
(0.1950708929 0.09469700108 0.3077675525 0.4024645535) 473 905 2
(0.1567073912 0.08866457266 0.3329817317 0.4216463044) 445 1303 1