/*--------------------------------*- C++ -*----------------------------------*\
| =========                 |                                                 |
| \\      /  F ield         | OpenFOAM: The Open Source CFD Toolbox           |
|  \\    /   O peration     | Version:  2406                                  |
|   \\  /    A nd           | Website:  www.openfoam.com                      |
|    \\/     M anipulation  |                                                 |
\*---------------------------------------------------------------------------*/
FoamFile
{
    version     2.0;
    format      ascii;
    arch        "LSB;label=32;scalar=64";
    class       scalarField;
    location    "0.001/lagrangian/dsmc";
    object      Ei;
}
// * * * * * * * * * * * * * * * * * * * * * * * * * * * * * * * * * * * * * //


6884
(
4.264595167e-21
1.438594891e-20
1.343944168e-20
4.177552687e-21
4.919257469e-21
2.967426201e-20
4.982409668e-21
1.594199015e-20
1.751942847e-20
1.989660771e-21
3.902483101e-21
3.138012869e-21
3.723394382e-21
2.337218132e-21
3.766048007e-21
6.534916202e-21
1.235643962e-20
4.577326848e-20
3.322815103e-20
1.697265166e-20
2.893522749e-20
1.380044271e-20
2.009472686e-20
6.890411162e-21
2.308330141e-20
3.474342961e-20
1.538454873e-20
2.43734545e-21
6.959156235e-21
8.903447156e-21
1.729150195e-22
1.121914514e-20
4.313173031e-21
4.705465076e-22
1.072790226e-20
1.087771891e-20
6.603286505e-20
3.013833466e-20
1.630197386e-21
4.053597935e-20
1.812907466e-20
6.184463353e-21
4.626465022e-22
4.474376268e-20
5.35114797e-20
1.448880981e-20
1.996975297e-20
1.300224408e-20
1.503375552e-20
2.26197011e-20
6.904148583e-21
9.165700968e-21
3.643957644e-20
1.586296615e-21
2.635438112e-21
8.857683671e-21
4.115882431e-22
1.845288216e-21
1.51457964e-21
6.574771782e-20
8.118929131e-21
2.224498306e-20
3.822241893e-21
7.294378143e-22
4.159156705e-21
4.662374422e-21
4.23967459e-21
1.525887694e-21
6.039661324e-21
7.644406783e-21
1.858302172e-20
4.990185227e-20
2.551081814e-21
4.806971747e-21
1.627910525e-21
7.369513444e-21
5.105322496e-21
6.180647288e-21
2.24707694e-21
1.756496421e-20
1.339876087e-20
2.64504228e-21
7.791738814e-21
4.804635976e-21
2.300978482e-21
1.580947173e-20
1.766791767e-20
8.418543733e-21
3.672741604e-21
1.007569626e-20
1.358611199e-20
4.689153941e-21
1.016018961e-21
1.709578932e-21
4.476496433e-20
6.022488426e-21
1.923204737e-21
2.813080131e-21
3.368264793e-20
3.671223181e-21
1.386875608e-20
1.860043099e-21
3.851546453e-20
6.081469062e-21
2.768639553e-20
1.203592437e-20
3.610476925e-20
7.188484834e-22
2.225327095e-21
2.029927849e-21
8.091231817e-21
1.74796735e-21
5.512606834e-21
1.815464545e-20
1.05947402e-20
3.642103206e-20
7.766194208e-21
2.753647702e-21
7.758879378e-21
3.74759287e-20
5.543055142e-21
1.994237857e-21
4.126692524e-21
8.413985211e-22
9.698826371e-21
5.493993482e-21
3.771944147e-21
1.920194555e-21
3.874769395e-21
3.16821862e-20
2.292306165e-21
1.952463626e-21
2.164926156e-23
1.891063536e-21
1.860827312e-20
1.183883578e-21
6.314706961e-21
6.112288791e-21
1.797475558e-20
7.39431769e-21
2.972072092e-22
3.7817776e-22
1.100681622e-20
3.443208344e-21
3.664631825e-21
1.76912205e-20
3.31721874e-20
6.33402988e-21
5.125817072e-21
2.19212266e-21
1.19900013e-21
6.357270658e-21
3.79539367e-20
2.225104237e-20
2.616852617e-21
2.37645093e-21
1.463747153e-20
1.59645561e-21
2.525439441e-22
3.013007675e-20
1.439804883e-20
1.769387504e-20
3.104230587e-21
1.557737495e-20
1.514996786e-21
1.027218073e-20
7.192192339e-21
1.722328094e-20
3.477179017e-20
7.079826511e-22
3.39144902e-21
1.636359695e-20
1.650762573e-20
3.396884268e-20
1.522967792e-20
1.172762719e-20
7.267396174e-22
4.707418831e-23
1.710713619e-20
3.931648167e-21
9.558086105e-22
5.952366298e-23
4.985531554e-21
1.308440205e-21
3.415599962e-21
4.577132603e-22
7.954003274e-21
1.80027113e-20
3.067875367e-20
3.755087351e-21
2.22447275e-20
1.630583109e-20
6.527348877e-22
7.350839731e-21
7.286530291e-21
2.85928854e-21
9.982338937e-21
4.554618151e-21
1.132119849e-20
6.041358496e-21
2.619493438e-21
2.110828354e-20
1.673160599e-20
6.252626839e-22
7.578852191e-21
6.511427534e-21
7.839123751e-22
1.261525635e-20
6.122979214e-21
1.398391545e-20
1.352149687e-20
1.731310386e-20
2.149813638e-20
4.265293852e-21
1.001843236e-21
1.811734798e-20
1.828543355e-21
4.617346016e-21
3.288494221e-21
3.89768684e-22
6.39388103e-21
2.249327008e-21
1.806190814e-20
1.588178183e-20
8.555786535e-21
7.013192158e-21
1.129483325e-20
1.451969915e-20
3.096684434e-20
1.322687323e-20
1.119863902e-20
1.221768709e-21
5.968647853e-21
2.553838077e-20
8.294451043e-21
6.405838258e-21
6.881375724e-21
1.886707036e-20
4.953631234e-20
2.306564787e-20
4.262545192e-21
7.128450203e-21
5.818079797e-21
4.057852048e-21
7.875937503e-21
7.398722512e-22
1.548826923e-21
2.245096574e-21
1.495665185e-20
9.705485984e-21
2.662313412e-20
1.84143112e-21
1.150540629e-20
7.09083371e-21
1.21848501e-21
1.91093697e-20
8.898837552e-21
4.19149298e-20
1.029784307e-20
1.836214817e-21
1.805824326e-21
7.098530274e-21
3.026205655e-20
2.700759819e-21
8.126955557e-21
2.051443525e-20
3.957612408e-21
5.272438418e-21
1.500274593e-20
1.539655428e-20
1.018301471e-20
3.370543512e-21
4.497983082e-21
7.445190204e-21
9.362444412e-21
1.976157103e-21
5.000310653e-21
2.43611818e-20
4.21420237e-21
7.112468664e-21
1.188222444e-20
3.546136281e-21
8.069455238e-21
1.116852751e-21
2.348784005e-20
1.533493006e-21
9.164686997e-21
3.647831185e-21
8.702297508e-21
2.410588657e-20
1.827675939e-20
6.326143985e-21
7.262257387e-20
8.927668636e-21
7.869530691e-22
2.03815132e-21
3.810084298e-20
2.160701938e-21
3.040878359e-21
1.157330703e-20
8.87664939e-21
3.174987266e-20
1.057876222e-20
1.345189785e-20
9.068335199e-21
2.045295846e-21
4.794217024e-22
7.140646568e-21
3.021941377e-21
1.682577922e-20
2.681236558e-21
3.208428687e-21
8.96070292e-21
2.811438909e-20
4.035545835e-21
4.545519453e-22
1.236315503e-20
1.075181581e-20
5.230416362e-21
1.697727854e-22
3.964727437e-21
9.877576818e-22
1.012043999e-20
7.07973358e-21
1.256092023e-22
3.764226369e-21
6.009284909e-23
1.457389012e-20
3.964210638e-22
2.640666318e-21
5.328004341e-21
3.831551663e-21
5.456982141e-21
4.37542461e-21
3.291004617e-20
1.084791684e-21
2.217706481e-20
1.314336107e-20
1.711990517e-20
1.165099923e-22
2.402932296e-21
2.134037173e-21
6.302820503e-21
6.880562619e-21
2.843303146e-20
8.973693721e-22
1.759580579e-21
2.780061545e-21
1.498520437e-21
9.434496093e-21
6.398860929e-21
4.893469113e-21
1.474096213e-21
2.715072271e-21
2.503065091e-20
3.867815946e-21
3.718328532e-20
3.682770092e-21
1.6867055e-20
2.755119512e-22
3.29588763e-22
2.605367454e-21
8.173288001e-21
2.492834111e-21
3.871929985e-22
2.458240636e-21
3.980512423e-21
5.8349488e-21
3.375757248e-20
2.897304101e-20
2.050319454e-20
1.001133012e-21
6.013162559e-22
8.076003592e-21
8.131406568e-21
3.971325063e-21
9.761245221e-23
1.220218063e-21
1.192755602e-21
1.31528469e-20
3.569872193e-21
1.466041361e-21
9.423365733e-22
2.541546276e-21
2.764424306e-22
2.242275466e-20
6.018350632e-20
3.865586711e-20
1.86534896e-20
2.561986512e-21
6.97891089e-21
1.459055506e-21
1.872338223e-21
5.695951872e-21
7.228694357e-21
6.629934091e-22
6.690484543e-21
2.818116035e-22
2.339573921e-21
4.256598169e-21
6.686436459e-21
5.254542554e-21
2.875173814e-21
3.157357723e-21
5.052829709e-22
1.048006331e-22
1.050987932e-20
1.290995791e-21
6.521482791e-23
9.356650192e-20
6.958626462e-21
2.543724036e-20
1.30444041e-20
1.030538611e-20
2.685876467e-20
1.232145942e-20
2.641699545e-21
1.223966312e-20
6.315166021e-22
1.151095575e-21
9.385573427e-21
6.826403933e-21
6.795371106e-21
7.9421614e-22
1.370608721e-21
8.858492045e-21
4.069892975e-21
4.126194516e-21
4.174461228e-22
9.345263611e-21
1.314328598e-21
1.887468053e-20
2.555408551e-21
3.254844117e-21
1.790448943e-21
4.238131301e-22
1.802147414e-21
5.654461347e-21
7.160787344e-21
1.696343664e-20
4.939673945e-21
2.169067992e-20
2.180244847e-21
7.701646791e-21
9.922848016e-21
6.022694979e-22
3.272517977e-21
9.510882214e-21
1.11544201e-20
5.724356948e-21
1.148330369e-21
1.556586977e-22
2.368366601e-20
1.629226256e-21
1.691010141e-21
1.875409372e-21
3.622694562e-21
4.18689986e-21
4.420571718e-21
4.40622835e-21
4.328156618e-21
1.03846732e-21
2.437037197e-22
1.32805317e-21
3.20106827e-21
1.755058334e-20
9.391312293e-21
6.334673753e-22
1.780103007e-20
2.551703312e-21
2.790014154e-20
1.493377706e-20
1.803987728e-20
6.282093941e-22
1.756592632e-20
1.775014692e-20
3.280299735e-21
8.368963146e-21
6.451354213e-21
2.36977334e-21
1.751898864e-20
1.699015005e-21
4.409001302e-21
8.525060129e-23
2.443700372e-21
7.759445015e-21
6.613331658e-21
4.377927495e-21
1.572246394e-21
8.797941609e-21
4.75796571e-21
1.430931095e-21
3.412357103e-21
2.017695801e-20
3.328320672e-21
2.420248692e-21
5.82043543e-22
2.50592992e-21
7.030060149e-21
4.503462443e-21
1.091112299e-20
3.548367429e-21
8.229021958e-22
8.462519335e-21
2.586337805e-21
3.239569635e-21
4.968950926e-20
6.834736253e-22
4.915549401e-22
2.762631496e-21
1.023913737e-21
4.5533209e-21
7.888347623e-21
2.365882268e-20
3.304197497e-21
3.944707532e-21
6.201170763e-21
2.616840848e-21
2.396119534e-21
2.87211114e-20
3.71062971e-20
3.05147962e-21
6.194283452e-21
1.213205725e-20
5.947225378e-21
1.673323951e-21
2.002266858e-21
1.32536639e-21
7.138257853e-21
1.000084278e-20
3.039669845e-21
4.764107953e-21
1.031849915e-20
2.877660828e-21
2.698802233e-21
2.652229424e-21
1.033919853e-20
4.054546663e-21
6.288213722e-21
2.025950005e-20
2.59011461e-21
1.025025593e-21
2.838562703e-20
1.056914164e-20
1.300970202e-22
9.067111955e-21
1.580579201e-21
4.878840991e-21
1.961905302e-20
2.772666653e-21
3.818973206e-21
4.730461102e-21
1.253257872e-20
2.003073397e-21
3.611965884e-22
9.264274655e-21
6.247114182e-21
1.588650254e-21
4.202997303e-21
6.257480654e-21
4.018941826e-21
4.043776538e-21
5.791855255e-21
1.777317741e-21
5.080253019e-22
4.424170505e-21
6.797177478e-21
2.103381171e-21
4.443774146e-21
7.097001465e-21
1.586312965e-21
1.114731373e-21
3.576200098e-21
3.960694464e-21
8.874903658e-21
6.299165722e-21
9.235184172e-22
1.204009746e-20
1.397248389e-21
9.915167092e-21
6.259232229e-22
9.813061801e-21
1.878645918e-20
6.794152163e-21
2.090652071e-21
9.000598667e-21
3.526537636e-21
7.312777836e-20
8.417045853e-21
3.555495806e-21
4.224998031e-20
3.062266854e-20
7.678488944e-21
3.288873319e-20
6.57806238e-21
3.963987338e-21
1.786684178e-20
7.264575028e-23
3.739900948e-20
3.852571437e-21
2.696689606e-20
2.800296159e-21
2.222018318e-21
1.542958205e-21
2.756152181e-20
1.601738738e-20
5.447412487e-22
1.45088203e-21
1.749503267e-20
3.774466849e-21
2.055277144e-21
1.791760045e-21
1.049230431e-21
9.275716659e-21
2.011660241e-21
9.74603308e-22
4.160835724e-21
4.788369732e-21
8.898240337e-21
1.170675975e-21
1.176654703e-20
1.228147066e-20
7.291978564e-21
2.719826348e-21
4.858949783e-21
2.098733863e-20
3.174565219e-22
1.072080181e-20
9.264276343e-23
3.512210243e-21
6.725315734e-21
1.373745925e-21
1.478984166e-22
8.322493896e-20
1.023455364e-20
5.103210463e-22
6.113052644e-21
3.928998314e-21
9.587926488e-21
1.998338184e-21
1.881070271e-21
1.460635259e-20
3.168020508e-20
7.103647421e-22
2.215459502e-21
7.166161095e-21
7.094030617e-21
2.887402844e-20
1.391781009e-20
3.043523773e-21
2.060472514e-21
1.093493799e-20
4.675160153e-21
2.821918932e-21
2.579721447e-21
8.001667806e-21
1.180983253e-20
5.346853583e-23
4.520182913e-21
2.00590709e-21
6.196998431e-21
2.038018283e-21
8.556428378e-21
1.508117129e-20
2.010458758e-21
4.156743374e-21
2.223579225e-21
8.654847398e-21
4.991998718e-21
1.436292725e-21
6.470122508e-22
8.251594648e-21
1.488932411e-21
6.547310616e-21
1.395596184e-20
1.485200754e-21
1.193342717e-20
1.463965864e-21
3.509854797e-21
3.302562644e-21
5.004194058e-21
3.49307991e-21
5.978404528e-21
1.084982392e-20
7.8137764e-21
5.385494753e-21
2.164147873e-22
1.474196155e-20
3.0169247e-20
3.074425286e-20
2.278139999e-20
5.848742157e-21
2.620663551e-21
1.291485553e-20
1.876901119e-21
9.729453847e-21
3.101404711e-21
4.620360623e-21
3.99914824e-22
1.231228968e-20
6.919387287e-22
1.739596532e-21
9.667356475e-21
8.998877888e-22
4.487560742e-20
1.237282301e-21
1.135713497e-20
3.938949185e-22
8.662816206e-22
6.013703863e-22
3.035902856e-20
3.954608528e-21
1.61148559e-21
1.549417029e-20
1.65422411e-21
2.445276789e-21
8.610237226e-21
1.933795438e-22
7.209589364e-21
1.486240017e-21
2.123035581e-22
1.532442661e-21
5.630340217e-21
2.507878736e-21
9.323319014e-22
2.824219416e-22
5.088023422e-21
5.760757559e-21
2.100774349e-21
2.56953749e-21
3.895850308e-21
1.779678136e-21
1.202083537e-21
7.946979772e-21
1.297652747e-21
3.45977999e-21
2.990495921e-22
3.534796471e-20
7.369025031e-22
1.393205009e-20
2.43931045e-21
1.183467717e-21
8.324393613e-22
2.230533793e-20
1.109381128e-21
1.616506758e-22
1.029215937e-21
2.93879412e-21
3.234455387e-21
2.757005543e-21
1.433469628e-20
2.305905725e-21
2.104763633e-21
3.442700294e-22
1.982247836e-21
1.662529128e-21
3.106275936e-21
1.013017921e-20
3.941743677e-22
5.164677065e-21
1.579635476e-20
1.530753065e-21
2.16409487e-21
1.932343804e-22
3.913011171e-22
1.616625437e-20
1.631168666e-21
3.951519254e-21
7.143750413e-21
2.764339385e-21
2.810736613e-21
2.481552791e-21
2.890116387e-23
3.836060736e-21
1.378467408e-21
4.706968675e-22
1.231824953e-20
2.116833196e-21
1.183892113e-21
5.8345688e-22
5.408927007e-21
7.102642567e-21
1.998668814e-21
2.685747826e-20
1.8789907e-20
1.400449727e-20
2.690329284e-21
1.204692435e-20
1.666573837e-20
5.027345805e-22
4.847205729e-21
7.559484544e-21
9.044617615e-21
2.935925496e-21
1.117254153e-21
6.078486795e-21
1.179227753e-21
5.065182166e-22
6.848935585e-21
7.180444929e-21
2.38768347e-21
1.075316328e-20
3.142301052e-21
1.787289542e-21
2.598451308e-22
7.631860333e-21
4.783759142e-22
4.440371853e-21
2.859401804e-21
1.514227002e-20
1.215321293e-21
1.588455865e-22
1.257972647e-21
8.591964749e-21
7.472521863e-21
1.573329061e-20
2.338648246e-21
6.544148156e-22
6.387417023e-22
3.27236872e-21
5.974984343e-22
6.484993986e-21
9.926489608e-22
4.468442959e-21
8.190948411e-21
4.507151882e-22
8.633777056e-21
2.680994752e-21
5.321717023e-21
2.11401938e-21
4.564313315e-21
4.335183383e-21
8.122034324e-21
1.250914578e-20
4.211149037e-22
4.191546144e-21
4.433442974e-22
1.940349412e-21
3.688962236e-21
2.627070156e-22
1.56316816e-21
6.422066156e-21
1.216112293e-20
7.91417972e-22
3.560881735e-21
4.976926134e-21
3.224456027e-21
8.136989335e-21
1.651655713e-20
1.476238725e-20
1.871515925e-22
1.132863879e-20
5.338610146e-21
2.155577782e-21
1.699878909e-20
2.903853765e-21
4.511300996e-21
2.608900672e-20
3.300025271e-21
9.999749549e-22
2.131947644e-20
5.700097961e-21
5.280067747e-22
6.114658827e-20
7.841985238e-22
8.149717024e-22
1.333055265e-21
1.098103976e-20
2.541549797e-20
4.819502118e-21
2.253026747e-21
2.428193721e-20
1.33157627e-21
1.01466733e-21
9.631879997e-21
3.077095012e-21
9.022859518e-22
1.356083804e-21
4.765360741e-21
4.323445456e-21
2.593762304e-21
1.126006649e-21
3.789002114e-22
1.814641332e-21
4.412559818e-21
1.489895262e-22
2.156586477e-21
8.148412397e-21
9.803671296e-22
7.029061719e-21
1.653981889e-21
1.505295196e-20
8.468854668e-22
8.496819394e-24
3.60141973e-21
3.035929651e-22
8.329568161e-21
8.042149563e-22
2.999622189e-22
6.15860125e-21
8.223334765e-22
9.053120163e-22
1.399585564e-21
1.055775698e-20
1.920693135e-21
5.398878892e-22
2.85550025e-22
3.792033294e-21
5.615818995e-21
2.287262722e-21
4.188374952e-21
9.321785388e-21
3.444386976e-22
5.331975092e-21
7.018790054e-21
1.169802782e-22
2.122371095e-21
1.52948056e-20
3.229431e-22
1.970312729e-20
6.976001386e-22
3.249713384e-21
5.815676317e-21
9.284589028e-23
7.271515198e-22
1.913197697e-21
4.706016543e-21
2.078937763e-22
2.50980435e-22
5.010133072e-21
1.52876882e-20
3.458663724e-21
2.745312193e-21
9.964342683e-21
4.831333583e-21
2.283016005e-21
7.493640773e-21
4.237411684e-21
4.356015172e-21
4.2115819e-21
5.729623458e-21
4.057379367e-21
4.043247812e-21
7.490937485e-22
6.216517113e-21
9.042084581e-21
1.385618729e-21
2.1707243e-21
3.149935054e-21
8.421233314e-23
4.455941996e-21
7.427094817e-21
1.490741144e-21
3.495735447e-21
4.197313586e-21
2.859561486e-21
1.119144246e-20
6.855427231e-21
1.211170585e-20
6.531688148e-21
4.432356972e-21
2.433450047e-21
1.980379873e-21
1.255520627e-20
3.03460769e-21
2.644805027e-21
6.579801938e-22
5.758362872e-21
5.242868972e-22
3.262258925e-21
8.332835922e-21
2.855346385e-21
3.3530091e-21
1.659503251e-20
2.283104511e-20
1.114292558e-20
2.402544226e-21
1.498302601e-21
1.686829142e-22
3.649972392e-21
1.369270949e-20
5.609751344e-21
4.50799435e-21
9.599554608e-22
5.226812197e-20
2.929812965e-21
1.533039129e-21
4.499267257e-21
2.806339175e-21
2.674257033e-21
6.753004077e-21
7.199543544e-21
6.079214553e-22
9.372840392e-21
1.784374678e-22
6.396393294e-21
3.016720274e-21
7.286178832e-21
9.023988515e-21
2.1577322e-21
7.498756003e-21
4.458781401e-22
1.040395646e-20
8.215612625e-22
6.395921062e-22
8.527901509e-21
1.68304322e-21
2.672161979e-22
5.88140053e-22
8.658743092e-22
2.58722399e-21
9.359686659e-21
1.563878644e-22
3.50659816e-21
1.752382302e-22
4.239261942e-21
1.523252264e-21
9.502368445e-21
1.041444211e-21
1.329937572e-21
1.372318394e-21
3.029459565e-21
2.031669748e-21
2.901879108e-21
3.861108859e-21
3.702004907e-21
4.840371678e-21
2.424745595e-22
3.555194288e-21
2.419261241e-21
9.119908918e-21
4.293648885e-21
3.271381293e-21
3.885002223e-21
1.486820635e-20
1.930904199e-21
8.857441573e-21
1.850606358e-20
2.022144827e-21
2.090630834e-20
2.147965305e-20
2.493410593e-21
2.72272515e-20
6.893702048e-21
7.123733861e-21
4.213299431e-21
7.778893095e-21
1.309737633e-21
3.116380171e-21
6.075845998e-21
1.238865991e-21
7.03912726e-21
5.921718557e-21
1.82798771e-22
4.837383999e-22
1.059742032e-21
1.158297342e-20
2.78916011e-21
3.785746169e-22
6.776002175e-23
1.119092853e-22
1.632010479e-21
1.634794766e-20
3.789169846e-21
7.659609945e-21
4.588223386e-20
2.508759643e-21
3.346349406e-21
3.778628388e-21
1.412011403e-21
3.212473663e-21
5.870869123e-21
3.212570762e-22
2.23219473e-21
3.262602892e-21
2.523188387e-21
1.43171301e-20
2.527129825e-21
1.608575515e-21
8.272221815e-21
2.615305427e-21
2.556501905e-21
2.210690067e-23
1.025879185e-21
2.188970772e-21
4.009620418e-21
6.211531877e-21
1.791985117e-21
2.671952093e-21
3.631179022e-21
6.517388962e-22
9.915397623e-21
6.168890835e-21
6.898495346e-22
1.335525547e-21
9.714361175e-21
2.555919041e-21
5.912627774e-21
7.327051891e-21
2.958200209e-21
4.165727518e-22
7.282630869e-21
9.674031699e-23
2.508074359e-21
3.909337959e-21
1.087851055e-21
2.522300825e-20
6.88844913e-22
3.483818648e-21
2.811710662e-21
2.303923548e-21
1.366934475e-21
2.645162871e-21
3.078078527e-20
2.783997408e-20
2.162373921e-21
8.77997386e-21
1.967582607e-20
3.117970953e-21
1.23575783e-21
4.119619521e-21
7.201424566e-21
2.96264483e-22
7.096719843e-22
5.661257573e-21
1.494529254e-21
1.441478055e-21
2.017570443e-22
5.756732213e-20
3.73177577e-21
1.098814082e-22
6.042314093e-22
2.154591358e-21
2.361292508e-21
1.294837669e-21
4.846385864e-21
2.046807228e-21
1.272305001e-20
2.330083222e-21
2.170085374e-21
1.613967264e-21
2.690882029e-22
8.716125519e-22
1.91255856e-21
1.047560649e-21
1.12393783e-20
6.644152197e-21
5.061565099e-21
3.544268064e-21
6.002011105e-21
4.819932924e-21
1.198837425e-21
1.018672178e-22
1.270599269e-20
5.810167504e-21
3.866151276e-21
2.114888181e-22
1.119748674e-20
1.123319317e-21
7.666179104e-21
1.312075808e-21
1.375072112e-21
2.397980754e-21
2.828516483e-22
4.391312502e-21
7.907244817e-21
5.950537731e-21
1.16613998e-22
1.245249576e-22
4.551996688e-22
1.389072054e-21
3.988089809e-21
3.554309323e-21
4.223374809e-21
7.42397634e-22
5.556205014e-22
4.399953007e-21
4.046174045e-21
5.386914604e-21
2.830137908e-21
5.835078452e-21
6.601654602e-21
9.715932279e-22
6.81970002e-21
1.799348448e-21
2.137529479e-21
3.885439735e-21
1.280377184e-21
7.837759138e-22
2.254597911e-21
4.455085098e-21
1.514045428e-23
2.699198882e-22
1.85412966e-20
1.055881894e-21
2.610728025e-20
4.360640799e-21
2.590870167e-21
2.532206069e-21
5.939268384e-21
2.247928143e-21
8.095676404e-21
1.047442223e-21
2.989700311e-21
2.022375127e-20
3.345966636e-21
1.183014376e-20
9.814209934e-22
3.782472426e-21
2.197412912e-22
7.331795204e-21
3.957123685e-21
3.352683012e-21
3.495621071e-21
1.132645554e-20
9.84556565e-21
9.058262462e-22
8.315911616e-21
4.698764949e-21
7.62886615e-21
1.490775881e-21
7.091898084e-21
1.845956487e-21
1.047511624e-20
4.69185607e-21
7.988941257e-21
4.42018651e-22
1.089049363e-22
2.546317933e-21
3.691934419e-21
3.763479871e-21
1.239753579e-20
1.009217355e-20
2.798621435e-21
2.919162616e-20
3.123949139e-21
2.067922909e-20
2.191681621e-22
9.386012271e-22
3.693486019e-21
1.935249402e-21
4.626276738e-21
2.811609855e-21
2.783901094e-21
2.428481587e-21
3.218115193e-21
2.648906998e-21
8.790265141e-21
8.15419023e-22
2.089489605e-21
2.820345164e-21
2.464214446e-21
3.908528464e-21
4.666825539e-21
2.907399374e-21
1.395697388e-20
1.23155235e-21
7.417479126e-21
1.356392293e-21
1.025500743e-22
1.461649691e-22
1.535333751e-20
3.452186453e-21
4.19615328e-21
4.676151479e-21
3.778659378e-21
3.130419581e-21
8.870340498e-21
1.220897496e-20
2.501283428e-21
7.840151005e-22
1.834270279e-21
1.463978058e-21
3.286342532e-21
7.915969553e-21
3.627096076e-21
2.636521922e-21
3.442907732e-20
4.883715335e-21
8.553210929e-21
4.189107193e-21
2.116586973e-21
2.013494827e-21
6.184535087e-21
2.099638065e-21
1.282746885e-20
3.832163885e-21
3.827796575e-22
5.667619884e-22
4.826188706e-22
2.907590804e-21
1.087732648e-20
5.336593921e-21
5.043961902e-21
9.304619338e-21
1.605268555e-20
1.792151005e-21
4.673150871e-21
5.005405188e-20
3.427377852e-21
5.284656925e-21
4.839390031e-21
7.270802644e-21
4.998154854e-21
1.843650837e-21
1.85559262e-21
7.855241741e-22
6.707786195e-21
1.52203188e-21
5.303961557e-22
1.118015656e-20
4.214734754e-22
1.239979364e-21
6.319046544e-22
4.912002047e-22
2.02010979e-21
1.588179852e-20
1.480620064e-22
4.113931569e-21
2.495035193e-22
3.010670838e-21
4.607030965e-21
4.825145627e-22
1.628972821e-20
1.536121594e-21
1.729068336e-21
4.465400683e-22
3.973368713e-21
5.195412712e-21
2.553466971e-21
1.007429999e-20
4.351099224e-22
3.599949856e-21
1.318796973e-21
1.668226128e-21
2.805856023e-21
1.861038203e-21
2.034592583e-22
6.280777096e-21
2.388958639e-21
7.719369476e-22
1.646287481e-21
2.734964029e-21
4.710577736e-22
5.37073361e-21
1.245493817e-20
1.265351002e-20
1.209497182e-21
4.998794668e-21
1.655375113e-21
6.289825837e-22
1.111948038e-21
1.692302584e-21
2.77815359e-20
3.753483348e-21
3.217592263e-21
4.80053386e-22
1.824383525e-20
1.153071456e-20
2.769290964e-20
5.844068892e-21
2.515850594e-21
7.0396877e-21
1.689260361e-21
7.395596861e-21
1.070401466e-20
2.124832704e-21
3.006835307e-21
4.010627934e-21
9.426410448e-21
5.81466242e-22
5.39202476e-21
4.434845362e-20
1.63794724e-21
7.139610334e-22
3.529387487e-22
1.207397251e-21
3.008994578e-21
9.774794034e-22
1.756499976e-21
2.750060546e-23
1.030846335e-20
3.723277272e-22
2.891011842e-21
3.772288268e-21
4.146868576e-21
2.810530249e-21
5.230495332e-21
3.545349777e-21
4.086341134e-21
5.760129856e-23
1.108622231e-21
1.818422084e-23
1.475834022e-21
2.186043367e-23
1.43147756e-20
2.52507496e-21
2.360151634e-21
1.744973804e-20
4.170165588e-21
3.943331224e-21
2.145754058e-21
9.897831411e-21
2.586099833e-21
1.849626725e-21
2.334022777e-21
3.483025722e-21
2.123969127e-21
3.990649345e-21
2.128773e-21
2.305654449e-22
1.559296785e-21
4.299110273e-22
4.409188929e-21
3.999306531e-21
6.709433426e-21
5.408892847e-21
1.779345658e-21
1.447790286e-21
1.099121968e-20
9.408392419e-21
2.281514536e-21
9.041239768e-24
5.483376424e-22
5.493695794e-21
2.018692907e-22
2.93423798e-20
4.985236561e-20
4.665497529e-22
1.966705003e-20
7.046314673e-21
4.230383972e-21
3.680144151e-21
1.191279385e-20
2.336192362e-21
1.003383541e-20
2.227356972e-21
9.800597598e-21
1.920238572e-22
2.29820592e-20
1.362724368e-20
2.414145824e-21
4.205004405e-21
1.273351691e-21
7.369540969e-21
5.613951231e-21
8.649071685e-22
2.708592577e-21
3.918078839e-21
6.293575241e-21
1.989066074e-21
3.319749174e-22
1.17706297e-21
5.766383126e-22
5.922320224e-21
5.557996806e-21
3.449498502e-20
9.675898849e-22
2.245174517e-21
1.55041859e-20
1.119925128e-21
1.429979421e-21
1.027270455e-21
1.657853847e-21
2.140558071e-21
3.952586092e-21
1.023484094e-20
3.490630277e-21
1.89177673e-20
1.280780632e-21
3.941191297e-21
1.778346854e-21
4.91085268e-21
5.011600734e-21
4.320797761e-22
2.21258465e-21
9.629537872e-22
1.463598745e-21
9.514929386e-21
1.114999926e-21
1.2781638e-21
4.821595271e-21
3.548181189e-22
4.474025382e-21
1.486964229e-21
4.572819352e-21
8.723116015e-21
5.223690141e-21
3.260201983e-21
8.860041278e-22
6.091900262e-21
9.27080157e-22
1.317840996e-21
7.991226373e-21
2.025115678e-21
9.443186981e-22
4.606454773e-22
3.580651406e-21
2.883358794e-21
8.507606639e-21
6.356813786e-21
1.349351155e-21
6.285198853e-21
4.961376442e-21
8.869769592e-22
1.281270053e-21
2.122240449e-21
4.480575179e-21
4.112792293e-21
4.605204274e-23
4.796290643e-21
6.644356832e-21
1.129183251e-20
2.262982135e-21
8.26685722e-22
1.056343084e-20
6.555114263e-21
2.742673403e-20
3.375071724e-20
4.098086369e-22
1.997568393e-20
8.303793485e-21
2.571034294e-21
3.825024464e-21
1.089396352e-20
2.228867046e-21
1.663766247e-22
7.417160392e-21
4.697192547e-21
3.939670815e-21
4.079906341e-22
1.957005621e-20
9.717010776e-21
3.000897829e-21
2.128704856e-20
7.923381473e-21
1.434844116e-21
5.903792385e-21
2.452610553e-21
1.317027619e-20
9.02542137e-22
7.331465214e-21
3.209705861e-21
1.136706234e-20
1.167606297e-21
1.463875103e-21
6.400367028e-21
7.17569436e-21
3.884693986e-21
2.053515471e-21
1.112060556e-21
1.243360534e-21
1.59708206e-21
5.668922344e-21
4.929859896e-22
2.45370876e-20
1.985009555e-20
4.961897931e-21
4.211179611e-22
1.343309489e-21
7.960461011e-22
4.416743061e-21
4.516203504e-23
2.382767199e-21
3.088784002e-21
3.868166367e-21
1.687039833e-21
8.781368403e-21
1.299187242e-21
3.651895366e-22
2.372216478e-21
1.134094273e-20
3.150004405e-24
3.285594838e-21
2.075454527e-21
5.67069756e-21
7.526697351e-22
4.71944488e-21
2.906723303e-21
4.776616612e-21
9.413299317e-22
1.896742341e-21
1.538950068e-21
8.370045136e-24
4.023608472e-21
6.340344e-21
4.46329147e-21
7.141402876e-21
6.289274138e-22
7.371050587e-21
2.700106133e-21
8.306794489e-21
4.027489711e-23
9.531089338e-21
1.414747665e-21
2.780560339e-21
1.662003032e-22
3.613461268e-22
1.117521553e-20
3.132776111e-21
4.6681706e-21
1.71623415e-20
7.119209471e-21
1.195497272e-21
6.514929968e-21
5.044490701e-21
1.098078989e-21
3.447980544e-22
5.155525469e-21
8.87549118e-21
1.659900044e-20
3.449696178e-21
2.954547184e-22
3.824521472e-22
9.16599414e-21
2.122116848e-21
1.065756318e-21
9.090693125e-21
1.333777684e-21
3.547261804e-21
1.833848344e-21
1.194559623e-20
4.28215139e-21
7.423136758e-22
1.368544743e-22
3.802682149e-21
5.873002142e-21
2.199267109e-21
6.118868451e-22
2.024625413e-21
1.820702236e-20
6.615244868e-22
2.569609108e-22
9.313995506e-22
3.973669034e-21
5.33088416e-21
1.778668899e-20
5.692615753e-21
7.773144613e-22
2.842089339e-22
2.391845133e-22
6.702738683e-21
2.366635577e-23
1.779668922e-20
4.53320756e-21
4.838664109e-22
9.337604704e-21
1.786301609e-20
3.199401866e-21
6.86300845e-21
1.879393857e-20
1.101200736e-21
8.285019164e-22
4.622985972e-22
2.647539281e-21
1.966566998e-21
3.969461782e-21
3.724098045e-21
6.89363836e-21
1.554883144e-21
9.039599345e-21
2.866451359e-21
8.792863168e-21
5.95328142e-21
6.115396181e-21
1.950714209e-21
5.761103101e-21
1.50779785e-21
2.339749135e-22
5.441911851e-21
2.205145791e-21
1.936375669e-21
1.596802962e-21
1.543775946e-20
3.713838087e-21
6.331573129e-21
9.262723684e-21
2.609479764e-21
1.259652738e-21
3.843375181e-21
1.315746241e-21
6.634445993e-21
8.576379172e-22
6.002729063e-21
5.605396059e-21
5.150980683e-21
2.568355581e-21
5.20670261e-22
4.502336407e-21
7.315455645e-22
9.502355487e-21
2.019094654e-20
2.833897589e-21
8.871628036e-21
4.621250863e-22
2.933978279e-21
8.481322593e-21
4.417163696e-22
8.923201782e-21
3.143771653e-22
9.490946961e-21
1.572582646e-21
4.015980808e-21
3.807829261e-21
2.736420322e-22
1.772070958e-21
5.209392767e-21
4.35410988e-21
1.115419785e-21
5.728115791e-22
2.458941017e-21
3.388138325e-21
2.117318341e-21
3.02907016e-21
3.980635913e-21
9.313525316e-22
5.672435354e-21
1.001736135e-20
3.541822678e-21
1.219377542e-20
4.485788579e-22
1.789251575e-21
2.761486903e-21
2.484190573e-21
1.040212619e-20
6.95061141e-22
2.030953694e-21
1.135548168e-21
1.112300816e-21
2.159980091e-21
2.514548138e-21
2.828711758e-23
1.06760041e-20
5.449581075e-21
9.166966588e-21
1.227690764e-20
2.332583885e-21
2.233989233e-21
3.21877287e-21
1.786360924e-21
3.110969214e-21
1.25514971e-21
2.753823186e-22
3.496333185e-21
3.28222616e-21
4.021962355e-21
1.557987307e-21
2.171970044e-21
7.635102224e-21
2.011556547e-21
3.037982462e-21
5.246756063e-21
2.842262529e-21
1.658591924e-21
1.077550272e-20
1.417434655e-20
3.075848548e-22
1.293952693e-21
1.694557721e-22
2.74563794e-21
1.146068254e-20
3.643567829e-23
2.874817687e-21
1.366932935e-20
5.08696265e-23
3.493105406e-21
2.179043393e-23
1.934871854e-21
7.602361529e-21
1.193920472e-21
8.189438557e-22
5.569132484e-23
1.992914935e-21
1.420629398e-20
3.558903714e-21
3.273395755e-20
2.384979736e-21
3.396984149e-21
3.65856126e-20
1.179012123e-20
4.322155329e-21
6.345774785e-21
6.027325036e-21
2.964216534e-21
3.77406148e-21
2.136873684e-21
1.227375137e-21
1.815998627e-20
8.850107527e-21
1.067575956e-20
1.010299057e-20
2.535295681e-21
2.512167708e-21
2.37297696e-21
8.431666421e-21
2.713685862e-21
1.382241801e-21
1.671271223e-22
1.218143473e-22
5.728645639e-21
5.707318639e-22
1.561231656e-21
2.823802003e-21
5.205630702e-22
1.547683072e-20
6.292899289e-21
3.811597395e-21
5.361714285e-21
3.251103798e-21
8.061934324e-21
1.33546301e-20
2.138901044e-21
2.929463184e-21
2.419759992e-21
3.837220883e-21
1.819572517e-21
6.070182767e-21
5.960584529e-22
6.013862405e-21
5.294344768e-21
5.456819562e-21
3.670474071e-21
1.07909017e-20
2.14851656e-21
6.96259489e-21
5.887956534e-22
6.722732021e-21
2.454454447e-21
6.167113972e-21
6.477990431e-21
2.522794495e-21
1.672969298e-20
7.327755969e-22
1.086898964e-20
4.033851007e-21