/*--------------------------------*- C++ -*----------------------------------*\
| =========                 |                                                 |
| \\      /  F ield         | OpenFOAM: The Open Source CFD Toolbox           |
|  \\    /   O peration     | Version:  2406                                  |
|   \\  /    A nd           | Website:  www.openfoam.com                      |
|    \\/     M anipulation  |                                                 |
\*---------------------------------------------------------------------------*/
FoamFile
{
    version     2.0;
    format      ascii;
    arch        "LSB;label=32;scalar=64";
    class       Cloud<dsmcParcel>;
    location    "0.001/lagrangian/dsmc";
    object      positions;
}
// * * * * * * * * * * * * * * * * * * * * * * * * * * * * * * * * * * * * * //

6884
(
(0.05247470192 0.02946012042 -2.168404345e-19) 466
(0.05460777252 0.02216051573 0) 457
(0.07438048553 0.03488758479 -4.33680869e-19) 469
(0.008929124716 0.02966350925 0) 471
(0.07352368199 0.03847081592 0) 469
(0.07585406464 0.02529542897 2.168404345e-19) 449
(0.06723183853 0.03408410308 0) 468
(0.04708657443 0.04187304137 0) 486
(0.05606143357 0.03009862621 0) 467
(0.07549458952 0.03438862433 0) 469
(0.04452181763 0.07852819158 -2.168404345e-19) 535
(0.06580797771 0.05342996849 -4.33680869e-19) 498
(0.04713746405 0.02422513242 1.084202172e-19) 456
(0.05496654656 0.05054765233 -2.168404345e-19) 497
(0.07296805328 0.02858866027 1.084202172e-19) 459
(0.02598481033 0.07848485325 1.084202172e-19) 533
(0.02602318393 0.04037410952 1.084202172e-19) 483
(0.06510467385 0.05679128699 -2.710505431e-20) 498
(0.05538514797 0.01595039986 2.168404345e-19) 447
(0.04957272909 0.02614911571 5.082197684e-20) 456
(0.0346699225 0.03902494005 0) 484
(0.02964308962 0.02755596709 0) 463
(0.02217863667 0.04068046181 -2.168404345e-19) 482
(0.05972942616 0.07072605003 -2.168404345e-19) 517
(0.02691865054 0.06374048456 -8.131516294e-20) 513
(0.05226725739 0.05207026845 1.084202172e-19) 496
(0.07433739357 0.02961245465 5.421010862e-20) 459
(0.0568371238 0.02093279525 -2.168404345e-19) 447
(0.06997799517 0.05991965874 -2.981555974e-19) 499
(0.05252577535 0.02764105917 0) 456
(0.06487866142 0.1095892616 2.168404345e-19) 578
(0.07531083812 0.04208392647 0) 479
(0.01218614723 0.01391680666 0) 451
(0.03120127693 0.03457760958 1.084202172e-19) 474
(0.01764056988 0.01569806817 0) 452
(0.05415312684 0.02269968622 0) 457
(-0.05604646449 0.07045140169 -1.084202172e-19) 192
(0.06391183899 0.04391238594 -1.084202172e-19) 478
(0.03622215674 0.07473447934 0) 524
(0.06567162523 0.03339474962 0) 468
(0.06614772572 0.06567451877 -1.084202172e-19) 508
(0.06809297808 0.04098460773 0) 478
(0.04258708271 0.01292345868 -2.168404345e-19) 445
(0.05410564747 0.0628966005 0) 507
(0.07061419917 0.0504959872 0) 489
(0.04296775963 0.0491452676 -4.33680869e-19) 495
(0.0432425306 0.02996365093 0) 465
(0.05802198708 0.03099420792 -2.168404345e-19) 467
(0.05686304459 0.0174290289 2.710505431e-20) 447
(0.0676175631 0.03924682131 -2.168404345e-19) 468
(0.07354227283 0.03787415137 -2.168404345e-19) 469
(0.0539689953 0.02991195467 -2.168404345e-19) 467
(0.04714140573 0.02592976764 2.710505431e-20) 456
(0.04479937044 0.05635793652 0) 505
(0.04711265783 0.03243794944 0) 466
(0.03433699706 0.01359085749 1.016439537e-20) 444
(0.03616168315 0.04003342164 2.168404345e-19) 484
(0.05573345059 0.0375707952 1.084202172e-19) 477
(0.05555355051 0.0328275597 2.710505431e-20) 467
(0.05639478079 0.1360733446 -2.168404345e-19) 607
(0.04989888639 0.01934806365 -4.607859233e-19) 446
(0.02066300449 0.07300802682 0) 532
(0.05968130577 0.01599438029 0) 447
(0.05727394237 0.01952028458 5.421010862e-20) 447
(0.05707653639 0.01552190537 -1.151964808e-19) 447
(0.04056534606 0.04039637455 0) 485
(0.07117603757 0.01908688824 1.084202172e-19) 449
(0.02800520533 0.04552550486 0) 493
(0.06725355867 0.03746498642 0) 468
(0.044927056 0.01905082045 0) 445
(0.0705644259 0.02073262636 0) 449
(0.05060208515 0.03674408449 2.168404345e-19) 476
(0.07540533695 0.03427746096 4.33680869e-19) 469
(0.04713816063 0.01291763396 2.168404345e-19) 446
(0.06314089755 0.02372426905 0) 448
(0.0001505312211 0.06952336075 0) 530
(0.06683372335 0.03973602512 0) 478
(0.07277195714 0.03680926118 -1.897353802e-19) 469
(0.07383684971 0.05354513394 -2.168404345e-19) 489
(0.06121663134 0.04308870586 0) 478
(0.05840467942 0.01759504768 0) 447
(0.05204248571 0.03447040114 2.168404345e-19) 466
(0.05446756862 0.01553326103 2.168404345e-19) 447
(0.04140977855 0.0217073958 -2.710505431e-20) 455
(0.0724086417 0.03538598911 -1.084202172e-19) 469
(0.03609521788 0.02989540398 0) 464
(0.05384684105 0.0241765279 2.168404345e-19) 457
(-0.00869077823 0.0760636202 0) 218
(0.06597300632 0.02013206307 0) 448
(0.07571684557 0.0224213786 -2.168404345e-19) 449
(0.07308450232 0.01976184476 4.33680869e-19) 449
(0.05185637184 0.0243571055 2.710505431e-20) 456
(0.05631791748 0.06015213959 5.421010862e-20) 507
(0.07218937007 0.03311619861 2.168404345e-19) 459
(0.07581500317 0.05969799492 -4.33680869e-19) 499
(0.0002073919138 0.04528528445 -2.40557357e-19) 500
(0.06605685276 0.03006149946 -2.168404345e-19) 458
(0.06998900037 0.06649545393 0) 509
(-0.03249672943 0.03812337269 4.33680869e-19) 115
(0.05506036772 0.05644206186 -1.084202172e-19) 497
(0.07211954585 0.05149733322 -2.439454888e-19) 489
(0.03635922431 0.03110034714 -4.33680869e-19) 464
(-0.01191603345 0.05221793666 2.168404345e-19) 138
(0.01256208149 0.04240665408 2.168404345e-19) 491
(0.06860545913 0.0540371052 2.168404345e-19) 499
(0.06899771286 0.06499739423 -1.626303259e-19) 509
(0.03051318124 0.04757179559 -4.33680869e-19) 494
(0.07514694953 0.05219910386 0) 489
(0.03292602758 0.04912137257 -5.421010862e-20) 494
(0.03197029219 0.05169681803 -1.626303259e-19) 494
(0.06254929872 0.04351018989 2.168404345e-19) 478
(0.07407609352 0.02077307632 0) 449
(0.01512207442 0.1458358022 2.168404345e-19) 631
(0.0619312549 0.03732659465 -8.131516294e-20) 468
(0.02489512422 0.06867627084 -1.084202172e-19) 523
(0.07274169944 0.02265199955 -1.355252716e-19) 449
(0.0705363806 0.03303866098 -4.33680869e-19) 469
(0.06455238109 0.03378308897 3.388131789e-19) 468
(0.05377257245 0.02298174342 2.168404345e-19) 457
(0.05600690399 0.0237454677 0) 457
(0.07124048083 0.01967932385 -1.084202172e-19) 449
(0.06242825723 0.02113395082 -2.168404345e-19) 448
(0.06667309917 0.02859492831 0) 458
(0.05654288133 0.02979634216 -2.168404345e-19) 467
(0.06830543088 0.04058178354 -4.33680869e-19) 478
(0.05882565997 0.01670459315 2.168404345e-19) 447
(0.01490291083 0.03013978832 -2.168404345e-19) 471
(0.03884967991 0.02650798176 1.084202172e-19) 465
(0.05128408593 0.03452756419 0) 466
(0.01148732301 0.03234793579 -1.897353802e-19) 471
(0.07427670143 0.03477311242 0) 469
(0.06235548245 0.01958656041 0) 448
(0.01080515803 0.01606751281 -3.252606517e-19) 451
(0.07191951004 0.04149373425 0) 479
(0.06797641038 0.02313463402 0) 448
(0.07057978248 0.04604631788 0) 479
(0.039611233 0.08076802526 0) 535
(0.03921101439 0.03843067951 -6.437450399e-20) 475
(0.05410317138 0.07341128935 1.084202172e-19) 527
(0.04998234105 0.01859929484 -1.626303259e-19) 446
(0.04652750619 0.0142376705 -1.084202172e-19) 446
(0.04144935308 0.02317334574 0) 455
(0.03997658128 0.05562437459 0) 505
(0.04564527808 0.06810628312 4.33680869e-19) 515
(0.06669912707 0.04551831753 -2.168404345e-19) 478
(0.07201744034 0.03138142751 0) 459
(0.03048827039 0.04172846207 -1.626303259e-19) 484
(0.06686039193 0.02941797133 0) 458
(0.07130090165 0.02316306289 -5.421010862e-20) 449
(0.05653274829 0.02074284557 -1.084202172e-19) 447
(0.05589466382 0.02541178112 -3.252606517e-19) 457
(0.07244865344 0.05506653369 2.168404345e-19) 499
(0.072501483 0.03951853833 -2.710505431e-20) 469
(0.04838201019 0.02302200837 -5.421010862e-20) 456
(0.02190772025 0.04946424779 0) 492
(0.05749431755 0.01639286247 2.168404345e-19) 447
(0.05441225239 0.02331422396 2.710505431e-19) 457
(0.02865345446 0.04005320946 -5.421010862e-20) 483
(0.0582887593 0.02738753746 -1.084202172e-19) 457
(0.04736083243 0.01337248968 0) 446
(0.05685242314 0.04572664933 -4.33680869e-19) 487
(0.03481563627 0.03567968291 0) 474
(0.06336972506 0.09552143446 -4.33680869e-19) 558
(0.06345893987 0.01724807441 0) 448
(0.05298278091 0.02294812928 0) 456
(0.04112635138 0.01477713451 -8.131516294e-20) 445
(0.03862802218 0.01875344159 3.252606517e-19) 455
(0.06719662904 0.02552887641 0) 458
(0.03861760219 0.01079791989 0) 445
(0.04541887983 0.02375536022 0) 455
(0.07371239837 0.06285222592 0) 509
(0.05852230425 0.04752408909 1.219727444e-19) 487
(0.01694907505 0.02406470418 -2.168404345e-19) 462
(0.06918282656 0.02799689101 0) 459
(0.06829039147 0.07646517935 -2.168404345e-19) 528
(0.05637012827 0.01519567202 3.252606517e-19) 447
(0.06191940412 0.07109173469 4.33680869e-19) 518
(0.05904774918 0.09695625657 1.084202172e-19) 557
(0.06571252385 0.04537102353 -4.33680869e-19) 478
(0.05011261452 0.04570555244 0) 486
(0.02190642107 0.03135652999 2.439454888e-19) 472
(0.0412795647 0.0119843574 -2.168404345e-19) 445
(0.02346896888 0.009178836986 0) 443
(0.0569012799 0.05444071523 -1.694065895e-20) 497
(0.06705922275 0.06543302 -2.168404345e-19) 508
(0.06005421976 0.09295334479 2.168404345e-19) 547
(0.0657828187 0.05984937513 -2.168404345e-19) 498
(0.04567447081 0.03119205099 -4.33680869e-19) 465
(0.04312983622 0.02850712147 0) 465
(0.06894222716 0.05038563044 -8.131516294e-20) 489
(0.06403886675 0.06680911005 -2.168404345e-19) 518
(0.003268708428 0.04307029579 1.626303259e-19) 490
(0.07086361119 0.03867077011 -5.421010862e-20) 469
(0.05640853871 0.03846685714 2.168404345e-19) 477
(0.03820368983 0.01812009035 5.421010862e-20) 455
(0.0651839421 0.02535155881 -2.168404345e-19) 458
(0.07486452542 0.0672900268 0) 509
(0.0583157878 0.06657503487 0) 517
(0.06364083639 0.0295956532 1.084202172e-19) 458
(0.02887180905 0.0137891818 -2.168404345e-19) 443
(0.06183962879 0.02444601987 -2.168404345e-19) 458
(0.07089231325 0.03973740818 2.168404345e-19) 469
(-0.01485527253 0.04869852716 2.168404345e-19) 138
(0.04910570557 0.02624063219 -2.168404345e-19) 456
(0.05728130305 0.0517683883 2.168404345e-19) 497
(0.06570370151 0.02970624793 0) 458
(0.06600468133 0.04749227207 0) 488
(0.05947690868 0.06850643942 1.084202172e-19) 517
(0.06119986196 0.1108435943 0) 578
(0.07595543534 0.06369981114 4.33680869e-19) 509
(0.07592351788 0.02683549452 -4.33680869e-19) 449
(0.0330811338 0.02086446346 1.084202172e-19) 454
(0.05826045627 0.02219888802 2.168404345e-19) 447
(0.06784081632 0.0745365904 -2.168404345e-19) 518
(0.06798016328 0.02201990521 -4.33680869e-19) 448
(0.07340475137 0.06288497807 0) 509
(0.06798067884 0.0486596762 -4.33680869e-19) 488
(0.0705473731 0.0473573769 2.168404345e-19) 489
(0.07394268831 0.05874591841 0) 499
(0.06788131814 0.1053182091 1.084202172e-19) 568
(0.05798472595 0.1337553407 1.626303259e-19) 607
(0.04421329044 0.02349277986 -2.168404345e-19) 455
(0.045641612 0.01600230977 -4.33680869e-19) 445
(0.02059571292 0.02340880977 0) 462
(0.05014799273 0.01931293418 2.168404345e-19) 446
(0.05111757462 0.06415356799 2.168404345e-19) 516
(0.04429122126 0.03774194526 0) 475
(0.06963986413 0.02445394458 0) 449
(0.06597384609 0.08809969816 0) 538
(0.0690873263 0.05278567443 0) 489
(0.05520603289 0.09496901295 2.168404345e-19) 557
(0.06785627574 0.1497005708 4.33680869e-19) 628
(0.06505363429 0.1446972665 -4.33680869e-19) 628
(0.07229370879 0.06698476566 2.168404345e-19) 509
(0.04155851717 0.04839742102 1.897353802e-19) 495
(0.03149256139 0.02577731457 2.168404345e-19) 464
(0.03445976309 0.029514043 -2.710505431e-20) 464
(0.04111621144 0.02706348118 -1.626303259e-19) 465
(0.07464234917 0.02173613505 2.168404345e-19) 449
(0.04417661516 0.028814703 0) 465
(0.06192033553 0.04714159913 -3.252606517e-19) 488
(0.05242907945 0.06260337112 -2.168404345e-19) 506
(0.05091803506 0.01705950509 4.065758147e-20) 446
(0.06926905363 0.04361593137 -2.710505431e-19) 479
(0.07179088689 0.09052783699 0) 549
(0.07220390589 0.1505073797 -4.33680869e-19) 629
(0.07544764309 0.08676220721 2.168404345e-19) 539
(0.07335523549 0.051045611 -8.131516294e-20) 489
(0.03097226569 0.0106692596 -2.168404345e-19) 444
(0.05622994823 0.02114541635 0) 447
(0.07605311343 0.05995127256 0) 499
(0.07003905011 0.05704888528 0) 499
(0.03673471402 0.02160878221 -2.168404345e-19) 454
(0.06589294195 0.0416203332 0) 478
(0.07451801314 0.02126493644 2.168404345e-19) 449
(0.05185797048 0.06884293047 0) 516
(0.05413666299 0.0394942844 1.270549421e-20) 477
(0.02766069733 0.05103289206 0) 493
(0.04125196994 0.02732377457 0) 465
(0.06792969939 0.03417803533 1.084202172e-19) 468
(0.07154632691 0.06586663828 5.421010862e-20) 509
(0.07429511658 0.04984811762 1.084202172e-19) 489
(0.07254242671 0.1417071913 -3.252606517e-19) 619
(0.01965575042 0.01692944646 0) 452
(0.04619205403 0.01268334327 -4.33680869e-19) 446
(0.04538965542 0.06759887143 -4.33680869e-19) 515
(0.07294696538 0.05679820076 1.084202172e-19) 499
(0.07597381971 0.03301679085 4.33680869e-19) 459
(0.06879816324 0.02490038523 -2.168404345e-19) 449
(0.07246914655 0.06314934929 2.168404345e-19) 509
(0.07493012444 0.02378273718 4.33680869e-19) 449
(0.06531253512 0.07966099686 2.168404345e-19) 528
(0.05306383584 0.02532352598 2.168404345e-19) 456
(0.06413846511 0.1348423363 -4.878909776e-19) 608
(0.06969761089 0.1450514396 1.084202172e-19) 619
(0.06745856344 0.02082030875 2.710505431e-19) 448
(0.03064862809 0.03362962533 2.168404345e-19) 474
(0.04980315055 0.03658652146 -4.33680869e-19) 476
(0.06009382711 0.01845887656 0) 447
(0.04366802043 0.04457578079 2.168404345e-19) 485
(0.05805609396 0.03873931044 2.168404345e-19) 477
(0.07307219371 0.07780809031 1.084202172e-19) 529
(0.01370883266 0.02816992648 -1.084202172e-19) 471
(0.0697442038 0.04171219608 0) 479
(0.06503880132 0.0269795733 1.084202172e-19) 458
(0.03725257809 0.01104288107 4.33680869e-19) 444
(0.05625197223 0.04273554681 2.168404345e-19) 477
(0.04794916152 0.01686201225 0) 446
(0.06855069897 0.06219606559 -2.168404345e-19) 508
(0.02546345173 0.01573330743 -3.252606517e-19) 453
(0.0758947109 0.06792539952 2.168404345e-19) 509
(0.05073778059 0.131876686 1.084202172e-19) 606
(0.02553925148 0.07369462959 -1.084202172e-19) 533
(0.04326941197 0.04183075101 0) 485
(0.05714273469 0.0193888625 -5.421010862e-20) 447
(0.05813394042 0.04772981662 2.168404345e-19) 487
(0.04183522141 0.01136446771 -1.084202172e-19) 445
(0.07085862846 0.06520104675 1.626303259e-19) 509
(0.05978863137 0.03646864385 -2.168404345e-19) 467
(0.03214563296 0.03274785979 1.626303259e-19) 474
(0.0664406001 0.05770476393 -1.084202172e-19) 498
(0.03514326836 0.01654978073 2.710505431e-19) 444
(0.05694107663 0.0459894543 1.219727444e-19) 487
(0.05833193679 0.01670156354 -4.33680869e-19) 447
(0.07008745473 0.0366758904 2.710505431e-20) 469
(0.04720125293 0.06683139581 2.168404345e-19) 516
(0.04430501603 0.06227262274 0) 505
(0.04044134865 0.05063433066 4.33680869e-19) 495
(0.07144215949 0.09773039332 -4.33680869e-19) 559
(0.05344780853 0.02460531681 2.168404345e-19) 457
(0.06987329931 0.0609354507 0) 509
(0.05220773645 0.029087243 0) 466
(0.0342364672 0.05839253133 0) 504
(0.06787962804 0.07261836632 -2.168404345e-19) 518
(0.06536401104 0.06647711171 -2.710505431e-19) 508
(0.07103154185 0.0886759251 -2.168404345e-19) 539
(0.06680388554 0.04625465075 4.33680869e-19) 488
(0.01068903352 0.01209968292 -5.421010862e-20) 451
(0.01336719468 0.02754207257 0) 471
(0.04610572173 0.04257014228 -2.168404345e-19) 486
(0.06971409502 0.05116040718 1.084202172e-19) 489
(0.07429485593 0.06593654777 2.168404345e-19) 509
(0.03377856925 0.02910376843 0) 464
(0.07307244673 0.04241130774 2.168404345e-19) 479
(0.06891314397 0.06700554803 -4.33680869e-19) 509
(0.06235723215 0.03336786183 1.084202172e-19) 468
(0.07100859539 0.04217264498 -2.168404345e-19) 479
(0.0701584255 0.08048872752 2.168404345e-19) 529
(0.06531421365 0.0882495576 0) 548
(0.07071023285 0.05504072629 3.252606517e-19) 499
(0.07611075898 0.09265358499 -4.33680869e-19) 549
(0.07443470077 0.1044536586 -2.168404345e-19) 569
(0.07580601578 0.04658719042 -2.168404345e-19) 479
(0.06388487659 0.02564025814 2.710505431e-19) 458
(0.0463979234 0.02256860745 -2.168404345e-19) 456
(0.04859472118 0.03246011131 -7.047314121e-19) 466
(0.06956084682 0.02391313085 2.168404345e-19) 449
(0.03513090032 0.03504514691 -1.626303259e-19) 474
(0.05102651747 0.0602595495 1.084202172e-19) 506
(0.05327318423 0.0581273462 0) 506
(0.05925584204 0.05213176459 -2.168404345e-19) 497
(0.05176113992 0.02954713345 0) 466
(0.07248976101 0.07220982619 6.776263578e-21) 519
(0.06010884703 0.03548204961 -2.168404345e-19) 467
(0.01509459404 0.03378780683 4.33680869e-19) 481
(0.06325907524 0.02421476992 2.168404345e-19) 458
(0.0674018474 0.06138002709 -2.168404345e-19) 508
(0.04669965183 0.03860777817 1.084202172e-19) 476
(0.06875654655 0.05995458635 0) 499
(0.05681381793 0.04540338453 -1.626303259e-19) 487
(0.05045564233 0.1183942451 1.084202172e-19) 586
(0.05592836787 0.1485235736 -1.626303259e-19) 627
(0.05536775807 0.1410898402 -2.168404345e-19) 617
(0.05857985373 0.1472810525 0) 627
(0.03538136831 0.02716485186 0) 464
(0.05577304011 0.01882514512 -1.084202172e-19) 447
(0.07451236037 0.03530270855 0) 469
(0.07051891543 0.1418845117 1.516188976e-19) 619
(0.0460796316 0.01695461624 -3.252606517e-19) 446
(0.02730615597 0.02239550246 4.33680869e-19) 463
(0.02483444103 0.02965490381 -2.168404345e-19) 473
(0.06707690281 0.04217457673 -1.626303259e-19) 478
(0.06314930752 0.05634570276 0) 498
(0.04395187861 0.05724319882 0) 505
(0.0641309531 0.0210198486 8.131516294e-20) 448
(0.01824202996 0.01079631328 -3.252606517e-19) 442
(0.04420680948 0.05324961854 2.168404345e-19) 495
(0.05608847578 0.02047400536 0) 447
(0.07601928303 0.0787542138 0) 529
(0.03042871598 0.05533533426 5.149960319e-19) 503
(0.02840908864 0.02642744253 -1.084202172e-19) 463
(0.06235185685 0.02447275998 4.33680869e-19) 458
(0.02773010882 0.04974622125 -6.505213035e-19) 493
(0.06234429645 0.09624638772 5.421010862e-20) 558
(0.0506862114 0.01575562327 2.168404345e-19) 446
(0.05344925811 0.06594253282 0) 517
(0.06920258915 0.04601732402 0) 479
(0.05390546779 0.07649672964 0) 527
(0.06784329301 0.09760262901 3.252606517e-19) 558
(0.0723663343 0.07196468503 -2.659683454e-19) 519
(0.05548569252 0.0482511915 0) 487
(0.03660941849 0.09354060667 -4.33680869e-19) 554
(0.06779751163 0.1561119181 2.168404345e-19) 638
(0.05903871353 0.10898364 0) 577
(0.02656781811 0.09219976955 5.421010862e-20) 553
(0.01441567491 0.004747543749 -2.168404345e-19) 441
(0.000287370965 0.03199829265 -1.084202172e-19) 480
(0.06930984566 0.02826145029 -2.168404345e-19) 459
(0.05161370645 0.02194997035 -2.168404345e-19) 456
(0.06806397295 0.03382382761 0) 468
(0.002641703686 0.02900743436 2.168404345e-19) 470
(0.0323668537 0.01522519714 1.084202172e-19) 444
(0.02893737606 0.02537554248 -1.084202172e-19) 463
(0.07128152545 0.03576253277 8.131516294e-20) 469
(0.04489996904 0.01231258436 2.168404345e-19) 445
(0.05999691306 0.05550285492 0) 497
(0.0502929045 0.06268683699 1.084202172e-19) 506
(0.07611868396 0.05997529975 0) 499
(0.07290043836 0.08187989392 -1.626303259e-19) 529
(0.05606679583 0.04327001549 4.33680869e-19) 477
(0.06225134406 0.06496026122 0) 508
(0.0751038337 0.05216017295 0) 489
(0.06884025062 0.07460950928 8.809142651e-20) 519
(0.056813794 0.1208844462 2.168404345e-19) 587
(0.07189355602 0.0988720212 2.168404345e-19) 559
(0.07158477574 0.08115403995 -1.084202172e-19) 529
(0.06673768553 0.09739000814 3.252606517e-19) 558
(0.02998511477 0.1375206536 2.168404345e-19) 613
(0.07224987552 0.01974916524 2.710505431e-20) 449
(0.0001272913255 0.0460732213 1.084202172e-19) 500
(0.02261029064 0.03022114258 1.084202172e-19) 472
(0.04168461515 0.04544645097 0) 485
(0.06633401932 0.06694243322 -3.252606517e-19) 508
(0.06521687361 0.02551654166 2.168404345e-19) 458
(0.06412175421 0.02674002355 -5.421010862e-20) 458
(0.04445665461 0.01751359311 2.168404345e-19) 445
(0.03123928567 0.02210221439 0) 454
(0.05146543113 0.06009480925 2.846030703e-19) 506
(0.0510881764 0.06218737894 1.084202172e-19) 506
(0.02014492911 0.01037948371 -1.084202172e-19) 442
(0.00302072474 0.07295845058 0) 530
(0.07218665599 0.1099404216 -4.33680869e-19) 569
(0.06844751747 0.07912706563 0) 528
(0.04899853401 0.03002534882 0) 466
(0.07486932767 0.05234311829 2.168404345e-19) 489
(0.05087213815 0.1141161468 4.33680869e-19) 586
(0.0599172536 0.03731764881 0) 467
(0.05824530331 0.04770764912 -2.168404345e-19) 487
(0.06617483308 0.07695081961 -4.33680869e-19) 528
(0.06126613861 0.0262730727 -4.33680869e-19) 458
(0.05754622689 0.1086553126 2.168404345e-19) 577
(0.06471250673 0.1580854302 4.33680869e-19) 638
(0.06996457915 0.0973967767 -5.421010862e-20) 559
(0.05563019222 0.03733272941 2.168404345e-19) 477
(0.04954879376 0.09381117626 4.33680869e-19) 556
(0.06580718426 0.1057920285 -1.626303259e-19) 568
(0.04975873783 0.1336357639 4.33680869e-19) 606
(0.06961094763 0.06924470584 1.897353802e-19) 519
(0.06811123718 0.1495625652 4.33680869e-19) 628
(0.0464647273 0.0214280328 1.084202172e-19) 456
(0.07230350397 0.03824058325 1.084202172e-19) 469
(0.0648394414 0.0222967984 1.28749008e-19) 448
(0.06681670445 0.02351767633 -4.33680869e-19) 448
(0.06619421056 0.03706329615 2.168404345e-19) 468
(0.02221905383 0.02580784735 -6.505213035e-19) 462
(0.05875769485 0.03286583326 1.084202172e-19) 467
(0.04106503712 0.01371578873 0) 445
(0.02901432513 0.03040538115 2.168404345e-19) 473
(0.04444661721 0.01247509295 0) 445
(0.0631852036 0.02498858475 -2.168404345e-19) 458
(0.04032380976 0.01470757427 -2.710505431e-19) 445
(0.04469695464 0.0144759007 1.084202172e-19) 445
(0.06680360936 0.02206497652 0) 448
(0.06609839106 0.04583728509 -2.168404345e-19) 478
(0.06974975081 0.04783160302 0) 489
(0.06645985626 0.03666125169 -2.168404345e-19) 468
(0.07460711556 0.05301172536 -2.168404345e-19) 489
(0.0614888758 0.07115981578 2.168404345e-19) 518
(0.01636786527 0.05115320269 -1.084202172e-19) 502
(0.07533334716 0.02614777892 -2.168404345e-19) 449
(0.06519602863 0.04461311724 -1.626303259e-19) 478
(0.06419812969 0.07405707039 5.421010862e-20) 528
(0.02015145521 0.03478821952 -2.168404345e-19) 472
(0.05027743006 0.0276392939 1.084202172e-19) 456
(0.05066225858 0.0805660856 0) 536
(0.07152934358 0.04610494785 -1.084202172e-19) 479
(0.07309289198 0.1296025297 1.084202172e-19) 599
(0.0704513275 0.1409941969 3.252606517e-19) 619
(0.04856287101 0.1484906864 -4.33680869e-19) 626
(0.07495585294 0.1444864976 -2.168404345e-19) 619
(0.05696958552 0.04575966929 -9.486769009e-20) 487
(0.06500653231 0.02744637303 -5.421010862e-20) 458
(0.05274514725 0.031723732 -1.897353802e-19) 466
(0.04445340083 0.02730416421 -4.33680869e-19) 465
(0.01261564767 0.05411275576 -3.252606517e-19) 501
(0.04125230585 0.05661450146 1.626303259e-19) 505
(0.07476123275 0.07609610174 4.33680869e-19) 529
(0.0724363487 0.04725637788 1.694065895e-20) 479
(0.0429702299 0.06549701329 -8.131516294e-20) 515
(0.04782124897 0.03056026176 1.084202172e-19) 466
(0.03895612161 0.02340118506 -2.168404345e-19) 455
(0.0476299069 0.03957628058 -4.33680869e-19) 476
(0.03992934294 0.04022668065 -2.168404345e-19) 485
(0.06543185895 0.03327710469 -2.168404345e-19) 468
(0.03921248027 0.05038753583 -8.131516294e-20) 495
(0.0687589776 0.06595972712 -2.168404345e-19) 509
(0.07178236669 0.08821334258 4.33680869e-19) 539
(0.06504565287 0.02089360052 0) 448
(0.07034214286 0.05326265798 -5.421010862e-19) 489
(0.06794886256 0.06283928049 5.421010862e-19) 508
(0.0757210172 0.1092066052 -2.168404345e-19) 569
(0.01763573697 0.132898163 2.710505431e-20) 612
(0.06014232153 0.1451861916 0) 627
(0.06967774381 0.117023232 -2.168404345e-19) 579
(0.07563573918 0.108209849 6.505213035e-19) 569
(0.06218959408 0.1102242254 -1.897353802e-19) 578
(0.05979305636 0.1190593215 0) 587
(0.03621344677 0.1600570416 -2.168404345e-19) 644
(0.06667865859 0.1653510675 -6.505213035e-19) 648
(0.07169313797 0.1359727495 -8.131516294e-20) 609
(0.05692517975 0.01671425563 1.626303259e-19) 447
(0.04681323239 0.03712036395 0) 476
(0.05309888891 0.04646781866 0) 486
(0.03237670261 0.0481302589 -3.252606517e-19) 494
(0.07369626117 0.04282736422 -2.168404345e-19) 479
(0.03055588262 0.04774004501 -4.33680869e-19) 494
(0.07293488511 0.04687287588 1.626303259e-19) 479
(0.04347883302 0.01651283586 -1.084202172e-19) 445
(0.05451436586 0.02004047056 2.168404345e-19) 447
(0.03819197521 0.0138175982 0) 445
(0.05291989271 0.04586392778 1.084202172e-19) 486
(0.06730003763 0.04603855918 -4.33680869e-19) 478
(0.02579680214 0.03135963501 -2.168404345e-19) 473
(0.0710564668 0.05553096292 -3.252606517e-19) 499
(0.05844862002 0.04787899918 2.168404345e-19) 487
(0.06933913934 0.06397596458 0) 509
(0.06240708519 0.01910791209 -3.252606517e-19) 448
(0.03954545312 0.01709350947 -1.084202172e-19) 445
(0.06581172139 0.06387745767 0) 508
(0.05979399396 0.0397970755 0) 477
(0.03904785241 0.02614407595 0) 465
(0.04314093521 0.05805719078 -8.131516294e-20) 505
(0.06577521466 0.04141937424 -5.421010862e-19) 478
(0.06535725648 0.05832825291 -1.626303259e-19) 498
(0.05558800817 0.05883696024 0) 507
(0.0699219082 0.07814928293 0) 529
(0.04184484075 0.05624346476 -2.507217524e-19) 505
(0.05092777544 0.1034735694 -1.084202172e-19) 566
(0.07139183931 0.02291112278 -2.710505431e-20) 449
(0.05617985216 0.113674438 -2.168404345e-19) 577
(0.05634848716 0.06271840695 2.168404345e-19) 507
(0.06877683185 0.06093752621 -1.355252716e-20) 509
(0.06402490725 0.1063560172 -2.168404345e-19) 568
(0.03579316732 0.1032379506 -3.252606517e-19) 564
(0.05727741652 0.1396698408 1.626303259e-19) 617
(0.03719465208 0.1294640802 5.149960319e-19) 604
(0.06585763863 0.1513699381 0) 628
(0.05041698691 0.1528909891 0) 636
(0.03929876658 0.0273646301 -1.084202172e-19) 465
(0.05801351472 0.02202427455 0) 447
(0.05945479822 0.02020335387 -2.168404345e-19) 447
(0.05907640105 0.04868775582 0) 487
(0.07617475612 0.03996254714 0) 469
(0.02700371251 0.0410020109 -5.421010862e-20) 483
(0.04856403592 0.04607530884 -1.084202172e-19) 486
(0.03940956514 0.01446659532 -1.355252716e-19) 445
(0.03953633813 0.06747211291 -2.710505431e-20) 515
(0.06305549681 0.03455723429 1.084202172e-19) 468
(0.06267524258 0.03149074157 2.168404345e-19) 468
(0.05445134074 0.04532599287 0) 487
(0.05265029848 0.01465871145 4.33680869e-19) 446
(0.02942739698 0.01560924049 0) 453
(0.03994086524 0.0216249741 2.032879073e-19) 455
(0.05299528481 0.03141509794 4.33680869e-19) 466
(0.06362484675 0.1039551078 -1.084202172e-19) 568
(0.04803072266 0.05959380827 1.016439537e-19) 506
(0.06473285615 0.07216916334 4.33680869e-19) 518
(0.07500254023 0.08857832123 -4.33680869e-19) 539
(0.05003017332 0.07704325125 -5.421010862e-20) 526
(0.06366660003 0.06236073447 -2.981555974e-19) 508
(0.06223060409 0.1020306576 -2.168404345e-19) 568
(0.04703210701 0.1267219568 -5.421010862e-20) 596
(0.07328662379 0.07634969513 -2.168404345e-19) 529
(0.0654463585 0.1007864544 4.878909776e-19) 558
(0.05430778684 0.09601131192 4.33680869e-19) 557
(0.05597104928 0.1226730307 -2.168404345e-19) 597
(0.05461578275 0.1083874457 -2.168404345e-19) 577
(0.03685690155 0.09139385744 0) 554
(0.06497824001 0.115187207 -1.084202172e-19) 578
(0.05605635517 0.1334853075 2.168404345e-19) 607
(0.04015601991 0.0966724335 -5.421010862e-19) 555
(0.07571218622 0.1419378433 0) 619
(0.06261175904 0.1505555547 -1.084202172e-19) 628
(0.0674540089 0.1014245663 0) 558
(0.04650671252 0.1157065376 2.168404345e-19) 586
(0.07159171764 0.113576654 8.131516294e-20) 579
(0.05002214402 0.1477524059 -5.421010862e-20) 626
(0.07238500539 0.03785211584 1.084202172e-19) 469
(0.06200815823 0.04774177852 -4.33680869e-19) 488
(0.06903181823 0.04363657889 1.626303259e-19) 479
(0.01297723094 0.01298803806 0) 451
(0.06910536436 0.04772066811 -2.710505431e-19) 489
(0.07135897206 0.02691035447 -3.252606517e-19) 459
(0.01294424493 0.02487234106 0) 461
(0.05939889614 0.02862612664 -4.33680869e-19) 457
(0.006201505163 0.01212019165 -5.421010862e-20) 450
(-0.01876513967 0.03295958765 -3.252606517e-19) 97
(0.01637142318 0.03713987598 -2.168404345e-19) 482
(0.04965045906 0.02051054714 -4.33680869e-19) 456
(0.04997665493 0.06226928115 -1.626303259e-19) 506
(0.03097627365 0.01831391028 4.33680869e-19) 454
(0.05523370031 0.05428635805 -4.878909776e-19) 497
(0.06771632251 0.03129537374 -2.168404345e-19) 458
(0.0424904266 0.01898041793 2.168404345e-19) 455
(0.05361063226 0.04573938613 -2.168404345e-19) 487
(0.0263976239 0.03750576654 -8.131516294e-20) 483
(0.06065019491 0.02351486433 4.33680869e-19) 457
(0.07419965592 0.1184383017 0) 589
(0.0528646874 0.03104781836 -1.084202172e-19) 466
(0.06302941693 0.0190591802 2.710505431e-20) 448
(0.06641764855 0.06826201473 -2.168404345e-19) 518
(0.07282148373 0.1059295825 0) 569
(0.06399421081 0.02636151972 1.626303259e-19) 458
(0.07468252165 0.02588094138 4.33680869e-19) 449
(0.06707155009 0.0548522754 -2.168404345e-19) 498
(0.02838662559 0.0184958674 -1.28749008e-19) 453
(0.008282757447 0.01839223353 2.168404345e-19) 461
(0.06854018553 0.07489691206 4.33680869e-19) 528
(0.06428452886 0.02249894866 0) 448
(0.06034204355 0.1132272532 4.33680869e-19) 577
(0.07372503406 0.1128353264 2.168404345e-19) 579
(0.01590015679 0.08023804505 0) 542
(0.07105693437 0.0952936266 1.084202172e-19) 549
(0.06464813909 0.08380282232 5.421010862e-20) 538
(0.05650286554 0.07177589153 2.168404345e-19) 517
(0.06335567168 0.07807256113 -2.168404345e-19) 528
(0.05607483489 0.1003502206 0) 557
(0.0604853383 0.1075874992 -2.168404345e-19) 567
(0.07217907971 0.1043279941 -4.33680869e-19) 569
(0.0489673601 0.1385395119 -1.084202172e-19) 616
(0.04211214094 0.1015893412 3.252606517e-19) 565
(0.06916692497 0.1501156689 1.084202172e-19) 629
(0.02658610716 0.02687719372 -1.084202172e-19) 463
(0.07619614369 0.06122649132 0) 499
(0.06890964957 0.02796028701 4.33680869e-19) 459
(0.03882621306 0.01264637228 -3.252606517e-19) 445
(0.05123320994 0.02953723618 0) 466
(0.07059869566 0.06891778743 -6.505213035e-19) 519