/*--------------------------------*- C++ -*----------------------------------*\
| =========                 |                                                 |
| \\      /  F ield         | OpenFOAM: The Open Source CFD Toolbox           |
|  \\    /   O peration     | Version:  2406                                  |
|   \\  /    A nd           | Website:  www.openfoam.com                      |
|    \\/     M anipulation  |                                                 |
\*---------------------------------------------------------------------------*/
FoamFile
{
    version     2.0;
    format      ascii;
    arch        "LSB;label=32;scalar=64";
    class       vectorField;
    location    "0.001/lagrangian/dsmc";
    object      U;
}
// * * * * * * * * * * * * * * * * * * * * * * * * * * * * * * * * * * * * * //


6884
(
(556.8683829 550.6860624 -278.7764526)
(303.3371592 69.23787636 -283.7535135)
(830.4778715 511.8965311 448.1232286)
(96.58723095 110.9518259 914.6016048)
(1265.521021 588.7907648 -313.7989021)
(904.3497668 117.999499 401.0368427)
(113.7347953 839.7339165 -582.6110187)
(-56.5769867 597.548115 333.6312876)
(1627.841626 327.6628654 328.7390148)
(1494.425598 79.30139412 -152.9545165)
(1650.735015 196.7343053 658.7932235)
(836.5587949 -236.752644 931.8901966)
(-426.4160496 155.6061452 204.8166751)
(1095.736683 564.9840008 249.2815255)
(1.982007885 189.8363325 262.9776848)
(1839.985757 -127.3348499 -850.9892797)
(404.0178419 942.3250297 -740.5594494)
(366.4429079 1081.883022 194.1467492)
(155.3520385 -384.910844 -504.3244193)
(421.5238379 907.7645449 465.0801885)
(769.1556507 -434.2525503 -152.1302428)
(437.1467811 744.6980643 -91.60591512)
(1674.453112 937.7881087 -342.4903916)
(1802.410753 622.864438 143.2154592)
(-490.523539 985.2499391 -291.7421401)
(34.7021919 -166.7305118 121.5482154)
(169.2133584 301.0017615 -743.5052186)
(1220.248171 -103.4085072 1017.748347)
(628.7868025 1261.291741 -699.681722)
(-706.7638619 1213.237077 -137.9739993)
(1016.758849 1356.675481 244.9242863)
(1727.344049 540.4784152 426.0178097)
(539.1996463 301.7194371 -734.8480956)
(134.8972844 776.7219289 -400.7589736)
(409.467178 333.0727757 -309.0313509)
(288.4950916 -714.9033752 819.0549975)
(439.6112528 -86.03368052 815.924296)
(820.602759 102.0201511 -338.0867453)
(1338.525086 38.65361733 -319.2475621)
(680.5577667 614.2895172 199.4601971)
(963.7111005 1063.923957 -658.6046202)
(1656.420572 344.0315359 979.1814869)
(1715.666164 551.2049315 -18.70281289)
(560.5126614 962.9324101 -920.784992)
(541.290288 1071.323058 -314.0723948)
(1396.719701 1215.24878 910.977818)
(252.3027317 1177.879752 602.6651897)
(1134.537468 -103.3999314 143.4743117)
(-39.15496043 825.2558435 242.4265232)
(1.338473798 375.6452455 -154.4288964)
(724.5177651 572.1921793 -264.096954)
(-38.05011097 520.2274514 1415.497032)
(-275.1111895 -506.9786978 -44.23142523)
(851.6481458 608.887506 -280.9059465)
(1149.644196 624.2693546 100.8979352)
(-230.0867678 -317.4860109 -19.84399659)
(793.3330268 363.9527787 -675.7131779)
(1060.500551 -193.4067422 -182.0870472)
(463.6495843 255.7627966 1188.621521)
(1019.408524 1295.723834 334.2361645)
(937.4612742 879.4831775 -257.7182039)
(1416.471801 381.589187 588.4555185)
(757.1762829 185.8319486 -106.0160064)
(-213.2540527 -600.0207519 433.2560723)
(128.6882504 216.0490298 74.35724166)
(1692.545639 -28.98017635 4.727082457)
(-249.7536018 552.029001 593.7564055)
(258.8252914 639.0285257 613.2827953)
(613.4305739 1093.400055 659.1803673)
(1743.246074 810.1046257 246.7015494)
(107.8847003 46.51428134 113.4804201)
(1589.09351 559.9010971 500.1328785)
(327.2378763 1098.451587 275.2594723)
(537.3104845 83.15420074 576.0385872)
(-185.2774637 584.8552648 782.4546076)
(1727.169055 534.063286 -429.0569689)
(925.3941048 1025.145302 -139.2818756)
(794.6415148 1072.327779 352.3989019)
(1159.871653 214.9480991 13.7946816)
(466.4449383 315.9511601 -179.3235425)
(1214.697683 197.0889384 -574.7062307)
(-128.8831891 26.9883224 -285.6243004)
(391.7093297 962.4534276 -38.02218647)
(-383.2711 19.02314177 1126.956835)
(804.0968769 559.4523409 -17.20330081)
(648.643211 86.89820887 807.1766678)
(-434.4977689 249.9925896 10.03464154)
(-140.7826557 796.4784834 -280.4159639)
(-104.5285259 541.4756007 -348.2959528)
(374.2207943 26.4858507 545.963408)
(64.92233783 192.1419508 -446.5601973)
(141.571417 164.8239133 229.7560959)
(1313.510518 1068.057134 349.4668273)
(433.3506577 -594.6100637 -231.045203)
(915.3450353 410.765085 384.9376475)
(1730.201598 -14.62033733 -268.8415214)
(1974.548868 290.2390834 -282.478478)
(483.2566216 -345.888719 -219.590682)
(355.2737835 159.0881526 -886.6430235)
(651.4483101 781.5601866 -228.911999)
(1131.218366 507.0313287 220.3775144)
(1195.386812 695.8935464 732.4705058)
(1942.019646 480.8664514 702.7834068)
(1339.563575 438.710302 -317.44256)
(831.2709639 525.749987 1080.179232)
(787.8909589 -291.4769967 -647.2091764)
(669.2927098 -602.3846595 104.8880074)
(326.1316932 1317.540799 937.7620008)
(143.3741359 124.8108926 210.2433404)
(-127.4528834 688.3757295 169.156613)
(-122.0728301 -413.1164863 36.79889077)
(-13.06689671 210.507061 -255.9713727)
(128.7407232 487.9259891 321.4055749)
(1418.087843 598.0445613 413.6074451)
(849.2137103 -1125.091981 725.0412125)
(732.9826393 121.648782 281.0494394)
(1499.031343 190.522713 967.38808)
(970.3974772 147.0812295 1238.314175)
(98.36716174 238.9242543 -333.9684667)
(785.0068114 -113.0936339 303.75848)
(-303.7193104 11.05451203 285.1880763)
(596.1154284 321.2992835 -752.8724586)
(560.6419551 499.3717927 349.6177432)
(-676.4649363 640.4699394 198.4705093)
(512.6210521 690.0600913 436.5159104)
(106.2226743 463.9162141 -255.3839749)
(901.0701645 797.9473982 -1151.27815)
(-484.2180215 220.4229483 -393.0138948)
(390.4371009 587.4364522 715.0150436)
(936.5614242 1167.496423 409.4981725)
(1156.41184 -393.0144954 -704.8668194)
(214.0757494 -73.26205177 -777.9869701)
(582.149487 152.2013808 501.2187757)
(1127.601647 854.5564847 592.2041512)
(412.5315855 699.2715808 -322.2026109)
(627.003274 514.5846079 -61.02861535)
(713.6169842 956.837851 601.4629897)
(895.8675257 103.0829515 -728.7136187)
(1415.017683 926.0935294 -45.89762659)
(-207.3941766 -102.4903676 216.0504047)
(-473.1388174 451.7404901 -723.4739716)
(-235.367581 -473.9313519 -436.6215015)
(369.1102406 463.3552079 55.21294602)
(2014.675737 27.79320113 -191.1069635)
(1167.515524 507.524215 -670.4830823)
(-275.4317722 -439.5922329 637.7201052)
(1079.474936 14.42603738 365.8088031)
(868.4886233 409.7712893 -45.90737306)
(1338.070307 -302.3679291 412.5093067)
(267.5947536 480.0170168 507.640037)
(282.2850981 1383.023674 680.4120664)
(864.6361726 1223.821624 164.310792)
(460.3593869 620.5392514 314.4261911)
(923.9568509 316.6732951 533.5112502)
(1703.982696 1833.160377 -1086.872868)
(-46.33154584 91.03401015 356.0369804)
(40.35874291 278.7476157 -15.96015355)
(-155.0392464 23.41959184 1542.08356)
(-111.2325548 777.5992399 -82.09951336)
(258.5571925 191.354267 142.9396626)
(431.6368931 650.2299303 -20.71196564)
(-123.2452975 1044.142852 -643.137497)
(1384.897429 351.2949465 6.218374968)
(572.9745033 -661.3904799 -331.6975004)
(46.08796071 447.1807573 -214.8162888)
(-8.099823379 509.4396443 -222.9542233)
(330.9520782 353.7176514 396.0129792)
(682.0333436 -17.04836184 417.7696796)
(178.066947 -99.96215443 205.051811)
(35.05851422 -301.3927349 590.8874411)
(949.1089769 5.226682044 -231.3879438)
(652.7200626 257.1839491 29.15428153)
(406.7148229 1691.649531 -82.6998113)
(1954.145551 -210.8774433 317.019797)
(988.1799825 162.0708961 -71.6032399)
(-33.99337133 511.0876865 264.8258585)
(1942.627083 830.9883694 -542.1784764)
(523.725237 -91.50982989 -638.8129608)
(990.0122915 697.2526016 810.5656183)
(517.5005254 -222.3818682 38.94762792)
(639.063692 47.07039136 1385.391357)
(-309.505625 -189.7028134 -274.6522635)
(-76.51691655 236.5960278 -180.6003994)
(1843.120392 -133.1130648 26.18753757)
(1005.417168 -44.64996882 -679.4712976)
(-28.31164099 389.6597494 -802.5811463)
(459.3498662 619.9898045 -361.9243841)
(-934.3165346 464.2683801 339.7701266)
(545.9746526 189.6182009 -356.5601272)
(593.9551795 1235.676006 615.159184)
(1000.994064 594.4325889 128.0339272)
(456.8994058 -632.0288279 226.8740246)
(384.7569482 -303.5174287 24.14123194)
(1235.536564 896.5848546 745.336881)
(1845.825217 -378.5117903 -64.53443845)
(1500.133281 -211.2601478 267.5614266)
(719.2922461 1469.156211 -269.9730641)
(465.1594309 738.2014477 524.7330688)
(-96.51929196 -346.6341416 377.5814876)
(-195.9629759 101.6345841 -546.3604561)
(-114.5552777 524.9578159 720.7071983)
(1479.955487 10.39597188 -135.1106712)
(28.49652833 748.3145899 1839.152635)
(-1.197277016 673.2484544 624.3970696)
(1937.403161 -391.658508 810.6041362)
(-72.26347924 126.7951294 -70.87429408)
(1262.051388 -670.869847 -363.4927685)
(430.5272907 899.3280203 848.1695168)
(1480.350281 20.70483789 -327.2451467)
(1597.674058 203.0546756 27.49806249)
(589.0568371 -67.42018597 -775.6469515)
(123.2200137 571.6113551 587.1335969)
(598.6152074 316.4860957 112.7464739)
(1670.161815 962.8893921 -971.5027019)
(1162.250202 201.9494826 839.8091613)
(1543.953537 144.1765066 -280.2161535)
(-40.13472756 197.1524183 -186.6356413)
(1346.251979 1368.90975 625.8967391)
(1324.838093 -458.4844745 589.7150224)
(1111.059567 1180.089272 -518.3729424)
(1906.112652 337.0832027 -418.6534991)
(161.3787259 125.7077537 1131.559584)
(238.0728412 360.659774 321.6683126)
(-39.34677315 157.1062467 491.9832462)
(976.5301389 804.8798672 -64.18096046)
(1409.561438 1460.39061 -682.623621)
(439.254687 -296.1329318 567.7931177)
(600.4761552 338.6114923 127.4904427)
(643.0513014 -57.61684371 -844.9492289)
(1567.661191 23.01341915 -572.717408)
(1756.631952 -298.2053959 -71.64653)
(1598.95955 439.9144633 -117.5691072)
(1310.082134 109.6741042 266.1607431)
(842.2882322 548.2764143 -312.7337856)
(46.65380718 750.0723468 -133.7435148)
(1558.300965 536.2959363 -100.9436706)
(-52.29399614 386.3566317 -416.1998858)
(949.8617305 96.29460599 -32.56518957)
(469.95401 57.2505144 -390.0836481)
(-818.5573856 830.535114 80.52826985)
(1324.216447 597.2933174 -285.7837414)
(1502.11002 394.3057286 153.8673094)
(904.7949384 128.1149008 -622.751757)
(659.3069807 1039.641739 105.2477718)
(1822.596636 1048.159306 -528.7528929)
(1491.157044 391.5716702 237.7837148)
(1574.501855 -533.0019716 240.0651173)
(1099.463287 251.3269994 -914.0118716)
(1585.757624 676.9093233 -91.98996408)
(18.31044073 339.5143941 -214.0602845)
(575.8086127 1016.503093 -319.3810823)
(1515.847556 615.901892 160.8015575)
(1127.907031 582.6428223 120.3606086)
(637.0180987 -250.8074037 -111.378077)
(71.5179972 -111.3710414 143.1065182)
(1262.580035 630.8869894 -96.70065035)
(173.8898331 -270.0236948 -766.2204779)
(471.3097016 437.2914861 1288.427226)
(414.9060888 1095.950247 -121.6160295)
(-70.62103404 0.6882880039 530.3839277)
(1701.322263 75.11325018 -613.8521015)
(410.8749294 405.1429745 574.7250265)
(1787.138404 183.6636177 200.3889795)
(301.1290507 559.0823466 -987.4429947)
(-33.69748957 -27.73264297 31.14679695)
(1140.148636 108.1030183 23.29816078)
(2090.172127 715.0718444 717.544688)
(1264.450091 764.8909021 179.5552493)
(311.3467453 65.17804504 -419.795997)
(1097.332022 1088.751994 -667.3590852)
(677.0150753 -638.2523285 711.9926855)
(1543.333973 584.6633645 -248.7323307)
(-159.5618788 303.0852001 -809.5181872)
(1422.876985 93.59432441 59.53081757)
(1660.542133 -45.6839709 604.063114)
(-259.2417019 -444.3945771 -382.3472311)
(454.5610495 970.7009215 1171.939254)
(597.2973247 793.6393522 605.3281435)
(-254.2126485 472.9263787 -221.8750915)
(722.9838547 521.3333836 135.8918594)
(-504.7375694 410.0402197 340.4733905)
(1041.324709 1129.966125 867.8502753)
(-212.496203 587.8524544 -15.5736249)
(-212.4885647 611.6914681 -457.5197676)
(-409.4452319 416.7182264 770.7021835)
(14.57657038 -489.08452 -749.5035752)
(1230.916084 122.99163 517.1226892)
(1190.28894 -249.1075721 -480.1076692)
(682.9187364 707.6810511 -436.4313234)
(-645.4792945 393.1035264 -153.8044738)
(1993.546392 842.6530867 367.1491553)
(1505.122882 171.4546856 -139.7644237)
(1137.02356 297.1815241 -316.0298032)
(-170.9292575 775.8537903 -102.5762311)
(242.2672813 351.7128841 151.0744483)
(791.921584 -391.5021961 -227.0527944)
(-442.4863819 -124.5753694 455.3945039)
(1790.223879 337.6892839 -575.4702638)
(1223.993852 -934.3974737 554.146768)
(832.0532227 727.1071345 804.858478)
(581.0343775 855.1915793 -254.823465)
(-739.8115579 491.3022252 -569.6479153)
(356.0268742 706.1339572 -352.8212111)
(-152.8381101 153.745091 134.0214797)
(771.2039209 -607.7867038 157.077601)
(372.4677069 1425.806501 -204.1796295)
(1431.245632 305.6892491 -283.5989808)
(1440.411786 807.6135349 -117.7283693)
(1346.955401 277.7067644 -57.23967209)
(-101.7892765 251.9387369 294.0980831)
(1011.381936 -490.799196 -451.6789957)
(1770.367899 383.1912091 525.4985269)
(678.9889441 -501.3822112 344.8630641)
(504.6812988 611.2431245 -959.0404886)
(312.145675 586.3430464 -652.1083498)
(907.2624352 172.6803511 485.3261728)
(1292.936729 912.6311276 224.9958396)
(-200.1278263 482.5062749 411.5945597)
(247.0835561 -35.00531207 -1441.415679)
(787.9279298 883.9187989 320.4563795)
(1265.634378 197.5653085 127.6210162)
(1880.362535 93.77202355 39.15844207)
(97.97034455 978.4506558 -181.8738305)
(404.2924617 -878.6683198 -120.7118042)
(900.4982372 506.6471773 -208.3401858)
(897.4405005 -617.1560983 245.9685743)
(329.3728602 -383.136254 1524.928945)
(1203.744232 -68.17571433 -86.85984375)
(1864.283047 -371.8460944 -720.7344691)
(713.6349148 321.6307301 -97.67530683)
(1668.156218 495.7611821 311.26831)
(1470.231092 -257.9707933 157.3969437)
(858.7297614 702.6228808 -370.6891916)
(375.3209726 4.06421012 -212.299546)
(1475.550111 -405.9573975 -167.7996126)
(1831.837192 33.26801581 46.93601157)
(557.9326609 167.9844944 417.3367101)
(459.5085311 -91.96915587 -359.5099727)
(567.6670761 665.3868777 -756.6950703)
(998.5148373 305.7260731 -170.1470168)
(201.8588805 164.6273777 -126.0635748)
(1317.057028 -474.9005225 -307.6050921)
(778.4592787 907.6471844 -530.4817056)
(1660.850029 -229.8975347 -41.79799014)
(800.0222099 -14.70855349 -445.3465379)
(987.8738045 -485.9750628 390.8571513)
(956.9489622 657.311229 522.9971061)
(-225.2913893 131.3426169 743.3700493)
(1509.857109 -66.74660646 -143.8160817)
(1465.271941 -199.1957622 -593.9379273)
(1356.896397 0.07686049778 -270.6733204)
(2151.812184 22.45029155 272.3806901)
(1492.755715 -276.2617392 177.6914543)
(1484.083097 72.38556694 -176.5390466)
(60.55079948 619.4253171 -53.78699792)
(598.1770844 -231.5636544 174.9232289)
(964.5427071 1414.118548 -304.4336399)
(1608.945542 -640.4123976 -229.9159073)
(754.6073865 274.4865329 596.1424776)
(1090.735412 -83.77185884 -142.299548)
(-4.384226619 95.13650128 43.84648395)
(1454.905496 973.2917773 384.0903886)
(50.83118001 977.0584217 -494.2902761)
(452.9828939 -105.2513201 -72.12644624)
(-292.3676606 172.0070872 605.8661442)
(-419.8027669 668.0537624 1081.937847)
(30.34019992 121.268748 843.0300918)
(793.738045 838.6700977 -200.1031691)
(39.01402641 1047.321186 -60.45223341)
(687.9337449 864.4158085 -285.5471224)
(149.832047 -162.3625211 83.31065002)
(654.2632156 366.7369032 127.5454588)
(1813.943851 102.0157605 -15.15808734)
(566.373776 -97.05569785 331.3235318)
(-263.5020195 24.15237996 -195.0233511)
(1082.984321 -19.43997385 -631.6812455)
(1804.762315 -326.0141013 -184.7927428)
(851.5463234 162.4683303 344.5172943)
(1103.64084 329.4114365 1.089155623)
(1100.514446 274.7614855 -170.3392795)
(516.7888361 254.009048 -760.5717926)
(970.707437 44.241233 30.28018489)
(1428.536924 111.3116 -101.7026979)
(1509.74803 256.9569807 -191.6974103)
(1429.616174 22.35127779 -151.1970137)
(45.15559884 421.5625832 -165.9033764)
(980.6749046 -181.4875888 988.9150629)
(1149.764184 409.600494 -348.7250332)
(308.1335863 394.8972877 314.5349514)
(812.3633008 524.2772153 -83.24921054)
(700.5071383 382.7097896 -69.20830593)
(261.2635289 290.067466 1369.916151)
(218.2797256 276.1662346 -595.6694689)
(253.5454769 799.3400952 -22.41543444)
(-160.125544 -88.86873313 -210.6919661)
(1359.351149 -4.473892393 623.6387477)
(1258.501603 652.6326464 638.1466648)
(659.5249678 526.6394045 -412.5597471)
(1268.180933 417.1690556 -167.9029582)
(1397.399327 -329.0770631 146.7613221)
(2279.633841 118.2376204 99.4076257)
(879.6705122 286.3924545 -534.6990395)
(1481.648997 587.5111359 395.5661516)
(1365.400627 -32.95490415 213.143837)
(1300.592827 -33.094268 -104.0427052)
(1940.859843 5.788963023 -177.1603242)
(1161.229019 182.8616099 -356.7852255)
(1719.738988 116.9035069 743.217284)
(-36.96176181 124.1798004 426.4523999)
(233.7863345 812.4309187 -155.4657494)
(679.3244307 181.1543329 701.1087471)
(2424.530236 115.7816207 -323.3630362)
(1089.785521 536.4735422 360.5602459)
(-56.90972005 671.9411279 -122.1815161)
(990.0874139 261.9598112 -1043.561252)
(242.1888115 -361.5783955 332.5034758)
(329.7655915 574.5762926 -348.2401285)
(1534.313379 -360.5488013 -305.6128807)
(578.3770984 334.5813697 87.51164151)
(719.9763892 1396.123263 -132.7762629)
(706.4785726 963.346682 -548.096125)
(1538.401753 444.3632315 -253.5205778)
(1114.372811 -343.6257238 -305.4943312)
(-83.66152611 -126.5386941 -860.5987986)
(591.0453629 -638.122155 565.6109389)
(1082.217217 1010.89282 -194.1329097)
(1359.353423 -295.2396569 468.6323814)
(1660.018675 93.90983741 -292.2071132)
(1527.925585 521.6574565 -214.9220566)
(1565.577839 29.14068598 -458.5871529)
(2132.034799 62.83200402 222.9977117)
(655.6075569 -217.0699145 129.0219236)
(1557.524641 94.88941068 37.19360219)
(1699.939474 510.3587843 331.1218445)
(1310.490042 -153.3540487 -223.3316753)
(1477.719137 668.8649164 196.124633)
(1287.781751 220.8378322 -167.6823352)
(1328.788681 -258.6623511 -138.6677566)
(1529.210337 276.0701794 45.27953756)
(350.7280819 224.5506614 -299.8843717)
(501.737537 -164.5093944 -661.2533465)
(-347.5671251 497.4041929 -733.0821272)
(996.5273734 -218.9576663 114.5520448)
(1253.933173 -104.3735613 -321.3206159)
(-373.3124805 701.3920222 -45.31219025)
(744.8241709 321.5008331 -13.16926465)
(287.0270039 -220.9782402 -69.7493617)
(887.6822229 558.6213116 -335.4276016)
(922.0828232 -356.7759372 758.6336328)
(932.9753262 581.5905843 -181.2996374)
(363.6541561 255.0089727 90.93454243)
(-108.5120419 170.3685156 433.5965652)
(124.169665 -58.73722937 -431.477953)
(754.6078032 -453.4918336 341.8422984)
(1841.275851 223.7487149 124.2449526)
(1092.344207 -745.4503035 -689.1757868)
(1712.712082 1243.007522 462.9615209)
(1250.733569 579.4653222 -223.6967588)
(1124.78268 464.9987708 234.5566557)
(108.5924059 62.89135715 892.2122976)
(289.6132251 269.8859004 -713.85078)
(1173.838326 79.23897262 -583.8214495)
(-79.25314073 113.2466945 85.69389554)
(-31.11063844 527.9063703 -260.1557314)
(1822.158521 -40.37343206 -118.8103654)
(854.2552897 61.33273148 -545.7338971)
(1136.330481 36.05095684 327.8648758)
(1103.520877 464.0077009 317.5919135)
(1199.138698 526.8883806 18.70159001)
(1532.452451 1042.198797 -422.2986846)
(812.1571876 408.4524452 -913.4727426)
(-134.5094522 395.0872251 427.8708557)
(177.5397343 578.4727718 -1355.997058)
(321.7486003 446.4944038 358.908157)
(832.0494076 336.2181794 457.5045894)
(1284.223458 54.49533882 -165.9727197)
(1582.021556 939.5858864 -384.7208825)
(1416.718725 859.9331553 479.8114526)
(1125.401965 1384.864282 661.1812437)
(647.2108931 -581.3202687 -502.632173)
(1325.96156 -194.5611612 223.3413479)
(1551.621135 163.1379534 324.145652)
(2066.564036 64.15176612 -72.34901758)
(931.421409 205.7043225 -887.3704438)
(1672.304588 204.6425208 328.901237)
(312.795521 608.1142171 886.7526992)
(1560.842756 322.8982104 114.1432156)
(-23.83227359 70.68940214 -1240.236913)
(1144.064886 970.1500762 -329.0157773)
(1357.931513 894.6389675 661.4167015)
(1429.387102 38.54271095 -374.0663873)
(1935.562243 -139.9639837 74.00287571)
(1265.250811 181.5303334 115.9512062)
(1577.21765 -184.0081925 23.08464421)
(1859.657265 -445.9886933 -115.8825349)
(1862.73336 36.54120908 -151.2147049)
(1041.091799 -180.4713166 53.34670697)
(1388.076924 322.6270937 172.8510935)
(1431.452744 483.2890915 655.3190785)
(1685.425278 -209.6048378 135.4139805)
(-398.8619796 -108.43931 -257.0863832)
(-22.79716295 106.3221041 701.887418)
(591.3026267 1151.973177 -80.59257083)
(1304.225872 421.0985809 1028.272189)
(1466.411364 -517.895589 155.8753884)
(371.7311149 891.5596129 -500.1056165)
(1241.645204 217.5973094 243.7890464)
(173.3211291 1014.174344 -182.420492)
(-62.79906386 -7.334888257 826.5796294)
(925.4058741 32.72783531 757.1044261)
(461.2509905 622.0549861 -222.3048357)
(927.0724714 421.0378791 145.2954617)
(-181.820374 1034.302427 1065.90823)
(1399.62017 537.9485209 -11.64036638)
(301.5980886 623.3820909 -525.0184714)
(1486.325365 1382.139547 10.9855061)
(733.0145908 207.907603 -456.1706831)
(215.9569677 291.0616277 204.8160397)
(469.9081038 934.4814464 -346.1530039)
(878.4446437 873.0711167 421.0969255)
(565.6589768 442.2263832 29.02077591)
(-262.25992 -279.3463708 410.9440727)
(1558.537248 -80.22507152 -432.2476105)
(1261.270595 160.2504194 -308.1127302)
(125.1582004 303.6413784 -188.6761099)
(1665.165711 -105.3262002 -230.5662172)
(242.5454414 597.5636123 107.5566718)
(1483.665668 -111.3289457 618.1907619)
(286.5370985 760.1375294 226.0081264)
(1618.600723 161.45846 316.1574042)
(1592.09744 -156.0522431 402.1545283)
(163.478948 -542.3474179 223.0475676)
(1381.762281 55.11557905 -433.5924854)
(1336.195287 -87.92180773 169.7014307)
(1656.830436 146.8953489 -186.4446425)
(1358.193373 -423.5594588 -68.85729816)
(1381.770141 -68.30749244 -106.8699876)
(1186.679414 97.14517303 -90.69948924)
(975.4065072 239.8643722 413.0101298)
(1131.925701 -221.3201868 -216.0213761)
(-754.0655428 -240.2283962 -387.4151762)
(1358.683066 916.4833013 -39.19775232)
(1187.886592 562.2417035 -717.9947551)
(474.2954926 1050.631886 -767.6563528)
(1080.381791 135.2317679 251.3062381)
(858.4077729 -463.6604033 -187.4304407)
(1678.600213 426.9991041 -179.0344602)
(787.8510496 318.3708285 1051.732689)
(1725.377179 688.6883941 442.3787648)
(872.1209952 776.0793622 -462.7337119)
(33.681083 19.35568265 -1038.263016)
(1069.336344 -630.4942643 381.7452502)
(1262.30606 -611.463126 -679.696472)
(512.3395773 -57.71697461 407.1685798)
(1438.701416 -49.95237103 -37.60824551)
(1530.681444 62.09808165 -262.0481822)
(12.10845118 1088.147707 500.0010512)
(1523.195393 167.6051562 67.27847627)
(490.7455261 1143.200029 -292.897778)
(1317.146268 -35.19466596 35.20785986)
(1514.160998 -382.6987088 310.8932711)
(1668.041704 190.2053204 427.7153186)
(390.0902331 274.2642803 -187.9436178)
(1636.880798 128.1973036 431.8185941)
(1448.439918 -157.5644294 21.00578644)
(1441.709724 185.2873137 -126.8704341)
(1658.833583 61.7708479 483.3848031)
(1581.090686 -344.9605945 296.4400483)
(1502.828932 -0.8522473732 -168.0890923)
(1510.698226 192.0501426 -252.1876058)
(1252.857228 -161.3585172 -24.85690754)
(919.2009769 174.3909757 846.7510769)
(1806.594809 355.8747364 -231.7424891)
(1466.132971 -219.6977486 -374.7130376)
(1705.227746 -52.79469409 -487.7766801)
(1336.240752 496.2941196 107.011106)
(1468.506037 -151.7706623 212.4034192)
(662.1183432 299.6198685 -80.76201866)
(1128.625858 658.8204036 -228.5552252)
(387.7919265 4.639475232 -43.65125508)
(64.140772 357.2342812 265.7638883)
(-31.58841761 482.3158426 -214.8319879)
(1586.814273 -361.4676897 -1586.04506)
(1255.926186 141.1138906 -61.72718825)
(1744.569391 637.8677917 471.7778093)
(99.08044055 237.0093555 532.2323495)
(1450.1075 -68.17187356 528.0117522)
(1095.07776 97.28294452 -664.4493065)
(329.8010071 922.975708 376.1361091)
(1691.752545 743.6765357 491.2127808)
(156.0764402 1371.753715 732.2515731)
(1551.764948 626.6360358 216.0894609)
(1441.505737 -145.5412298 -748.2915432)
(233.0326546 379.4757329 -590.8454983)
(1868.986591 527.7305349 -759.9066043)
(403.4570595 634.1426247 -257.7468562)
(551.0553076 264.851057 -710.3714398)
(1443.986321 915.7420479 379.5958118)
(-82.20166666 515.7662458 1145.391574)
(500.1672359 384.1203687 208.8115855)
(1383.916085 -169.8403889 -197.2363755)
(1982.536282 -66.53264735 233.0797996)
(835.9554191 -6.426751156 -324.1233734)
(1173.456207 -710.5501173 514.9564506)
(-79.20109067 64.60743641 345.2316538)
(1208.004946 966.8706307 -534.3399309)
(1760.770513 148.2761376 -654.3355149)
(615.9137334 1055.291458 -785.189021)
(1103.023137 538.5054842 774.5643935)
(1549.06644 139.2606412 15.93935251)
(1434.853969 -1.473530024 -54.39380729)
(1146.251357 -249.4540018 2.853085044)
(1603.248452 167.9796209 160.7773319)
(199.5078885 755.4986861 154.6723101)
(1089.081232 283.1804923 -450.7866621)
(1655.666839 -325.6162804 -135.578818)
(1852.656701 217.6408582 -289.5317645)
(1137.654101 190.3169911 74.48464859)
(1065.964283 484.2332002 -352.3875981)
(1357.626213 191.1427591 -248.69307)
(1483.25426 -317.8618282 -107.5142707)
(2008.157026 248.4272742 -134.7695904)
(1918.478629 -450.8821038 -23.71976562)
(1830.227829 629.7703344 -739.2396972)
(546.5210365 -22.52239719 273.8145759)
(203.7668344 -483.4890073 142.7822704)
(1406.01403 180.7311203 112.362861)
(1257.172424 1326.243189 -512.6771549)
(1733.352026 751.0341173 -133.0441594)
(1528.730946 893.4425018 1199.313706)
(274.1317106 -1.670394044 75.21621375)
(1423.198197 663.0805912 -313.4453985)
(1545.783755 593.6234505 462.7410283)
(743.0917502 562.2797926 1009.531721)
(725.4900487 1142.094337 -558.219327)
(2.82388294 716.3407062 -583.2695229)
(1402.159667 1388.889441 244.7159307)
(1519.551703 -161.9895147 212.3694516)
(709.6521702 291.4688416 -237.0080398)
(2427.718774 554.2192718 -568.9323434)
(1153.947353 -299.1662552 -224.0964289)
(1879.789927 384.6018337 -430.3060606)
(892.6072379 605.9022448 -412.2619183)
(2146.731257 765.8752936 833.4891631)
(1228.873713 1289.720373 93.59012378)
(1752.933171 413.1441093 741.8070348)
(1088.450941 638.103731 106.4933822)
(749.8429276 754.8400555 -528.8922581)
(730.5858262 -354.3866439 322.1962734)
(984.0086212 652.1037549 -7.532921784)
(1151.976176 280.9545228 29.89890637)
(1448.430574 517.4992805 -109.7984431)
(1549.959243 51.35494235 34.46949409)
(1115.102696 367.8442663 299.1913003)
(1521.788899 289.5871093 -556.8980947)
(1687.278878 119.3638108 223.4561451)
(936.1510442 -328.0990518 201.6518986)
(1222.135789 71.47773061 128.425306)
(2037.447958 89.5323846 -371.7878085)
(1815.482858 224.1033551 -782.7373797)
(2080.755901 230.4069474 150.52107)
(1341.338472 -407.4504869 223.6400313)
(282.815556 702.393418 314.2254749)
(1559.338278 -279.9351672 542.1078508)
(2088.196777 265.7720059 386.057602)
(1001.233373 167.76973 427.3106795)
(1623.330152 -249.8509039 362.6050352)
(1247.817011 -138.6554381 48.97897352)
(1470.71822 34.07112926 -128.3898975)
(1559.286481 -33.69311313 495.6971268)
(1430.287157 -245.9325617 -353.562987)
(2221.616601 -6.941729143 295.2924101)
(1104.07257 84.96721164 -248.1171488)
(1667.354408 -471.416034 -246.6553641)
(1274.53751 642.0055891 -202.4600726)
(1814.352829 -476.8418168 -654.2338327)
(1444.459424 -176.089233 -349.2849467)
(1644.861293 -339.3841078 -83.14086904)
(1947.761516 -325.0020854 -446.1969462)
(1159.088942 -216.5458678 -251.4123529)
(1616.913449 49.30072066 195.7889289)
(1253.363732 243.9796809 -274.9762288)
(-414.8363238 834.4712995 -599.6269828)
(378.5544775 554.6571175 284.741088)
(492.0909657 -599.1076799 -654.4883508)
(284.738535 -479.7447735 -842.8324537)
(846.5434433 -547.8080895 699.0032982)
(750.6718889 618.7557246 -557.013639)
(793.7365566 356.289744 -92.65048971)
(1396.580668 615.7307112 583.603841)
(1245.845709 756.6932856 165.4186593)
(1348.356289 867.5411664 -729.9822014)
(411.8200118 -854.2960651 646.4856157)
(898.7682628 102.6150688 350.4525909)
(1692.536148 400.6827891 -251.7310091)
(1238.334455 913.0492553 -502.3753864)
(-188.4046636 246.3989027 43.75509205)
(543.1351054 -67.19560783 -202.9079685)
(1970.220037 533.3679378 -141.2354547)
(430.4102536 -172.2689947 -197.3939076)
(-362.1391763 458.2764496 130.756326)
(895.0482824 -28.6651734 -626.1250521)
(927.208276 479.4951655 -292.9970939)
(703.0978176 520.6803577 -866.2639726)
(670.4851265 -153.7204131 -1023.916997)
(2066.495938 64.74936305 -328.6018537)
(2156.759662 507.5249766 -7.856191839)
(1194.490312 57.39957405 -335.8142757)
(743.1607824 788.7783647 -1100.903795)
(1144.572271 -98.07636192 300.9257361)
(2146.670116 971.9786023 748.9865476)
(1082.07154 -141.5517436 -534.1948622)
(1064.538764 160.8820189 763.0882327)
(1076.545274 1607.551456 -57.96677449)
(1564.315984 -343.2218179 9.888518451)
(1550.242415 232.9631103 267.3489107)
(1831.006553 -110.2628676 461.4487395)
(1752.013716 -270.9182407 313.4558423)
(1727.077971 -596.9099425 -40.60243064)
(1469.969455 396.4334326 -11.03969873)
(1581.226068 246.3572169 -143.3691141)
(1306.876077 -418.2094515 -275.918063)
(2205.314644 443.5998441 204.1560091)
(1595.980892 203.7756252 -611.0822213)
(1479.599772 5.451490705 291.6261448)
(1868.092748 -622.9714414 215.1474442)
(2055.01202 190.1629421 -413.6003316)
(2113.258343 -161.000036 -576.2338982)
(2088.456506 68.25045466 -665.3847966)
(1906.197135 217.8630519 70.49191713)
(1588.347572 -184.7470552 -133.2166513)
(1445.909698 -281.1914686 -133.6721184)
(1743.157742 -210.9710221 -329.2889165)
(842.0871492 377.9508421 308.9273975)
(509.5696892 454.0125718 -133.6681385)
(1007.558136 -120.7985421 -677.1685123)
(1243.937226 -1070.542229 -431.0428521)
(1560.369275 316.8965271 -399.1928879)
(2012.077939 553.7696725 -977.2616779)
(63.1195888 -60.53318609 1304.168276)
(1595.424924 311.2175887 -286.5158198)
(1059.508825 79.79719892 108.1636271)
(1343.867283 173.8434567 618.4061587)
(-214.2545398 32.88273437 133.3529397)
(1743.259929 -85.11363028 -431.4982348)
(1308.098366 669.761111 -289.8339677)
(2066.701335 -38.75664928 90.05419535)
(-205.8371801 -315.1785833 -453.200387)
(156.2459495 -36.06067125 -136.461066)
(192.0324999 668.6306685 -251.4746118)
(886.8064577 824.2333988 38.76698182)
(1887.383847 65.48581251 115.5228799)
(1786.89104 328.6036571 -188.9275676)
(583.978075 -359.3367343 155.6518354)
(1581.36763 371.6637631 -117.1245895)