/*--------------------------------*- C++ -*----------------------------------*\
| =========                 |                                                 |
| \\      /  F ield         | OpenFOAM: The Open Source CFD Toolbox           |
|  \\    /   O peration     | Version:  2406                                  |
|   \\  /    A nd           | Website:  www.openfoam.com                      |
|    \\/     M anipulation  |                                                 |
\*---------------------------------------------------------------------------*/
FoamFile
{
    version     2.0;
    format      ascii;
    arch        "LSB;label=32;scalar=64";
    class       Cloud<dsmcParcel>;
    location    "0.006/lagrangian/dsmc";
    object      coordinates;
}
// * * * * * * * * * * * * * * * * * * * * * * * * * * * * * * * * * * * * * //

6872
(
(0.002937353987 0.498531323 0.4117877888 0.08674353424) 448 874 2
(0.3234183659 0.3382908171 0.1753204812 0.1629703359) 494 963 2
(0.04853684958 0.4757315752 0.3135456671 0.1621859081) 457 894 1
(0.4106785017 0.1483915317 0.1462692175 0.2946607491) 449 2616 1
(0.370274451 0.1122523077 0.3148627745 0.2026104668) 619 1201 2
(0.4720719151 0.1621168887 0.2639640425 0.1018471537) 449 876 1
(0.02292581738 0.4792953608 0.009241730532 0.4885370913) 516 1005 1
(0.2927376023 0.3536311989 0.1535910449 0.200040154) 526 1024 2
(0.03910988177 0.4804450591 0.1831776341 0.297267425) 489 2620 2
(0.3782167824 0.2912708568 0.01962075206 0.3108916088) 577 1103 2
(0.5963714289 0.2018142856 0.1126091977 0.08920508782) 468 912 2
(0.38042022 0.02648768435 0.2833022056 0.30978989) 446 1304 1
(0.2771852795 0.1043486037 0.2570587565 0.3614073603) 458 877 2
(0.08973590217 0.3029271206 0.1522049283 0.4551320489) 468 896 2
(0.2814709452 0.3592645274 0.3092019252 0.05006260226) 487 950 2
(0.09645429853 0.4517728507 0.2413972576 0.2103755932) 469 914 2
(0.285961895 0.2983598679 0.05865918456 0.3570190525) 479 2619 1
(0.09762804546 0.07712736314 0.3740586141 0.4511859773) 447 1305 1
(0.05380472858 0.4730976357 0.4158900203 0.0572076154) 478 934 1
(0.1619598155 0.4190200922 0.3570236404 0.06199645182) 478 933 2
(0.6669288525 0.1614850785 0.1665355737 0.005050495239) 482 941 2
(0.0324020625 0.2754508843 0.2083480845 0.4837989687) 453 867 2
(0.514559802 0.242720099 0.1560523364 0.08666776256) 459 2617 2
(0.1415233052 0.4196125121 0.009625835362 0.4292383474) 566 1100 1
(0.2436489784 0.3781755108 0.2742522576 0.1039232532) 477 931 2
(0.08148030247 0.4592598488 0.4430421776 0.01621767112) 478 933 2
(0.5548271749 0.02338426611 0.2225864126 0.1992021465) 478 931 1
(0.3545001823 0.3227499088 0.1076855341 0.2150643747) 446 873 1
(0.8834367888 0.05828160558 0.033745972 0.02453563358) 486 948 2
(0.5840645708 0.06417751315 0.1437902015 0.2079677146) 468 896 2
(0.1749337011 0.4125331494 0.39596727 0.0165658794) 487 932 1
(0.1520601603 0.4239699199 0.2697957943 0.1541741255) 488 950 2
(0.8747402327 0.06262988363 0.02577631326 0.03685357037) 446 872 2
(0.2114776303 0.3942611849 0.05307215823 0.3411890266) 477 913 1
(0.5215914184 0.2392042908 0.1300384704 0.1091658204) 448 876 2
(0.2488682473 0.2971697527 0.07839612359 0.3755658763) 478 933 1
(0.06480604415 0.4675969779 0.07015648743 0.3974404905) 467 910 2
(0.0271318288 0.2104962686 0.4864340856 0.275937817) 487 951 2
(0.2540951649 0.2867101361 0.08624228142 0.3729524175) 479 916 2
(0.03767721618 0.05040673026 0.4307546617 0.4811613919) 458 877 2
(0.6592442683 0.05626880636 0.1703778659 0.1141090595) 458 893 1
(0.3370528749 0.1830439316 0.148429631 0.3314735625) 499 954 2
(0.7269791224 0.1365104388 0.1315159321 0.004994506746) 466 911 1
(0.3504877446 0.189903951 0.3247561277 0.1348521767) 445 868 1
(0.4023387694 0.001978101361 0.2968525139 0.2988306153) 503 980 1
(0.08715108215 0.4564244589 0.04674421631 0.4096802426) 448 876 2
(0.0278558411 0.4860720794 0.1812837345 0.304788345) 456 892 1
(0.211187784 0.02832595742 0.394406108 0.3660801506) 454 888 2
(0.4460755478 0.2769622261 0.2178869481 0.05907527804) 507 988 2
(0.2486183798 0.3459828319 0.3756908101 0.02970797822) 478 931 1
(0.02459675404 0.4008567741 0.08684484887 0.487701623) 453 867 2
(0.1927542308 0.4036228846 0.08914543442 0.3144774502) 454 869 1
(0.2419803259 0.2122434575 0.379009837 0.1667663796) 478 934 2
(0.8280402091 0.08597989543 0.01469696711 0.07128292832) 458 895 2
(0.0305722122 0.4847138939 0.4415123399 0.04320155399) 475 928 1
(0.5373088019 0.231345599 0.01888918727 0.2124564118) 455 890 1
(0.2692146003 0.2006476867 0.3653926998 0.1647450132) 514 1002 2
(0.4833218104 0.2583390948 0.08165609947 0.1766829953) 455 889 2
(0.3185330263 0.2554017727 0.08533171418 0.3407334868) 467 912 1
(0.5016808297 0.2491595851 0.1111204838 0.1380391014) 456 892 1
(0.6341894184 0.1696162578 0.01328903302 0.1829052908) 447 1305 1
(0.3388206251 0.3050380892 0.02555159827 0.3305896874) 456 873 2
(0.3979202016 0.3010398992 0.03907113594 0.2619687633) 459 2617 2
(0.1537854894 0.2409767725 0.4231072553 0.1821304828) 459 897 2
(0.1574072325 0.4212963837 0.079272715 0.3420236687) 448 874 2
(0.007011610542 0.068793303 0.4964941947 0.4277008917) 519 1009 1
(0.6524451291 0.07785260509 0.09592483034 0.1737774354) 529 2624 1
(0.5973266001 0.1254469005 0.2013366999 0.07588979941) 493 959 1
(0.2785851084 0.166817967 0.3607074458 0.1938894788) 452 881 1
(0.1554773025 0.4030752311 0.4222613487 0.01918611767) 644 1246 1
(0.1285516698 0.311339143 0.4357241651 0.1243850221) 476 930 2
(0.1686202633 0.2965648041 0.4156898684 0.1191250642) 479 933 1
(0.08312468266 0.4584376587 0.04439948317 0.4140381755) 489 954 1
(0.09494185751 0.4086359701 0.04389310116 0.4525290712) 466 892 2
(0.07283268052 0.3670900539 0.4635836597 0.09649360588) 445 871 2
(0.4848729457 0.2575635272 0.01187943401 0.2456840931) 447 1305 2
(0.5438285868 0.2280857066 0.02960649879 0.1984792078) 477 932 1
(0.664322977 0.1678385115 0.01800172615 0.1498367853) 508 991 1
(0.8999986838 0.0500006581 0.03722720667 0.01277345143) 499 973 1
(0.1111854085 0.1961024258 0.2483048699 0.4444072957) 453 885 1
(0.2975837192 0.02186701246 0.3293411279 0.3512081404) 506 986 1
(0.4151945488 0.1088956734 0.1835070522 0.2924027256) 506 968 2
(0.7695452901 0.1152273549 0.002399172301 0.1128281826) 448 874 2
(0.3268220862 0.1263803721 0.3365889569 0.2102085848) 488 953 2
(0.9063850653 0.04680746737 0.0432694275 0.003538039869) 449 1307 2
(0.2171131385 0.3914434308 0.04282923873 0.348614192) 448 876 2
(0.2065016929 0.1221268751 0.2746222784 0.3967491535) 459 2617 1
(0.3244709673 0.117644671 0.3377645164 0.2201198453) 469 914 1
(0.2082356065 0.26481509 0.3958821967 0.1310671068) 477 932 2
(0.1411105694 0.2663691211 0.1630755942 0.4294447153) 473 923 1
(0.1513087572 0.4243456214 0.1667958543 0.2575497671) 478 931 2
(0.6124157107 0.1823156715 0.1937921447 0.01147647321) 446 870 1
(0.06079218217 0.4696039089 0.1702155621 0.2993883468) 458 895 2
(0.3015020651 0.3492489674 0.09597549484 0.2532734726) 546 1044 1
(0.339530855 0.3302345725 0.2398372345 0.09039733795) 448 876 2
(0.618635419 0.06079012035 0.1906822905 0.1298921702) 449 876 1
(0.05215951498 0.0658964684 0.4739202425 0.4080237741) 517 1008 2
(0.3749698453 0.2689737265 0.3125150773 0.0435413508) 505 982 1
(0.3043600571 0.3478199715 0.003518268812 0.3443017027) 499 971 2
(0.4726310169 0.2636844916 0.2627730111 0.0009114805173) 447 872 2
(0.3559588371 0.2481530089 0.07386757257 0.3220205815) 469 2618 1
(0.6396853963 0.1801573019 0.1333309145 0.0468263874) 459 878 1
(0.08553251134 0.4572337443 0.3273933563 0.1298403881) 528 1010 1
(0.2205005414 0.114592115 0.2751576143 0.3897497293) 489 935 2
(0.01485375227 0.1172023709 0.4925731239 0.375370753) 467 913 2
(0.1909072142 0.4045463929 0.3734466037 0.0310997892) 550 1051 1
(0.5988212539 0.2005893731 0.1697471268 0.03084224629) 465 908 2
(0.7838386362 0.07515354473 0.1080806819 0.03292713719) 624 1208 1
(0.1874163743 0.4062918129 0.08315941272 0.3231324001) 449 1307 2
(0.05276122675 0.3598641524 0.1137552342 0.4736193866) 449 1307 1
(0.2705006725 0.2572842935 0.1074653703 0.3647496638) 450 861 2
(0.06535627361 0.3854784513 0.4673218632 0.08184341192) 466 908 1
(0.4014794543 0.2992602728 0.119531617 0.1797286559) 476 930 1
(0.2444142062 0.3777928969 0.06164349272 0.3161494042) 456 873 1
(0.3083165996 0.3458417002 0.2789438339 0.06689786635) 499 971 2
(0.4224830268 0.2887584866 0.01727786343 0.2714806232) 475 928 1
(0.7175090159 0.141245492 0.08975364427 0.05149184778) 577 1119 2
(0.1142230482 0.4428884759 0.227627401 0.2152610749) 499 971 2
(0.4060966509 0.2969516746 0.05753590691 0.2394157677) 467 910 2
(0.215024143 0.06810594981 0.3924879285 0.3243819787) 447 875 2
(0.5000685713 0.2499657144 0.1101671655 0.1397985489) 457 893 2
(0.708853969 0.1455730155 0.02226897711 0.1233040384) 79 159 2
(0.01406536038 0.02844042835 0.4929673198 0.4645268915) 485 944 1
(0.2343077216 0.3828461392 0.2829807312 0.09986540802) 449 878 1
(0.1642876796 0.359699801 0.05815635918 0.4178561602) 470 899 2
(0.107152708 0.237598392 0.208825254 0.446423646) 459 878 2
(0.2540045073 0.2030456842 0.3729977464 0.1699520622) 458 893 1
(0.05946617394 0.1071914918 0.470266913 0.3630754212) 446 873 2
(0.06429266674 0.4678536666 0.03944017473 0.4284134919) 533 1038 1
(0.4181488503 0.1169664769 0.2909255749 0.1739590979) 458 896 2
(0.4195556472 0.2548642477 0.2902221764 0.03535792865) 453 883 1
(0.07501690498 0.2269394091 0.2355521384 0.4624915475) 517 989 2
(0.06656448118 0.006771695928 0.4599460635 0.4667177594) 448 876 1
(0.09634671753 0.4518266412 0.03163886701 0.4201877742) 446 872 2
(0.4721967111 0.04774921988 0.2161524246 0.2639016445) 447 1305 1
(0.09183077884 0.4540846106 0.4335652545 0.02051935606) 487 948 2
(0.1384176994 0.01257408242 0.4182170679 0.4307911503) 457 875 2
(0.3127541281 0.3436229359 0.1536751688 0.1899477672) 549 1049 1
(0.591015021 0.2044924895 0.01758814583 0.1869043437) 558 1086 1
(0.08823934619 0.4558803269 0.374245108 0.08163521886) 448 876 2
(0.3500642194 0.3249678903 0.08639427111 0.2385736192) 446 872 2
(0.3760367887 0.02322758714 0.3119816057 0.2887540185) 458 896 2
(0.04195242488 0.4790237876 0.1530761827 0.3259476049) 449 1307 2
(0.5804528517 0.05515752752 0.2097735742 0.1546160466) 446 870 1
(0.6097110231 0.1951444884 0.07988378289 0.1152607055) 459 2617 2
(0.2375282446 0.1849957598 0.1962401179 0.3812358777) 489 935 2
(0.7863881437 0.1068059282 0.08589880951 0.02090711864) 479 916 1
(0.6187017592 0.1906491204 0.1264417412 0.06420737913) 445 870 2
(0.2722881762 0.09485912946 0.3638559119 0.2689967824) 477 929 1
(0.07754938882 0.1590766987 0.4612253056 0.3021486069) 446 873 2
(0.06793844153 0.4660307792 0.004548857312 0.4614819219) 517 1008 1
(0.6174796846 0.1912601577 0.05700587768 0.13425428) 447 1305 2
(0.2817222763 0.1510107868 0.208128075 0.3591388619) 459 2617 1
(0.5891979048 0.2054010476 0.1739538708 0.03144717677) 529 2624 2
(0.1869288426 0.4065355787 0.3148361968 0.09169938186) 456 891 2
(0.3736897276 0.01839601003 0.2947591262 0.3131551362) 440 1298 1
(0.4216474658 0.06918197914 0.2199942879 0.2891762671) 457 875 2
(0.0240134813 0.4879932594 0.06775648803 0.4202367713) 467 912 2
(0.04065055217 0.4796747239 0.2639434583 0.2157312656) 488 952 2
(0.3073860977 0.02075913131 0.3255478198 0.3463069511) 458 877 2
(0.3581744741 0.3209127629 0.0879880784 0.2329246845) 539 1030 1
(0.3465852177 0.3267073912 0.2992507268 0.0274566644) 458 893 2
(0.1527905229 0.4236047386 0.03642048031 0.3871842583) 456 892 1
(0.4617304754 0.2691347623 0.2532043315 0.01593043086) 518 1010 1
(0.2532246002 0.3733876999 0.09767858983 0.2757091101) 496 967 2
(0.1403402355 0.4298298822 0.01434421107 0.4154856712) 447 875 1
(0.009798684643 0.4951006577 0.01042948086 0.4846711768) 465 908 2
(0.3058467607 0.3470766197 0.2887830345 0.05829358518) 445 871 1
(0.3458945648 0.3270527176 0.05731672454 0.2697359931) 455 887 2
(0.3604564275 0.2575025822 0.06226920408 0.3197717862) 459 2617 1
(0.3040831716 0.3479584142 0.1888882043 0.1590702099) 519 2623 2
(0.2511444386 0.3404076287 0.3744277807 0.03402015203) 469 914 1
(0.5302036785 0.2348981608 0.2100406465 0.02485751421) 479 2619 2
(0.4779909435 0.1094244621 0.2610045283 0.1515800662) 446 873 2
(0.05512408492 0.08921897146 0.3832189861 0.4724379575) 456 873 2
(0.2828496031 0.09652702342 0.262048175 0.3585751984) 449 2616 1
(0.634205033 0.1828974835 0.1764656737 0.006431809823) 509 973 1
(0.3670898386 0.3164550807 0.241438822 0.07501625863) 508 990 2
(0.8113388816 0.09433055921 0.08596170555 0.008368853662) 449 2616 2
(0.1698990239 0.415050488 0.069942793 0.345107695) 467 913 1
(0.1138575573 0.4430712213 0.08397275299 0.3590984684) 456 873 1
(0.2073197841 0.396340108 0.143415033 0.2529250749) 447 874 2
(0.5165010859 0.241749457 0.01102887149 0.2307205855) 503 981 1
(0.8108259403 0.09458702986 0.064129418 0.03045761187) 513 981 1
(0.251862984 0.374068508 0.09309285312 0.2809756549) 458 877 1
(0.3822972734 0.3088513633 0.1212917933 0.18755957) 489 952 2
(0.3392293868 0.2594033051 0.07098200155 0.3303853066) 447 1305 1
(0.3007682913 0.02058721578 0.3290286386 0.3496158543) 445 1303 1
(0.186264716 0.406867642 0.2274005348 0.1794671073) 451 881 2
(0.08753186137 0.249050806 0.2071832633 0.4562340693) 458 877 2
(0.03309224779 0.4210010019 0.4834538761 0.06245287424) 499 971 1
(0.0224222133 0.4887888933 0.04011975194 0.4486691414) 469 2618 2
(0.6990807995 0.02368511835 0.1504596003 0.1267744819) 501 974 1
(0.04717841573 0.4764107921 0.09120223467 0.3852085575) 529 1011 1
(0.4238085468 0.2880957266 0.01633733027 0.2717583963) 457 893 2
(0.06043787192 0.469781064 0.2098417382 0.2599393258) 457 893 2
(0.4566150204 0.09717100334 0.1745214865 0.2716924898) 475 909 2
(0.3254177258 0.3372911371 0.2788273435 0.05846379361) 534 1037 2
(0.433194024 0.283402988 0.1890814893 0.0943214987) 449 876 2
(0.1032450652 0.3669289277 0.4483774674 0.08144853968) 454 885 1
(0.4899769971 0.1264578373 0.1285536641 0.2550115014) 455 889 1
(0.3249366098 0.3375316951 0.3172050653 0.02032662983) 468 912 2
(0.3929011491 0.01239146926 0.2911579562 0.3035494254) 447 874 1
(0.314202668 0.342898666 0.2662583259 0.07664034013) 538 1047 2
(0.1820041077 0.4089979461 0.141683551 0.2673143951) 488 952 2
(0.1921812813 0.4039093594 0.2943123989 0.1095969605) 484 926 1
(0.1899297697 0.4050351152 0.203105034 0.2019300812) 455 889 2
(0.03016796447 0.4849160178 0.2005052991 0.2844107187) 487 951 1
(0.05405674419 0.4729716279 0.3105433247 0.1624283032) 444 866 2
(0.08100728072 0.4594963596 0.1970465071 0.2624498525) 488 934 1
(0.4649949725 0.2675025138 0.1043658237 0.1631366901) 526 1025 1
(0.006845448421 0.4592689431 0.03730833265 0.4965772758) 443 1301 1
(0.7727894226 0.09713988191 0.01646540677 0.1136052887) 488 934 2
(0.5114338094 0.06178337777 0.1824997175 0.2442830953) 456 891 1
(0.2007598221 0.3324536069 0.06716648207 0.3996200889) 477 913 2
(0.1910165799 0.40449171 0.1413440669 0.2631476431) 509 990 2
(0.4294253876 0.2852873062 0.1326151836 0.1526721226) 499 954 1
(0.7398028075 0.1300985962 0.02911294733 0.1009856489) 478 934 1
(0.04250185095 0.1220838786 0.356665196 0.4787490745) 473 905 2
(0.6066333635 0.1529444656 0.1966833183 0.0437388527) 465 909 2
(0.4289601354 0.2855199323 0.07268620756 0.2128337247) 444 1302 2
(0.03871682642 0.4806415868 0.1736182115 0.3070233753) 455 871 1
(0.1533545441 0.1557031525 0.423322728 0.2676195755) 455 890 2
(0.529207615 0.2353961925 0.08526368641 0.1501325061) 518 1007 2
(0.6009047365 0.1513198073 0.04822782439 0.1995476317) 489 935 2
(0.04910728074 0.08614510178 0.4754463596 0.3893012579) 489 952 1
(0.5894047345 0.2052976328 0.1032508717 0.102046761) 443 866 2
(0.4123748928 0.2249283856 0.068884168 0.2938125536) 584 1134 1
(0.6861461185 0.1569269407 0.06804194312 0.08888499762) 499 2621 2
(0.7785894576 0.1076222646 0.1107052712 0.003083006642) 488 953 2
(0.3022932715 0.3488533643 0.2582578969 0.09059546739) 467 913 1
(0.164622262 0.417688869 0.1246347008 0.2930541682) 519 1009 2
(0.3172652067 0.2265257797 0.114841617 0.3413673966) 528 1028 1
(0.53568963 0.232155185 0.1291775366 0.1029776484) 589 1144 1
(0.08350807065 0.4273267701 0.03091919454 0.4582459647) 457 875 2
(0.5316989162 0.2341505419 0.1983900139 0.03576052797) 488 950 2
(0.2070839698 0.3964580151 0.1600778605 0.2363801546) 497 951 1
(0.7443568837 0.1278215582 0.09572246157 0.0320990966) 457 875 1
(0.6241697369 0.1857874271 0.002127704385 0.1879151315) 447 874 1
(0.2043427247 0.09446516644 0.3978286377 0.3033634712) 59 118 2
(0.08275723948 0.2023673172 0.2562540631 0.4586213803) 518 1009 1
(0.1944246567 0.4023642615 0.0004234101611 0.4027876717) 478 915 2
(0.6056606987 0.08471962709 0.1971696506 0.1124500236) 509 992 2
(0.6185753765 0.1907123118 0.1007168253 0.0899954865) 443 864 2
(0.03243008035 0.4837849598 0.03041272756 0.4533722323) 529 1030 1
(0.3501013446 0.1970878229 0.3249493277 0.1278615048) 508 988 1
(0.4471113094 0.2038245396 0.07261980571 0.2764443453) 535 1023 2
(0.1358737367 0.2655465517 0.4320631317 0.1665165799) 444 869 2
(0.4900309646 0.04267904648 0.2549845177 0.2123054712) 448 874 1
(0.06751455184 0.428197283 0.03804544105 0.4662427241) 509 973 2
(0.4089491326 0.1944552984 0.1010701353 0.2955254337) 534 1039 1
(0.2497353318 0.3751323341 0.3049652943 0.07016703978) 496 968 1
(0.02375574981 0.4881221251 0.1540028927 0.3341192324) 628 1218 2
(0.2552815226 0.3723592387 0.2728838127 0.09947542601) 442 865 1
(0.4089033628 0.2955483186 0.1284266289 0.1671216897) 525 1020 2
(0.3996161121 0.1623310786 0.3001919439 0.1378608653) 459 897 2
(0.1074477194 0.4462761403 0.3367326898 0.1095434505) 507 970 1
(0.1330356207 0.4334821896 0.1113909798 0.3220912098) 474 926 1
(0.4759345065 0.2620327467 0.1750997496 0.0869329972) 458 895 2
(0.2149820742 0.3925089629 0.09792644812 0.2945825148) 495 963 2
(0.6260722854 0.1869638573 0.00612240898 0.1808414483) 479 935 1
(0.5806309205 0.1356520318 0.2096845397 0.07403250789) 479 935 2
(0.5350477614 0.2324761193 0.1960341941 0.03644192516) 19 38 1
(0.3219513065 0.2072028394 0.1318215073 0.3390243467) 448 1306 1
(0.08492025731 0.05908717284 0.3984526985 0.4575398713) 447 874 1
(0.3936397692 0.3031801154 0.2218670442 0.08131307123) 471 901 1
(0.01392441778 0.4930377911 0.3698513713 0.1231864198) 442 1300 2
(0.6557257341 0.1373650381 0.03477209486 0.1721371329) 468 896 2
(0.4104913834 0.2947543083 0.1063659136 0.1883883947) 459 2617 2
(0.2119645617 0.3940177192 0.2528729521 0.141144767) 507 988 2
(0.4332255988 0.2833872006 0.2137417317 0.06964546891) 468 912 2
(0.7129895981 0.07382758081 0.1435052009 0.06967762013) 478 931 1
(0.1344688751 0.4327655624 0.1872600613 0.2455055012) 555 1079 2
(0.8527858442 0.02495151558 0.0736070779 0.04865556232) 467 913 2
(0.7058391636 0.1470804182 0.02228660996 0.1247938082) 465 909 1
(0.4461782584 0.07337414558 0.2035367252 0.2769108708) 458 877 2
(0.2270146776 0.2114708054 0.3864926612 0.1750218558) 495 963 1
(0.1900553162 0.4049723419 0.04694593227 0.3580264097) 489 952 2
(0.04828498761 0.01778158303 0.4758575062 0.4580759232) 449 876 1
(0.4168398557 0.09178646541 0.1997936067 0.2915800721) 490 955 1
(0.1003052498 0.4498473751 0.05019064492 0.3996567302) 476 929 2
(0.2916097238 0.2958889558 0.05830618232 0.3541951381) 499 2621 1
(0.9073967516 0.0003348999357 0.04596672424 0.04630162418) 457 893 1
(0.2640157953 0.0009767272241 0.3679921023 0.3670153751) 584 1132 1
(0.02977632736 0.4851118363 0.005582761831 0.4795290745) 457 893 2
(0.2754679515 0.3622660243 0.1563134056 0.2059526187) 519 2623 2
(0.9656681253 0.008106092081 0.00905984528 0.01716593736) 576 1101 2
(0.4589513306 0.062565459 0.2079588757 0.2705243347) 597 1159 1
(0.5516965636 0.2241517182 0.1206469197 0.1035047985) 449 1307 2
(0.3601775218 0.3199112391 0.03902688447 0.2808843546) 469 897 1
(0.2725066297 0.3637466851 0.007249998656 0.3564966865) 447 1305 2
(0.102283772 0.448858114 0.1175949295 0.3312631845) 467 910 2
(0.03159098485 0.1695526176 0.4842045076 0.31465189) 459 895 1
(0.4109580559 0.04761623724 0.2469047348 0.2945209721) 464 888 2
(0.7188681957 0.1198827988 0.02068310339 0.1405659021) 507 988 1
(0.00511658512 0.4974417074 0.03086293741 0.46657877) 498 953 1
(0.7126779223 0.1436610389 0.1322775145 0.01138352431) 518 1007 2
(0.9563294585 0.01917055037 0.02183527073 0.002664720365) 508 991 2
(0.7469242812 0.05418435444 0.07235350495 0.1265378594) 449 2616 1
(0.08766391581 0.4561680421 0.04623328127 0.4099347608) 458 896 1
(0.05271049433 0.4736447528 0.268292968 0.2053517849) 447 875 1
(0.4566202783 0.2716898609 0.1743850015 0.09730485931) 489 935 1
(0.3745551793 0.3127224103 0.2567165744 0.05600583591) 448 1306 2
(0.5198172929 0.2400913536 0.02696433733 0.2131270162) 482 940 2
(0.6807679065 0.1596160467 0.05835575931 0.1012602874) 487 950 2
(0.2443910607 0.3778044697 0.1239477941 0.2538566756) 474 907 1
(0.3279838499 0.3360080751 0.3271909441 0.00881713094) 457 875 1
(0.4863349444 0.2568325278 0.2155452405 0.04128728732) 559 2627 2
(0.1250631232 0.4374684384 0.1711415729 0.2663268655) 449 878 1
(0.5980090326 0.1168858551 0.2009954837 0.08410962854) 488 950 1
(0.2045956284 0.1003267704 0.2973754154 0.3977021858) 499 2621 1
(0.2702919678 0.3648540161 0.1617738451 0.203080171) 503 980 2
(0.1485658001 0.1123536533 0.4257171 0.3133634467) 529 1028 1
(0.1141288383 0.01627701314 0.4266585677 0.4429355809) 546 1062 1
(0.1268157252 0.1124187804 0.324173357 0.4365921374) 556 1063 2
(0.1411898444 0.4294050778 0.4052525447 0.0241525331) 608 1178 2
(0.1640097192 0.2849765783 0.1330185621 0.4179951404) 538 1047 1
(0.5308591946 0.1371970346 0.2345704027 0.09737336816) 608 1181 2
(0.1029438348 0.2225692178 0.4485280826 0.2259588648) 639 1237 1
(0.2400319155 0.3799840423 0.1937548259 0.1862292164) 465 906 2
(0.002707591871 0.2836077324 0.4986462041 0.2150384716) 506 987 2
(0.2310574468 0.05546247378 0.3290088028 0.3844712766) 453 885 1
(0.7179484023 0.1410257988 0.03324536187 0.107780437) 472 921 2
(0.860318222 0.007086866679 0.06984088902 0.06275402234) 475 928 2
(0.2308375176 0.02126030034 0.3845812412 0.3633209408) 447 875 2
(0.1627297275 0.1477352125 0.4186351363 0.2708999237) 474 923 1
(0.5835634645 0.02325808551 0.1849601822 0.2082182677) 448 1306 1
(0.2700544855 0.3649727573 0.001783190627 0.3631895666) 444 1302 2
(0.1626423184 0.3240412108 0.4186788408 0.09463763003) 475 925 1
(0.4430285804 0.2784857098 0.1865861258 0.09189958398) 447 872 2
(0.6394986699 0.180250665 0.06285187252 0.1173987925) 453 883 2
(0.1477623265 0.1681231564 0.2579956803 0.4261188367) 448 1306 1
(0.248078235 0.3759608825 0.150482963 0.2254779195) 478 933 2
(0.3237308851 0.2208887154 0.3381345575 0.1172458421) 489 954 2
(0.6758924005 0.023675778 0.1620537997 0.1383780217) 488 953 2
(0.0369019593 0.4815490204 0.000705170729 0.4808438496) 453 885 2
(0.419132199 0.2904339005 0.2447084282 0.04572547234) 508 972 1
(0.3512542139 0.3243728931 0.2372969931 0.08707589995) 458 877 1
(0.4778529137 0.2610735431 0.1607778128 0.1002957304) 547 1046 1
(0.5941222999 0.02558265563 0.20293885 0.1773561944) 472 922 2
(0.1043377759 0.190745601 0.2570855111 0.4478311121) 636 1215 2
(0.2132860288 0.2487663967 0.3933569856 0.144590589) 625 1210 1
(0.1715222937 0.3879915545 0.4142388532 0.02624729867) 456 889 1
(0.5843620336 0.01527582225 0.1925431609 0.2078189832) 446 1304 1
(0.5927827061 0.2036086469 0.02370664708 0.1799019998) 447 874 2
(0.5713094405 0.1736882708 0.2143452797 0.04065700896) 449 878 2
(0.1421630274 0.4289184863 0.3482436306 0.08067485575) 449 876 2
(0.1129015637 0.4435492182 0.06846419401 0.3750850242) 461 898 2
(0.1385568218 0.2649729574 0.4307215891 0.1657486317) 444 866 1
(0.04762727956 0.4761863602 0.3906410629 0.08554529734) 517 1005 2
(0.3330788787 0.2683566243 0.3334605607 0.06510393637) 488 953 2
(0.5218022269 0.1233503757 0.2390988865 0.1157485108) 458 893 1
(0.3248439584 0.2313366146 0.3375780208 0.1062414062) 478 931 1
(0.2688246807 0.3655876596 0.1019401852 0.2636474744) 539 1049 1
(0.04846308985 0.2735401882 0.2022282669 0.4757684551) 479 916 2
(0.1668755368 0.0995988986 0.316963333 0.4165622316) 466 910 1
(0.028825936 0.485587032 0.1438231646 0.3417638674) 519 992 1
(0.2517979413 0.06462026313 0.3741010293 0.3094807662) 519 1011 2
(0.5759160162 0.2120419919 0.1622872068 0.04975478507) 464 888 1
(0.4657578692 0.2232989047 0.2671210654 0.04382216066) 539 1049 2
(0.6856970116 0.02896374119 0.128187753 0.1571514942) 618 1181 2
(0.6655006229 0.08801943202 0.07923025655 0.1672496886) 525 1022 1
(0.1631600822 0.4184199589 0.1395918971 0.2788280618) 609 1182 1
(0.3736181469 0.2092678432 0.3131909266 0.1039230834) 586 1139 2
(0.03838651478 0.4808067426 0.1492265037 0.3315802389) 559 2627 2
(0.02831064137 0.03115453769 0.4858446793 0.4546901416) 549 1066 1
(0.1869344643 0.01026428793 0.3962684799 0.4065327679) 567 1102 1
(0.2513622122 0.3743188939 0.1330627559 0.2412561379) 450 79 2
(0.1529156758 0.4235421621 0.1202865482 0.3032556139) 469 897 1
(0.002832374333 0.4788810139 0.01970279897 0.4985838128) 476 929 1
(0.4677777962 0.2661111019 0.1860422884 0.08006881354) 463 902 2
(0.1686215756 0.4082174353 0.007471776905 0.4156892122) 448 876 1
(0.495861757 0.2172010949 0.2520691215 0.03486802656) 452 884 2
(0.5813941198 0.1010423929 0.1082605472 0.2093029401) 509 2622 1
(0.6331000782 0.1834499609 0.02142608211 0.1620238788) 446 1304 2
(0.8488008366 0.00302703134 0.07257255035 0.07559958169) 465 890 2
(0.5812115201 0.2007769375 0.2093942399 0.008617302454) 518 1010 2
(0.1851352954 0.3099937953 0.09743855701 0.4074323523) 528 1010 2
(0.4610505164 0.1894618936 0.08001284819 0.2694747418) 533 1037 1
(0.4433794262 0.05958640029 0.2187238866 0.2783102869) 445 870 1
(0.7039847379 0.148007631 0.1076492702 0.04035836088) 497 969 2
(0.3344867203 0.1224325699 0.3327566398 0.2103240699) 526 1025 2
(0.4421560237 0.2789219882 0.1340948888 0.1448270993) 496 965 2
(0.2032135089 0.3983932456 0.2130696778 0.1853235678) 557 1083 2
(0.2165532467 0.1078898156 0.2838335611 0.3917233767) 532 1035 1
(0.4231826802 0.06754535487 0.2884086599 0.220863305) 568 1102 1
(0.09399776563 0.4530011172 0.2476870049 0.2053141123) 615 1191 2
(0.5073017043 0.2463491479 0.1085257162 0.1378234316) 618 1197 2
(0.4415706919 0.1093515815 0.1698630726 0.2792146541) 468 896 2
(0.1523785805 0.009150033312 0.4146606764 0.4238107097) 447 874 1
(0.3344519655 0.1448391092 0.187934908 0.3327740173) 479 2619 1
(0.02918932602 0.485405337 0.4789388727 0.006466464266) 458 877 1
(0.2020017857 0.1740629397 0.3989991071 0.2249361675) 447 875 2
(0.1200789342 0.1959425708 0.4399605329 0.2440179621) 448 877 2
(0.2421067641 0.3789466179 0.356750338 0.02219627989) 459 895 2
(0.3927037144 0.3036481428 0.2079248636 0.09572327917) 448 877 1
(0.1895230667 0.08553278851 0.4052384666 0.3197056781) 508 991 2
(0.05110100247 0.03233638011 0.4421131187 0.4744494988) 456 873 2
(0.5389829463 0.2305085269 0.01571682375 0.2147917031) 478 934 1
(0.4861324384 0.1181614014 0.2569337808 0.1387723793) 457 891 1
(0.1944552197 0.2554287109 0.1473436793 0.4027723901) 539 1030 2
(0.08935207151 0.1120977089 0.4553239642 0.3432262554) 508 991 2
(0.1428679663 0.2502313892 0.4285660169 0.1783346277) 466 911 2
(0.8516338987 0.07418305066 0.01545966354 0.05872338712) 466 892 1
(0.5134974902 0.2432512549 0.2231754706 0.02007578428) 467 913 1
(0.5992641296 0.2003679352 0.1812970063 0.01907092891) 532 1033 2
(0.2734042713 0.3632978643 0.3539411932 0.00935667117) 469 916 1
(0.4635486953 0.09170335088 0.2682256524 0.1765223015) 518 1010 2
(0.5674795816 0.2162602092 0.05250427956 0.1637559296) 459 2617 2
(0.003169326854 0.4984153366 0.215344383 0.2830709536) 457 875 1
(0.2183141665 0.3908429167 0.1774427242 0.2134001925) 465 908 2
(0.1823114042 0.4088442979 0.3319877168 0.07685658106) 639 2635 2
(0.3702908188 0.2751865936 0.03966799704 0.3148545906) 546 1044 2
(0.09218987921 0.4539050604 0.3661693285 0.08773573185) 535 1039 2
(0.4852611173 0.02889814538 0.228471296 0.2573694413) 519 2623 1
(0.1780089165 0.4109955418 0.05435655467 0.3566389871) 539 2625 2
(0.02703431499 0.1083453728 0.4864828425 0.3781374697) 589 1144 2
(0.6403172566 0.1669708338 0.01287053786 0.1798413717) 576 1101 2
(0.7407815609 0.1296092196 0.1104853245 0.01912389504) 559 1068 1
(0.6574851088 0.06092000878 0.1712574456 0.1103374368) 584 1135 2
(0.04515003281 0.4774249836 0.07200465937 0.4054203242) 485 944 2
(0.129693043 0.4351534785 0.02509858991 0.4100548886) 499 954 1
(0.1047236506 0.4476381747 0.3987796367 0.04885853803) 448 1306 2
(0.1308584476 0.1176175503 0.4345707762 0.3169532259) 483 943 2
(0.5923836259 0.2038081871 0.01058896174 0.1932192253) 449 1307 2
(0.7925919529 0.0455304144 0.1037040235 0.05817360914) 473 921 1
(0.7646301723 0.1176849138 0.08421220299 0.03347271085) 479 935 1
(0.3962480229 0.09300498412 0.3018759886 0.2088710044) 451 879 1
(0.5038701933 0.2480649033 0.157524849 0.09054005436) 456 891 2
(0.7055363074 0.1472318463 0.0139470559 0.1332847904) 479 916 1
(0.3235366492 0.2245627815 0.3382316754 0.1136688939) 545 1058 1
(0.2037788648 0.2535664607 0.1445441069 0.3981105676) 538 1047 1
(0.2648572615 0.1898776159 0.1776937534 0.3675713693) 509 2622 1
(0.1468394454 0.07929474295 0.3472855343 0.4265802773) 557 1065 2
(0.4220403486 0.21452656 0.07445326568 0.2889798257) 559 1068 2
(0.04441597344 0.4777920133 0.2767708332 0.20102118) 507 970 1
(0.5742053632 0.2128973184 0.1953389306 0.01755838786) 528 1010 1
(0.4181899334 0.2909050333 0.1473096128 0.1435954205) 526 1025 1
(0.3462970607 0.3268514696 0.0128498593 0.3140016103) 534 1039 2
(0.5705249181 0.2147375409 0.08097491407 0.1337626269) 488 934 1
(0.3302376416 0.09991846007 0.2349627191 0.3348811792) 559 1068 2
(0.02286727522 0.3454662435 0.1431001189 0.4885663624) 569 2628 1
(0.1665806529 0.3877667853 0.02894288823 0.4167096736) 579 2629 1
(0.02087706642 0.1269363886 0.3626250782 0.4895614668) 588 1142 1
(0.2924368238 0.3020565935 0.3537815881 0.05172499459) 579 1125 2
(0.2644460706 0.1910063141 0.1767706506 0.3677769647) 548 1048 2
(0.3438687718 0.3280656141 0.2612589582 0.06680665591) 608 1180 2
(0.000701436724 0.3654614482 0.1341878335 0.4996492816) 589 1125 2