/*--------------------------------*- C++ -*----------------------------------*\
| =========                 |                                                 |
| \\      /  F ield         | OpenFOAM: The Open Source CFD Toolbox           |
|  \\    /   O peration     | Version:  2406                                  |
|   \\  /    A nd           | Website:  www.openfoam.com                      |
|    \\/     M anipulation  |                                                 |
\*---------------------------------------------------------------------------*/
FoamFile
{
    version     2.0;
    format      ascii;
    arch        "LSB;label=32;scalar=64";
    class       scalarField;
    location    "0.006/lagrangian/dsmc";
    object      Ei;
}
// * * * * * * * * * * * * * * * * * * * * * * * * * * * * * * * * * * * * * //


6872
(
8.398946167e-21
1.706701939e-20
4.717608061e-21
1.833628901e-20
3.143563075e-20
3.114774476e-20
2.407073319e-21
2.652048675e-20
3.30472699e-20
2.145885585e-21
2.783997298e-21
3.346296153e-20
3.248102008e-21
1.010139844e-21
2.093371243e-20
9.511082774e-21
2.350405209e-20
1.070687317e-21
1.206522018e-20
3.566478747e-20
4.30322902e-20
8.181985921e-21
1.31239229e-21
1.352181827e-20
2.764891129e-21
1.27347082e-20
5.585444136e-21
3.702934066e-21
6.369824702e-21
5.678097151e-21
9.492897213e-22
2.208800442e-20
2.662040346e-21
7.866366018e-21
9.247991664e-21
3.012110723e-21
3.983271832e-21
5.254670733e-20
9.320760403e-21
1.552161848e-21
4.500244541e-22
6.579884102e-22
2.234608632e-20
8.092926862e-21
7.42088254e-22
1.521119295e-20
1.779416666e-20
6.424310052e-20
7.979394822e-20
1.652249994e-21
2.936877558e-20
2.026380891e-21
7.449982778e-21
8.340736933e-21
1.075000597e-20
1.244642654e-20
3.094084634e-20
9.588196199e-21
2.572519217e-20
3.745339185e-20
3.572012385e-21
1.89544814e-20
2.986545579e-21
3.386303302e-21
1.006238637e-20
9.610777361e-21
5.189301018e-21
2.117785379e-20
1.026930056e-20
2.748484697e-20
5.233192527e-21
1.773639518e-21
7.385441859e-22
7.470725272e-21
1.937754872e-20
5.843859929e-21
2.063847704e-20
2.744665017e-20
1.940629652e-20
2.446833433e-21
3.323053902e-22
1.236524078e-20
4.920585153e-23
1.554038345e-21
9.081021788e-22
7.118249917e-21
4.665894219e-21
2.270621495e-21
6.777446338e-21
3.693656781e-20
3.495523423e-20
3.686465704e-20
2.852932826e-21
1.687376578e-20
1.720912911e-20
1.439554213e-20
7.596726092e-22
2.221115315e-21
9.075289467e-21
8.490580757e-22
5.929293263e-21
1.04435196e-20
1.758244797e-20
1.037216743e-19
6.512949782e-22
5.276497208e-22
7.965980103e-21
4.405187594e-22
3.155561118e-20
1.149235571e-20
7.569550711e-21
2.21180086e-20
3.083927273e-21
5.749940804e-21
4.643391591e-21
1.651814043e-20
3.651878947e-20
1.227149644e-20
1.222299889e-20
9.548375406e-21
3.853374737e-21
3.180200465e-20
6.130392424e-21
5.044945323e-21
3.667594314e-20
5.31573758e-21
2.129312625e-22
5.991323263e-21
2.503798434e-20
9.14240342e-21
2.592119402e-21
6.712756154e-21
3.878407773e-21
3.027672147e-21
4.495811992e-22
3.252155128e-21
2.051195962e-21
1.371603774e-20
4.665932818e-20
6.366112184e-21
7.496280802e-22
8.801730299e-21
1.606410286e-20
3.88866261e-21
1.177162934e-20
1.037691112e-21
1.929359163e-22
6.389980644e-21
1.905125351e-20
1.408684563e-20
4.341883894e-21
3.755925144e-21
6.567129457e-21
2.424074749e-21
2.858295847e-20
1.338806723e-20
9.236512278e-21
6.625434304e-21
1.269295121e-20
5.639837195e-21
2.156906765e-21
8.849417143e-21
5.423049651e-21
1.768913697e-20
3.119248066e-20
2.099079943e-21
2.071956683e-20
2.762731023e-20
4.169412178e-21
1.335026099e-21
2.724535584e-21
8.194168747e-21
3.698676156e-20
1.097759155e-20
7.524590326e-21
4.886479543e-21
5.387016433e-21
2.166514704e-20
6.118444747e-21
1.526960302e-21
4.346392183e-21
2.614805074e-20
5.696966259e-21
1.352336557e-20
3.556859566e-21
3.153067386e-21
3.086301954e-21
9.721478425e-22
7.448475146e-23
1.186278774e-20
5.679215567e-21
7.717826949e-21
2.465346861e-22
1.371409807e-21
6.244591213e-21
6.266949473e-22
3.019111207e-21
7.340409123e-21
2.809939946e-21
4.340244011e-21
4.658909009e-22
8.693649426e-21
6.108914221e-21
5.550149011e-21
1.502710718e-21
7.468789219e-21
1.3467526e-21
6.804058111e-21
3.36181356e-21
2.301243707e-21
5.82844746e-21
3.622623605e-21
1.343193113e-21
1.318177142e-20
4.811732201e-21
9.181943443e-21
1.648674288e-20
7.669269119e-21
5.453296938e-21
1.331756112e-20
6.55319851e-22
1.468982984e-20
2.918767259e-21
1.296503583e-20
2.606936495e-22
3.681352021e-21
2.352822441e-20
1.297847447e-20
6.549345551e-21
3.093261913e-20
5.263270332e-21
8.946396043e-21
9.294917887e-21
1.878010681e-23
4.048605529e-20
3.83347136e-21
1.198505814e-20
1.383873849e-20
5.806469467e-21
5.471591973e-21
6.340879075e-21
2.730160408e-21
2.631378691e-20
2.746304607e-20
2.349956315e-22
6.245667651e-22
4.851850752e-21
2.666322727e-20
3.680569865e-21
1.081715735e-20
9.588106641e-21
2.774327292e-21
2.733455966e-21
2.228284164e-21
3.111132336e-20
1.744684452e-21
7.701400456e-22
2.166993111e-21
3.603333831e-20
9.670794102e-21
4.347560335e-21
5.450476467e-21
1.918957449e-20
1.274501701e-21
5.016876086e-21
1.34495343e-21
1.372690498e-20
5.764396093e-21
2.239695754e-21
7.396905166e-22
1.83345345e-20
1.307433268e-20
3.032529131e-21
1.121411061e-22
5.542507916e-20
1.519701244e-20
8.756905145e-21
1.224126568e-22
3.929921725e-21
9.089821976e-21
9.069416786e-21
4.440156058e-21
9.856903418e-21
1.503322977e-20
3.09594133e-20
2.348599096e-21
1.134068707e-20
6.009215541e-21
4.282010338e-20
1.276188414e-21
6.601306751e-22
9.395783037e-22
1.753131354e-20
2.597816538e-20
5.749847319e-21
7.904953821e-21
9.329545229e-22
2.063491637e-22
6.355885418e-21
1.721917839e-20
3.080182821e-21
7.880469603e-21
8.365914589e-21
2.289326369e-20
2.55691083e-20
6.326310893e-21
3.711202671e-21
5.868642735e-21
6.480593573e-21
3.170986646e-21
1.88138714e-20
1.882693424e-21
3.224320412e-21
2.89707404e-21
7.915507709e-22
2.443799686e-21
2.085018727e-20
2.787951276e-22
1.838204882e-21
7.688896574e-21
1.337126916e-20
1.81548662e-21
1.145131932e-20
2.545308016e-20
5.17970443e-21
6.054315417e-21
3.299129632e-21
4.292197169e-20
1.565534088e-20
4.382306148e-21
1.640036874e-20
8.551195025e-21
1.345084526e-21
1.357995205e-20
2.323089261e-20
5.574170045e-21
1.449268332e-20
2.9136099e-20
2.630040495e-21
2.206077523e-21
1.046063245e-20
2.731160355e-21
1.090915333e-20
5.948548753e-22
1.123957222e-20
2.134543368e-20
3.684118477e-20
7.1811251e-21
1.286350006e-20
1.773820306e-20
1.82623389e-21
1.728525819e-21
2.198947509e-21
1.109584754e-20
2.613515863e-22
3.212496967e-20
1.158569865e-21
4.774241385e-22
3.759540999e-21
2.656555747e-22
4.288276589e-21
7.766630514e-21
4.050272053e-21
7.168230778e-21
3.135414034e-22
2.934139223e-21
2.29297398e-21
1.297819187e-20
1.335038475e-21
6.568540952e-21
6.146767943e-21
1.939461958e-20
3.380122241e-20
3.032073221e-20
1.909506094e-21
6.302735807e-21
4.982713024e-21
4.489315806e-22
1.131499421e-21
1.871478422e-21
5.069770482e-22
2.59965181e-21
2.020616069e-21
1.468766097e-21
1.150460906e-20
1.666957016e-21
1.428869643e-20
5.655845167e-21
1.328383194e-21
3.548989353e-21
3.368093305e-21
9.628731807e-21
1.313524728e-21
3.017445956e-22
1.678681698e-22
2.426569317e-20
1.859944116e-21
5.007695351e-21
4.960931122e-21
1.172193392e-20
1.891147029e-20
1.21055231e-21
4.645606644e-21
4.831948944e-21
1.695383109e-20
2.394248457e-21
6.751436723e-21
5.839766667e-21
4.212240574e-21
1.42965998e-20
8.416583248e-21
1.760180437e-21
1.604963749e-21
3.939732297e-22
2.281256635e-21
6.779955808e-22
2.49189037e-21
1.057363339e-21
3.834343555e-21
2.150163177e-20
3.537548409e-21
1.813314096e-22
2.173186293e-21
1.274970894e-20
1.516487924e-21
1.368973183e-22
5.074444877e-21
1.159208286e-20
8.744563902e-21
1.107131648e-22
4.296301719e-21
7.398381686e-22
1.342524292e-20
1.456068253e-20
5.960260342e-21
4.317547853e-21
6.287240653e-21
7.961093636e-22
4.215339331e-21
1.782892183e-20
1.872649162e-20
1.129299009e-20
9.237052777e-21
4.74998634e-22
4.67767047e-21
4.85016724e-21
1.320445385e-21
3.44267485e-21
4.957895692e-21
1.769718451e-21
9.930155247e-24
2.259311591e-21
1.471646919e-20
1.885496499e-20
8.97582312e-21
1.163347631e-20
3.605780318e-21
5.488050965e-21
2.207217411e-21
1.537545664e-21
1.193688521e-20
3.981265685e-20
1.492471292e-21
7.642706824e-21
1.477674739e-20
6.9710121e-22
9.507814265e-22
1.798467761e-21
1.884289125e-21
2.004068634e-20
3.45330098e-21
1.235804808e-21
2.3567598e-20
1.90127988e-22
1.730607502e-20
1.818952617e-22
1.561942118e-20
4.797926866e-21
6.48928048e-22
3.071567299e-21
5.085854116e-21
2.68434396e-22
9.519841172e-21
1.458843652e-21
4.593784597e-21
1.207337646e-22
9.018570906e-21
1.531604243e-20
3.018976566e-20
2.066779124e-22
3.326905353e-22
9.755687658e-21
4.930316066e-21
1.896619279e-21
8.909381557e-21
6.251267076e-21
1.561797008e-20
4.991817691e-22
4.585182783e-22
2.26224063e-20
3.687874297e-21
6.325157441e-21
5.00230033e-21
4.480990375e-21
1.737759222e-20
5.069909714e-21
4.361570432e-21
4.061200108e-21
9.809929756e-22
2.662966598e-21
3.293511516e-22
1.622585095e-20
9.123794764e-23
2.28048706e-21
6.588470744e-21
9.905823081e-22
5.858070587e-21
3.006375559e-22
2.206518164e-21
2.78825282e-21
9.574830268e-21
6.522518146e-22
3.418648709e-20
3.803416471e-20
4.384688299e-21
1.616161875e-20
1.043035143e-20
9.050243818e-21
5.645496697e-21
2.64211372e-20
5.09203508e-21
2.371183484e-21
4.68944941e-23
3.074711072e-20
2.121973017e-21
4.444912347e-21
3.081874407e-21
9.095759987e-22
2.27558159e-21
2.667645599e-20
1.998063687e-21
5.832252268e-21
6.80608717e-21
1.992965466e-21
1.380276823e-21
4.214324926e-21
1.13460307e-20
8.439637159e-21
3.464404899e-21
1.092857729e-20
1.112433146e-20
6.095866995e-21
1.438593424e-21
2.150538352e-21
6.935264802e-22
3.21876734e-21
3.137198802e-21
4.781074209e-21
2.275924113e-20
3.043707466e-20
9.066849585e-21
8.689146985e-21
1.070889058e-21
1.767183092e-21
1.679588154e-21
5.669275991e-22
2.857580225e-20
2.925407983e-21
5.786023268e-21
2.669428756e-21
3.267863429e-20
9.154899669e-21
3.282949058e-21
1.724178158e-20
3.187378376e-23
7.802288005e-21
7.838329803e-21
4.337936723e-21
6.622056184e-21
3.89563866e-21
2.040711667e-21
1.808352255e-21
7.629174401e-21
2.004342174e-21
7.646712643e-22
8.784023283e-21
1.251676223e-21
5.659784561e-21
1.289204332e-22
9.301733916e-21
5.546543426e-21
2.362012382e-21
2.699727013e-21
1.283042317e-20
3.443584282e-21
1.255741717e-20
9.068028437e-22
9.608495009e-21
1.336459248e-21
1.679351613e-20
3.451081175e-21
6.355133752e-21
1.543524094e-20
5.247641455e-21
3.555703907e-21
1.652327243e-20
2.553194297e-20
1.812730511e-20
1.062048162e-20
1.126141374e-20
2.641410645e-21
8.218375317e-21
8.151871538e-22
1.154343028e-20
4.221566963e-21
1.0340078e-20
3.660267555e-21
1.886843518e-21
2.011896028e-21
6.374254737e-21
2.809306123e-21
1.484318023e-21
5.327052125e-21
1.599455669e-21
4.441068718e-21
1.367501841e-22
1.481249958e-21
5.867990525e-21
1.245830502e-21
5.379434347e-21
6.03082902e-21
1.257195408e-21
2.755620408e-22
4.70020593e-21
5.560127492e-21
2.816211517e-20
4.233624463e-21
5.432499323e-21
8.573106776e-22
6.602489898e-22
5.740981577e-21
1.124187131e-21
6.258517261e-21
7.527534454e-21
1.263963412e-20
1.443750612e-20
8.023291016e-21
9.560462452e-23
4.086881511e-21
2.399660295e-21
5.12891254e-21
2.043657451e-20
2.779173466e-21
5.677389161e-21
6.744241341e-21
3.614647789e-20
7.91951475e-21
1.260299648e-21
1.72862068e-21
6.093541236e-21
9.801220371e-22
5.475988467e-23
8.148163657e-21
6.768288618e-21
1.160740059e-20
7.566679756e-21
1.453173402e-22
4.726489196e-23
1.3666564e-21
1.503167278e-20
1.830113677e-21
1.549222011e-21
1.468581758e-20
2.856783655e-21
2.090468703e-22
4.228094921e-21
5.256445755e-21
1.889447075e-20
4.007240754e-21
8.331901006e-21
1.520454877e-21
1.211512646e-21
1.790073498e-20
1.08189024e-21
1.038119631e-20
8.333840034e-21
9.175537346e-20
4.238836858e-22
1.494511474e-20
3.824114026e-20
1.284404177e-21
1.355373372e-20
5.195352965e-21
6.187565301e-21
7.61039875e-21
7.611394514e-21
1.286506322e-20
3.953252738e-20
1.459320557e-20
3.857103795e-21
7.850887301e-21
1.531751539e-21
4.29973931e-21
7.603214086e-21
2.439077363e-21
7.892481875e-21
9.214186849e-21
1.852773655e-21
4.524665412e-21
2.18645042e-22
4.375234027e-21
1.084285949e-20
9.775063844e-22
2.164310603e-21
9.989821849e-21
1.976120233e-21
5.566496645e-22
1.732229192e-21
1.274259762e-20
3.98814449e-22
3.55414314e-21
1.669232783e-21
2.659601471e-21
3.314416853e-21
4.006888658e-21
2.129918965e-21
9.26729161e-21
9.337580054e-22
1.184167709e-22
2.328996119e-21
6.811480644e-24
3.472968549e-21
2.095826054e-21
5.903935295e-21
2.192233674e-21
8.063008482e-21
2.334415214e-21
1.746354566e-21
1.530569075e-20
6.068009773e-21
1.198617061e-20
4.397861547e-21
3.052643953e-23
2.545322716e-21
2.291076027e-21
6.842152401e-22
6.908948835e-21
1.25278109e-20
1.378077341e-21
1.332273852e-21
8.479538149e-21
3.500705503e-21
4.137167822e-21
6.913564401e-22
1.957792101e-20
1.556195025e-20
5.700020872e-23
4.968256786e-23
1.027121932e-20
3.680533239e-21
1.045555696e-21
5.918768676e-21
9.776065181e-21
1.158250462e-20
4.333954e-22
3.92250844e-21
1.3053465e-20
3.043237715e-21
2.700570366e-21
4.631371195e-21
5.941821101e-21
9.212476056e-22
2.816916432e-21
8.194525922e-21
2.65049335e-21
8.434393665e-21
1.48856172e-21
8.195578347e-21
9.274369643e-21
1.290105117e-22
9.824406099e-21
8.52246621e-22
3.289625018e-21
2.984883798e-21
6.955755508e-22
1.185051674e-21
1.843590884e-20
8.30235037e-21
1.624389779e-21
2.831083793e-20
4.50753817e-21
4.616613864e-21
1.111295753e-20
1.739441503e-21
1.374772929e-21
2.868633742e-20
6.96145084e-21
7.666650584e-22
2.166001606e-20
3.93842905e-22
2.531034071e-20
1.915011726e-20
2.565398655e-21
4.61289503e-21
1.252710409e-21
1.279821178e-21
9.604526334e-21
2.474324579e-21
2.115460172e-21
6.300941942e-21
2.420940939e-21
8.593629296e-21
1.744330074e-22
2.023889885e-21
4.195573027e-21
4.505111313e-21
6.585419685e-22
5.120239691e-22
1.205315576e-20
2.046528276e-21
3.043177789e-21
1.035571266e-21
6.151318826e-22
3.191438441e-21
5.572154826e-21
3.635938757e-21
1.612615052e-21
3.766286472e-21
1.070995192e-20
9.982304315e-21
2.936243073e-21
3.208485684e-21
3.333671894e-22
4.846969495e-21
4.765278948e-22
6.215248057e-21
1.110036597e-19
8.091835004e-22
7.366644988e-21
7.594417777e-21
1.435277006e-21
3.023687065e-21
8.778531288e-22
7.590685746e-21
3.089552348e-21
2.901735457e-21
3.239231497e-22
5.688346892e-21
8.909199892e-21
8.845178457e-21
5.645330181e-21
1.37528627e-21
1.735689775e-20
9.786800478e-21
1.481805661e-20
3.670024199e-21
8.28030307e-21
6.560193244e-21
1.867039585e-21
1.24866688e-20
7.855593507e-21
1.792320742e-21
2.406286433e-21
9.340338628e-21
5.317845736e-21
5.87530796e-21
1.320817893e-21
2.013663167e-22
2.059071976e-21
1.623269497e-21
8.90120538e-22
2.256245889e-21
4.053150334e-22
3.764317968e-22
4.211889942e-21
6.794233987e-21
1.71753721e-20
3.71725398e-20
5.443819239e-21
3.238723627e-22
5.567417045e-21
7.88908956e-21
6.246170399e-21
2.521269267e-21
3.421500806e-21
1.292365812e-21
1.036944284e-21
7.614781689e-21
2.478280525e-21
6.311257074e-21
3.616980154e-21
7.159013902e-21
2.380903415e-21
9.465775254e-21
1.404866511e-21
3.372249833e-21
7.954595277e-22
2.793594515e-20
5.82714547e-21
2.062969865e-20
6.677839238e-21
9.158495641e-22
3.271501967e-20
4.999683361e-22
2.499215035e-21
1.677763879e-21
4.481551019e-21
4.737906258e-22
8.99850535e-22
2.362220705e-20
1.029834846e-20
1.423621185e-20
1.238264203e-20
6.702429073e-21
2.179307605e-21
2.787288916e-21
3.00523426e-22
3.279099212e-20
3.721906161e-21
6.200818484e-22
1.201678202e-21
1.596635096e-21
4.045357714e-20
3.294892936e-21
3.899771465e-23
3.337079837e-21
5.848525046e-21
1.552147583e-20
5.207905042e-22
1.001815218e-20
8.364304355e-22
9.483956765e-22
3.793866097e-21
3.519407743e-21
1.429216304e-21
1.275460393e-20
5.892671724e-21
3.679355719e-21
2.530958922e-21
9.454766195e-23
3.412377565e-21
7.626529398e-21
7.006503988e-21
2.266047053e-21
8.017741987e-21
2.296895615e-21
2.475665458e-21
1.561147568e-21
8.149465841e-22
5.797579202e-21
1.274192503e-21
1.933189178e-22
7.803122346e-21
1.082172782e-21
8.539909986e-22
6.447495706e-21
9.594774232e-21
9.596292041e-21
3.465065551e-21
4.636578108e-21
9.668635161e-21
4.101614623e-21
1.056616354e-20
1.976806116e-20
9.509920183e-21
1.955976098e-20
1.15773826e-21
3.710740995e-21
1.880860317e-22
3.050713527e-21
3.980218079e-20
2.24748938e-21
6.498582606e-22
3.107046934e-21
4.873538581e-21
8.16773326e-21
2.987296665e-20
4.01206814e-21
1.704955738e-21
6.281362988e-21
8.47014522e-22
8.609262938e-21
2.343785227e-21
1.109119648e-20
1.433179779e-21
3.511287694e-22
4.683245236e-21
3.209507622e-21
7.893094858e-21
2.627878844e-21
2.504226774e-21
3.070310064e-21
2.084896285e-21
3.115010946e-20
7.987077543e-21
7.744046768e-21
2.886341745e-21
2.281752148e-21
1.708751624e-21
5.968322586e-21
1.203174235e-22
5.608396434e-21
1.814523001e-21
2.392964793e-21
2.214567982e-22
1.011106987e-20
2.982453201e-22
9.338703823e-22
7.115363973e-23
7.093327593e-23
6.992288593e-21
4.47509949e-21
5.504304674e-21
7.207477449e-21
7.684095732e-23
5.855788645e-22
5.747450507e-21
5.139164773e-21
1.290288568e-21
2.301838722e-22
1.583030504e-21
7.284970552e-21
1.827464341e-20
6.167797769e-22
9.709204346e-22
9.935056168e-22
3.24482316e-21
5.60066821e-21
1.007455192e-21
6.149600747e-22
6.831047856e-21
1.132997161e-20
8.836096797e-21
5.002044973e-21
8.963572239e-21
1.176672167e-20
8.630604238e-22
2.479768106e-21
1.16717842e-20
6.549082956e-21
6.387858923e-22
2.498211768e-21
8.977765047e-21
8.082967732e-21
1.921230086e-22
1.292294477e-21
3.425049066e-22
3.710926333e-22
4.877689163e-21
7.405976886e-21
2.06425117e-22
3.590848121e-22
3.809400659e-21
4.889644006e-21
3.436940196e-21
1.363783868e-20
2.067295979e-21
8.536127081e-21
2.797540312e-21
1.593933599e-21
1.962235106e-21
9.805712698e-21
6.826065195e-21
1.149156019e-22
2.413796601e-22
7.370955021e-21
1.283499414e-21
1.918971112e-21
8.455132053e-22
4.65198045e-21
1.054363737e-21
2.194578999e-21
5.045076593e-21
1.251579811e-21
1.388855628e-20
1.620408482e-21
3.222328958e-21
2.628804039e-21
1.392295903e-21
4.899236606e-21
5.79661993e-22
3.256423286e-21
3.198974925e-21
1.857135248e-21
3.446136237e-21
1.119998814e-21
1.042525908e-20
7.926584249e-21
7.470883237e-22
8.151122764e-21
8.54929223e-21
2.999434066e-20
9.36627715e-21
5.783401276e-20
3.791037843e-21
2.659523535e-20
1.641031582e-20
2.282709244e-20
6.215688986e-22
2.156640746e-20
1.117003716e-20
5.17867936e-21
2.394652205e-22
2.267729076e-20
1.063493281e-20
1.783970738e-20
1.087402008e-21
2.479370428e-21
1.243502809e-20
1.692130357e-20
8.196535228e-22
7.443109337e-23
2.102336822e-21
3.358898419e-21
1.73597059e-21
1.255423525e-21
4.692516122e-21
5.397338968e-22
2.248001218e-20
2.717423687e-21
7.81650325e-22
2.757770051e-21
7.306330455e-21
3.416873993e-20
2.699178839e-21
9.146931766e-22
3.03084151e-20
2.404834776e-21
1.886206705e-20
6.434547218e-21
1.655389022e-21
3.958636527e-23
1.352415842e-20
3.71801018e-21
1.439152208e-21
3.890371075e-22
6.198479077e-21
1.704464758e-21
1.5003714e-20
1.4100954e-23
6.232164774e-21
2.539416276e-21
1.820814813e-21
1.390887843e-22
7.071207741e-22
1.417949005e-21
1.345893343e-21
2.985496876e-21
4.076590727e-21
1.860666298e-21
1.516454519e-21
5.484055196e-21
2.760607681e-21
9.785216148e-22
1.994784754e-21
6.58748132e-21
1.146694096e-20
4.87648182e-21
3.475494996e-22
5.616273375e-21
8.666884849e-21
6.143444339e-21
8.481569286e-22
7.239462574e-21
2.391818519e-20
2.444340692e-20
1.196317487e-20
9.282483975e-22
1.280564078e-20
2.547180327e-20
4.750017484e-21
1.554606298e-21
1.028933396e-20
3.046931404e-21
1.131285813e-20
6.555682548e-22
9.226555928e-22
1.34354436e-21
1.749691078e-21
1.702723614e-21
1.622542012e-21
9.188227038e-22
6.742653268e-21
2.118528788e-21
5.371767014e-21
8.76476985e-21
6.444233711e-21
9.93044126e-21
3.046252018e-21
9.888380368e-22
9.750366289e-22
1.483391457e-21
6.771924586e-21
1.368462941e-21
2.849355742e-21
1.522239913e-21
5.266699628e-21
6.867936154e-22
6.729790599e-22
6.5224656e-22
5.450100512e-21
1.10561086e-20
5.149792957e-22
9.186224308e-21
3.572391873e-21
8.846599162e-22
4.078845545e-21
2.208406512e-21
1.473641165e-21
9.459217358e-21
7.038567013e-22
3.450596111e-21
5.241308301e-23
2.418122618e-21
8.188203289e-22
6.827451758e-21
2.744464455e-21
2.616907635e-21
2.124311752e-21
4.302997772e-22
2.412746863e-21
2.03914903e-22
7.432750262e-21
3.182256529e-21
4.328812093e-22
1.613195465e-21
5.154801323e-21
9.239320796e-22
9.107096021e-22
4.805301673e-21
8.90980601e-21
4.901973543e-21
4.140881103e-22
3.480248952e-21
3.055376599e-21
1.330936897e-21
6.521533166e-21
4.389526083e-21
3.26174518e-20
8.948677131e-22
2.651709716e-20
9.144826766e-21
3.902823774e-22
1.3059253e-22
1.081592688e-20
1.47509892e-20
2.585912799e-21
2.561017775e-21
3.739716063e-21
6.311869316e-24
5.537719099e-22
3.148334146e-21
1.688893005e-21
3.739702462e-21
9.301077391e-21
1.937630688e-21
1.988935573e-22
1.361156168e-20
6.579711864e-22
7.042038122e-20
1.252934409e-20
9.09300297e-21
9.950085908e-21
3.597920606e-21
5.488353353e-20
8.288414459e-21
9.407891559e-22
3.201633542e-21
7.284927971e-21
5.140885422e-21
5.704681702e-22
5.951863588e-21
3.313491062e-22
1.14804109e-20
3.014289281e-21
2.2542253e-21
2.984872632e-21
1.40597078e-20
2.135688602e-21
4.571918238e-21
3.253139943e-21
1.021067611e-21
6.70310913e-21
2.623962594e-21
1.205888387e-21
4.333749367e-22
1.748944364e-21
5.372039116e-21
2.921627796e-21
6.734685069e-21
6.181410833e-22
2.5235237e-22
1.095822524e-21
9.902393097e-21
1.82565979e-21
6.406493564e-21
1.836753314e-21
2.475940372e-21
4.116779854e-21
3.791442523e-21
3.050734652e-21
2.006272075e-21
3.052007927e-21
1.723248857e-22
5.011611603e-22
1.078966207e-20
4.961417559e-21
2.95775727e-20
2.773475554e-21
6.962036808e-21
2.488342433e-21
1.086234685e-22
8.187159067e-21
1.103118871e-21
1.628309457e-20
2.631821297e-21
5.678959144e-21
8.228767115e-22
7.729462699e-21
5.164566592e-21
4.061702285e-22
5.451286569e-21
1.125337364e-20
1.989690198e-20
3.291831038e-21
6.699880698e-21
5.378838079e-22
1.728240904e-20
1.496184834e-20
1.088705475e-20
3.824874675e-20
1.655043144e-21
4.093636213e-20
4.752290263e-21
5.319043332e-22
8.290038436e-22
9.028010931e-21
5.319229229e-21
1.621056165e-22
2.035902477e-20
3.987868749e-21
2.749957939e-21
2.144803914e-21
2.368800542e-22
7.844694737e-22
2.481615386e-21
4.661255572e-22
1.30542625e-20
1.24427145e-20
2.708417681e-21
1.519120898e-21
5.89889446e-20
6.540794893e-22
8.133021223e-22
5.842557273e-22
4.375656632e-22
1.381612266e-21
1.140379563e-21
1.757526351e-21
2.531345948e-21
4.609190797e-21
1.711772267e-20
4.714543158e-21
6.876219118e-21
1.123340268e-20
5.260672246e-21
1.325523186e-21
3.872640614e-21
4.08077039e-21
7.430442982e-22
1.071253429e-20
1.075675792e-21
3.430901011e-22
1.500523302e-22
9.756653168e-21
6.571989503e-23
2.0267737e-21
3.857945722e-21
1.010735757e-21
8.378681452e-21
6.317368193e-21
1.068264726e-21
2.142303327e-21
1.283518662e-21
2.098886404e-21
5.536657334e-21
2.848216149e-21
4.56729581e-21
3.112151803e-22
4.30272164e-21
5.652004931e-21
1.325997155e-20
9.465693451e-22
1.890540129e-21
3.797280902e-21
6.069331155e-21
9.465319686e-24
4.779952452e-21
7.081936561e-22
7.110481015e-21
1.20523999e-21
3.031747397e-21
7.803108352e-23
1.511165685e-20
1.364259301e-22
3.311954469e-21
6.417271466e-21
1.187844648e-20
1.164739751e-21
7.515223595e-22
8.21225429e-21
2.288479386e-20
3.757409683e-21
6.097591922e-21
2.551797805e-20
1.305947751e-20
1.204128113e-20
8.225471799e-21
7.895861015e-21
7.501803064e-22
1.135275859e-20
1.996693059e-20
8.164572437e-22
3.160738964e-21
2.044284047e-21
3.434880432e-21
4.818643515e-20
1.315981804e-21
3.103055536e-21
7.948633858e-21
6.844591638e-21
1.05539374e-20
8.590765548e-21
8.917050096e-23
5.060669743e-21
9.0506419e-22
4.747859414e-21
7.228397638e-22
3.328752615e-21
1.771169415e-22
1.311895669e-21
8.248824376e-21
3.292974359e-23
3.09313293e-21
9.088156891e-22
5.696548719e-21
1.112780539e-21
1.345116358e-21
3.363218486e-21
6.921203498e-21
6.294327512e-21
1.356834619e-21
2.606833696e-21
2.168023808e-21
3.795674967e-22
9.163081262e-23
4.47733282e-21
2.365137502e-21
1.133375076e-22
1.036961803e-21
1.502466767e-21
3.589951446e-21
5.639591561e-22
5.000696641e-21
1.135710031e-20
4.321116775e-21
5.574760775e-22
4.366953633e-22
1.736436302e-21
2.329349887e-21
1.69528026e-21
2.687772682e-22
1.664041894e-21
7.612566279e-21
2.436632103e-20
5.006934602e-21
1.65475331e-20
5.616709627e-22
1.601022075e-20
1.681625193e-22
3.67793979e-21
2.466082727e-21
6.86407309e-22
3.527658504e-21
1.752468222e-23
2.860875528e-21
9.425965203e-21
1.658953894e-21
3.844292647e-22
6.723703126e-21
1.671604812e-21
9.575495112e-22
2.872622451e-21
7.250884547e-21
7.538995646e-22
1.297794164e-21
5.648015764e-22
1.614393792e-20
1.80389167e-21
3.163740593e-21
3.966976714e-21
1.403307782e-21
3.555157446e-22
5.201584471e-22
1.003565823e-21
7.99257351e-21
9.661111177e-21
4.178852867e-21
3.838271374e-22
5.036481306e-20
1.645587107e-20
3.587369395e-21
1.330534746e-21
2.117328316e-21
1.812762517e-21
2.064222435e-22
3.034398368e-21
7.079870584e-22
1.281762473e-21
6.972652642e-21
6.766262009e-21
3.594924481e-21
3.244468164e-20
7.61135056e-21
5.469685502e-21
6.066498299e-21
4.041192105e-22
9.680722861e-21
8.212173216e-21
2.086451526e-20
9.716670585e-21
2.849689664e-21
8.34272995e-21
2.071615892e-21
5.418314206e-21
6.578107889e-22
6.159890058e-21
6.651293978e-22
1.19896715e-20
5.34867535e-22
7.716216062e-21
7.038598806e-21
5.9552378e-21
3.353366199e-21
2.937264938e-22
7.085961168e-22
4.096489185e-21
2.289025539e-22
3.664288847e-21
1.774448389e-21
2.140097394e-22
5.514324495e-21
3.559043227e-21
9.320956594e-22
1.760142911e-21
2.557090146e-21
5.769035508e-21
8.571842707e-21
1.838009267e-22
1.930949006e-21
2.271633735e-22
1.702581216e-21
4.922911638e-21
5.85880926e-22
1.630981552e-21
2.216675413e-21
3.64852999e-21
5.748344687e-21
9.952755622e-22
6.473878673e-21
7.080772066e-21
9.192669629e-22
8.255186438e-21
1.118259083e-20
1.768230017e-21
3.357995492e-21
1.599790989e-21
3.497332245e-21
2.167313104e-21
5.286510107e-21
4.870255373e-21
2.134654481e-21
1.74679909e-21
1.442600943e-21
2.566259973e-21
2.72464587e-21
8.144700654e-22
1.09467225e-20
4.592793727e-21
2.551655724e-21
1.020256154e-20
1.280496007e-20
4.849145671e-20
7.538122354e-23
3.472429905e-21
1.925090134e-20
4.333112448e-21
3.296842185e-21
7.676971944e-22
1.456969621e-20
1.571386377e-20
6.073368455e-21
1.727253984e-21
1.089954955e-20
1.541306262e-22
2.33229412e-22
4.534894027e-21
2.878000386e-20
3.97360385e-21
6.217044914e-21
5.63593361e-22
3.098586187e-21
1.450096478e-21
3.96191075e-21
1.739443661e-21
2.567812119e-21
1.395722221e-20
4.049994879e-21
5.230877893e-21
1.263063834e-21
3.843415869e-21
2.146749242e-20
7.012414728e-21
5.350014586e-21
3.195086324e-20
1.468175312e-21
9.892180911e-21
7.307686769e-22
2.914222228e-21
9.847253354e-21
4.754608352e-21
2.834406336e-22
4.313391451e-21
2.050806105e-21
1.111862126e-20
6.111100296e-21
2.951964367e-22
1.436324108e-21
7.431486849e-22
3.672075907e-21
9.690756415e-21
1.584972974e-21
4.33547536e-21
7.370082177e-21
1.223198047e-21
2.610772228e-21
7.266955283e-22
5.709795956e-21
1.674877555e-20
1.668955639e-20
1.470093485e-21
4.01860666e-21
3.165122669e-21
3.818250189e-21
9.532007809e-21
2.317233121e-21
3.354999954e-21
5.67722408e-21
5.095708974e-22
6.353985715e-21
1.64579428e-21
1.183284478e-21
5.939878649e-21
1.061106904e-21
2.080431083e-20
8.982399349e-21
5.020135543e-21
9.102261846e-21
6.561582532e-21
1.590223883e-21
1.165857434e-21
3.262498853e-21
3.834897412e-21
1.530021654e-20
1.107212753e-21
1.717652147e-20
1.335546363e-21
8.168701432e-22
1.982981761e-20
1.669334362e-21
4.388808004e-21
4.796636188e-21
8.395667694e-21
2.37747899e-21
9.115970441e-21
4.858267038e-22
2.086928974e-22
4.307840894e-22
1.221612065e-21
2.564034092e-21
7.60733898e-23
4.831126377e-21
4.867858976e-22
1.258061218e-21
1.383666305e-20
1.182318505e-21
7.32033742e-21
1.072072892e-21
7.784478249e-21
1.456473106e-20
7.306242704e-22
2.819291477e-21
1.485631681e-21
1.126048026e-21
6.90007137e-22
6.50266744e-21
5.559571605e-21
1.173110896e-20
9.833824263e-22
1.485840229e-21
4.162219643e-22
9.62859888e-22
8.888122539e-22
1.47255054e-21
6.867716409e-21
1.797883737e-22
3.485654397e-21
6.144532723e-21
4.67775808e-21
2.603406175e-21
1.339560056e-20
2.218088852e-21
1.231966158e-21
4.783560332e-22
9.378275104e-21
8.205322963e-21
5.098862882e-21
6.665123276e-21
9.153638081e-22
1.686513129e-21
8.675286101e-22
5.28309399e-22
1.458867349e-21
1.453585616e-21
5.48373826e-22
9.665899737e-22
9.009072878e-21
2.497734337e-21
7.37650485e-21
1.561982804e-21
5.332795417e-21
3.620035455e-21
3.181315492e-21
5.094337854e-21
2.401400845e-21
8.280367046e-22
3.548914662e-21
1.500699441e-21
4.95960446e-21
1.751556445e-20
1.033178069e-21
7.340678404e-21
1.357754263e-22
5.2412551e-21
3.822575353e-21
4.535578921e-22
7.803473244e-22
3.091425609e-22
1.26518142e-20
3.953828251e-21
3.705200936e-20
1.59745332e-22
3.502770527e-21
5.128095937e-20
3.048225702e-21
4.838978526e-21
3.747098813e-21
2.232368945e-21
5.76705581e-22
5.126211492e-21
3.853678694e-20
8.95825462e-23
4.131783438e-21
9.436330071e-22
7.93467982e-21
9.615813122e-21
1.988891814e-21
5.074827052e-21
4.409354042e-21
4.285691441e-21
4.589717197e-22
3.96854579e-23
3.440889436e-21
1.060714383e-21
1.164042685e-22
2.021380398e-21
7.787319358e-21
8.579665611e-21
8.239690015e-22
2.01583047e-21
1.32341207e-21
1.943387448e-20
1.136509374e-21
5.933768848e-22
2.511818629e-20
9.776289963e-22
8.148753112e-21
1.722968289e-22
9.023363874e-21
1.15442296e-20
1.69726586e-21
2.032089122e-21
1.704444129e-21
5.831446602e-22
2.114088545e-20
8.458002272e-21
4.358273498e-21
2.067135787e-21
3.363216632e-23
8.895647081e-21
6.722365285e-22
3.92866322e-21
4.824561225e-21
2.772005818e-21
2.281701291e-21
6.867102037e-22
1.101417168e-21
7.891883566e-22
1.882977264e-21
1.148374784e-21
1.096597697e-20
8.194624873e-21
2.805191704e-21
1.396551672e-20
2.766203701e-21
7.922403908e-21
1.11412771e-21
2.231890383e-21
5.916580892e-22
1.935902292e-21
6.566561834e-21
2.836311735e-22
2.152376886e-22
2.31833442e-21
3.323802615e-21
1.469348755e-20