/*--------------------------------*- C++ -*----------------------------------*\
| =========                 |                                                 |
| \\      /  F ield         | OpenFOAM: The Open Source CFD Toolbox           |
|  \\    /   O peration     | Version:  2406                                  |
|   \\  /    A nd           | Website:  www.openfoam.com                      |
|    \\/     M anipulation  |                                                 |
\*---------------------------------------------------------------------------*/
FoamFile
{
    version     2.0;
    format      ascii;
    arch        "LSB;label=32;scalar=64";
    class       Cloud<dsmcParcel>;
    location    "0.006/lagrangian/dsmc";
    object      positions;
}
// * * * * * * * * * * * * * * * * * * * * * * * * * * * * * * * * * * * * * //

6872
(
(0.06097117784 0.01696271015 5.421010862e-20) 448
(0.03686633413 0.04858935363 0) 494
(0.05476056097 0.0287666725 -4.33680869e-19) 457
(0.07463341737 0.02452034636 0) 449
(0.07393218091 0.1445967795 -1.084202172e-19) 619
(0.07037641279 0.02308865187 5.421010862e-20) 449
(0.05325254897 0.06790955503 -4.33680869e-19) 516
(0.05222334604 0.07334082292 -1.084202172e-19) 526
(0.07605081064 0.0497574885 4.33680869e-19) 489
(0.05729778765 0.1092091267 -2.168404345e-19) 577
(0.06322943952 0.03383480043 -1.084202172e-19) 468
(0.05168704263 0.01521297347 -2.168404345e-19) 446
(0.06672751624 0.02591191143 -2.168404345e-19) 458
(0.06592938992 0.0320994843 0) 468
(0.05988631382 0.04763623314 -1.084202172e-19) 487
(0.06894704521 0.03437007922 -1.084202172e-19) 469
(0.07510916389 0.04502446553 0) 479
(0.05999988202 0.016424339 -4.33680869e-19) 447
(0.06160067124 0.04466516885 -3.252606517e-19) 478
(0.06796219017 0.04243051047 2.710505431e-19) 478
(0.01908555258 0.03951627425 8.470329473e-20) 482
(0.02825746895 0.01500089065 0) 453
(0.07423714963 0.02979007313 -1.626303259e-19) 459
(0.05280015627 0.1035453388 0) 566
(0.06003058776 0.04019071024 1.084202172e-19) 477
(0.06826918629 0.04282788227 -5.827586677e-19) 478
(0.06307134648 0.04308384466 0) 478
(0.04870783326 0.01895437239 0) 446
(0.04997011112 0.04545788727 -2.710505431e-20) 486
(0.06586300216 0.03382908643 0) 468
(0.05702297131 0.0443738521 1.626303259e-19) 487
(0.06153865169 0.04647089731 4.33680869e-19) 488
(0.05000328432 0.01671762679 8.131516294e-20) 446
(0.0545491765 0.0367727413 0) 477
(0.06659034409 0.02060120057 1.626303259e-19) 448
(0.06763067039 0.0433379008 0) 478
(0.05358661589 0.03170997878 0) 467
(0.0592525226 0.05129553108 4.33680869e-19) 487
(0.07304599214 0.04149592126 4.33680869e-19) 479
(0.06805217769 0.02541177941 0) 458
(0.06346869663 0.02842786752 5.421010862e-20) 458
(0.07351947644 0.05591928028 6.505213035e-19) 499
(0.04852456135 0.03192137704 -2.032879073e-20) 466
(0.03943378468 0.01516114676 1.084202172e-19) 445
(0.02894530805 0.05741132604 -2.168404345e-19) 503
(0.0682475546 0.01892389601 -2.168404345e-19) 448
(0.04814849199 0.02715644336 0) 456
(0.03707858921 0.02367071665 -2.168404345e-19) 454
(0.05925842064 0.06162909007 1.084202172e-19) 507
(0.06190609559 0.04159694404 -2.439454888e-19) 478
(0.02733164885 0.01473044693 -4.33680869e-19) 453
(0.03189282247 0.0165327081 0) 454
(0.06603964982 0.04507080863 0) 478
(0.06542136848 0.02762036808 5.421010862e-20) 458
(0.03854553871 0.0391850666 -3.794707604e-19) 475
(0.04176365197 0.02369151694 1.084202172e-19) 455
(0.03554415676 0.06664058293 0) 514
(0.04387637388 0.0212947545 -1.084202172e-19) 455
(0.0597449385 0.03436321228 2.168404345e-19) 467
(0.04868099342 0.02559374638 1.084202172e-19) 456
(0.05724837419 0.01759648149 1.084202172e-19) 447
(0.0497231711 0.02170457561 0) 456
(0.07468208544 0.02867954627 2.168404345e-19) 459
(0.07377712371 0.03324068363 1.084202172e-19) 459
(0.06155899951 0.01947632667 0) 448
(0.06860668184 0.07419754418 6.505213035e-19) 519
(0.07371116944 0.0799742651 -1.084202172e-19) 529
(0.02513316986 0.0476159831 -1.084202172e-19) 493
(0.01630018445 0.01688821264 0) 452
(0.03107167536 0.1579487233 2.303929617e-19) 644
(0.05047723259 0.04171205558 -1.084202172e-19) 476
(0.06922166409 0.04401366077 0) 479
(0.07205129186 0.05410126039 0) 489
(0.04986403612 0.02803325991 4.33680869e-19) 466
(0.04264495427 0.01837811405 -5.421010862e-20) 445
(0.05527567899 0.01653654195 0) 447
(0.05692192176 0.04179169678 -1.084202172e-19) 477
(0.06462977952 0.06443983098 2.168404345e-19) 508
(0.07210217024 0.05826496571 1.084202172e-19) 499
(0.03005589135 0.02081303569 0) 453
(0.05220486042 0.06281754104 0) 506
(0.05092644632 0.05808695269 2.168404345e-19) 506
(0.06388843756 0.02063785548 -5.421010862e-20) 448
(0.06637029024 0.05190619486 0) 488
(0.07235885219 0.02256769143 6.606856989e-20) 449
(0.06775180302 0.01922266193 2.168404345e-19) 448
(0.07541227441 0.03261839636 0) 459
(0.06981473517 0.03783740282 0) 469
(0.058147783 0.04328155931 1.084202172e-19) 477
(0.029941744 0.03476063597 2.168404345e-19) 473
(0.06153579229 0.04011286803 0) 478
(0.04805053464 0.01654672188 -2.57498016e-19) 446
(0.06834810293 0.02676917685 0) 458
(0.04759869281 0.08564614339 -2.168404345e-19) 546
(0.06728482997 0.02091710281 1.084202172e-19) 448
(0.07093414254 0.02343368084 1.084202172e-19) 449
(0.06025890361 0.07273144485 -2.168404345e-19) 517
(0.03952695156 0.05793558979 1.355252716e-19) 505
(0.06973820552 0.05734215944 0) 499
(0.05513857171 0.01646275047 1.956646108e-19) 447
(0.07484215212 0.03806682743 0) 469
(0.07203022726 0.02856166188 -1.355252716e-19) 459
(0.0637802239 0.07397408054 4.33680869e-19) 528
(0.0744856822 0.04873595832 2.168404345e-19) 489
(0.06001025749 0.03732086398 0) 467
(0.003572191735 0.08390741391 -8.131516294e-20) 550
(0.04343580243 0.0294393055 -1.084202172e-19) 465
(0.03346293062 0.1438096519 -2.710505431e-20) 624
(0.06992686515 0.01939422028 0) 449
(0.0732565711 0.01981410197 0) 449
(0.004627713093 0.009719921756 0) 450
(0.04596871188 0.03088620901 1.084202172e-19) 466
(0.04861735367 0.04028533161 -2.168404345e-19) 476
(0.04711983635 0.02068608916 0) 456
(0.06975326167 0.05540647747 5.421010862e-20) 499
(0.04177644581 0.03854955546 0) 475
(0.05607044165 0.1105623372 -8.131516294e-20) 577
(0.06901466205 0.05559708107 1.084202172e-19) 499
(0.05488537879 0.03212637598 2.168404345e-19) 467
(0.05962081141 0.02231077985 -6.505213035e-19) 447
(0.05905246132 0.02548829286 2.168404345e-19) 457
(-0.002701088049 0.02532521971 0) 79
(0.03815352587 0.0461884901 4.33680869e-19) 485
(0.07023260421 0.02502645313 0) 449
(0.004252439022 0.02416796448 0) 470
(0.07398075334 0.02720335005 -2.168404345e-19) 459
(0.06192659202 0.02842617582 -4.33680869e-19) 458
(0.05229636582 0.0209493158 -2.168404345e-19) 446
(0.02636918123 0.08006384526 2.168404345e-19) 533
(0.06609365023 0.03034690111 -3.252606517e-19) 458
(0.02445664955 0.01781716677 -2.710505431e-19) 453
(0.05894456565 0.06579712782 2.168404345e-19) 517
(0.06832608399 0.02506736681 4.33680869e-19) 448
(0.05297248335 0.01476523904 2.168404345e-19) 446
(0.05879493099 0.01743441304 0) 447
(0.05368945705 0.04342079431 -4.201283418e-19) 487
(0.06033618367 0.02375542899 0) 457
(0.07094115294 0.09035347077 0) 549
(0.06463326727 0.1000348006 0) 558
(0.06824340333 0.02123243174 1.084202172e-19) 448
(0.05200467241 0.01580637 0) 446
(0.0669685807 0.03071840133 -2.168404345e-19) 458
(0.06990608541 0.01887842957 -2.168404345e-19) 449
(0.04792890068 0.01754424558 -2.168404345e-19) 446
(0.07387418383 0.02949661186 0) 459
(0.0738842522 0.04865064651 0) 489
(0.07222705425 0.04315999192 2.303929617e-19) 479
(0.04335996844 0.01476114936 -5.421010862e-20) 445
(0.05437617789 0.04146653388 0) 477
(0.05183202172 0.02076319326 2.168404345e-19) 446
(0.0571150283 0.0720013749 2.168404345e-19) 517
(0.05612417025 0.01723578871 1.084202172e-19) 447
(0.07512533643 0.03207962973 -2.168404345e-19) 459
(0.0739524336 0.07913490037 -8.131516294e-20) 529
(0.05262695586 0.02416756945 5.421010862e-20) 456
(0.006054444032 0.003018856611 -2.168404345e-19) 440
(0.0588244362 0.02436838544 0) 457
(0.06086839927 0.03106011585 0) 467
(0.06842493493 0.04850290759 0) 488
(0.06724926437 0.02615492018 2.168404345e-19) 458
(0.07061345896 0.08341995161 -4.33680869e-19) 539
(0.06227889985 0.02518961659 -1.084202172e-19) 458
(0.04925178505 0.02698950749 2.168404345e-19) 456
(0.06283846498 0.07183868344 1.490777987e-19) 518
(0.05237406924 0.05138466636 0) 496
(0.05704005797 0.02190232691 0) 447
(0.04568262302 0.02673898751 0) 465
(0.03970810008 0.01676976185 0) 445
(0.03941630529 0.02100026144 -2.168404345e-19) 455
(0.07482499552 0.03098268262 0) 459
(0.0750400381 0.07147504029 3.252606517e-19) 519
(0.0695356999 0.03645705479 1.355252716e-19) 469
(0.07417747418 0.0442129193 6.776263578e-20) 479
(0.05068287873 0.01902774809 1.084202172e-19) 446
(0.05244987941 0.02140012666 4.33680869e-19) 456
(0.07512103611 0.0254586138 0) 449
(0.07233805927 0.06369999488 -1.795709848e-19) 509
(0.06717970383 0.06329746638 -5.421010862e-20) 508
(0.07310505007 0.02303508906 -8.131516294e-20) 449
(0.05661626216 0.03592790809 0) 467
(0.04679315483 0.02013281262 -2.168404345e-19) 456
(0.06016916744 0.01787709638 -4.33680869e-19) 447
(0.02658367334 0.05648578694 0) 503
(0.0264343233 0.06131170105 5.421010862e-20) 513
(0.06262781018 0.0247513957 0) 458
(0.07003478621 0.04955064878 -1.084202172e-19) 489
(0.05768933793 0.01666499288 -2.168404345e-19) 447
(0.04441584783 0.01298685676 2.168404345e-19) 445
(0.01452951814 0.01366949693 -1.084202172e-19) 451
(0.06634833495 0.02514279001 -2.168404345e-19) 458
(0.06870592856 0.05756807036 -5.421010862e-20) 499
(0.07611446777 0.03473413609 -2.168404345e-19) 469
(0.01028044543 0.05200134603 -3.252606517e-19) 501
(0.0694544928 0.07505370109 2.168404345e-19) 529
(0.05934335932 0.02462750332 2.168404345e-19) 457
(0.06072945646 0.02506879595 0) 457
(0.04323780361 0.03486483675 0) 475
(0.03171839073 0.07569614948 -1.084202172e-19) 534
(0.07022846766 0.02100119309 -1.084202172e-19) 449
(0.0308729034 0.01980638978 -4.878909776e-19) 454
(0.04385098773 0.02348399874 0) 455
(0.06219651796 0.03212440673 -6.91178885e-19) 468
(0.05946125726 0.0215482274 0) 447
(0.06738144655 0.08447719413 -2.710505431e-19) 538
(0.06788572948 0.04801150565 4.33680869e-19) 488
(0.03345401436 0.03876618923 -5.421010862e-20) 484
(0.04499551483 0.02140176136 -2.168404345e-19) 455
(0.05562201223 0.05043353341 0) 487
(0.03068571519 0.009603765905 -1.084202172e-19) 444
(0.06276976053 0.04542340094 -4.33680869e-19) 488
(0.04873262981 0.07595325003 3.252606517e-19) 526
(0.02695425919 0.007247431028 -4.33680869e-19) 443
(0.06489192152 0.0483792887 -2.710505431e-19) 488
(0.05138912459 0.02580685051 -2.168404345e-19) 456
(0.05766089429 0.03750584952 0) 477
(0.06930689058 0.06330783529 2.168404345e-19) 509
(0.07122465427 0.05570524816 0) 499
(0.06454476578 0.0429514658 -2.168404345e-19) 478
(0.02938760063 0.02993939105 0) 473
(0.04224056639 0.03077972126 3.523657061e-19) 465
(0.03266629459 0.01031224821 -2.168404345e-19) 444
(0.03957030805 0.01797751521 2.168404345e-19) 455
(0.04394857263 0.02563363013 -2.168404345e-19) 455
(0.06297385348 0.06935529713 1.084202172e-19) 518
(0.07275471954 0.0496528179 3.252606517e-19) 489
(0.06876687184 0.05284401452 -2.168404345e-19) 489
(0.02823175854 0.01047560336 5.421010862e-20) 443
(0.03652701317 0.1154885076 -2.168404345e-19) 584
(0.07358261295 0.05763412974 1.084202172e-19) 499
(0.06478992103 0.04993953963 -3.235665859e-19) 488
(0.05518069812 0.03510096119 5.421010862e-20) 467
(0.06920645018 0.07043934439 0) 519
(0.06736976423 0.07877424723 0) 528
(0.07140319202 0.1225788065 0) 589
(0.05738522395 0.02278908805 0) 457
(0.0629833339 0.0473208343 0) 488
(0.05534784012 0.05121353674 0) 497
(0.05690201492 0.02501454542 -2.168404345e-19) 457
(0.0585790707 0.01926510093 2.168404345e-19) 447
(-0.001498566986 0.02173371478 -2.168404345e-19) 59
(0.0682643153 0.07291591926 0) 518
(0.06477233454 0.03924093491 0) 478
(0.07324407073 0.06656680574 0) 509
(0.02521403362 0.009681675824 5.421010862e-20) 443
(0.07215810517 0.08237064687 -2.168404345e-19) 529
(0.06229228017 0.06363560012 0) 508
(0.04246135547 0.07793146386 -2.168404345e-19) 535
(0.03555825057 0.01629568593 -1.084202172e-19) 444
(0.06282477015 0.02187901847 2.168404345e-19) 448
(0.07267959431 0.06179008381 -4.33680869e-19) 509
(0.03654008059 0.07944778061 2.168404345e-19) 534
(0.04720503521 0.05485618673 3.794707604e-19) 496
(0.06848938162 0.1462616248 4.33680869e-19) 628
(0.01696950299 0.01099226938 -5.421010862e-20) 442
(0.03965608591 0.07118740779 0) 525
(0.07343865337 0.032292261 2.168404345e-19) 459
(0.05631478957 0.05820844038 1.084202172e-19) 507
(0.03344060762 0.03758073897 4.33680869e-19) 474
(0.06676450636 0.02785657893 5.421010862e-20) 458
(0.03891811647 0.04953476176 -2.168404345e-19) 495
(0.07234045448 0.04524922678 1.084202172e-19) 479
(0.07295144491 0.04555595782 -5.421010862e-20) 479
(-0.005304476593 0.005493570895 1.084202172e-19) 19
(0.06577300306 0.01876130181 0) 448
(0.06063606707 0.02261997815 0) 447
(0.01080867564 0.0266400478 5.421010862e-20) 471
(0.01811125826 0.004904225344 1.084202172e-19) 442
(0.06503195547 0.03387072646 4.33680869e-19) 468
(0.07463413116 0.02918147297 0) 459
(0.06015144969 0.06124748472 1.084202172e-19) 507
(0.06260860227 0.03296164857 -2.168404345e-19) 468
(0.0636732198 0.04231246287 2.168404345e-19) 478
(0.04520706984 0.09311455218 0) 555
(0.05751687161 0.03372100646 -8.131516294e-20) 467
(0.04173700694 0.030296815 -2.168404345e-19) 465
(0.06631890317 0.02640222628 0) 458
(0.03896390667 0.05152279413 2.168404345e-19) 495
(0.0693032326 0.04990012129 0) 489
(0.0687637427 0.02517000432 0) 449
(0.00603003252 0.04413183149 4.33680869e-19) 490
(0.05295738344 0.03634364888 4.33680869e-19) 476
(0.07508761957 0.05901074718 2.168404345e-19) 499
(0.05749868589 0.02640495392 -1.897353802e-19) 457
(0.03148472312 0.1168058243 -2.168404345e-19) 584
(0.06084641658 0.02354170746 4.33680869e-19) 457
(0.07514919431 0.07117111729 2.168404345e-19) 519
(0.04959466948 0.1099310464 -1.084202172e-19) 576
(0.05920930527 0.1274421355 -6.505213035e-19) 597
(0.07159874432 0.02111993173 0) 449
(0.07024799702 0.03414509182 2.168404345e-19) 469
(0.05443225419 0.01555482038 -4.33680869e-19) 447
(0.05372923535 0.03140696705 -4.33680869e-19) 467
(0.06870021569 0.03118319949 -2.168404345e-19) 459
(0.03616958191 0.02570093018 -4.33680869e-19) 464
(0.05821783829 0.0619611938 0) 507
(0.0612146463 0.05187019045 0) 498
(0.06367203375 0.06917389166 6.776263578e-20) 518
(0.06478591837 0.06344266536 -2.032879073e-20) 508
(0.07335076733 0.02366431932 0) 449
(0.06441730027 0.03108781204 0) 458
(0.05510536753 0.02170872725 2.168404345e-19) 447
(0.07164642716 0.04887946279 5.421010862e-20) 489
(0.0643415174 0.01856358992 -2.710505431e-20) 448
(0.02087721071 0.03714888733 0) 482
(0.05836317391 0.04691094716 0) 487
(0.03235452256 0.03140756746 2.168404345e-19) 474
(0.05708131975 0.02357968421 -3.117081246e-19) 457
(0.07434481675 0.1001548716 2.981555974e-19) 559
(0.07108532336 0.02563240784 2.168404345e-19) 449
(0.06323567128 0.04938422867 5.421010862e-20) 488
(0.07541954532 0.06075844525 -2.168404345e-19) 499
(0.02944899096 0.053876936 2.168404345e-19) 503
(0.06914534925 0.08054662641 0) 529
(0.05290465306 0.09225211209 0) 546
(0.05199962755 0.09305613512 2.168404345e-19) 556
(0.06149728565 0.1305570046 -2.710505431e-20) 608
(0.06795437064 0.08607037367 2.168404345e-19) 538
(0.06550954995 0.1357175414 1.084202172e-19) 608
(0.06897174036 0.1573123588 2.168404345e-19) 639
(0.0390134439 0.02714655871 0) 465
(0.05116858091 0.06380152411 -1.084202172e-19) 506
(0.02959864819 0.02128391376 0) 453
(0.02012146009 0.03037792166 -1.084202172e-19) 472
(0.04238432298 0.03711571882 0) 475
(0.05991745428 0.02233200448 -2.168404345e-19) 447
(0.03109927476 0.03583032364 -4.33680869e-19) 474
(0.06617671971 0.01979377326 -2.168404345e-19) 448
(0.03152129152 0.009427797277 -2.168404345e-19) 444
(0.038718937 0.03640254962 -5.421010862e-20) 475
(0.05502592124 0.01697712246 1.626303259e-19) 447
(0.02529365874 0.017311498 -3.252606517e-19) 453
(0.06673524928 0.01840371183 -2.168404345e-19) 448
(0.06763368396 0.0411991817 3.252606517e-19) 478
(0.07328191752 0.05354584792 0) 489
(0.06582134013 0.05054419817 1.084202172e-19) 488
(0.03033924016 0.01556637186 0) 453
(0.06441964929 0.06115284039 2.710505431e-20) 508
(0.0641048704 0.02548843523 1.084202172e-19) 458
(0.05638357029 0.08803143602 2.710505431e-19) 547
(0.02039884211 0.03272920878 -2.168404345e-19) 472
(0.0514885198 0.1501170206 -2.168404345e-19) 636
(0.03891166215 0.145401689 0) 625
(0.04637272435 0.0233983926 1.219727444e-19) 456
(0.05099453652 0.01575836917 1.084202172e-19) 446
(0.05869879823 0.01800589069 0) 447
(0.07269716668 0.02448826917 -3.523657061e-19) 449
(0.06912098427 0.01958755603 -2.710505431e-19) 449
(0.008049661992 0.0202621074 2.168404345e-19) 461
(0.03100728376 0.01316379457 1.084202172e-19) 444
(0.05352124303 0.06511181334 1.626303259e-19) 517
(0.06526456412 0.05162484552 0) 488
(0.06294567292 0.02830460554 0) 458
(0.06219616538 0.04221061509 0) 478
(0.07161197369 0.08844836055 0) 539
(0.07393075547 0.04099394671 0) 479
(0.05270344963 0.03425320209 2.168404345e-19) 466
(0.06978562614 0.06802778534 0) 519
(0.07474708001 0.07513954066 -2.168404345e-19) 519
(0.03390830093 0.02572496663 -5.421010862e-20) 464
(0.07272177283 0.08798063391 8.131516294e-20) 539
(0.06574364531 0.1400517954 0) 618
(0.04318145465 0.07343167967 1.084202172e-19) 525
(0.07132555586 0.1379168915 -2.168404345e-19) 609
(0.05032020447 0.1195879437 -3.794707604e-19) 586
(0.07605357001 0.09845207711 2.168404345e-19) 559
(0.06868773273 0.09552484852 0) 549
(0.06024692835 0.1076585877 0) 567
(0.0009565999939 0.01049873752 2.168404345e-19) 450
(0.07007848568 0.0333749601 0) 469
(0.05332919585 0.03942991338 -4.33680869e-19) 476
(0.02464016245 0.0235728392 -2.710505431e-19) 463
(0.06793677831 0.02177866563 -2.168404345e-19) 448
(0.01931351428 0.01808843829 8.131516294e-20) 452
(0.07398220207 0.06610885045 1.084202172e-19) 509
(0.0482925153 0.01520904783 3.252606517e-19) 446
(0.04245919187 0.02887192899 -2.710505431e-19) 465
(0.06483299776 0.07184409446 -1.626303259e-19) 518
(0.06551163257 0.07469712849 4.33680869e-19) 528
(0.02872135636 0.07770185604 2.168404345e-19) 533
(0.04402873369 0.01697343682 0) 445
(0.05827461205 0.05443141571 -5.421010862e-20) 497
(0.05113115693 0.07691908705 2.168404345e-19) 526
(0.04740261511 0.05124039426 0) 496
(0.06018483105 0.09642586573 1.084202172e-19) 557
(0.02203398004 0.07783707764 -4.33680869e-19) 532
(0.06257038482 0.1068426921 -3.252606517e-19) 568
(0.03845770945 0.1352519631 0) 615
(0.06289049244 0.1399593185 -1.084202172e-19) 618
(0.06606233108 0.03337638411 2.168404345e-19) 468
(0.06037874364 0.02266683164 0) 447
(0.07492419268 0.04588281941 0) 479
(0.06472059165 0.02451141265 -7.115076757e-20) 458
(0.05886309364 0.02215916708 0) 447
(0.06662886606 0.02448257396 -2.168404345e-19) 448
(0.06950130812 0.02666272683 -4.065758147e-20) 459
(0.06318381116 0.02261934744 5.421010862e-20) 448
(0.0672052879 0.06668667257 -2.168404345e-19) 508
(0.0528986709 0.02150295443 4.33680869e-19) 456
(0.06464776542 0.04368581663 -1.084202172e-19) 478
(0.05518995064 0.02647475691 0) 457
(0.07351186036 0.08344758117 0) 539
(0.0673849742 0.06708030552 0) 508
(0.05088826384 0.03460075292 -3.252606517e-19) 466
(0.04907867688 0.03054542127 -1.084202172e-19) 466
(0.05544706433 0.03441538972 1.355252716e-19) 467
(0.01752056163 0.07348842883 -2.57498016e-19) 532
(0.06969170484 0.03881431783 3.455894425e-19) 469
(0.06611297358 0.07253418107 0) 518
(0.07403528076 0.02919919881 1.084202172e-19) 459
(0.0549929849 0.02187822111 -2.168404345e-19) 457
(0.04488724284 0.02849063745 1.084202172e-19) 465
(0.07550455118 0.1560813906 -1.084202172e-19) 639
(0.04983059576 0.08634121806 0) 546
(0.03845082952 0.07645312176 3.252606517e-19) 535
(0.074348913 0.07403331969 -4.33680869e-19) 519
(0.07552096354 0.08418703471 2.168404345e-19) 539
(0.07527128261 0.1250107253 -2.168404345e-19) 589
(0.04962517812 0.1087704674 2.168404345e-19) 576
(0.07224085314 0.09913206876 -6.776263578e-20) 559
(0.03512784 0.1159927307 -1.084202172e-19) 584
(0.03827181891 0.04232956858 -2.168404345e-19) 485
(0.0692647825 0.05419441769 0) 499
(0.06439721756 0.01762517916 -1.897353802e-19) 448
(0.02908460424 0.04384001484 -4.33680869e-19) 483
(0.0709149324 0.02107941699 -5.421010862e-19) 449
(0.02587626637 0.03300423504 -5.421010862e-20) 473
(0.07174477004 0.04461957553 -2.710505431e-20) 479
(0.009127974819 0.01515998558 2.168404345e-19) 451
(0.05141797617 0.02386405298 1.626303259e-19) 456
(0.07137110997 0.0426642513 1.084202172e-19) 479
(0.03933122201 0.08734584821 0) 545
(0.06780266777 0.08612052583 -2.168404345e-19) 538
(0.07518967006 0.0668651226 -2.168404345e-19) 509
(0.05979564703 0.09463863433 -2.168404345e-19) 557
(0.07295538385 0.09815287344 2.168404345e-19) 559
(0.05561801633 0.05782544082 -1.084202172e-19) 507
(0.06463357114 0.07588352231 0) 528
(0.04840560978 0.07605309578 1.084202172e-19) 526
(0.0367790643 0.07648950486 -2.168404345e-19) 534
(0.06374811172 0.04738883801 0) 488
(0.07417889006 0.09806855259 6.505213035e-19) 559
(0.07611277002 0.1087713256 -4.33680869e-19) 569
(0.07556455803 0.1148662417 -2.168404345e-19) 579
(0.06850036261 0.1230041668 4.33680869e-19) 588
(0.07278279325 0.1166506207 2.168404345e-19) 579
(0.06611577931 0.08922106058 0) 548
(0.06726828261 0.1338690242 5.421010862e-19) 608
(0.07341250805 0.1177884948 0) 589
(0.02203909123 0.1609072616 2.168404345e-19) 652
(0.03696323214 0.01134059016 -2.168404345e-19) 444
(0.02858640307 0.03163184046 -2.168404345e-19) 473
(0.06900500633 0.02075172792 0) 449
(0.01108192613 0.009369762116 -2.168404345e-19) 441
(0.07096243505 0.05641524113 1.355252716e-19) 499
(0.05544632762 0.019776645 2.168404345e-19) 447
(0.07516925396 0.03650784117 -4.33680869e-19) 469
(0.04886509507 0.01878815402 -1.084202172e-19) 446
(0.0639809664 0.03333378644 -1.084202172e-19) 468
(0.06805676906 0.02941635779 0) 458
(0.0444178875 0.03361467673 -4.33680869e-19) 475
(0.04182192815 0.03604356802 2.710505431e-19) 475
(0.06577819302 0.02508890408 0) 458
(0.05510590355 0.03457418592 4.743384505e-19) 467
(0.06373059411 0.04172554363 -1.084202172e-19) 478
(0.03359380087 0.02706527833 1.626303259e-19) 464
(0.06795189228 0.06888592476 2.168404345e-19) 518
(0.04217892565 0.04985607738 0) 495
(0.04755641488 0.07462263757 3.252606517e-19) 526
(0.06270050693 0.06749602509 -2.168404345e-19) 518
(0.01873904178 0.02011920492 -2.439454888e-19) 462
(0.05184607366 0.03606267468 0) 476
(0.0530084391 0.04337968568 0) 486
(0.0550892363 0.09665292743 0) 557
(0.0557326702 0.1071804225 6.505213035e-19) 567
(0.07396863524 0.05468237193 0) 489
(0.07144782871 0.06968274259 1.084202172e-19) 519
(0.03689466478 0.02159767566 4.33680869e-19) 454
(0.03975881256 0.09234242444 -3.252606517e-19) 555
(0.03822568276 0.05581988497 0) 505
(0.0742946941 0.141952104 5.421010862e-20) 619
(0.06123586982 0.1385104055 -2.168404345e-19) 618
(0.07052100892 0.1053018646 -3.794707604e-19) 569
(0.05174595469 0.1607234856 2.168404345e-19) 646
(0.07539994823 0.1405951495 0) 619
(0.06497569677 0.1025143523 2.168404345e-19) 568
(0.04805670094 0.03956806223 1.355252716e-19) 476
(0.03681649882 0.02820838723 0) 464
(0.04662131834 0.03673099694 0) 476
(0.05378104044 0.01779671242 0) 447
(0.006717918021 0.003190198726 0) 440
(0.06420109079 0.05273761046 -3.252606517e-19) 498
(0.0438158167 0.060583134 -2.168404345e-19) 505
(0.03104016731 0.01069602675 -2.168404345e-19) 444
(0.04518775408 0.07076985546 -2.168404345e-19) 525
(0.05965046702 0.08065079038 -4.33680869e-19) 537
(0.05112463429 0.02680270876 1.084202172e-19) 456
(0.007354689876 0.03235371366 -4.33680869e-19) 480
(0.05718830527 0.01980952102 -1.11808349e-19) 447
(0.05017582149 0.01406155049 2.168404345e-19) 446
(0.06479269474 0.03093512661 4.387630667e-19) 458
(0.07422416445 0.0763090158 0) 529
(0.04425370701 0.07036566847 -2.168404345e-19) 525
(0.0607935005 0.04123791482 0) 477
(0.0335012709 0.02425236349 1.084202172e-19) 464
(0.05700609358 0.03908581296 6.776263578e-20) 477
(-0.05551206771 0.06071126833 -4.33680869e-19) 172
(0.07356504416 0.07417376979 1.084202172e-19) 519
(0.06869911808 0.09167700633 0) 549
(0.06575860956 0.05378723788 -2.168404345e-19) 498
(0.05304863999 0.1035429878 0) 566
(0.07461040838 0.1008053794 0) 559
(0.0391141074 0.05037080743 3.184843882e-19) 495
(0.06105566222 0.0962176751 0) 558
(0.07030043702 0.1395562727 4.33680869e-19) 619
(0.06793231416 0.1120937591 0) 578
(0.07279177527 0.1102358351 -2.168404345e-19) 569
(0.06889480493 0.1465517987 -1.084202172e-19) 629
(0.04919871006 0.1259527326 -1.084202172e-19) 596
(0.07110769072 0.115853373 -2.710505431e-19) 579
(0.05827713228 0.09964040192 1.084202172e-19) 557
(0.01980329904 0.02109939568 2.168404345e-19) 462
(0.03136606642 0.01792850375 2.168404345e-19) 454
(0.06494700564 0.03828416812 3.117081246e-19) 468
(0.04876768429 0.06041320551 -3.938703205e-20) 506
(0.06567666881 0.05343589729 2.168404345e-19) 498
(0.02803694029 0.05687695444 -2.168404345e-19) 503
(0.03450161536 0.02593478373 -2.168404345e-19) 464
(0.06453156932 0.04064219946 -2.710505431e-20) 478
(0.05478699209 0.07875817526 3.252606517e-19) 527
(0.04930871475 0.03157592123 2.439454888e-19) 466
(0.06565548614 0.03220738593 -2.168404345e-19) 468
(0.06130878495 0.02377881905 -2.168404345e-19) 458
(0.06097057313 0.01990797613 4.150461442e-19) 448
(0.02642871633 0.01023441637 8.131516294e-20) 443
(0.06071657806 0.07250404981 -4.33680869e-19) 517
(0.03142814589 0.1255697516 0) 604
(0.05018853104 0.05513372416 3.252606517e-19) 496
(0.02517848441 0.05148288032 -2.168404345e-19) 503
(0.06035992054 0.09185079717 -6.505213035e-19) 547
(0.0651902094 0.02642059022 0) 458
(0.0729098902 0.0834929931 -4.33680869e-19) 539
(0.07027774264 0.07874783887 -2.168404345e-19) 529
(0.06044254277 0.05246734333 -2.168404345e-19) 497
(0.04773164838 0.06598237004 2.168404345e-19) 516
(0.05838057417 0.03690259929 -3.252606517e-19) 467
(0.07125312645 0.1210296868 -2.710505431e-20) 589
(0.03145035228 0.06596201114 1.76182853e-19) 514
(0.03526130442 0.1222557221 -2.168404345e-19) 594
(0.06303748132 0.08722105272 1.084202172e-19) 538
(0.05428518003 0.1345476437 -2.168404345e-19) 607
(0.05462130679 0.1553336099 0) 637
(0.06087117469 0.1010207033 -4.33680869e-19) 557
(0.03018426388 0.1438351184 2.168404345e-19) 623
(0.07211417206 0.1354776002 1.219727444e-19) 609
(0.06282825721 0.1528792769 -6.505213035e-19) 638
(0.06425752036 0.1163578373 0) 588
(0.06038326174 0.1410165677 0) 617
(-0.006147767602 0.01205723451 -1.626303259e-19) 39
(0.06676832386 0.02343157806 0) 448
(0.02840137802 0.0270472233 0) 463
(0.03026315254 0.01850641963 -2.168404345e-19) 453
(0.03402401257 0.02370183735 -8.131516294e-20) 464
(0.04883697709 0.0382327644 2.676624113e-19) 476
(0.04799298009 0.02934446857 1.084202172e-19) 466
(0.06023751663 0.08548006246 2.168404345e-19) 537
(0.0570443692 0.04450795 -2.710505431e-20) 487
(-0.001035170768 0.02009151427 -2.168404345e-19) 59
(0.05987962341 0.05527945631 -2.168404345e-19) 497
(0.05735582643 0.05128705925 2.168404345e-19) 497
(0.009366158866 0.07863964709 2.303929617e-19) 541
(0.04002827151 0.02841619133 3.252606517e-19) 465
(0.05249169476 0.03985778808 4.33680869e-19) 476
(0.03985272523 0.01773307916 0) 445
(0.04947335389 0.01417902934 1.084202172e-19) 446
(0.07303400419 0.05626569856 2.168404345e-19) 499
(0.07337266566 0.07288919173 1.084202172e-19) 519
(0.06731904435 0.07967182237 -2.168404345e-19) 528
(0.06318704583 0.1131894798 -3.794707604e-19) 578
(0.04195089198 0.04659100989 6.776263578e-20) 485
(0.06627915572 0.07218665829 5.421010862e-19) 518
(0.07106906465 0.09484760214 -3.252606517e-19) 549
(0.07616643063 0.08034629009 0) 529
(0.06569178211 0.105430134 -2.168404345e-19) 568
(0.05094591201 0.06310382537 -3.252606517e-19) 506
(0.05666854078 0.1195033365 1.626303259e-19) 587
(0.06156114067 0.0793509313 0) 528
(0.0642356404 0.08407957453 9.486769009e-20) 538
(0.05861815522 0.1430805002 4.33680869e-19) 617
(0.05577186286 0.1404423861 -5.421010862e-20) 617
(0.0745830272 0.1436521094 0) 619
(0.06227021 0.1542849896 -2.168404345e-19) 638
(0.05621364889 0.1245122117 -1.084202172e-19) 597
(0.04973402461 0.06989307152 4.065758147e-20) 516
(0.05459117112 0.01882586505 -1.626303259e-19) 447
(0.07441075314 0.03429760163 -2.168404345e-19) 469
(0.05834610617 0.0177065627 1.084202172e-19) 447
(-0.01460631005 0.01316231364 -2.168404345e-19) 38
(0.06514659261 0.03155505005 2.168404345e-19) 458
(0.05208385482 0.05291767717 -3.523657061e-19) 496
(0.006761178329 0.009201746282 -4.33680869e-19) 440
(0.06587938595 0.07182329943 -2.168404345e-19) 518
(0.02556104538 0.008881423908 2.168404345e-19) 443
(0.01653980412 0.009979998089 2.168404345e-19) 442
(0.05050907355 0.03165438172 0) 466
(0.07340707303 0.03466379687 0) 469
(0.02162948374 0.04505736232 0) 492
(0.02906984577 0.04997968244 -4.33680869e-19) 493
(0.04750113928 0.02145366614 0) 456
(0.06330914929 0.0485305903 -5.421010862e-19) 488
(0.07431990012 0.07134385347 2.168404345e-19) 519
(0.05148097888 0.05802192419 -2.168404345e-19) 506
(0.04831867686 0.09517540492 0) 556
(0.07435586437 0.07717287167 4.33680869e-19) 529
(0.05392733906 0.01524978104 -1.626303259e-19) 447
(0.06386251426 0.0667278666 0) 518
(0.04343814558 0.04937301959 2.168404345e-19) 495
(0.04645262437 0.0386674636 -1.084202172e-19) 476
(0.06738434614 0.05694511519 0) 498
(0.06226226646 0.09044656041 2.168404345e-19) 548
(0.06677113141 0.05508943476 1.084202172e-19) 498
(0.04433878178 0.06160471463 -4.33680869e-19) 505
(0.07008486395 0.07053057945 -3.252606517e-19) 519
(0.07163129647 0.1023695662 0) 559
(0.05643218467 0.1109380217 0) 577
(0.05982752705 0.1036028893 0) 567
(0.0740077946 0.08980153936 0) 539
(0.049715785 0.09895444095 -2.710505431e-20) 556
(0.0360572725 0.1020662835 1.084202172e-19) 564
(0.07424075497 0.1527277894 2.168404345e-19) 629
(0.05622089983 0.08747258857 5.421010862e-19) 547
(0.07367096081 0.1084852992 2.168404345e-19) 569