/*--------------------------------*- C++ -*----------------------------------*\
| =========                 |                                                 |
| \\      /  F ield         | OpenFOAM: The Open Source CFD Toolbox           |
|  \\    /   O peration     | Version:  2406                                  |
|   \\  /    A nd           | Website:  www.openfoam.com                      |
|    \\/     M anipulation  |                                                 |
\*---------------------------------------------------------------------------*/
FoamFile
{
    version     2.0;
    format      ascii;
    arch        "LSB;label=32;scalar=64";
    class       vectorField;
    location    "0.006/lagrangian/dsmc";
    object      U;
}
// * * * * * * * * * * * * * * * * * * * * * * * * * * * * * * * * * * * * * //


6872
(
(-58.82656 401.2318837 270.9474864)
(299.1985756 -179.8655723 -1005.470731)
(201.4823681 144.9164591 122.6047461)
(857.9344128 -191.5206631 157.1394059)
(666.5399628 1231.744277 206.3028608)
(407.0665742 -503.4004461 1093.333361)
(-695.4765355 361.0302917 -970.4659374)
(731.8093378 324.7703382 -1232.077743)
(866.483332 492.2329679 133.3971824)
(1293.111816 1256.803608 -866.2074875)
(1304.396096 985.1699249 353.4333971)
(-277.9680155 -274.8959255 -447.3285083)
(456.0966013 351.9551816 148.2354323)
(186.6998556 1125.366315 595.4590329)
(117.7437182 216.9783981 380.6489956)
(897.6235055 -774.9849246 -47.46586722)
(1467.088528 1269.527068 327.5559532)
(524.3644204 534.7944092 -30.36415068)
(934.5897909 1065.663738 151.0623465)
(2285.220941 236.4000122 -101.0354809)
(1684.015721 330.6324692 -252.0040918)
(119.8779366 423.6581225 267.6538493)
(1145.092195 113.231784 492.3494607)
(1690.322133 336.6332802 -425.3292192)
(1209.936244 685.1811089 98.13044957)
(1820.137252 229.5616014 -146.7387494)
(251.4977951 838.3345743 -171.4349172)
(892.1888247 426.1500045 646.1609885)
(-859.1497594 510.0740909 -900.1169426)
(-133.2605387 864.5786553 238.7048816)
(738.2816304 -159.350336 -834.9746897)
(764.1055828 -159.9269364 -489.7480779)
(1771.45667 -677.6185964 196.9787434)
(551.4907095 517.802456 -290.2314859)
(699.7074323 -16.75382213 -1172.656313)
(1755.789213 -105.9906722 -272.9194746)
(670.1661641 -135.3759373 227.8053789)
(897.7942556 646.7301082 -204.9871457)
(1033.595866 30.44990886 741.3344001)
(220.2283772 526.1279971 452.1457344)
(861.0796189 140.9304902 -754.029857)
(996.0845045 1010.704516 -432.7901928)
(1315.561175 244.93765 855.1903072)
(-6.084404267 -445.6210669 273.8541471)
(417.3928156 1334.249318 -148.1666767)
(872.9120453 -523.9701787 281.203922)
(149.9895116 367.2756116 98.91937726)
(1448.266333 -294.8258081 1026.792233)
(317.253292 248.4298984 -60.83405372)
(931.598133 220.5416964 782.6299637)
(-117.8174616 -1205.803012 117.4651163)
(152.5242887 315.8617614 179.0454324)
(256.3331271 375.7888304 307.5030761)
(1040.338553 378.530585 717.9384783)
(-310.7030416 720.933027 -142.2215486)
(200.0583955 1160.174288 572.5190418)
(840.2489288 1089.937848 -232.0989441)
(-57.75830665 723.3250822 63.42514449)
(601.8538833 34.1701099 -1131.416679)
(-25.73420725 584.8662225 718.5419407)
(68.15830766 325.8556079 -74.7628285)
(373.571708 -428.797724 -696.933837)
(141.069983 -245.7873112 -517.4768408)
(1198.112865 404.8308929 245.8718357)
(11.62506502 269.8375092 -319.0365662)
(2155.449168 -39.74692511 72.40460045)
(1368.066509 -280.6123845 -299.6364535)
(483.5846248 -136.823691 195.4060959)
(194.2676483 331.3635942 285.9972047)
(352.9299561 1820.96069 707.5428536)
(891.2754196 244.6495128 -149.9676619)
(855.2235235 425.9245263 -387.3104862)
(978.8119792 -139.9272088 761.7004389)
(72.28432876 1043.730218 72.73005628)
(1232.992905 570.6497575 133.304883)
(-28.21705909 -131.7010768 -182.2920884)
(-548.2591155 245.1020908 11.75686523)
(47.03365078 912.704235 -358.3995093)
(1581.321444 1080.362242 -131.1879477)
(-297.2603367 -666.6064321 -94.82794485)
(1440.610574 138.1513648 -171.3367799)
(-187.7649618 606.6755526 390.9123479)
(-240.2785581 326.4340244 251.9704492)
(753.4694663 1122.103741 1494.418779)
(-352.4596636 307.471755 -193.7147023)
(941.4768462 312.7055414 -72.78505268)
(1248.67268 175.6740576 -556.4328847)
(882.4989064 705.3532786 668.8177406)
(456.7804346 599.6242397 307.6399031)
(434.8283532 365.4173894 250.1768839)
(700.0618472 321.7857846 -910.9028057)
(702.0991788 -483.9488004 -283.375609)
(412.8093268 -40.29678731 616.2181524)
(930.2193628 -205.3122396 -113.0479791)
(364.4606292 -611.8201241 891.2296805)
(1075.38103 1156.726959 20.4671801)
(1083.249575 537.8461733 281.0125085)
(939.7524018 -97.35855342 114.4533248)
(1452.581207 1042.106296 474.9065243)
(176.5097882 376.4389479 -16.80023771)
(785.3425957 -282.2470723 -217.7047244)
(1739.416589 572.8548857 286.062407)
(468.667839 292.5801975 -372.2697759)
(1083.462502 -193.6979036 938.6519449)
(272.8946918 131.7582172 605.6450279)
(1268.072393 107.3765021 757.2471749)
(358.0742463 12.23109815 -411.1196524)
(-240.2232195 387.0629379 -208.1981755)
(233.737659 418.7617255 90.60635826)
(-33.41358255 399.5448286 596.1780259)
(540.2546103 -607.6189964 631.4949564)
(859.1512291 445.1274498 -499.2473422)
(358.1461159 186.6122362 -552.6988657)
(793.1366987 -98.29218641 -138.4129898)
(646.2325138 16.29354439 257.3024505)
(48.50800017 340.2224163 96.18703083)
(1079.925138 1018.323966 -199.9046378)
(732.361212 736.5956469 1066.224539)
(184.7405963 481.7297782 220.2069869)
(966.2977625 352.6714957 -1060.92919)
(118.9261443 646.1052104 106.2617462)
(960.6312751 752.1339866 974.1098938)
(1080.854235 1046.024477 300.8649562)
(1250.768894 -708.041831 472.539137)
(575.608696 -381.3114143 -179.2121202)
(289.5226296 736.9188814 628.8842199)
(702.0403706 1138.659913 642.2523308)
(507.3626054 207.9781008 375.3390188)
(776.306394 -299.2254425 -815.9727197)
(-274.2890003 512.246687 396.0550572)
(-299.8162822 782.6835781 -368.0925688)
(198.6904204 29.5981351 859.3167634)
(569.5733963 988.7849006 128.3857283)
(1504.575429 -303.6806217 491.6820794)
(863.6987501 -475.7139283 696.6195381)
(449.9555406 790.8299344 -85.10458244)
(488.2135093 1099.787348 161.3989758)
(1192.557242 920.9926009 235.5623881)
(1206.291823 1079.648675 121.9477209)
(-276.3113649 -420.5534972 82.11200841)
(-492.0185552 315.4134635 -699.9853478)
(-358.4379086 529.4329951 293.5353808)
(2032.392499 15.12381499 -90.23864336)
(396.8925123 1012.534336 -218.630318)
(791.8103233 148.5321107 568.9450622)
(-74.64696132 -9.54734019 228.8630207)
(1969.630872 1108.737104 113.2265999)
(335.9283205 -118.7563093 259.9180671)
(1413.776293 -61.48253606 730.9562443)
(-211.5612836 -153.2318028 470.0880638)
(1081.907892 726.0656715 -87.46222367)
(-94.6710456 -150.4326515 291.6415031)
(279.528317 -48.69715483 -865.9513996)
(1590.01683 245.266411 476.3681424)
(-454.5896756 823.6557868 -83.10527762)
(893.8404643 294.0338648 441.2023442)
(1283.899554 391.4588486 778.5676387)
(1062.588866 265.8853869 485.2458182)
(-326.4023795 953.1744275 236.7250641)
(-67.10103837 658.6003882 -208.2088301)
(1597.872304 1841.007383 338.6145226)
(512.5410657 275.9766794 949.3468231)
(561.9047266 -75.49945815 -369.6652224)
(-32.88151516 499.6132791 -647.1910238)
(921.693324 998.0369309 635.8337728)
(457.572276 573.8720729 65.5630477)
(165.6584314 666.3915215 -350.4659599)
(544.0552273 901.4593307 8.24963728)
(678.7187806 -353.7581152 664.7410443)
(604.8948085 57.87470453 81.31555717)
(675.5374078 409.9423014 367.1221913)
(2261.072567 -678.2765223 2169.811348)
(1807.950441 261.0379712 -34.38934596)
(366.5940466 -695.8263032 -1036.780007)
(1445.554586 514.2672915 -868.9621983)
(237.491845 -97.83431295 -110.1247397)
(1185.374213 1872.82732 305.5388453)
(352.8995393 -75.57859222 -388.406378)
(616.7863583 547.85515 -219.6727668)
(1383.679433 -256.3811687 81.92437084)
(18.26404712 -127.9099932 -789.2009048)
(586.6690438 -323.6046011 349.4455682)
(784.8381551 974.5506724 482.817884)
(426.3070615 881.7426924 116.5957832)
(-798.6189171 126.1434065 306.8177935)
(700.6787514 1269.8314 -377.7799779)
(-423.4546347 -250.8719543 345.301669)
(735.629525 75.38411207 -340.7711439)
(500.1438498 4.081728197 -1266.65965)
(772.5314455 672.3339452 -107.9958504)
(1472.885709 804.6250187 -915.5158984)
(1634.856471 358.0632926 1369.332795)
(1354.490502 -250.3380338 -243.567606)
(1884.277397 -180.530422 -256.649301)
(400.9694938 -140.7936464 -745.1350762)
(421.0108118 537.7655525 -97.11986192)
(-163.3897997 476.0733383 836.2466722)
(-124.5694698 1507.118237 -653.2896976)
(456.8889425 539.8846788 -31.23003696)
(222.4728084 -316.3903414 896.1367793)
(1549.368134 535.0853514 -146.4232658)
(143.248628 846.3838067 155.5223006)
(238.9898027 110.6323026 935.8262064)
(669.4528336 -244.2872707 -650.9264544)
(927.2468035 1778.689536 -146.9095714)
(77.1530837 931.121994 -458.7147756)
(485.6832025 836.2011215 -633.7613045)
(1507.627379 486.335514 -459.9941725)
(355.655954 25.47120892 -547.6963673)
(1296.722723 136.5153399 544.6254564)
(774.6390572 643.5711508 211.8490699)
(-287.4670292 461.5101218 -41.17952487)
(1530.79574 1265.404732 -76.25390057)
(455.5389553 85.54820651 -325.3649856)
(1327.013766 -310.7676102 -52.7274775)
(1592.813682 -342.1137445 -108.6477707)
(1336.481831 98.69225135 66.80395176)
(498.9945979 -109.6823434 506.4583945)
(150.0151572 254.8612399 642.2719457)
(1508.207653 310.6366459 37.44960656)
(876.5916781 -380.7710984 322.0553945)
(-147.9902481 752.442528 377.229047)
(687.1830161 910.5403773 651.0029897)
(1021.70915 446.3911997 -703.8390958)
(766.0852524 784.8296937 -311.5540853)
(1191.592421 -140.7741134 396.8009281)
(15.05304103 -807.0504583 624.0374381)
(2113.237094 1287.738427 -704.8190889)
(1524.456829 638.1847896 -769.6189997)
(1175.731275 530.711113 709.6695735)
(1408.818026 -113.6186279 448.4166206)
(1429.963979 -89.8549361 242.0613642)
(1304.021716 -206.430185 91.12794674)
(1799.550261 127.3081361 -42.53080213)
(405.1741106 -262.4763781 436.3254137)
(428.02671 1032.579393 -435.9835524)
(855.0253091 846.8817964 -542.5201263)
(961.4778616 12.72838644 469.4182527)
(1538.24981 417.008012 691.1513156)
(812.0876879 922.450074 -246.709379)
(681.0651963 -54.29195459 -126.9068507)
(835.8686068 506.0184122 -424.8916751)
(1584.403518 414.5489727 -220.2170878)
(-84.15133508 11.82168684 229.7564844)
(954.1680434 120.6289281 -254.6959438)
(1485.445861 267.9496958 14.07237877)
(926.514659 581.1384581 -17.54040382)
(-91.14119711 240.6138548 62.06285787)
(757.1600664 12.80308291 -233.7988306)
(73.16483576 1047.039493 -378.6591822)
(1201.778401 521.3647527 271.7723566)
(640.2897441 373.2272316 127.4849957)
(1665.077439 -129.910652 639.7419356)
(-774.0488977 -153.8738695 -304.760973)
(759.843389 662.6035628 -124.553389)
(504.9618442 317.4969108 -511.4522063)
(1211.359985 711.0581748 -226.8506706)
(859.9436188 1026.636536 238.7306737)
(412.6756172 -195.5451774 481.2635553)
(1315.2357 143.5156856 597.5448873)
(585.1029763 150.1919912 477.6527843)
(36.29656551 423.8027386 527.3951786)
(903.9642675 -157.0736044 1074.617321)
(1078.814911 -465.2439123 46.35849067)
(1680.256752 385.9851211 27.5925202)
(-94.37833164 141.7502894 318.0609742)
(-364.3757594 311.2930873 253.0741084)
(1878.688513 100.0562492 -228.1764562)
(434.1435112 -579.9723292 -410.458569)
(498.1911566 1132.941036 -233.7740562)
(588.002002 189.1387854 -558.4908478)
(1545.617503 -775.8908715 -291.1052085)
(970.2991817 365.923463 696.3511819)
(395.421822 816.8608639 -862.6406713)
(980.2466503 -603.0704167 617.9793709)
(-413.4218438 -150.3893755 428.504035)
(812.4992473 1394.472863 430.4067107)
(1495.012607 984.8881645 326.4171737)
(1170.049217 -288.8281367 -292.8571961)
(62.11150352 -797.7432353 -266.6074561)
(1093.701073 782.4974576 -109.0116072)
(1408.822797 45.50730571 7.790446305)
(1607.762672 900.0916004 378.890775)
(161.3195356 -574.8293783 390.8080766)
(784.8295953 743.7562083 -786.5889776)
(1046.986033 361.6522363 -781.6245738)
(547.9253844 209.9672139 -243.6376013)
(2323.749695 161.8898515 131.1316966)
(447.6752949 -247.5812277 -226.7192172)
(503.1933675 -328.2463363 -124.4048414)
(252.1530014 134.9901578 -34.51358197)
(512.8833325 950.4045366 145.3090814)
(797.8591099 130.1052043 3.329860823)
(736.0103547 410.7387313 -519.6980272)
(1119.421787 708.5129353 -111.549031)
(1492.587344 -139.5025447 -82.61426201)
(1689.011756 -70.27454409 8.41517419)
(220.8513544 -46.56059003 239.0147394)
(69.73500518 264.4833507 91.85882645)
(1388.786535 571.7483424 780.0448133)
(1957.390293 238.800976 -237.5160947)
(977.5079841 87.00280225 611.0777555)
(-236.4712175 374.4203592 -354.7385571)
(1176.275412 -82.59092259 -173.6450595)
(1097.541601 356.7537978 -198.4774696)
(534.3942144 545.7365409 -661.5403849)
(93.38082943 239.3458379 -238.3756403)
(2044.988103 -305.7025751 -782.9132577)
(544.8505171 -422.4522847 -1017.500592)
(995.016566 1286.532476 -623.2273544)
(856.3569887 65.35717495 -1082.349234)
(99.66382233 1273.394489 540.5650605)
(1836.352207 -34.98142187 -18.80325205)
(1139.407452 342.0098144 178.8042347)
(1063.223823 216.5117864 -270.1369605)
(1474.323868 -122.7588936 519.4056566)
(929.8886051 625.9844033 -426.9194711)
(1613.275566 -248.7139616 -147.0728101)
(1754.072199 -136.5694603 -37.46666083)
(60.13212122 487.2657564 -487.9873831)
(575.180153 1267.346825 -750.9203706)
(903.2294629 655.8997646 730.2134364)
(551.9531395 -418.402278 875.3554587)
(-147.1060724 812.9557663 -425.4252693)
(864.768298 -748.6504511 -468.0780491)
(517.2740739 1103.23219 432.8946651)
(1091.560753 -462.2254931 -386.5399753)
(-114.7398627 463.8311167 315.9592865)
(1449.716053 925.47832 393.893551)
(-291.1725495 -53.19323058 -79.3605081)
(811.4869409 840.7392304 382.3962662)
(1089.035065 -273.9205646 -807.2953333)
(684.9152216 502.0879589 315.4605343)
(480.9295907 364.4828387 -256.7227962)
(712.971557 -4.066639978 297.8300381)
(902.1776752 -432.9493015 -87.88687416)
(1528.690125 206.0199196 29.88782538)
(62.69361563 524.0668475 -303.6151214)
(1775.527314 -79.8964008 -853.9061593)
(847.6073561 811.7377781 -127.2159754)
(1302.760318 -72.96896492 -295.1660308)
(1697.072977 -101.0316563 -421.3634593)
(363.8930138 -86.24470376 -87.37494116)
(1194.478147 -93.97420315 139.5395149)
(499.2202312 -587.6245253 -429.2551059)
(1803.728604 -905.1041071 196.159974)
(543.4703889 -842.680238 183.1843594)
(430.6985253 153.4985388 207.3855332)
(49.21580814 -271.6566848 -200.0995315)
(1188.013846 328.7865282 -58.76405352)
(927.5602344 872.5406191 1530.508129)
(1798.603267 -127.427082 -740.3014554)
(1003.567301 -89.68637095 132.2296223)
(935.8583114 1070.289528 -258.8199434)
(976.8064229 606.5056267 -176.0265338)
(-170.0497612 664.3981594 -12.68950375)
(1062.916561 -4.734218665 276.5970504)
(718.0966947 199.5952131 37.43336455)
(216.8830515 723.1929134 781.7685611)
(1715.920554 -222.6045374 -276.4414873)
(1544.201507 -88.1619624 266.5409009)
(1374.927636 -420.8478067 -431.1228866)
(1764.621238 -213.0644288 15.15405693)
(1229.509115 -53.3742308 -117.813749)
(1929.123861 -577.7243659 71.90125104)
(373.4035488 49.94479786 -542.6550165)
(1754.942661 -350.2461729 598.0554017)
(7.954208649 -563.0182722 668.9115399)
(781.2545546 -222.8962063 679.5931694)
(597.3533753 86.82503861 -296.1369134)
(161.3872027 572.8374277 -664.6124795)
(-146.1098399 377.0352659 -100.2913314)
(6.277613104 279.9333953 415.5882765)
(917.9742712 914.9577118 -633.2320737)
(-243.2519336 -669.6009517 -243.8693814)
(787.0808785 522.2160345 -189.5037026)
(993.1265665 1137.725829 329.381743)
(1418.792023 -125.8200809 170.8045188)
(1455.689098 -191.3095948 215.5773509)
(656.8171891 -774.7402724 -28.10581217)
(1069.049059 -236.7314496 47.39611502)
(1559.736934 1064.02546 292.0679578)
(357.4461885 -85.61228028 759.7783964)
(1462.508032 -162.6902593 504.3859196)
(1161.668929 -248.2623894 191.7951126)
(1367.530554 78.87593274 351.3759781)
(1292.818947 -317.6796704 45.09193695)
(1484.791585 -180.8563686 -513.7159679)
(645.1623459 870.2371227 45.92189762)
(464.6821111 348.94579 3.496886246)
(1192.938309 248.6280597 680.4473955)
(847.1637822 -468.4150547 906.0702163)
(-166.3582072 -420.9129105 699.2683311)
(1641.548654 854.5623888 -407.2854898)
(1876.348092 -223.6223144 -313.8968905)
(76.53316759 453.8021381 313.7393395)
(894.8360406 369.4914263 543.8787948)
(712.8041531 387.4469525 -456.5372418)
(270.5779965 -87.44008877 -305.7007295)
(1243.277564 -46.69908083 323.7191082)
(898.2876882 188.2377158 -166.0128197)
(1607.152862 78.76538655 -298.0744109)
(-143.0616296 1373.565408 -378.242597)
(-103.3014111 401.4802917 -150.0296929)
(695.4923658 -359.071208 50.95230571)
(628.1181485 770.0885002 357.2513364)
(526.1126377 -94.55413479 -430.9852265)
(794.8773761 700.6101463 1219.004645)
(606.663883 43.2599698 -601.8017079)
(60.39569405 37.64104128 -417.534733)
(475.8956167 -403.8525921 796.4949311)
(1652.204415 611.267864 215.1564643)
(869.7226597 100.331791 -179.9039834)
(1453.738508 552.8608856 -6.536363904)
(2156.594448 -27.56902089 -270.1923742)
(1235.277609 111.4677534 809.2416476)
(1260.031505 143.1575191 -358.0374846)
(1417.745448 -281.8794732 205.1563873)
(1578.643539 -46.83615702 -52.54377782)
(1282.896481 38.92483037 -14.5309104)
(389.2353273 -466.3463722 663.5636265)
(884.8972792 465.0283996 829.9770434)
(-437.5569322 352.3908509 -178.3811529)
(732.4460752 979.5240132 -638.306082)
(1654.805507 162.9454349 -461.10906)
(1283.866682 -205.3071604 -159.804783)
(1099.897851 780.9767164 -217.0442095)
(-14.76572265 337.4574389 560.0114885)
(1115.002579 82.25585317 -443.1772637)
(1390.269629 41.83128261 -155.4754071)
(1850.009319 -30.05318211 -150.4176878)
(1468.90591 -36.37638919 548.4341146)
(909.0508962 343.249621 167.521314)
(1252.483187 474.0869546 353.7578383)
(1377.195042 -103.6970571 -286.9263796)
(1652.796753 -4.223420163 -362.6116329)
(1752.938645 123.1826527 281.1266956)
(612.8879859 71.15623235 -245.4782687)
(1163.339365 -388.5430387 220.8342316)
(847.3622144 108.7670377 140.6231912)
(823.4311925 1438.495118 824.9327854)
(718.1631077 81.31443722 -204.3137673)
(1635.44272 -192.1108243 -125.3169701)
(1995.724642 -391.783483 -369.2356564)
(1390.143134 -260.2506741 -170.0267718)
(1486.891649 -256.5275216 20.58982292)
(1381.614381 65.07904181 155.9139088)
(1700.596814 -228.2681911 155.995212)
(1199.92528 -79.48354627 131.9072107)
(-552.8050114 -463.9055196 20.70792643)
(-191.913747 756.9790716 561.7145599)
(125.8181037 -385.8943258 350.3013691)
(-142.8205492 488.2738079 320.1473591)
(1301.471601 449.8164274 847.890309)
(2068.315356 -641.5067728 921.0125528)
(330.4626701 231.3091676 -37.31177465)
(846.644915 838.3314392 664.3034833)
(870.9625711 -224.3170706 -996.8685378)
(1162.762368 550.8835129 197.6424297)
(974.2515995 -87.97844176 -272.0915989)
(1799.904586 -659.9908245 7.066839717)
(74.27986313 383.7207702 466.5456851)
(767.0462823 429.7760842 226.2020754)
(891.5350219 211.8313464 432.4812676)
(1478.628935 382.5907835 287.6769125)
(1042.009314 59.35116767 742.9315668)
(323.3921558 378.2311465 -63.61042011)
(1836.152777 787.9474076 3.982818053)
(1765.830842 138.2361681 87.95276663)
(-348.0147979 845.9242532 178.4334811)
(133.9549721 465.3684371 131.8209954)
(1496.111805 860.3761592 -580.9994486)
(307.7890988 1603.814103 335.4131052)
(1570.585966 599.8083943 -482.2041138)
(561.0901351 510.3974077 53.69858329)
(1478.263268 38.72601104 -422.4371179)
(1211.45357 -190.8806102 108.9814597)
(1230.939937 180.7653977 -40.62088296)
(1865.674701 -297.4513673 87.19558016)
(2004.016658 687.7916267 -304.6201)
(1716.557718 -343.1353438 318.8388281)
(1979.177007 -435.3419801 187.6492538)
(1553.100413 141.5363741 -12.74055491)
(2061.885489 -109.9562497 406.6580012)
(1375.910411 -30.28129019 -159.307015)
(839.4969802 1073.529741 -9.217281282)
(1063.297868 129.959424 936.2711656)
(405.2098492 52.14531852 -127.7707013)
(38.84798056 188.1317818 -477.84175)
(1738.297016 -607.8444273 -297.2684611)
(2188.709097 275.659065 197.1635666)
(1227.143109 710.4788918 633.4436389)
(181.7643097 340.7288643 -188.4297393)
(1128.2062 507.2241823 -792.4570506)
(2085.024153 -8.571529619 422.8696491)
(-486.912107 746.0608625 14.55793375)
(1037.411891 674.4432361 884.1851692)
(1656.131828 -99.89707872 439.2167677)
(492.8309089 -156.8528572 -355.2538399)
(1182.01086 646.9631874 -706.345547)
(1296.924245 586.3424059 -346.2182112)
(2280.264273 -393.6788785 702.8796315)
(1462.309173 440.0351702 401.2777993)
(1389.318835 97.68104974 -1025.697678)
(426.5632355 663.0367049 1697.70365)
(-561.797334 214.0676243 -487.7277067)
(1555.099981 852.9291916 -787.5931343)
(1315.15668 138.0112889 409.6734953)
(1104.093711 -341.2104176 350.1438825)
(1420.966934 98.48185154 -30.4023858)
(1297.395478 462.1875119 -51.84023295)
(842.2634725 43.25306905 -385.1172979)
(1319.784242 -319.0551229 312.748942)
(1608.957912 25.37837873 77.12922491)
(2099.735243 183.2968136 -11.06411834)
(1936.371087 -323.2504311 -110.4582606)
(1600.481395 -236.4014546 726.2988512)
(1572.507764 -299.914427 754.177021)
(1786.048598 -594.8107813 -576.1635218)
(1476.930772 -458.9784599 273.2436)
(-129.8415745 844.9669634 365.1307337)
(365.8669015 389.6227098 -226.1092532)
(1129.199297 145.6321635 458.2435482)
(591.2074026 46.2378086 -980.9070923)
(430.6174591 1674.390839 -175.0369083)
(926.8807029 556.5644656 -139.3327998)
(-917.1140519 909.4815733 -1399.975905)
(2361.189186 -324.3218034 -254.8553511)
(1151.428233 25.98677773 358.505856)
(1170.026079 1188.937369 -130.3216416)
(968.749896 1071.753119 -592.8447255)
(-542.4127407 911.7232643 303.5691568)
(1522.931174 74.04163118 -294.1202044)
(1174.035872 150.6833771 -551.9144642)
(974.3408514 417.9596158 -834.3792043)
(653.01405 1391.880663 -1562.035185)
(2020.078591 259.6869677 257.9801048)
(195.0159574 -7.658108445 202.2777554)
(1483.702436 349.7891247 -37.74637402)
(472.9228755 -4.289543715 -160.4838538)
(1906.366753 427.7366633 92.2887298)
(1679.121273 -30.49544586 395.9665448)
(1099.017255 -581.6468299 913.4519109)
(1251.557154 -67.3558973 58.33351113)
(188.3561501 1116.589391 -153.6526879)
(1364.077334 265.1129494 892.1007245)
(1421.319936 58.39619478 -129.7740922)
(1136.811706 381.3677018 -191.444364)
(1545.837453 -161.1993192 -246.7949126)
(1964.688925 -73.44909192 237.5290263)
(1772.245503 -62.99338918 -228.7413169)
(1684.780124 -52.41732323 -97.34220762)
(1323.34243 -37.15901751 385.222846)
(1551.967257 -369.9382894 -95.25945834)
(1248.274657 599.6223257 -276.3551635)
(1447.593455 -286.0284031 -305.5577201)
(1662.819351 78.44070351 151.0605039)
(-260.1434317 252.4517601 -246.9575817)
(177.8086952 84.43215366 790.9284031)
(148.7718795 -71.70422557 -339.5669833)
(1972.700932 433.1970394 172.7174862)
(94.92378246 351.9136146 -53.39861405)
(1534.245291 529.6279096 206.9914451)
(680.3077035 1014.784884 -375.0706883)
(1306.579363 -154.6798738 3.817738127)
(464.3366398 890.8720366 -892.278355)
(1763.586662 -152.59721 427.3227449)
(727.0683473 348.8361835 -157.090114)
(1095.277649 720.0087034 393.5168734)
(1393.227358 -7.870370243 -174.8411619)
(1388.937533 -316.3177646 953.6888774)
(1938.568602 618.5845276 -432.3104951)
(1032.171454 -384.0567456 634.2152957)
(392.1151288 2.398451476 -290.8224942)
(1214.480421 277.7408906 519.7042416)
(1341.041336 793.699199 650.7349186)
(649.5700217 1428.207813 -1117.616177)
(1536.338454 316.3757917 -215.4197404)
(1209.050678 -150.6606661 -292.0393634)
(1785.750826 -272.7303061 -556.1012195)
(1722.928284 14.87806235 80.84530929)
(1375.373946 -393.0086014 -134.8038581)
(1741.591381 366.8246204 80.31145841)
(1477.310816 -174.6800954 -398.9620252)
(1341.594797 283.357649 -327.5936957)
(595.8214427 670.3933058 -258.7514244)
(1256.762907 -481.7534171 9.295342433)
(1762.981 36.54579187 159.4109068)
(1530.487761 -47.15899578 299.7778714)
(1694.247185 459.1151957 126.8873287)
(1571.33314 -20.78437647 23.47001391)
(1258.387052 -206.5338975 121.008973)
(139.4116231 -141.9754185 -312.2847878)
(539.9972987 652.2207294 -784.6765277)
(1332.591277 760.5358529 -384.3979923)
(32.24595228 151.8551231 -483.4779537)
(-962.4992919 384.2791281 -94.38340491)
(1825.806989 -177.4213461 -42.33661268)
(1889.800126 -191.9881934 -164.4147962)
(654.6325801 162.6311302 532.1773078)
(1015.066551 320.8891183 885.418775)
(713.8504028 179.0535865 62.71221215)
(-299.6414535 -276.5699948 213.5032005)
(405.4377008 -36.59769915 317.0902014)
(1286.614861 -65.71064909 169.4520046)
(1761.247606 1011.145856 520.9590815)
(962.5947613 1154.399259 -58.62024398)
(-255.3748661 488.4095733 -3.480186197)
(1094.100108 531.9174773 34.97265974)
(1373.279117 322.8927655 -628.1835657)
(544.949299 1135.001055 -45.96744912)
(1504.128247 25.67973561 413.7028644)
(1639.301476 233.8227603 342.6518815)
(-27.45615292 35.08134025 -243.2959714)
(904.3768808 226.0423513 93.87052363)
(1705.251539 -130.1565578 -143.7309811)
(-39.6583715 852.9672059 -769.6869458)
(1746.497467 399.1536232 43.34033297)
(1828.876046 490.5596347 -272.1120895)
(1654.316292 89.81715344 216.902183)
(1293.666145 859.9080115 -600.2741417)
(979.2739687 660.8590792 8.36748233)
(1208.264653 -427.9153186 -77.37831042)
(1677.124706 193.0464891 -33.26302935)
(1172.065926 10.61149141 900.3350444)
(1174.673917 -287.9621879 89.57307288)
(1810.49595 -104.5545203 -616.8738363)
(1435.607309 -197.4927161 419.9425754)
(2305.894861 -322.7800366 -157.8884685)
(2593.920823 -297.3466546 225.8302944)
(1881.713483 -5.099826808 266.8262933)
(1661.988725 -532.5584273 140.2207904)
(1498.691074 -300.0641961 196.5320821)
(1302.652495 -185.0178738 522.4564098)
(1589.922934 -283.4526906 -93.90610852)
(1578.250044 415.2741211 305.7787272)
(1221.282353 -587.8561021 -137.8095507)
(963.1109128 75.26986521 -354.796659)
(808.0085618 270.0438765 342.5975687)
(1306.231819 1278.538152 -309.9489111)
(-1.703283327 219.7389019 687.5883022)
(1434.415763 1066.294346 28.10603402)
(1367.194168 424.1363343 -162.7612943)
(1155.16124 -68.6535581 -835.8043772)
(-603.7579397 342.9160609 1249.855564)
(1817.042666 569.6999567 740.0236773)
(495.5833939 987.0660716 -267.9750241)
(1565.99283 898.242582 267.0083222)
(824.3041483 955.5700969 -356.4534868)
(718.5379271 196.7556084 686.9169655)
(1704.963984 523.1090665 -731.3738476)
(-246.7072544 340.4128624 -380.0709994)
(1487.236345 121.9979779 -239.9157129)
(-72.03771473 296.3717274 -662.4579965)
(1136.118291 375.3575116 -630.3127564)
(51.43759759 663.3600034 -349.9102982)
(2239.267741 1178.304324 -1555.025612)
(-779.4238049 17.28409383 253.2222643)
(1058.124063 -294.9024761 378.7367666)
(108.1085186 86.20887503 104.7846171)
(631.0745471 1500.687564 67.00421086)
(1938.205264 307.6157915 -288.8406265)
(1368.204446 -150.5284139 21.7362206)
(927.4357309 -229.0144588 -427.0479101)
(1542.585739 203.6667868 -330.8910089)
(548.6044105 -36.01042726 -463.759109)
(1400.380687 272.7004692 -514.0975888)
(1215.020897 97.21042707 -461.9212225)
(1678.797025 82.47649085 -219.593466)
(1383.682687 1198.19674 -121.6625213)
(2008.403275 85.59260974 -642.5670681)
(1438.502887 -43.99616381 295.7097773)
(474.9397182 -391.4409393 376.8790223)
(1775.859001 402.4858187 96.18076163)
(1623.668871 181.2389114 310.3896647)
(1517.542133 166.2075725 -61.22515941)
(1149.772702 -183.8418288 -367.1738891)
(1166.519331 58.70180066 -193.4547349)
(1500.896899 262.8421175 22.88639063)
(2362.517079 -704.4728008 -165.5495953)
(1483.805942 -96.10557304 43.79307782)
(1840.750035 -190.488217 -157.5222663)
(205.2872315 425.1901821 -192.2349504)
(-802.6889447 871.594733 182.6200736)
(470.3310092 -64.00530941 248.339592)
(2108.027535 29.74226093 -270.6601616)
(19.74397558 1269.759488 564.1959266)
(1045.537546 1075.077782 -453.4569197)
(1163.884211 818.7505916 -423.1515811)
(-540.4746448 -164.7229692 413.0495809)
(1220.755779 1070.628199 61.55029024)
(159.014477 160.0858367 -474.7390715)
(997.3465239 -351.1561117 -261.014928)
(568.2179923 1163.818554 47.40092194)
(254.609447 693.4286848 141.9575868)
(1175.383598 206.236935 169.5889432)
(2039.743293 -157.2944686 -70.73704087)
(1322.82361 -153.8149294 73.91267817)
(890.430945 233.4559193 699.9273421)
(924.5455157 150.7531646 93.27116793)
(1208.378606 343.3931887 -225.758724)
(910.6510113 1492.503068 -384.7312574)
(1629.110054 -282.3875133 117.9265443)
(1229.737246 -535.279747 182.1303554)
(1434.660459 -64.34235212 -299.8900628)
(1012.262658 633.7153172 369.581013)
(-253.6639307 296.8343177 930.113717)
(1857.612892 759.0304198 -221.0307896)
(2274.884804 239.3425316 -30.42993778)
(1633.128249 110.8278022 500.7656566)
(1436.201324 -402.8197528 112.0108943)
(1282.783813 1062.244412 -45.72115055)
(1385.679933 112.1259885 -314.4382874)
(1548.205384 246.3132084 -719.3141854)
(1532.288315 -284.9802329 164.937136)
(1542.423211 206.2018287 -170.4033561)
(684.8556618 -1018.534455 204.6710707)
(1639.119973 -226.9032646 92.98418904)
(1280.630096 255.3033072 -379.6972409)
(1457.641574 -301.8251189 95.86813412)
(1207.881427 159.6873612 123.4471091)
(1322.567809 -271.4693827 -178.1008844)
(1375.94803 -280.239443 -501.6840429)
(1626.107259 29.15831179 -159.4915683)
(1425.148035 139.3501282 -243.9945206)
(1243.358771 -289.6581346 17.17438062)
(1284.276981 -142.8628449 -76.7078683)
(1583.599645 -75.84149774 372.6920145)
(1397.753054 -84.11895968 169.8766455)
(1900.173699 1.921772364 339.888042)
(1833.661179 7.407298264 -755.4484677)
(1701.450443 -408.4130876 100.2460808)
(1343.477267 -386.6487594 1339.758431)
(1201.947282 510.6144549 -267.131568)
(1510.931102 -361.9197274 -212.1800695)
(1875.212874 76.75062866 98.20975051)
(1693.330549 -5.055085256 516.6910809)
(1764.03587 -186.1806382 224.5444477)
(1358.333348 282.5634204 -177.5260324)
(1352.39032 446.5848161 687.1582548)
(-86.9419102 948.9383403 -203.3766834)
(140.7649537 827.1969313 96.59701172)
(1472.582427 72.54083774 0.6138355127)
(294.5882975 772.2394196 -128.5345883)
(1448.839824 1323.486176 424.6154635)
(2148.763525 223.3253665 -564.7181746)
(600.7234961 549.7330916 -717.787498)
(1533.702456 -265.5967909 215.4295143)
(475.4938206 -465.510058 430.4833629)
(1363.068578 60.11692047 483.7579672)
(1227.75351 -85.39205706 -0.0615166049)
(1497.035296 -137.7989082 -403.3588283)
(563.1143792 584.5636005 365.893504)
(976.5995948 16.39798286 233.5295477)