/*--------------------------------*- C++ -*----------------------------------*\
| =========                 |                                                 |
| \\      /  F ield         | OpenFOAM: The Open Source CFD Toolbox           |
|  \\    /   O peration     | Version:  2406                                  |
|   \\  /    A nd           | Website:  www.openfoam.com                      |
|    \\/     M anipulation  |                                                 |
\*---------------------------------------------------------------------------*/
FoamFile
{
    version     2.0;
    format      ascii;
    arch        "LSB;label=32;scalar=64";
    class       Cloud<dsmcParcel>;
    location    "0.009/lagrangian/dsmc";
    object      coordinates;
}
// * * * * * * * * * * * * * * * * * * * * * * * * * * * * * * * * * * * * * //

6956
(
(0.1305704084 0.4347147958 0.1542468145 0.2804679812) 465 909 1
(0.005746120543 0.4971269397 0.1886450649 0.3084818748) 449 878 1
(0.1749453425 0.4125273287 0.341673621 0.07085370777) 447 1305 2
(0.2430383112 0.04676577801 0.3317150664 0.3784808444) 459 878 2
(0.0776492128 0.4611753936 0.03617154868 0.4250038449) 557 1081 2
(0.05524673261 0.2318739095 0.4723766337 0.2405027242) 539 1049 2
(0.265284119 0.3673579405 0.01888909582 0.3484688447) 456 873 1
(0.2217219621 0.3168049208 0.07233409818 0.3891390189) 477 913 2
(0.4761902371 0.2619048815 0.08583880828 0.1760660732) 468 896 1
(0.03572051246 0.4821397438 0.08142215275 0.400717591) 538 1048 1
(0.3622085762 0.08857122395 0.2303244879 0.3188957119) 613 1171 2
(0.2197999507 0.3901000247 0.3390087409 0.05109128378) 499 973 1
(0.1342693565 0.08506391064 0.4328653217 0.3478014111) 459 897 2
(0.7788347134 0.1105826433 0.01656364355 0.09401899977) 489 952 2
(0.178670658 0.226614904 0.410664671 0.1840497671) 456 889 1
(0.09406231973 0.2595519078 0.4529688401 0.1934169323) 479 933 1
(0.1368998339 0.3807767877 0.05077329534 0.431550083) 447 1305 1
(0.3688035953 0.3155982024 0.1194173062 0.1961808962) 467 894 1
(0.3132925188 0.1935595488 0.1497941918 0.3433537406) 448 1306 1
(0.01512414963 0.4924379252 0.2497207598 0.2427171653) 458 896 1
(0.06283607223 0.1319282767 0.3366536872 0.4685819639) 456 891 1
(0.004292568687 0.4978537157 0.1054038834 0.3924498323) 468 914 2
(0.1022498722 0.4488750639 0.08818624988 0.360688814) 469 2618 2
(0.5335970586 0.2332014707 0.1748144324 0.05838703831) 549 1068 1
(0.0502947591 0.2707742306 0.4748526205 0.2040783899) 485 947 2
(0.2388342597 0.3805828702 0.227044103 0.1535387671) 538 1029 1
(0.04856936926 0.4757153154 0.408522908 0.06719240738) 458 895 2
(0.1185837002 0.4407081499 0.3882698657 0.05243828422) 468 912 2
(0.1149228589 0.4425385706 0.1293332699 0.3132053007) 499 971 2
(0.05379577289 0.4731021136 0.02806170038 0.4450404132) 529 1028 2
(0.1308116545 0.08019743112 0.3543967416 0.4345941728) 513 981 2
(0.1266166474 0.3288355219 0.4366916763 0.1078561544) 449 878 2
(0.04079666712 0.174243526 0.3053581405 0.4796016664) 445 1303 1
(0.4101902735 0.02777707121 0.2949048633 0.267127792) 478 934 2
(0.4966397197 0.2516801402 0.2016489199 0.05003122023) 446 872 2
(0.2802263178 0.111377904 0.2485089371 0.3598868411) 451 881 1
(0.5646829294 0.1741747695 0.2176585353 0.04348376583) 449 876 1
(0.2955012437 0.03250993192 0.3197394463 0.3522493782) 478 933 1
(0.1039794104 0.4480102948 0.397259333 0.05075096177) 446 870 2
(0.2969095241 0.351545238 0.2953500611 0.05619517685) 449 878 1
(0.771812551 0.1140937245 0.03901377914 0.07507994536) 449 1307 2
(0.3250824811 0.05672330095 0.2807354585 0.3374587594) 455 871 2
(0.6964079905 0.0523671152 0.09942888956 0.1517960048) 447 874 1
(0.04560135481 0.4771993226 0.4412841227 0.03591519989) 447 872 2
(0.2598057695 0.3700971153 0.1752103277 0.1948867876) 511 996 1
(0.4540814584 0.1762406073 0.2729592708 0.0967186635) 509 992 2
(0.7457331689 0.1271334155 0.09796131536 0.02917210017) 449 2616 2
(0.4433571648 0.2783214176 0.08188438775 0.1964370299) 448 877 1
(0.1712439421 0.1889522297 0.2254257993 0.414378029) 466 910 1
(0.2463619167 0.3768190417 0.1898812487 0.1869377929) 447 875 1
(0.8394017162 0.04879095852 0.08029914191 0.03150818339) 449 878 2
(0.2094596213 0.32628754 0.06898264932 0.3952701893) 564 1078 2
(0.296693757 0.3516531215 0.1609377809 0.1907153407) 449 2616 2
(0.192605518 0.403697241 0.07428942089 0.3294078201) 447 1305 2
(0.0774279659 0.2111603338 0.2501256833 0.4612860171) 488 952 1
(0.0378278263 0.4810860869 0.238149655 0.2429364319) 448 877 1
(0.1907950925 0.4046024538 0.3404685246 0.06413392918) 448 874 2
(0.04066319937 0.1261471395 0.4796684003 0.3535212608) 536 1041 1
(0.07490562445 0.4625471878 0.1681862449 0.2943609429) 508 988 2
(0.4256190204 0.2871904898 0.1044142009 0.1827762889) 465 906 2
(0.2212887627 0.188138377 0.2012172416 0.3893556186) 449 1307 1
(0.2753495765 0.3623252117 0.007814712786 0.3545104989) 508 990 2
(0.5279928109 0.2090027343 0.02700086028 0.2360035946) 468 914 1
(0.818585395 0.031646237 0.0590610655 0.0907073025) 447 1305 1
(0.6092803276 0.1953598362 0.1825422324 0.01281760385) 479 933 2
(0.6792780655 0.1309515157 0.1603609673 0.02940945159) 496 968 2
(0.7448915922 0.1275542039 0.01930884403 0.1082453599) 539 1049 1
(0.2430927605 0.01046731871 0.3679863011 0.3784536198) 461 882 2
(0.07955925537 0.1378364696 0.4602203723 0.3223839027) 477 929 1
(0.1791723286 0.2010182959 0.4104138357 0.2093955397) 445 868 1
(0.4532312219 0.2733843891 0.1790906868 0.09429370223) 454 885 2
(0.3242457253 0.3378771374 0.3375642355 0.0003129018861) 457 875 1
(0.04042828615 0.4797858569 0.006104888436 0.4736809685) 459 2617 2
(0.2722715566 0.3638642217 0.0984570836 0.2654071381) 466 910 2
(0.5553423722 0.2223288139 0.2052733678 0.01705544615) 458 877 1
(0.3927117538 0.2809342827 0.02270984039 0.3036441231) 457 875 2
(0.04451354872 0.4777432256 0.4088435252 0.06889970045) 479 933 2
(0.2379603317 0.3810198341 0.09360130815 0.287418526) 614 1173 1
(0.2977245255 0.3511377373 0.2451228972 0.1060148401) 459 895 2
(0.3047518995 0.3476240502 0.3099473396 0.03767671065) 468 915 1
(0.1864073229 0.4067963386 0.2135965198 0.1931998187) 637 1235 2
(0.1558077327 0.4220961336 0.0960440834 0.3260520502) 469 914 2
(0.5156066205 0.2421966898 0.1724973537 0.06969933604) 463 904 2
(0.1696788752 0.2695333586 0.4151605624 0.1456272039) 489 954 2
(0.4021947062 0.2989026469 0.07139132557 0.2275113213) 537 1043 2
(0.05803713617 0.4709814319 0.02816457767 0.4428168542) 469 2618 2
(0.3344763532 0.2182812717 0.3327618234 0.1144805517) 458 893 1
(0.03420821113 0.4828958944 0.09714567631 0.3857502181) 445 868 2
(0.6614306708 0.1692846646 0.02610080696 0.1431838576) 465 890 1
(0.0102791461 0.1925403205 0.494860427 0.3023201065) 459 897 2
(0.867343571 0.0402693193 0.06632821452 0.02605889522) 455 887 1
(0.4116627208 0.2188122951 0.0753563445 0.2941686396) 479 916 2
(0.034310916 0.03034676943 0.4524977726 0.482844542) 466 892 2
(0.5567358469 0.2216320766 0.2046577815 0.01697429504) 445 871 1
(0.151090465 0.3665437147 0.4244547675 0.05791105277) 463 905 2
(0.9584607444 0.02076962778 0.005852173324 0.01491745446) 484 926 1
(0.1624334427 0.4187832786 0.2467429266 0.1720403521) 478 915 1
(0.3163025676 0.3418487162 0.2985643926 0.04328432359) 505 984 2
(0.02809982134 0.450189397 0.03576069228 0.4859500893) 478 933 1
(0.0369694602 0.4815152699 0.09273713326 0.3887781366) 459 878 1
(0.3074316488 0.3462841756 0.03326020775 0.3130239679) 479 935 1
(0.4253032798 0.2873483601 0.2384254933 0.04892286684) 527 1026 2
(0.8381258527 0.08093707366 0.03842048558 0.04251658808) 487 948 2
(0.6891605093 0.04240852341 0.1130112219 0.1554197454) 495 965 1
(0.1712981833 0.4012120664 0.4143509084 0.01313884198) 456 889 1
(0.6853425371 0.1573287314 0.03505181118 0.1222769203) 457 894 1
(0.805648332 0.05059391991 0.04658191406 0.09717583398) 469 897 2
(0.2686799792 0.1430348897 0.2226251207 0.3656600104) 464 888 2
(0.01055260355 0.4947236982 0.1428034363 0.351920262) 479 933 2
(0.4121005808 0.2939497096 0.05549926351 0.2384504461) 467 894 1
(0.4839686228 0.2580156886 0.09718931351 0.1608263751) 466 910 2
(0.09751591461 0.01284836211 0.4383936806 0.4512420427) 477 931 1
(0.5223046135 0.2388476933 0.1028123242 0.1360353691) 536 1043 2
(0.0256460136 0.1262795333 0.4871769932 0.3608974599) 461 901 2
(0.8282403292 0.08587983541 0.006371226064 0.07950860935) 446 872 2
(0.3435305883 0.3282347059 0.04313818871 0.2850965172) 446 872 2
(0.4715816927 0.2642091536 0.234809345 0.02939980864) 467 912 2
(0.214516776 0.392741612 0.3399438454 0.05279776661) 449 878 1
(0.9495638287 0.02521808567 0.001135122809 0.02408296286) 477 932 1
(0.6821598957 0.0226472387 0.1362728135 0.1589200522) 469 897 2
(0.27436446 0.36281777 0.2502752557 0.1125425143) 457 891 2
(0.0480456574 0.006179557281 0.469797614 0.4759771713) 445 1303 1
(0.02488304985 0.3952572586 0.09230121646 0.4875584751) 463 904 1
(0.1304581454 0.4347709273 0.2071840622 0.2275868651) 477 932 1
(0.4740976749 0.2629511626 0.1037381709 0.1592129917) 449 2616 2
(0.1403768611 0.4298115695 0.04531653694 0.3844950325) 575 1099 1
(0.3508985366 0.1386574564 0.1858932753 0.3245507317) 449 1307 1
(0.4069389195 0.2965305403 0.2807202141 0.01581032619) 509 2622 2
(0.1098187424 0.1902764321 0.2548141967 0.4450906288) 459 878 2
(0.2202764688 0.08689402822 0.3029677374 0.3898617656) 498 953 2
(0.601487737 0.1222272346 0.1992561315 0.07702889691) 449 878 2
(0.02331344419 0.4883432779 0.2047920222 0.2835512557) 478 931 2
(0.006439979653 0.01370602491 0.4830739853 0.4967800102) 456 891 1
(0.301301805 0.3493490975 0.1720508183 0.1772982793) 448 1306 2
(0.4969798939 0.03702100811 0.214489045 0.2515100531) 448 1306 1
(0.4428002978 0.1035736352 0.1750262159 0.2785998511) 489 2620 1
(0.567542818 0.216228591 0.1367823513 0.0794462397) 477 931 2
(0.0704195278 0.02930146032 0.4647902361 0.4354887758) 457 891 1
(0.1609160023 0.4195419988 0.04185229382 0.377689705) 507 989 1
(0.7886958713 0.08978546723 0.01586659711 0.1056520643) 469 897 2
(0.6136798474 0.1931600763 0.1253329193 0.06782715697) 483 924 1
(0.01637120875 0.4918143956 0.2970090093 0.1948053863) 456 873 1
(0.2510206198 0.3744896901 0.2170594518 0.1574302384) 488 934 1
(0.7828704179 0.1085647911 0.01224982739 0.09631496368) 488 953 1
(0.2512717498 0.3743641251 0.3666691778 0.007694947313) 456 889 2
(0.08973259525 0.0293848417 0.4257488607 0.4551337024) 489 935 2
(0.2940250844 0.3529874578 0.2234798888 0.129507569) 447 872 2
(0.1084071893 0.4457964054 0.339061553 0.1067348524) 538 1047 2
(0.3121167462 0.3439416269 0.188320341 0.1556212859) 507 988 2
(0.02387388269 0.4671312609 0.02093179772 0.4880630587) 447 874 1
(0.4113370992 0.2943314504 0.1889590303 0.1053724201) 459 2617 2
(0.05652908985 0.01021700417 0.4615184509 0.4717354551) 464 888 2
(0.0788004543 0.4605997729 0.05583930805 0.4047604648) 467 894 1
(0.8765454781 0.01827026763 0.04345699331 0.06172726094) 473 905 2
(0.3159922631 0.1708497358 0.3420038685 0.1711541326) 457 894 2
(0.3336851357 0.05876381926 0.2743936129 0.3331574322) 539 2625 1
(0.2427339343 0.3786330328 0.2921706818 0.08646235105) 465 890 1
(0.06093629828 0.2691109776 0.4695318509 0.2004208733) 469 914 1
(0.4239802199 0.28800989 0.08887135124 0.1991385388) 446 870 2
(0.5019260135 0.177585111 0.2490369932 0.07145188227) 457 891 1
(0.4103718813 0.09726478301 0.2948140593 0.1975492763) 481 936 1
(0.4365779341 0.1500891594 0.1316218735 0.2817110329) 454 869 2
(0.01007258256 0.4949637087 0.2462458515 0.2487178572) 469 897 1
(0.5352749051 0.1409492667 0.2323625474 0.09141328075) 557 1084 2
(0.6503253695 0.1597458923 0.0150914229 0.1748373152) 486 930 2
(0.07791196365 0.4610440182 0.1745161165 0.2865279017) 516 1006 1
(0.4626412675 0.2686793663 0.1460600547 0.1226193115) 509 973 1
(0.3853991565 0.3073004217 0.2838982586 0.02340216318) 440 860 2
(0.1013548303 0.4493225849 0.02400506139 0.4253175235) 448 874 2
(0.701484023 0.1492579885 0.09719738956 0.05206059894) 465 890 1
(0.1226397673 0.4386801164 0.1715645754 0.2671155409) 462 903 1
(0.8446559574 0.07767202132 0.02806036132 0.04961165999) 526 1025 1
(0.6642909799 0.16785451 0.02079406044 0.1470604496) 452 884 1
(0.4974308791 0.2512845605 0.09879813423 0.1524864262) 469 897 1
(0.5852001462 0.2073999269 0.09223595181 0.1151639751) 459 878 1
(0.3586665243 0.3206667379 0.1359587603 0.1847079776) 557 1084 1
(0.8899677873 0.05501610634 0.01236494745 0.04265115889) 485 947 1
(0.1423512662 0.004403356219 0.4288243669 0.4244210107) 499 971 1
(0.0433895043 0.3511668768 0.127138371 0.4783052479) 466 892 2
(0.2278250386 0.3860874807 0.3529245516 0.03316292916) 499 973 1
(0.09200021318 0.3660467759 0.4539998934 0.08795311752) 497 967 1
(0.3763945351 0.3118027324 0.04853758571 0.2632651467) 446 1304 2
(0.4634210234 0.2682894883 0.2511717233 0.01711776504) 463 886 1
(0.6832200215 0.1583899893 0.03234682393 0.1260431653) 567 1084 1
(0.1116629119 0.3693629737 0.07480557035 0.4441685441) 497 969 1
(0.6497915409 0.1751042295 0.1448563041 0.03024792544) 485 947 1
(0.2461995032 0.02816973435 0.348730514 0.3769002484) 446 1304 1
(0.1278560113 0.3762190889 0.4360719944 0.05985290548) 468 915 2
(0.2751802867 0.3624098567 0.03728652065 0.325123336) 444 868 2
(0.523476494 0.04203027756 0.238261753 0.1962314754) 77 155 2
(0.5121903462 0.2439048269 0.01051248531 0.2333923416) 458 896 1
(0.8077787781 0.07542722015 0.02068339081 0.09611061095) 446 1304 1
(0.1542385942 0.2506232704 0.4228807029 0.1722574325) 456 889 1
(0.4551123124 0.1666397645 0.2724438438 0.1058040793) 448 874 1
(0.1996684686 0.4001657657 0.02074667859 0.3794190871) 469 897 1
(0.6076073625 0.1123605235 0.08383579522 0.1961963187) 617 1197 1
(0.3832571978 0.3083714011 0.2518586456 0.05651275549) 446 870 2
(0.8814104772 0.03435977692 0.05929476139 0.02493498447) 448 874 1
(0.6291227429 0.05427657754 0.131162051 0.1854386285) 469 897 2
(0.1863049304 0.4068475348 0.3147684662 0.09207906858) 448 1306 2
(0.0005637603699 0.03489742383 0.4997181198 0.464820696) 448 877 2
(0.3835947303 0.1060342262 0.3082026348 0.2021684086) 539 1049 2
(0.3532561609 0.3233719195 0.03164273899 0.2917291805) 466 911 1
(0.5383916763 0.2308041619 0.08975874058 0.1410454213) 455 889 2
(0.1677660829 0.2838515092 0.4161169585 0.1322654494) 469 914 1
(0.7847034643 0.05025627202 0.05739199584 0.1076482679) 497 969 1
(0.1878415718 0.2336244989 0.1724547152 0.4060792141) 483 924 2
(0.1673194983 0.3646445055 0.4163402508 0.05169574533) 459 895 1
(0.4163902401 0.2052610034 0.29180488 0.08654387656) 486 946 1
(0.5043936592 0.2478031704 0.2400974218 0.007705748553) 456 889 2
(0.2135537736 0.3932231132 0.1548330307 0.2383900825) 444 1302 2
(0.1837150291 0.1115483165 0.2965941689 0.4081424855) 478 915 2
(0.4420114319 0.2789942841 0.2748714711 0.004122812996) 469 897 1
(0.0400513547 0.2152591383 0.2647151844 0.4799743227) 445 870 1
(0.4468223804 0.2300083094 0.2765888098 0.04658050043) 509 992 2
(0.08259200003 0.2556307733 0.2030732267 0.458704) 467 912 1
(0.3205193612 0.0823645729 0.2573757465 0.3397403194) 447 874 1
(0.2093966641 0.3427939986 0.395301668 0.05250766934) 457 894 2
(0.3208672111 0.295888011 0.04367838342 0.3395663944) 447 874 1
(0.7205117169 0.1397441416 0.07848383027 0.06126031129) 466 892 1
(0.07550313457 0.4622484327 0.1513990922 0.3108493405) 598 1162 1
(0.2571996685 0.09026832801 0.2811318378 0.3714001658) 619 2633 1
(0.2788976103 0.07489449593 0.3605511949 0.2856566989) 176 350 1
(0.3802625287 0.3098687357 0.0976265462 0.2122421895) 518 1010 1
(0.8908496374 0.05457518131 0.03674341708 0.01783176423) 443 866 2
(0.4868369239 0.256581538 0.03201875376 0.2245627843) 489 2620 2
(0.6839659287 0.02440414239 0.1336128933 0.1580170357) 443 1301 1
(0.6545300663 0.1727349668 0.1447390314 0.02799593542) 455 889 2
(0.3653766965 0.2383929451 0.3173116518 0.07891870668) 471 920 2
(0.2460607732 0.1208636131 0.3769696134 0.2561060003) 449 876 1
(0.03232084241 0.3453461572 0.1384934216 0.4838395788) 485 928 2
(0.1674655436 0.05080047804 0.3654667502 0.4162672282) 527 1026 1
(0.2849776347 0.1149511152 0.2425600675 0.3575111827) 489 2620 1
(0.3868900312 0.3065549844 0.08911478115 0.2174402032) 469 897 1
(0.7986430572 0.1006784714 0.05136352984 0.04931494158) 473 923 2
(0.1594601637 0.4202699182 0.4180234144 0.002246503803) 527 1026 2
(0.687763649 0.1561181755 0.05355188765 0.1025662879) 485 944 2
(0.3040396302 0.3479801849 0.10525073 0.2427294549) 497 951 1
(0.5052403481 0.06112821286 0.247379826 0.1862516131) 499 971 1
(0.2563588806 0.3433558667 0.3718205597 0.02846469301) 618 1197 1
(0.5484556187 0.2257721906 0.05191179268 0.173860398) 629 1220 1
(0.4668484301 0.2665757849 0.2504895197 0.01608626526) 477 931 2
(0.1385685848 0.2594864846 0.171229223 0.4307157076) 449 2616 1
(0.4328744601 0.2835627699 0.08986623395 0.193696536) 515 1004 1
(0.8375211334 0.0189446591 0.06229477421 0.08123943331) 455 871 2
(0.2021931152 0.3989034424 0.2418730413 0.1570304011) 468 914 2
(0.08237292624 0.02787588352 0.4588135369 0.4309376534) 449 878 2
(0.2848185583 0.3575907208 0.1463254489 0.2112652719) 508 990 2
(0.1602372737 0.02723670156 0.3926446616 0.4198813632) 499 954 2
(0.2355758124 0.3822120938 0.3687489806 0.01346311322) 448 876 2
(0.5008444692 0.2495777654 0.2494595784 0.0001181870221) 459 897 1
(0.2519600497 0.3740199751 0.298395825 0.07562415018) 455 889 2
(0.216943004 0.391528498 0.1340595784 0.2574689196) 462 884 1
(0.3734003221 0.03370386332 0.2795959756 0.3132998389) 457 893 1
(0.545058902 0.1858758145 0.227470549 0.0415947345) 448 877 2
(0.6122293822 0.1678234678 0.1938853089 0.0260618411) 519 1011 2
(0.9103815133 0.04480924337 0.02707793257 0.0177313108) 469 916 1
(0.1900952129 0.2643312008 0.1406211927 0.4049523935) 479 916 2
(0.01435605019 0.4928219749 0.153327577 0.3394943979) 463 905 1
(0.6655473657 0.06313357263 0.1040927445 0.1672263171) 469 2618 1
(0.4182873523 0.2908563239 0.07783602154 0.2130203023) 537 1027 1
(0.5178189626 0.2410905187 0.1337987144 0.1072918043) 529 1030 1
(0.2468006882 0.3414249904 0.03517466554 0.3765996559) 599 2631 1
(0.6664163389 0.1667918305 0.004155892253 0.1626359383) 463 905 1
(0.2983844451 0.3508077774 0.1060327246 0.2447750529) 512 995 2
(0.07520941114 0.2299021699 0.4623952944 0.2324931245) 487 948 1
(0.4039506342 0.1755467863 0.1224778966 0.2980246829) 447 874 1
(0.2637792881 0.2521053227 0.3681103559 0.1160050332) 476 930 2
(0.2575183522 0.3712408239 0.06267927466 0.3085615492) 488 950 2
(0.5616681275 0.09760937946 0.2191659363 0.1215565568) 485 944 1
(0.1540927279 0.422953636 0.1915237882 0.2314298478) 458 877 1
(0.005568461396 0.3624213503 0.134794419 0.4972157693) 495 965 1
(0.3866836363 0.2220615912 0.08459659066 0.3066581818) 509 973 2
(0.4520423755 0.2739788122 0.1977110881 0.0762677241) 442 1300 2
(0.2382071378 0.2471536415 0.1337427896 0.3808964311) 485 946 1
(0.4246138465 0.2876930768 0.003911935905 0.2837811409) 458 896 1
(0.8480707654 0.04414764538 0.07596461728 0.0318169719) 524 1018 1
(0.1764526681 0.4117736659 0.0765850682 0.3351885977) 508 972 1
(0.3820899859 0.308955007 0.145804373 0.163150634) 477 931 2
(0.4569572623 0.2715213689 0.02188821681 0.2496331521) 569 1104 2
(0.0154946828 0.4922526586 0.346316012 0.1459366466) 488 950 2
(0.07911396347 0.4604430183 0.412656672 0.04778634628) 490 955 2
(0.2336105158 0.3831947421 0.1452896898 0.2379050523) 459 895 2
(0.3901246473 0.3049376763 0.2283820697 0.07655560667) 449 876 2
(0.156534115 0.03533391866 0.3863990238 0.4217329425) 458 877 2
(0.8999989703 0.05000051484 0.02196052566 0.02803998919) 469 916 1
(0.4638624082 0.2680687959 0.08468284773 0.1833859482) 456 873 1
(0.7723957227 0.00560322421 0.1081989144 0.1138021386) 77 154 1
(0.4044379127 0.006543457135 0.2977810436 0.2912375865) 488 953 2
(0.4435232543 0.2782383728 0.05003812335 0.2282002495) 513 997 2
(0.1066640729 0.1015766883 0.4466679635 0.3450912753) 453 886 2
(0.7102415294 0.1448792353 0.09822898713 0.04665024815) 489 952 2
(0.6737391537 0.1631304232 0.04412600811 0.1190044151) 465 909 1
(0.01500032314 0.06189807465 0.4306017638 0.4924998384) 466 892 2
(0.2502475225 0.02595695009 0.3748762387 0.3489192886) 457 891 1
(0.2703064923 0.08151663871 0.3648467538 0.2833301151) 472 922 2
(0.07162263235 0.05264368467 0.4641886838 0.4115449992) 558 1086 2
(0.6164838467 0.1917580766 0.1592960797 0.03246199689) 489 935 1
(0.1545739323 0.07676991478 0.4227130339 0.3459431191) 549 1066 1
(0.2008682763 0.3995658618 0.2459276537 0.1536382081) 567 1102 2
(0.5133020757 0.1367556044 0.1065933577 0.2433489621) 569 2628 1
(0.4016799237 0.2991600381 0.05913312797 0.2400269102) 609 1163 1
(0.07938147292 0.4603092635 0.2448232479 0.2154860157) 518 1007 2
(0.02301390966 0.4326295126 0.05586353262 0.4884930452) 459 878 2
(0.5945296162 0.1376514517 0.06508374019 0.2027351919) 548 1048 2
(0.2095891364 0.3882086763 0.006996755533 0.3952054318) 468 914 1
(0.2788139586 0.0107963731 0.3605930207 0.3497966476) 496 968 2
(0.009096222094 0.495451889 0.3843678807 0.1110840083) 450 879 2
(0.2774920758 0.1992423792 0.1620115829 0.3612539621) 479 916 2
(0.01442348633 0.4927882568 0.4510136641 0.04177459269) 448 874 2
(0.7225263972 0.1387368014 0.08672329949 0.05201350191) 483 942 2
(0.4144716003 0.2804174462 0.2927641998 0.01234675366) 444 869 2
(0.2138254804 0.3930872598 0.1147856849 0.2783015749) 515 1004 1
(0.4933584685 0.2533207657 0.2093299222 0.04399084359) 469 914 2
(0.2284051182 0.1367107941 0.3857974409 0.2490866468) 447 872 1
(0.1227363083 0.1610473094 0.4386318459 0.2775845364) 448 877 2
(0.1388861723 0.3100232125 0.4305569138 0.1205337014) 473 924 2
(0.6416100588 0.005373674685 0.1738212959 0.1791949706) 515 1003 1
(0.4187894037 0.2906052982 0.2871372545 0.003468043622) 479 2619 2
(0.3591907924 0.3204046038 0.1240522454 0.1963523584) 566 1101 1
(0.3028603503 0.3485698248 0.2684939812 0.08007584368) 565 1096 2
(0.8042350417 0.09788247914 0.06012032363 0.03776215552) 639 2635 2
(0.08295919923 0.3897222539 0.06879814654 0.4585204004) 549 1049 2
(0.2592212569 0.05228626789 0.3181031037 0.3703893716) 648 1238 2
(0.5711958342 0.2144020829 0.0704182772 0.1439838057) 637 1236 1
(0.7905860755 0.09314792479 0.01155903748 0.1047069623) 445 1303 1
(0.3292681684 0.1794172313 0.3353659158 0.1559486845) 468 912 1
(0.3712509397 0.3143745302 0.2475686284 0.06680590178) 459 895 2
(0.02420181632 0.4878990918 0.4476081287 0.0402909631) 455 889 2
(0.1056153008 0.06768959079 0.4471923496 0.3795027588) 442 865 2
(0.03236061807 0.483819691 0.08601922797 0.397800463) 539 1049 1
(0.3859867833 0.3070066083 0.2762740024 0.03073260597) 515 1003 2
(0.2116416423 0.3941791788 0.3658567942 0.02832238461) 555 1077 2
(0.3870636106 0.06756416014 0.3064681947 0.2389040345) 489 952 1
(0.3681353818 0.3159323091 0.08294204491 0.2329902642) 504 982 2
(0.03389045563 0.4830547722 0.4465460959 0.03650867626) 448 874 2
(0.0352257575 0.3332732078 0.1491139135 0.4823871213) 554 1077 1
(0.8140160029 0.01143932973 0.08155266883 0.09299199856) 564 1078 2
(0.4335062624 0.09026200272 0.2832468688 0.1929848661) 516 1006 2
(0.7404628853 0.1297685573 0.1009197086 0.02884884869) 583 1114 1
(0.0408544739 0.4795727631 0.4668780554 0.0126947077) 569 2628 2
(0.6423063535 0.1788468233 0.04303650046 0.1358103228) 569 2628 2
(0.07461975326 0.4626901234 0.1449565183 0.317733605) 559 1068 1
(0.105454829 0.4472725855 0.1684742077 0.2787983778) 638 1237 2
(0.3518330293 0.3240834854 0.1383339441 0.1857495413) 589 2630 2
(0.3195434074 0.3402282963 0.142166736 0.1980615603) 609 1163 1
(0.4651829396 0.2674085302 0.2611361931 0.006272337097) 621 1186 1
(0.4522578479 0.25993636 0.01393471601 0.273871076) 547 1064 1
(0.1424886167 0.4287556916 0.04929119461 0.379464497) 481 938 2
(0.4681356649 0.2659321675 0.2030968753 0.06283529226) 453 883 2
(0.2664383089 0.3223222919 0.3667808456 0.04445855366) 478 931 1
(0.3720083478 0.3139958261 0.1907981133 0.1231977128) 513 981 1
(0.8965907291 0.02500834162 0.02669629383 0.05170463545) 546 1062 1
(0.1039374593 0.4480312703 0.3568038249 0.09122744541) 454 869 1
(0.539046802 0.230476599 0.1678286565 0.06264794246) 526 1024 2
(0.2908066029 0.3545966985 0.3278965451 0.02670015346) 485 946 2
(0.5815378421 0.1086594922 0.1005715868 0.2092310789) 441 1299 1
(0.009484793532 0.4952576032 0.106078364 0.3891792392) 469 897 1
(0.05735446058 0.4201588531 0.05116391664 0.4713227697) 518 991 2
(0.1302571698 0.1969107009 0.2379607142 0.4348714151) 467 894 2
(0.005329409918 0.3112490135 0.1860862815 0.497335295) 448 876 1
(0.4479688651 0.0771714775 0.19884409 0.2760155675) 466 892 2
(0.4805192871 0.2597403564 0.1734835881 0.08625676835) 456 891 2
(0.1139525758 0.1366959416 0.4430237121 0.3063277705) 457 891 1
(0.04465510854 0.4776724457 0.4209903387 0.05668210707) 528 1010 1
(0.6226161139 0.1673620926 0.188691943 0.02132985042) 588 1140 1
(0.2355219762 0.3822390119 0.1268858873 0.2553531246) 547 1062 2
(0.4063487985 0.1094241002 0.1874015006 0.2968256008) 486 930 2
(0.6482098882 0.1395257246 0.1758950559 0.03636933125) 482 938 1
(0.514024418 0.242987791 0.05624349726 0.1867442938) 451 881 2
(0.7944522535 0.1027738733 0.0009436371663 0.1018302361) 469 2618 2
(0.1084898476 0.4457550762 0.2335843729 0.2121707033) 479 2619 2
(0.3659872172 0.3170063914 0.2717231208 0.04528327059) 448 874 2
(0.1646086454 0.4176956773 0.04868004997 0.3690156273) 489 935 1
(0.5813014978 0.2093492511 0.009702636871 0.1996466142) 477 929 2
(0.5214458094 0.1218304082 0.2392770953 0.1174466871) 488 953 2
(0.6899337091 0.1401428315 0.1550331454 0.01489031391) 557 1084 2
(0.03499518708 0.4825024065 0.4377537846 0.04474862189) 456 891 2
(0.01540342181 0.4922982891 0.2790008988 0.2132973903) 447 1305 2
(0.5299003355 0.2350498322 0.05179784982 0.1832519824) 549 1049 1
(0.2150266984 0.3924866508 0.3333319425 0.05915470831) 477 932 1
(0.7200985909 0.0976123058 0.04233839873 0.1399507045) 528 1028 1
(0.1944998676 0.4027500662 0.3597741199 0.04297594627) 486 930 1
(0.2245352337 0.2886024532 0.09912992998 0.3877323832) 498 953 2
(0.2342678434 0.05542612544 0.3274399529 0.3828660783) 524 1020 1
(0.124786532 0.2019179015 0.437606734 0.2356888325) 527 1027 2
(0.1667935918 0.1697291534 0.2468740507 0.4166032041) 507 988 1
(0.2961197545 0.3519401227 0.2965836138 0.05535650897) 507 988 2
(0.6832928322 0.1583535839 0.1556945467 0.002659037206) 537 1027 1
(0.03385280603 0.04196535678 0.4411082402 0.483073597) 586 1138 1
(0.0624166065 0.03030313703 0.4687916968 0.4384885597) 589 1144 2
(0.5524841348 0.2237579326 0.01038091423 0.2133770184) 619 1201 1
(0.3478060183 0.07419924972 0.2518977411 0.3260969909) 589 2630 1
(0.3611557654 0.3194221173 0.02627725469 0.2931448626) 578 1121 2
(0.1439232308 0.4280383846 0.387050784 0.04098760065) 547 1062 2
(0.06483112092 0.4675844395 0.3018024199 0.1657820196) 557 1081 2
(0.7216124919 0.02347897805 0.115714776 0.1391937541) 454 887 1
(0.9231755726 0.01278689734 0.0384122137 0.02562531636) 445 871 2
(0.1065513548 0.08777998054 0.3589443421 0.4467243226) 484 926 2
(0.519529439 0.2402352805 0.02158090954 0.218654371) 445 1303 2
(0.2051370376 0.1871002934 0.3974314812 0.2103311878) 503 981 2
(0.06239800561 0.4065610238 0.06223997338 0.4688009972) 443 1301 1
(0.1996724894 0.4001637553 0.09041309105 0.3097506643) 457 875 1
(0.01170846068 0.2031718731 0.4941457697 0.2909738966) 464 907 2
(0.09585533535 0.4520723323 0.02203834864 0.4300339837) 499 971 2
(0.4760188079 0.2010014629 0.2619905961 0.06098913318) 497 967 1
(0.09277596875 0.4536120156 0.2112223521 0.2423896635) 446 870 2
(0.03800285259 0.03240168139 0.4485968923 0.4809985737) 467 912 1
(0.02633221089 0.4450317995 0.4868338946 0.04180209504) 464 904 1
(0.5652965527 0.07726847307 0.2173517237 0.1400832506) 539 1049 2
(0.1375347487 0.4312326256 0.3055303581 0.1257022675) 447 872 2
(0.13319537 0.3809847677 0.433402315 0.05241754724) 525 1023 2
(0.5259169814 0.2370415093 0.1531985606 0.08384294871) 483 943 1
(0.108043268 0.445978366 0.1356480329 0.3103303331) 489 952 2
(0.2723354516 0.3470876356 0.01674463854 0.3638322742) 469 2618 1
(0.2353134168 0.3405008946 0.3823432916 0.041842397) 447 875 2
(0.7390816075 0.1304591962 0.06411740256 0.06634179368) 497 967 2
(0.4696683781 0.2651658109 0.1296797287 0.1354860822) 538 1029 1
(0.1045424823 0.231764151 0.4477287589 0.2159646079) 527 1027 2
(0.4313458385 0.2843270807 0.07613071575 0.208196365) 535 1023 1
(0.4618570391 0.2690714804 0.1859788351 0.08309264539) 547 1064 2
(0.0007150008662 0.4996424996 0.133008649 0.3666338505) 626 1214 2
(0.4958231222 0.2520884389 0.04994816993 0.2021402689) 619 1182 1
(0.4323665905 0.2838167047 0.2497676171 0.03404908762) 569 1087 1
(0.4373607583 0.257808027 0.02351159379 0.2813196208) 649 2636 1
(0.2811075616 0.3594462192 0.332219597 0.02722662226) 456 892 1
(0.03057492029 0.1169323091 0.4847125399 0.3677802308) 458 896 2
(0.5409811386 0.2295094307 0.0548809747 0.174628456) 475 927 2
(0.551536289 0.2242318555 0.08197657173 0.1422552838) 448 874 2
(0.3717379146 0.3141310427 0.137835708 0.1762953348) 466 911 1
(0.3578320193 0.007116875897 0.3139671144 0.3210839903) 507 988 1
(0.6283293636 0.185063791 0.0007715271551 0.1858353182) 458 895 1
(0.197888212 0.401055894 0.2483976132 0.1526582808) 448 877 1
(0.4137836779 0.293108161 0.2189070012 0.0742011598) 488 953 1
(0.5624079707 0.2187960147 0.06846064968 0.150335365) 444 868 2
(0.02132759146 0.2962416997 0.1930945045 0.4893362043) 444 868 1
(0.1095212667 0.2999141123 0.1453252544 0.4452393666) 449 2616 1
(0.2573884077 0.3713057961 0.3487863122 0.02251948396) 497 970 1
(0.1844960059 0.07458540938 0.4077519971 0.3331665877) 476 930 2
(0.6211064951 0.01856843936 0.1708783131 0.1894467524) 446 1304 1
(0.4027105721 0.2986447139 0.04930192433 0.2493427896) 466 911 1
(0.1241563759 0.2432188704 0.1947029417 0.437921812) 516 987 2
(0.4559873797 0.2720063102 0.1765602443 0.09544606584) 398 757 1
(0.404262661 0.2978686695 0.1734480958 0.1244205737) 518 1007 2
(0.04083201131 0.4795839943 0.1853187399 0.2942652544) 517 1008 1
(0.7445824461 0.1277087769 0.02697188865 0.1007368883) 617 1197 2
(0.5869082082 0.2065458959 0.1741661866 0.03237970927) 577 1103 1
(0.2531036764 0.1981578047 0.3734481618 0.1752903571) 638 1238 2