/*--------------------------------*- C++ -*----------------------------------*\
| =========                 |                                                 |
| \\      /  F ield         | OpenFOAM: The Open Source CFD Toolbox           |
|  \\    /   O peration     | Version:  2406                                  |
|   \\  /    A nd           | Website:  www.openfoam.com                      |
|    \\/     M anipulation  |                                                 |
\*---------------------------------------------------------------------------*/
FoamFile
{
    version     2.0;
    format      ascii;
    arch        "LSB;label=32;scalar=64";
    class       scalarField;
    location    "0.009/lagrangian/dsmc";
    object      Ei;
}
// * * * * * * * * * * * * * * * * * * * * * * * * * * * * * * * * * * * * * //


6956
(
1.134144759e-19
6.852393349e-21
2.506398091e-20
6.354237945e-21
2.895836606e-21
9.196848825e-22
1.260790566e-21
5.746012125e-21
9.149689079e-21
5.990546255e-22
1.108924549e-20
1.130643108e-20
1.732957089e-20
7.8489294e-21
1.221486549e-20
6.728323353e-21
9.636521522e-21
6.312367956e-22
1.371966122e-20
1.520356583e-20
3.910780686e-20
2.186094833e-20
1.400042098e-20
1.346425884e-20
1.286095702e-20
1.678993453e-20
4.936129496e-21
4.378764836e-21
3.943116378e-21
6.394292325e-21
1.403447355e-21
1.161727777e-20
8.459699414e-21
5.156406838e-22
2.001124172e-21
4.871503665e-21
4.547200925e-21
3.009662486e-21
8.393273293e-21
3.790004908e-21
1.20986008e-20
1.511428642e-20
8.935748529e-22
7.20535656e-21
2.954556088e-20
1.778674406e-20
4.92769391e-21
3.320942816e-21
8.723559937e-21
2.474697412e-21
3.440259405e-21
5.487781134e-22
7.441677457e-21
5.179746719e-20
3.366430412e-21
9.562912549e-21
7.316579691e-22
9.140232783e-21
1.7479568e-20
2.50130944e-21
7.614154928e-21
1.810092332e-22
5.567221885e-21
2.626951177e-21
5.467539098e-21
2.096659373e-21
1.696051869e-20
2.974629265e-20
4.561316995e-21
4.690534366e-20
1.403065857e-20
9.404835079e-21
1.153409439e-21
1.501148743e-20
1.003177529e-20
9.939515377e-21
2.059812287e-20
1.400211751e-20
2.000835422e-21
6.237615789e-21
5.228601581e-20
1.807349758e-20
2.889569891e-21
1.99396737e-20
8.350447069e-21
1.968470789e-20
9.778796683e-21
1.007408167e-20
1.275551658e-20
1.288068238e-20
1.765051766e-21
9.869673232e-21
7.351930749e-21
8.277525667e-21
1.808859737e-22
5.177852488e-20
2.387150186e-21
9.839821066e-21
9.62614183e-22
7.661654198e-21
1.749148702e-20
2.372235884e-21
3.415881664e-22
5.461853273e-21
1.720814864e-21
1.791334611e-20
3.096004316e-20
2.650832396e-20
5.36592596e-21
3.546375069e-22
2.374209336e-20
9.827525715e-22
1.002225735e-20
4.758948515e-21
8.308612124e-22
1.881476686e-21
2.503668918e-21
3.511512458e-21
5.050223948e-21
5.941294898e-21
1.45111186e-21
7.385235223e-21
1.129217088e-20
6.276653737e-21
8.718957196e-21
2.651960971e-21
3.213101291e-21
2.823784169e-21
9.219851571e-21
2.161641018e-20
4.805671848e-21
3.0196309e-22
9.791814608e-21
5.428200049e-21
9.851428516e-21
4.737702655e-21
8.706260505e-21
3.547345276e-21
3.789756132e-21
4.51483014e-20
1.212062292e-20
7.245473508e-21
7.505997932e-22
3.599374638e-21
4.828348677e-21
5.885193179e-20
1.16961392e-20
5.542748708e-21
2.520408267e-21
5.708709138e-22
3.10432773e-20
3.720587147e-21
1.233410339e-21
1.567156395e-20
4.869891469e-21
2.776356418e-20
2.443148301e-21
1.43385931e-21
1.915382759e-20
4.139157464e-20
6.383850942e-21
3.587774546e-22
1.917309562e-20
2.766487001e-20
3.616658393e-21
2.627105305e-20
1.900304582e-21
4.418948423e-22
5.904980415e-21
8.70646321e-21
3.844874326e-20
4.241033486e-22
9.601616523e-21
8.898094707e-22
1.31582961e-21
1.65201205e-21
1.973493451e-20
1.851664936e-20
1.509444006e-21
3.331890066e-21
2.081460147e-20
2.806520938e-23
2.155558636e-20
7.295404018e-21
7.396208271e-21
1.53459131e-21
2.819444579e-20
4.918818498e-21
2.675602106e-20
5.737700086e-21
3.898403044e-20
1.452478374e-20
2.012929286e-22
1.68548992e-20
1.216835764e-21
1.977236322e-22
4.874284548e-21
1.704950281e-20
1.055320193e-20
1.107725704e-20
2.236813093e-21
5.627841517e-21
1.598943354e-20
2.228434288e-20
1.428047802e-21
2.819875463e-21
4.519520712e-20
5.209269646e-21
6.671635976e-22
1.824442638e-21
1.517047108e-20
4.953489016e-21
1.083233319e-20
6.446052372e-21
1.163454291e-20
4.291825007e-20
6.667555451e-21
1.058077291e-20
8.2956636e-21
9.320341139e-21
1.375959811e-21
2.906179573e-21
7.008936974e-21
1.114343003e-21
4.520265921e-21
2.06624739e-20
1.847486718e-20
7.741171695e-21
2.250546218e-20
1.492627511e-20
1.458746721e-21
4.206769782e-20
9.878332748e-22
3.892509766e-21
2.202815372e-21
2.252649893e-21
1.855957423e-20
4.030315144e-21
2.883947907e-21
7.127863165e-21
5.763014934e-22
1.114914384e-20
6.376123964e-21
1.527575673e-20
1.426820096e-20
2.639022997e-22
3.989858467e-21
2.494159127e-20
5.589674728e-21
2.444275433e-21
6.826587137e-21
2.398228216e-20
1.512891695e-20
1.661037778e-21
7.397377026e-21
7.134933329e-22
4.341823337e-20
2.338393381e-21
5.346417581e-21
6.651189881e-21
3.062872191e-21
5.34974263e-21
5.52557737e-21
7.377945991e-20
1.151729515e-20
8.575371408e-21
2.345512677e-20
3.173600001e-21
1.958380322e-21
5.501639654e-22
2.542655878e-21
3.654564085e-21
2.32694209e-20
1.200621367e-20
2.548315991e-20
3.991913662e-20
1.100854359e-21
4.929694502e-22
1.595349459e-21
2.796306386e-21
8.497947241e-20
4.569664057e-20
2.720929299e-20
4.685650486e-21
6.984552893e-22
3.753913621e-21
3.61768726e-20
9.191636727e-21
2.848387194e-20
3.918990328e-21
2.215853543e-20
2.174363079e-22
1.815590258e-20
5.779630265e-20
2.526643987e-20
5.22785866e-21
5.033284094e-22
1.062910215e-20
5.876769778e-21
2.480022229e-22
6.758278524e-21
6.956165299e-22
1.861835157e-20
8.678214007e-21
5.141957743e-21
1.234976172e-21
1.288016944e-20
4.29819944e-21
1.095863661e-20
8.826382859e-21
1.213407539e-20
1.661576852e-20
1.166969528e-20
1.748487789e-21
1.808653182e-21
4.184456512e-21
2.443299108e-20
1.987657355e-21
3.204392281e-21
1.063000441e-21
9.918319486e-22
2.122249762e-21
1.157860691e-21
2.779995189e-21
6.017967865e-21
7.597778203e-21
6.33880697e-21
4.636040665e-21
7.141780179e-21
6.634477509e-21
2.074501862e-21
3.161183638e-20
4.9270634e-21
1.553849352e-21
3.262027006e-21
1.467441757e-20
2.994523724e-21
3.429680937e-21
6.814298382e-21
2.567765211e-21
1.348533553e-21
1.931549301e-21
3.482744209e-22
7.109008023e-21
4.038314286e-22
7.700429423e-21
1.600682227e-21
3.769500741e-21
4.265010974e-21
5.853706418e-21
2.515698041e-21
1.147915039e-20
1.910790782e-20
5.652411476e-21
8.141854074e-21
1.290691429e-20
2.521839633e-21
1.580444847e-20
7.773601217e-22
3.563314506e-22
1.352993234e-20
8.475353495e-22
4.080697628e-22
1.975049853e-20
7.910326067e-21
5.78411129e-22
5.652335615e-21
2.625793084e-20
1.532933763e-20
6.10276391e-21
2.453449864e-22
1.051869107e-21
5.07880718e-22
2.382423111e-20
1.082968166e-20
1.818625326e-21
8.272341977e-22
4.998951207e-21
5.907678065e-21
2.592555176e-20
1.292241952e-20
6.316535805e-21
8.987111254e-21
1.157021039e-21
4.543069896e-21
1.171189649e-20
4.444853552e-21
6.518662337e-21
2.622580753e-21
7.101058749e-21
1.866761388e-21
1.639688653e-21
5.846037825e-21
2.428483999e-21
2.339352718e-22
2.790944059e-22
6.868587689e-21
6.323162491e-21
1.104516096e-20
7.825964676e-22
7.155684819e-21
2.525145641e-22
3.991274532e-21
7.637868009e-21
1.996873608e-20
8.093248283e-22
3.210694855e-21
2.194055025e-20
2.022878282e-20
3.763100771e-21
1.994620465e-20
2.16650064e-21
1.223165274e-20
3.321887022e-21
8.032594405e-21
2.327402733e-21
3.504014124e-21
7.02246485e-23
2.388016616e-21
4.475933559e-21
1.49412429e-20
8.15998576e-21
2.352143824e-21
1.388879874e-21
1.934032973e-21
8.807837239e-21
1.349955278e-20
8.018136648e-21
1.530450046e-21
1.055854081e-20
3.949336974e-20
1.655880756e-22
3.960352398e-20
1.191806016e-20
4.411904434e-21
1.330683739e-20
8.721694584e-21
2.363395443e-21
2.667415252e-20
2.288042809e-20
3.046870173e-21
2.861910231e-20
2.480745303e-20
6.1389694e-21
4.65509184e-22
8.000030185e-22
4.158319306e-21
3.387738315e-22
1.550839173e-21
1.464015447e-21
1.318752965e-20
6.903709325e-23
2.757131719e-21
1.31116909e-21
3.603534295e-21
4.220131845e-20
3.050191351e-20
1.370186592e-20
4.166693798e-21
1.327046498e-20
3.616879172e-20
2.109406387e-21
1.911088597e-20
1.123148094e-20
1.618138038e-20
1.13672803e-20
3.699911919e-21
2.808102646e-21
1.032082747e-22
1.604786197e-21
9.245071099e-22
1.125359142e-20
1.507108969e-20
1.55457093e-21
1.147734714e-20
7.908812409e-23
8.038748204e-21
6.021929737e-22
7.606215532e-21
1.081433662e-21
1.518556883e-20
3.099907107e-21
1.584432754e-20
1.349179305e-20
1.534350257e-21
2.493373009e-21
2.017518217e-20
6.329066838e-21
1.331193752e-20
7.707932274e-22
2.40845017e-21
5.277232977e-22
1.136924179e-20
1.887133617e-21
3.015523992e-21
4.309951572e-21
6.175337605e-21
1.713185997e-20
1.224298905e-20
1.39024183e-22
5.814129476e-21
3.079758155e-21
2.131216733e-21
2.492587403e-21
5.965457224e-21
1.742018828e-21
6.639174107e-22
6.359646454e-21
1.397197143e-21
1.841316016e-22
4.84962439e-21
4.937070663e-22
5.1547838e-22
3.029399346e-21
3.510742884e-22
4.666027048e-21
1.820359052e-22
1.135017254e-21
1.078210378e-21
8.226589653e-22
7.522023747e-21
7.657588581e-21
2.219891046e-20
2.52139652e-20
4.92386565e-21
5.852107604e-21
5.838409337e-21
1.613954795e-20
3.247291139e-22
2.015809313e-20
5.837229823e-21
2.08411577e-21
3.594281551e-21
1.043416019e-20
2.091497053e-20
2.62054017e-21
5.942007436e-21
1.787548332e-21
1.172911493e-20
4.018122753e-21
7.019629511e-22
3.022026766e-20
3.915981736e-21
3.467845898e-21
6.36326631e-21
1.929799163e-21
5.232233527e-21
1.682208174e-20
4.183513833e-21
2.350107025e-21
3.606931053e-22
2.250884863e-21
1.73183892e-21
8.690455612e-21
7.790087169e-21
2.346864144e-20
2.000869908e-20
2.341053478e-20
7.754856493e-23
1.328173511e-21
1.689826625e-20
2.807476496e-22
5.576911194e-21
3.823063954e-21
9.182453441e-22
2.45130842e-21
1.411879893e-20
2.217497575e-21
1.119699219e-20
8.831417235e-21
1.639383e-21
5.157928779e-21
4.475717735e-21
7.525501029e-21
1.276069872e-21
1.217477239e-20
1.190196943e-21
3.640423893e-21
7.041161046e-21
4.06570839e-22
1.812697989e-20
5.885045796e-21
5.523489848e-21
9.206557512e-22
6.550606717e-21
7.210914189e-21
6.361405343e-21
6.147095211e-20
1.896825467e-21
5.008234395e-21
1.847803226e-21
6.230673795e-21
4.472081955e-22
9.342479033e-21
3.747432111e-22
7.065411189e-21
8.206455436e-21
6.339561771e-21
1.442650612e-21
3.343716829e-21
2.61756487e-20
3.156874302e-21
2.442818652e-22
5.602439996e-21
7.382927995e-22
2.121016143e-20
4.879249487e-21
5.426953375e-21
2.925346316e-21
2.355751324e-21
3.372163004e-21
4.711388208e-23
6.156035154e-21
2.811578749e-21
7.745325448e-21
2.540827298e-21
2.32416461e-21
1.159761765e-20
1.375153194e-21
1.238659126e-21
7.207028418e-21
3.258783768e-21
4.703969703e-21
1.70899779e-21
1.211234165e-21
5.65143407e-21
9.825185503e-21
1.44255383e-21
6.925275111e-22
5.193016949e-21
3.344990844e-20
5.473043754e-21
1.676087299e-21
9.061553236e-22
2.325332985e-21
1.396481105e-20
3.355166981e-21
7.538937511e-21
7.726446784e-21
2.888514412e-21
3.250316968e-21
6.549147389e-21
9.283446869e-21
1.453180566e-21
8.746126318e-21
1.107409617e-21
3.16363268e-22
5.200280176e-21
1.182701773e-21
2.976379658e-21
1.789917209e-21
6.15104066e-21
3.405847711e-20
1.291499978e-20
2.803228998e-20
6.621113231e-21
4.710895834e-21
6.156214618e-22
2.286428493e-23
1.972018406e-21
4.40103767e-21
2.091460218e-20
4.607294508e-21
6.854432759e-22
7.642702381e-21
6.269967013e-22
4.82575783e-21
4.239914721e-21
8.566328427e-21
1.257920462e-21
1.285000792e-20
5.415183018e-21
4.996474573e-21
9.685732691e-22
2.120813414e-21
2.304743647e-21
7.699037094e-22
4.800493079e-21
5.866064981e-21
2.169667487e-21
2.867966624e-21
1.63394078e-21
3.349166851e-21
1.989432412e-20
3.648661462e-20
3.911294686e-21
3.230253118e-21
2.385726352e-21
9.31729137e-21
1.002281529e-21
4.652439813e-21
3.060269622e-20
1.719521448e-21
4.634862679e-20
1.081131904e-21
6.87987203e-22
9.869577983e-22
1.321188812e-20
3.081624649e-21
3.538012988e-21
1.488394566e-22
9.891844767e-21
4.518793995e-21
3.291864407e-21
2.573977815e-21
4.962459639e-21
4.233618337e-22
4.635138312e-21
5.672909938e-22
1.389393965e-20
1.138973136e-20
1.038702294e-21
8.665456941e-22
2.003801621e-21
2.156980478e-20
6.047240907e-21
7.200843509e-21
6.561925034e-21
1.487816196e-21
1.362845925e-21
6.037527376e-21
3.300746046e-22
1.038046556e-20
7.633850844e-22
2.339744261e-21
3.039831071e-21
5.140415498e-21
4.204053154e-21
8.34832e-21
7.832231595e-21
6.396093472e-22
1.577752428e-20
8.068213356e-21
8.797581777e-21
2.50723704e-21
8.6386246e-23
4.309050596e-22
1.353594234e-22
9.741803109e-21
4.953860015e-21
3.260086736e-21
3.528786818e-22
2.476883979e-21
3.090079532e-22
2.402266133e-21
2.421124767e-21
3.467239958e-21
4.421660389e-21
1.018249325e-21
3.798085608e-20
3.230277602e-21
2.729608731e-20
7.027741934e-21
2.77900294e-21
7.141187106e-21
1.429650494e-21
5.186073477e-21
4.729083365e-22
1.439997585e-22
1.116181934e-20
2.258236998e-21
1.095845771e-20
1.173438692e-22
6.934877927e-22
3.158275389e-21
2.529424495e-20
3.457482873e-22
2.748209853e-21
3.165208041e-21
4.046625368e-23
1.574314218e-20
6.468297971e-22
1.564479892e-21
1.181806289e-21
3.598570875e-21
2.461233741e-21
3.359046073e-21
1.149631741e-21
1.276446617e-20
6.218804671e-22
1.718516263e-21
8.723691156e-22
2.071979506e-21
3.731697119e-21
2.582126414e-21
4.249839516e-21
4.842952714e-21
1.175535072e-20
3.161544292e-22
3.616700322e-21
3.212302662e-21
8.466910888e-21
1.00867898e-20
2.003086897e-21
3.476686168e-21
1.661094175e-21
8.031545469e-21
4.394812981e-21
1.628043447e-21
6.023006978e-21
3.104310294e-21
8.094016465e-22
4.204528828e-22
1.325151618e-20
2.404660355e-20
7.558115295e-21
9.610112903e-22
2.31710751e-20
6.201058487e-22
1.860271588e-21
2.246935855e-21
3.860275733e-21
7.021195355e-22
6.805330607e-21
8.121637336e-22
4.747279911e-21
4.097688579e-20
3.648278552e-20
7.433302792e-21
3.742857364e-21
8.082468041e-21
2.102773182e-20
4.569506512e-20
1.68203874e-22
8.310688273e-22
5.271578117e-21
5.257419933e-21
2.362039554e-21
3.935047681e-21
1.389055404e-21
5.936345174e-21
2.661578827e-21
3.860359958e-21
2.877454355e-21
1.033375985e-21
4.370437337e-22
5.597393576e-21
1.168059627e-20
1.019496188e-20
4.355260915e-21
3.284191242e-21
1.224734446e-20
8.128299568e-21
8.053898079e-21
3.714920376e-21
8.559192392e-21
1.802726861e-22
1.648326921e-21
3.730053067e-21
3.832716657e-21
1.227178761e-21
8.647803117e-21
2.13042615e-20
4.487020382e-22
2.955881741e-21
1.01016163e-20
6.339437707e-21
1.199946815e-20
6.414278887e-22
4.587376787e-21
8.120186204e-21
9.371230085e-22
5.161575998e-21
2.254026279e-21
2.180161805e-20
8.471343999e-21
1.397294331e-20
4.727938237e-21
2.377645991e-20
1.419577356e-22
9.723033709e-22
2.006026468e-21
3.752788228e-21
5.268224258e-21
4.065325653e-20
1.185663089e-21
6.437345714e-21
3.674079048e-21
4.154353818e-22
1.393354526e-21
1.673243932e-20
2.259929551e-21
2.027038302e-21
7.158584738e-22
5.436499276e-21
2.411165716e-21
4.622527552e-21
5.605302797e-21
2.762615576e-22
4.973753706e-22
1.326517337e-20
1.798678542e-21
1.773402671e-21
1.202865809e-20
6.80482465e-21
1.052442988e-21
2.123641356e-20
3.54196663e-21
4.711984412e-22
4.686803548e-22
3.318175971e-21
2.189740503e-20
4.665057738e-21
6.781999542e-21
7.819978657e-22
5.264085524e-21
6.018902533e-21
1.303146441e-20
9.318967733e-21
6.334403994e-21
7.873921423e-21
8.238182785e-21
9.498348288e-22
3.287365277e-20
9.33339799e-21
1.027921306e-20
9.679927813e-21
3.811688213e-21
2.878392331e-21
1.98138892e-20
2.928922459e-21
1.443021947e-20
2.039422345e-21
4.640871594e-21
3.647575062e-21
8.189359051e-22
1.964101816e-20
6.476751796e-22
8.737962132e-22
5.680253872e-21
5.191041196e-21
8.543062832e-21
1.783056573e-21
2.594821436e-22
5.082260763e-21
1.359832973e-21
1.008234334e-20
3.470309804e-21
6.42140971e-21
1.891952469e-21
5.872316609e-21
5.754025423e-21
1.386889566e-20
1.246921518e-20
1.40708012e-20
7.611001621e-22
2.763184312e-20
9.945572245e-21
1.803597789e-21
3.03285943e-22
3.779953251e-21
2.495144353e-21
6.580235645e-21
7.643132151e-21
2.286822404e-20
1.248048266e-20
3.739638027e-21
9.165599922e-21
1.794267696e-21
5.196258916e-22
7.586664015e-21
1.174560003e-21
1.029147564e-21
3.979547743e-21
1.177816092e-21
1.70270183e-22
3.654238282e-21
1.74281062e-21
1.21951716e-21
2.071142243e-21
2.482249466e-21
4.036136967e-21
4.486305324e-21
1.126976518e-21
3.249160404e-21
1.731827047e-21
5.367294779e-21
5.409791826e-21
2.265899695e-21
8.536553998e-21
7.90590325e-22
7.579348022e-21
4.621397719e-21
4.142239301e-21
4.838469136e-21
1.454418251e-21
9.788172871e-21
1.34889414e-21
8.39306246e-21
2.316961156e-20
1.298797716e-21
5.975284277e-21
1.816669395e-21
5.772609423e-21
1.92401339e-22
4.406642517e-21
1.604465954e-21
7.146340959e-21
1.323579667e-22
1.284056211e-20
6.350678719e-21
8.143398966e-21
9.164072042e-22
1.729307166e-21
5.944294835e-21
6.723983617e-22
1.461903224e-20
4.697592485e-21
2.683369508e-21
4.078040543e-22
2.912015384e-21
1.109219224e-20
8.624196264e-21
4.626978129e-22
1.114400272e-21
2.221364326e-21
6.621453776e-21
1.702495467e-21
7.053803593e-21
7.414641004e-21
6.697949482e-22
5.543999756e-21
1.408489348e-21
4.378255668e-21
2.949510713e-21
1.165319877e-21
4.432604603e-21
5.166103788e-21
2.425642522e-21
1.875725911e-21
8.285359561e-21
4.988386087e-21
2.8742964e-21
9.47502171e-22
2.28238365e-20
1.745375654e-20
6.309171912e-22
1.446042341e-21
4.484007865e-21
1.317290147e-21
5.222020262e-22
1.307883347e-21
2.506574839e-21
6.299236858e-21
1.186691418e-21
7.901547443e-22
4.370367796e-21
1.242316903e-20
1.950832732e-21
6.747252516e-21
3.540305055e-21
4.171326741e-21
4.428192327e-21
2.041090292e-21
4.52684018e-21
1.02192498e-20
8.415988238e-21
9.21509342e-22
2.261344886e-21
4.969522927e-21
2.530926385e-21
4.881220163e-23
1.20800907e-20
2.950349503e-20
3.379199689e-20
5.189111971e-20
8.397940273e-22
2.444874686e-21
5.731592144e-21
7.294445423e-22
4.041952618e-21
9.590658339e-20
8.04582344e-21
6.886874722e-21
2.895559913e-21
1.875398872e-21
4.086730216e-21
3.64404849e-21
1.055113771e-20
5.965112246e-21
5.863948291e-21
1.268618186e-21
1.217238725e-20
2.517718416e-21
1.415150948e-21
6.184840433e-22
3.78132537e-21
8.34863671e-21
5.74131764e-21
6.053276822e-21
1.895326303e-23
1.157738334e-21
3.004733415e-22
8.813853171e-22
1.663037106e-22
1.397045454e-21
2.469326987e-21
4.267355162e-21
8.344311427e-21
6.667662233e-22
5.607332419e-23
1.971752325e-21
2.038861861e-21
2.400282399e-21
5.788701782e-21
1.672968431e-21
4.151346164e-22
5.974789541e-21
2.325707611e-21
2.760147183e-21
7.35313898e-22
1.898370502e-21
2.509675445e-21
2.706884811e-21
8.917692644e-21
5.064632711e-21
1.71082983e-21
3.31076178e-21
3.275898992e-21
7.193282898e-21
1.051684014e-21
1.7007548e-22
1.286807686e-21
1.105850448e-20
8.424567393e-22
2.154278279e-21
5.447778957e-21
5.63508114e-21
5.057291147e-21
2.641611049e-20
6.819743927e-21
9.591196073e-21
9.253318544e-22
1.385522626e-20
1.319383449e-21
5.890443242e-21
7.646120748e-21
8.957687451e-22
3.05227234e-21
1.881655495e-20
5.07911341e-21
7.395314309e-22
2.641107502e-21
5.804680242e-21
2.534993618e-21
4.819915189e-21
5.508023135e-21
1.694516162e-20
1.495415153e-20
9.12718757e-22
3.272849182e-23
3.584473618e-21
2.600038685e-21
9.375706246e-21
4.297490357e-21
8.549456605e-21
1.142185115e-22
8.536384319e-21
2.8325246e-21
1.848530016e-21
7.947116215e-22
5.319831324e-21
1.161512647e-20
2.798561108e-21
4.112274128e-21
1.097999571e-20
2.070530453e-21
1.156469698e-23
1.16674847e-21
7.990536497e-22
7.576047449e-21
7.346871799e-21
3.969111771e-21
1.428755016e-22
2.140488914e-22
1.570571201e-21
1.833056036e-21
3.379578469e-21
4.649043971e-20
2.035524416e-20
6.217908725e-21
8.733942514e-22
1.062135392e-22
3.452630833e-21
2.620364454e-21
3.096426511e-22
2.154945491e-21
2.162559889e-21
6.941889174e-22
8.357571709e-22
7.101711872e-21
3.226830064e-21
7.746142859e-22
5.724104083e-21
1.718351231e-21
7.558179426e-21
6.087706302e-21
3.144473106e-21
2.090744419e-21
1.649528935e-21
1.921339625e-21
8.082757557e-22
4.31032438e-21
1.293333305e-21
3.092351766e-21
2.136082528e-21
3.796045224e-22
3.253947395e-21
5.235567624e-22
8.577966647e-21
5.715240746e-21
4.16482217e-21
4.261185159e-21
9.087810928e-21
2.458101811e-23
5.448897126e-20
1.681832837e-20
5.046076861e-21
1.982893959e-20
7.008645535e-21
2.888407718e-20
2.889189533e-20
5.070289119e-20
1.025533714e-21
7.648342752e-21
2.52564601e-20
2.121285148e-22
7.23169378e-21
8.727316235e-22
2.822262844e-21
3.269447918e-21
1.024625565e-21
1.280723544e-21
6.567039828e-21
1.27220894e-20
5.450337537e-21
3.799345419e-23
3.531464922e-21
9.476897814e-22
4.972465743e-21
3.976741846e-21
2.779358739e-20
4.78020149e-22
3.356001896e-21
1.369643755e-21
1.778938447e-21
1.825460513e-20
1.337239542e-20
1.539499355e-21
1.243308005e-20
1.312890629e-21
1.427003907e-21
3.752002317e-22
1.684450638e-21
1.975197291e-21
3.838038449e-21
1.07325263e-20
6.024555129e-22
5.968147253e-22
3.422562272e-22
4.992631251e-21
3.645772861e-22
4.553647206e-22
1.686562903e-21
1.210790981e-21
2.406205197e-21
1.384172655e-21
2.510680403e-21
5.759571879e-21
5.470125452e-21
1.762593575e-20
5.859492539e-22
3.029195832e-22
1.099010609e-20
1.875801516e-21
4.75300806e-21
1.245865473e-20
5.409003436e-22
3.569503824e-21
2.344449883e-21
1.02963182e-20
1.305047079e-21
3.237422057e-22
5.190208564e-21
3.806044652e-21
8.194062704e-22
9.431247807e-21
1.314926017e-20
3.659832182e-22
9.956200886e-22
6.092044796e-21
6.822013346e-21
2.589676506e-21
8.82736795e-21
5.621075311e-21
8.06439974e-21
3.153126724e-21
1.57969327e-20
3.101092767e-20
3.885754842e-22
7.391397676e-21
9.215247227e-22
2.591009506e-21
4.397417728e-21
3.77344554e-20
6.430885817e-20
3.604607096e-21
3.063903035e-22
2.164118204e-20
8.109527659e-21
6.005201898e-21
7.681487342e-21
2.839262691e-21
8.89652349e-22
5.955653456e-20
5.977595489e-20
4.04235189e-21
9.618017711e-23
6.842685809e-21
4.434868162e-21
3.262436452e-21
2.404865827e-21
3.427343562e-21
5.201316782e-21
3.337612515e-21
1.380251594e-21
4.387750545e-21
5.879018401e-21
1.966552787e-21
2.588103238e-20
2.737232564e-21
4.244977391e-21
4.691435074e-21
4.874765427e-21
3.205403816e-21
5.515852613e-21
2.773126105e-21
2.7763821e-21
3.536579115e-21
1.393104649e-21
2.471708939e-21
5.83813398e-21
7.374415653e-21
1.665390544e-21
2.734803192e-21
6.167309123e-22
2.86290942e-21
1.227371949e-21
1.143411471e-21
2.394959078e-21
2.429157402e-22
9.86588377e-21
3.303116026e-21
1.294424901e-21
1.284938977e-21
4.643046944e-21
9.141815998e-22
2.744313921e-20
1.222213647e-20
2.127308604e-21
1.106597701e-21
6.434752604e-23
6.758084667e-22
9.177428738e-21
6.836429214e-21
1.82108837e-20
3.273233278e-21
5.147987746e-22
9.62461438e-22
5.424314068e-22
6.842791643e-22
1.563232831e-21
4.814016255e-21
1.171911557e-20
6.147370396e-21
5.199406249e-21
6.105682597e-21
1.257108722e-21
3.135758644e-22
8.557645059e-22
6.547662354e-21
4.019461766e-21
4.106574721e-21
1.811999962e-20
3.739675263e-21
1.151677349e-20
6.23672853e-21
1.184347721e-20
2.651900866e-20
1.872328167e-20
8.926921378e-22
6.338370207e-21
1.539458416e-20
2.009512931e-22
5.965497484e-21
1.667344706e-20
5.441344628e-21
3.091924859e-21
2.148559336e-21
1.722268562e-20
3.526247705e-21
1.374665036e-20
5.542497567e-21
4.439996953e-21
3.556622928e-21
6.828964212e-21
1.722326102e-21
3.04885428e-24
4.065577002e-21
3.326628907e-21
5.237185204e-21
1.589084373e-22
3.398013769e-21
1.038968829e-20
4.698390509e-21
8.164072089e-21
1.239785844e-20
2.956382319e-21
2.299618356e-21
1.578801119e-21
7.270101559e-21
6.030054772e-21
3.444900259e-21
8.070077816e-21
3.29213599e-21
4.478142503e-21
3.574228129e-21
8.128038994e-23
2.25876341e-20
3.70006703e-22
8.095447244e-21
1.261036113e-21
7.560922607e-21
3.97055133e-21
3.707300057e-21
6.618449365e-21
2.273776812e-21
2.056012179e-21
2.638706232e-21
1.077289663e-21
2.427259914e-20
2.132744909e-21
1.876632739e-21
2.804447786e-21
8.834550178e-21
1.000518471e-21
2.199707024e-21
3.689410654e-22
4.883420458e-21
1.63500134e-21
4.17556279e-21
1.064042404e-20
5.857484312e-21
2.069895222e-21
1.647619541e-21
3.647590916e-21
7.032732125e-21
5.01923197e-21
2.287940414e-21
1.188302491e-20
3.370695228e-21
4.844606326e-21
5.579067996e-21
3.575570671e-21
8.096709998e-21
1.538291724e-21
7.292567047e-22
3.034571926e-21
6.526362002e-21
6.951183818e-21
8.196168431e-21
1.052490957e-20
5.839506042e-21
2.15681865e-21
1.060898887e-21
3.721783754e-22
9.252011108e-21
6.134037981e-22
2.220062011e-21
4.173590279e-21
5.621304121e-22
1.509483621e-21
3.138510126e-21
1.089669586e-21
1.765798479e-21
2.770487791e-21
4.016182449e-22
1.286284486e-21
4.710817125e-21
1.243419263e-20
5.056132765e-22
3.029687117e-23
4.107046743e-21
2.400915148e-21
6.712146037e-22
4.130162069e-20
1.032430504e-20
6.757371963e-21
1.644992919e-21
4.810241225e-21
1.711045857e-21
7.578353391e-21
4.433727082e-23
3.69886526e-22
1.043880837e-20
8.340745432e-21
7.916775751e-21
9.462689413e-22
2.883228091e-21
6.32266023e-22
6.668311029e-22
2.62402212e-21
4.808521429e-20
1.241321944e-20
3.525162876e-21
7.57499038e-22
1.829857402e-21
6.45272874e-23
1.433546655e-21
3.505709619e-21
1.140972369e-21
4.315518605e-22
3.061263641e-21
3.333331985e-22
1.651795528e-21
1.362801339e-21
4.116088493e-21
2.106232366e-20
3.492475482e-21
5.966608456e-22
5.776932824e-21
1.617653027e-20
1.099287043e-21
3.664703847e-22
1.1654495e-21
5.882848986e-22
9.47986896e-21
5.027285892e-21
7.644097012e-22
1.436164125e-21
4.910522672e-21
2.044439988e-21
8.451240471e-22
8.2224527e-21
5.701419936e-21
1.343494658e-20
1.323843674e-21
3.924253663e-21
9.395207719e-21
5.462288345e-21
8.714706265e-21
1.620613108e-20
1.701435531e-21
2.490173947e-22
3.727544048e-22
2.094500038e-21
1.259291547e-20
4.070949415e-21
8.798770498e-22
7.254823094e-21
4.223072747e-21
4.597361127e-21
1.086043081e-20
5.995806278e-21
1.168510592e-21
2.04484362e-21
1.206071375e-20
2.793023301e-22
1.923319232e-21
1.269078803e-20
4.143512166e-21
3.597873147e-21
3.140236184e-21
4.526843043e-21
5.573801535e-22
6.330497708e-21
1.080086648e-21
6.516284593e-21
1.330221555e-20
1.233695811e-20
4.503262829e-21
1.115758547e-20
4.592028793e-21
2.685494704e-21
1.674917733e-21
1.483373523e-21
1.594996895e-21
3.411006785e-21
2.246458797e-22
1.347691214e-21
4.90534049e-22
2.187168674e-21
3.550138124e-21
1.087367168e-21
7.603656126e-21
1.015722874e-20
3.112541932e-21
5.636513427e-21
5.753100127e-21
2.992880953e-21
5.987347914e-21
4.081917997e-21
1.71865746e-21
1.388153494e-21
4.788371393e-21
1.469358994e-21
1.195288461e-21
1.462038884e-21
8.187414646e-23
4.376057198e-22
2.682320469e-21
1.478436241e-21
1.183500049e-21
6.897612349e-21
7.425809943e-21
7.214558791e-21
8.310687991e-21
1.661899909e-21
1.226796642e-20
1.038289843e-20
7.465645494e-21
9.707280666e-24
1.334402997e-20
1.612165154e-21
2.512848861e-21
1.530956453e-21
2.379301486e-21
9.529210854e-22
8.293304104e-21
3.716612373e-21
1.111131883e-20
2.10397949e-21
1.530732722e-20
1.27127795e-20
2.494584177e-21
9.880593371e-21
1.732015563e-21
7.12201374e-24
2.821863674e-21
1.680750597e-20
5.944327998e-21
4.868079161e-21
1.037378267e-21
1.357148643e-20
9.183447897e-21
1.679079636e-20
5.516954192e-21
1.414915711e-20
1.329042304e-20
4.257907684e-20
2.257916703e-20
6.424377506e-21
2.04053397e-21
8.219698343e-21
1.647450973e-22
8.336727874e-21
3.412943799e-21
4.006160988e-21
9.269480329e-21
5.719600362e-20
9.246896653e-22
7.706098375e-21
1.907322884e-20
3.625722225e-21
2.39893985e-21
1.884162149e-22
3.031795723e-21
2.919508836e-21
3.313290209e-21
5.752139272e-22
1.18451167e-21
5.151350434e-21
3.359385654e-21
1.747811054e-21
5.20656763e-21
6.370592625e-22
3.944219485e-22
7.121934619e-22
1.113043614e-20
4.213727577e-21
2.679545853e-20
3.77499241e-21
9.732922698e-22
7.666498064e-21
9.978007319e-22
1.011245999e-21
7.633305484e-22
2.927853105e-21
4.268791137e-21
4.619966485e-21
1.855359561e-20
5.794429297e-21
6.576178587e-21
1.518723195e-21
1.73275008e-21
7.513006078e-22
1.787228369e-22
3.802467613e-21
3.026509044e-21
8.242157006e-21
3.554059466e-21
1.051043532e-20
1.567835025e-20
6.595692687e-21
6.653911383e-21
6.758175926e-21
2.720811418e-21
1.337432904e-20
1.550665191e-21
2.88329383e-21
8.269504094e-21
3.538711689e-21
6.526020203e-21
1.376447499e-21
7.73539631e-21
6.03337196e-21
1.027567855e-20
2.379721546e-20
4.559109077e-22
2.342374874e-20
1.686910327e-20
5.977100303e-21
1.121432917e-21
1.247888445e-20
1.225223707e-21
6.220269873e-21
1.188803515e-20
3.433604887e-20
4.925751266e-21
5.440087543e-21
1.125793856e-21
4.859858807e-21
3.431541606e-21
2.961763947e-21
5.277362292e-21
2.239245047e-21
3.625459562e-21
1.066473859e-21
3.520261194e-20
1.104919e-21
1.650294861e-21
2.910793967e-21
8.976834664e-21
4.112252535e-21
3.111691055e-21
3.374876252e-21
1.645687107e-21
2.605120853e-22
7.605001553e-21
1.876712379e-21
1.972413717e-22
3.047696472e-21
1.8019832e-21
5.581160883e-22
1.132017071e-20
7.447612515e-22
5.363954715e-22
2.04898865e-21
2.313922349e-21
4.226980174e-21
7.729725393e-21
2.274542711e-21
1.631370382e-20
7.927225138e-22
1.485743122e-20
2.45463574e-21
3.27131436e-21
2.554895984e-21
1.943748853e-21
2.10929491e-22
4.494263147e-21
2.135053905e-21
2.874434437e-21
1.026374725e-21
1.171566521e-20
3.039968614e-21
6.284732235e-21
3.60641177e-21
5.513574034e-21
7.628930382e-21
2.877696515e-21
3.5102593e-21
4.780964041e-22
1.382103686e-21
5.748833469e-22
2.185038032e-21
1.694405643e-21
4.731263532e-21
1.185329536e-21
9.39172489e-21
5.82826778e-21
4.637351011e-21
4.753479606e-22
9.269491394e-22
1.21275336e-20
1.627089918e-21
6.355439448e-21
8.005392809e-21
2.927123858e-22
1.082447548e-20
6.776835061e-22
3.454356274e-21
3.828881048e-21
1.413506289e-20
9.689388506e-22
1.868502986e-21
2.437232478e-21
1.859310474e-20
1.890755783e-20
9.108209406e-21
6.087375826e-21
7.676382725e-21
2.796006679e-20
1.913517436e-21
1.890849463e-21
6.518992559e-21
7.057908175e-21
1.072790199e-20
7.666450919e-21
4.266230449e-22
6.051000142e-22
1.301505857e-20
1.111279322e-21
4.156497617e-21
6.309512629e-21
1.520000444e-21
3.462165621e-21
1.425325577e-23
2.300240763e-21
2.74978509e-21
1.055012428e-20
1.050165909e-21
6.962320504e-21
3.681678953e-21
1.0211713e-20