/*--------------------------------*- C++ -*----------------------------------*\
| =========                 |                                                 |
| \\      /  F ield         | OpenFOAM: The Open Source CFD Toolbox           |
|  \\    /   O peration     | Version:  2406                                  |
|   \\  /    A nd           | Website:  www.openfoam.com                      |
|    \\/     M anipulation  |                                                 |
\*---------------------------------------------------------------------------*/
FoamFile
{
    version     2.0;
    format      ascii;
    arch        "LSB;label=32;scalar=64";
    class       labelField;
    location    "0.009/lagrangian/dsmc";
    object      origId;
}
// * * * * * * * * * * * * * * * * * * * * * * * * * * * * * * * * * * * * * //


6956
(
445590
449574
450283
450606
450621
450897
450917
451207
451408
451409
451610
451617
451907
452043
452225
452454
452845
452944
453060
453062
453151
453251
453348
453439
453455
453469
453543
453547
453549
453553
453678
453755
453769
453868
453980
454067
454177
454264
454272
454279
454361
454466
454476
454481
454483
454573
454580
454675
454772
454781
454788
454867
454871
454875
454977
454981
455027
455091
455118
455186
455190
455206
455290
455293
455300
455305
455388
455392
455410
455412
455490
455492
455503
455505
455507
455522
455605
455631
455698
455720
455722
455731
455790
455808
455815
455911
455912
455914
455921
455928
455936
456008
456010
456016
456023
456026
456032
456108
456110
456123
456124
456132
456198
456207
456208
456209
456210
456215
456236
456247
456299
456307
456310
456319
456331
456334
456403
456415
456424
456439
456501
456505
456510
456511
456518
456616
456619
456709
456711
456720
456725
456727
456733
456737
456803
456812
456816
456818
456826
456842
456926
456930
456934
456936
456940
456941
456943
456955
456956
456959
456960
457027
457038
457043
457127
457138
457139
457142
457144
457159
457169
457230
457232
457233
457244
457251
457340
457343
457353
457437
457439
457441
457443
457465
457478
457544
457547
457549
457553
457556
457557
457558
457562
457597
457610
457635
457637
457641
457643
457647
457650
457651
457654
457657
457658
457678
457679
457734
457737
457738
457744
457747
457749
457750
457751
457756
457760
457764
457765
457769
457780
457839
457840
457843
457844
457845
457850
457852
457856
457859
457870
457930
457934
457937
457945
457947
457952
457955
457956
457959
457967
457968
457970
457971
457973
457980
457984
457988
457990
458000
458003
458010
458050
458051
458055
458056
458058
458061
458139
458141
458145
458147
458148
458149
458151
458153
458154
458155
458160
458170
458172
458181
458231
458242
458247
458249
458251
458253
458256
458260
458262
458264
458270
458271
458275
458282
458287
458291
458309
458326
458344
458350
458351
458352
458354
458358
458361
458367
458373
458376
458377
458379
458381
458383
458385
458390
458400
458402
458416
458424
458439
458447
458452
458453
458459
458469
458470
458471
458475
458476
458477
458478
458480
458481
458485
458489
458491
458492
458502
458506
458507
458516
458525
458549
458554
458569
458575
458578
458579
458583
458588
458590
458592
458593
458595
458602
458603
458605
458614
458617
458622
458629
458636
458637
458645
458653
458658
458665
458668
458670
458675
458677
458678
458679
458680
458681
458683
458685
458687
458690
458692
458694
458697
458700
458715
458719
458734
458763
458767
458769
458771
458774
458775
458778
458780
458781
458784
458786
458789
458794
458796
458803
458805
458806
458810
458816
458821
458823
458826
458832
458837
458848
458850
458851
458855
458864
458866
458869
458875
458876
458877
458878
458879
458885
458886
458888
458890
458893
458894
458895
458896
458899
458900
458901
458903
458904
458908
458914
458919
458925
458933
458935
458942
458944
458960
458962
458965
458966
458968
458971
458975
458978
458983
458984
458985
458987
458990
458992
458995
458996
459000
459006
459011
459015
459016
459019
459020
459023
459028
459031
459035
459036
459051
459061
459062
459063
459064
459068
459069
459070
459073
459076
459077
459079
459080
459082
459084
459088
459089
459090
459093
459097
459098
459101
459103
459104
459129
459130
459131
459134
459136
459138
459139
459141
459155
459165
459168
459170
459172
459173
459174
459175
459176
459178
459183
459184
459185
459190
459191
459192
459194
459196
459198
459200
459203
459205
459206
459210
459217
459220
459222
459224
459225
459230
459236
459237
459239
459243
459249
459250
459266
459268
459269
459272
459278
459283
459285
459286
459287
459288
459289
459293
459295
459296
459297
459298
459302
459303
459306
459307
459309
459310
459312
459313
459323
459325
459342
459346
459353
459354
459360
459367
459371
459372
459373
459375
459379
459380
459381
459382
459383
459384
459390
459391
459393
459395
459396
459397
459400
459406
459409
459410
459411
459413
459414
459422
459424
459427
459429
459430
459431
459433
459436
459437
459443
459446
459449
459456
459460
459462
459465
459466
459473
459477
459478
459480
459482
459486
459487
459489
459491
459492
459494
459499
459500
459502
459503
459506
459511
459513
459514
459516
459517
459518
459522
459523
459530
459531
459533
459536
459537
459540
459545
459549
459550
459554
459563
459568
459571
459574
459575
393095
394064
459579
459580
459584
459587
459588
459589
459590
459591
459592
459593
459594
459595
459596
459597
459600
459601
459602
459603
459604
459606
459607
459609
459610
459613
459614
459616
459619
459621
459623
459626
459627
459628
459629
459630
459633
459637
459642
459643
459649
459650
459651
459652
459655
459656
459658
459660
459662
459668
459672
459673
459675
459676
459678
459680
459681
459684
459686
459688
459689
459690
459694
459696
459698
459699
459700
459702
459704
459706
459707
459710
459711
459712
459713
459714
459715
459716
459718
459719
459725
459726
459733
459735
459741
459743
459744
459747
459748
459749
459752
459753
459756
459757
459758
459759
459762
459763
459766
459767
459768
459769
459770
459771
459772
459777
459369
459781
459786
459787
459789
459790
459791
459794
459795
459796
459797
459798
459799
459801
459803
459804
459805
459806
459807
459808
459810
459812
459813
459814
459815
459816
459817
459820
459821
459822
459823
459824
459825
459826
459827
459828
459829
459833
459834
459835
459836
459838
459840
459841
459842
459843
459844
459847
459848
459850
459852
459855
459856
459857
459859
459860
459862
459864
459867
459868
459869
459876
459878
459880
459885
393896
459887
459890
459892
459896
459897
459899
459900
459901
459902
459903
459904
459905
459907
459908
459909
459911
459913
459914
459915
459916
459918
459921
459922
459924
459925
459927
459928
459931
459933
459936
459937
459941
459943
459944
459945
459947
459948
459949
459950
459953
459955
459956
459960
459962
459964
459965
459967
459973
459975
459977
459978
459980
459982
459985
459988
459990
459991
459992
459993
459994
459997
459998
459999
460000
460004
460005
460007
460008
460009
460010
460012
460013
460015
460016
460017
460018
460019
460020
460021
460022
460025
460027
460028
460030
460037
460038
460041
460042
460044
460045
460047
460048
460050
460051
460052
460053
460055
460056
460057
460058
460061
460062
460065
460067
460069
460071
460073
460074
460075
460082
460086
460087
460091
460093
460094
460095
460096
460097
460098
460099
460100
460101
460103
460104
460106
460107
460108
460109
460110
460111
460113
460114
460116
460117
460118
460119
460120
460122
460123
460126
460127
460129
460130
460132
460133
460135
460136
460137
460138
460141
460142
460143
460145
460147
460154
460155
460156
460158
460159
460160
460161
460162
460164
460165
460166
460167
460168
460169
460173
460174
460176
460178
460179
460180
460181
460185
460189
460193
460195
460196
460198
460199
460200
460202
460203
460204
460205
460206
460207
460208
460209
460210
460211
460212
460213
460214
460215
460216
460217
460218
460220
460221
460222
460223
460225
460226
460227
460228
460229
460230
460231
460232
460233
460234
460235
460236
460238
460239
460240
460241
460243
460244
460245
460246
460247
460248
460249
460250
460251
460252
460253
460254
460255
460257
460261
460262
460263
460266
460267
460268
460269
460270
460272
460273
460274
460278
460280
460284
460286
460287
460291
460292
460293
460294
460295
460297
394143
460298
460299
460300
460302
460303
460304
460305
460306
460307
460308
460309
460310
460312
460313
460314
460315
460316
460317
460319
460320
460321
460322
460323
460324
460325
460327
460328
460329
460330
460332
460333
460335
460337
460339
460340
460341
460342
460343
460344
460345
460346
460347
460348
460349
460350
460351
460352
460354
460355
460356
460357
460360
460361
460362
460363
460365
460368
460369
460370
460371
460372
460373
460374
460375
460376
460377
460378
460384
460388
460389
460390
460391
460392
460393
460396
460397
460398
460399
460401
460402
460404
460405
460406
460407
460408
460409
460410
460411
460412
460413
460414
460415
460416
460417
460418
460419
460420
460421
460423
460424
460425
460426
460428
460429
460431
460432
460433
460434
460435
460436
460437
460438
460439
460440
460441
460443
460444
460445
460446
460447
460448
460449
460450
460451
460452
460453
460456
460458
460459
460460
460461
460462
460463
460464
460465
460466
460468
460469
460471
460472
460473
460474
460475
460478
460479
460481
460482
460483
460484
460485
460489
460493
460495
460498
460499
460500
460501
460503
460504
460505
460506
460509
460510
460511
460512
460513
460514
460516
460517
460518
460519
460520
460521
460522
460523
460524
460525
460526
460527
460528
460529
460530
460531
460532
460533
460534
460535
460536
460537
460538
460539
460540
460541
460542
460543
460544
460546
460547
460548
460549
460550
460551
460552
460553
460554
460555
460557
460558
460560
460562
460563
460564
460565
460566
460567
460568
460569
460570
460571
460573
460574
460575
460576
460577
460578
460579
460580
460583
460584
460585
460586
460589
460590
460592
460593
460596
460598
460599
460601
394854
460603
460604
460609
460610
460611
460612
460613
460614
460616
460617
460618
460619
460620
460621
460622
460623
460624
460625
460626
460627
460628
460629
460630
460631
460632
460633
460634
460635
460636
460637
460638
460639
460640
460641
460642
460643
460644
460645
460646
460647
460649
460650
460651
460652
460653
460654
460655
460656
460657
460658
460659
460660
460661
460662
460663
460665
460666
460667
460668
460669
460670
460671
460672
460673
460674
460675
460676
460677
460680
460684
460685
460687
460691
460692
460694
460700
460701
460702
460703
460705
460708
460711
460712
460714
460715
460716
460718
460719
460720
460721
460722
460723
460724
460725
460726
460728
460729
460730
460731
460732
460733
460734
460735
460736
460737
460738
460739
460741
460742
460743
460744
460745
460747
460748
460749
460750
460751
460752
460753
460754
460755
460756
460757
460758
460759
460760
460761
460762
460763
460764
460765
460766
460767
460768
460769
460770
460771
460772
460773
460774
460775
460776
460777
460778
460780
460781
460783
460784
460785
460787
460790
460791
460792
460793
460794
460795
460801
460803
394589
460806
460807
460808
460810
460812
460814
460815
460816
460817
460818
460820
460821
460823
460824
460825
460826
460827
460828
460829
460830
460831
460832
460833
460834
460835
460836
460837
460838
460839
460840
460841
460842
460843
460844
460845
460846
460847
460848
460849
460850
460851
460852
460853
460854
460855
460856
460857
460858
460859
460860
460861
460862
460863
460864
460865
460867
460868
460869
460870
460871
460872
460874
460875
460876
460877
460878
460879
460880
460881
460882
460883
460884
460885
460886
460887
460888
460889
460890
460891
460893
460895
460897
460900
460901
460903
460904
394318
394592
394940
460905
460907
460908
460909
460910
460912
460913
460914
460915
460916
460917
460918
460921
460922
460923
460924
460925
460926
460927
460928
460929
460930
460931
460932
460933
460934
460935
460936
460937
460938
460939
460940
460941
460942
460943
460944
460945
460946
460947
460948
460949
460950
460951
460952
460953
460954
460955
460957
460958
460959
460960
460961
460962
460963
460964
460965
460966
460967
460968
460969
460971
460973
460974
460975
460976
460977
460978
460979
460980
460981
460982
460983
460985
460986
460987
460988
460989
460991
460993
460996
460997
461000
461001
461002
461003
461005
461008
394682
461011
461012
461014
461015
461017
461018
461019
461020
461021
461022
461023
461024
461025
461026
461027
461028
461029
461030
461031
461032
461033
461034
461035
461036
461037
461038
461039
461040
461041
461042
461043
461044
461045
461046
461047
461048
461049
461050
461051
461052
461053
461054
461055
461056
461057
461058
461059
461060
461061
461062
461063
461064
461065
461066
461067
461068
461069
461070
461071
461072
461073
461074
461075
461076
461077
461078
461080
461081
461082
461083
461084
461085
461086
461088
461089
461090
461091
461092
461094
461097
461099
461103
461105
461106
461107
461108
459879
461109
461111
461113
461114
461115
461116
461118
461119
461120
461122
461123
461124
461125
461126
461127
461128
461129
461130
461131
461132
461133
461134
461135
461136
461137
461138
461139
461140
461141
461142
461143
461144
461145
461146
461147
461148
461149
461150
461151
461152
461153
461154
461155
461156
461158
461160
461161
461162
461163
461164
461165
461166
461167
461168
461169
461170
461172
461173
461174
461175
461176
461177
461178
461179
461180
461181
461182
461183
461184
461186
461187
461188
461189
461190
461192
461194
461195
461196
461197
461199
461202
461203
461204
461206
461207
461208
395122
395201
461210
461214
461216
461218
461219
461220
461221
461222
461223
461224
461225
461226
461227
461228
461229
461230
461231
461232
461233
461234
461235
461236
461237
461238
461239
461240
461241
461242
461243
461244
461245
461246
461247
461248
461249
461250
461251
461252
461253
461254
461255
461256
461257
461258
461259
461260
461261
461262
461263
461264
461265
461266
461267
461268
461269
461270
461272
461273
461274
461275
461276
461277
461278
461279
461281
461282
461283
461284
461285
461286
461287
461288
461289
461290
461291
461292
461294
461295
461296
461297
461298
461300
461301
461302
461304
461305
461306
461307
461308
461310
461312
461316
461317
461318
461320
461321
461322
461323
461324
461325
461327
461328
461329
461330
461331
461332
461333
461334
461335
461336
461337
461338
461339
461340
461341
461342
461344
461345
461346
461347
461349
461350
461351
461352
461353
461354
461355
461356
461357
461358
461359
461360
461361
461362
461363
461364
461365
461366
461367
461368
461369
461370
461371
461372
461373
461374
461375
461376
461377
461378
461379
461380
461381
461382
461383
461384
461385
461386
461387
461388
461389
461390
461391
461392
461393
461394
461395
461396
461397
461398
461401
461402
461403
461405
461407
461408
461410
461411
461412
461413
461416
461417
461418
393801
395123
395634
461419
461423
461424
461425
461427
461428
461429
461431
461433
461434
461435
461436
461437
461438
461440
461441
461442
461443
461444
461445
461446
461447
461448
461449
461450
461451
461452
461453
461454
461455
461456
461457
461458
461459
461460
461461
461462
461463
461464
461465
461466
461467
461468
461469
461470
461471
461472
461474
461475
461476
461477
461478
461479
461480
461481
461482
461483
461484
461485
461486
461487
461488
461489
461490
461492
461493
461494
461495
461496
461497
461498
461499
461500
461501
461502
461503
461504
461507
461508
461510
461511
461513
461514
461515
461516
461517
461518
461520
461523
461524
461525
461527
461528
461529
461530
461531
461532
461533
461534
461535
461536
461537
461539
461540
461541
461542
461543
461544
461545
461546
461547
461548
461549
461550
461551
461552
461553
461554
461555
461556
461557
461558
461559
461560
461561
461562
461563
461564
461565
461566
461567
461568
461569
461570
461571
461572
461573
461574
461575
461576
461577
461578
461579
461580
461581
461582
461583
461584
461585
461586
461587
461588
461589
461590
461591
461592
461593
461594
461595
461596
461597
461598
461599
461600
461601
461602
461603
461604
461605
461607
461608
461609
461610
461612
461613
461614
461615
461616
461620
461621
461622
461623
393371
393984
461628
461629
461630
461631
461632
461633
461634
461636
461637
461638
461639
461641
461642
461643
461644
461645
461646
461647
461648
461649
461650
461651
461652
461653
461654
461655
461656
461657
461658
461659
461660
461661
461662
461663
461664
461665
461666
461667
461668
461669
461670
461671
461672
461673
461674
461675
461676
461677
461678
461679
461680
461681
461682
461683
461684
461685
461686
461687
461688
461689
461690
461691
461692
461693
461694
461695
461696
461697
461698
461699
461700
461701
461702
461703
461704
461706
461707
461708
461709
461710
461711
461712
461715
461716
461720
461721
461722
461723
395467
395547
395720
461725
461727
461729
461732
461734
461736
461738
461739
461741
461742
461743
461744
461745
461746
461747
461748
461749
461750
461751
461752
461753
461754
461755
461756
461757
461758
461759
461760
461761
461762
461763
461764
461765
461766
461767
461768
461769
461770
461771
461772
461773
461774
461775
461776
461777
461778
461779
461780
461781
461782
461783
461784
461785
461786
461787
461788
461789
461790
461791
461792
461793
461794
461795
461796
461797
461798
461800
461801
461802
461803
461804
461805
461806
461807
461808
461809
461810
461812
461813
461814
461816
461817
461820
461822
461823
461824
461825
461826
393203
395637
461828
461830
461832
461833
461834
461835
461836
461837
461838
461839
461840
461841
461842
461843
461844
461845
461846
461847
461848
461849
461850
461851
461852
461853
461854
461855
461856
461857
461858
461859
461860
461861
461862
461863
461864
461865
461866
461867
461868
461869
461870
461871
461872
461873
461874
461875
461876
461877
461878
461879
461880
461881
461882
461883
461884
461885
461886
461887
461888
461889
461890
461891
461892
461893
461894
461895
461896
461897
461898
461899
461900
461901
461902
461903
461904
461905
461906
461908
461909
461910
461913
461914
461915
461917
461918
461920
461921
461922
461924
461927
461928
461929
461930
461931
461932
395034
461934
461935
461936
461937
461938
461940
461942
461943
461944
461945
461946
461948
461949
461950
461951
461952
461953
461955
461956
461957
461958
461959
461960
461961
461962
461963
461964
461965
461966
461967
461968
461969
461970
461971
461972
461973
461974
461975
461976
461977
461978
461979
461980
461981
461982
461983
461984
461985
461986
461987
461988
461989
461990
461991
461992
461993
461994
461995
461996
461997
461998
461999
462000
462001
462002
462003
462004
462005
462006
462007
462008
462009
462010
462011
462012
462015
462016
462017
462018
462019
462020
462021
462023
462027
462028
462030
462031
462032
462033
462034
462036
462037
462038
462039
462041
462042
462043
462044
462045
462046
462047
462048
462049
462050
462051
462052
462053
462054
462055
462056
462057
462058
462059
462060
462061
462062
462063
462064
462065
462066
462067
462068
462069
462070
462071
462072
462073
462074
462075
462076
462077
462078
462079
462080
462081
462082
462083
462084
462085
462086
462087
462088
462089
462090
462091
462092
462093
462094
462095
462096
462097
462098
462099
462100
462101
462102
462103
462104
462105
462106
462107
462108
462109
462110
462111
462112
462113
462114
462115
462116
462117
462118
462119
462120
462122
462123
462124
462125
462126
462127
462129
462131
462132
462133
462134
462135
462136
462137
462138
395380
395465
462139
462140
462142
462144
462148
462149
462150
462151
462152
462153
462154
462155
462156
462157
462158
462159
462160
462161
462162
462163
462164
462165
462166
462167
462168
462169
462170
462171
462172
462173
462174
462175
462176
462177
462178
462179
462180
462181
462182
462183
462184
462185
462186
462187
462188
462189
462190
462191
462192
462193
462194
462195
462196
462197
462198
462199
462200
462201
462202
462203
462204
462205
462206
462207
462208
462209
462210
462211
462212
462213
462214
462215
462216
462217
462218
462219
462220
462221
462222
462223
462224
462226
462227
462228
462229
462230
462232
462235
462236
462237
462238
462242
462247
462249
462250
462251
462252
462254
462255
462256
462257
462258
462259
462260
462261
462262
462263
462264
462265
462266
462267
462268
462269
462270
462271
462272
462273
462274
462275
462276
462277
462278
462279
462280
462281
462282
462283
462284
462285
462286
462287
462288
462289
462290
462291
462292
462293
462294
462295
462296
462297
462298
462299
462300
462301
462302
462303
462304
462305
462306
462307
462308
462309
462310
462311
462312
462313
462314
462315
462316
462317
462318
462319
462320
462321
462322
462323
462325
462328
462330
462333
462335
462336
462337
462340
394948
394236
395548
396178
396181
462341
462342
462343
462345
462347
462348
462349
462350
462352
462353
462354
462355
462356
462357
462358
462359
462360
462361
462362
462363
462364
462365
462366
462367
462368
462369
462370
462371
462372
462373
462374
462375
462376
462377
462378
462379
462380
462381
462382
462383
462384
462385
462386
462387
462388
462389
462390
462391
462392
462393
462394
462395
462396
462397
462398
462399
462400
462401
462402
462403
462404
462405
462406
462407
462408
462409
462410
462411
462412
462413
462414
462415
462416
462417
462418
462419
462420
462421
462422
462423
462424
462425
462428
462429
462430
462431
462432
462433
462434
462439
462440
462441
462442
394861
395384
395914
462443
462444
462445
462447
462449
462450
462452
462453
462454
462455
462456
462457
462458
462459
462460
462461
462462
462463
462464
462465
462466
462467
462468
462469
462470
462471
462472
462473
462474
462475
462476
462477
462478
462479
462480
462481
462482
462483
462484
462485
462486
462487
462488
462489
462490
462491
462492
462493
462494
462495
462496
462497
462498
462499
462500
462501
462502
462503
462504
462505
462506
462507
462508
462509
462510
462511
462512
462513
462514
462515
462516
462517
462518
462519
462520
462522
462523
462524
462526
462527
462528
462529
462532
462533
462535
462536
462540
462541
462542
393369
462543
462545
462547
462548
462549
462552
462553
462554
462555
462556
462557
462558
462559
462560
462561
462562
462563
462564
462565
462566
462567
462568
462569
462570
462571
462572
462573
462574
462575
462576
462577
462578
462579
462580
462581
462582
462583
462584
462585
462586
462587
462588
462589
462590
462591
462592
462593
462594
462595
462596
462597
462598
462599
462600
462601
462602
462603
462604
462605
462606
462607
462608
462609
462610
462611
462612
462613
462614
462615
462616
462617
462618
462619
462620
462621
462622
462623
462624
462625
462626
462627
462628
462629
462634
462638
462639
462641
394775
394869
395295
395725
395829
396267
462128
462648
462649
462650
462651
462652
462653
462654
462655
462656
462657
462658
462659
462660
462661
462662
462663
462664
462665
462666
462667
462668
462669
462670
462671
462672
462673
462674
462675
462676
462677
462678
462679
462680
462681
462682
462683
462684
462685
462686
462687
462688
462689
462690
462691
462692
462693
462694
462695
462696
462697
462698
462699
462700
462701
462702
462703
462704
462705
462706
462707
462708
462709
462710
462711
462712
462713
462714
462716
462717
462718
462719
462720
462721
462722
462723
462724
462725
462726
462727
462729
462733
462735
462736
462737
462738
462739
462740
462742
462743
462744
462745
394410
394874
395913
459664
396693
462746
462748
462752
462753
462754
462755
462756
462757
462758
462759
462760
462761
462762
462763
462764
462765
462766
462767
462768
462769
462770
462771
462772
462773
462774
462775
462776
462777
462778
462779
462780
462781
462782
462783
462784
462785
462786
462787
462788
462789
462790
462791
462792
462793
462794
462795
462796
462797
462798
462799
462800
462801
462802
462803
462804
462805
462806
462807
462808
462809
462810
462811
462812
462813
462814
462815
462816
462817
462818
462819
462820
462821
462822
462823
462824
462825
462826
462827
462828
462829
462830
462831
462832
462834
462835
462837
462838
462841
462842
462843
462844
462845
462847
462848
395466
396272
462849
462851
462852
462853
462854
462855
462857
462858
462859
462860
462861
462862
462863
462864
462865
462866
462867
462868
462869
462870
462871
462872
462873
462874
462875
462876
462877
462878
462879
462880
462881
462882
462883
462884
462885
462886
462887
462888
462889
462890
462891
462892
462893
462894
462895
462896
462897
462898
462899
462900
462901
462902
462903
462904
462905
462906
462907
462908
462909
462910
462911
462912
462913
462914
462915
462916
462917
462918
462919
462920
462921
462922
462923
462924
462925
462926
462927
462928
462929
462931
462932
462933
462934
462935
462936
462937
462938
462940
462941
462945
462946
462947
462948
395381
460490
395822
396179
462952
462954
462955
462956
462957
462958
462959
462960
462961
462962
462963
462964
462965
462966
462967
462968
462969
462970
462971
462972
462973
462974
462975
462976
462977
462978
462979
462980
462981
462982
462983
462984
462985
462986
462987
462988
462989
462990
462991
462992
462993
462994
462995
462996
462997
462998
462999
463000
463001
463002
463003
463004
463005
463006
463007
463008
463009
463010
463011
463012
463013
463014
463015
463016
463017
463018
463019
463020
463021
463022
463023
463024
463025
463026
463027
463028
463029
463030
463031
463032
463033
463034
463035
463036
463037
463038
463040
463041
463042
463043
463044
463045
463049
463050
463052
463053
463054
463055
394248
393280
396269
396529
396780
463056
463059
463060
463061
463062
463063
463064
463066
463067
463068
463069
463070
463071
463072
463073
463074
463075
463076
463077
463078
463079
463080
463081
463082
463083
463084
463085
463086
463087
463088
463089
463090
463091
463092
463093
463094
463095
463096
463097
463098
463099
463100
463101
463102
463103
463104
463105
463106
463107
463108
463109
463110
463111
463112
463113
463114
463115
463116
463117
463118
463119
463120
463121
463122
463123
463124
463125
463126
463127
463129
463130
463131
463132
463133
463134
463135
463136
463137
463138
463139
463140
463141
463142
463143
463147
463151
463152
463153
463154
463155
463156
463157
463158
463159
463160
463161
393903
394253
396691
397040
463162
463164
463166
463168
463169
463170
463171
463172
463173
463174
463175
463176
463177
463178
463179
463180
463181
463182
463183
463184
463185
463186
463187
463188
463189
463190
463191
463192
463193
463194
463195
463196
463197
463198
463199
463200
463201
463202
463203
463204
463205
463206
463207
463208
463209
463210
463211
463212
463213
463214
463215
463216
463217
463218
463219
463220
463221
463222
463223
463224
463225
463226
463227
463228
463229
463230
463231
463232
463233
463234
463235
463236
463237
463238
463239
463240
463241
463242
463243
463244
463245
463246
463247
463248
463249
463250
463251
463253
463256
463259
463260
463261
463262
463264
463265
463266
447117
395823
395996
396690
396781
397041
463268
463269
463270
463271
463272
463273
463274
463275
463276
463277
463278
463279
463280
463281
463282
463283
463284
463285
463286
463287
463288
463289
463290
463291
463292
463293
463294
463295
463296
463297
463298
463299
463300
463301
463302
463303
463304
463305
463306
463307
463308
463309
463310
463311
463312
463313
463314
463315
463316
463317
463318
463319
463320
463321
463322
463323
463324
463325
463326
463327
463328
463329
463330
463331
463332
463333
463334
463335
463336
463337
463338
463339
463340
463341
463342
463343
463344
463345
463346
463347
463348
463349
463350
463351
463352
463353
463354
463355
463356
463357
463358
463360
463361
463364
463365
463366
463367
456503
394077
396694
396956
463368
463369
463371
463372
463373
463374
463375
463376
463377
463379
463380
463381
463382
463383
463384
463385
463386
463387
463388
463389
463390
463391
463392
463393
463394
463395
463396
463397
463398
463399
463400
463401
463402
463403
463404
463405
463406
463407
463408
463409
463410
463411
463412
463413
463414
463415
463416
463417
463418
463419
463420
463421
463422
463423
463424
463425
463426
463427
463428
463429
463430
463431
463432
463433
463434
463435
463436
463437
463438
463439
463440
463441
463442
463443
463444
463445
463446
463448
463449
463450
463451
463452
463453
463455
463456
463458
463459
463462
463463
463464
463465
463466
394413
395208
395477
460995
463467
463468
463469
463472
463473
463475
463476
463477
463478
463479
463480
463481
463484
463485
463486
463487
463488
463489
463490
463491
463492
463493
463494
463495
463496
463497
463498
463499
463500
463501
463502
463503
463504
463505
463506
463507
463508
463509
463510
463511
463512
463513
463514
463515
463516
463517
463518
463519
463520
463521
463522
463523
463524
463525
463526
463527
463528
463529
463530
463531
463532
463533
463534
463535
463536
463537
463538
463539
463540
463541
463542
463543
463544
463545
463546
463547
463548
463549
463550
463551
463552
463553
463554
463555
463556
463557
463559
463562
463563
463564
463566
463567
463568
463569
463570
394774
395470
395828
395917
396094
460800
463572
463576
463577
463578
463579
463581
463582
463583
463584
463585
463586
463587
463588
463589
463590
463591
463592
463593
463594
463595
463596
463597
463598
463599
463600
463601
463602
463603
463604
463605
463606
463607
463608
463609
463610
463611
463612
463613
463614
463615
463616
463617
463618
463619
463620
463621
463622
463623
463624
463625
463626
463627
463628
463629
463630
463631
463632
463633
463634
463635
463636
463637
463638
463639
463640
463641
463642
463643
463644
463645
463646
463647
463648
463649
463650
463651
463652
463653
463654
463655
463656
463657
463658
463659
463660
463661
463662
463663
463665
463667
463668
463669
463670
463672
463673
463674
463675
463676
463677
463678
463679
463680
393463
395038
395039
396607
397400
460582
463682
463683
463684
463685
463686
463687
463688
463689
463690
463691
463692
463694
463695
463696
463697
463698
463699
463700
463701
463702
463703
463704
463705
463706
463707
463708
463709
463710
463711
463712
463713
463714
463715
463716
463717
463718
463719
463720
463721
463722
463723
463724
463725
463726
463727
463728
463729
463730
463731
463732
463733
463734
463735
463736
463737
463738