/*--------------------------------*- C++ -*----------------------------------*\
| =========                 |                                                 |
| \\      /  F ield         | OpenFOAM: The Open Source CFD Toolbox           |
|  \\    /   O peration     | Version:  2406                                  |
|   \\  /    A nd           | Website:  www.openfoam.com                      |
|    \\/     M anipulation  |                                                 |
\*---------------------------------------------------------------------------*/
FoamFile
{
    version     2.0;
    format      ascii;
    arch        "LSB;label=32;scalar=64";
    class       Cloud<dsmcParcel>;
    location    "0.009/lagrangian/dsmc";
    object      positions;
}
// * * * * * * * * * * * * * * * * * * * * * * * * * * * * * * * * * * * * * //

6956
(
(0.04073405304 0.03212474479 -2.168404345e-19) 465
(0.07095249806 0.02601621811 0) 449
(0.05660929801 0.01579097601 3.794707604e-19) 447
(0.07491654585 0.02792445249 0) 459
(0.05363548987 0.096231393 2.168404345e-19) 557
(0.07422237549 0.08972208823 2.168404345e-19) 539
(0.04687346784 0.02069652557 0) 456
(0.05770017606 0.03759018147 0) 477
(0.06342619218 0.0328276639 1.084202172e-19) 468
(0.06414939934 0.08776538149 0) 538
(0.02842346903 0.1332051585 0) 613
(0.06980573781 0.060127772 1.897353802e-19) 499
(0.07503962636 0.03363050977 2.168404345e-19) 459
(0.07154376166 0.05064683967 0) 489
(0.0463999273 0.02454059726 1.084202172e-19) 456
(0.06893794282 0.0444673493 1.084202172e-19) 479
(0.05753626904 0.01590396844 0) 447
(0.05565342196 0.03047909912 0) 467
(0.06590999463 0.01876741643 0) 448
(0.06286705843 0.03094948388 2.168404345e-19) 458
(0.05310031043 0.02734924119 0) 456
(0.06856362562 0.03321026239 -2.168404345e-19) 468
(0.07580995554 0.03527258539 0) 469
(0.07105544854 0.09443183528 2.168404345e-19) 549
(0.04346485152 0.04750902924 -1.084202172e-19) 485
(0.06359893903 0.0815508152 -4.33680869e-19) 538
(0.06839472791 0.02841600047 1.084202172e-19) 458
(0.06141125994 0.03142318169 -1.355252716e-19) 468
(0.06901732509 0.05628974628 0) 499
(0.06878471333 0.07806669036 -2.168404345e-19) 529
(0.02936992404 0.05947131968 -2.168404345e-19) 513
(0.07321127886 0.02618236562 -1.084202172e-19) 449
(0.04423664586 0.01200043495 0) 445
(0.06680363218 0.04466074755 0) 478
(0.05144555697 0.01700512802 -2.710505431e-20) 446
(0.01417111417 0.01674319299 0) 451
(0.07072883285 0.02277098882 -5.421010862e-20) 449
(0.06745278476 0.04499360918 0) 478
(0.04611569138 0.01309442599 -1.355252716e-19) 446
(0.07013806067 0.02478217433 1.355252716e-19) 449
(0.07181432466 0.02194976523 -5.421010862e-20) 449
(0.04404774463 0.02018092541 0) 455
(0.05830351396 0.01988221417 -1.084202172e-19) 447
(0.05351353348 0.01475771615 -2.439454888e-19) 447
(0.01009376291 0.06119936327 -1.084202172e-19) 511
(0.07312489813 0.06707213419 -2.168404345e-19) 509
(0.07335531097 0.02295590258 5.421010862e-20) 449
(0.06414400723 0.02269123656 0) 448
(0.05268678625 0.03359519201 4.33680869e-19) 466
(0.0557019829 0.02117546552 -1.084202172e-19) 447
(0.07262621391 0.02352938434 0) 449
(0.03481471396 0.09729142247 -2.168404345e-19) 564
(0.07506822591 0.02228002392 1.084202172e-19) 449
(0.05463903524 0.01532589118 0) 447
(0.06828464428 0.05174945873 0) 488
(0.06295512611 0.0238134072 -2.168404345e-19) 448
(0.0616860541 0.01765763722 -1.084202172e-19) 448
(0.04587474292 0.08316586443 -6.505213035e-19) 536
(0.06124504683 0.06130112749 0) 508
(0.03971969752 0.02797122432 1.084202172e-19) 465
(0.07392225292 0.02058359047 2.168404345e-19) 449
(0.06752965505 0.06140819058 4.33680869e-19) 508
(0.06656592543 0.03566162038 0) 468
(0.0575963173 0.01834590392 -1.626303259e-19) 447
(0.07089854287 0.04229974463 1.016439537e-19) 479
(0.04975102847 0.05389652087 0) 496
(0.07223942484 0.08690462347 5.421010862e-20) 539
(0.01423299419 0.01952532836 2.168404345e-19) 461
(0.05364275843 0.04166853779 2.168404345e-19) 477
(0.03878184212 0.01552869302 2.168404345e-19) 445
(0.03220479032 0.01824903687 -3.252606517e-19) 454
(0.057146139 0.02358331578 4.588800992e-19) 457
(0.07604578143 0.02755147048 0) 459
(0.05230141421 0.02999251825 -2.168404345e-19) 466
(0.06463749008 0.02634864155 -2.846030703e-19) 458
(0.05732126049 0.0238727095 -2.168404345e-19) 457
(0.06874939095 0.04018097203 -2.168404345e-19) 479
(0.03209880993 0.1333105139 -2.168404345e-19) 614
(0.06971295481 0.02750323503 5.421010862e-20) 459
(0.06240680334 0.03689100169 2.981555974e-19) 468
(0.06024893916 0.1531535184 -1.084202172e-19) 637
(0.06917290755 0.0354501901 0) 469
(0.02851325608 0.02540408345 5.421010862e-20) 463
(0.07349889529 0.05413706546 -3.252606517e-19) 489
(0.05487053015 0.08195074102 1.084202172e-19) 537
(0.07597861035 0.03474091328 -2.168404345e-19) 469
(0.06223282062 0.02811176823 1.084202172e-19) 458
(0.0382301797 0.01316190006 0) 445
(0.0408159693 0.0277773044 -1.084202172e-19) 465
(0.07469363172 0.03397733871 -6.505213035e-19) 459
(0.04140068479 0.02211607297 1.355252716e-20) 455
(0.07296231326 0.04202785806 -2.168404345e-19) 479
(0.05297787788 0.02860858509 0) 466
(0.04034800806 0.01603131804 -2.710505431e-20) 445
(0.02711061331 0.02866635198 -2.710505431e-19) 463
(0.0341720559 0.04172490046 1.355252716e-19) 484
(0.06345830742 0.03880222192 -3.252606517e-19) 478
(0.04451346708 0.05842777767 -5.421010862e-20) 505
(0.06847281078 0.04324362812 4.33680869e-19) 478
(0.06942733978 0.02576759705 0) 459
(0.07213513673 0.04631736307 2.168404345e-19) 479
(0.05933765758 0.07592389485 -2.168404345e-19) 527
(0.05652944249 0.04691855327 5.421010862e-20) 487
(0.04309120425 0.05202161622 0) 495
(0.0463718715 0.0233038739 -4.065758147e-20) 456
(0.056879784 0.02703998828 0) 457
(0.07274123169 0.03634226237 5.421010862e-20) 469
(0.03598520557 0.02513679255 2.168404345e-19) 464
(0.06862015666 0.04202245592 0) 479
(0.0553311308 0.03055113596 -2.168404345e-19) 467
(0.05149389114 0.03053665449 2.168404345e-19) 466
(0.06058802026 0.04417292392 4.33680869e-19) 477
(0.05134765767 0.08076924616 2.168404345e-19) 536
(0.01417992667 0.0259193463 -2.168404345e-19) 461
(0.05018065922 0.01645988844 5.421010862e-20) 446
(0.05202959509 0.01548066591 0) 446
(0.05916112606 0.03340292193 -1.084202172e-19) 467
(0.06979863672 0.02498249676 2.710505431e-20) 449
(0.05713702584 0.040399721 -1.355252716e-20) 477
(0.07342524692 0.03608323716 1.084202172e-19) 469
(0.05438407908 0.02348807519 0) 457
(0.0454896421 0.01236234055 4.33680869e-19) 445
(0.03038508542 0.02705621872 0) 463
(0.05557066331 0.04293685469 -3.252606517e-19) 477
(0.07439149729 0.0223211491 1.084202172e-19) 449
(0.03897951759 0.1050567683 0) 575
(0.07380488543 0.02100675535 2.168404345e-19) 449
(0.07464768246 0.06539098879 2.710505431e-19) 509
(0.07433117676 0.02730424959 2.168404345e-19) 459
(0.06707760372 0.05400496975 0) 498
(0.07297418102 0.02445478726 0) 449
(0.06104871728 0.03972432106 -2.168404345e-19) 478
(0.05331543456 0.0284505567 -4.33680869e-19) 456
(0.06341760501 0.01805721852 1.084202172e-19) 448
(0.06640212682 0.01954826449 0) 448
(0.07451088491 0.05269240983 -2.168404345e-19) 489
(0.05879507715 0.0400622057 5.421010862e-20) 477
(0.05360797769 0.02818611751 0) 457
(0.05683035267 0.06449017333 2.168404345e-19) 507
(0.0725072593 0.03622324261 0) 469
(0.02615044017 0.0385527804 8.131516294e-19) 483
(0.04804550893 0.02011058783 1.084202172e-19) 456
(0.06356923012 0.04621686666 1.084202172e-19) 488
(0.0646730652 0.04989701717 2.168404345e-19) 488
(0.04667620917 0.02065012502 1.694065895e-19) 456
(0.07563379171 0.04855415408 -2.168404345e-19) 489
(0.05445889652 0.01656356711 -1.084202172e-19) 447
(0.06816647133 0.08442570007 -1.084202172e-19) 538
(0.05976941375 0.06105909067 0) 507
(0.06086893178 0.02000434974 0) 447
(0.07463090507 0.02976088583 3.252606517e-19) 459
(0.03780651857 0.02482920739 0) 464
(0.05406536638 0.02904285192 -2.168404345e-19) 467
(0.02699726164 0.03240011124 -5.421010862e-20) 473
(0.05845275539 0.02875476041 0) 457
(0.07492711784 0.08847634354 2.168404345e-19) 539
(0.04125006705 0.02637645893 -4.33680869e-19) 465
(0.06881188574 0.03744679207 3.252606517e-19) 469
(0.04733344749 0.01563510517 -1.084202172e-19) 446
(0.05525005223 0.02600940775 -5.421010862e-20) 457
(0.00918172505 0.03740499509 2.168404345e-19) 481
(0.03529101228 0.01830682621 0) 454
(0.07049472339 0.03297988413 0) 469
(0.05784413144 0.09894467302 5.421010862e-20) 557
(0.04964205601 0.04430223881 1.084202172e-19) 486
(0.04819983489 0.07005283955 2.168404345e-19) 516
(0.07145350321 0.06289676187 1.084202172e-19) 509
(0.006149957927 0.00520295613 5.285485591e-19) 440
(0.06134569698 0.01981182545 4.33680869e-19) 448
(0.0415101487 0.02809858728 -1.897353802e-19) 465
(0.01774213874 0.02644536652 2.168404345e-19) 462
(0.04931236069 0.07471288636 4.607859233e-19) 526
(0.01888862866 0.01735941755 0) 452
(0.07122575505 0.03487540551 0) 469
(0.07150974659 0.02823457605 0) 459
(0.0561123608 0.09924833285 2.168404345e-19) 557
(0.04181178331 0.04409053824 2.710505431e-20) 485
(0.06912170059 0.06021263111 0) 499
(0.05049859819 0.02801001891 0) 466
(0.06969966225 0.06007546414 -8.131516294e-20) 499
(0.05369010182 0.05428633609 5.421010862e-20) 497
(0.04752221761 0.01408258343 -2.168404345e-19) 446
(0.02653751097 0.02345160884 -1.355252716e-19) 463
(0.05618643955 0.1029698839 -1.084202172e-19) 567
(0.06053405577 0.05577028888 -2.168404345e-19) 497
(0.04080327752 0.04472103901 8.131516294e-20) 485
(0.05218621325 0.01486566253 0) 446
(0.06522549265 0.03821460909 5.421010862e-20) 468
(0.03705033627 0.01119806607 -2.168404345e-19) 444
(-0.01755701993 0.02803696315 1.084202172e-19) 77
(0.06468754538 0.02965671884 2.168404345e-19) 458
(0.04968395483 0.01620795254 3.252606517e-19) 446
(0.04630695161 0.02443178781 0) 456
(0.06269189026 0.02108858836 1.084202172e-19) 448
(0.06949790399 0.03339116002 -2.168404345e-19) 469
(0.05864224877 0.1406831768 0) 617
(0.04717847692 0.01442161274 -2.168404345e-19) 446
(0.06431413078 0.02094433798 -2.710505431e-20) 448
(0.07338654797 0.03588735554 -3.252606517e-19) 469
(0.06406750289 0.01782506533 5.421010862e-20) 448
(0.06831193112 0.0253445318 -2.168404345e-19) 448
(0.07392875088 0.08851138223 0) 539
(0.04928728498 0.03344988873 0) 466
(0.04366631043 0.02149694614 -1.084202172e-19) 455
(0.06921841361 0.03706905768 1.084202172e-19) 469
(0.05796670609 0.05505346761 5.421010862e-20) 497
(0.02798327332 0.03743591519 4.33680869e-19) 483
(0.06921671419 0.02946503569 -4.878909776e-19) 459
(0.04730456399 0.04562183113 1.084202172e-19) 486
(0.04763945908 0.02180907179 -3.184843882e-19) 456
(0.03247251549 0.009477287548 -2.168404345e-19) 444
(0.06702920484 0.03976246906 -2.168404345e-19) 478
(0.07235654185 0.0349688625 -1.389134033e-19) 469
(0.04556722452 0.01771137039 0) 445
(0.07274287887 0.06701314735 -2.710505431e-20) 509
(0.06064494834 0.03542427794 2.168404345e-19) 467
(0.05973736152 0.02138171309 2.168404345e-19) 447
(0.0575491548 0.02890407831 8.131516294e-20) 457
(0.05973603463 0.01986589607 0) 447
(0.04905993843 0.03007069359 -2.168404345e-19) 466
(0.06361599258 0.1299607539 -2.168404345e-19) 598
(0.07521888087 0.1445520836 0) 619
(-0.02942126066 0.06589242524 0) 176
(0.06402434141 0.07238071967 4.33680869e-19) 518
(0.0270819189 0.01078577368 1.084202172e-19) 443
(0.07434290189 0.04985951264 -1.084202172e-19) 489
(0.02768510218 0.009921986139 -3.252606517e-19) 443
(0.04322330173 0.02219594165 2.710505431e-20) 455
(0.01202976519 0.03154484913 -1.084202172e-19) 471
(0.06951635462 0.02394715564 -2.168404345e-19) 449
(0.04296517476 0.0404779022 0) 485
(0.0603211936 0.07907013501 -2.168404345e-19) 527
(0.07511291847 0.05330760806 -2.168404345e-19) 489
(0.07073131803 0.03436181762 -1.084202172e-19) 469
(0.02743363419 0.0325978303 -3.794707604e-19) 473
(0.06035173056 0.0764688866 6.09863722e-20) 527
(0.04071729157 0.04304480023 -2.168404345e-19) 485
(0.05529901689 0.05154711619 -2.168404345e-19) 497
(0.07050263126 0.05885491699 1.084202172e-19) 499
(0.06193555139 0.1407868758 -4.065758147e-20) 618
(0.071991898 0.1507036015 -1.084202172e-19) 629
(0.05917918135 0.04060544705 -4.065758147e-20) 477
(0.07567141344 0.02496945932 -4.33680869e-19) 449
(0.04122327577 0.06727407243 1.084202172e-19) 515
(0.04238092586 0.02159518891 -1.084202172e-19) 455
(0.06780871675 0.0346781218 3.252606517e-19) 468
(0.07567336431 0.02698077387 2.168404345e-19) 449
(0.0674935348 0.06240861743 -3.252606517e-19) 508
(0.07538121195 0.05573558405 2.168404345e-19) 499
(0.06768137554 0.02156369189 1.28749008e-19) 448
(0.07048680386 0.03118579857 2.135581818e-19) 459
(0.04475890096 0.02224934966 0) 455
(0.01708713303 0.02014925665 -2.168404345e-19) 462
(0.05953564423 0.02858710352 -4.33680869e-19) 457
(0.06508445163 0.02257760803 8.131516294e-20) 448
(0.07258576243 0.07341200894 5.421010862e-20) 519
(0.07217945974 0.03719668267 2.57498016e-19) 469
(0.07346065515 0.04137421339 -2.168404345e-19) 479
(0.02550158031 0.02876809025 0) 463
(0.07366118938 0.03798142735 -1.084202172e-19) 469
(0.05552488032 0.08051884828 -1.084202172e-19) 537
(0.07136806122 0.08050405767 2.710505431e-19) 529
(0.07525854904 0.1288472041 4.33680869e-19) 599
(0.02663538173 0.02666211754 1.084202172e-19) 463
(0.01637553287 0.05903067558 2.168404345e-19) 512
(0.05362620534 0.0481632011 -1.084202172e-19) 487
(0.0594191084 0.02034085565 4.33680869e-19) 447
(0.0504127656 0.04121183693 0) 476
(0.06193996365 0.04803512818 -2.168404345e-19) 488
(0.04023743378 0.04419930956 -3.252606517e-19) 485
(0.06300579772 0.02450471527 0) 458
(0.04569875916 0.0527809408 -4.33680869e-19) 495
(0.07303283935 0.06299004088 0) 509
(0.01846685251 0.006614501037 -5.421010862e-20) 442
(0.0448113613 0.04536847172 -2.168404345e-19) 485
(0.06473824329 0.0299790386 -4.33680869e-19) 458
(0.03370736867 0.07109472248 -2.710505431e-20) 524
(0.06221505348 0.0597933232 0) 508
(0.05950249703 0.03964157055 1.084202172e-19) 477
(0.0703188958 0.1065496941 0) 569
(0.06101896367 0.04580465869 1.084202172e-19) 488
(0.007318232721 0.04258533042 1.084202172e-19) 490
(0.06946897667 0.02814319859 -2.168404345e-19) 459
(0.07006457234 0.02068112671 3.794707604e-19) 449
(0.06771364252 0.02574326752 2.168404345e-19) 458
(0.07221850235 0.03724277684 -2.710505431e-20) 469
(0.04813050159 0.02173665485 0) 456
(-0.0181852139 0.02706149186 0) 77
(0.0669873752 0.05177665116 0) 488
(0.02454786003 0.06122665972 0) 513
(0.02929912329 0.02206767879 0) 453
(0.07128273856 0.05000979399 5.421010862e-20) 489
(0.04157073485 0.03037147354 1.084202172e-19) 465
(0.05281111761 0.02849692448 0) 466
(0.05429230338 0.02774426687 -2.168404345e-19) 457
(0.02120778706 0.03411794217 -4.33680869e-19) 472
(0.06790564435 0.1024836355 0) 558
(0.07213979112 0.04955916987 0) 489
(0.06916821247 0.09485415293 0) 549
(0.06019377707 0.1037490531 -8.67361738e-19) 567
(0.07424194738 0.1081715258 -2.168404345e-19) 569
(0.07055913898 0.132752673 -6.505213035e-19) 609
(0.06126207928 0.06785108913 1.084202172e-19) 518
(0.07281557378 0.02660382489 -4.33680869e-19) 459
(0.06526321092 0.09021593741 1.084202172e-19) 548
(0.06778050398 0.03582588447 2.168404345e-19) 468
(0.05219418972 0.05588827935 0) 496
(0.007585303948 0.01237879836 2.168404345e-19) 450
(0.07362324611 0.04172106135 0) 479
(0.06101488732 0.01669609967 -2.710505431e-20) 448
(0.02772397565 0.0399634162 1.897353802e-19) 483
(0.03438223443 0.01497570191 -1.423015351e-19) 444
(0.04103437304 0.06802426802 -2.168404345e-19) 515
(0.0704574162 0.03497526131 5.421010862e-20) 469
(0.05420918329 0.01987288919 -4.33680869e-19) 447
(0.06688463116 0.02454000401 2.168404345e-19) 448
(0.02758785193 0.03614450954 1.084202172e-19) 473
(0.04327258496 0.06692124321 -1.084202172e-19) 515
(0.07460247736 0.04446633704 7.792703115e-20) 479
(0.04858309771 0.1049996329 1.084202172e-19) 566
(0.03925253815 0.09903572966 -3.252606517e-19) 565
(0.07313214853 0.1560288556 -5.421010862e-20) 639
(0.07291385856 0.08994389109 4.33680869e-19) 549
(0.06719275657 0.1599179711 -2.168404345e-19) 648
(0.05661081137 0.1555517537 0) 637
(0.04199453028 0.01410613409 5.421010862e-20) 445
(0.06221300133 0.03548398602 2.168404345e-19) 468
(0.06999275072 0.02755817528 -1.626303259e-19) 459
(0.04562768242 0.02272758691 2.710505431e-20) 455
(0.02194134668 0.01284286687 0) 442
(0.07173438396 0.08930237104 -2.168404345e-19) 539
(0.04424765734 0.0656620186 -1.084202172e-19) 515
(0.03890540442 0.09102702719 -9.486769009e-20) 555
(0.07005292393 0.05209095716 2.168404345e-19) 489
(0.03669576294 0.05529683971 0) 504
(0.06108896718 0.0167473836 -4.065758147e-19) 448
(0.03796563282 0.09457846047 -4.33680869e-19) 554
(0.03490780222 0.09950654485 1.626303259e-19) 564
(0.05099858446 0.06937828467 -1.084202172e-19) 516
(0.02644689359 0.1123167785 -2.168404345e-19) 583
(0.07604415569 0.107669749 1.219727444e-19) 569
(0.07374984502 0.1063865789 1.084202172e-19) 569
(0.06996852515 0.09635403999 0) 559
(0.06817773337 0.1536495282 2.168404345e-19) 638
(0.07485789052 0.120238739 0) 589
(0.07087929446 0.1325160459 -1.084202172e-19) 609
(0.01138017365 0.1384037537 8.809142651e-20) 621
(0.05923483792 0.09055436622 -2.168404345e-19) 547
(0.01469649622 0.03443765422 2.168404345e-19) 481
(0.02464152435 0.01611295044 5.421010862e-20) 453
(0.06197390777 0.04171813021 2.981555974e-19) 478
(0.02572958647 0.0595495393 -3.252606517e-19) 513
(0.04991993513 0.08880548799 2.168404345e-19) 546
(0.03359438348 0.01665437806 1.626303259e-19) 454
(0.05128379423 0.07412391804 1.084202172e-19) 526
(0.04461072117 0.04416657465 -8.131516294e-20) 485
(0.01219381631 0.005425835491 1.084202172e-19) 441
(0.06942441037 0.0327053724 -2.168404345e-19) 469
(0.06515960595 0.06710669536 0) 518
(0.05896266742 0.0304725822 -2.168404345e-19) 467
(0.0685596705 0.02320103627 0) 448
(0.05104316634 0.0295987011 0) 466
(0.05150704871 0.02391761907 -5.421010862e-20) 456
(0.05377364035 0.0273062851 -2.168404345e-19) 457
(0.06433787751 0.07394919579 3.252606517e-19) 528
(0.06332931138 0.1197190254 -4.878909776e-19) 588
(0.05423626611 0.08856145921 -2.168404345e-19) 547
(0.05095616201 0.04374469952 0) 486
(0.01770682978 0.03822982812 8.131516294e-20) 482
(0.01327932257 0.01329323414 1.084202172e-19) 451
(0.07316946615 0.03641859494 1.084202172e-19) 469
(0.0757861524 0.0432970108 2.168404345e-19) 479
(0.06235273247 0.01832155823 2.710505431e-20) 448
(0.06957734035 0.04735624681 -2.168404345e-19) 489
(0.05555211133 0.0397633904 0) 477
(0.06566255182 0.05105264107 1.084202172e-19) 488
(0.05726032208 0.09828480247 -6.776263578e-20) 557
(0.0532065101 0.02465239184 1.084202172e-19) 456
(0.05552460374 0.01493258733 2.168404345e-19) 447
(0.07099117149 0.09112517485 1.084202172e-19) 549
(0.05460903132 0.04240400745 1.626303259e-19) 477
(0.06583312119 0.07793953396 1.084202172e-19) 528
(0.0492016438 0.04256229773 3.794707604e-19) 486
(0.0655243401 0.05365584503 -2.168404345e-19) 498
(0.03720639508 0.07397315092 0) 524
(0.0589453806 0.07929656929 -4.33680869e-19) 527
(0.0603237568 0.0640378436 2.168404345e-19) 507
(0.05983043514 0.06178382657 5.421010862e-20) 507
(0.05712662627 0.08179451609 3.269547176e-19) 537
(0.05321086773 0.1209900526 0) 586
(0.07573099443 0.1249636071 -4.33680869e-19) 589
(0.07230834468 0.143718361 1.084202172e-19) 619
(0.07487325203 0.1233003236 2.168404345e-19) 589
(0.06233434681 0.1121290161 -2.168404345e-19) 578
(0.05388769205 0.08663429946 -2.439454888e-19) 547
(0.05358671132 0.09432476161 0) 557
(0.03534743924 0.02120447129 1.084202172e-19) 454
(0.04210112002 0.0151666027 4.065758147e-20) 445
(0.03702468085 0.03931599178 2.168404345e-19) 484
(0.0402415211 0.01265799896 -1.084202172e-19) 445
(0.02827181547 0.05799877081 -1.084202172e-19) 503
(0.02714399235 0.007501630413 0) 443
(0.05478879059 0.02252415122 -2.168404345e-19) 457
(0.03650716889 0.03150584925 0) 464
(0.06894476593 0.05702839815 0) 499
(0.05515146376 0.05443147048 5.421010862e-20) 497
(0.04607305693 0.01442144549 -2.168404345e-19) 446
(0.06081503606 0.03720817116 0) 467
(0.03058020833 0.02673680142 2.710505431e-19) 464
(0.07345482242 0.08777881154 1.084202172e-19) 539
(0.05386338103 0.01581993277 0) 447
(0.04230882369 0.07580508898 -2.710505431e-19) 525
(0.02550029862 0.04155346877 1.084202172e-19) 483
(0.06899114564 0.04920138937 0) 489
(0.0751611436 0.03774769485 0) 469
(0.0574677674 0.02167609472 3.252606517e-19) 447
(0.05615253498 0.05376922706 3.794707604e-19) 497
(0.06373544163 0.08239471613 -1.084202172e-19) 538
(0.0587951742 0.07933741779 -3.252606517e-19) 527
(0.04032160703 0.07743021464 3.252606517e-19) 535
(0.05919822128 0.08985904667 -5.421010862e-20) 547
(0.05333727261 0.1438130257 0) 626
(0.0708474002 0.1401546415 0) 619
(0.07212854821 0.1050452999 -3.523657061e-19) 569
(0.07453163469 0.1636500476 -2.168404345e-19) 649
(0.04699721556 0.02595569911 6.776263578e-20) 456
(0.06757234511 0.03209263399 0) 458
(0.04365643295 0.03566792601 2.168404345e-19) 475
(0.0630588233 0.01985400499 0) 448
(0.04847801098 0.0331830669 1.084202172e-19) 466
(0.05959503036 0.06435011217 4.33680869e-19) 507
(0.0661831829 0.02832414754 2.168404345e-19) 458
(0.06287630245 0.02322730881 0) 448
(0.06310003058 0.05083222236 2.710505431e-19) 488
(0.03595471825 0.01217446584 4.33680869e-19) 444
(0.03801864679 0.01520865428 4.33680869e-19) 444
(0.07578221793 0.02481772091 -4.33680869e-19) 449
(0.0544910761 0.05649477172 -1.219727444e-19) 497
(0.05206789515 0.04189513938 2.168404345e-19) 476
(0.05082928423 0.01584578656 -3.252606517e-19) 446
(0.04915249836 0.03323923087 -4.33680869e-19) 466
(0.05101307501 0.0642218441 2.168404345e-19) 516
(-0.01215889447 0.1442099527 -5.421010862e-20) 398
(0.06249838634 0.06862641123 -4.33680869e-19) 518
(0.05573768524 0.07180258944 2.168404345e-19) 517
(0.05811974988 0.139295501 5.421010862e-20) 617
(0.0569005937 0.109879937 -2.710505431e-20) 577
(0.0661045515 0.1579620958 2.168404345e-19) 638
(0.07324813942 0.08266063988 0) 529
(0.05085462506 0.1415283297 0) 616
(0.06873155169 0.1134133401 -4.33680869e-19) 579
(0.07095994469 0.1566691831 -5.421010862e-20) 639
(0.05441184145 0.1612959084 2.710505431e-19) 647
(0.02391803318 0.1516372747 4.33680869e-19) 633
(0.04548629509 0.01767942794 0) 445
(0.05601066315 0.03458918457 -1.084202172e-19) 467
(0.02462716739 0.01251414368 1.355252716e-19) 443
(0.03661011806 0.02056688864 -6.776263578e-20) 454
(0.02905986567 0.01214941728 2.168404345e-19) 443
(0.04150462081 0.0136974136 1.084202172e-19) 445
(0.05011414511 0.02354255653 -5.421010862e-20) 456
(0.008136549549 0.00989488773 0) 451
(0.041166914 0.015902554 -1.084202172e-19) 445
(0.04559478936 0.04370934775 2.168404345e-19) 485
(0.06841266119 0.0290731611 -4.33680869e-19) 458
(0.03024912777 0.02748755364 0) 463
(0.03392990211 0.01911686808 -8.131516294e-20) 454
(0.05005438918 0.02642551103 2.710505431e-19) 456
(0.06435077745 0.03722062285 0) 468
(0.02351728906 0.01124484531 -1.084202172e-19) 443
(0.06986096744 0.04879978659 5.421010862e-20) 489
(0.07097949325 0.02664516536 -3.252606517e-19) 459
(0.06984960856 0.04392732941 -3.252606517e-19) 479
(0.0560053086 0.01682081022 0) 447
(0.04311713624 0.05484890326 4.33680869e-19) 505
(0.05589231147 0.08182643692 -3.794707604e-19) 537
(0.06211594852 0.1057363477 -1.084202172e-19) 568
(0.07326427933 0.09853779229 0) 559
(0.06763521928 0.1119515306 0) 578
(0.04988576445 0.08019973515 0) 536
(0.0734629445 0.105278332 2.168404345e-19) 569
(0.06337907544 0.1494602109 -2.710505431e-20) 628
(0.05383544943 0.07522958548 -2.168404345e-19) 527
(0.04147857016 0.1119339838 -2.168404345e-19) 575
(0.03730390634 0.1425950815 -2.168404345e-19) 624
(0.03657294977 0.05840978227 4.33680869e-19) 504
(0.02902967865 0.01565608065 0) 453
(0.04961348556 0.0136352589 4.33680869e-19) 446
(0.05605900485 0.01652212852 -2.168404345e-19) 447
(0.05241344119 0.02768499404 2.168404345e-19) 456
(0.03351066349 0.01925644497 1.355252716e-19) 454
(0.07050086388 0.06712854128 -1.626303259e-19) 509
(0.06350131978 0.03386421458 -1.626303259e-19) 468
(0.0165015146 0.02910895522 0) 472
(0.04996862656 0.04018268077 1.084202172e-19) 476
(0.01332359752 0.03670889762 1.626303259e-19) 481
(0.02414756991 0.01528262778 -5.149960319e-19) 453
(0.07176548412 0.04425853316 -5.421010862e-20) 479
(0.07448148368 0.03616943538 -2.168404345e-19) 469
(0.07185823655 0.08181658568 -4.33680869e-19) 529
(0.03028577948 0.01958086733 0) 453
(0.0639305716 0.06035615452 -1.084202172e-19) 508
(0.06445463929 0.05349704676 -2.168404345e-19) 498
(0.0629912897 0.06030580208 -2.168404345e-19) 508
(0.05529096442 0.05003298426 0) 487
(0.0647941739 0.06380438509 2.676624113e-19) 508
(0.06099267574 0.05700257832 2.168404345e-19) 498
(0.05394112985 0.02269409451 2.168404345e-19) 457
(0.07054195014 0.0657996193 1.084202172e-19) 509
(0.07266879714 0.08944300043 -2.981555974e-19) 539
(0.05856576005 0.05692787341 1.084202172e-19) 497
(0.05411878661 0.08127427619 0) 537
(0.05424601063 0.09172668921 4.33680869e-19) 547
(0.04535936538 0.1068804983 0) 575
(0.03843075613 0.1231392824 0) 595
(0.06720555438 0.1058032679 4.878909776e-19) 568
(0.05428987732 0.09902946405 2.168404345e-19) 557
(0.07162902351 0.1098537492 -6.505213035e-19) 569
(0.05078362099 0.1359887521 -2.168404345e-19) 616
(0.04790187746 0.07895366963 0) 536
(0.06422649608 0.1554620484 -1.626303259e-19) 638
(0.03512175916 0.02468758567 2.168404345e-19) 464
(0.05094677666 0.01443562607 4.33680869e-19) 446
(0.05157502397 0.02971397806 2.168404345e-19) 466
(-0.01385408404 0.006520642759 -1.626303259e-19) 18
(0.05451857231 0.01840988304 -2.710505431e-20) 447
(0.05024631982 0.01440464071 2.168404345e-19) 446
(0.04369607824 0.04025436486 -2.168404345e-19) 475
(0.03622436 0.01997718531 0) 454
(0.05454240905 0.02855842068 5.421010862e-20) 457
(0.05342597268 0.02901452184 2.981555974e-19) 467
(0.0592659215 0.03188256254 2.168404345e-19) 467
(0.04608229763 0.01554721242 -4.33680869e-19) 446
(0.05814246559 0.07184986437 -1.084202172e-19) 517
(0.06862876344 0.03415140382 2.168404345e-19) 469
(0.0435322837 0.07742762705 -6.505213035e-19) 535
(0.05517374601 0.06408222104 0) 507
(0.02395053796 0.0161146319 1.084202172e-19) 453
(0.06813080219 0.07150316042 -4.33680869e-19) 518
(0.04869880964 0.03358445502 -2.168404345e-19) 466
(0.05838097269 0.05644741846 3.252606517e-19) 497
(0.07424187667 0.04597054293 0) 479
(0.05644348829 0.05434639868 -3.388131789e-20) 497
(0.07417925209 0.08061690971 4.33680869e-19) 529
(0.02580502721 0.05000550988 2.168404345e-19) 493
(0.05015150243 0.1065690263 5.421010862e-20) 566
(0.06669846174 0.1032179013 2.168404345e-19) 568
(0.06810744861 0.1405668887 1.084202172e-19) 618
(0.06762606399 0.08572825387 2.168404345e-19) 538
(0.07397191989 0.1213002244 3.320369153e-19) 589
(0.05609177918 0.09454825164 -1.084202172e-19) 557
(0.07184326723 0.1466549181 -5.421010862e-20) 629
(0.02474813541 0.01516034603 -2.168404345e-19) 453
(0.07450908441 0.05291871861 2.168404345e-19) 489
(0.07074725497 0.03460068584 3.252606517e-19) 469
(0.0191931635 0.006085452962 0) 442
(0.05084504383 0.01613185586 -1.084202172e-19) 446
(0.004990418663 0.01477273691 -1.084202172e-19) 450
(0.0579018209 0.02898367108 3.794707604e-19) 457
(0.05603134013 0.0455551509 -2.168404345e-19) 487
(0.05398742995 0.05382780044 -3.388131789e-20) 497
(0.04859975508 0.01854826353 -2.168404345e-19) 446
(0.07117095326 0.02557693775 2.168404345e-19) 449
(0.06893942966 0.06181760487 -2.168404345e-19) 509
(0.02534787553 0.02203383153 -2.168404345e-19) 463
(0.01667952872 0.01227221537 -4.33680869e-19) 452
(0.03797802207 0.01659911323 0) 444
(0.02468037089 0.02917895663 0) 473
(0.05289056297 0.01764842413 3.997995511e-19) 446
(0.06812219458 0.06919943873 2.168404345e-19) 518
(0.06863607814 0.05293356875 2.168404345e-19) 489
(0.01923883127 0.04722717829 -2.168404345e-19) 492
(0.05416228855 0.07329205064 -3.252606517e-19) 527
(0.0737977287 0.1009267637 1.084202172e-19) 559
(0.07496335307 0.06164759692 2.168404345e-19) 499
(0.0654386615 0.1034691545 2.168404345e-19) 568
(0.0601259555 0.1101565247 0) 577
(0.05228054618 0.1111070357 0) 576
(0.07610644552 0.09163636484 0) 549
(0.07615837731 0.07064799987 0) 519
(0.05428454422 0.1004310023 0) 567
(0.06827674745 0.1192670729 1.084202172e-19) 588
(0.05305449188 0.1171633406 2.710505431e-19) 586
(0.01375926303 0.1332570568 -1.355252716e-20) 611
(0.06449497911 0.1024604262 -2.710505431e-20) 568
(0.0686003652 0.1130162566 -2.168404345e-19) 579
(0.06799641616 0.0794465803 0) 528
(0.05760767195 0.09934927109 1.084202172e-19) 557
(0.05542468821 0.1472542002 1.084202172e-19) 627
(0.06237847165 0.1293996779 -1.626303259e-19) 598
(0.05363159044 0.1427579696 4.065758147e-19) 617
(0.06830332524 0.1072305962 -4.33680869e-19) 568
(0.04830624799 0.01730593901 0) 446
(0.05375931674 0.02195440939 -1.914294461e-19) 457
(0.06496853002 0.04029645626 0) 478
(0.05516224037 0.03773213882 0) 477
(0.07579636256 0.07358961427 2.168404345e-19) 519
(0.006866032927 0.008895556246 -4.33680869e-19) 440
(0.05844693899 0.02944309627 0) 457
(0.01914157801 0.02200800476 -1.084202172e-19) 462
(0.05640569819 0.02296595601 1.084202172e-19) 457
(0.05409742274 0.01465227214 -2.168404345e-19) 447
(0.06677870376 0.02245077229 0) 448
(0.06707480997 0.05196933125 0) 488
(0.06804286259 0.1188740515 1.084202172e-19) 588
(0.06874631012 0.03646906947 3.252606517e-19) 469
(0.05519241048 0.07633817248 0) 527
(0.03261191147 0.02506126623 0) 464
(0.07199225516 0.07676828792 2.981555974e-19) 529
(0.04481722704 0.0685304361 0) 515
(0.07135011106 0.09452109358 -4.33680869e-19) 549
(0.05232651796 0.05781968362 -2.168404345e-19) 506
(0.06637692954 0.05806982739 7.589415207e-19) 498
(0.06025499093 0.08769081818 0) 547
(0.07596331707 0.1088908483 0) 569
(0.07227458605 0.1212176809 5.590417452e-20) 589
(0.04946938617 0.0680732663 6.505213035e-19) 516
(0.06068868622 0.1338736859 0) 607
(0.07553862827 0.1276494036 -3.252606517e-19) 599
(0.05052812599 0.1411861873 -1.084202172e-19) 616
(0.0572256098 0.1311178483 1.084202172e-19) 607
(0.05339535115 0.0950750775 -2.168404345e-19) 557
(0.05034146382 0.1149865608 -2.168404345e-19) 586
(0.05931362562 0.116020726 4.33680869e-19) 587