/*--------------------------------*- C++ -*----------------------------------*\
| =========                 |                                                 |
| \\      /  F ield         | OpenFOAM: The Open Source CFD Toolbox           |
|  \\    /   O peration     | Version:  2406                                  |
|   \\  /    A nd           | Website:  www.openfoam.com                      |
|    \\/     M anipulation  |                                                 |
\*---------------------------------------------------------------------------*/
FoamFile
{
    version     2.0;
    format      ascii;
    arch        "LSB;label=32;scalar=64";
    class       vectorField;
    location    "0.009/lagrangian/dsmc";
    object      U;
}
// * * * * * * * * * * * * * * * * * * * * * * * * * * * * * * * * * * * * * //


6956
(
(-153.2705507 463.1176492 -574.299155)
(455.9125981 -41.11577084 713.6477501)
(-9.263626671 33.48015188 405.4365602)
(1170.090944 87.42569611 181.239351)
(2205.660632 1131.002098 197.7969607)
(1620.863704 975.5006191 -406.1978499)
(1245.67324 1300.238676 -290.2355341)
(2288.781677 1142.595935 -104.0929178)
(623.854214 -546.3198106 35.42684884)
(394.5784731 1477.82878 667.4737187)
(1597.415671 -241.9798577 588.428177)
(1533.074973 676.5191875 442.4601544)
(1235.45641 182.2559713 729.7817821)
(176.9470416 928.3217226 227.3733098)
(263.5210196 -49.66596264 35.32587255)
(1961.549629 696.5309624 -42.08028924)
(-763.1569276 345.1491464 562.785679)
(-720.4860736 404.7583349 1015.411878)
(1008.648785 -416.3334721 660.6344151)
(501.8483197 68.56980465 825.1939777)
(-512.1632564 268.3866758 -453.7606767)
(53.93076341 483.0409203 442.2382949)
(710.3922604 606.6353426 -696.230862)
(-407.3356019 694.3884282 70.22281844)
(-115.9141702 8.696074223 -519.8730748)
(1397.825598 1083.727412 49.89515113)
(132.9684287 565.345599 131.7487296)
(423.0020122 764.1499542 121.4909529)
(1638.382567 670.1684386 -536.1723362)
(1796.077674 3.233512487 11.17828214)
(1249.110921 -80.17251414 -114.2313564)
(-26.67531411 465.0897118 439.5460378)
(-278.3135287 8.938051614 145.1610601)
(1.863220473 785.0225463 50.63938372)
(757.8645233 268.191504 562.4353515)
(1652.780251 -763.718418 594.1244954)
(277.9387652 64.22259663 -328.0922135)
(464.1350514 437.4545277 -284.9235191)
(822.5368281 -1133.809043 267.8248914)
(791.7595097 -38.95778627 492.1117265)
(-39.67756124 440.6989974 -264.3503022)
(21.378466 24.95564098 217.4464313)
(1402.618203 -157.1686345 305.0499305)
(240.150155 -152.7899951 594.6614287)
(772.2754617 1151.660065 528.4094848)
(662.6462381 1184.263804 1093.272724)
(885.2408704 499.3435573 -618.9842385)
(-30.58184776 741.5634827 -42.62911086)
(1065.220882 1379.686048 -37.78580757)
(1467.364434 446.8595306 -578.6007536)
(-325.6965081 -556.9906335 -330.9410378)
(284.0578514 601.6154645 626.1446186)
(-198.7272233 390.3637839 -350.3919364)
(-199.8789455 99.65197108 1.997017521)
(499.014523 665.8396414 50.24948172)
(-452.6475204 168.4440153 620.0272097)
(78.34087772 321.6502419 565.1190668)
(-189.9688057 531.0649239 587.6035643)
(1043.489039 1209.28059 487.8832256)
(1526.538726 442.7808573 131.2993196)
(446.912392 -1063.045049 -1327.508927)
(174.9254848 1020.022723 565.7377113)
(393.7428475 562.2007553 116.5617421)
(-356.9044394 83.59541307 -63.24166297)
(161.1772901 375.4322335 -351.7222179)
(182.4049408 1175.729526 -378.9395497)
(1538.320532 502.643327 -150.6286659)
(627.0642043 334.1627172 -1035.228236)
(1597.728515 942.5585003 -896.6688901)
(484.1813508 634.6827284 -15.44180957)
(1262.044018 -91.5164606 -446.8386474)
(-444.332738 1082.149517 413.2642459)
(44.73924556 227.1065994 -116.1620337)
(422.5789803 1213.300914 -1148.452177)
(155.7775596 321.025599 -184.0469036)
(408.2422688 -1250.047057 -373.1907108)
(580.3920829 881.590925 719.4762889)
(1013.713622 -425.1459465 299.1066816)
(503.5921488 -109.6853935 -1.059356314)
(206.4577452 623.6328691 12.08641939)
(1109.988038 -106.3127739 363.2564737)
(1250.837028 995.1115602 54.42819618)
(-57.76421872 498.6098615 -320.6980285)
(856.4613915 222.3965322 -579.666837)
(1705.894208 -195.3682677 -28.46308345)
(2146.604468 -17.06728562 -49.88817418)
(345.7541351 48.40212584 1180.695984)
(1855.12518 338.1285388 1230.797827)
(204.8486646 167.2606704 185.5634793)
(886.8253002 1469.15181 187.9085506)
(377.9400897 936.2101075 405.0858231)
(1409.985197 277.2774323 285.6495173)
(143.4459084 -672.8243161 -247.2004919)
(-353.1627918 66.00847169 9.021721257)
(-396.5607897 483.5832667 -620.5825611)
(928.3035734 -122.3713912 -1315.582301)
(1605.2983 324.7528624 -227.1723318)
(386.9185384 359.917447 -362.5693293)
(1242.510872 857.7120666 -715.4539906)
(-0.6206461064 1004.185271 -288.3825706)
(1226.757381 -221.7583268 97.88838884)
(1515.572315 -270.8369119 -380.4031081)
(163.2691901 605.1803622 538.4217843)
(82.03989072 327.1333403 -79.75523696)
(1020.206813 -932.6605859 326.5179104)
(632.8633468 339.5504846 342.9326621)
(701.7294769 562.0685886 -681.5974684)
(186.6180939 -133.4947986 511.0171913)
(1730.718507 279.099587 -867.2253645)
(608.3279365 352.1201179 146.7592448)
(402.6032224 205.4941633 -328.5865493)
(1261.172322 472.8275294 460.2002773)
(243.1842773 795.0644658 335.1766914)
(-97.9885228 30.9583793 -857.7751775)
(238.3219195 -34.32809594 -124.1486498)
(-345.9880053 608.2021996 391.9132645)
(730.1781739 -212.6710576 -183.9692889)
(442.4702547 -1246.720756 -344.4955995)
(692.9775371 366.3220381 774.3880238)
(342.9959569 218.3808719 288.6721942)
(502.655308 212.9534493 129.3542431)
(-254.7516814 265.8448469 210.1117868)
(-385.6820247 180.8234468 -797.8510904)
(-181.5180772 585.7332165 -696.9719622)
(-79.44609998 134.2727444 -62.95466377)
(811.6432646 756.1829577 52.08252484)
(136.1323575 -187.3186139 -360.2989673)
(492.602761 820.7690085 457.2205217)
(596.2829123 143.0536062 314.6642191)
(567.8978829 110.5079282 623.3042055)
(467.3492304 572.7675874 619.4248209)
(305.9069728 1053.810943 531.6868684)
(-49.90751304 1305.159503 61.27040903)
(27.78247715 -30.6836622 13.67251156)
(500.0847764 -168.547533 -85.95358764)
(220.6132095 726.407221 -334.4022072)
(471.8226455 1208.145046 312.4219074)
(997.0697702 354.0014609 -51.52262941)
(-225.7858586 628.4864639 600.4076092)
(1063.321977 404.0783519 196.0704745)
(995.1778216 1254.3783 205.5924567)
(-356.3053933 518.8508047 -413.0937102)
(992.1792557 367.776652 73.66029498)
(1890.537664 858.1939705 -167.068637)
(1196.70677 -468.2664174 345.4898171)
(476.9425477 994.6231337 -623.0925933)
(34.85559457 -390.108473 222.8413983)
(1085.847162 -83.82933142 -361.5517838)
(76.4666181 92.85036013 985.9752914)
(-91.71803985 141.1584495 718.7824556)
(634.0037798 584.0017485 583.0675772)
(973.9516549 415.9557318 -661.2032229)
(-102.8748551 367.0117568 294.2197393)
(1806.000307 731.590396 588.5745287)
(691.8550849 941.1147228 -938.4294416)
(1354.009437 793.9255409 -339.3042295)
(145.9938112 -57.73818929 608.8692914)
(2130.8231 -141.4702454 121.9799359)
(838.525477 -12.68611311 6.458854519)
(57.8585957 36.12701242 -97.78265623)
(-38.24537385 -290.7913672 979.0154939)
(22.34316201 190.4865759 433.198489)
(-256.9808888 59.80599787 -1264.746099)
(1155.616359 1126.45024 -724.1625049)
(388.1296974 1118.117751 288.9228185)
(1221.680934 447.0626491 9.40070164)
(1470.534819 54.94914584 -416.3654189)
(-131.8961518 561.5051122 -311.6978827)
(298.9161744 -41.30173052 65.66726058)
(974.6987126 286.8382182 139.8771586)
(-288.1911567 222.2917704 -85.40129662)
(1610.242828 662.4804751 979.0501345)
(906.5359356 1089.455757 -336.4078879)
(456.1522291 864.8039862 137.8985074)
(329.6312412 -224.3134927 -486.9393225)
(760.6494239 490.9372747 -390.3273738)
(-33.6353068 489.7568252 187.8006989)
(27.33982943 129.2205748 -66.91392716)
(407.9673095 -923.7699259 -916.0598817)
(2203.927208 -443.3803781 94.43002839)
(787.799569 411.6573775 565.3393802)
(18.930007 297.6928509 490.6698786)
(262.7335391 688.79673 96.71571394)
(148.0257914 19.9446174 -654.596348)
(977.1468717 -771.7495002 142.1928102)
(676.6111724 139.0326702 18.98068553)
(657.5179569 -87.63180517 -480.2542232)
(1551.674975 -456.8226262 -210.0829365)
(40.07930726 -584.9907679 426.8606602)
(-285.5285746 637.589908 882.4432762)
(824.7097509 287.0534405 -160.3610084)
(86.09488855 567.246135 -118.1905289)
(1246.322083 567.9218352 -541.6418459)
(58.60833108 107.7006088 -97.40842853)
(1385.803852 586.9520345 -788.533377)
(665.5978737 1150.606476 539.1585028)
(-641.3026875 -13.85571436 -176.2538961)
(-249.9167707 -363.3521484 60.07655674)
(1100.119183 126.9281061 327.0496898)
(-785.9844273 363.8083295 -223.5075968)
(891.7713159 -288.9810392 273.1773459)
(1660.275607 -75.73034848 -126.7242717)
(1249.760686 84.27728701 -140.0489167)
(684.787946 471.3543192 -308.8913828)
(752.327061 -51.76983764 -391.5287772)
(453.5770863 184.9340204 -935.2135859)
(1842.733927 778.5481604 -50.56634161)
(-48.59607271 1087.08325 -35.31429313)
(839.0925433 110.9360137 -689.2320789)
(593.9727328 486.1296051 -175.7034976)
(269.3457107 -76.18218001 1241.839768)
(250.7581279 -427.1110482 -121.3689452)
(1051.572959 876.0341194 778.7145004)
(1093.371401 -44.24181271 971.779913)
(1701.421439 -1.936762771 -191.5424127)
(438.3788043 -1.261488623 -642.1435368)
(-60.67632334 366.6950814 -223.3603116)
(1497.842579 1159.291968 361.3811061)
(154.730711 296.393812 663.6284527)
(403.1949588 871.7667695 300.4494349)
(658.4579828 1357.101919 1105.458141)
(1844.890346 -6.002269184 -96.90518959)
(-77.81499734 340.1242564 1119.323777)
(1250.75326 1117.081085 -224.1298717)
(2104.685433 -951.6224146 305.7324036)
(351.4669619 505.5566706 58.08902417)
(-182.5221191 -216.3578771 322.1577673)
(157.8929134 -236.3605836 369.5950309)
(-321.5742135 936.2117833 -452.6436771)
(710.5621871 221.1832537 87.2569702)
(272.6758136 1683.301172 239.5281493)
(1474.32344 -110.8018257 -148.2399908)
(631.7797239 544.509352 397.985254)
(311.5157748 265.5645372 351.8095266)
(2217.278296 -1.96203449 748.819586)
(605.4744348 706.2885503 -89.17171458)
(1276.294069 51.85085394 443.8845351)
(1582.705901 57.63558727 -772.1849269)
(926.3723781 578.5810484 83.48597303)
(1800.189164 378.2619398 263.7878977)
(1790.96541 -253.6371662 1.714440259)
(629.9254487 44.10435865 193.2716183)
(-543.7153324 78.82569726 929.1305533)
(1102.646915 1493.702 181.1326476)
(526.831731 -179.1161954 -212.7467472)
(781.9739196 131.0484104 -968.0474082)
(1196.438349 -991.9659826 -322.188053)
(920.4007079 770.6304539 172.8900707)
(369.5275884 207.296388 118.0270404)
(1178.409445 1031.752497 -66.01995729)
(641.1434403 357.6019309 -332.3624883)
(536.2991916 760.8366382 485.6291815)
(1372.171371 -324.3531099 -177.1313415)
(793.8751453 -156.4602336 -250.8390221)
(-442.2223653 848.4048983 -729.208225)
(993.6364273 136.1548136 423.9067346)
(1494.18552 -254.0213218 191.114306)
(747.9068359 893.5869778 197.834174)
(25.02834323 856.2702593 -283.0824178)
(386.2148734 399.3189763 -550.4935351)
(1220.954622 -132.1049311 -201.7731161)
(1749.692953 -262.1326581 -334.664562)
(1540.863984 -342.8869507 682.1460602)
(121.5916039 438.7835146 275.2376173)
(1336.377272 645.6696727 139.7858084)
(420.2243066 472.0411659 219.7540791)
(773.7656135 126.1451857 -52.32714859)
(755.9054837 1625.833398 1162.048288)
(1252.582376 254.4336539 -250.4424157)
(651.4142371 -766.2812189 -166.2469123)
(-114.2005661 485.6743643 137.6695178)
(300.4632769 -311.4520684 -814.3272597)
(1190.134406 -49.35075599 374.178915)
(95.4851633 209.0950646 -196.3002961)
(-797.1062934 1244.676774 431.1403862)
(1306.066334 291.7513282 -592.6337823)
(295.3791683 -279.5405608 -402.2754012)
(1092.394896 155.2393491 601.8515903)
(806.7624118 725.7161237 -416.9027552)
(1184.138701 -82.95192278 104.1827921)
(1299.377391 -495.336053 -204.6484745)
(123.4116337 1116.338809 385.3659557)
(918.7487365 -219.4691233 -1381.460345)
(12.74844171 38.72046493 1145.992722)
(793.4177991 396.0031244 -1131.04312)
(150.9386062 64.96616755 143.4178186)
(103.8026745 126.747624 -715.4291231)
(-268.628454 194.9536422 -189.8752745)
(956.140469 -405.1243612 -348.5144898)
(897.5601512 501.0125139 285.1965025)
(192.6972121 272.3989353 -392.5178822)
(881.326589 1159.623141 -214.1506406)
(-735.7964553 945.025137 -46.80533818)
(846.1668852 -104.341093 256.4300546)
(1816.109778 -1288.560703 554.9580178)
(689.50591 783.4499254 387.2173373)
(1640.402539 255.1648451 367.6181383)
(306.8405617 28.35995875 1472.148565)
(1773.520911 168.7304028 -147.4165465)
(955.8703884 1402.502928 370.888278)
(923.6952291 -186.1304991 -405.3597686)
(1188.211013 -498.9373947 -97.99225854)
(1652.4538 365.1690023 -658.3782002)
(1005.696651 254.5479402 1595.664419)
(972.0322941 1499.954616 -93.85122467)
(-102.1845055 808.7133945 -448.1950339)
(1421.500132 114.3182285 -183.9626744)
(117.0048676 -551.4236935 -545.23446)
(1167.382989 421.3436983 950.4461555)
(-1257.66661 -142.2225156 551.4961618)
(1384.02035 958.8849489 782.0196589)
(370.8428913 183.2719728 265.5656015)
(297.0029249 491.7072737 961.8746117)
(264.0754316 -456.5811214 67.89466639)
(195.6510684 111.4638903 -417.4455755)
(-564.0071834 495.820255 13.59117303)
(-465.3435178 106.6195314 1255.490296)
(951.621513 439.9516128 -122.7674816)
(33.20887336 8.145211984 -126.8713318)
(1360.584086 -349.7644426 -118.8647502)
(1386.119584 311.4085978 -187.6513343)
(1605.540087 271.7684963 -103.2058877)
(1493.819073 342.4982552 -130.5182537)
(1259.303358 268.5159701 117.9420537)
(1438.687306 108.2787949 48.56457285)
(-247.0627836 -22.45694411 476.3263299)
(363.5030498 722.5651847 -329.5292583)
(1652.114981 502.3997252 -1146.9299)
(643.3692285 -37.2550507 -172.2322457)
(554.2195642 -530.9165003 -772.3486629)
(1625.098492 328.0770117 -207.2038835)
(-47.35355043 63.16808755 137.8970619)
(3.969848404 311.1049992 -128.3396109)
(1531.751783 -465.9690483 111.0772265)
(971.0839837 711.2509666 324.974104)
(472.9840646 438.5542873 893.5979001)
(1192.807281 196.0912939 -69.94339088)
(1956.493638 -116.9146024 -187.2078394)
(1499.252507 -187.4376231 524.4221971)
(1115.754687 407.2316804 575.1511237)
(2226.586667 -214.7999735 -383.8200773)
(1432.513963 -9.754357896 139.4272271)
(1386.927209 133.1554036 623.6738166)
(1616.94808 65.35105483 574.8177887)
(1467.660402 -167.1574269 -189.9497636)
(1279.683988 60.5825716 510.2722136)
(1067.630226 -150.32468 -44.11298127)
(2059.087938 1013.272406 -672.1556854)
(-63.44221236 381.5195989 124.5808743)
(216.2421095 -117.2165416 806.8645228)
(1966.338713 -298.2285119 474.6670106)
(840.6294569 1182.155127 -708.2580787)
(1881.180773 1051.308334 -968.7534648)
(-60.37678816 206.0210607 -100.3567936)
(169.7350164 347.8076387 -6.266750079)
(1535.696595 386.7026953 -1077.966845)
(-256.5086811 -175.0061999 733.1473357)
(1266.554073 -154.2247716 614.9148501)
(1695.524717 -161.7297189 347.5099747)
(1427.545322 -193.6621053 571.5408625)
(137.4957185 79.16303076 -408.3866314)
(18.59913035 570.2034287 255.2471369)
(37.4907866 134.7862831 701.389318)
(-155.2662597 726.6835668 978.0851386)
(1609.201496 -54.57822292 177.0947513)
(1637.406736 225.7445391 107.0059492)
(1619.35942 -350.1623525 -266.0222431)
(1396.636044 -490.5762056 457.7942474)
(293.6610919 470.1707526 312.3601146)
(84.12908769 105.9206785 155.8150335)
(527.9299368 512.4502501 -42.46274798)
(1228.607122 621.4851366 -1019.504144)
(468.7033366 -2.513663692 37.21427084)
(1181.910209 858.4179859 80.36256036)
(663.6615624 407.9970261 -930.9359446)
(667.0678163 -202.6151896 -164.7795529)
(709.6601357 91.34823491 124.4785653)
(1102.352225 323.2978554 1658.431959)
(402.0975995 -507.0468619 1032.585893)
(1861.306582 584.1399722 -119.5539589)
(153.0064473 495.9733387 -966.9682118)
(2612.950945 -150.660841 398.6173558)
(1721.896126 -387.7679642 -577.2886722)
(711.4279607 -216.9651332 -376.991465)
(1493.566882 59.30027015 454.3449476)
(909.0473947 172.8587393 88.99353439)
(885.3024282 -78.55413159 -320.4167224)
(999.9527798 701.5847476 -735.176463)
(1626.892478 -790.9132326 411.8914448)
(1468.997591 101.0536419 -603.8236054)
(1913.030149 -266.6133719 184.7035217)
(1732.528749 178.8129768 -221.043493)
(1709.143889 -33.59140768 205.5839482)
(1334.695619 -210.0207066 -101.8285355)
(1385.686691 -177.9389766 -185.2500658)
(1217.850349 -973.4255283 175.0461591)
(303.5881552 534.5015344 220.678843)
(1434.158019 -12.81414061 -144.0790837)
(1298.472473 719.723952 878.4319057)
(-334.9012598 222.9780848 589.4775775)
(615.0315319 205.4215606 658.1403978)
(467.8297927 113.9235727 681.326414)
(471.769157 131.9267342 -254.9814185)
(-107.6925055 332.1064341 211.672399)
(746.1830836 940.6242839 238.7711063)
(1279.78769 63.42235915 40.47012777)
(713.5020424 372.166927 480.1528639)
(1092.910659 916.0254317 74.83394068)
(394.9666166 355.1992805 -1040.811557)
(1065.75275 1168.249479 154.2100897)
(635.5677799 82.26106293 866.7308201)
(515.6806483 165.7287167 731.6996476)
(165.6164832 806.3117907 -214.0956332)
(1443.689942 -201.4425348 -164.1852062)
(119.0904976 -396.2633829 -629.1343291)
(625.1045514 -246.4675824 -39.7379939)
(1419.864428 -133.9022966 63.37154584)
(1233.577346 103.4955725 62.68757055)
(914.3489572 485.2714366 -189.549936)
(1535.047211 261.8225284 248.4312061)
(1442.73897 -217.3027479 -333.8702706)
(1674.01281 -508.2496947 -620.4957875)
(1542.00119 -62.1597609 132.8545643)
(1663.025504 900.6746495 572.6083532)
(1565.355993 224.182912 -317.39376)
(496.678925 100.5935496 433.2202538)
(2530.015093 -165.3004821 310.7772942)
(659.0258039 1031.137853 -908.5624014)
(947.5765402 238.6525362 768.3850261)
(572.9297234 530.5019707 -165.4874005)
(895.4752442 925.4412015 -486.7386859)
(1189.922525 -437.9578291 -163.7969021)
(171.948765 720.6184464 -145.3832652)
(629.9445997 235.6130302 -365.9824924)
(528.1030366 395.1660985 420.91439)
(-272.7368575 343.025753 520.6175379)
(993.3416118 -403.9160479 -30.80674445)
(1687.681238 406.4155528 -72.91726478)
(610.9038575 154.7259018 667.0329935)
(-331.6503191 391.7243725 -104.2154173)
(1566.265474 -369.5444695 371.4779426)
(1694.381819 -132.6948414 59.67846397)
(414.0999143 698.1501997 646.6525032)
(1044.43928 -318.3063528 -22.41290901)
(1121.039727 -541.5180086 -274.2238013)
(1435.747004 711.1643177 -609.1886705)
(1287.115088 276.1858914 -142.5252073)
(1668.985633 502.9674377 -223.0422943)
(1473.842763 -245.7229755 -20.54454639)
(1246.712386 255.2888698 148.6849058)
(1568.937464 707.2335442 964.5093303)
(1303.833979 -41.62752156 398.505605)
(1119.30181 348.3499451 29.09382389)
(1074.28426 155.4150283 20.33564702)
(1371.195683 -457.788155 723.0099466)
(1610.710318 353.6841827 -109.2066137)
(564.8426725 -394.9929634 258.2310641)
(616.4554131 -133.0479954 43.14303184)
(-533.1229912 185.1354635 -439.302792)
(561.0972172 -195.564503 -348.026406)
(1453.697757 192.4935007 -717.2223927)
(140.3709374 649.3925677 1013.059791)
(206.0994828 -139.0296673 263.7998525)
(1062.481398 1684.856824 -244.9702852)
(1137.35209 1366.975908 246.6030266)
(602.8129763 -196.0631681 -539.1602668)
(671.6254156 778.0065758 409.0273894)
(615.1270246 782.5991593 -478.4174532)
(1254.892839 65.66611505 66.88304309)
(-85.15307432 -438.5314073 83.79637814)
(1192.074073 256.4737939 -396.242828)
(984.0097231 466.5597968 710.9825791)
(997.1023485 632.6318505 -1302.500281)
(277.5887346 127.2794204 119.0167551)
(-142.5179959 626.9308794 410.4830102)
(259.2715432 627.8448145 299.8656934)
(2261.998785 979.3055927 732.9790678)
(1191.29609 -273.2713888 1005.213531)
(1795.767919 -112.8547239 -81.60279595)
(1158.041444 -156.9895746 -16.48463075)
(1622.128919 -78.36742922 112.3851631)
(1580.49286 470.2940533 275.9341052)
(1568.353456 -337.4435776 -60.85570853)
(1256.820926 104.5832541 95.03996377)
(1153.192513 248.9489173 -271.645163)
(223.3518359 1468.927262 -504.5173045)
(586.7920532 243.1974126 -84.13394497)
(-208.2977365 2.295351409 -77.47847415)
(-394.7213491 304.4182851 -334.8233329)
(984.250592 58.82137936 -353.3106169)
(1546.313706 -197.0113723 -697.2165994)
(812.3884245 1013.600023 -101.5733795)
(637.3507901 -196.5722247 197.596376)
(-106.0460968 -453.3375044 -312.7100511)
(1366.810952 1171.994088 -1011.868097)
(565.3364445 218.5472062 -46.62404598)
(2068.06302 -300.3841158 -332.5536803)
(1640.040486 1131.323776 -53.85711563)
(306.7931118 1146.777867 522.7700398)
(1697.553934 -76.47763989 75.99505063)
(505.8964173 36.25087735 1254.006986)
(1337.660624 273.0121889 -88.44631057)
(1562.435845 391.8005222 -349.6339811)
(694.0036938 940.526819 157.6146222)
(1062.645921 607.0515731 72.89859544)
(1683.75897 -201.3141415 232.7978864)
(2170.600046 949.6961356 -273.9256087)
(1451.887663 907.04751 -35.13155822)
(1036.684523 73.09932134 684.82775)
(1558.62292 115.555193 -441.6137466)
(1234.263018 -313.9866391 -102.9668002)
(1506.867297 -41.30468551 -496.7719202)
(1315.613507 -158.1919211 451.9030728)
(1456.818994 -121.9688909 49.31350455)
(1574.601855 280.1534273 -12.84391285)
(1103.491927 908.9330077 -817.6798374)
(2179.260667 -489.5717479 274.8997556)
(1423.467583 103.1815222 -492.2175611)
(1700.95182 -134.8265375 362.4370467)
(1377.680815 -501.1475239 -0.1385086152)
(1777.374102 490.5449383 155.3869544)
(763.0969103 813.3048946 -32.25264188)
(1362.169567 -434.8702004 -399.3220665)
(466.3191561 424.9377693 -569.6016819)
(448.1370269 -509.1188841 315.4862723)
(-133.7936853 526.8122923 87.13182667)
(158.3493451 158.1749335 661.9592832)
(1383.012093 421.4814592 177.8264352)
(198.9633491 19.0335049 155.9483174)
(879.6402319 -238.8258801 -211.4103514)
(1505.308269 145.4709776 167.4191952)
(264.8337229 541.2799565 -113.7900952)
(1962.903288 223.3638495 -805.5856356)
(74.23362464 390.8857318 -10.95129273)
(137.4011845 374.5309526 135.7133965)
(1965.723266 917.1436663 559.7645043)
(765.5138608 488.1512708 0.466607184)
(1407.78304 485.4568741 -564.1691132)
(1832.372661 211.1746294 3.725422136)
(1067.369484 339.7475611 -37.76505314)
(1578.766626 -318.9162609 -233.3583377)
(613.4693958 -212.9342064 464.4239892)
(1132.430235 94.00797062 901.2075923)
(1618.666749 -363.154736 167.5547853)
(1059.420329 188.4134832 -529.8114595)
(1578.088351 -74.15532715 210.3342381)
(1829.540521 -104.4374426 -497.9028307)
(1080.196418 18.71713839 169.2609621)
(1639.754494 -281.6957343 197.379548)
(1676.688998 364.4185616 215.6862177)
(1872.855596 -337.3819667 -488.621456)
(1577.601492 328.5459343 -163.5124709)
(847.4666529 598.0876628 455.7215318)
(758.7364156 279.0364288 263.255664)
(784.7471873 1038.72908 -406.214802)
(-118.5702227 376.9912849 -106.5283783)
(184.730163 127.0484186 430.435761)
(1009.290484 268.7450209 -347.8669736)
(740.1380048 196.7034568 -432.9714401)
(1891.222979 144.9857487 -224.6559959)
(693.6603944 950.1140249 -556.7717194)
(-175.0332067 602.0354282 -308.2232163)
(1426.316684 -42.18589844 897.2907727)
(1416.724467 -33.08169015 46.41386976)
(1059.246372 -92.92335934 293.349628)
(662.8782933 79.1881942 -653.1758829)
(830.4516197 745.9928982 587.490927)
(624.7006073 262.2610441 177.2688142)
(531.7377111 690.3693105 -94.99591088)
(1249.87028 40.39947185 1182.401048)
(1834.092914 316.5043328 137.983468)
(751.9943985 122.1140085 -886.9567536)
(1428.887137 92.5962484 77.52633058)
(1569.073341 -9.85322249 -164.9020924)
(1687.199062 228.1582298 82.28456404)
(1499.855991 302.4730504 -165.5139892)
(1392.274064 256.1009826 -5.531404829)
(1676.189294 14.16873827 12.51037303)
(1542.541534 -462.6738984 438.7285385)
(1496.380464 833.3723915 -527.7375586)
(535.7830809 1361.831625 -146.2375146)
(1663.476941 222.8605707 -202.8771161)
(1590.29512 209.0005963 -15.62758584)
(1277.958067 274.7423341 389.7159612)
(1589.43419 339.7270407 -386.0690043)
(1334.416475 -36.6764514 -249.9337292)
(1734.13508 -395.4375312 -33.09473914)
(1521.956275 -657.1591322 -417.6060564)
(1940.177735 -77.60405469 13.69619563)
(2276.159523 -162.1788919 -170.9974669)
(1748.27906 -139.9899862 217.7625479)
(1603.10318 -292.717433 306.3078898)
(1109.124172 -260.4973387 -329.4161343)
(985.0479115 336.6811278 -221.7604906)
(1870.762576 236.1725206 -179.1159705)
(1662.355298 -444.5254143 -772.6929243)
(1649.629587 299.5380638 80.81698707)
(-114.531778 441.8922323 35.0869969)
(403.8788858 799.7542314 58.54154213)
(107.3247331 714.7969724 973.9212716)
(158.9740349 -390.7170564 920.5276426)
(-120.9375816 292.9186027 -351.1470776)
(31.03638474 177.2396659 -156.6563817)
(1682.011451 155.3389892 466.4756816)
(1998.800565 -166.8209261 316.7596489)
(1013.678744 1298.589481 -976.7515627)
(1666.333329 -514.7789147 -310.8109527)
(176.6575233 1478.804551 -557.721844)
(1882.127013 504.9396376 -129.0111083)
(1171.033336 318.3385119 102.8694704)
(2181.300809 994.6027339 291.6502347)
(1352.627078 -284.2541103 84.77099387)
(1884.481261 -613.3641662 80.96492943)
(1320.449556 558.1499231 -253.5687471)
(1444.588716 -119.5219139 -146.7740628)
(1958.437857 613.2319541 71.20930265)
(2251.147989 580.1556472 659.7207941)
(1496.782765 345.7332059 -248.0917237)
(1669.905656 22.40843924 -755.8610545)
(862.8441195 297.1923491 38.42859732)
(1344.979268 249.627801 301.176811)
(1453.755234 -336.8872006 -223.1736809)
(1502.726235 -74.37735378 -245.9286036)
(1536.492061 -183.3979992 73.94915781)
(1723.35332 46.73740619 62.9287417)
(1498.067095 164.3309968 785.9780676)
(1468.178745 192.1854415 -138.8913641)
(1589.789436 263.6516899 -58.53197725)
(1242.874202 13.4070933 1.326233748)
(1197.372768 27.69669059 210.1344336)
(1748.851742 388.3695247 142.0581301)
(2399.194538 154.6172576 -324.3844936)
(1535.323947 -62.21804088 228.2015826)
(-337.6963038 579.2629005 -961.5615264)
(739.828787 468.875371 693.9779831)
(1615.68014 552.6844868 235.2022325)
(1058.955219 863.3518847 -356.5775958)
(933.991376 -224.0707789 -180.1806326)
(1546.235041 327.9588999 539.7235698)
(1272.024572 177.9724221 813.2553492)
(1398.222528 494.5521545 -66.62023805)
(1084.640553 993.1317797 60.29074178)
(603.4137047 227.1206309 81.73393532)
(1017.552157 180.8765173 229.2072498)
(973.6337503 85.75234644 221.5317861)
(1345.405272 220.8564158 -66.84128925)
(124.7778699 -27.91656098 203.0486255)
(332.7490632 -308.9751331 -909.1550702)
(1597.167581 34.26514696 -77.57306517)
(1329.183875 -46.14795722 -104.5481528)
(807.8562698 705.9019974 717.1812784)
(587.7479722 716.0559175 -165.8938318)
(770.9151253 -140.0924748 346.8578875)
(2112.264531 444.2993801 542.4273304)
(841.3818152 -164.658373 429.5784104)
(190.8035854 3.029567617 332.5793341)
(1494.667445 -112.5237611 -99.84602812)
(1328.913392 -1011.601493 176.9922061)
(1453.096863 -188.7982791 66.69514933)
(1707.862283 -158.2937958 89.81203081)
(2365.113471 39.73882769 -521.8603399)
(697.8245335 271.2977184 976.4314117)
(1765.436194 305.5688355 5.077804664)
(808.6514567 907.8546089 502.1050444)
(1749.404607 -410.4608263 188.2011116)
(628.7445744 597.5438789 -200.6338558)
(913.2197797 -28.87064911 -237.2873115)
(583.3155534 720.3413159 -311.9565364)
(1529.368961 -124.7684772 330.3393721)
(1427.877667 -486.5371077 139.3465307)
(1819.026816 -203.0046912 -412.088862)
(2153.346175 -242.0085109 -457.9021155)
(2166.203693 243.8492269 -67.21701246)
(1595.278618 -780.2727222 -310.0972105)
(1456.922084 -144.5579878 -379.3368905)
(1965.372304 304.862035 -76.51648702)
(1844.310273 -88.7891433 539.6845339)
(1804.515804 -182.8618494 187.0748204)
(1191.450714 -281.4027368 481.3724052)
(1282.785277 -448.73027 -302.6198263)
(1747.496949 -349.7760924 -284.189402)
(426.1048442 -59.0181804 -699.815228)
(937.4094666 463.2491303 829.3083448)
(1287.59501 412.0704021 -251.3391817)
(207.5932404 241.4215094 82.53062108)
(654.7262485 -34.70039396 -1294.073734)
(1599.043625 419.7031621 -30.1124085)
(1726.899244 1095.438511 -660.3277992)
(885.5753093 343.2467012 1142.76145)
(183.3726748 -67.85286035 800.5335383)
(308.5435164 145.5069885 766.2823142)
(1639.942448 -282.02854 298.9151372)
(1313.768087 188.4260029 -506.6352916)
(1525.118628 226.7213689 61.95039186)
(2158.235246 453.3817735 813.660318)
(1848.176842 299.4052214 -52.20889517)
(1642.33185 432.022847 369.1642972)
(212.0080263 4.68182265 -220.983488)
(1448.142462 -19.87415092 -208.7300052)
(1612.469139 189.4770325 528.4225172)
(719.4355455 -538.9787221 159.549113)
(-363.6591065 -61.29753765 -721.3103538)
(1114.953569 -91.70879488 521.602366)
(780.0332771 780.7902552 206.5555685)
(1208.85622 949.0453014 523.0022989)
(1610.583564 -100.9985791 671.3094534)
(1684.086485 -455.3517085 494.6311932)
(884.3074453 402.666588 336.2551812)
(368.8716536 -16.92384393 -495.8257764)
(1538.094234 109.6312254 5.860939391)
(1720.401368 44.72491831 -253.9030185)
(1640.228788 174.4678067 217.642128)
(2046.324749 214.554468 677.3290314)
(1622.946766 -471.1174339 162.0778774)
(770.6895639 343.8257955 -1469.975852)
(1255.049505 -295.7320899 -82.72162174)
(1614.444576 397.168307 -418.5714806)
(2109.407548 305.975871 -156.0916796)
(2214.963961 439.2727945 -479.3318366)
(1393.868577 104.7664152 200.0357193)
(1451.413427 -158.8659297 -204.9347402)
(1590.498514 -14.88550015 61.46506259)
(1503.815308 -332.7569124 -600.8322404)
(1292.465936 -359.4371194 -137.8169186)
(1575.182783 326.6814479 160.8161102)
(1484.711033 -226.2864481 -68.98019681)
(1490.661658 158.4519123 456.3848109)
(1340.55874 124.4143464 -59.66522375)
(1697.959489 -185.392079 276.038706)
(1593.983107 -227.2310538 -561.6597619)
(1723.279405 790.7598729 -132.8286688)
(1965.26159 -354.4133083 -247.9503906)
(1905.023102 -796.9754136 -16.97235117)
(1067.335345 1719.291984 945.1856038)
(272.3591902 320.2532451 761.9268666)
(550.2022516 435.9618731 -198.9180974)
(842.9005349 -54.20372557 -71.14310679)
(1570.205588 69.05807061 84.7873997)
(-130.5726171 810.9216245 -238.2435224)
(-367.8470627 418.9274325 -383.1841729)
(-782.4760545 619.7266851 -94.38933066)
(1214.010998 686.6138767 -280.5339611)
(840.0129461 35.89764824 300.3576369)
(1093.923093 -123.172933 759.9094081)
(1842.434265 74.97325172 -285.3828289)
(1756.831136 154.1425561 -120.9199435)
(-11.63573314 886.6593229 -895.8718386)
(783.0073622 499.6440626 -225.6252994)
(739.7953079 226.632131 -236.859724)
(-508.9153763 180.2776616 481.0157275)
(798.2364733 -1298.493115 53.19348325)
(860.5175049 215.5507785 -659.5278987)
(1532.374269 362.3832983 -901.2359395)
(1032.56531 -293.3308296 -611.4875744)
(1736.232985 479.1546567 -507.6989687)