/*--------------------------------*- C++ -*----------------------------------*\
| =========                 |                                                 |
| \\      /  F ield         | OpenFOAM: The Open Source CFD Toolbox           |
|  \\    /   O peration     | Version:  2406                                  |
|   \\  /    A nd           | Website:  www.openfoam.com                      |
|    \\/     M anipulation  |                                                 |
\*---------------------------------------------------------------------------*/
FoamFile
{
    version     2.0;
    format      ascii;
    arch        "LSB;label=32;scalar=64";
    class       volScalarField;
    location    "0.008";
    object      dsmcRhoNMean;
}
// * * * * * * * * * * * * * * * * * * * * * * * * * * * * * * * * * * * * * //

dimensions      [0 -3 0 0 0 0 0];

internalField   nonuniform List<scalar> 
546
(
27.148
27.14475
26.64275
26.49825
25.9915
25.678
25.8245
25.72
25.58625
25.108
24.6725
24.69075
24.04925
24.22725
24.00425
23.3625
22.364
22.7895
22.6255
22.1145
21.698
21.77
21.25625
20.83175
19.87425
19.26975
18.28625
17.4325
16.02025
13.07425
24.5355
24.26425
23.815
23.7935
23.484
23.6965
23.36625
23.21225
22.7265
22.471
22.3045
22.41475
22.24575
22.1695
21.82625
21.5355
20.96275
21.09475
20.694
20.38675
20.1245
19.714
19.45375
19.0025
18.3605
18.04725
17.11
16.02625
14.44675
11.99675
22.9405
23.096
22.9005
22.58575
22.218
22.095
21.94975
21.76475
21.8845
21.43175
21.26875
21.42275
21.1
20.88175
20.721
20.01425
20.17775
20.02575
19.50775
19.39475
18.74525
18.586
18.873
17.9395
17.252
16.8235
16.321
15.32675
13.97375
12.13975
21.5525
21.61275
22.02475
21.8615
21.90525
21.70925
21.59225
21.34575
21.25175
21.01525
20.816
20.53875
20.458
20.3175
19.956
19.537
19.382
19.286
19.06925
18.8335
18.4165
18.17375
17.91525
17.4875
17.025
16.54225
15.921
14.75525
14.05025
12.82075
20.03525
20.2855
20.89125
21.20125
21.418
21.18575
21.00775
20.881
20.98925
20.70025
20.4605
20.43875
20.30425
20.02475
19.78425
19.50575
18.9925
18.96725
18.79525
18.4595
18.1775
17.72675
17.423
17.10075
16.6095
16.25575
15.99025
14.85725
13.97125
12.826
18.72725
19.2915
19.84025
20.1505
20.393
20.414
20.5235
20.62125
20.57125
20.5275
20.54425
20.2275
19.973
19.94075
19.614
19.513
19.0635
19.084
18.82225
18.563
18.0745
17.5815
17.31425
17.2695
16.73575
16.1975
15.6535
15.08775
14.3825
13.0995
17.0645
17.9005
18.3865
18.90375
19.5475
19.95275
20.017
20.1895
20.108
20.26175
20.26175
20.32775
20.16275
20.0135
19.718
19.33875
19.25925
19.1335
18.83325
18.46375
18.14325
17.8155
17.476
17.14675
16.95975
16.311
15.793
15.311
14.50275
13.56725
15.2925
16.203
16.95675
17.781
18.228
18.745
19.282
19.601
19.63325
19.767
20.00625
20.11075
19.81475
19.791
19.74725
19.65575
19.439
19.10525
18.87625
18.74625
18.50925
17.90125
17.71575
17.278
16.98275
16.57325
16.17125
15.45875
14.88925
14.145
13.91475
14.6215
15.453
16.14575
16.91625
17.477
18.07225
18.4505
18.87825
19.0365
19.22325
19.60525
19.716
19.629
19.61175
19.6265
19.49575
19.2325
18.97825
18.8225
18.5075
18.282
17.82225
17.5085
17.10625
16.9245
16.29075
15.68525
15.1135
14.40275
12.5625
13.09775
13.78825
14.54575
15.3185
16.03725
16.78275
17.298
17.80375
18.3455
18.6485
19.09475
19.14775
19.3075
19.3415
19.28175
19.2425
19.27925
18.94325
18.79825
18.6995
18.4185
18.0465
17.48425
17.3385
17.00875
16.57525
16.08925
15.38125
14.63325
11.81425
12.32375
12.845
13.5165
14.06675
14.73875
15.47175
16.221
16.82325
17.494
17.913
18.14625
18.54925
18.8705
18.922
18.92975
19.02525
19.1525
18.94675
18.745
18.698
18.52625
18.22675
17.97
17.316
17.05575
16.6905
16.405
15.944
15.158
11.04025
11.50625
11.875
12.40825
13.0105
13.50875
14.2305
14.8615
15.606
16.195
16.799
17.2635
17.77025
18.25825
18.457
18.645
18.68675
18.85475
18.92225
18.785
18.59675
18.583
18.2775
18.01075
17.6975
17.33
16.978
16.42125
16.16625
15.79675
10.4515
10.73075
11.1555
11.4805
11.934
12.4875
13.00925
13.5405
14.085
14.6395
15.2665
16.14825
16.8075
17.32825
17.7885
18.04225
18.24425
18.487
18.62275
18.6875
18.5395
18.58475
18.3905
18.27675
17.98925
17.66225
17.29675
16.94675
16.46475
15.96175
9.91475
10.12975
10.3375
10.8015
11.15225
11.55125
11.93625
12.4285
13.02125
13.7445
14.436
14.87825
15.4365
16.12375
16.70975
17.20275
17.65875
18.019
18.206
18.37675
18.36725
18.27475
18.56925
18.459
18.12075
17.79125
17.73875
17.31625
16.83075
16.234
9.7605
9.91875
10.06675
10.1145
10.42775
10.76175
11.11375
11.5375
12.06975
12.56625
13.124
13.63175
14.35225
15.02225
15.63525
16.348
16.79475
17.151
17.57575
17.9825
18.20375
18.4225
18.4255
18.29225
18.3025
18.079
17.8855
17.5795
17.17725
16.67775
9.44425
9.4235
9.62625
9.67475
9.87075
10.136
10.51275
10.888
11.27875
11.6755
12.20975
12.8165
13.21975
13.81275
14.4755
15.0045
15.6075
16.14175
16.5515
17.07525
17.4025
17.585
17.77575
17.99725
18.0665
17.96075
17.84925
17.609
17.29075
9.3825
9.3795
9.41425
9.60875
9.69675
9.8635
10.07375
10.3115
10.53525
10.8915
11.26025
11.62375
12.032
12.4895
13.05475
13.73825
14.476
15.1545
15.847
16.0745
16.595
17.20025
17.404
17.66075
17.5565
9.22525
9.28875
9.38
9.36025
9.42775
9.4805
9.561
9.66375
9.90325
10.168
10.42125
10.832
11.3165
11.83625
12.3105
12.794
13.29
13.926
14.47325
9.197
9.1895
9.18525
9.2245
9.25175
9.30425
9.41525
9.50575
9.67375
9.7625
10.10175
10.31925
10.598
10.93075
9.10875
9.102
9.08575
9.08675
9.16175
9.1125
9.13925
9.24475
9.02525
)
;

boundaryField
{
    flow
    {
        type            calculated;
        value           nonuniform List<scalar> 
15
(
13.07425
11.99675
12.13975
12.82075
12.826
13.0995
13.56725
14.145
14.40275
14.63325
15.158
15.79675
15.96175
16.234
16.67775
)
;
    }
    obstacle
    {
        type            calculated;
        value           nonuniform List<scalar> 
30
(
27.148
27.14475
26.64275
26.49825
25.9915
25.678
25.8245
25.72
25.58625
25.108
24.6725
24.69075
24.04925
24.22725
24.00425
23.3625
22.364
22.7895
22.6255
22.1145
21.698
21.77
21.25625
20.83175
19.87425
19.26975
18.28625
17.4325
16.02025
13.07425
)
;
    }
    frontAndBack
    {
        type            empty;
    }
    procBoundary1to0
    {
        type            processor;
        value           nonuniform List<scalar> 
21
(
27.61925
24.58875
22.98325
21.296
19.6745
17.778
16.27175
14.5655
13.15075
11.94825
11.3285
10.6875
10.2685
9.85875
9.619
9.4695
9.35275
9.205
9.215
9.09175
9.1255
)
;
    }
    procBoundary1to3
    {
        type            processor;
        value           nonuniform List<scalar> 
36
(
16.9495
17.60625
17.75875
17.5575
16.9495
17.3825
15.11675
15.64
16.14975
16.60225
17.0505
17.60625
17.42425
11.379
11.91375
12.35825
12.887
15.11675
13.45775
9.32225
9.41875
9.492
9.7345
9.937
11.379
10.25325
8.998
8.953
8.8855
8.89825
8.99475
9.0195
9.32225
9.0665
8.998
9.10125
)
;
    }
}


// ************************************************************************* //
