/*--------------------------------*- C++ -*----------------------------------*\
| =========                 |                                                 |
| \\      /  F ield         | OpenFOAM: The Open Source CFD Toolbox           |
|  \\    /   O peration     | Version:  2406                                  |
|   \\  /    A nd           | Website:  www.openfoam.com                      |
|    \\/     M anipulation  |                                                 |
\*---------------------------------------------------------------------------*/
FoamFile
{
    version     2.0;
    format      ascii;
    arch        "LSB;label=32;scalar=64";
    class       volVectorField;
    location    "0.008";
    object      fD;
}
// * * * * * * * * * * * * * * * * * * * * * * * * * * * * * * * * * * * * * //

dimensions      [1 -1 -2 0 0 0 0];

internalField   uniform (0 0 0);

boundaryField
{
    flow
    {
        type            zeroGradient;
    }
    obstacle
    {
        type            calculated;
        value           nonuniform List<vector> 
30
(
(4.36467591 -3.434764128 -1.75162383)
(-0.8322663953 -1.377350861 0.9871097833)
(0.49301061 -1.477386942 0.595313364)
(2.577043013 -1.025159926 0.3089593317)
(0 0 0)
(0.7692462529 -1.999198753 0.01371773614)
(4.243063625 -5.673141123 -2.884814817)
(1.811401456 -2.537422137 -1.968927148)
(1.171407575 -2.189019455 -0.8482696002)
(6.018528838 -5.392649628 2.565131705)
(0 0 0)
(4.770908969 -8.064423234 -3.491629071)
(0 0 0)
(0 0 0)
(1.446977219 -2.562532674 -0.2284745787)
(1.630673137 -2.110379462 -0.702519974)
(0 0 0)
(0.01373169745 -1.590450856 -0.5583096952)
(1.69213646 -4.597038561 -0.1556484799)
(3.807370769 -4.463690931 1.083474344)
(0 0 0)
(-0.4270314507 -4.295384744 -1.39509512)
(1.008775968 -2.030993842 0.7951398549)
(3.577048803 -1.561973497 0.9709655282)
(0.6593792666 -1.827553373 -1.286160815)
(7.140716444 -4.190215099 -0.5411586588)
(3.512608957 -3.333512061 0.5276939177)
(2.818996942 -2.733507498 0.6649442037)
(2.291460144 -1.385068533 -0.3521723655)
(2.919505037 -3.696472356 -0.3466290612)
)
;
    }
    frontAndBack
    {
        type            empty;
    }
    procBoundary1to0
    {
        type            processor;
        value           uniform (0 0 0);
    }
    procBoundary1to3
    {
        type            processor;
        value           uniform (0 0 0);
    }
}


// ************************************************************************* //
