/*--------------------------------*- C++ -*----------------------------------*\
| =========                 |                                                 |
| \\      /  F ield         | OpenFOAM: The Open Source CFD Toolbox           |
|  \\    /   O peration     | Version:  2406                                  |
|   \\  /    A nd           | Website:  www.openfoam.com                      |
|    \\/     M anipulation  |                                                 |
\*---------------------------------------------------------------------------*/
FoamFile
{
    version     2.0;
    format      ascii;
    arch        "LSB;label=32;scalar=64";
    class       volVectorField;
    location    "0.008";
    object      fDMean;
}
// * * * * * * * * * * * * * * * * * * * * * * * * * * * * * * * * * * * * * //

dimensions      [1 -1 -2 0 0 0 0];

internalField   uniform (0 0 0);

boundaryField
{
    flow
    {
        type            calculated;
        value           uniform (0 0 0);
    }
    obstacle
    {
        type            calculated;
        value           nonuniform List<vector> 
30
(
(2.360281457 -2.72866909 0.0009342457076)
(2.376859098 -2.768320782 0.008032734301)
(2.234905064 -2.695319456 -0.01400764011)
(2.17917181 -2.686992278 0.00862490464)
(2.087470929 -2.640147344 0.005351172815)
(2.088671556 -2.622749831 0.01134951285)
(2.026329528 -2.652691275 -0.004996376761)
(2.035793004 -2.714433841 0.01446516797)
(1.96282551 -2.645972553 -0.002670728635)
(1.901009477 -2.600523423 0.04131184108)
(1.838258817 -2.561673314 -0.01119995952)
(1.905583295 -2.60039374 -0.05037789533)
(1.849656276 -2.587008876 -0.03822086698)
(1.814121462 -2.612731855 0.002469889586)
(1.860098501 -2.631365101 -0.03482597167)
(1.783375467 -2.535362734 -0.003377457911)
(1.706797124 -2.481328479 -0.03463735107)
(1.651784595 -2.460002649 0.03169238644)
(1.693886686 -2.510314594 -0.0100368581)
(1.681221139 -2.453179442 -0.009900797655)
(1.662780628 -2.453541355 0.01720896326)
(1.585054632 -2.423962801 0.02256202964)
(1.599966111 -2.38635866 -0.02297395524)
(1.62458968 -2.428990106 0.01054324001)
(1.612207103 -2.337232951 -0.005950471668)
(1.537446666 -2.227590072 0.005087626604)
(1.558549053 -2.151973015 0.01659801741)
(1.528672722 -1.998926624 0.008775926958)
(1.496613221 -1.869810057 -0.02158805011)
(1.507060106 -1.654213868 0.01339665137)
)
;
    }
    frontAndBack
    {
        type            empty;
    }
    procBoundary1to0
    {
        type            processor;
        value           uniform (0 0 0);
    }
    procBoundary1to3
    {
        type            processor;
        value           uniform (0 0 0);
    }
}


// ************************************************************************* //
