/*--------------------------------*- C++ -*----------------------------------*\
| =========                 |                                                 |
| \\      /  F ield         | OpenFOAM: The Open Source CFD Toolbox           |
|  \\    /   O peration     | Version:  2406                                  |
|   \\  /    A nd           | Website:  www.openfoam.com                      |
|    \\/     M anipulation  |                                                 |
\*---------------------------------------------------------------------------*/
FoamFile
{
    version     2.0;
    format      ascii;
    arch        "LSB;label=32;scalar=64";
    class       volScalarField;
    location    "0.008";
    object      iDof;
}
// * * * * * * * * * * * * * * * * * * * * * * * * * * * * * * * * * * * * * //

dimensions      [0 -3 0 0 0 0 0];

internalField   nonuniform List<scalar> 
546
(
6.05715357e+20
6.553869548e+20
5.919592285e+20
5.275807836e+20
4.391185792e+20
5.356090301e+20
8.21306167e+20
5.438853857e+20
5.24288912e+20
6.725131693e+20
7.9887387e+20
4.148220967e+20
6.887272748e+20
5.95120393e+20
6.249804699e+20
5.545119881e+20
5.845307595e+20
5.381706989e+20
5.944019944e+20
6.515909791e+20
7.097623308e+20
6.893958983e+20
4.546979843e+20
5.936202624e+20
4.083409901e+20
4.669395717e+20
4.711679042e+20
4.754735152e+20
6.77447355e+20
4.27345769e+20
6.505831617e+20
5.197896538e+20
3.187472769e+20
6.193339633e+20
3.928955708e+20
5.588963796e+20
7.27442605e+20
5.20238195e+20
5.004575978e+20
6.004581864e+20
5.809991782e+20
5.124272959e+20
5.65740261e+20
7.934938566e+20
4.749851568e+20
5.293068977e+20
5.082876169e+20
4.100348178e+20
5.42714864e+20
4.17018227e+20
5.783248626e+20
4.242436301e+20
4.546979847e+20
5.39654784e+20
3.538955248e+20
2.746703365e+20
3.048733501e+20
4.754735156e+20
3.951776238e+20
3.703663331e+20
5.159797486e+20
5.197896538e+20
5.236562406e+20
6.652105532e+20
6.933451255e+20
5.821837284e+20
3.51988357e+20
4.729438136e+20
5.004575982e+20
4.323298946e+20
3.873327852e+20
6.100324952e+20
7.379220795e+20
6.943071246e+20
5.749820323e+20
6.553323496e+20
4.320444744e+20
4.100348178e+20
3.876534746e+20
5.734000621e+20
3.680249119e+20
5.833349909e+20
4.814449249e+20
5.936202624e+20
5.444546535e+20
3.296044035e+20
5.820309405e+20
5.593806061e+20
3.951776238e+20
2.848971796e+20
3.589424338e+20
5.197896534e+20
6.374945537e+20
4.817041941e+20
5.315645958e+20
4.424596336e+20
8.21306167e+20
5.91179767e+20
4.766262837e+20
5.04384877e+20
3.147078882e+20
5.124272955e+20
5.411428583e+20
5.95120393e+20
5.499828135e+20
7.56152711e+20
6.099451403e+20
5.637978745e+20
3.876534743e+20
3.648909486e+20
3.943124063e+20
4.50758857e+20
4.27951044e+20
5.936202619e+20
4.900091882e+20
3.570714372e+20
2.494418319e+20
3.635973946e+20
3.104967047e+20
3.133868964e+20
4.486780422e+20
4.51991003e+20
5.008885776e+20
4.817041934e+20
4.391185792e+20
3.725975864e+20
4.927837002e+20
3.310606695e+20
4.766262837e+20
6.244765139e+20
5.083742809e+20
4.392233969e+20
4.673506507e+20
6.44713759e+20
6.249804699e+20
7.56152711e+20
6.861882834e+20
3.3315329e+20
5.427148645e+20
6.515909791e+20
6.046123553e+20
5.833349904e+20
5.081918648e+20
4.04741088e+20
4.083409909e+20
4.394725373e+20
4.988836615e+20
3.915664257e+20
1.975888121e+20
2.848971801e+20
4.71111945e+20
3.615928029e+20
4.098179277e+20
4.587658991e+20
4.160070753e+20
8.383445695e+20
5.631813716e+20
3.783550509e+20
4.766262837e+20
3.122382569e+20
5.809991778e+20
6.588350943e+20
4.919480526e+20
5.20730343e+20
6.499796882e+20
4.78896717e+20
5.082876169e+20
5.381706984e+20
6.719326893e+20
4.430818666e+20
5.257498751e+20
3.977284039e+20
4.279510466e+20
5.126720448e+20
2.450045924e+20
4.120055044e+20
4.157363883e+20
5.593806071e+20
4.516315688e+20
3.988560485e+20
3.140746296e+20
4.293914528e+20
5.008885776e+20
3.670127188e+20
4.391185792e+20
4.65746983e+20
5.397154812e+20
4.965910043e+20
5.004575978e+20
3.122382572e+20
6.052074778e+20
3.904207972e+20
4.181558454e+20
6.19917076e+20
6.249804694e+20
5.293068973e+20
6.60773902e+20
6.406794029e+20
5.944019964e+20
5.47336427e+20
7.097623362e+20
5.303045403e+20
3.744571645e+20
4.317238302e+20
3.811182621e+20
4.394725419e+20
4.434521475e+20
4.475044857e+20
3.951776263e+20
3.13386901e+20
3.589424338e+20
3.615928026e+20
3.415149397e+20
4.587658991e+20
4.16007075e+20
4.657469827e+20
5.397154812e+20
5.91179767e+20
5.004575982e+20
4.56348222e+20
4.115410842e+20
4.148220964e+20
4.91948053e+20
5.207303438e+20
5.999812526e+20
5.797170799e+20
3.303869505e+20
4.100348158e+20
3.876534727e+20
5.473364207e+20
3.417374159e+20
5.833349845e+20
7.489143226e+20
4.317238265e+20
4.355637205e+20
5.768077011e+20
4.157363809e+20
6.712567226e+20
3.104967035e+20
4.273457662e+20
2.692068255e+20
2.937941522e+20
2.276766262e+20
4.587658988e+20
4.160070753e+20
3.725975864e+20
4.223860287e+20
5.20238195e+20
3.813010269e+20
6.244765139e+20
4.841659807e+20
4.14822097e+20
4.673506511e+20
2.479668308e+20
4.749851575e+20
6.049221649e+20
6.099451393e+20
6.40679405e+20
4.651841692e+20
6.77654616e+20
5.257498751e+20
3.181827242e+20
6.151796274e+20
5.396547831e+20
5.172319181e+20
4.944066053e+20
3.603048699e+20
3.91566425e+20
6.492203801e+20
1.994280261e+20
3.589424338e+20
1.807964012e+20
2.732119516e+20
2.293829494e+20
4.391185792e+20
2.794481896e+20
3.285224663e+20
4.492966236e+20
3.336383983e+20
6.725131667e+20
4.599576845e+20
4.63624696e+20
5.165454536e+20
2.975601965e+20
4.749851556e+20
5.293068986e+20
4.574588582e+20
5.381707002e+20
5.168712991e+20
5.994637038e+20
3.943124063e+20
4.242436287e+20
4.012041048e+20
4.587065656e+20
3.811182588e+20
4.120055044e+20
4.988836615e+20
4.754735161e+20
4.516315688e+20
3.133868952e+20
2.01905119e+20
2.937941513e+20
1.593736377e+20
2.06444654e+20
3.235610583e+20
3.027355394e+20
3.050565777e+20
2.128247171e+20
4.051323417e+20
4.323298936e+20
6.536240719e+20
6.100324947e+20
4.673506522e+20
3.471535626e+20
2.749914081e+20
2.520509041e+20
6.861882762e+20
5.125435198e+20
4.910277341e+20
6.255273379e+20
2.628749375e+20
6.098502214e+20
6.151796274e+20
4.856893048e+20
4.627864531e+20
4.39472538e+20
3.325891106e+20
5.034425464e+20
4.516315729e+20
3.703663375e+20
2.692068263e+20
2.033959524e+20
3.187472785e+20
2.523212449e+20
3.466725622e+20
3.493102357e+20
3.754542449e+20
4.256494277e+20
3.336383965e+20
4.323298969e+20
3.6312449e+20
4.148220996e+20
5.165454577e+20
3.967469286e+20
5.249835931e+20
6.049221698e+20
3.812157152e+20
5.12543524e+20
4.134970393e+20
6.51590977e+20
4.205998965e+20
5.833349845e+20
4.279510378e+20
7.555166963e+20
6.261228592e+20
3.845384742e+20
3.880206291e+20
5.034425464e+20
3.387236766e+20
6.267737905e+20
2.467729225e+20
2.259955002e+20
1.366059755e+20
2.981978349e+20
4.160070747e+20
3.493102383e+20
3.285224693e+20
4.49296625e+20
4.289636559e+20
2.88219929e+20
2.904995875e+20
4.636246923e+20
7.625194792e+20
4.959336608e+20
4.749851556e+20
5.041018041e+20
6.861882817e+20
7.431881098e+20
7.753069486e+20
5.734000645e+20
4.731748916e+20
6.363654484e+20
4.546979854e+20
4.047410873e+20
5.716773832e+20
5.768077011e+20
4.434521436e+20
5.593806071e+20
5.92766434e+20
3.988560485e+20
8.973560819e+19
1.355973011e+20
2.504442884e+20
2.981978327e+20
3.466725622e+20
2.095861414e+20
2.346589031e+20
2.601190967e+20
3.813010275e+20
3.602749113e+20
2.904995875e+20
2.928155975e+20
3.443636357e+20
5.703237054e+20
4.749851556e+20
4.284865369e+20
5.082876161e+20
4.612891678e+20
4.134970393e+20
3.38827308e+20
4.468873901e+20
4.242436287e+20
5.081918661e+20
3.50775609e+20
5.716773832e+20
4.944066053e+20
4.711679026e+20
4.195354516e+20
5.363124879e+20
3.133868981e+20
2.243390221e+20
6.779865104e+19
2.73211953e+20
3.211361299e+20
2.080035389e+20
1.630114445e+20
2.346589049e+20
3.074134802e+20
2.859757706e+20
2.401832742e+20
2.904995898e+20
1.952103998e+20
3.197662357e+20
4.959336608e+20
2.249929703e+20
5.041018082e+20
2.795581889e+20
2.56271762e+20
6.20245564e+20
7.03718261e+20
4.205999001e+20
5.037893133e+20
5.081918661e+20
7.285339572e+20
6.533455865e+20
2.472033048e+20
4.434521475e+20
3.356283643e+20
3.951776263e+20
5.982840782e+20
2.692068246e+20
2.259955002e+20
3.642826013e+20
4.128893098e+20
2.542265456e+20
2.561608414e+20
1.40795344e+20
1.891775263e+20
1.429878864e+20
5.284032073e+20
3.389161854e+20
4.148220931e+20
3.689610383e+20
3.719502456e+20
3.249898433e+20
4.032814465e+20
4.066300962e+20
4.100348192e+20
3.876534743e+20
5.473364252e+20
5.257498795e+20
1.856065891e+20
4.279510451e+20
7.555166963e+20
4.355637205e+20
5.493406677e+20
3.048733487e+20
2.796903036e+20
4.234045957e+20
2.243390205e+20
1.355973011e+20
2.504442902e+20
1.376297699e+20
2.311150415e+20
1.397240943e+20
3.05056574e+20
1.891775234e+20
3.336383965e+20
3.362565865e+20
1.936663947e+20
2.684142998e+20
3.197662357e+20
2.727635134e+20
3.999874995e+20
2.772559923e+20
2.795581889e+20
3.587804668e+20
4.134970393e+20
4.952091425e+20
3.94312403e+20
5.037893048e+20
3.477102212e+20
5.666375271e+20
5.716773932e+20
1.346034132e+20
1.581968513e+20
2.959796114e+20
2.293829482e+20
1.61780529e+20
2.561608414e+20
1.173294533e+20
2.128247171e+20
2.621444564e+20
2.88219929e+20
3.389161854e+20
2.684142977e+20
3.443636385e+20
2.231701474e+20
2.749914081e+20
1.764356343e+20
2.287294272e+20
5.381706958e+20
3.876534743e+20
2.467729243e+20
2.259955018e+20
2.73211953e+20
2.523212449e+20
1.386690249e+20
2.095861414e+20
2.346589031e+20
1.655303343e+20
2.383131422e+20
3.602749113e+20
1.69458094e+20
3.660194968e+20
3.689610383e+20
3.223568795e+20
2.467729225e+20
1.581968501e+20
2.276766258e+20
2.523212449e+20
2.773380518e+20
9.314939689e+19
3.519883573e+20
3.31060671e+20
2.019051199e+20
)
;

boundaryField
{
    flow
    {
        type            zeroGradient;
    }
    obstacle
    {
        type            calculated;
        value           nonuniform List<scalar> 
30
(
197.0533625
249.6943437
212.5138919
205.7856967
1e-300
172.6482471
441.102883
389.337677
94.43634659
439.9947352
1e-300
278.1276944
1e-300
1e-300
84.65289847
91.50347436
1e-300
168.8413648
267.2148287
176.8435528
1e-300
546.6221712
129.5906157
355.2280017
179.7918131
435.1152631
430.2229719
77.03570261
115.593033
743.3350433
)
;
    }
    frontAndBack
    {
        type            empty;
    }
    procBoundary1to0
    {
        type            processor;
        value           nonuniform List<scalar> 
21
(
5.122252883e+20
4.676839589e+20
4.676839589e+20
4.008719647e+20
2.895186414e+20
4.00871965e+20
4.676839589e+20
4.008719647e+20
2.672479765e+20
2.672479765e+20
1.781653177e+20
1.558946536e+20
2.227066471e+20
3.340599682e+20
1.55894653e+20
1.113533235e+20
2.227066471e+20
2.895186412e+20
2.895186433e+20
2.227066471e+20
2.227066471e+20
)
;
    }
    procBoundary1to3
    {
        type            processor;
        value           nonuniform List<scalar> 
36
(
4.273457701e+20
4.944066096e+20
5.820309436e+20
4.475044857e+20
4.273457701e+20
3.951776227e+20
2.606363908e+20
5.783248626e+20
4.772740863e+20
5.349388064e+20
3.237928699e+20
4.944066096e+20
4.900091856e+20
2.999906246e+20
3.024610825e+20
3.049725697e+20
5.12543524e+20
2.606363908e+20
4.134970393e+20
2.383131422e+20
1.681282919e+20
2.420829896e+20
2.440129979e+20
3.443636385e+20
2.999906246e+20
3.223568795e+20
1.807964028e+20
1.138383137e+20
9.175317996e+19
2.542265456e+20
2.561608414e+20
1.877271253e+20
2.383131422e+20
1.891775263e+20
1.807964028e+20
3.365085307e+20
)
;
    }
}


// ************************************************************************* //
