/*--------------------------------*- C++ -*----------------------------------*\
| =========                 |                                                 |
| \\      /  F ield         | OpenFOAM: The Open Source CFD Toolbox           |
|  \\    /   O peration     | Version:  2406                                  |
|   \\  /    A nd           | Website:  www.openfoam.com                      |
|    \\/     M anipulation  |                                                 |
\*---------------------------------------------------------------------------*/
FoamFile
{
    version     2.0;
    format      ascii;
    arch        "LSB;label=32;scalar=64";
    class       volScalarField;
    location    "0.008";
    object      iDofMean;
}
// * * * * * * * * * * * * * * * * * * * * * * * * * * * * * * * * * * * * * //

dimensions      [0 -3 0 0 0 0 0];

internalField   nonuniform List<scalar> 
546
(
6.090355745e+20
6.134591394e+20
6.065931436e+20
6.078246739e+20
6.007026605e+20
5.979725511e+20
6.059948888e+20
6.082057443e+20
6.097539625e+20
6.030521663e+20
5.972792593e+20
6.024863932e+20
5.915490862e+20
6.007554392e+20
6.000874978e+20
5.888539237e+20
5.683672133e+20
5.840305306e+20
5.847235793e+20
5.763843483e+20
5.70386039e+20
5.772364887e+20
5.685396487e+20
5.620976774e+20
5.410313949e+20
5.292828712e+20
5.068172993e+20
4.875701208e+20
4.522031662e+20
3.724816947e+20
5.504270057e+20
5.483611351e+20
5.422118856e+20
5.457823206e+20
5.427505638e+20
5.518286692e+20
5.483098636e+20
5.489045019e+20
5.416023618e+20
5.397158363e+20
5.399540071e+20
5.469490348e+20
5.4718767e+20
5.497300642e+20
5.456391988e+20
5.428042236e+20
5.327553121e+20
5.405988734e+20
5.348067331e+20
5.313528962e+20
5.290226681e+20
5.227211828e+20
5.203282894e+20
5.127395017e+20
4.998229833e+20
4.957044231e+20
4.742166381e+20
4.482386724e+20
4.07788024e+20
3.417840236e+20
5.146449314e+20
5.219592106e+20
5.213908581e+20
5.180785949e+20
5.134913999e+20
5.145339791e+20
5.150704293e+20
5.146751934e+20
5.215363956e+20
5.147547899e+20
5.148802609e+20
5.227429454e+20
5.190051959e+20
5.177981357e+20
5.180088127e+20
5.044609799e+20
5.128050231e+20
5.132034221e+20
5.041498046e+20
5.054977661e+20
4.927656415e+20
4.928120064e+20
5.047950038e+20
4.840568499e+20
4.696465841e+20
4.620916402e+20
4.523489038e+20
4.286743353e+20
3.944366657e+20
3.458580536e+20
4.835066753e+20
4.884384275e+20
5.014520776e+20
5.014655352e+20
5.062632766e+20
5.055508842e+20
5.066813738e+20
5.047670205e+20
5.064571312e+20
5.047511565e+20
5.039199539e+20
5.01172196e+20
5.032136634e+20
5.038066077e+20
4.988844103e+20
4.924318505e+20
4.925815296e+20
4.942457186e+20
4.92817401e+20
4.908695486e+20
4.841236287e+20
4.818811045e+20
4.791781213e+20
4.718606514e+20
4.634670238e+20
4.54366537e+20
4.412626006e+20
4.126900352e+20
3.965960295e+20
3.652595502e+20
4.494688373e+20
4.584431745e+20
4.756449316e+20
4.863205252e+20
4.950021962e+20
4.933599573e+20
4.929655608e+20
4.937769886e+20
5.002014112e+20
4.971853829e+20
4.953139036e+20
4.987320668e+20
4.994318132e+20
4.965473787e+20
4.945907945e+20
4.916441914e+20
4.826826286e+20
4.86077057e+20
4.857362646e+20
4.811217472e+20
4.778409169e+20
4.700287973e+20
4.6601194e+20
4.614250774e+20
4.521559792e+20
4.464972311e+20
4.431819149e+20
4.15542877e+20
3.943660986e+20
3.654091232e+20
4.201252939e+20
4.359792223e+20
4.517161189e+20
4.622181125e+20
4.713129048e+20
4.753879456e+20
4.816022034e+20
4.876346308e+20
4.902399219e+20
4.930362169e+20
4.973413482e+20
4.935772915e+20
4.912839227e+20
4.944644565e+20
4.903346771e+20
4.918269283e+20
4.844870493e+20
4.89069029e+20
4.864340408e+20
4.838193346e+20
4.751333059e+20
4.661774622e+20
4.63103213e+20
4.659784146e+20
4.555928452e+20
4.448972772e+20
4.338486369e+20
4.219897378e+20
4.059744399e+20
3.732010577e+20
3.828233226e+20
4.045432474e+20
4.186176287e+20
4.336197926e+20
4.517721277e+20
4.646466558e+20
4.697167298e+20
4.774249563e+20
4.792000656e+20
4.866533467e+20
4.905025045e+20
4.960235225e+20
4.959512807e+20
4.96268416e+20
4.929345959e+20
4.874349409e+20
4.894619143e+20
4.903375742e+20
4.867183217e+20
4.812325217e+20
4.769405743e+20
4.723820269e+20
4.67429529e+20
4.626662866e+20
4.616907461e+20
4.480147894e+20
4.377149854e+20
4.282338238e+20
4.093687371e+20
3.865271302e+20
3.43070448e+20
3.661805113e+20
3.860655636e+20
4.078658226e+20
4.212764979e+20
4.365213595e+20
4.524693003e+20
4.635085845e+20
4.678861495e+20
4.747702792e+20
4.843172833e+20
4.907284397e+20
4.873913842e+20
4.90751154e+20
4.936658246e+20
4.954249562e+20
4.940301485e+20
4.896136041e+20
4.878295909e+20
4.885954941e+20
4.865617897e+20
4.746556996e+20
4.738421039e+20
4.662077671e+20
4.623168609e+20
4.552180111e+20
4.481984633e+20
4.323662442e+20
4.202784585e+20
4.029870576e+20
3.121621396e+20
3.304393227e+20
3.518286904e+20
3.703559755e+20
3.909599826e+20
4.069930011e+20
4.240814393e+20
4.363024917e+20
4.49893507e+20
4.572248906e+20
4.653621844e+20
4.783935834e+20
4.849623914e+20
4.867340922e+20
4.902784296e+20
4.946877029e+20
4.954724146e+20
4.928746663e+20
4.904656366e+20
4.905828466e+20
4.865157907e+20
4.847513803e+20
4.766906571e+20
4.724272885e+20
4.656788684e+20
4.648658106e+20
4.515105045e+20
4.387012334e+20
4.266083572e+20
4.103302861e+20
2.818258953e+20
2.96003258e+20
3.139262243e+20
3.336547036e+20
3.540335766e+20
3.734650399e+20
3.93822173e+20
4.09049105e+20
4.242867596e+20
4.40628225e+20
4.514484674e+20
4.659367191e+20
4.709849147e+20
4.787619578e+20
4.835223888e+20
4.85998252e+20
4.890362266e+20
4.940727367e+20
4.895611118e+20
4.899508074e+20
4.915629895e+20
4.883707047e+20
4.826886585e+20
4.717729571e+20
4.720013521e+20
4.671799082e+20
4.593956339e+20
4.500007217e+20
4.341661292e+20
4.168971623e+20
2.65039728e+20
2.785112055e+20
2.924506252e+20
3.100454629e+20
3.251037512e+20
3.432264178e+20
3.630583928e+20
3.835810818e+20
4.009201569e+20
4.201766199e+20
4.336432593e+20
4.427920863e+20
4.562633729e+20
4.679258073e+20
4.730352204e+20
4.771260602e+20
4.835149445e+20
4.908244881e+20
4.896515643e+20
4.885629145e+20
4.915235582e+20
4.912277245e+20
4.875097945e+20
4.848798226e+20
4.713888366e+20
4.684708588e+20
4.625898793e+20
4.58831943e+20
4.500508624e+20
4.318471495e+20
2.476758887e+20
2.600360752e+20
2.703659951e+20
2.846240988e+20
3.006922247e+20
3.145829764e+20
3.33931352e+20
3.514327206e+20
3.719114869e+20
3.889768156e+20
4.066752205e+20
4.212518422e+20
4.371019962e+20
4.527440381e+20
4.614105799e+20
4.699489107e+20
4.749121844e+20
4.831940004e+20
4.890183969e+20
4.896054601e+20
4.888619454e+20
4.927324553e+20
4.888671933e+20
4.859793692e+20
4.817743174e+20
4.760036969e+20
4.7055816e+20
4.592864397e+20
4.563243031e+20
4.500449489e+20
2.344679272e+20
2.425101214e+20
2.539846599e+20
2.633430956e+20
2.758126905e+20
2.908007734e+20
3.052736381e+20
3.201947869e+20
3.356640608e+20
3.516163043e+20
3.695759961e+20
3.940382862e+20
4.134208434e+20
4.296831229e+20
4.446986022e+20
4.547565387e+20
4.63666317e+20
4.737696064e+20
4.812782492e+20
4.870642593e+20
4.873569946e+20
4.927788653e+20
4.91889606e+20
4.931567778e+20
4.897165412e+20
4.851296104e+20
4.79392554e+20
4.739841652e+20
4.647500545e+20
4.547457523e+20
2.224265303e+20
2.289277935e+20
2.35360712e+20
2.477679915e+20
2.577452721e+20
2.689979907e+20
2.800947332e+20
2.938991085e+20
3.103135003e+20
3.301199012e+20
3.494710038e+20
3.630486386e+20
3.796978045e+20
3.99815515e+20
4.17730695e+20
4.33596869e+20
4.48786197e+20
4.617760841e+20
4.705079435e+20
4.789649794e+20
4.828289656e+20
4.845591408e+20
4.966706215e+20
4.980743821e+20
4.932963306e+20
4.88672862e+20
4.916429195e+20
4.843187176e+20
4.750811266e+20
4.625020822e+20
2.189661025e+20
2.2415929e+20
2.29196369e+20
2.320093847e+20
2.410009892e+20
2.506126305e+20
2.607940404e+20
2.728294637e+20
2.876380048e+20
3.018203069e+20
3.17709718e+20
3.32632421e+20
3.530280736e+20
3.725019718e+20
3.908690376e+20
4.12052818e+20
4.26828172e+20
4.39531699e+20
4.542200405e+20
4.686893936e+20
4.785309644e+20
4.884767697e+20
4.928257489e+20
4.935750103e+20
4.982440665e+20
4.965765053e+20
4.957102115e+20
4.916815692e+20
4.848617772e+20
4.751443945e+20
2.118713794e+20
2.129668596e+20
2.191672119e+20
2.219222694e+20
2.281278796e+20
2.360405717e+20
2.466910421e+20
2.574706133e+20
2.687874373e+20
2.804259839e+20
2.955772782e+20
3.127392563e+20
3.251715124e+20
3.425103837e+20
3.618761905e+20
3.78189779e+20
3.966549516e+20
4.136674714e+20
4.277497653e+20
4.450431569e+20
4.574681139e+20
4.662702671e+20
4.754469244e+20
4.856151022e+20
4.918194973e+20
4.933285199e+20
4.947055109e+20
4.925066556e+20
4.880655342e+20
2.10486086e+20
2.119724809e+20
2.14340469e+20
2.20408342e+20
2.241064779e+20
2.296947673e+20
2.363895125e+20
2.438380041e+20
2.510688512e+20
2.615956151e+20
2.725915026e+20
2.836346106e+20
2.959559499e+20
3.096981728e+20
3.263585506e+20
3.462738305e+20
3.678985765e+20
3.883670417e+20
4.095429738e+20
4.189599664e+20
4.362409552e+20
4.560685258e+20
4.655037453e+20
4.765354146e+20
4.779359121e+20
2.069583563e+20
2.099215718e+20
2.135606735e+20
2.147081741e+20
2.178894832e+20
2.207757143e+20
2.243573806e+20
2.2852054e+20
2.360074625e+20
2.442183532e+20
2.522807355e+20
2.643148793e+20
2.783565082e+20
2.934997396e+20
3.077528845e+20
3.224739293e+20
3.377571209e+20
3.568840528e+20
3.740403765e+20
2.063245986e+20
2.076785664e+20
2.091266743e+20
2.115943021e+20
2.138218585e+20
2.166713174e+20
2.209372237e+20
2.247842821e+20
2.305381759e+20
2.344789214e+20
2.445461859e+20
2.518031128e+20
2.606832723e+20
2.710463431e+20
2.043448053e+20
2.057011043e+20
2.068612903e+20
2.08434552e+20
2.117418247e+20
2.122059698e+20
2.144606396e+20
2.18612367e+20
2.024715759e+20
)
;

boundaryField
{
    flow
    {
        type            calculated;
        value           nonuniform List<scalar> 
15
(
3.724816947e+20
3.417840236e+20
3.458580536e+20
3.652595502e+20
3.654091232e+20
3.732010577e+20
3.865271302e+20
4.029870576e+20
4.103302861e+20
4.168971623e+20
4.318471495e+20
4.500449489e+20
4.547457523e+20
4.625020822e+20
4.751443945e+20
)
;
    }
    obstacle
    {
        type            calculated;
        value           nonuniform List<scalar> 
30
(
266.171118
272.1700023
270.4618419
274.1792011
267.1189835
260.1123368
271.004973
257.8411771
276.0828415
259.6985386
257.7560662
270.395986
255.3390814
260.4998279
266.8779156
250.1200259
247.9485645
248.1728544
257.4273917
258.3350062
243.3384445
237.0307787
247.5907411
247.6289949
237.5712887
219.3001862
218.2946253
217.73545
194.2624987
171.103571
)
;
    }
    frontAndBack
    {
        type            empty;
    }
    procBoundary1to0
    {
        type            processor;
        value           nonuniform List<scalar> 
21
(
6.150990562e+20
5.476078068e+20
5.118522546e+20
4.742760756e+20
4.381641931e+20
3.959278774e+20
3.623826885e+20
3.243833668e+20
2.928759439e+20
2.660954696e+20
2.522932251e+20
2.380177301e+20
2.286863205e+20
2.195609141e+20
2.142215238e+20
2.108920594e+20
2.082919593e+20
2.050014686e+20
2.052241767e+20
2.024793159e+20
2.032309508e+20
)
;
    }
    procBoundary1to3
    {
        type            processor;
        value           nonuniform List<scalar> 
36
(
4.828864754e+20
4.83591465e+20
4.92197239e+20
4.910662505e+20
4.828864754e+20
4.90655359e+20
3.93997516e+20
4.111364023e+20
4.282142875e+20
4.440593899e+20
4.60069194e+20
4.83591465e+20
4.743356974e+20
2.844661098e+20
3.002871434e+20
3.140772716e+20
3.302574197e+20
3.93997516e+20
3.477962363e+20
2.22161469e+20
2.262226214e+20
2.297851737e+20
2.375344528e+20
2.444243911e+20
2.844661098e+20
2.542465904e+20
2.03350754e+20
2.038388846e+20
2.038182201e+20
2.056519418e+20
2.094638844e+20
2.116506008e+20
2.22161469e+20
2.143972553e+20
2.03350754e+20
2.04176551e+20
)
;
    }
}


// ************************************************************************* //
