/*--------------------------------*- C++ -*----------------------------------*\
| =========                 |                                                 |
| \\      /  F ield         | OpenFOAM: The Open Source CFD Toolbox           |
|  \\    /   O peration     | Version:  2406                                  |
|   \\  /    A nd           | Website:  www.openfoam.com                      |
|    \\/     M anipulation  |                                                 |
\*---------------------------------------------------------------------------*/
FoamFile
{
    version     2.0;
    format      ascii;
    arch        "LSB;label=32;scalar=64";
    class       volScalarField;
    location    "0.008";
    object      internalE;
}
// * * * * * * * * * * * * * * * * * * * * * * * * * * * * * * * * * * * * * //

dimensions      [1 -1 -2 0 0 0 0];

internalField   nonuniform List<scalar> 
546
(
2.161216836
2.574158814
1.937738414
2.84489256
1.785980471
2.278149817
4.256522312
2.72007134
2.616727322
4.387379925
5.275274193
3.167558255
2.454969078
2.308695805
4.428717538
3.614122021
2.798524681
2.641255418
2.45349645
3.740598279
3.099228636
4.365746066
1.776494273
2.711445067
2.152781431
1.800097751
2.578210795
1.457318078
4.197125481
2.277479389
3.559288692
2.63869792
2.685746217
3.748694025
1.789965966
2.055307042
3.273128136
3.049198239
2.650530003
3.972849989
3.327174659
3.539539666
2.805723369
6.306889937
2.45932066
2.69526686
2.80331098
2.018501616
2.824178611
2.559806471
2.873738354
1.602601233
1.40554945
1.817995969
1.023942627
0.854226874
1.774747108
2.159442647
1.814436009
1.451428713
3.181383951
2.208235812
2.90468945
2.968621835
4.880985736
2.529188047
2.209746932
2.350395054
1.894770562
1.852461723
1.805963501
4.13001309
2.913465375
3.671982813
2.816818297
4.440714351
2.447678676
2.667988174
2.075177873
3.399918082
1.471046879
2.789378066
3.317794204
3.511572271
3.454615816
0.8655081245
3.389552817
5.347874864
2.565122746
1.457328832
1.751136015
2.704206752
3.013933697
2.457634458
1.768390222
1.874844059
5.51076066
2.940183567
3.565581807
2.609002173
1.728718213
4.010350154
3.230750016
3.00226967
2.832297754
3.951059621
3.090296017
3.907692658
2.071080994
2.180380281
1.903020629
2.929358824
2.331858213
3.296617168
3.004144723
1.42401526
1.482126517
2.122177662
2.099092491
1.158192361
1.772943726
1.503004556
2.518282627
2.89580512
2.072781336
2.134171708
2.218097939
1.824632795
2.946759144
3.295200237
1.479916786
2.180827454
3.071549411
4.071123423
3.471445557
6.258930853
3.170782463
2.340030279
2.579956839
3.506235858
3.766123817
3.496390355
2.162270505
1.635781133
3.528661377
2.67318174
2.915563119
2.594178107
0.7407255867
2.679557447
1.727844454
1.823205406
1.573531159
3.37205786
1.298975196
5.203223251
2.034887405
1.324755329
2.235316102
1.543015001
3.41339544
3.118450341
2.388304703
3.268770665
2.993001548
2.673792773
3.598017113
2.203181781
4.058144939
1.886507763
3.526003403
2.034110653
1.659745535
2.23382303
0.797169623
3.280943728
2.586294
3.459933068
2.918970184
2.161061943
1.320894272
2.127243055
2.044470565
2.005675647
1.478916795
2.161264451
2.259183424
1.944226507
3.228488892
1.420055316
2.911450147
3.04578282
2.549380965
2.902212371
4.463417512
3.332748422
4.14260717
3.667492696
3.078553391
3.750389049
3.816104752
3.425750769
2.982181484
2.205003935
3.068768163
2.842214887
2.309729626
1.779777151
2.404054658
1.393661016
1.547090315
1.420865675
1.995062022
2.229888632
2.329816117
2.570051175
1.779852911
2.568326384
2.208719158
2.592429312
1.401016655
2.180177904
1.509695535
3.140789197
2.570437322
3.20496031
1.430798955
1.951325147
1.842071332
4.103064299
1.982898907
2.440275906
4.59371213
2.06546513
2.110173577
3.306053251
2.485116402
4.563294603
1.474644131
2.403633099
0.8804095853
0.7018332225
0.4455151141
2.342438889
1.780496754
2.2783343
1.638833709
2.681292114
1.219410867
2.422274177
3.111946024
1.981158464
1.767537792
1.905669175
3.987434816
3.00570868
4.892751726
3.188177073
2.535082666
3.56173832
2.60335519
1.942618603
3.215754431
4.287832171
2.663846264
2.959597916
1.562980218
1.727587217
2.579347174
1.028583704
1.765885254
0.4795517904
0.880600408
0.5065522846
1.689655058
0.8295259166
1.865971379
2.46976763
1.603982732
3.0487334
2.820329466
1.779732585
2.482538792
1.42085928
1.791846314
3.065565782
3.945427164
3.410015049
3.584612726
4.088032819
1.856046915
1.420176222
2.664825299
2.552695937
2.970539003
2.185264039
2.190582238
3.588839123
2.223827858
0.6657561713
0.5475768366
1.10452619
0.1760907128
0.8361400799
1.05946563
1.551564079
1.30229583
0.4856633944
2.606335136
1.347275468
2.77513587
2.06407043
2.222874539
1.083527328
1.692720601
1.452775746
3.449352295
2.3603722
2.969526364
4.218320603
2.15715982
4.823692949
2.395619212
2.670745953
2.898190927
2.063892823
1.896751834
1.94395606
3.047884316
1.817797497
0.6854382962
0.4521838817
0.4875644507
0.917097125
0.7227865428
1.780794835
1.50620008
1.779686768
1.383259237
0.9597395627
1.936139826
1.712341945
1.85392676
1.020158853
2.503388516
3.696496562
1.892203954
3.082703286
2.663873438
3.150035286
2.143120343
2.415180099
2.665942183
3.663333035
2.645037861
2.958652448
1.936062091
3.059865727
1.76507198
3.753891832
0.614746584
0.8399887652
0.3299445262
0.5178663954
1.237550993
1.154068243
1.311833043
2.144465034
1.879702979
0.9295401062
0.7747989285
2.34492199
2.981254144
1.877634434
2.329035825
2.072888864
3.388754359
1.950681057
3.163991655
3.11551541
2.237378423
4.553965457
2.056215282
1.780938028
2.340583021
2.994761803
1.712538025
2.637752307
2.746935804
2.47664419
0.07922879677
0.2912653943
0.7025161734
0.8701866642
0.7182693928
0.4084801809
0.5077675122
0.5573517825
1.153726431
1.784627393
1.009354154
0.8670862924
0.6782154157
2.193933042
1.801211628
2.279061478
2.498873123
1.660124563
1.753691911
1.026411008
1.28669386
2.665173952
2.568376649
1.815870828
2.062011946
2.374307287
1.805570348
1.797945578
3.65735498
2.340483998
0.8339783339
0.129234795
0.6437945523
0.8221096871
0.2669333361
0.6093737193
0.5210750963
0.7040780034
0.9185444558
0.8855749208
2.007757487
0.2132440775
0.8978788289
1.597037341
0.4297501064
1.460777236
1.365910801
0.8070526643
1.757200944
2.929188529
1.984806889
2.201927757
2.93260808
4.280087182
2.220217738
2.193050244
2.290860484
0.799785321
1.639278099
2.42525251
0.7231422872
0.2645709406
0.5970627787
1.089100188
0.5387005324
0.4296197622
0.53707484
0.2724383966
0.6167619648
1.328696749
1.155022236
1.55397258
0.7362214122
1.121706054
0.79689643
1.546999851
1.523760935
0.9401719226
1.013187689
1.735606294
2.278758226
0.5251410492
1.740265704
3.461005869
1.311051737
1.759542175
0.9877735744
1.166005296
2.203411967
0.4757365105
0.4883428139
0.3553896571
0.4006835168
0.2420227916
0.2116681236
0.5996596344
0.8384997836
0.8290506034
0.7576739532
0.3097981171
0.7313258007
1.125987144
0.5969749658
1.67509152
0.7540919144
0.5007865081
1.794657412
1.233378934
1.903030792
1.211887054
3.077699836
1.314187759
2.306082574
2.90807558
0.2751150122
0.3906964586
0.7714746049
0.4555786747
0.1810298036
0.6787777044
0.507043157
0.5337787626
0.3950297343
0.7031539555
1.278972983
0.3156908283
0.9265583935
0.5933800154
0.8631544061
0.2633625662
0.7698017141
1.308709974
1.814914009
0.3784771
0.3984733638
0.6090771091
0.5240566373
0.3024725218
0.5646995985
0.4471738609
0.327818093
0.4041695774
0.9754333036
0.9013410123
1.201807965
1.67173201
0.8683932653
0.2391714161
0.2430408588
0.5635581271
0.4770736261
0.386951227
0.1814685156
0.8569926022
0.7969219641
0.5274073809
)
;

boundaryField
{
    flow
    {
        type            zeroGradient;
    }
    obstacle
    {
        type            calculated;
        value           nonuniform List<scalar> 
30
(
9.593725615e-19
5.249610439e-19
6.078300397e-19
8.035991993e-19
0
3.165926919e-19
1.612854969e-18
4.023144207e-18
1.085347056e-19
2.701610728e-18
0
1.307946326e-18
0
0
1.145569777e-19
3.744488999e-20
0
7.791507166e-20
8.872502857e-19
1.251225234e-18
0
8.165575559e-18
1.341860952e-18
1.723973754e-18
4.868047106e-19
2.749581732e-18
1.356071554e-18
6.541102553e-19
1.248507269e-18
6.157485321e-18
)
;
    }
    frontAndBack
    {
        type            empty;
    }
    procBoundary1to0
    {
        type            processor;
        value           nonuniform List<scalar> 
21
(
3.03556547
2.396609302
1.513633059
2.444093091
1.282569532
1.439658554
1.430612866
0.9766653491
1.402775511
0.9887331412
0.3253260455
0.2954639434
0.5173386468
0.8932431631
0.2579013549
0.1292263448
0.3254207415
0.5955110289
0.8312790459
0.6206224713
0.399396565
)
;
    }
    procBoundary1to3
    {
        type            processor;
        value           nonuniform List<scalar> 
36
(
2.074600669
2.762321867
3.04331724
3.067481919
2.074600669
1.099108386
1.212977395
2.325553338
1.615296933
1.775859221
1.337674945
2.762321867
2.438399443
1.026193787
1.13001278
1.046485095
1.468595846
1.212977395
1.564448993
0.4984200657
0.3089464223
0.3864997821
0.6635853606
0.6260263265
1.026193787
1.102133664
0.4040875357
0.1499124226
0.2917273414
0.791138997
0.9179008204
0.327841425
0.4984200657
0.4791689028
0.4040875357
0.5896169941
)
;
    }
}


// ************************************************************************* //
