/*--------------------------------*- C++ -*----------------------------------*\
| =========                 |                                                 |
| \\      /  F ield         | OpenFOAM: The Open Source CFD Toolbox           |
|  \\    /   O peration     | Version:  2406                                  |
|   \\  /    A nd           | Website:  www.openfoam.com                      |
|    \\/     M anipulation  |                                                 |
\*---------------------------------------------------------------------------*/
FoamFile
{
    version     2.0;
    format      ascii;
    arch        "LSB;label=32;scalar=64";
    class       volScalarField;
    location    "0.008";
    object      internalT;
}
// * * * * * * * * * * * * * * * * * * * * * * * * * * * * * * * * * * * * * //

dimensions      [1 2 -2 0 0 0 0];

internalField   nonuniform List<scalar> 
546
(
705.7939622
702.356889
695.5071814
703.7154953
702.4100457
701.5009503
715.7320526
697.3513662
693.432521
692.1785594
692.589401
692.0562073
690.3640146
703.745884
702.498832
697.3558252
683.7823897
681.7501381
680.4790643
683.6475708
682.7741355
671.8563528
669.2365358
673.8014587
660.0691639
658.8578918
666.7214041
680.2046101
662.0669943
657.4743201
758.3736573
766.3739788
766.5254201
765.4522317
770.9681059
779.4337881
778.5104739
769.625689
769.1375079
774.1919314
770.9603797
774.2501287
773.1582392
777.9295536
777.439117
762.7786193
753.004745
752.2836298
755.7764424
753.1679594
753.0600932
744.0249716
745.9115592
732.528761
733.4683233
721.961381
722.0302057
733.5618624
723.8769636
730.5599537
768.2038328
777.1824372
793.1126844
800.6817594
807.5206374
804.6558257
800.2992067
811.1957671
804.1733609
807.6223195
807.3400545
802.4590443
802.6165315
813.095728
807.66683
809.4247396
811.2521268
791.156521
788.1854673
794.6020679
793.9422244
789.1790676
781.2423258
782.5527513
781.5066985
770.955669
761.6703319
764.3031354
760.5133574
766.3161819
729.8774846
745.7856408
775.0338631
776.423563
785.3851162
798.6372267
802.9260187
801.9267862
816.4662133
819.0362124
823.4518451
828.186791
829.0412321
830.28256
817.5659994
823.3411896
819.910811
805.7120805
816.7463478
813.1608192
820.2299184
817.1155637
808.3395885
804.3335787
816.6939374
799.5381088
813.9062336
778.9557624
763.1360758
755.9398286
686.4600679
713.4089529
736.3555259
745.276485
757.29808
771.1849539
778.2447172
789.2360551
805.3738798
806.1394752
814.0542914
812.7828998
820.1929813
820.7435655
826.2532562
814.8435049
817.6127837
819.6194209
823.7930028
825.9053669
820.7743487
824.701107
823.5299494
830.814846
827.5420232
809.9606241
810.7567819
800.2931324
793.9199378
779.5705064
651.7979444
669.3272744
691.6447562
714.9106409
724.833758
749.610068
762.3199113
770.3332633
776.1633255
787.9163893
794.9244226
795.5409225
800.7983605
808.9007048
819.4054808
818.0349015
825.9612204
819.1418445
825.253009
819.4061781
814.3071416
821.3860979
836.4086791
840.2887083
821.9280546
811.0830327
811.7228738
802.2636341
794.1348172
792.5557348
600.6100104
619.1596329
648.7124829
667.1035808
696.2915069
709.7372312
722.7303478
729.3003816
745.2679294
753.6606228
768.1626097
784.2006319
791.7845533
797.4136007
803.2469574
804.6118996
812.7055097
820.0491426
815.753957
822.0681448
819.5890371
808.2830012
818.0151795
824.2429325
819.7928059
817.3096472
804.07012
810.508999
812.719165
795.8086414
555.7754775
576.5591238
598.4429953
619.9133034
643.1984216
663.8938676
686.2336567
692.4096245
706.3880937
721.2136212
730.356411
740.4306396
754.9767849
770.1983117
780.2637931
778.0162221
791.3558341
802.4229853
804.1269122
809.0686823
811.6269788
803.6061275
799.6251085
809.8786867
815.8302727
818.0012527
813.5771125
811.1304753
812.0685363
804.663675
503.958657
533.0693127
552.8297973
573.5647032
599.4563728
619.3280316
635.7956429
654.0880021
668.0796133
686.1867412
700.6086051
713.3482073
724.2025136
738.9465167
752.704475
760.2586525
773.5944098
779.3017222
786.3142451
802.4777046
803.2549924
806.1454208
803.0943248
800.0977179
797.2314064
801.6499575
812.4408868
811.3292777
798.0184924
797.2672737
456.2746677
477.2600121
508.1505455
525.761577
552.9593627
579.5435724
598.7489334
618.9859311
635.0656826
644.3691374
661.9142926
679.1251068
690.7061164
704.8237144
720.2106993
738.1742463
746.247514
757.5267878
768.2822695
772.5018778
777.1904579
785.3501543
794.0526358
802.0631234
799.4815028
790.3270027
794.56245
795.3899121
788.0274329
783.2349118
429.2075298
447.8890366
468.62471
488.3094254
499.5485079
515.7790174
538.9976482
568.1469058
584.4683545
609.2279164
627.6028253
643.8931647
661.5530081
674.2053126
688.740012
700.9786891
719.5615047
732.1695977
735.659338
746.1903304
755.0305789
767.0807737
771.1147367
785.4489947
785.6240452
786.7359798
778.0592107
780.8674868
786.2973867
779.7251582
402.4340153
415.0377689
430.4940061
448.9230598
462.1400791
481.5436547
506.0991785
523.8184189
540.7383117
559.8625383
585.6594944
609.0870545
624.5649501
642.5422128
659.9389639
674.1086453
681.365881
703.985411
715.5990423
723.8509287
736.0736596
745.0216304
750.3637053
748.0114781
757.7235411
765.4512881
765.3581764
771.6353103
774.9399869
773.3567179
370.6467998
384.3699995
405.2706618
421.3169035
438.3943005
451.6634541
465.7332261
491.3988842
512.9661308
532.395068
540.5488254
571.0512655
590.8872535
612.0476347
633.586056
642.9840892
655.9985453
669.3778702
683.8102717
697.9144573
702.9455744
716.0740788
728.2780978
737.1621526
734.9594326
737.1382374
748.2160056
749.2760862
752.4412904
759.0059484
356.6238501
366.0542013
376.6202051
398.5762553
409.8965182
432.1808001
443.3533028
458.1836822
472.3096139
492.758228
513.0927627
532.1082321
551.0960616
573.316371
591.8001885
609.3849589
629.1859426
644.5015197
657.1251503
669.1676021
675.0468044
688.3296869
703.1550206
712.0021498
722.9759175
729.4386262
733.4838704
741.4073862
747.6495181
745.7944929
335.8020711
344.3220037
356.1298223
363.6964819
380.7249364
396.3264971
409.926865
424.9309045
446.7385623
462.2834279
485.1455111
503.8712182
516.1861189
532.4424739
550.2388114
568.9428552
590.7425122
604.7132933
625.8532898
643.6690648
653.8659449
663.109535
675.1711485
684.2284327
694.8557656
702.9696311
711.2908102
719.758186
716.8877233
719.7186374
333.5706077
338.7424137
345.8841254
357.6688242
365.2915259
377.8206304
388.5773637
403.6961477
416.8433502
434.5463022
443.5346244
460.9916876
483.5307391
494.3739128
517.8844561
535.0238433
560.1201561
571.7980152
587.70038
601.6520654
619.0725891
633.81505
641.4735982
658.295884
672.9367203
684.0267361
689.3789776
696.7315212
700.6298234
323.6256272
324.5636833
332.079147
339.3864804
350.2691582
360.3102737
373.6162724
371.7114825
381.8271936
397.0920557
411.2442099
425.3865749
449.5636101
469.4288878
486.6050728
505.5603846
521.944574
542.1666114
557.9374568
572.232939
582.3104652
598.6490019
621.9592
627.3364314
640.1451277
321.892136
325.6471086
331.2248047
338.2643871
341.5023059
343.3410625
354.4906862
365.724426
371.3976466
382.5224366
402.837828
411.9355183
419.7032957
441.4847682
453.2990367
465.5645919
486.0790203
508.4043906
525.4812341
313.4891249
318.0948113
322.9076269
327.7174474
334.2631691
338.1777083
343.8346478
348.9941089
363.6361368
368.597901
375.3417383
390.5589154
400.4714805
416.1105543
315.4641083
317.6936165
317.4687274
322.2363743
326.4469781
331.5575854
334.0573565
338.1048146
307.2240783
)
;

boundaryField
{
    flow
    {
        type            calculated;
        value           nonuniform List<scalar> 
15
(
657.4743201
730.5599537
766.3161819
755.9398286
779.5705064
792.5557348
795.8086414
804.663675
797.2672737
783.2349118
779.7251582
773.3567179
759.0059484
745.7944929
719.7186374
)
;
    }
    obstacle
    {
        type            calculated;
        value           nonuniform List<scalar> 
30
(
637.0339872
615.5533013
618.1988977
630.4073329
638.2974244
636.4338199
630.7245841
651.9736282
642.5242891
615.2010571
636.3914682
610.8815456
612.0501095
621.6438059
646.5186882
628.3088368
628.6715946
628.8001714
608.4048634
574.1020446
640.1461575
596.9339732
607.1764252
651.2697087
624.2701105
604.4545767
613.129619
608.6821215
614.2400189
611.5255172
)
;
    }
    frontAndBack
    {
        type            empty;
    }
    procBoundary1to0
    {
        type            processor;
        value           nonuniform List<scalar> 
21
(
702.3627935
756.3177695
751.1457769
713.2786532
669.5984549
633.4073408
570.3048811
518.2611998
474.7603598
434.0063511
410.9777267
380.4789633
355.0409862
340.5218107
337.5336476
327.554203
318.5919074
316.6513086
313.6347434
312.8019274
308.189021
)
;
    }
    procBoundary1to3
    {
        type            processor;
        value           nonuniform List<scalar> 
36
(
699.7252864
650.9102107
663.6816298
678.92817
699.7252864
682.5414095
541.0035799
560.5823286
575.5679385
591.7438953
607.8685666
650.9102107
618.6766131
430.1152737
442.3410813
464.112654
475.4783972
541.0035799
496.8548807
345.3546153
350.7707971
358.8937744
365.7181219
376.9455112
430.1152737
389.7932093
307.5645658
311.9218987
312.7253167
317.1328978
319.6462605
323.1544764
345.3546153
327.6820335
307.5645658
304.3509899
)
;
    }
}


// ************************************************************************* //
