/*--------------------------------*- C++ -*----------------------------------*\
| =========                 |                                                 |
| \\      /  F ield         | OpenFOAM: The Open Source CFD Toolbox           |
|  \\    /   O peration     | Version:  2406                                  |
|   \\  /    A nd           | Website:  www.openfoam.com                      |
|    \\/     M anipulation  |                                                 |
\*---------------------------------------------------------------------------*/
FoamFile
{
    version     2.0;
    format      ascii;
    arch        "LSB;label=32;scalar=64";
    class       volScalarField;
    location    "0.008";
    object      internalEMean;
}
// * * * * * * * * * * * * * * * * * * * * * * * * * * * * * * * * * * * * * //

dimensions      [1 -1 -2 0 0 0 0];

internalField   nonuniform List<scalar> 
546
(
2.96738708
2.974384362
2.912411367
2.952766067
2.912754428
2.895763663
2.994146385
2.927896869
2.918854444
2.881553094
2.855662488
2.878340795
2.819178242
2.918550289
2.91013936
2.834755508
2.682875568
2.748618004
2.746749013
2.720182583
2.688435055
2.677218429
2.626600369
2.614552333
2.465275803
2.407316505
2.33264919
2.289445217
2.066755672
1.690586244
2.881619101
2.901088775
2.869123197
2.883972791
2.888619223
2.969183849
2.946755616
2.916284903
2.875664008
2.884479147
2.87370663
2.923356283
2.920507276
2.952183584
2.928367327
2.858217876
2.769358011
2.807439133
2.79025451
2.762666682
2.750157186
2.684795513
2.679281697
2.592836068
2.53076131
2.470531312
2.36366408
2.269863123
2.037759023
1.723698176
2.729215136
2.800355354
2.854643697
2.86357911
2.862466456
2.858102644
2.84559183
2.882123017
2.895262234
2.86987057
2.869566831
2.89577396
2.875632663
2.906402532
2.888171626
2.818757111
2.871849789
2.802886793
2.743099922
2.772825461
2.700740891
2.684790726
2.722415531
2.614951236
2.533713319
2.45929779
2.378450861
2.261761076
2.070797952
1.829614068
2.436161315
2.514649402
2.68289524
2.687778023
2.74481257
2.78719931
2.808433032
2.794340297
2.854529331
2.853868961
2.864529929
2.865291889
2.879931492
2.887642177
2.815635008
2.798849715
2.788035745
2.749010463
2.778605153
2.755472858
2.741230074
2.718172293
2.673895504
2.620013711
2.612954049
2.507835867
2.479277257
2.219169008
2.089315124
1.906085639
2.129945382
2.257759446
2.417820331
2.502036377
2.587781377
2.626491787
2.648416975
2.690242104
2.780968403
2.766827872
2.783476061
2.798307602
2.827781527
2.813337154
2.821063192
2.765532218
2.724350269
2.750242346
2.762308813
2.743082552
2.707451664
2.675929368
2.649293315
2.646421668
2.583044788
2.496527061
2.480425694
2.295717971
2.161373808
1.966474811
1.89036391
2.014456605
2.156762274
2.28114201
2.358312454
2.460011728
2.534424337
2.593144952
2.626729757
2.681714611
2.729191494
2.710636591
2.715872196
2.761111178
2.773607955
2.777395569
2.762456394
2.76555866
2.771179627
2.736755853
2.670898104
2.643335101
2.673929339
2.703011719
2.585022342
2.491028324
2.431082086
2.33707472
2.225597014
2.041861499
1.587247151
1.729104305
1.874663699
1.996898408
2.171521496
2.276533289
2.3435052
2.403616405
2.465374521
2.531915111
2.601045772
2.685239714
2.710813518
2.7318313
2.73332951
2.707426718
2.746032735
2.775803088
2.740882926
2.730966611
2.698447745
2.63578761
2.63955739
2.632550362
2.612816285
2.527741028
2.42962328
2.396030872
2.296723826
2.123450955
1.316243658
1.457446687
1.594914677
1.745427736
1.870534846
2.000588453
2.143456795
2.215513902
2.281587671
2.363747302
2.44184681
2.508298459
2.540183243
2.609260822
2.659059891
2.660848412
2.698850717
2.712129599
2.707985528
2.728905206
2.726139507
2.633149645
2.615614114
2.606472074
2.603713235
2.570555632
2.517228773
2.421007309
2.356044105
2.238510297
1.085997287
1.21598721
1.342691676
1.46640987
1.617869508
1.740048204
1.861317301
1.970051039
2.074873128
2.165837098
2.250713201
2.355811414
2.424497217
2.482895117
2.547539262
2.596247479
2.64597907
2.651525045
2.662308201
2.717683863
2.697764128
2.697652763
2.642754363
2.609345629
2.562857927
2.57256278
2.532288786
2.457081744
2.350151805
2.258349283
0.887689033
0.9752257068
1.101218742
1.210987604
1.351422888
1.494134345
1.627790533
1.74787281
1.86008044
1.960020645
2.062830497
2.184390732
2.245711178
2.329451881
2.403973958
2.476550556
2.519286334
2.583702387
2.596458136
2.612796725
2.637304271
2.647686368
2.645879051
2.612132444
2.604985225
2.548851767
2.519814101
2.470852897
2.361842198
2.254107261
0.7852933344
0.861126009
0.9460875784
1.045139084
1.121122964
1.222075337
1.350880562
1.504428066
1.617605053
1.7671169
1.878759076
1.968191115
2.083693595
2.177823954
2.249066999
2.308827861
2.401770049
2.480798641
2.486666249
2.516655189
2.56190181
2.601222903
2.595111068
2.629091505
2.556510979
2.544281702
2.48463373
2.473344361
2.442879427
2.324476747
0.6880690343
0.7450318238
0.8034757591
0.8820580837
0.959288933
1.045741837
1.1666657
1.270798114
1.388290445
1.50334524
1.644169171
1.771229284
1.884577492
2.008204825
2.102059092
2.186926291
2.233815481
2.348220061
2.415730874
2.446521237
2.484054443
2.53415779
2.532306762
2.509456643
2.520043436
2.515251899
2.486174666
2.446523083
2.441154529
2.402643611
0.5999254701
0.6434768893
0.7105689961
0.7659217839
0.8347044824
0.9067010325
0.9814769988
1.086180557
1.188631231
1.292280021
1.379088972
1.55334213
1.686361163
1.815461825
1.945024054
2.018518714
2.099723098
2.189233817
2.271880356
2.346616169
2.364952956
2.435923402
2.472967999
2.509583426
2.484630106
2.468654567
2.476121095
2.451654723
2.414046718
2.382689397
0.5475837771
0.578492216
0.6119151225
0.6817265758
0.7293206973
0.8025426224
0.8572519709
0.9295900968
1.011768275
1.122946828
1.237828956
1.333577907
1.444504819
1.58236835
1.70657386
1.82402787
1.949270471
2.054513427
2.134364805
2.212545793
2.249991117
2.302485441
2.410866462
2.44809976
2.461984518
2.460710826
2.489395834
2.478801576
2.451994191
2.381148418
0.5075909382
0.5328133782
0.5634685458
0.5825031173
0.6334082994
0.6856613435
0.7380021815
0.8003191129
0.887060644
0.9631864913
1.064035501
1.157011645
1.257966761
1.369162104
1.484691053
1.618360009
1.740623745
1.834819382
1.96242213
2.082578422
2.159993107
2.236056584
2.296999326
2.331352168
2.389958735
2.409774103
2.434045345
2.443003805
2.399510716
2.360706309
0.4878807377
0.4980067236
0.5233109409
0.5479432403
0.5752697833
0.6156387217
0.6617355682
0.7175230784
0.7734557028
0.8412167519
0.9050074947
0.9952429161
1.085400909
1.168914887
1.293738456
1.396807395
1.533725658
1.632854986
1.735399041
1.848422052
1.95504161
2.040111347
2.105399087
2.206820074
2.284723088
2.329501003
2.354281476
2.368815109
2.360588905
0.4702403577
0.4749337226
0.4913595294
0.5163880306
0.5418884699
0.5713225275
0.6096879192
0.625692535
0.6617794734
0.7170926319
0.7738659026
0.8329071798
0.91848449
1.003603244
1.096289436
1.208499036
1.325580468
1.453545855
1.577388243
1.655003745
1.753616538
1.884759608
1.99865888
2.063712964
2.112037916
0.4598825543
0.471908606
0.4883123813
0.5013701309
0.5136691823
0.5232757958
0.5490334335
0.5769428693
0.6050879226
0.6448947086
0.7015650342
0.7516306011
0.8064869808
0.894493206
0.9630315821
1.036401789
1.133352462
1.252535478
1.356842062
0.446505785
0.4560388731
0.466166795
0.4786930628
0.4933944136
0.5058246645
0.5244114094
0.54154885
0.5787133346
0.5966371165
0.6336382069
0.6788928772
0.7206731781
0.7785847362
0.4450073235
0.4511268886
0.4533501691
0.4636581277
0.4771697518
0.4857023078
0.4945637019
0.5102460876
0.4294107521
)
;

boundaryField
{
    flow
    {
        type            calculated;
        value           nonuniform List<scalar> 
15
(
1.690586244
1.723698176
1.829614068
1.906085639
1.966474811
2.041861499
2.123450955
2.238510297
2.258349283
2.254107261
2.324476747
2.402643611
2.382689397
2.381148418
2.360706309
)
;
    }
    obstacle
    {
        type            calculated;
        value           nonuniform List<scalar> 
30
(
1.170515405e-18
1.156536979e-18
1.154217964e-18
1.193189339e-18
1.177013508e-18
1.142793607e-18
1.179969063e-18
1.160475313e-18
1.224567045e-18
1.102910269e-18
1.132366063e-18
1.140278268e-18
1.078842069e-18
1.11789922e-18
1.191097523e-18
1.084863841e-18
1.076066318e-18
1.077259987e-18
1.081187547e-18
1.023825531e-18
1.075334234e-18
9.76752747e-19
1.037774278e-18
1.113309656e-18
1.02381172e-18
9.150741185e-19
9.239510023e-19
9.148992898e-19
8.237220284e-19
7.223160394e-19
)
;
    }
    frontAndBack
    {
        type            empty;
    }
    procBoundary1to0
    {
        type            processor;
        value           nonuniform List<scalar> 
21
(
2.982360644
2.859088092
2.654131596
2.335307349
2.025372591
1.731222052
1.426685124
1.160542033
0.9598685299
0.7972364874
0.7157765658
0.6251634228
0.5604956931
0.5161234194
0.4991531068
0.4768667105
0.4581005855
0.4481174553
0.4443306686
0.4372236915
0.4323750385
)
;
    }
    procBoundary1to3
    {
        type            processor;
        value           nonuniform List<scalar> 
36
(
2.332524489
2.172967912
2.255031286
2.30153465
2.332524489
2.311847343
1.471455811
1.591032079
1.701419277
1.813963089
1.93057395
2.172967912
2.025830525
0.8446348567
0.9169541394
1.006267672
1.084019202
1.471455811
1.19291099
0.5296483262
0.5477886906
0.5693004538
0.5996898419
0.6360287093
0.8446348567
0.6841368882
0.4317533222
0.4389211431
0.4400070625
0.4502230358
0.4622025984
0.4721535762
0.5296483262
0.4849818131
0.4317533222
0.4289771737
)
;
    }
}


// ************************************************************************* //
