/*--------------------------------*- C++ -*----------------------------------*\
| =========                 |                                                 |
| \\      /  F ield         | OpenFOAM: The Open Source CFD Toolbox           |
|  \\    /   O peration     | Version:  2406                                  |
|   \\  /    A nd           | Website:  www.openfoam.com                      |
|    \\/     M anipulation  |                                                 |
\*---------------------------------------------------------------------------*/
FoamFile
{
    version     2.0;
    format      ascii;
    arch        "LSB;label=32;scalar=64";
    class       volScalarField;
    location    "0.008";
    object      linearKE;
}
// * * * * * * * * * * * * * * * * * * * * * * * * * * * * * * * * * * * * * //

dimensions      [1 -1 -2 0 0 0 0];

internalField   nonuniform List<scalar> 
546
(
3.880783877
7.25183826
7.133381291
5.943553977
3.305994453
5.427966582
8.205457705
6.076126832
5.764347002
6.350319449
6.419965451
4.317902929
5.273344154
6.13158554
6.200911872
3.712155262
4.35961091
4.679030947
5.176867227
3.842617792
4.622089996
6.051307121
4.515327407
4.73270912
3.143254701
6.988861242
4.124071486
4.57121358
7.854516741
4.105851181
9.165394234
8.652515408
4.053566039
6.952738228
6.522480095
9.314415008
9.728073158
7.885763302
6.993448975
6.873549795
5.216961987
6.188392325
7.427823436
8.784660111
5.444065751
6.553742528
4.590263602
5.030142035
5.989589357
4.318214757
5.711062474
3.95242238
3.048979057
4.911207272
2.628742875
2.805724862
2.909853552
5.431735097
4.245896233
3.21936678
8.669080666
6.886496247
7.469575603
9.713659729
12.191389
11.57322739
6.657816343
4.911481703
7.149371126
6.313916502
5.315747003
10.41851111
8.267693496
9.082414515
7.802501859
8.58750571
6.141890634
4.04835958
4.005539528
7.706775586
7.166398877
5.900983057
9.846901018
6.815168256
5.358538792
3.919184111
6.889785001
5.756893724
4.476938831
4.034254197
11.14647367
11.8027556
13.25158299
7.355026057
9.785982734
12.89350679
15.53707732
11.18477612
10.04990264
9.973975573
5.98977602
8.510281894
6.546623115
10.55239572
8.746411001
15.94980651
5.3427696
9.762266088
6.582108348
5.792680158
3.701975995
6.746852727
5.349347794
8.939696387
7.692248264
4.718756515
4.266124627
3.012096037
5.910698817
5.664913828
10.40713743
12.44566624
10.67399314
11.99728352
9.185109599
8.485546775
11.092992
4.452098398
8.719181057
12.53912043
11.07572253
10.21780202
11.69227721
12.34282884
9.793918074
12.69206685
10.65260472
4.788113139
9.51650949
8.405067278
10.51948043
8.179131804
8.202072139
5.324865473
6.228983046
9.127463294
7.595856293
6.486088414
2.978041662
6.181650837
16.03699217
10.25563938
11.26666682
9.129701657
9.68111056
21.91864174
11.95735324
12.52212548
11.30023511
8.604967018
10.82236626
11.45928023
11.63794539
12.44408866
12.65621272
9.779385918
8.266775391
11.89635103
18.17748415
7.918680388
9.830355895
6.645623967
9.659986258
9.896653849
5.530815318
5.642097206
7.483672142
9.378808753
5.91260996
7.851359541
7.56403227
11.94244162
17.75724999
10.7528902
13.18570667
11.35509385
14.54713376
11.27251223
13.58715478
8.75625122
13.2338034
13.72485719
10.15794889
15.7472809
13.30594099
11.45679941
17.35203084
13.05856287
13.21851378
11.23675386
10.77362147
10.65316685
6.151660744
9.56862012
10.51998554
8.561793978
7.648283173
9.400217746
9.652365771
6.601186673
14.78161519
12.40303587
12.12160192
14.98098675
10.59407042
15.51716435
14.80874711
17.08315359
11.19253326
14.84437951
12.71436051
11.36617511
13.18465716
11.77318304
13.88580665
13.73127032
6.894746747
11.68791608
8.967216892
12.90827342
7.739885003
15.41059518
16.55971096
9.181938487
8.926218405
10.89046395
9.864360324
14.27509701
5.395045588
10.05454918
8.139939081
9.696271693
8.51429029
13.4533896
11.72813379
7.983068271
12.11438796
15.65852044
11.38891602
15.2248885
13.1217574
13.02551033
11.20661203
7.090693328
12.57205762
16.35969438
17.47885384
20.54492409
11.83015186
18.33825781
13.160125
10.45796089
16.92753637
14.99483256
13.37528074
12.39276781
10.27286101
9.282498659
21.17511693
3.604763899
13.71131222
7.413788419
9.558082326
7.618300904
12.89035486
9.644039783
13.12252669
17.33387254
12.57475965
23.04607639
11.87254543
11.4569101
14.59820949
8.584037229
13.62921238
13.85930557
13.6633662
13.25864487
12.62442875
18.66442316
9.117391717
9.625708105
7.655659373
12.24613986
10.92847507
5.453034906
10.31278433
12.55749481
11.8635759
7.709373739
8.430881615
11.97489021
6.453111206
7.474518957
9.997406998
11.10754956
10.021915
8.111051574
13.39851459
12.79904926
21.239152
19.00484557
13.87304588
11.12027776
8.988199779
7.184132385
19.04765545
16.10896766
8.564223401
17.22960962
6.499176213
20.49864743
18.78332687
14.99552967
11.54752558
12.20743787
10.21195892
11.7165291
13.53713491
10.60770488
11.55313348
8.166300833
8.86963671
9.400322384
13.9516311
13.09474699
7.694206632
14.00565587
9.595658802
13.27532964
12.53761328
11.614411
15.84513446
10.66565058
16.03463925
17.88278221
9.974732188
11.87309914
9.791402877
17.33402682
11.58789547
14.57816619
12.01566303
20.85475581
21.91233385
9.536366631
12.38004423
12.13543496
6.621624943
14.76335952
8.664133851
7.53999962
4.877579964
11.63327053
11.90240715
10.41217392
12.94592469
15.11918903
16.51252812
10.76657019
8.36323789
13.1906119
22.79369527
15.522059
15.97150128
19.13709068
20.52726612
23.58108389
21.58883091
19.95488435
14.86713689
18.95427077
12.2621021
10.217362
15.55897223
17.98137819
13.27219923
12.81456186
19.94705671
10.64233484
3.004982367
5.613643561
9.391682466
9.94507961
14.23707173
8.858748534
8.782702796
9.928097767
14.19116485
9.834393955
10.45967458
9.783340745
8.068541428
16.62821915
15.21797758
10.35315506
13.85179398
14.78199008
12.57179716
12.16315429
15.83066276
13.10915415
14.02617661
11.04029335
15.78595916
15.43932587
10.82020561
13.98402891
14.72207507
8.884307458
7.645149285
2.892514192
11.51385282
11.84256176
9.493191964
6.144548489
7.443126499
9.035904638
8.852530658
9.625096196
11.98846492
7.29075181
9.339796744
18.50770366
5.528161898
15.940745
6.834292448
7.504116484
18.57607352
21.98769008
8.826700222
13.21009141
14.20132358
25.13277006
20.03319925
7.850875519
13.77074051
9.238050389
12.15766327
14.76393021
10.29264906
8.873288986
15.22497168
12.87149491
8.646572208
10.44542097
5.038001669
6.449199137
4.274442735
17.67639709
13.19532204
14.09173584
13.47246818
11.84637904
11.23065267
16.215017
16.46091097
15.06157294
12.93437072
17.49358444
20.27474995
5.71250338
11.63623084
23.72192404
14.38177009
16.55314613
6.715997161
11.5624425
12.35036218
9.208928181
6.862118893
9.788386462
4.9343221
10.26051536
5.071974502
11.90912271
6.600105594
14.24386744
13.86462883
7.516343168
8.195166839
10.86480863
10.70925259
11.28206936
8.739138871
9.507016602
10.08357166
14.96711348
16.17740176
13.82504507
14.51815999
14.10935856
16.96964648
11.9082265
5.219639583
5.406334791
12.70057534
8.737600551
6.884162321
9.43806766
4.236399892
8.912543181
10.2443492
12.93736701
10.45436048
8.58499717
12.86136462
9.870068757
6.927369134
6.606580081
6.335008228
21.74600461
12.14987487
10.17050292
7.356279822
10.8030737
10.42970922
6.518249099
9.268381282
8.741515603
6.960940215
10.19290423
14.76497021
5.416751686
15.28194028
13.70796669
13.88130348
10.57714192
6.554035603
9.302875544
11.33842009
11.02954714
5.185010419
12.66457485
13.07139514
7.344245717
)
;

boundaryField
{
    flow
    {
        type            zeroGradient;
    }
    obstacle
    {
        type            calculated;
        value           nonuniform List<scalar> 
30
(
2.715145931e-18
1.114060937e-18
7.869446745e-19
1.157144528e-18
0
4.7373952e-19
5.096850276e-18
4.011640767e-18
1.077076927e-18
3.591359612e-18
0
3.156090089e-18
0
0
6.48341867e-19
7.316413707e-19
0
4.55065723e-19
1.267812486e-18
1.811735776e-18
0
4.04525249e-18
7.220371443e-19
3.108654137e-18
1.001391827e-18
8.124595773e-18
1.391155026e-18
1.010546805e-18
9.972393127e-19
1.747229728e-18
)
;
    }
    frontAndBack
    {
        type            empty;
    }
    procBoundary1to0
    {
        type            processor;
        value           nonuniform List<scalar> 
21
(
5.942682297
7.289862139
8.302091347
9.357292544
8.358814254
12.26674557
16.14048005
14.07324043
7.867490032
10.3297919
5.418859338
5.512970011
9.53279056
11.92164003
5.353275316
3.704979725
8.932076712
13.67159963
10.54273252
8.567189862
9.683329389
)
;
    }
    procBoundary1to3
    {
        type            processor;
        value           nonuniform List<scalar> 
36
(
12.9198523
14.04861093
17.35149083
15.2480429
12.9198523
11.02272509
10.2642829
16.89785582
14.25412512
16.99988409
9.879819031
14.04861093
17.23646688
13.29344367
13.13837407
10.78448767
20.78045158
10.2642829
15.31781698
8.758735881
7.012644092
9.232613171
8.235817216
16.90567798
13.29344367
11.9452307
7.24346976
4.291437511
3.377614168
8.231551544
8.920489349
9.026179236
8.758735881
5.890974017
7.24346976
12.47193941
)
;
    }
}


// ************************************************************************* //
