/*--------------------------------*- C++ -*----------------------------------*\
| =========                 |                                                 |
| \\      /  F ield         | OpenFOAM: The Open Source CFD Toolbox           |
|  \\    /   O peration     | Version:  2406                                  |
|   \\  /    A nd           | Website:  www.openfoam.com                      |
|    \\/     M anipulation  |                                                 |
\*---------------------------------------------------------------------------*/
FoamFile
{
    version     2.0;
    format      ascii;
    arch        "LSB;label=32;scalar=64";
    class       volScalarField;
    location    "0.008";
    object      linearKEMean;
}
// * * * * * * * * * * * * * * * * * * * * * * * * * * * * * * * * * * * * * //

dimensions      [1 -1 -2 0 0 0 0];

internalField   nonuniform List<scalar> 
546
(
6.998147856
6.798468238
6.563667826
6.400831266
6.211066057
6.091606364
6.091057946
5.96882874
5.873937076
5.747007043
5.620088852
5.619629015
5.478910295
5.535282503
5.411316358
5.222109025
5.049201442
5.095834893
5.048155124
4.970714833
4.956400555
4.919452869
4.865105033
4.892926719
4.704048807
4.580518431
4.409077812
4.212595187
3.999692699
3.573267249
8.776778918
8.456384826
8.164350784
7.959810062
7.748461243
7.623259219
7.353808048
7.185049138
6.987014122
6.85637148
6.678006079
6.634343705
6.524365596
6.446516206
6.316305374
6.160012605
6.00002945
5.967835851
5.835924212
5.756593984
5.69380573
5.592997492
5.540023649
5.429610762
5.304787161
5.218416502
5.01110591
4.807568142
4.511254042
4.112858761
10.26874251
10.10752104
9.846267976
9.527034598
9.14619094
8.801498411
8.640083586
8.430121516
8.268132523
8.077293236
7.870030645
7.769676798
7.540763624
7.337305696
7.239862379
7.022775623
6.970470184
6.85864403
6.654618556
6.599974955
6.35651873
6.330743725
6.291091333
6.072555024
5.887944716
5.723348408
5.605047099
5.405525572
5.168329215
4.849360682
11.37503653
11.2595244
11.14349347
10.87481101
10.69804828
10.4806342
10.13753252
9.862188385
9.560996324
9.306556878
9.081887134
8.792140098
8.649121549
8.487840444
8.251264296
8.000332765
7.870681245
7.72867859
7.584804702
7.435943522
7.262023051
7.071553541
6.950534145
6.820690657
6.685466258
6.516811123
6.248517455
6.044429468
5.884509154
5.661511502
11.85734906
11.8319194
11.99842434
11.97133571
11.79762437
11.55110637
11.28556582
11.02138208
10.85686892
10.56049589
10.26754211
10.1233911
9.901869308
9.633674575
9.381615331
9.134147474
8.820929179
8.692685847
8.501638184
8.280138302
8.111213378
7.896136609
7.755714205
7.610619915
7.426752538
7.289969533
7.192123123
6.803432164
6.529279111
6.220921649
11.92009171
12.10366915
12.30713244
12.35824359
12.29606683
12.1726023
12.13003824
11.99188918
11.79000006
11.66776036
11.50982637
11.21524614
10.93789757
10.73394365
10.43336781
10.26156984
9.942817599
9.791971193
9.579170357
9.362019238
9.001025348
8.79268605
8.596102444
8.48618919
8.295576181
8.081750286
7.810047018
7.628158777
7.377889976
7.006603474
11.66003806
12.07570362
12.24364744
12.39843397
12.6176686
12.83656495
12.81761218
12.77882828
12.67111053
12.59315212
12.3861494
12.1826142
12.03813048
11.7863685
11.48654461
11.22420508
10.99027741
10.76383859
10.58908251
10.2551705
10.06040739
9.818696004
9.593381581
9.395542664
9.27793481
8.912320138
8.701773307
8.507674293
8.184898192
7.835668601
10.96036548
11.48457374
12.01370396
12.48421849
12.66273709
12.82983882
13.10113022
13.21369476
13.19429754
13.13887829
13.10061409
13.00377214
12.74160954
12.60570754
12.47666783
12.32149829
12.04926681
11.74623064
11.56460348
11.38484232
11.17490953
10.84670461
10.57681548
10.26808492
10.01616412
9.73825134
9.55561696
9.223142885
8.997204907
8.677669322
10.50276951
10.91362108
11.41946831
11.81732547
12.34122841
12.56948201
12.8647797
13.09200097
13.33064879
13.35981665
13.42528216
13.53466702
13.50647223
13.37555276
13.27203896
13.13295684
12.9715968
12.73098266
12.4072154
12.22416727
11.88802801
11.71985248
11.36958014
11.18597889
10.90582564
10.73371989
10.36307112
10.102424
9.781224056
9.497963238
9.814048154
10.16771769
10.63915786
11.10414317
11.59666844
12.07998046
12.51174812
12.86131784
13.17086005
13.50629667
13.65679771
13.84629128
13.83670114
13.81995333
13.73781829
13.66963455
13.60842936
13.45127008
13.22818679
13.05005118
12.82593751
12.57405387
12.32083585
11.95392609
11.79843615
11.51410138
11.23659849
10.95573523
10.52892411
10.14912133
9.452793907
9.784116373
10.14832242
10.67163542
11.02254557
11.52005148
12.01201983
12.47468685
12.91228879
13.31373199
13.58242442
13.72982089
14.01051929
14.1352948
14.11775529
14.08888118
14.10721454
14.07125055
13.81938101
13.70140945
13.54496599
13.41888995
13.14505112
12.88591022
12.46549937
12.29222958
11.94285941
11.73306478
11.49956121
11.05469229
9.033303276
9.361636105
9.650147241
10.03123613
10.54510443
10.88727916
11.36551175
11.78423035
12.35922925
12.75330157
13.26331676
13.49082329
13.85906239
14.19429499
14.36996758
14.43199144
14.43866744
14.46188205
14.47226329
14.29217854
14.10274983
14.00460735
13.81174527
13.55598279
13.30879444
13.07799645
12.81933668
12.39609772
12.12291873
11.95416107
8.761247147
9.000581293
9.336777133
9.533922347
9.883746113
10.29495042
10.6844475
11.12249414
11.55897548
11.93424046
12.42174005
12.9981536
13.43925784
13.83250911
14.17572222
14.43085614
14.51426379
14.64855729
14.78289834
14.78777343
14.73135558
14.67320739
14.49814803
14.38213868
14.13017173
13.86383532
13.56608882
13.29198279
13.01033804
12.68609465
8.398567919
8.584766387
8.756354837
9.143261249
9.449221674
9.76891531
10.05592924
10.41884447
10.86109608
11.39366763
11.93836053
12.31512657
12.74694016
13.21906965
13.61146685
14.0995504
14.44596315
14.71803379
14.94397541
15.06027578
15.0540132
14.93171733
15.07094487
14.88429594
14.73745769
14.49659079
14.44629044
14.13506403
13.80735544
13.38576526
8.369741612
8.517799869
8.662335267
8.715930906
8.987913684
9.223873211
9.521647301
9.869701313
10.26793694
10.63995517
11.0997375
11.51131276
12.07780554
12.62710364
13.16038723
13.70357366
14.10673887
14.42745503
14.72668447
14.99622163
15.19578792
15.42158169
15.40998014
15.34872803
15.26825967
15.13374807
14.95450568
14.71440233
14.4689332
14.14093652
8.113833159
8.133510232
8.349037997
8.392270818
8.595021936
8.815349365
9.113018123
9.435008529
9.782392604
10.12515181
10.59063651
11.10044463
11.45654882
11.97870104
12.4521087
12.8622092
13.31485319
13.77412706
14.16726824
14.62354054
14.91998865
15.06770769
15.25876633
15.33769891
15.52008869
15.42127351
15.30994115
15.1896819
14.93530948
8.148000673
8.195354163
8.251553117
8.415317344
8.540839594
8.703108307
8.907519401
9.148170837
9.357487892
9.672994626
9.961896675
10.27483197
10.6124768
11.0263975
11.48047565
12.07576763
12.6882776
13.23390022
13.83900584
14.11323583
14.56769474
15.01409479
15.23805462
15.47499552
15.49145805
8.014024989
8.081651576
8.197297178
8.236804724
8.333991868
8.440111336
8.567601978
8.671853627
8.898626811
9.152764899
9.381908514
9.738622032
10.18936686
10.64747685
11.03548736
11.46286249
11.93507157
12.48252817
12.95721437
7.997665856
8.040035161
8.1100596
8.17656938
8.230527714
8.297923664
8.428573012
8.542424602
8.709590018
8.835197897
9.182261624
9.396909338
9.658864775
9.955485902
7.998573667
8.044673155
8.071959801
8.086077365
8.203043881
8.190916757
8.242185024
8.37394729
7.907057403
)
;

boundaryField
{
    flow
    {
        type            calculated;
        value           nonuniform List<scalar> 
15
(
3.573267249
4.112858761
4.849360682
5.661511502
6.220921649
7.006603474
7.835668601
8.677669322
9.497963238
10.14912133
11.05469229
11.95416107
12.68609465
13.38576526
14.14093652
)
;
    }
    obstacle
    {
        type            calculated;
        value           nonuniform List<scalar> 
30
(
2.336535395e-18
2.409333171e-18
2.295810084e-18
2.322308082e-18
2.19290631e-18
2.152713213e-18
2.181897318e-18
2.086297278e-18
2.131253969e-18
2.021482583e-18
2.048474616e-18
2.057007597e-18
1.986659389e-18
2.021389188e-18
2.030882655e-18
1.92400125e-18
1.88497218e-18
1.860011224e-18
1.890511333e-18
1.954040717e-18
1.838510483e-18
1.782988617e-18
1.800442311e-18
1.884433111e-18
1.790208351e-18
1.688363986e-18
1.701874118e-18
1.650543106e-18
1.495235858e-18
1.395812694e-18
)
;
    }
    frontAndBack
    {
        type            empty;
    }
    procBoundary1to0
    {
        type            processor;
        value           nonuniform List<scalar> 
21
(
7.250717612
9.088313352
10.51896825
11.54040639
11.71834377
11.57937469
11.25294939
10.52211826
9.984414518
9.460376554
9.114135141
8.795364491
8.585540562
8.348078938
8.242497578
8.099182998
8.107755041
7.946115519
7.996163938
7.928352506
7.933862069
)
;
    }
    procBoundary1to3
    {
        type            processor;
        value           nonuniform List<scalar> 
36
(
14.70208854
15.58159471
15.70494573
15.51190772
14.70208854
15.43235395
13.46427277
13.99049169
14.47306797
14.87716921
15.28111137
15.58159471
15.51946157
10.37137791
10.85099553
11.23667446
11.71863304
13.46427277
12.18460825
8.491722238
8.628675643
8.726742805
8.980105436
9.232573768
10.37137791
9.492087485
7.949680078
7.942163191
7.932530512
8.00736492
8.153723693
8.229609095
8.491722238
8.29917446
7.949680078
7.99475815
)
;
    }
}


// ************************************************************************* //
