/*--------------------------------*- C++ -*----------------------------------*\
| =========                 |                                                 |
| \\      /  F ield         | OpenFOAM: The Open Source CFD Toolbox           |
|  \\    /   O peration     | Version:  2406                                  |
|   \\  /    A nd           | Website:  www.openfoam.com                      |
|    \\/     M anipulation  |                                                 |
\*---------------------------------------------------------------------------*/
FoamFile
{
    version     2.0;
    format      ascii;
    arch        "LSB;label=32;scalar=64";
    class       volVectorField;
    location    "0.008";
    object      momentumMean;
}
// * * * * * * * * * * * * * * * * * * * * * * * * * * * * * * * * * * * * * //

dimensions      [1 -2 -1 0 0 0 0];

internalField   nonuniform List<vector> 
546
(
(0.005497321843 0.001520468603 -7.439018669e-06)
(0.005211821133 0.00152712502 -1.929249838e-05)
(0.00501622768 0.001403490941 2.156411423e-05)
(0.004841383594 0.001333259594 4.419102507e-06)
(0.004675851479 0.001307523776 -5.999395649e-05)
(0.00450339586 0.001275039461 -0.0001286423511)
(0.004460079212 0.001193904182 -7.351360693e-05)
(0.00434558143 0.001228884812 -6.41315886e-06)
(0.004170894952 0.001175450072 4.364768713e-05)
(0.004023847021 0.001108212613 1.438805793e-05)
(0.003920023253 0.001103107147 3.983763626e-05)
(0.003861709981 0.00103024395 -5.044165969e-05)
(0.00370509441 0.001055722791 -4.734255877e-05)
(0.003661216784 0.000988963315 -5.550088143e-07)
(0.003536691694 0.0009852377133 -3.820972178e-05)
(0.003415207879 0.0009649446297 -4.434799309e-05)
(0.003288019142 0.0009004241972 -6.393405957e-05)
(0.003311378918 0.0008796788422 4.025712081e-05)
(0.003208042266 0.0008962124894 -3.180504947e-05)
(0.00312706581 0.0008556172651 9.56218643e-06)
(0.003152604328 0.0008104043769 -4.201293043e-05)
(0.003192101562 0.0008635199309 2.283582002e-05)
(0.003097762666 0.0008648017945 0.0001150656783)
(0.003165834343 0.0007921123214 7.307155503e-05)
(0.003163945802 0.0008189384131 -3.553685064e-05)
(0.003117126845 0.0008741799084 2.3129359e-05)
(0.003067082914 0.0008198233803 2.070211645e-05)
(0.003147307883 0.0007904361859 5.378192117e-05)
(0.00328920047 0.0008089973134 0.0001040280881)
(0.003599710683 0.0006852293204 1.379253884e-05)
(0.008428898726 0.002621445623 -8.731059321e-05)
(0.008123801683 0.002500014878 -5.276910943e-05)
(0.007806598249 0.002342830086 2.721457586e-05)
(0.007539304105 0.002260223355 3.416937238e-05)
(0.007355672412 0.002146550186 -9.376695172e-06)
(0.007241618996 0.002067556826 -3.465164053e-05)
(0.006909987135 0.001987001025 -7.28528709e-06)
(0.0067024558 0.00195670747 -6.556060651e-05)
(0.006491295138 0.001953448978 -8.032071093e-05)
(0.006379656287 0.001822017462 -4.436929933e-05)
(0.006223535926 0.001801935585 5.867219359e-08)
(0.00605243447 0.001750651453 -4.601060115e-05)
(0.005880721883 0.001727200385 -4.344979064e-05)
(0.005729331748 0.001616564565 5.900964384e-05)
(0.005545382733 0.001598158686 6.132555957e-05)
(0.005495583841 0.001605444652 5.837595538e-05)
(0.005357757022 0.001515997996 -1.949899593e-05)
(0.005185479103 0.001437186104 7.787644559e-08)
(0.00510182711 0.001448038215 2.436950839e-05)
(0.005038518427 0.00137410151 5.958123199e-05)
(0.004976925296 0.001311961094 3.536268783e-05)
(0.004793638707 0.001332652283 7.170438596e-05)
(0.004816410423 0.00129234003 -4.149446531e-05)
(0.004733011134 0.001219283826 5.270070267e-05)
(0.004674852216 0.001277831091 -1.022284915e-05)
(0.004672605448 0.001265221027 -3.939441668e-05)
(0.004692601948 0.001252742533 0.0001084403281)
(0.004659836467 0.001111111753 7.792451414e-05)
(0.004733855407 0.001109502314 3.203407342e-05)
(0.004962489689 0.0007409995324 1.169055575e-06)
(0.01033626273 0.003319588553 -8.792295362e-05)
(0.01019602769 0.003231304746 -8.16001806e-05)
(0.009965417916 0.003202744478 -5.059008083e-05)
(0.009611134757 0.002990159134 -5.238721054e-05)
(0.009251900179 0.002816328136 2.939533206e-05)
(0.008915054041 0.002763353291 -8.666024347e-05)
(0.008714077885 0.002685479372 -8.640942681e-05)
(0.008500786499 0.002589787502 -0.0001224918376)
(0.008393099395 0.002526526627 -4.571021209e-05)
(0.008139662495 0.002412553451 -9.285014183e-06)
(0.00793165052 0.002386433164 -4.145003635e-05)
(0.007764591616 0.002351565624 2.245950118e-05)
(0.007517976093 0.002248640366 7.425689394e-05)
(0.007275180281 0.00218108857 3.221792925e-05)
(0.007130323848 0.00213742612 5.579258391e-05)
(0.00701707002 0.002031959667 4.675689889e-05)
(0.006946346225 0.002000371882 -6.113985445e-05)
(0.006785585162 0.001974661391 -3.266944446e-05)
(0.006605088026 0.00192420647 -2.342005737e-05)
(0.006482436296 0.001804718127 2.7946369e-05)
(0.006267735228 0.001774694501 5.115208936e-06)
(0.006254893021 0.001689125045 -1.92940403e-05)
(0.006175472256 0.001733671637 1.29518145e-05)
(0.005971373652 0.001637053004 3.693974077e-07)
(0.00586860063 0.001593086996 -2.582078306e-06)
(0.005757666255 0.001567646135 6.226701609e-05)
(0.005781941681 0.001512563061 3.447877402e-05)
(0.005853796753 0.001430851175 -8.767149941e-07)
(0.005870653176 0.001301564942 2.359026695e-05)
(0.005966153486 0.0008619312508 1.077127222e-05)
(0.01145163111 0.003665252434 -3.732305677e-06)
(0.01141408995 0.003676346914 -3.367968855e-05)
(0.01130833469 0.003741304809 -3.972100713e-05)
(0.01114027977 0.003658469933 -5.679344351e-05)
(0.01095125624 0.003529445647 -3.532886196e-05)
(0.01076774137 0.003352469645 -3.325041205e-05)
(0.01050203019 0.003294078052 -8.953319247e-06)
(0.01024104431 0.003209439188 1.051932534e-05)
(0.009930470485 0.003144481197 -3.465104384e-05)
(0.009656906165 0.003034924938 -7.728524974e-06)
(0.009453615793 0.002909175085 -8.772059701e-07)
(0.00912198243 0.002849479881 -1.993634972e-05)
(0.008990472674 0.002791354399 -5.516660175e-05)
(0.00884065103 0.00272832101 -5.934817642e-05)
(0.00859800474 0.002612107283 2.657789778e-06)
(0.008382049097 0.002460259864 6.897699101e-06)
(0.008246824054 0.002447697169 7.6569779e-05)
(0.008056745496 0.002428023453 1.768929601e-05)
(0.007888993178 0.002359387287 -3.006703164e-05)
(0.007717887315 0.002269753857 -1.737710388e-05)
(0.007576508907 0.002149306944 8.046242565e-05)
(0.007368869833 0.002062899659 7.833999499e-05)
(0.007221378424 0.00208093712 -1.153500357e-05)
(0.007123942903 0.002044549567 6.977421749e-05)
(0.007071544751 0.001948532751 3.356718835e-05)
(0.006981203915 0.001909596363 -4.677401433e-06)
(0.006822684922 0.001792917399 -6.346855301e-06)
(0.006822538079 0.001594702769 -1.388216316e-05)
(0.006886263783 0.001490803995 -6.905458491e-06)
(0.00692644723 0.001165543176 3.449757316e-05)
(0.01186582776 0.003737365626 1.813133043e-05)
(0.01193353944 0.003787420122 4.549164703e-05)
(0.01210462736 0.003929572415 2.196154159e-05)
(0.01215924819 0.003936380017 -1.356491881e-05)
(0.01207099141 0.003882677282 -1.198972414e-05)
(0.01186953021 0.003860475496 -3.460023879e-06)
(0.01165680567 0.003832182318 4.405701494e-05)
(0.01144408677 0.003720033657 -7.788304461e-06)
(0.01129162628 0.003665660287 -8.306653559e-05)
(0.01103878612 0.003529268328 -4.59527099e-05)
(0.01073212908 0.003474203102 -6.476185109e-05)
(0.01060760849 0.003359892682 1.914266035e-05)
(0.01042153655 0.003273197206 -1.825504942e-05)
(0.01012881732 0.003213833743 4.197373504e-06)
(0.009963382625 0.003121679967 5.473098273e-06)
(0.009691096428 0.002986871127 -3.294929097e-06)
(0.009350508215 0.002838901512 2.796707755e-05)
(0.009177315195 0.002868720319 5.324527709e-05)
(0.008987296882 0.002709959905 1.072965113e-05)
(0.008784596271 0.002667292802 2.713801805e-05)
(0.008709571652 0.002561986649 3.987795057e-05)
(0.00845113198 0.002480795794 -4.729693667e-05)
(0.008298978628 0.002401478721 3.614436139e-05)
(0.008166642045 0.002378627007 4.387505739e-05)
(0.008023951896 0.002248930382 0.0001015054102)
(0.007972094735 0.002187271562 9.542104461e-06)
(0.007977069803 0.002118642452 -4.007393174e-05)
(0.007771160134 0.001902655962 -1.830705858e-05)
(0.00766171587 0.00164043539 6.704457387e-06)
(0.007544648001 0.001412823321 -7.417125292e-06)
(0.01191444612 0.003532443439 -1.666075672e-05)
(0.012135355 0.003712357009 -1.492523319e-05)
(0.01239656792 0.003830591574 2.516037451e-06)
(0.012467797 0.003996584056 -1.45954058e-05)
(0.01248414879 0.004085297123 -1.472680498e-05)
(0.01244305034 0.00413151209 2.280897213e-05)
(0.01245005127 0.004070154923 3.132779441e-05)
(0.01236290205 0.00401136491 2.85546294e-05)
(0.01221143234 0.003983109353 -6.813399662e-06)
(0.01213324432 0.004010066376 5.092369629e-07)
(0.01201044828 0.003934740854 -3.293526452e-05)
(0.01170922499 0.003812090613 -2.175530397e-05)
(0.01145234333 0.003712700574 1.055379367e-05)
(0.01126712615 0.003647958443 2.874701235e-05)
(0.01104913781 0.003525723523 3.070683814e-05)
(0.01086610139 0.003454510675 3.230226435e-05)
(0.01060418484 0.003357551278 3.890823365e-05)
(0.01041333451 0.003279995363 5.032678202e-05)
(0.01022113475 0.003202862687 4.21307016e-05)
(0.01000780858 0.003063521979 1.153148945e-05)
(0.009672222265 0.002977315075 -2.49048818e-05)
(0.009496808125 0.002850346866 1.00332134e-05)
(0.00932815398 0.002752006336 -6.311288354e-05)
(0.009223852492 0.002728688369 3.186501678e-05)
(0.009046887751 0.002590676858 5.915612435e-05)
(0.008917632824 0.002466604333 3.634302461e-05)
(0.008753949352 0.002387799288 -4.57637686e-05)
(0.008695251618 0.002184938292 -5.159489368e-05)
(0.008564970439 0.001972954442 7.668143104e-07)
(0.008325290048 0.001714067067 -7.594680241e-05)
(0.01162725942 0.003093761318 -2.815755255e-05)
(0.01204688954 0.003404842731 -1.919014111e-05)
(0.01223427407 0.003656492019 -5.187855467e-05)
(0.01246034715 0.003876377239 -3.605667286e-05)
(0.01273835387 0.004045166966 -3.586833629e-05)
(0.01298885468 0.004185083218 -6.287538421e-05)
(0.01302606668 0.004227691063 -3.246581665e-05)
(0.01302760268 0.004284849065 -4.405634047e-05)
(0.01299531246 0.004206874739 8.842106221e-06)
(0.01294883566 0.00421840316 4.267535354e-05)
(0.01277983225 0.004267036749 2.391052401e-05)
(0.01263770028 0.004193225242 -3.796739144e-05)
(0.01255973023 0.004106868539 -2.799181935e-05)
(0.01235169409 0.004070988786 2.939398952e-05)
(0.01204147684 0.003981348865 -4.23348312e-05)
(0.01181919143 0.003869869305 4.194312144e-06)
(0.01161760776 0.003722370122 4.343703714e-06)
(0.01141846256 0.003635469857 -1.326582738e-05)
(0.01123667176 0.003560199327 2.922036364e-05)
(0.01090855037 0.003516515328 -1.925814534e-05)
(0.0107768927 0.003357214466 3.485500103e-05)
(0.01060168787 0.003275188298 -8.922290967e-06)
(0.01038320358 0.003114033401 1.757205068e-06)
(0.01023631292 0.003001396265 4.456951997e-06)
(0.01015990985 0.002999532699 4.209309779e-05)
(0.009907620644 0.002811232227 5.537963951e-05)
(0.009718990974 0.002702358472 7.005781204e-05)
(0.009584372763 0.002483325258 5.95488581e-05)
(0.009353110553 0.002320546746 2.419299123e-05)
(0.009146415134 0.002049254487 1.813376942e-05)
(0.01099303918 0.002549554256 -2.897772329e-05)
(0.01148472503 0.00293849901 -4.288299313e-05)
(0.01199489798 0.003276632467 -3.264992203e-05)
(0.01246152007 0.003570944077 -4.18259783e-05)
(0.01269957669 0.003738071184 -6.317724859e-05)
(0.01288285662 0.00400539203 -2.549184723e-05)
(0.01319498507 0.004164974715 -3.573535469e-05)
(0.01338276388 0.004278788862 3.827800741e-06)
(0.01338838449 0.004360011314 -6.256190614e-06)
(0.01338399922 0.004365306435 -5.288016076e-05)
(0.01340443179 0.004432011502 -2.520284943e-05)
(0.01337318901 0.004468283738 1.38958671e-05)
(0.01316237015 0.004374365069 7.165243201e-06)
(0.01305471534 0.004379664289 1.816316125e-05)
(0.01299090959 0.00429795452 4.644493732e-06)
(0.01285460318 0.004243294478 6.755012033e-06)
(0.01261080343 0.004120749939 4.429363932e-05)
(0.01235777219 0.004036655269 1.749350392e-05)
(0.01219028583 0.003971729422 2.4831151e-05)
(0.01204071201 0.003865265148 -4.51815394e-05)
(0.01188158627 0.003770434475 -1.74152276e-05)
(0.01157993638 0.003605308153 7.053673618e-06)
(0.01137682608 0.003494727464 -2.71226029e-05)
(0.01114234508 0.003324216292 -2.550595193e-05)
(0.01091077443 0.003280332064 -2.837376518e-05)
(0.01069091215 0.003154728105 1.447006234e-05)
(0.010567216 0.003010829989 -3.239389282e-05)
(0.01034556247 0.002781510406 8.72289108e-06)
(0.01019318772 0.002652060956 -2.518885849e-06)
(0.009998306568 0.002338696692 -2.434161446e-05)
(0.01055496988 0.002069924934 -5.72500764e-06)
(0.01094188824 0.00239812783 -1.032610547e-05)
(0.01143668016 0.002731535003 5.005918336e-06)
(0.01181535318 0.003085642722 -1.728988885e-05)
(0.01232280341 0.003394882371 1.757031219e-05)
(0.01257901797 0.003627415241 -2.257716547e-05)
(0.01290482711 0.00389638148 -3.541750327e-05)
(0.01317184598 0.004068282221 -2.33944088e-05)
(0.01340873558 0.004304179028 -2.335427403e-05)
(0.01350272173 0.004358190967 3.101446998e-05)
(0.01361884148 0.004451132844 2.118674576e-05)
(0.01373381889 0.004565385409 9.153411855e-05)
(0.01379335433 0.004553389917 3.953027258e-05)
(0.01372598816 0.004563126509 -3.099878665e-05)
(0.01367750082 0.004508657211 1.48130806e-05)
(0.01355998974 0.004506981682 3.038208433e-06)
(0.01343219815 0.004521415272 -4.985194739e-05)
(0.01325813429 0.004352457983 -4.622286343e-05)
(0.01303484462 0.004232874956 6.642958619e-07)
(0.01282087318 0.004209198294 1.715162831e-06)
(0.01258157935 0.004111546058 -5.38468407e-05)
(0.01245327997 0.003992530902 8.741662595e-06)
(0.01215572333 0.003814055861 -5.895537098e-05)
(0.01201363673 0.003709325072 -2.646952879e-05)
(0.01175077777 0.003586928799 -3.107158867e-05)
(0.0116230208 0.003483639559 -5.745698904e-05)
(0.01133736787 0.003285840708 -3.206245022e-05)
(0.0111099084 0.003130018153 -4.313288679e-05)
(0.01087965054 0.002910987248 -2.546753133e-05)
(0.01071076468 0.002663879553 -5.57308392e-06)
(0.009943489808 0.001585060586 1.462062434e-05)
(0.0102634421 0.001848997324 4.49948865e-05)
(0.01068303587 0.002205568643 4.448790039e-05)
(0.01111626483 0.002510385582 3.994750151e-05)
(0.01159816641 0.002878131848 2.961578052e-05)
(0.01208110377 0.003223970046 4.788345224e-06)
(0.01255587509 0.003498204274 2.677409507e-05)
(0.01287352848 0.003765635842 9.375143672e-06)
(0.013218263 0.003958001094 -2.588880625e-05)
(0.01354778768 0.004200328464 -3.59002083e-05)
(0.01376567579 0.004319188886 2.499410103e-05)
(0.01396464231 0.004503559107 8.249304251e-06)
(0.01401931909 0.004586206314 3.756758747e-05)
(0.0140197271 0.004659067902 2.565469165e-05)
(0.01402470019 0.004655280054 1.516268315e-05)
(0.01400042589 0.004664084421 4.79207345e-06)
(0.01396545827 0.004644308235 -1.386566426e-05)
(0.01387255737 0.004682209768 -3.920121114e-05)
(0.01371683449 0.004525399956 -8.043542257e-05)
(0.01359859202 0.004487407237 -3.149435953e-05)
(0.01341594746 0.004401108186 -7.649040766e-05)
(0.01321205805 0.004299705209 4.279909571e-06)
(0.01299830646 0.004185358862 -6.053764824e-07)
(0.01267525518 0.003997365769 -1.873038327e-05)
(0.01255782023 0.003880440503 1.38332727e-05)
(0.01232460003 0.00379142121 -3.779045131e-05)
(0.01212198566 0.003670449126 -2.033501633e-05)
(0.01192485798 0.003478236508 2.028238718e-05)
(0.01156060101 0.00321299096 1.858839763e-05)
(0.01125186489 0.002954216642 1.468881894e-05)
(0.009681993983 0.001237793564 -4.660126839e-06)
(0.009977034829 0.001494969745 3.441041701e-07)
(0.01030209362 0.001731429336 -2.400995969e-05)
(0.01075275339 0.002068758354 -1.904247383e-05)
(0.01109508069 0.002340161351 1.916521417e-05)
(0.011547919 0.002668711654 7.379419332e-05)
(0.01203671092 0.003008395431 3.568639923e-05)
(0.01250697242 0.003340707377 6.632772156e-05)
(0.01294152461 0.003610743812 2.259350077e-05)
(0.01334567858 0.003903063064 -3.303541264e-05)
(0.01363005261 0.004117829421 -2.422756934e-05)
(0.0137946582 0.00430449431 -5.809309468e-05)
(0.01407329631 0.004507516746 -4.883370924e-05)
(0.01421849442 0.004660005906 -1.907586521e-05)
(0.01427102899 0.004682077064 -1.195601517e-05)
(0.01430937527 0.00465702495 2.415996673e-05)
(0.014358615 0.004781134323 5.949994373e-05)
(0.01434163147 0.004815273046 3.472654831e-05)
(0.01418061563 0.00475920205 1.817405507e-05)
(0.01412034223 0.004673189961 5.469032267e-05)
(0.01399351184 0.004624240277 3.736888761e-05)
(0.01391515831 0.00459597228 -1.677553567e-05)
(0.01367017804 0.004480903643 -2.421581043e-06)
(0.01350059749 0.004348546366 1.688233786e-05)
(0.01312399793 0.004184859046 2.33838685e-05)
(0.01297922663 0.004034514325 5.441534168e-05)
(0.0127180145 0.003888716743 2.784207443e-05)
(0.01263027413 0.003778223364 4.830635896e-05)
(0.01245080763 0.003618150734 -4.794273577e-06)
(0.01208174763 0.003339060786 -2.560633491e-05)
(0.009298991272 0.000908648532 9.872226758e-06)
(0.009586459133 0.001141216829 1.036578194e-05)
(0.00986125371 0.001348807463 2.07383959e-05)
(0.01020829951 0.001594551237 2.557302372e-05)
(0.01066532268 0.001906102709 -4.510336945e-06)
(0.01097706849 0.002187980661 -7.983814396e-06)
(0.01142871508 0.002502282208 3.322389207e-05)
(0.01185948254 0.002744972991 2.28021643e-05)
(0.01239471817 0.003128035375 4.885036855e-05)
(0.01278911123 0.003448048777 1.639244609e-05)
(0.01327441422 0.003790038814 -6.456140811e-05)
(0.01353022277 0.004001769527 -3.286109309e-05)
(0.01388605257 0.00424691997 -1.986147448e-05)
(0.01421853357 0.004476877266 -1.090403649e-05)
(0.014395673 0.004624896835 4.959038097e-05)
(0.01455066557 0.004722144997 3.54377321e-05)
(0.01458598515 0.004781969056 2.837756219e-05)
(0.01464717036 0.004836196202 3.373065675e-05)
(0.01468980833 0.00489559302 2.445140621e-05)
(0.01458901771 0.004848809109 -9.625922149e-06)
(0.01443922196 0.004805373322 4.733343993e-05)
(0.01437609991 0.004818324422 7.370951577e-05)
(0.01421807708 0.004724090971 4.970405979e-05)
(0.01404704314 0.004597890644 2.278342392e-05)
(0.01387228874 0.004467466188 4.41011845e-05)
(0.01368067021 0.004342027533 1.345219159e-05)
(0.01347733235 0.004209085289 1.304626316e-05)
(0.01314058888 0.003999380748 1.35302679e-06)
(0.01297976018 0.003879747705 4.035755138e-05)
(0.0128991451 0.003691214046 3.603988157e-05)
(0.009066680001 0.0006592850352 -1.644806856e-05)
(0.009269817606 0.00083356779 -1.887171257e-05)
(0.009575443051 0.001040581888 -2.811659713e-05)
(0.00975747566 0.001230682085 -5.98923728e-06)
(0.01007292186 0.001472942076 -2.441478801e-05)
(0.01043934048 0.001757525868 -2.599943877e-05)
(0.01082118705 0.002007597727 -3.549032055e-05)
(0.01121658628 0.002289900201 -2.022721611e-05)
(0.01159524612 0.002632433602 -2.308221443e-05)
(0.01195521276 0.002908427951 1.110742465e-06)
(0.01242512047 0.0032100204 2.503154883e-05)
(0.01301858614 0.003563446792 -2.411165189e-05)
(0.0134995427 0.003838967416 -3.148136732e-05)
(0.01386701931 0.00416299121 -2.027835512e-05)
(0.01419724076 0.00440951886 9.731196743e-06)
(0.01445820694 0.00455316809 2.342679688e-05)
(0.01459276599 0.004673506081 3.356348391e-06)
(0.0147557708 0.004803777882 2.374280513e-05)
(0.01491048881 0.004920639294 2.632573497e-05)
(0.01497213936 0.0049508663 2.688083492e-05)
(0.01493094658 0.004912313115 4.507179762e-06)
(0.01490946324 0.004962281592 9.477624909e-06)
(0.01479926244 0.004909462702 -1.016942029e-05)
(0.01471553904 0.004848421906 5.530400344e-05)
(0.01456377147 0.004730576952 1.458120836e-05)
(0.0143750058 0.004658260115 -1.827233767e-05)
(0.01412694428 0.004533861696 3.376309339e-05)
(0.0139278952 0.004345081774 5.572019309e-05)
(0.01371849117 0.00409187208 5.189375852e-05)
(0.01347908951 0.003932393065 9.471543655e-05)
(0.008746110773 0.0005043801587 -6.478236552e-06)
(0.008908737145 0.0006037189316 -1.505152006e-05)
(0.009064575928 0.000728289373 1.847356313e-05)
(0.009420966004 0.0009135219309 -1.124041772e-05)
(0.00967181203 0.001123311007 -1.793088527e-05)
(0.009955642911 0.001330741932 -1.952857536e-05)
(0.01024071883 0.001577186048 -1.698239862e-05)
(0.01057449361 0.001869491759 -3.377693772e-05)
(0.01100027521 0.002133118859 -1.821682722e-05)
(0.01150521474 0.002450128271 -2.335772919e-06)
(0.01203287932 0.002735010481 -1.303645323e-05)
(0.01236591907 0.003028352601 1.127091485e-05)
(0.0127828823 0.003354236857 -1.630102339e-05)
(0.01325909594 0.003681132207 -6.944037843e-05)
(0.01364710584 0.004009835545 -5.480306554e-05)
(0.01411652514 0.004267727879 -1.177768548e-05)
(0.01446554108 0.004457858801 -2.705539411e-05)
(0.01479523418 0.004630193336 -1.887342167e-05)
(0.01498939859 0.004834748071 -8.539500265e-06)
(0.01515169519 0.004935065899 7.948727669e-06)
(0.01520037794 0.004970301601 1.806330508e-06)
(0.0151145318 0.004971352216 2.671815373e-05)
(0.01530898862 0.005065390885 2.420175599e-05)
(0.0152143667 0.005013479061 -1.618857573e-05)
(0.015076041 0.004958574509 4.111984898e-05)
(0.01490736597 0.004833669964 1.712497486e-05)
(0.01489141022 0.004774457923 -2.990012558e-05)
(0.01463550862 0.004629348976 -7.14850542e-06)
(0.01441155237 0.004423680838 3.437809374e-06)
(0.01408846186 0.004144930002 -1.814419738e-06)
(0.008749903367 0.0003634709327 -8.230804001e-06)
(0.008887531154 0.0004537544939 -7.872772034e-06)
(0.009008355002 0.0005365739726 -2.245717809e-05)
(0.009044328643 0.0006579612533 -1.393938309e-05)
(0.009271216071 0.0008593465673 1.75459476e-06)
(0.009497678735 0.001045516063 -1.375457719e-05)
(0.009777037263 0.001210499124 -2.561310077e-05)
(0.01007996279 0.001464797172 -3.917786063e-05)
(0.01046924608 0.001682854119 -3.407191545e-05)
(0.01082810697 0.001928139547 -3.146358531e-05)
(0.01123978771 0.002264683768 1.001599779e-05)
(0.01161049907 0.002545023576 1.515272776e-05)
(0.01217073707 0.002852621286 -9.219445692e-06)
(0.01270825738 0.00319014355 -1.96928516e-06)
(0.01322996465 0.003474896001 -2.093755689e-05)
(0.01376296506 0.003820835053 -3.552076656e-05)
(0.01414637547 0.004115462165 -1.50025086e-05)
(0.01446178379 0.004370109088 -1.982427009e-06)
(0.01479541609 0.004573739291 -3.123817727e-05)
(0.01510107395 0.004758745211 -1.59804642e-06)
(0.01533002317 0.004886199148 -1.166906412e-05)
(0.01556097242 0.005014308112 -3.75588101e-06)
(0.01557908955 0.00507795284 -5.031878599e-06)
(0.01553946665 0.005119392327 1.416171061e-05)
(0.01553266844 0.005101761946 -1.467261076e-05)
(0.01548177572 0.005017476736 1.262090419e-05)
(0.01534773611 0.004969133083 2.897464673e-06)
(0.01515141753 0.004832421778 3.732852773e-05)
(0.01495849136 0.004713014939 1.028413853e-05)
(0.01472560775 0.004532013508 -1.480129023e-05)
(0.008527057843 0.0002821209466 1.38425285e-05)
(0.008530568376 0.000325293922 8.116310706e-06)
(0.00872107277 0.0004355497433 8.28395726e-06)
(0.00875404078 0.000526934334 -2.746859869e-06)
(0.008933483242 0.0006085761766 -6.904449208e-06)
(0.009138746822 0.0007509739315 1.24775061e-05)
(0.009418300008 0.0009158992659 1.641329636e-05)
(0.009720397898 0.001080390239 1.988430465e-05)
(0.01003423871 0.001307633897 -1.60673811e-06)
(0.01036494555 0.001531567374 2.062271742e-06)
(0.01079826306 0.001800579474 6.102091953e-06)
(0.01126261859 0.002091001046 -3.337420541e-05)
(0.01160900429 0.002350735263 -1.449999737e-05)
(0.01209267367 0.002654359274 1.856996402e-05)
(0.01253009256 0.003029935956 -7.769622235e-06)
(0.01294493276 0.003326495278 -3.314679158e-06)
(0.01338355982 0.003640869627 3.01434484e-07)
(0.01384447453 0.003932400548 -9.244854381e-06)
(0.01420536695 0.004166866108 -9.195789055e-06)
(0.01466737311 0.004457960303 -3.761018319e-05)
(0.0149744924 0.004684631598 -1.215061049e-05)
(0.01514051809 0.004852406196 -6.324490549e-06)
(0.01534381144 0.004960963173 -1.218003942e-06)
(0.01549874243 0.005059858687 -6.060725426e-06)
(0.01569614801 0.005081589514 3.453365555e-05)
(0.01566939876 0.005092388435 3.473036455e-05)
(0.0156337916 0.005104027222 2.899453812e-05)
(0.01553816991 0.005018884944 -1.34372627e-06)
(0.01534704098 0.004930972933 1.350985662e-05)
(0.008559690617 0.0002269186035 1.138593745e-05)
(0.008598399262 0.0002769928191 -2.840685323e-06)
(0.008648517335 0.0003238915398 1.361498063e-06)
(0.008809943249 0.0003843064804 8.447284648e-06)
(0.008905646953 0.0004686305773 1.284112241e-05)
(0.009058714695 0.0005658554868 6.447817365e-06)
(0.009237674171 0.0006952222599 3.170464291e-06)
(0.009448031445 0.0008224474869 -1.672337579e-05)
(0.009627354149 0.0009980727621 -2.059391634e-05)
(0.009914490964 0.001182952995 -9.632894758e-06)
(0.0101815418 0.001410734645 -1.582849444e-05)
(0.01046291979 0.00163274765 -1.17047096e-05)
(0.01078813002 0.001906697232 -3.723031789e-05)
(0.0111807949 0.00213565638 -1.882304916e-05)
(0.01159785766 0.002464804282 -1.346501503e-05)
(0.01216838293 0.002800586918 -3.592745959e-05)
(0.0127520748 0.003128710543 -4.39023238e-05)
(0.01329563389 0.003475512734 -2.18847077e-05)
(0.01388543229 0.003819855447 -1.661081522e-05)
(0.01413853025 0.00404130622 -2.420465323e-05)
(0.01460089359 0.004337744358 -4.876658493e-05)
(0.01507690584 0.004590313787 -3.231426694e-05)
(0.01531799407 0.00476183667 4.086701153e-06)
(0.01554081204 0.004964208098 1.891354853e-06)
(0.01558767613 0.00500100367 -2.833811934e-05)
(0.008449388766 0.0001681898133 -1.446064799e-05)
(0.008530127501 0.0001912594231 -1.561672474e-05)
(0.008630561804 0.0002349964405 -6.529191444e-06)
(0.008647084762 0.0002947533831 -8.181991566e-06)
(0.008733137725 0.0003585647542 -8.570926632e-06)
(0.00881497194 0.0004179864444 -1.479341907e-05)
(0.008917368717 0.0004910148748 -7.191437067e-06)
(0.008996933655 0.0006214663283 -1.08320158e-07)
(0.009218840962 0.0007236751912 -5.270998559e-07)
(0.009435761405 0.0009159108839 -1.189489601e-05)
(0.009643035973 0.001090155541 -4.614276672e-06)
(0.009994538612 0.001274589605 2.93748938e-06)
(0.01040875163 0.001520577058 -9.605659348e-06)
(0.01082980768 0.001781117673 -3.174995799e-05)
(0.0112047668 0.002017553044 -5.357582817e-05)
(0.01160162714 0.002294419833 -2.447328407e-05)
(0.01203260168 0.002596757935 -3.330541558e-05)
(0.01255790367 0.002946960802 -1.815973768e-05)
(0.013012948 0.003286527238 2.603447419e-05)
(0.00844905641 0.0001241425545 -6.078176159e-06)
(0.008482855882 0.0001411193574 -1.356382512e-06)
(0.008543026389 0.0001667605965 -7.612834035e-06)
(0.008599265332 0.0002199417897 -3.239136523e-06)
(0.008639589236 0.0002829794652 -7.197160764e-06)
(0.008708789264 0.0003239956559 -3.969302427e-06)
(0.008837094657 0.0003986903446 8.287074039e-06)
(0.008938919153 0.0004764076016 -1.087792797e-05)
(0.009086814337 0.0005860813647 -2.192969192e-07)
(0.009198002788 0.0006633973105 4.503489486e-07)
(0.009501577288 0.0008298105149 1.398397655e-05)
(0.009692250954 0.001006939281 5.81053225e-06)
(0.009942838802 0.00115453824 2.276105693e-05)
(0.01021562388 0.001363359411 1.814983805e-05)
(0.008432568989 8.167236917e-05 -2.111903303e-05)
(0.008481903847 0.0001023155549 -1.412266398e-05)
(0.008510773681 0.0001409456743 -9.843875132e-06)
(0.008535782843 0.0001625948276 -1.956127061e-05)
(0.008631362214 0.0002190860917 -5.34966778e-06)
(0.008604360693 0.0002729399809 2.125906819e-06)
(0.00866435363 0.0003066075688 -2.874060394e-06)
(0.008795244709 0.0003572415309 5.746509184e-06)
(0.008363590237 5.854384767e-05 1.914613422e-05)
)
;

boundaryField
{
    flow
    {
        type            calculated;
        value           nonuniform List<vector> 
15
(
(0.003599710683 0.0006852293204 1.379253884e-05)
(0.004962489689 0.0007409995324 1.169055575e-06)
(0.005966153486 0.0008619312508 1.077127222e-05)
(0.00692644723 0.001165543176 3.449757316e-05)
(0.007544648001 0.001412823321 -7.417125292e-06)
(0.008325290048 0.001714067067 -7.594680241e-05)
(0.009146415134 0.002049254487 1.813376942e-05)
(0.009998306568 0.002338696692 -2.434161446e-05)
(0.01071076468 0.002663879553 -5.57308392e-06)
(0.01125186489 0.002954216642 1.468881894e-05)
(0.01208174763 0.003339060786 -2.560633491e-05)
(0.0128991451 0.003691214046 3.603988157e-05)
(0.01347908951 0.003932393065 9.471543655e-05)
(0.01408846186 0.004144930002 -1.814419738e-06)
(0.01472560775 0.004532013508 -1.480129023e-05)
)
;
    }
    obstacle
    {
        type            calculated;
        value           nonuniform List<vector> 
30
(
(1.272576365e-21 3.4098581e-22 -2.949207678e-23)
(1.164774877e-21 3.121004883e-22 1.708794105e-23)
(1.223086522e-21 3.277250448e-22 6.954764924e-23)
(1.221263332e-21 3.272365241e-22 -2.342596075e-23)
(1.052941419e-21 2.821348021e-22 -6.36959295e-23)
(1.051711976e-21 2.818053752e-22 -2.138053911e-23)
(1.037557264e-21 2.780126315e-22 -5.363677514e-24)
(9.241356971e-22 2.47621413e-22 -3.126170203e-23)
(1.113518842e-21 2.983664749e-22 4.537907017e-23)
(9.539242488e-22 2.556032326e-22 -1.333090443e-22)
(1.025380821e-21 2.747499621e-22 2.810767941e-24)
(8.599792335e-22 2.304307416e-22 1.029255491e-22)
(9.069899469e-22 2.430272242e-22 2.536663296e-23)
(8.943344925e-22 2.396362043e-22 -4.250705357e-23)
(7.903276194e-22 2.117676478e-22 9.156300425e-23)
(8.117453169e-22 2.175065014e-22 -6.877843326e-23)
(7.442517601e-22 1.994216584e-22 2.635425579e-23)
(8.300693623e-22 2.224164157e-22 -2.590153522e-23)
(8.363446699e-22 2.240978782e-22 -9.946441458e-23)
(9.401172337e-22 2.51903654e-22 1.539078952e-22)
(7.813591099e-22 2.093645429e-22 -1.490873039e-23)
(7.470754881e-22 2.001782731e-22 9.717039624e-24)
(7.907671801e-22 2.118854277e-22 -1.576237524e-23)
(8.23135166e-22 2.205584034e-22 -3.540303527e-23)
(7.977131458e-22 2.137465926e-22 3.522355581e-23)
(7.500935786e-22 2.00986969e-22 1.069233588e-23)
(7.548069207e-22 2.022499042e-22 3.370930857e-23)
(8.680919863e-22 2.326045471e-22 -3.894970068e-23)
(9.020640038e-22 2.417073218e-22 -1.959191645e-24)
(8.944397116e-22 2.396643977e-22 5.362129157e-23)
)
;
    }
    frontAndBack
    {
        type            empty;
    }
    procBoundary1to0
    {
        type            processor;
        value           nonuniform List<vector> 
21
(
(0.005742945999 0.001674075012 -2.529088191e-05)
(0.008733649281 0.002652105764 1.942413178e-05)
(0.01051960613 0.003422541246 -2.498090893e-05)
(0.01148295748 0.003699794072 -3.767338958e-05)
(0.01167345107 0.003605431179 -1.266934987e-06)
(0.01149903702 0.003216221687 -1.378596385e-05)
(0.01122891821 0.002754461422 -1.126105294e-05)