/*--------------------------------*- C++ -*----------------------------------*\
| =========                 |                                                 |
| \\      /  F ield         | OpenFOAM: The Open Source CFD Toolbox           |
|  \\    /   O peration     | Version:  2406                                  |
|   \\  /    A nd           | Website:  www.openfoam.com                      |
|    \\/     M anipulation  |                                                 |
\*---------------------------------------------------------------------------*/
FoamFile
{
    version     2.0;
    format      ascii;
    arch        "LSB;label=32;scalar=64";
    class       volVectorField;
    location    "0.008";
    object      momentum;
}
// * * * * * * * * * * * * * * * * * * * * * * * * * * * * * * * * * * * * * //

dimensions      [1 -2 -1 0 0 0 0];

internalField   nonuniform List<vector> 
546
(
(0.001656236059 0.004159376514 -0.001479075055)
(0.006858742211 -0.001820008023 8.515541093e-05)
(0.003009260559 0.002355788343 -0.0009548547774)
(0.003670107018 0.0007238456143 -0.0006099214896)
(0.003605872881 0.0005926624877 0.0003070762805)
(0.00460777283 0.001631511748 -0.001892123141)
(0.004922535335 0.003170651299 -0.0007048155211)
(0.005395572717 0.001149979231 -0.001698439914)
(0.004181733114 0.001882536915 -0.0009657288957)
(0.004382115469 0.002204983172 -0.0007599202039)
(0.0057300559 0.001552879283 0.0005803191)
(0.003707262737 0.002048027072 0.0008611491107)
(0.003899282228 0.000877228032 -0.0001426474847)
(0.006323711208 -0.0002921796987 -0.0006097137701)
(0.004841492482 0.00199974226 -0.0008544699586)
(0.00270383552 0.002014306254 0.0007149041856)
(0.002906539019 -0.0001367488588 0.0005354888449)
(0.004504888183 0.00140921644 -0.001173365832)
(0.006601910789 0.002395161438 2.146598804e-05)
(0.002632695414 0.002124113601 0.0002238362502)
(0.001626379599 0.0002255496918 -0.0006602564245)
(0.005779017718 0.0009305325387 0.001325875101)
(0.003460025147 0.0009406570625 -0.001660333931)
(0.0009153430706 -0.0006916773983 0.001110156901)
(0.001969162389 0.001840778028 0.001182581133)
(0.003427891115 -0.0001227124332 -0.0007678181661)
(0.001386930103 0.000835777283 -0.0008941457993)
(0.002709254833 3.463261298e-05 -0.0001798186926)
(0.008441066736 0.001661778101 0.001240030946)
(0.003235822943 0.002329411018 4.309256436e-05)
(0.008096816865 0.002702039059 -0.0005923425581)
(0.007219482786 0.002749108218 -0.001392470842)
(0.003878972222 0.001090626281 0.0003071411827)
(0.005730093741 0.003613037591 0.001048425087)
(0.004527123482 0.000597570781 0.002416716496)
(0.00898405085 0.00221171545 -0.0003961342609)
(0.01029464716 0.00236358489 -0.000513181247)
(0.007123481554 0.002010051482 -4.037609671e-05)
(0.007970874748 0.001561769511 -0.0002641815043)
(0.007532661587 0.001885032492 -0.0006954273657)
(0.005790588976 0.0004135206884 0.001309917764)
(0.005529206589 0.002221315973 -0.001337704972)
(0.007332350983 0.002795522165 0.001322063796)
(0.006584901191 0.001858262399 -0.000357458538)
(0.002209112308 0.0006996619182 0.000473583632)
(0.00731483429 0.001430105911 0.001088598196)
(0.005146854776 0.0004550261721 -0.001474316071)
(0.004572232354 0.0009912443572 0.001563994723)
(0.004487417529 0.001689454449 0.002075579306)
(0.005760223417 0.00132930135 0.0005433355176)
(0.006013597961 0.002628330053 0.0005952247109)
(0.001801492974 0.001348208775 0.002610838234)
(0.001722879187 0.0007569219603 0.002290311037)
(0.003754897273 0.002220232389 0.001206034654)
(0.002260591106 0.0007296760561 -0.001144095064)
(0.0009797265685 0.001649690604 -0.001877399322)
(0.0005313736597 0.001243779347 -0.001506026696)
(0.004251926459 0.001887623317 0.0008418038734)
(0.005976714499 0.001710378978 8.193048359e-05)
(0.003298514051 0.0007519859932 0.001603847397)
(0.009579895539 0.001246140041 0.000319817694)
(0.006661373399 0.00408850161 -0.001701233802)
(0.008916331249 0.001701898508 -0.000467568935)
(0.01097421844 0.003054226758 0.0007940662387)
(0.01284893867 0.005383585864 8.110392478e-06)
(0.01124417317 0.004161319108 0.0009331813584)
(0.006937894076 0.0004263504597 -0.001732974379)
(0.001432421212 0.003130262515 0.000340448857)
(0.007412186623 0.001704304909 0.0003497782537)
(0.00770418743 0.001600723096 -0.0007232816924)
(0.005768735839 0.00222323807 -0.0004852371194)
(0.01015166998 0.001683958296 0.0006465870892)
(0.008279469323 0.003868107437 -0.002810530163)
(0.00984153869 0.003162716753 0.0003485992086)
(0.007016711933 0.003946125913 0.0006614180369)
(0.01007008805 0.003092208956 0.001684012052)
(0.005538479552 0.003801848178 -0.001443972204)
(0.002970037209 0.0008149920553 0.0002244916762)
(0.003954963391 0.001859279896 0.00163013493)
(0.007853961152 0.001458622401 -0.003161871522)
(0.006731539587 0.000617750816 0.001904162267)
(0.00530761621 0.003663463234 0.001248688448)
(0.007983880476 0.00144905205 0.0002682261692)
(0.005828929722 -0.0004575616495 0.001547493257)
(0.006651611785 0.0004433610049 0.002437542579)
(0.00410881834 0.0007558262352 -0.0004311708474)
(0.006458690018 -0.001001791973 -0.001322056048)
(0.007340372168 0.00111806189 -0.001324322871)
(0.005303544389 0.002718597433 0.001406721653)
(0.004944811968 0.001341227121 -0.0007823348814)
(0.01095762837 0.004886587459 -0.0005260869692)
(0.01270642759 0.003094824283 0.001644632868)
(0.01323053451 0.006093042284 -0.002304442722)
(0.007476348825 0.003406194282 0.001192681612)
(0.01079017867 0.003455684289 -0.001190195834)
(0.01134913495 0.002202632614 -0.003789203136)
(0.01705550286 0.006507526634 7.478302565e-05)
(0.01302626212 0.002389201862 0.0002945800286)
(0.01012485424 0.002951076407 -0.0009047965207)
(0.009398899903 0.005640117976 -0.00116970094)
(0.006486161871 0.001481286989 -0.00033006955)
(0.008308439604 0.003772085588 0.001360742251)
(0.006719358116 0.004654281145 0.0007512793637)
(0.01036180439 0.002698787742 -0.002293885407)
(0.01025472499 0.001167010123 0.002335756336)
(0.01706016964 0.004583928342 -0.0006269288757)
(0.006421105095 0.002710825579 0.002155361401)
(0.0109076568 0.002830250964 6.145698179e-05)
(0.008054745662 0.001331402699 9.442464573e-05)
(0.005783503247 0.001299140466 -0.001723943689)
(0.004864439342 -0.0003632993328 -0.0007435840178)
(0.0057575897 0.004056816582 -0.0007009327677)
(0.007622886296 0.001378325634 0.000407812132)
(0.01097771232 0.004093571514 0.00181649533)
(0.005087294743 0.003481257971 0.0003050950283)
(0.004956560914 0.002696186381 -0.0003036535887)
(0.005708176828 -0.0006632448566 0.0008818331116)
(0.003754509246 0.0006296756413 0.001156453956)
(0.007487704521 4.435424845e-05 0.0009813978132)
(0.007455880492 0.0006126859227 -0.0003921294049)
(0.01085734997 0.004261372659 -0.0003077009198)
(0.01340764576 0.002932094555 -0.0009636823497)
(0.01063862326 0.00409626254 0.0003430486439)
(0.01186910255 0.002867064447 0.0006534615814)
(0.009595586822 0.002114472515 0.0005748468389)
(0.008348830683 0.003931430144 0.0006320082605)
(0.01125075164 0.002564862138 0.0005002037414)
(0.004487270999 0.001751110127 0.0001514235683)
(0.009719692751 0.003105835889 0.0009913481932)
(0.01326672822 0.005170395523 -0.0004986826056)
(0.0110777306 0.004957019146 -0.001447305311)
(0.01081878228 0.002944499696 8.500943807e-05)
(0.01143652241 0.003546228042 -0.002512607897)
(0.01466506822 0.003209835618 0.0006566918148)
(0.01011628705 0.003825863066 0.0001073277994)
(0.01438742174 0.003548089511 -0.001921888192)
(0.01259345816 0.001624504808 -0.0003658923654)
(0.004557198548 0.003661033628 -0.0002662112342)
(0.01010687877 0.001924428164 -0.002537456783)
(0.006704724778 0.004222051105 -0.001428380879)
(0.01181952953 0.002445734839 0.0007967361208)
(0.006382811812 0.006998962937 0.0002647095518)
(0.01032821856 0.002152820545 0.0008920765075)
(0.005976010483 0.00266573885 0.001018814254)
(0.006327170824 0.001098001573 0.0006045791723)
(0.009562455045 0.001609445184 -0.001028581344)
(0.008963492974 0.001935514284 -0.0004365594744)
(0.008087912591 0.001472545256 -0.0001742341003)
(0.003441572133 -0.0006098392194 0.001219916079)
(0.007182144631 0.001169365876 -0.0005836939169)
(0.015719108 0.005188257066 -0.000621497705)
(0.009990372677 0.002763572081 -0.001353020396)
(0.01165589976 0.003401308616 -0.0001558429295)
(0.0113316096 0.003701845347 -0.002327574184)
(0.0108110442 0.002318770928 4.904440631e-05)
(0.02062269282 0.006687718322 0.0017613676)
(0.01240433362 0.005854938652 0.0005627783104)
(0.01218683512 0.004798082279 0.001561038611)
(0.01082057848 0.003920196665 0.001389214944)
(0.008131734648 0.001901031602 -0.0009909584164)
(0.01281498359 0.003861093227 0.002061448112)
(0.01188322597 0.005919858025 -0.001293097394)
(0.01252067394 0.004509084686 -0.0004114761166)
(0.01264980182 0.003640076111 -0.001579384066)
(0.0135000932 0.004975428381 0.001284882962)
(0.01066357958 0.005123863133 -0.001349711296)
(0.008657176302 0.002605019831 0.001028874226)
(0.01230229713 0.003377866442 -7.335483931e-05)
(0.01901046808 0.00362504309 0.001317296989)
(0.009905858663 0.001050950648 0.00131453768)
(0.009402954807 0.002697102768 0.0014419084)
(0.007108841615 0.00241539278 0.002182324809)
(0.008723012841 0.003247381279 0.0002497007642)
(0.008984137668 0.003773296796 -2.981841878e-06)
(0.005095753716 0.0007523180373 0.0003430982658)
(0.006040365995 0.001781447257 0.0001843036347)
(0.008584999911 0.003657645302 0.0002237350115)
(0.009975758395 0.002874973318 -1.789575311e-05)
(0.007145174522 -0.0001571629345 5.09555166e-05)
(0.009928055038 0.00166705249 0.0005165515699)
(0.008127423727 0.004005556478 -0.0002623202796)
(0.01153239358 0.005660713656 -0.0007104519033)
(0.0165966665 0.006039288455 0.0007425140633)
(0.01135924552 0.002937628968 -0.000197314223)
(0.01307259128 0.002658930272 0.0007336486527)
(0.01098424809 0.005110977815 -0.0008577072267)
(0.01482738496 0.004600572059 0.002221830783)
(0.01209512893 0.003734761454 -0.0008707869905)
(0.01287859541 0.005654388488 0.0005907830826)
(0.008533771334 0.002239021912 0.0002411239842)
(0.01444865571 0.004094910305 0.0006316972532)
(0.01191320098 0.005257573965 0.001740714776)
(0.01080728154 0.002749724935 -0.001833687198)
(0.01523479146 0.007653800201 0.00115350333)
(0.01607941631 0.004166211181 0.001114001068)
(0.01313441113 0.0035157506 0.0005810028441)
(0.01908656354 0.003746391972 -6.683044763e-05)
(0.01600919935 0.006465743582 -0.0008717034832)
(0.01109456953 0.00571042805 -0.001119605908)
(0.01203732152 0.005412564031 0.001914473772)
(0.01210622429 0.00449459242 0.001191235239)
(0.01080679578 0.00487333804 -0.0006102786827)
(0.006930757235 0.003177939297 0.001311404621)
(0.01105800466 0.002954436904 -0.002402260018)
(0.009536915422 0.002206940954 0.002168940146)
(0.009961372443 0.002199844067 -0.0004882744527)
(0.008811941103 -4.389329133e-05 -0.0004758176127)
(0.01103516605 0.002013212416 0.0001105025427)
(0.009792391741 0.004328976254 0.002816135119)
(0.007925975511 0.0007211982609 -3.08561846e-05)
(0.01341097471 0.004272580078 0.0007422030857)
(0.01201253402 0.003750626685 0.001293396502)
(0.01196902109 0.003186282566 -0.0003417711005)
(0.0144735785 0.005644561097 0.001190096409)
(0.01170337245 0.002456038552 -0.0005181842794)
(0.01411479299 0.004496339266 0.0008424441877)
(0.01580504587 0.004168886793 0.001134180194)
(0.01751600104 0.006705345575 -0.000139504768)
(0.01169399106 0.003322807422 -0.0005411954592)
(0.01456885693 0.004190545123 0.002137342075)
(0.01282597763 0.003577549233 0.0002994248066)
(0.0112985445 0.002915185089 -0.001532263717)
(0.01327533186 0.007098714076 -0.001425384938)
(0.01357665229 0.005276569133 -0.002742178207)
(0.01619223997 0.004923341401 0.000292080663)
(0.01556935846 0.005285046821 0.001862981581)
(0.007077230396 0.001325758852 -0.0009953782232)
(0.01086584495 0.00368667918 -0.0002604526495)
(0.009713106937 0.003277893943 -0.0001146051768)
(0.01431821048 0.003369201172 -0.0005554007023)
(0.007486280575 0.004338332717 -0.0008656748861)
(0.01506069527 0.005103178487 0.00292173991)
(0.0172020481 0.007627423313 -0.001354600066)
(0.01064553177 0.001429809302 0.001268749768)
(0.008942409176 0.003155625694 0.0006197672388)
(0.01341195267 0.0009041509875 -0.001321716372)
(0.01025241538 0.002539548052 0.000391963448)
(0.01667328607 0.004487094611 7.492768629e-05)
(0.006409146718 0.0009565226343 0.001090450541)
(0.01109684041 0.001953197516 0.000924718576)
(0.008275857464 0.002699978486 -0.0003472208047)
(0.009427606718 0.003004030141 -0.0003986756669)
(0.008465724742 0.00253835474 0.0006454611841)
(0.01489596236 0.002413784204 0.0008339687172)
(0.01092286502 0.003608604029 0.0007472517814)
(0.00820005947 0.004786062751 0.0006445139181)
(0.01299011312 0.002421529458 1.66688053e-06)
(0.01558640244 0.005497292073 -0.0004378221951)
(0.01088889647 0.003385076895 -0.001213709346)
(0.0160683774 0.00533394029 -0.00101965883)
(0.01271233089 0.006311786674 -0.0004451227212)
(0.01267723074 0.004512963325 0.0002101937215)
(0.01147890238 0.003827999275 -0.0004672259175)
(0.007890501714 0.001843000097 0.0005120670983)
(0.0133283721 0.004501833156 0.002500968982)
(0.01607624075 0.005570153784 0.0001331485385)
(0.01796010766 0.003768945591 -0.0004981340191)
(0.02038926701 0.005236223518 0.003297653352)
(0.01247892912 0.005496590273 -0.0008842186738)
(0.0185807249 0.005842905192 0.001227296461)
(0.01277047558 0.004872130646 0.0009537249335)
(0.009718029867 0.002836282548 0.0004504775253)
(0.01800468145 0.004011726357 0.0004112712168)
(0.01666896869 0.004154148286 0.0006624003141)
(0.0144448665 0.004664971887 0.002757204526)
(0.01194172552 0.005473415121 -0.0005107005988)
(0.009581433182 0.005150620618 0.000460738805)
(0.009937790074 0.002717010864 -0.001627610785)
(0.02024002788 0.004607699506 0.002820200689)
(0.004249140069 0.002188504694 0.0002083255259)
(0.01392139737 0.001658993778 0.0001975896142)
(0.00751440401 0.0008646137868 0.0009949696809)
(0.009501132488 0.002176849262 -0.0001230262621)
(0.007633030646 0.0006966590614 -0.0008568863721)
(0.01291546021 0.003950799826 -0.001003803087)
(0.009393658392 0.001416562217 0.0005992697046)
(0.01204468469 0.003334957364 -0.001383169476)
(0.01498172331 0.005111011065 -0.002450568712)
(0.01218399794 0.002320031015 0.0005973880486)
(0.0204656056 0.005000224558 0.003610158338)
(0.01202424154 0.004652138282 0.001848235989)
(0.01202290084 0.004990832582 0.0007919665699)
(0.01603942172 0.005230813365 -0.002059779166)
(0.008178656144 0.003148011607 -0.002197061562)
(0.0146698675 0.003164121323 -0.001443022155)
(0.01389773126 0.007007056096 0.002385627986)
(0.0133475693 0.006657764237 0.0005520516916)
(0.01519936107 0.003873218005 -0.001899140776)
(0.01318030085 0.00455775029 -0.0008035190766)
(0.01837088541 0.005665292653 -0.002063608383)
(0.009593072941 0.004544165608 0.0004157850479)
(0.009385548297 0.004351228371 -0.0007947631157)
(0.01005374169 0.002350681377 -0.001032074385)
(0.01295880732 0.005148317069 0.00178268819)
(0.01080655134 0.003558479549 0.001272008584)
(0.006306487712 0.00499210555 -0.0009395239832)
(0.01231038483 0.001089292961 0.0009405426748)
(0.01365819248 0.003681310434 -6.069659086e-05)
(0.01180610984 0.005032847146 0.001195351792)
(0.006858211842 0.004000621759 0.0008766308142)
(0.008131795961 0.001578935733 5.987412856e-05)
(0.0118852557 0.00128072538 0.0007620984583)
(0.00631467526 0.001040768009 0.0003048767748)
(0.007473722036 0.00219329057 -0.0002011712357)
(0.01059468939 0.001344125599 -0.0009677282942)
(0.01034994323 0.004497105697 0.0005194797772)
(0.01011744312 0.001902751562 0.0008454549625)
(0.008914151193 0.001069295828 0.0007020996647)
(0.01480043428 0.003314636525 0.0005034371986)
(0.01333681816 0.004797795143 -0.0006477102936)
(0.02163292801 0.003694595276 -0.001496846845)
(0.01842951691 0.007458182569 0.0004724599803)
(0.0140131849 0.00439188519 0.0004563777946)
(0.01142532215 0.004168978233 4.431880635e-05)
(0.007871434722 0.002617354435 -0.001515164204)
(0.007917906648 0.002612290185 2.110092503e-05)
(0.02075999365 0.006796497347 -0.001686959501)
(0.01622217012 0.004386466944 -0.003269774675)
(0.01118767239 0.002639472238 -0.0007347283379)
(0.01863073834 0.00582932694 -0.002337291648)
(0.005546370276 0.004372240064 0.001308133781)
(0.01936911614 0.008825274191 3.583967001e-05)
(0.0195694952 0.00618328722 -0.001550790171)
(0.01387493075 0.003037221007 -0.0006070121181)
(0.01183037768 0.004126378939 0.0005571235203)
(0.01303815532 0.001330566701 -1.43680392e-05)
(0.01002025922 0.002337423882 0.002755044013)
(0.01291556835 0.006045806644 -0.001194275712)
(0.01393051446 0.002878928869 -0.001216489478)
(0.01141638653 0.003607983466 -0.001428521369)
(0.01169957089 0.000692336812 0.0009199815071)
(0.008411285559 -0.0008072041745 0.0007036756966)
(0.009377589362 0.003195561843 0.0002536376725)
(0.009674905327 0.001493533427 0.0008637862338)
(0.01429567893 0.0004554364765 -0.0004180758578)
(0.01304154062 0.002206250434 -0.0006640746874)
(0.008798464142 0.003269204489 -0.001264540087)
(0.01455450107 0.003152218686 -0.0006610547798)
(0.01050027344 0.002073887397 -0.0001463788679)
(0.0137619381 0.002991206887 0.0001260060344)
(0.01261552975 0.002864199822 -0.00143473667)
(0.01179375136 0.005329473178 0.001216754686)
(0.01636775923 0.004638629259 -0.002360833403)
(0.01169644439 0.003057632968 0.003395687006)
(0.01457152018 0.006035925487 -0.0002743810296)
(0.01823042866 0.006692166899 0.000285302796)
(0.01083744852 0.002538901135 0.0007172353565)
(0.01408882705 0.003926210886 -0.000852062051)
(0.009726093321 0.004340270815 0.0004594914046)
(0.01998026699 0.003651103753 0.001480016064)
(0.01076434672 0.003469519153 0.001264309502)
(0.01578459051 0.00516376426 0.0001401360263)
(0.01301053216 0.003510354885 -0.001101236309)
(0.02122489865 0.005133053682 0.001716539716)
(0.02117894805 0.007237000037 0.0001705551802)
(0.01013705931 0.002158127404 -0.001421888072)
(0.00994912737 0.006359189755 -0.001966036649)
(0.01146112885 0.006550244275 -0.0001112636893)
(0.008376953248 0.00252096499 -7.299581432e-05)
(0.01675596323 0.004214521431 0.001608641258)
(0.008953254205 0.00112588626 -0.0001156511844)
(0.008625340396 0.000767534617 -0.0003384036033)
(0.005393766195 -0.0004206541434 -6.943569316e-05)
(0.01160393905 0.00113789982 0.0003677668965)
(0.01192222053 0.004018535755 0.0002948398559)
(0.01199611399 0.0001736100891 -0.0002220599048)
(0.01258431488 0.00325848464 -0.000446388633)
(0.01646319587 0.001719832601 -0.0006037788048)
(0.01450299449 0.00480627658 0.002197182904)
(0.01043812827 0.002003900143 -0.0002614805125)
(0.008256018252 0.003690064394 -0.001256538897)
(0.01365292329 0.003136253105 -0.0002036721146)
(0.02423229739 0.0061883529 -0.000278715305)
(0.01575309284 0.004173098926 0.0005569203496)
(0.0167067414 0.00376607424 -0.0005257637434)
(0.0176090424 0.00512756835 0.000926149143)
(0.02186416912 0.006340081206 0.0005519097913)
(0.02365356745 0.006800733359 0.0004304368566)
(0.02277897943 0.00930890542 0.0005049176137)
(0.01981569532 0.006201012296 0.001059688086)
(0.01491023444 0.004102033629 -0.001391097875)
(0.01938825102 0.007525387495 0.001676544863)
(0.01299971722 0.001707405575 -3.237315125e-05)
(0.01027296013 0.004998299702 0.003004229958)
(0.01688967075 0.003650938523 -0.001208741354)
(0.01828042302 0.007725014559 -0.0008419483245)
(0.01254115321 0.006570481101 -0.003236226453)
(0.01378262704 0.004170150342 0.001515765797)
(0.02000004506 0.00639626999 -0.0007912339287)
(0.01073865213 0.002834348852 0.0005886886102)
(0.003087173141 0.0007507822163 0.0002486674712)
(0.004808623101 -0.0009084332236 0.0009556434348)
(0.009994960548 0.0003015267956 0.0001740057318)
(0.01076107114 0.001934886656 -0.00161735415)
(0.01332874782 0.001759899685 -0.001113931477)
(0.008438692889 0.001518547314 -0.0001985733844)
(0.008844777375 0.000889340479 -0.0006785631862)
(0.009113668526 0.0007995141394 -0.002525693641)
(0.01431234528 0.004250184215 0.0001403323877)
(0.01082986444 0.002129195069 0.0002045514754)
(0.01006676853 0.00333484022 -0.0003141424196)
(0.009061463715 0.003358684207 -0.0004368710433)
(0.009722823298 0.002063346059 -0.0004754999498)
(0.01686571386 0.00622932488 2.17327953e-05)
(0.01629546008 0.005173543426 0.0002014094121)
(0.01144429905 0.003215713192 0.001072891929)
(0.01461823093 0.006338393973 -6.796655378e-05)
(0.01503945619 0.004136680943 0.0009586147596)
(0.01204260488 0.004746486219 -8.296760972e-05)
(0.01181064431 0.003239380769 0.0003417193175)
(0.01550228293 0.005218668522 0.002291154394)
(0.01395581046 0.003847850023 -0.0007414586573)
(0.01360626862 0.006971232801 0.000525674227)
(0.01170348714 0.003735971508 0.0005796495094)
(0.01659174706 0.005249798367 -5.172568236e-05)
(0.01469868342 0.005857934719 0.002023038193)
(0.01259328242 0.004595122805 0.001617999347)
(0.01395041629 0.003535668468 -0.001163162194)
(0.0161647655 0.004520219681 -0.0003552760578)
(0.008891609291 0.003492866244 -0.0001928480722)
(0.008259170765 0.0001795050079 -3.41718102e-05)
(0.002865825636 0.000850537159 -0.0001920169515)
(0.01170148027 0.0001713914196 -0.0001481334208)
(0.01232030983 0.0002794956777 0.0006798412209)
(0.009050284729 0.0004667121344 -0.0005805515123)
(0.006220886952 1.164053562e-05 -0.0004433273335)
(0.008272029225 0.0004316912166 0.0005942730825)
(0.01035715708 0.001794104625 9.675540256e-05)
(0.01025163337 0.0002260567583 0.0001424659091)
(0.008770345991 0.001786031294 -0.0003820068845)
(0.01140543727 0.002327495326 0.0006260148691)
(0.007873508602 0.0003943075924 0.0001854546239)
(0.01044750845 0.0005376334561 -0.0004103221454)
(0.01756889738 0.004405056894 0.000826445122)
(0.005588923829 0.003144684748 -0.0003515192532)
(0.01479704302 0.00670849093 0.0001772090544)
(0.007740773285 0.003874630038 -0.0008673254478)
(0.007421045922 0.002551084757 0.0003008231805)
(0.02056910433 0.00426133551 -0.001573451324)
(0.02167924304 0.00692880899 -0.002646663687)
(0.00990840172 0.004480975921 -0.0002720770284)
(0.01455059302 0.005776075002 -0.0009403849574)
(0.01490263676 0.004724630276 -0.0003109283369)
(0.02370349882 0.00763203317 0.0007515085473)
(0.02028498572 0.004537696552 -0.0004907404506)
(0.008470286291 0.001237921722 -0.0001587219658)
(0.01304262659 0.006151878873 0.0005593006394)
(0.00963857105 0.003070299119 -8.579501886e-05)
(0.01205060281 0.005102695641 -0.0002945501846)
(0.01686032569 0.004426175408 0.0006188277022)
(0.01110198097 -0.0006616852848 0.0005859206092)
(0.00915954854 9.531266528e-05 0.0005503613157)
(0.01568114272 0.001161407026 0.0004070179131)
(0.01435744919 0.0003829537015 -0.0004099535043)
(0.009792351717 0.001095040851 -0.0004869994517)
(0.01071486709 -0.0004144273985 -0.0001849735556)
(0.004932545766 0.001825974421 0.0002007080129)
(0.006584862059 0.0003414386658 -0.000267425927)
(0.004525558487 0.0004231040224 -0.0001481108479)
(0.01899252701 0.002239007279 0.0004514310232)
(0.01302655983 0.002255450766 0.0003863534669)
(0.01420907174 0.00466699082 0.001847886262)
(0.01414018148 0.001622692808 -0.0003015116956)
(0.01229766162 0.003472777041 -0.0005792791678)
(0.01060936174 0.002944468296 -0.0002949814253)
(0.01448458 0.005192210552 -0.0004239757321)
(0.01447056771 0.005283251884 -0.0002735365808)
(0.01553470402 0.00158611737 -0.000104554625)
(0.01386048851 0.002482285188 -0.0003016838606)
(0.01789964652 0.004491470888 0.0001626920666)
(0.01799435197 0.00649468796 -0.0002067357628)
(0.00600918288 0.001785646642 0.0001116479614)
(0.01228817549 0.004019263917 0.0002079429908)
(0.02470452158 0.007593192769 -0.0006812547185)
(0.01407080189 0.002704519887 0.001752217954)
(0.01733285336 0.006333890425 0.0005407793947)
(0.008516339494 0.002100722901 -0.001215218681)
(0.01089566968 0.002810996729 -0.0003855782082)
(0.01171266463 0.004736747919 0.002089779884)
(0.008652466702 0.0007959514802 0.0001174964141)
(0.00636107603 0.0003632775762 0.0004495057369)
(0.009843803577 0.00166341016 -0.0004244885088)
(0.005435324998 -0.0002637240617 0.0005122349807)
(0.009199864125 0.0005191407008 -0.0006606621961)
(0.005556561187 -0.0005135815218 0.00019562989)
(0.0109502459 0.001670855077 -0.001033031858)
(0.007203032383 0.0007100206629 -0.000172879328)
(0.01363152807 0.001254072112 -0.001560492228)
(0.01386496442 0.003444338169 0.0006867243308)
(0.007723539114 8.047921922e-05 -0.0003862395515)
(0.00900978346 0.001106862172 0.0001813416848)
(0.01175329421 0.001250169249 -0.0002374536929)
(0.01109119963 0.001394529912 0.0002790063154)
(0.01322858316 0.001004547282 0.0005266871621)
(0.009433750176 -5.49499289e-05 0.0004874971046)
(0.009551140891 0.001789362237 0.001296633795)
(0.01006160051 0.004174259464 -0.0007570706867)
(0.01544891081 0.002484554855 0.0001129181883)
(0.0175818455 0.002804498475 -0.002414743399)
(0.01409394028 0.003037910294 -0.0007123738854)
(0.01545552098 0.005240029441 -0.001296782199)
(0.01294476892 0.003060219237 -0.003443298351)
(0.01698322336 0.007555062555 -0.000243468759)
(0.01358253841 0.006506379943 0.0005615398588)
(0.005628208696 0.0002598660439 0.0003484424541)
(0.005827583611 0.0001352391775 -0.0007101965912)
(0.01295334255 -0.00122523542 0.001137625254)
(0.009419260699 -0.0007172633592 0.0006584533366)
(0.007044231652 0.0001427443421 0.0001068620868)
(0.01001083607 -0.0001740598513 0.0004279235679)
(0.004666975681 0.0003144854614 0.0001726794983)
(0.009392028643 -0.0004197648945 -0.0010094497)
(0.01035116727 0.001555300073 0.0008485395207)
(0.0126298643 0.0003106567743 0.0002896985576)
(0.01146724157 0.001179705733 -0.0006309079309)
(0.009015990779 0.001509574888 -0.0001358866465)
(0.01372677539 0.0002425314878 0.0006527980676)
(0.00985537233 0.0007102957033 -0.0006219906446)
(0.00831806507 0.001155977425 -6.031841129e-05)
(0.007186739412 0.0001011046474 -0.0003063152486)
(0.006862002616 0.0009943288307 -0.0007743197035)
(0.02039086894 0.004057856574 0.00107369285)
(0.01240842618 0.003448497277 0.001852287187)
(0.0104902943 -0.0008922999823 -0.0002881640654)
(0.008495649364 0.0007023038246 -0.000128819268)
(0.01131472813 0.0002459617072 -0.0002421091328)
(0.01080426447 -0.0007525960246 0.000172984055)
(0.006463666718 8.51883028e-05 -0.0005709706592)
(0.008923032422 0.0001507443486 0.0007415732109)
(0.009546210865 5.427295112e-05 -4.508858321e-05)
(0.007369576898 0.0002271228156 0.000193119481)
(0.01035011424 0.001453954375 0.0005326853944)
(0.01433013677 0.001993654172 -0.0005149139329)
(0.00595151521 0.0005814720495 -0.0005626947636)
(0.01491428359 0.0003216448061 -0.0005461254242)
(0.01384521854 0.001881592572 -0.0002166573938)
(0.01361284801 0.001140555279 -0.000486822087)
(0.01078589431 -0.0003361096223 -0.0004948841666)
(0.006557494147 0.0003844617625 -2.72789463e-05)
(0.00956527333 -8.103931601e-05 -0.0003801384614)
(0.01138726872 0.001056904773 1.683800147e-05)
(0.01029906386 0.001800990586 -0.0005279974306)
(0.004729442116 0.0002572460304 0.0002685183064)
(0.01403154263 0.0002645849383 -0.0005857585987)
(0.01389301704 0.0003529775824 0.0005754265922)
(0.00810870862 -5.124680693e-05 -0.0005325596551)
)
;

boundaryField
{
    flow
    {
        type            zeroGradient;
    }
    obstacle
    {
        type            calculated;
        value           nonuniform List<vector> 
30
(
(2.515850971e-21 6.741202373e-22 -1.985777115e-21)
(-1.71724949e-21 -4.60135615e-22 1.533510265e-21)
(-1.374322207e-21 -3.682485245e-22 1.489239858e-21)
(-1.079879237e-21 -2.893527701e-22 -9.108053968e-22)
(0 0 0)
(5.03369149e-22 1.348773572e-22 -3.492057929e-22)
(-2.281242719e-21 -6.112571453e-22 4.671782989e-21)
(4.721873565e-21 1.265222205e-21 -1.077892109e-22)
(1.183102619e-21 3.170113919e-22 -8.537586299e-22)
(-9.152546748e-22 -2.452417514e-22 2.29910628e-21)
(0 0 0)
(1.603418132e-21 4.296345945e-22 -4.594210533e-22)
(0 0 0)
(0 0 0)
(-1.779203006e-22 -4.767360095e-23 -3.335183075e-22)
(6.514997846e-22 1.745688406e-22 1.65702737e-22)
(0 0 0)
(7.79214573e-22 2.087899159e-22 1.563800748e-22)
(8.258371387e-22 2.212823937e-22 -1.368514814e-21)
(1.708956948e-21 4.579136349e-22 -6.357427937e-22)
(0 0 0)
(2.403612359e-21 6.440459884e-22 3.962352552e-21)
(8.365117392e-22 2.241426454e-22 6.855738312e-22)
(1.248960903e-21 3.346580659e-22 -1.085917105e-21)
(-8.267581184e-22 -2.215291695e-22 -1.717672077e-21)
(5.917793773e-21 1.585668065e-21 1.534145376e-21)
(-4.182415689e-22 -1.120674903e-22 -1.196132629e-21)
(4.97019483e-22 1.331759693e-22 1.362440757e-22)
(9.725584527e-22 2.605962525e-22 -5.348835382e-22)
(-2.239894243e-21 -6.001778518e-22 6.148843746e-22)
)
;
    }
    frontAndBack
    {
        type            empty;
    }
    procBoundary1to0
    {
        type            processor;
        value           nonuniform List<vector> 
21
(
(0.00509742635 0.0008315889127 0.0004734669945)
(0.007008643402 0.002210399928 0.002404965618)
(0.00892252004 0.003515518973 -0.0001034892828)
(0.009843578502 0.003658301235 -0.0007650397427)
(0.00871100687 0.002225334727 -0.0008580873164)
(0.01140001558 0.003562420785 0.0006573875785)
(0.01618386422 0.001039141606 -0.0007977710583)
(0.01488102921 0.002063552076 -0.0006233707623)
(0.008585067168 0.001857202118 0.0002433442208)
(0.01095515807 0.0007726818047 0.001058660489)
(0.0060482325 0.0005132529815 -0.0004480474173)
(0.005042189547 0.002436096314 0.0004786362879)
(0.00944608266 0.000810175707 0.0002685261318)
(0.01214544333 0.000927463623 -0.0004860265688)
(0.006077367838 0.0004397373041 0.0001051306246)
(0.004016283689 0.0007539280334 -0.0001483951024)
(0.009599654852 0.0002074908856 0.0005111061247)
(0.01338603526 0.0004010125901 -0.0007478222591)
(0.01168973386 -8.815019815e-05 0.0001537479073)
(0.009254364737 -3.620009348e-05 0.0006591241912)
(0.01008648248 0.0007230190896 0.0004077442731)
)
;
    }
    procBoundary1to3
    {
        type            processor;
        value           nonuniform List<vector> 
36
(
(0.0131428753 0.005901828916 -0.001245686842)
(0.01466604381 0.00527014248 0.0002907994364)
(0.01844294766 0.00444646753 0.0008300627885)
(0.01445968864 0.006899884673 0.0006788547514)
(0.0131428753 0.005901828916 -0.001245686842)
(0.01151630732 0.003130359523 0.002078421366)
(0.01004888946 0.001630147146 0.0002745028291)