/*--------------------------------*- C++ -*----------------------------------*\
| =========                 |                                                 |
| \\      /  F ield         | OpenFOAM: The Open Source CFD Toolbox           |
|  \\    /   O peration     | Version:  2406                                  |
|   \\  /    A nd           | Website:  www.openfoam.com                      |
|    \\/     M anipulation  |                                                 |
\*---------------------------------------------------------------------------*/
FoamFile
{
    version     2.0;
    format      ascii;
    arch        "LSB;label=32;scalar=64";
    class       volScalarField;
    location    "0.008";
    object      overallT;
}
// * * * * * * * * * * * * * * * * * * * * * * * * * * * * * * * * * * * * * //

dimensions      [1 2 -2 0 0 0 0];

internalField   nonuniform List<scalar> 
546
(
842.2634431
828.3916658
816.1181307
809.330643
801.2181506
796.8398663
798.6219462
780.9986972
774.5630023
771.2943572
766.1811312
764.1802271
761.5968646
767.2579411
758.3012213
748.9774729
744.8012792
736.7106434
733.3024103
735.0009164
737.2997803
722.8950584
724.8425306
733.2303334
723.8155258
719.8757953
723.4489194
719.2134951
709.5881386
702.1624815
916.8255171
910.2456642
906.4157191
900.174372
894.9787542
887.4655118
880.9184264
870.8845859
866.1306297
863.3494147
851.2337768
852.4429411
848.7773542
849.0555872
846.665231
828.1985205
821.8078508
820.9245569
815.8224959
812.4035484
810.5174648
808.2543749
804.4118256
796.8089452
794.9406407
783.6699374
774.4002606
777.0463481
759.0138809
729.1143784
926.2774524
926.3198503
925.0415267
930.0653443
926.5684874
915.7756064
913.7752094
913.768464
899.5185326
904.25141
896.2995898
891.6369739
886.9874904
886.5114357
883.6333024
877.3989666
872.1626462
861.8521695
855.310932
860.4273516
853.8916235
851.4286216
839.8057859
842.3292844
836.6830972
824.7939884
811.8899815
797.8334478
782.8258679
752.1874745
908.274761
906.5873151
916.5910314
907.2623244
915.6418507
920.1026644
910.8509275
907.583047
909.8938469
910.6058769
908.5415842
908.6661427
904.9097905
901.2466056
893.8115502
891.0038745
885.7684076
878.3155764
881.1603041
879.0928476
877.873856
872.7994697
866.9622766
861.3323279
860.0400467
844.7333699
837.4677909
812.2737617
783.9684747
754.021798
878.3385411
880.9567414
892.5686452
890.808731
891.6943161
892.4088602
889.804578
892.2358419
900.1279652
897.4862971
900.977146
900.682012
899.7083373
899.7655626
891.8869271
888.991011
891.1783875
891.5959437
893.0068866
888.0506801
876.1418403
879.3874151
878.6978816
877.7844148
872.6946606
856.341941
846.2112565
821.6099216
801.0175286
765.8559963
847.5618498
852.8077564
859.177425
866.8328733
863.7658107
864.9717262
871.397474
875.5247878
874.9504873
875.5000216
878.9132934
883.6699317
885.9870337
889.3628753
885.7238706
887.707383
883.3457341
885.9327509
885.6480447
884.1629766
875.5304639
875.5565566
878.2234035
877.5082406
868.8284828
855.2830788
840.5360869
823.9857622
805.1359748
778.7916497
812.0492504
820.3626225
830.4170241
829.961038
840.0886195
843.7019689
844.3005445
846.6605997
849.5702354
855.0641804
859.5917613
866.7261572
866.0188319
866.143156
872.2373321
870.4806419
876.222723
878.9375678
878.977839
879.2518575
873.9970345
861.7430402
867.2059003
864.6958757
857.0506065
841.8303361
832.2022778
830.2226983
814.9058996
783.4682485
766.4044535
781.3567313
789.0021217
801.5833214
806.2640089
814.9247214
822.6369594
819.0591791
823.3626719
830.5432682
833.5126626
834.8467838
838.6475284
846.2279221
848.8318516
850.6709905
859.3194881
860.3974416
861.3764219
865.1443058
863.3197183
857.6244944
851.6118072
849.2077313
848.6849671
843.3493617
835.6566326
819.6992364
808.0793621
786.6124735
716.0656888
738.1083812
751.8925211
764.410544
777.8620129
787.1847637
792.0206089
794.4056667
800.2618739
804.2203378
806.8683577
819.4542962
820.1435814
821.6092259
828.5280264
835.4339015
839.0723234
840.9614927
838.1174193
851.5177665
843.3183552
844.6698375
841.5165378
836.8750552
835.5550877
835.5314391
829.8966857
823.4263644
806.3276329
787.457712
659.2354049
681.3570584
708.5340373
728.515105
742.1368227
751.6182439
756.7155911
771.2817872
775.6199688
782.6336698
785.141529
795.7971461
794.3895791
805.1214209
806.9076877
812.2692493
817.3954324
820.2860627
822.3680006
821.5817858
827.1347632
829.3027963
830.4250489
831.3718585
832.0782318
824.5963609
817.5323263
809.2180005
799.296201
784.7229145
599.4564294
629.3318999
656.0474437
682.4107486
694.2772192
710.3214558
721.4198131
735.5777513
743.3088829
757.1574407
764.2140203
767.9830902
777.450848
785.1486825
787.4243163
790.1911933
795.4512239
806.8395028
802.9943706
804.2793741
813.6727803
815.6753476
819.5804932
821.4159633
815.6158558
818.8801302
809.0980676
798.0922624
793.2340621
778.8302014
553.7825152
585.9177588
601.9183138
628.8790684
647.7703584
667.7510265
690.7325489
702.211637
714.2864117
722.4612645
731.8145732
744.1524462
753.0525848
764.3256022
771.3175716
768.7959771
772.0628786
785.5230224
790.5304179
790.0159633
795.8359669
801.7487054
803.4190791
798.9089031
799.5608936
801.3428715
798.0284164
792.7657259
785.6624396
775.5161836
496.7479931
525.4008666
555.1780944
581.6792652
606.7477072
631.6933723
644.9473016
665.4501145
684.9001624
700.4251533
707.0214874
722.3339829
727.5955847
738.3906402
750.8186945
753.6794427
756.7586396
762.9718445
767.9552841
773.3253741
776.6619894
783.9371217
786.2311449
793.2679483
785.9233929
779.7259179
782.0717892
779.9289533
776.4023161
768.3862093
456.5243689
481.6198112
502.5286359
533.7418423
563.3974576
592.5019534
605.2102914
624.8608752
641.7112627
662.72076
678.1128239
692.0984998
701.4639723
713.6228452
723.5383439
729.9642691
742.252832
743.7856882
750.1402
753.3396155
752.3082612
759.1811116
766.237178
767.6535087
770.2845107
769.0009978
774.2857809
774.6385973
767.916464
758.2688894
416.9592014
434.6797236
459.6334871
477.7578913
511.3901533
535.6928162
555.2983231
582.4038687
605.9581807
623.0113727
644.3071199
663.3159678
673.2775545
681.6783768
691.1488259
703.3679093
712.4508283
716.4843803
724.5255756
732.5838377
735.6866017
741.135032
746.2907404
748.6048056
753.3355992
750.5179419
754.1212998
758.7949445
752.1162405
742.8245536
396.1881838
409.4028998
430.0006402
448.2378419
467.7854984
492.416821
518.4855597
541.6501343
563.1476481
579.9140886
597.0385747
620.5422188
631.8117054
645.6156187
667.9459601
675.5152086
691.4458728
695.9089807
706.7873003
711.0539033
716.0368113
721.2170053
726.4218776
731.3109339
738.2321241
737.6365981
734.7400707
738.6526184
736.4192049
373.9221911
380.754427
394.5164445
414.369387
435.9399554
453.8199832
477.362482
494.3312178
516.7797764
541.695236
564.7955262
585.7331759
602.9516745
619.1343041
638.9936099
652.4868063
668.0718117
678.4432248
687.6413595
692.7892549
695.3189694
704.6673442
711.2324315
717.2398532
717.2212335
359.2000443
365.7428785
382.7714803
396.2762163
407.8670279
421.0972408
439.5510255
463.5551398
478.6612068
504.2232453
528.5070616
544.423497
564.1186519
589.7190681
605.7253713
620.6885552
637.5382129
652.4727862
662.2547509
343.8338494
353.1203621
358.3768769
372.846436
389.3302051
400.3794863
411.7828917
426.4452215
450.3137042
461.9508739
487.6021924
509.2364052
525.6067524
547.6956069
337.5152534
339.2420147
343.148642
351.0949553
367.7970319
381.3661598
385.6911514
396.5592931
323.6575838
)
;

boundaryField
{
    flow
    {
        type            calculated;
        value           nonuniform List<scalar> 
15
(
702.1624815
729.1143784
752.1874745
754.021798
765.8559963
778.7916497
783.4682485
786.6124735
787.457712
784.7229145
778.8302014
775.5161836
768.3862093
758.2688894
742.8245536
)
;
    }
    obstacle
    {
        type            calculated;
        value           nonuniform List<scalar> 
30
(
733.8386892
735.4514333
712.5388403
717.2822751
710.7997647
712.9343605
699.86187
713.0111502
683.1979652
679.3525138
694.5761827
671.9050275
679.3074577
682.9987304
688.0461656
683.3172373
680.3064875
671.3026926
655.0937491
650.3616792
680.5077148
661.7726658
650.9994529
687.1263372
671.7806494
672.7689132
681.5226302
662.0687882
663.8090034
681.9062198
)
;
    }
    frontAndBack
    {
        type            empty;
    }
    procBoundary1to0
    {
        type            processor;
        value           nonuniform List<scalar> 
21
(
849.8626965
929.0038136
927.4130005
913.9302491
878.5420742
848.637225
797.691616
745.6989434
690.2218708
630.4112593
572.5498976
518.7805034
471.0173386
433.3955237
405.5289709
381.4549336
358.9088657
345.1663289
336.5241973
327.4054334
322.3350599
)
;
    }
    procBoundary1to3
    {
        type            processor;
        value           nonuniform List<scalar> 
36
(
732.3867602
723.6609017
727.0179441
729.1774896
732.3867602
723.6174493
672.0034047
684.464356
693.8136328
694.6416455
704.6529979
723.6609017
707.1585929
569.2387494
590.3794858
605.466453
622.9859403
672.0034047
635.6437022
416.6625309
431.59683
447.6693005
473.1047011
490.0526212
569.2387494
510.6939085
325.0303036
332.3610729
337.5198221
350.4681366
361.2914621
369.9021624
416.6625309
377.2921343
325.0303036
318.4094478
)
;
    }
}


// ************************************************************************* //
