/*--------------------------------*- C++ -*----------------------------------*\
| =========                 |                                                 |
| \\      /  F ield         | OpenFOAM: The Open Source CFD Toolbox           |
|  \\    /   O peration     | Version:  2406                                  |
|   \\  /    A nd           | Website:  www.openfoam.com                      |
|    \\/     M anipulation  |                                                 |
\*---------------------------------------------------------------------------*/
FoamFile
{
    version     2.0;
    format      ascii;
    arch        "LSB;label=32;scalar=64";
    class       volScalarField;
    location    "0.008";
    object      p;
}
// * * * * * * * * * * * * * * * * * * * * * * * * * * * * * * * * * * * * * //

dimensions      [1 -1 -2 0 0 0 0];

internalField   nonuniform List<scalar> 
546
(
3.923657125
3.863950799
3.754168071
3.691361958
3.595650282
3.551688098
3.572073265
3.513232494
3.488023179
3.430487491
3.361380939
3.378294186
3.303990352
3.357541921
3.29541338
3.184492674
3.081896491
3.117925921
3.102117461
3.060734456
3.046261182
3.016184148
2.990335059
2.998888849
2.862083623
2.778892348
2.663435512
2.508273258
2.313998009
1.882099911
3.885077623
3.808792985
3.741811154
3.72995414
3.663012568
3.655079291
3.592799609
3.55577281
3.480063149
3.438116411
3.372396747
3.415413998
3.396576651
3.402046745
3.362955464
3.266777508
3.191091591
3.234373021
3.159728343
3.124799692
3.099878731
3.071079173
3.029499028
2.972042977
2.884268425
2.822472854
2.649398242
2.494120125
2.202613397
1.718013642
3.665201343
3.695978941
3.646060952
3.634797152
3.56579312
3.515923725
3.518061959
3.489512632
3.46738032
3.442153299
3.396555284
3.432123505
3.379442963
3.343775385
3.340924754
3.213281821
3.231224013
3.220317677
3.132458063
3.155662838
3.040622452
3.037746163
3.062544895
2.947863232
2.831857865
2.745532276
2.63981715
2.427135154
2.172055654
1.773392536
3.428575687
3.41830458
3.499597303
3.442661406
3.503528082
3.493711965
3.437589956
3.407944831
3.398932182
3.385648101
3.357863987
3.329351519
3.319186385
3.298985617
3.253274787
3.182201697
3.161274173
3.161870455
3.143836764
3.127834451
3.062309347
3.026897394
2.997090822
2.929457265
2.844092028
2.744102063
2.598897164
2.377368559
2.184373414
1.898025186
3.122211568
3.141503617
3.272695552
3.316335903
3.353195697
3.314596486
3.281159314
3.275395222
3.326280596
3.28936138
3.278831402
3.302683276
3.284690368
3.264788598
3.194549835
3.184952871
3.132894257
3.152772422
3.149117394
3.087088316
3.01184878
2.971666204
2.945085095
2.895777838
2.817939777
2.734794226
2.661207798
2.397633411
2.193578035
1.908816484
2.836631141
2.934817199
3.027460072
3.089066261
3.111692537
3.090986516
3.138826822
3.183315647
3.183930304
3.178540394
3.209785844
3.211104701
3.197394887
3.218862043
3.147743467
3.17164941
3.082330607
3.14138728
3.109188073
3.097227359
3.005581926
2.933881928
2.896726362
2.902555898
2.830864328
2.717276362
2.57490639
2.442539296
2.276982377
1.982760807
2.518540129
2.66559127
2.749820044
2.809390417
2.918953948
2.992702531
3.000505396
3.048272919
3.040434481
3.099688793
3.11702031
3.156209363
3.134403675
3.12426159
3.124602758
3.076827984
3.103727588
3.108024383
3.094930159
3.047580286
2.997006192
2.926340359
2.904103684
2.847888191
2.810727651
2.654135293
2.571299452
2.493160438
2.307023254
2.068571306
2.147631707
2.320271164
2.441348812
2.597944495
2.660907493
2.759119791
2.853551632
2.890918169
2.911288157
2.960952833
3.016661518
3.04137533
3.009378731
3.038546546
3.048514875
3.074985717
3.085157669
3.0387118
3.029308861
3.044134028
3.015520432
2.928149975
2.899032643
2.817429711
2.778472221
2.703315666
2.631086457
2.463633072
2.336754538
2.154815287
1.84779146
1.995513371
2.148484778
2.279623047
2.420366176
2.526058176
2.623575414
2.674423539
2.759076565
2.786760255
2.819647663
2.939831796
2.959819055
2.94581278
2.975249119
3.024114034
3.01924355
3.001180857
2.95463411
2.994483629
2.922021481
2.912513706
2.853481937
2.809247846
2.768189674
2.753777031
2.622968458
2.51814107
2.390935617
2.212038137
1.545794166
1.670306938
1.824974261
1.989325225
2.122000157
2.233516993
2.343551391
2.464619811
2.546209675
2.660968085
2.702885421
2.809845744
2.807559181
2.881927335
2.886280276
2.890861093
2.91960476
2.940458283
2.901101672
2.889464494
2.919771133
2.89465224
2.847874489
2.77121863
2.782004116
2.733052978
2.641222259
2.542447076
2.418132649
2.261244579
1.304449053
1.442539246
1.576721276
1.737537759
1.849496774
1.990316219
2.112883134
2.243343949
2.35029725
2.482253647
2.560345986
2.600368164
2.69209933
2.775107708
2.7861531
2.798562947
2.823947661
2.902470067
2.866007937
2.843180669
2.893534211
2.875868727
2.866955658
2.829742029
2.719172313
2.717537143
2.649831507
2.564274859
2.47879769
2.320030081
1.119353883
1.256274575
1.336720798
1.471363417
1.601493467
1.719702329
1.876030681
1.992109663
2.130902178
2.231029878
2.328024087
2.425847741
2.530747022
2.642575573
2.693337043
2.69889672
2.729389549
2.801516043
2.8373218
2.819236473
2.820191148
2.855748808
2.830723118
2.794044258
2.751948478
2.711816493
2.66305029
2.558182155
2.497449563
2.413825226
0.9401025054
1.036978393
1.148628397
1.25179922
1.36894707
1.509042264
1.610930668
1.72738084
1.852632703
1.972044401
2.086951677
2.239193625
2.336625149
2.44006164
2.544838133
2.597694898
2.637245371
2.699406777
2.737817105
2.76920969
2.778298976
2.820681486
2.800947176
2.827926264
2.771781079
2.706362745
2.66285643
2.618816618
2.542169749
2.431767291
0.8032401849
0.882881591
0.9528654654
1.067039597
1.184522629
1.298726005
1.378853372
1.493197641
1.61658063
1.768492911
1.901343188
2.001861392
2.101399284
2.227784318
2.339729264
2.425563399
2.53308821
2.582002892
2.637891539
2.676391805
2.679189977
2.697486018
2.771343297
2.767012838
2.730488215
2.683145707
2.720194152
2.663975476
2.562773446
2.447528164
0.7120497917
0.765850097
0.8364076814
0.8869746106
0.9957190077
1.087510569
1.174195652
1.294629371
1.413981268
1.521325272
1.645832089
1.767218596
1.896030555
2.008755904
2.118379049
2.255647596
2.338313321
2.400045248
2.47808259
2.56204838
2.610472945
2.674569925
2.700259188
2.696931823
2.725194708
2.681432799
2.678322726
2.6638348
2.596034294
2.487020212
0.6405216306
0.6711441663
0.7354199938
0.7791938537
0.8442863596
0.926852768
1.030451822
1.126185095
1.225903421
1.310233964
1.427034479
1.569336912
1.640154663
1.764916809
1.918524983
2.008117777
2.133054269
2.223550778
2.321478088
2.408603984
2.465399341
2.508990822
2.570084437
2.614770059
2.654202892
2.633787909
2.612467429
2.606360767
2.561560502
0.5920450615
0.6119734904
0.6453346756
0.7065364195
0.7627853434
0.8184438165
0.8918526934
0.9696970323
1.051610487
1.152314447
1.255445643
1.356171755
1.440785654
1.537034559
1.668491799
1.793857529
1.944111699
2.062474004
2.188548176
2.236122437
2.320821358
2.441065248
2.476789752
2.556629916
2.535868
0.5487179863
0.5687493188
0.6149679515
0.6446771589
0.6800395206
0.7207855538
0.7686018261
0.8341617329
0.8963475532
0.9868537678
1.066331921
1.154533542
1.268992699
1.395056245
1.502746584
1.61194224
1.721928399
1.844094679
1.945445576
0.5185396237
0.5397299203
0.5515089857
0.5885587106
0.6288653562
0.6608870905
0.6971341341
0.7418557694
0.8086201883
0.848482684
0.9494948674
1.022713401
1.095987603
1.188932869
0.4968511562
0.5021249851
0.5144690164
0.5328646517
0.5779058398
0.6073108439
0.6219679749
0.6572723333
0.4676929294
)
;

boundaryField
{
    flow
    {
        type            calculated;
        value           nonuniform List<scalar> 
15
(
1.882099911
1.718013642
1.773392536
1.898025186
1.908816484
1.982760807
2.068571306
2.154815287
2.212038137
2.261244579
2.320030081
2.413825226
2.431767291
2.447528164
2.487020212
)
;
    }
    obstacle
    {
        type            calculated;
        value           nonuniform List<scalar> 
30
(
3.246577739
3.289168941
3.181914666
3.159446404
3.090463736
3.073969776
3.086755685
3.148843751
3.06382985
3.003930194
2.950162803
3.004988722
2.977584958
2.993234359
3.023132427
2.910543878
2.838530864
2.803693404
2.863187832
2.80472143
2.800298256
2.751610597
2.719147162
2.766699025
2.674863571
2.549607259
2.482028489
2.326464466
2.193449829
1.987903754
)
;
    }
    frontAndBack
    {
        type            empty;
    }
    procBoundary1to0
    {
        type            processor;
        value           nonuniform List<scalar> 
21
(
4.026213171
3.947088912
3.692182225
3.430211714
3.078712037
2.711662016
2.37474315
2.009377401
1.685900514
1.398537823
1.184778355
1.003901244
0.865644716
0.7507354022
0.6667417165
0.6076514979
0.5547196029
0.5153737611
0.4983770105
0.471244149
0.4654521098
)
;
    }
    procBoundary1to3
    {
        type            processor;
        value           nonuniform List<scalar> 
36
(
2.513985435
2.577747031
2.613700674
2.585439377
2.513985435
2.543729571
2.065291848
2.17703069
2.283990248
2.339676782
2.442881797
2.577747031
2.508714722
1.299972236
1.428416272
1.517062329
1.644510873
2.065291848
1.748280096
0.7119156561
0.7581615185
0.8040028963
0.8931701521
0.954109029
1.299972236
1.03779718
0.4726167764
0.4868561428
0.4981505135
0.5290979202
0.5625662543
0.5859901916
0.7119156561
0.607356525
0.4726167764
0.4620024073
)
;
    }
}


// ************************************************************************* //
