/*--------------------------------*- C++ -*----------------------------------*\
| =========                 |                                                 |
| \\      /  F ield         | OpenFOAM: The Open Source CFD Toolbox           |
|  \\    /   O peration     | Version:  2406                                  |
|   \\  /    A nd           | Website:  www.openfoam.com                      |
|    \\/     M anipulation  |                                                 |
\*---------------------------------------------------------------------------*/
FoamFile
{
    version     2.0;
    format      ascii;
    arch        "LSB;label=32;scalar=64";
    class       volScalarField;
    location    "0.008";
    object      rhoM;
}
// * * * * * * * * * * * * * * * * * * * * * * * * * * * * * * * * * * * * * //

dimensions      [1 -3 0 0 0 0 0];

internalField   nonuniform List<scalar> 
546
(
1.445416313e-05
1.576137828e-05
1.391377399e-05
1.249403049e-05
1.074500052e-05
1.306955895e-05
1.963907307e-05
1.319324062e-05
1.28207704e-05
1.611293517e-05
1.937511218e-05
9.967686958e-06
1.633857875e-05
1.441108828e-05
1.4944533e-05
1.297583257e-05
1.392682656e-05
1.276694661e-05
1.433309957e-05
1.575338478e-05
1.711105542e-05
1.673057784e-05
1.074879288e-05
1.40696097e-05
9.764249756e-06
1.122000857e-05
1.159682791e-05
1.13324917e-05
1.640466997e-05
1.021869203e-05
1.572010824e-05
1.260874103e-05
7.71231804e-06
1.485506919e-05
9.287820179e-06
1.345682758e-05
1.737907315e-05
1.272171564e-05
1.179340245e-05
1.435815615e-05
1.382874877e-05
1.223700784e-05
1.347913068e-05
1.894119429e-05
1.153988938e-05
1.264010077e-05
1.24065383e-05
9.95743928e-06
1.287474719e-05
9.781944423e-06
1.379409947e-05
1.01269606e-05
1.083732526e-05
1.299353806e-05
8.498392687e-06
6.749748849e-06
7.455262039e-06
1.151764669e-05
9.748467439e-06
8.611017245e-06
1.229355402e-05
1.245913201e-05
1.270253434e-05
1.569392263e-05
1.680876588e-05
1.392117731e-05
8.49441769e-06
1.107421587e-05
1.171452081e-05
1.021067138e-05
9.165746195e-06
1.434479212e-05
1.813369718e-05
1.655302575e-05
1.378206932e-05
1.523647713e-05
1.029739883e-05
9.787787374e-06
9.012943285e-06
1.367663403e-05
8.90462562e-06
1.400136554e-05
1.181332111e-05
1.43375483e-05
1.301899968e-05
8.026965907e-06
1.389917602e-05
1.346848654e-05
9.281311033e-06
6.718160392e-06
8.568180233e-06
1.2459132e-05
1.527391415e-05
1.165517705e-05
1.297086948e-05
1.051842986e-05
1.963907307e-05
1.405801839e-05
1.155485099e-05
1.228345304e-05
7.557346811e-06
1.239854444e-05
1.298865847e-05
1.424693424e-05
1.336633231e-05
1.824798132e-05
1.451771091e-05
1.353243035e-05
9.098485477e-06
8.915067784e-06
9.515809864e-06
1.083120503e-05
1.039252363e-05
1.406960969e-05
1.157292812e-05
8.301910914e-06
6.166479241e-06
8.731371897e-06
7.686204789e-06
7.663449205e-06
1.095155799e-05
1.10324224e-05
1.194710328e-05
1.157925128e-05
1.059200236e-05
8.894137262e-06
1.200092571e-05
8.010249371e-06
1.139708769e-05
1.507558359e-05
1.222034938e-05
1.053501719e-05
1.119157224e-05
1.539998e-05
1.4944533e-05
1.849826787e-05
1.603799919e-05
7.9154659e-06
1.29602894e-05
1.549457285e-05
1.423126047e-05
1.391360013e-05
1.225812272e-05
9.767481763e-06
9.584035283e-06
1.030865237e-05
1.187426262e-05
9.566806851e-06
4.687371161e-06
7.189665237e-06
1.095335272e-05
8.631446201e-06
9.905071636e-06
1.074223291e-05
9.825162658e-06
1.987691687e-05
1.340465528e-05
9.109843738e-06
1.139708769e-05
7.498041465e-06
1.39890077e-05
1.588329406e-05
1.176346183e-05
1.25994426e-05
1.560851224e-05
1.155149292e-05
1.20700519e-05
1.327590231e-05
1.596460383e-05
1.047419469e-05
1.265874262e-05
9.773777798e-06
1.056958844e-05
1.218756364e-05
5.696356773e-06
1.012462327e-05
9.941088517e-06
1.383879653e-05
1.068729654e-05
9.744907956e-06
7.376491353e-06
1.028256932e-05
1.209782521e-05
8.836748736e-06
1.04390042e-05
1.121402298e-05
1.301441752e-05
1.178055745e-05
1.18722841e-05
7.657042799e-06
1.431146227e-05
9.481125047e-06
9.966375614e-06
1.498761116e-05
1.50272804e-05
1.264010076e-05
1.578360122e-05
1.531992588e-05
1.424755742e-05
1.315692516e-05
1.711105555e-05
1.268064217e-05
8.971726192e-06
1.084139486e-05
9.221428579e-06
1.067231601e-05
1.040200159e-05
1.105252173e-05
9.468173655e-06
7.663449317e-06
8.790948881e-06
8.930664239e-06
8.015583312e-06
1.104593594e-05
1.005465989e-05
1.105986072e-05
1.278140123e-05
1.405801839e-05
1.195116576e-05
1.116660081e-05
9.888848088e-06
9.886918648e-06
1.192629665e-05
1.235321156e-05
1.452879602e-05
1.364527981e-05
7.9338614e-06
9.702961373e-06
9.184027639e-06
1.307065436e-05
8.293441335e-06
1.373806919e-05
1.767785511e-05
1.030551757e-05
1.048728548e-05
1.422902198e-05
9.941088341e-06
1.625476123e-05
7.219048357e-06
1.031299293e-05
6.556083558e-06
7.055127571e-06
5.821008301e-06
1.097001017e-05
9.825162658e-06
8.894137262e-06
1.020883566e-05
1.264344344e-05
9.023012176e-06
1.499608293e-05
1.149724746e-05
9.967686966e-06
1.119157225e-05
5.847305837e-06
1.129164716e-05
1.464844227e-05
1.443358929e-05
1.540475189e-05
1.132878513e-05
1.653190563e-05
1.265874262e-05
7.748809943e-06
1.483412057e-05
1.290422517e-05
1.238607108e-05
1.204044886e-05
8.468827387e-06
9.474229343e-06
1.565496152e-05
4.731002573e-06
8.642436449e-06
4.35312535e-06
6.502899801e-06
5.333153573e-06
1.051550328e-05
6.574251534e-06
7.793491536e-06
1.083750751e-05
7.83597441e-06
1.619243577e-05
1.093440458e-05
1.110234739e-05
1.241676881e-05
7.08242861e-06
1.162263677e-05
1.280695849e-05
1.105652646e-05
1.285177259e-05
1.24449687e-05
1.462769628e-05
9.515809864e-06
1.021472597e-05
9.682124927e-06
1.111149198e-05
9.221428499e-06
9.942791503e-06
1.21494801e-05
1.142506921e-05
1.08741591e-05
7.38054628e-06
5.065575097e-06
6.905518529e-06
3.78079804e-06
4.951689718e-06
7.828790921e-06
7.192763543e-06
7.325581725e-06
5.33953568e-06
1.005038015e-05
1.029017202e-05
1.559740702e-05
1.442556041e-05
1.111015487e-05
8.727936496e-06
6.641792482e-06
6.027041218e-06
1.662685022e-05
1.23407666e-05
1.184410582e-05
1.523367577e-05
6.285865507e-06
1.470561006e-05
1.509971769e-05
1.156021494e-05
1.093999952e-05
1.067231592e-05
7.916175148e-06
1.226050415e-05
1.059386535e-05
8.705318314e-06
6.630339793e-06
4.878564915e-06
7.71231808e-06
6.170171969e-06
8.366133387e-06
8.429787482e-06
9.039999583e-06
1.01311658e-05
8.072619317e-06
1.036967276e-05
8.683032806e-06
9.886918725e-06
1.23353515e-05
9.470597153e-06
1.245411078e-05
1.473187124e-05
8.947386979e-06
1.242559265e-05
1.021260156e-05
1.592592602e-05
1.030101722e-05
1.417689619e-05
1.039252348e-05
1.810164039e-05
1.482767821e-05
9.122351288e-06
9.204957952e-06
1.235308164e-05
8.062188042e-06
1.494969449e-05
5.88598288e-06
5.478808911e-06
3.251449893e-06
6.933099661e-06
9.978160801e-06
8.352706419e-06
7.715819508e-06
1.075923534e-05
1.036781325e-05
6.860114678e-06
6.994503819e-06
1.118311561e-05
1.854275191e-05
1.194084272e-05
1.153988935e-05
1.197065349e-05
1.612212075e-05
1.744877546e-05
1.862468195e-05
1.384917538e-05
1.134936265e-05
1.549761989e-05
1.066026053e-05
9.67816888e-06
1.392224987e-05
1.377444257e-05
1.049374066e-05
1.309817661e-05
1.480956368e-05
9.650606991e-06
2.160609106e-06
3.302246273e-06
5.898190669e-06
7.160876877e-06
8.442632466e-06
5.104121164e-06
5.533491594e-06
6.2043134e-06
9.25965714e-06
8.773895007e-06
6.994503819e-06
6.969499245e-06
8.250706739e-06
1.375248827e-05
1.187087901e-05
1.012916968e-05
1.232241668e-05
1.089462506e-05
9.870432763e-06
8.222817493e-06
1.056415503e-05
1.012696057e-05
1.216959038e-05
8.423471509e-06
1.347171365e-05
1.176770122e-05
1.113813206e-05
9.939354229e-06
1.265612791e-05
7.757750214e-06
5.215882263e-06
1.72592766e-06
6.502899834e-06
7.770118045e-06
5.065579517e-06
3.790016086e-06
5.533491635e-06
7.38218002e-06
6.964463267e-06
5.90226378e-06
6.994503873e-06
4.619410099e-06
7.597399786e-06
1.18587657e-05
5.479328802e-06
1.197065359e-05
6.752092692e-06
6.04314442e-06
1.493396257e-05
1.67928028e-05
9.952970885e-06
1.232745934e-05
1.2081058e-05
1.738497884e-05
1.555071387e-05
5.838392719e-06
1.058547992e-05
8.081091941e-06
9.18787981e-06
1.475881352e-05
6.481827318e-06
5.254395379e-06
8.620292407e-06
9.751527966e-06
6.063765344e-06
6.032820689e-06
3.428835943e-06
4.476649688e-06
3.324468359e-06
1.260337723e-05
8.20031919e-06
1.004845517e-05
8.822596348e-06
8.729920231e-06
7.804256099e-06
9.54315133e-06
9.790636141e-06
9.787787406e-06
9.355112077e-06
1.307065447e-05
1.257173112e-05
4.490884e-06
1.030399129e-05
1.836957899e-05
1.030707099e-05
1.331766581e-05
7.455262006e-06
6.87310952e-06
1.003101941e-05
5.364394658e-06
3.227441761e-06
6.048912639e-06
3.199892151e-06
5.449923793e-06
3.248585192e-06
7.24790954e-06
4.47664962e-06
8.151500966e-06
8.215468957e-06
4.502743676e-06
6.563705681e-06
7.597399786e-06
6.670059771e-06
9.878941261e-06
6.613059517e-06
6.499727891e-06
8.426471806e-06
9.955974963e-06
1.194496579e-05
9.515809784e-06
1.215192834e-05
8.349859758e-06
1.362088684e-05
1.356182113e-05
3.203785574e-06
3.678076792e-06
7.258330779e-06
5.560930813e-06
3.837896379e-06
6.032820689e-06
2.727909789e-06
5.261263479e-06
6.331503562e-06
6.939615341e-06
8.040060251e-06
6.482937328e-06
8.250706803e-06
5.434936989e-06
6.476297653e-06
4.185557347e-06
5.402080784e-06
1.276694653e-05
9.440654277e-06
5.811726706e-06
5.404004439e-06
6.427538871e-06
6.094246213e-06
3.377052986e-06
5.027040039e-06
5.611163691e-06
4.083396874e-06
5.777425506e-06
8.694394343e-06
3.939900686e-06
8.671489906e-06
8.578344141e-06
7.741028511e-06
5.960239096e-06
3.827685787e-06
5.444203477e-06
6.246097726e-06
6.754106022e-06
2.242804603e-06
8.416745599e-06
8.088521609e-06
4.84280647e-06
)
;

boundaryField
{
    flow
    {
        type            zeroGradient;
    }
    obstacle
    {
        type            calculated;
        value           nonuniform List<scalar> 
30
(
4.581490678e-24
5.805393492e-24
4.940947988e-24
4.784517448e-24
1e-300
4.585537442e-24
1.057860504e-23
9.593246196e-24
2.195645058e-24
1.079385835e-23
1e-300
6.466468894e-24
1e-300
1e-300
1.968179889e-24
2.127455779e-24
1e-300
3.925561733e-24
6.212744767e-24
4.419899723e-24
1e-300
1.270896548e-23
3.012981814e-24
8.259051039e-24
4.180159654e-24
1.011642987e-23
1.111981626e-23
2.046068261e-24
2.687538018e-24
1.728253976e-23
)
;
    }
    frontAndBack
    {
        type            empty;
    }
    procBoundary1to0
    {
        type            processor;
        value           nonuniform List<scalar> 
21
(
1.227781745e-05
1.116851564e-05
1.138966334e-05
9.39398908e-06
6.952456113e-06
9.762568588e-06
1.124223154e-05
9.688852681e-06
6.360947254e-06
6.582094954e-06
4.289775436e-06
3.698266597e-06
5.251645445e-06
8.13547376e-06
3.845698382e-06
2.736396573e-06
5.620224946e-06
6.952456108e-06
6.952456158e-06
5.399077245e-06
5.546509045e-06
)
;
    }
    procBoundary1to3
    {
        type            processor;
        value           nonuniform List<scalar> 
36
(
1.012439109e-05
1.18586172e-05
1.417439358e-05
1.095994424e-05
1.012439109e-05
9.281311008e-06
6.318608022e-06
1.388111108e-05
1.162321492e-05
1.270292437e-05
7.88543569e-06
1.18586172e-05
1.16630353e-05
7.14027685e-06
7.282506713e-06
7.427098647e-06
1.259524456e-05
6.318608022e-06
9.955974963e-06
5.856307156e-06
3.988483451e-06
5.628429508e-06
5.834838805e-06
8.1692894e-06
7.14027685e-06
7.823105532e-06
4.353125388e-06
2.646740795e-06
2.20918719e-06
6.140264422e-06
6.032820689e-06
4.675344055e-06
5.856307156e-06
4.398377487e-06
4.353125388e-06
8.343616849e-06
)
;
    }
}


// ************************************************************************* //
