/*--------------------------------*- C++ -*----------------------------------*\
| =========                 |                                                 |
| \\      /  F ield         | OpenFOAM: The Open Source CFD Toolbox           |
|  \\    /   O peration     | Version:  2406                                  |
|   \\  /    A nd           | Website:  www.openfoam.com                      |
|    \\/     M anipulation  |                                                 |
\*---------------------------------------------------------------------------*/
FoamFile
{
    version     2.0;
    format      ascii;
    arch        "LSB;label=32;scalar=64";
    class       volScalarField;
    location    "0.008";
    object      rhoMMean;
}
// * * * * * * * * * * * * * * * * * * * * * * * * * * * * * * * * * * * * * //

dimensions      [1 -3 0 0 0 0 0];

internalField   nonuniform List<scalar> 
546
(
1.461918473e-05
1.471038687e-05
1.454972894e-05
1.459651337e-05
1.441846554e-05
1.434602047e-05
1.454613193e-05
1.458859839e-05
1.462835735e-05
1.44856045e-05
1.434646558e-05
1.446677452e-05
1.419374015e-05
1.441225726e-05
1.439603626e-05
1.414187008e-05
1.36340311e-05
1.401217046e-05
1.404599417e-05
1.3843979e-05
1.3691465e-05
1.383647113e-05
1.364224063e-05
1.350160348e-05
1.299813631e-05
1.271435727e-05
1.217557246e-05
1.16987702e-05
1.086082082e-05
8.950363474e-06
1.321153623e-05
1.316876918e-05
1.301765228e-05
1.309810934e-05
1.302466347e-05
1.324768064e-05
1.315685665e-05
1.316738183e-05
1.300549615e-05
1.295368758e-05
1.296130889e-05
1.313468237e-05
1.314025275e-05
1.319070625e-05
1.309453192e-05
1.301043664e-05
1.277583371e-05
1.296932351e-05
1.282734434e-05
1.275412123e-05
1.268802281e-05
1.255099835e-05
1.248759569e-05
1.229525803e-05
1.200305172e-05
1.189976945e-05
1.137967294e-05
1.076283605e-05
9.790749539e-06
8.19597533e-06
1.235246236e-05
1.253485813e-05
1.251602312e-05
1.243211212e-05
1.231470627e-05
1.234855189e-05
1.236316543e-05
1.235748098e-05
1.252494123e-05
1.236668507e-05
1.23608961e-05
1.25537785e-05
1.245789824e-05
1.242362477e-05
1.243299011e-05
1.211390878e-05
1.230366146e-05
1.231272085e-05
1.209917316e-05
1.212971795e-05
1.181622435e-05
1.183039939e-05
1.212009461e-05
1.161199746e-05
1.127281886e-05
1.109377042e-05
1.085498735e-05
1.028836193e-05
9.464540572e-06
8.299112889e-06
1.159899962e-05
1.172509188e-05
1.203554678e-05
1.203798118e-05
1.216187572e-05
1.213576379e-05
1.216021675e-05
1.21234763e-05
1.215695493e-05
1.211738558e-05
1.209294776e-05
1.20231416e-05
1.207289434e-05
1.209319193e-05
1.197572877e-05
1.182382377e-05
1.182688272e-05
1.185696126e-05
1.181642639e-05
1.179179022e-05
1.162228023e-05
1.156798404e-05
1.150327645e-05
1.131990647e-05
1.11197504e-05
1.091029785e-05
1.058723123e-05
9.903719815e-06
9.517665509e-06
8.764578581e-06
1.078654969e-05
1.100866451e-05
1.142300188e-05
1.167261065e-05
1.187855936e-05
1.183949073e-05
1.183004223e-05
1.185322332e-05
1.201074034e-05
1.193581692e-05
1.189435952e-05
1.197541426e-05
1.199261956e-05
1.192039308e-05
1.187569533e-05
1.180231954e-05
1.158438842e-05
1.166328633e-05
1.166177702e-05
1.154736052e-05
1.146839789e-05
1.128037209e-05
1.118027519e-05
1.107359522e-05
1.085237588e-05
1.071883585e-05
1.064332268e-05
9.980000469e-06
9.477405095e-06
8.773549187e-06
1.007368162e-05
1.045574517e-05
1.083888647e-05
1.109558284e-05
1.130911756e-05
1.140503048e-05
1.155858183e-05
1.170397561e-05
1.176089433e-05
1.183314776e-05
1.192909757e-05
1.184936677e-05
1.179949697e-05
1.187477628e-05
1.177529252e-05
1.181000962e-05
1.162962195e-05
1.173238314e-05
1.167066508e-05
1.161337928e-05
1.139826748e-05
1.119273745e-05
1.112581648e-05
1.119533567e-05
1.093543677e-05
1.068561449e-05
1.042829637e-05
1.013836082e-05
9.747999762e-06
8.95907308e-06
9.183020075e-06
9.701295333e-06
1.004136881e-05
1.04032627e-05
1.084022142e-05
1.115477519e-05
1.127546768e-05
1.145934093e-05
1.150218647e-05
1.167409294e-05
1.177157685e-05
1.190177919e-05
1.19003191e-05
1.191117814e-05
1.182783826e-05
1.170147189e-05
1.174682278e-05
1.176686034e-05
1.16820222e-05
1.15558887e-05
1.144796525e-05
1.13389683e-05
1.121854608e-05
1.110430658e-05
1.108516494e-05
1.075486914e-05
1.050259331e-05
1.028020303e-05
9.828435433e-06
9.281658477e-06
8.227763772e-06
8.778897581e-06
9.25651786e-06
9.784381554e-06
1.010545608e-05
1.047108947e-05
1.085252257e-05
1.111858497e-05
1.122977073e-05
1.139357821e-05
1.162144023e-05
1.177533682e-05
1.169140929e-05
1.177994702e-05
1.184454971e-05
1.188519574e-05
1.185839697e-05
1.175609308e-05
1.170678993e-05
1.172675429e-05
1.168049018e-05
1.139466162e-05
1.1371224e-05
1.118870019e-05
1.109749195e-05
1.09310265e-05
1.076238852e-05
1.038114212e-05
1.009951139e-05
9.681137356e-06
7.482264852e-06
7.921116231e-06
8.433776256e-06
8.87866148e-06
9.377972502e-06
9.759831367e-06
1.017522276e-05
1.046483155e-05
1.078763925e-05
1.096543488e-05
1.116192379e-05
1.147784962e-05
1.163546442e-05
1.167967638e-05
1.177195746e-05
1.187573005e-05
1.189600956e-05
1.183127659e-05
1.177543462e-05
1.177455624e-05
1.167248153e-05
1.163261158e-05
1.144758982e-05
1.133712219e-05
1.117545588e-05
1.114890555e-05
1.083698533e-05
1.053157826e-05
1.023768877e-05
9.855875212e-06
6.763228334e-06
7.097063912e-06
7.529634186e-06
7.997074564e-06
8.486309459e-06
8.954888767e-06
9.441985241e-06
9.815594573e-06
1.017954299e-05
1.057224834e-05
1.083834974e-05
1.117649593e-05
1.130222422e-05
1.149093858e-05
1.160474295e-05
1.166600401e-05
1.173492765e-05
1.185612041e-05
1.175218032e-05
1.176359254e-05
1.18018365e-05
1.172523023e-05
1.158359059e-05
1.13273794e-05
1.132767985e-05
1.121259542e-05
1.102545198e-05
1.080225302e-05
1.043008445e-05
1.001383593e-05
6.354831429e-06
6.677956144e-06
7.010676136e-06
7.433164379e-06
7.794183755e-06
8.230161738e-06
8.704027683e-06
9.198415929e-06
9.615641924e-06
1.008003351e-05
1.040532786e-05
1.062259301e-05
1.094914021e-05
1.122479876e-05
1.134897997e-05
1.144706522e-05
1.160094272e-05
1.177614526e-05
1.175060503e-05
1.172164015e-05
1.179854866e-05
1.179312601e-05
1.169933396e-05
1.164039779e-05
1.131267295e-05
1.124283731e-05
1.109866318e-05
1.101868822e-05
1.080232423e-05
1.037134832e-05
5.93511995e-06
6.232438602e-06
6.478952294e-06
6.821959378e-06
7.207682242e-06
7.540171684e-06
8.003192248e-06
8.4232386e-06
8.917289203e-06
9.325779319e-06
9.751978405e-06
1.010358928e-05
1.047701471e-05
1.086020873e-05
1.10662329e-05
1.126876674e-05
1.138852062e-05
1.159544942e-05
1.173410889e-05
1.174316181e-05
1.172883511e-05
1.182462232e-05
1.173328385e-05
1.166377408e-05
1.156756136e-05
1.143218141e-05
1.129520963e-05
1.102196479e-05
1.095462848e-05
1.080074174e-05
5.620906249e-06
5.817554527e-06
6.092377657e-06
6.316622374e-06
6.617471338e-06
6.976964404e-06
7.325171915e-06
7.680773867e-06
8.051227021e-06
8.432661225e-06
8.86249793e-06
9.44991472e-06
9.913930338e-06
1.030360527e-05
1.066787385e-05
1.090586635e-05
1.111866307e-05
1.135953672e-05
1.15460881e-05
1.169257655e-05
1.169377975e-05
1.182302452e-05
1.180574613e-05
1.183685608e-05
1.175643057e-05
1.164492711e-05
1.149875157e-05
1.136664939e-05
1.114174466e-05
1.090666416e-05
5.334446352e-06
5.490731739e-06
5.6432813e-06
5.938803552e-06
6.17835559e-06
6.44983518e-06
6.720383185e-06
7.049479068e-06
7.441514464e-06
7.915240582e-06
8.379091063e-06
8.702812451e-06
9.101414301e-06
9.585483643e-06
1.001424603e-05
1.039506996e-05
1.076075501e-05
1.108056008e-05
1.128851433e-05
1.149447657e-05
1.158813327e-05
1.162851501e-05
1.191247812e-05
1.195349018e-05
1.183436688e-05
1.172637583e-05
1.179579681e-05
1.161981914e-05
1.140506633e-05
1.110020097e-05
5.251745156e-06
5.373449547e-06
5.496889368e-06
5.56721503e-06
5.783963824e-06
6.01237428e-06
6.253350299e-06
6.543642299e-06
6.900623228e-06
7.236604842e-06
7.61568084e-06
7.972535659e-06
8.461578984e-06
8.928508683e-06
9.371466695e-06
9.884555603e-06
1.023925306e-05
1.053998738e-05
1.089164287e-05
1.123844448e-05
1.147530528e-05
1.171312719e-05
1.181792782e-05
1.184090861e-05
1.195352415e-05
1.191820432e-05
1.18974482e-05
1.179808762e-05
1.162987374e-05
1.140123088e-05
5.088073762e-06
5.112851516e-06
5.261375276e-06
5.323673417e-06
5.470186574e-06
5.661953934e-06
5.916445626e-06
6.174612516e-06
6.445230217e-06
6.72674498e-06
7.091325818e-06
7.501336984e-06
7.797365848e-06
8.213126795e-06
8.678620023e-06
9.067831278e-06
9.509166407e-06
9.921318384e-06
1.025522975e-05
1.067180357e-05
1.096880077e-05
1.118083076e-05
1.140178549e-05
1.164260012e-05
1.179469165e-05
1.183302884e-05
1.187172663e-05
1.181828923e-05
1.171220932e-05
5.049628167e-06
5.08486992e-06
5.141843491e-06
5.286025998e-06
5.376096116e-06
5.510078168e-06
5.668488221e-06
5.845228638e-06
6.020671744e-06
6.274549284e-06
6.539037666e-06
6.804058059e-06
7.100721405e-06
7.42884131e-06
7.829686304e-06
8.30657598e-06
8.821337868e-06
9.312131383e-06
9.823474553e-06
1.004878385e-05
1.046341399e-05
1.093966888e-05
1.116544956e-05
1.143294872e-05
1.14645095e-05
4.966011946e-06
5.035596686e-06
5.123261076e-06
5.148637845e-06
5.222657973e-06
5.291437071e-06
5.378546694e-06
5.480076728e-06
5.659884877e-06
5.856814079e-06
6.050606144e-06
6.339306214e-06
6.677286341e-06
7.04030605e-06
7.380410279e-06
7.73153678e-06
8.101201056e-06
8.562126374e-06
8.971906022e-06
4.944835352e-06
4.977481151e-06
5.01257798e-06
5.072557924e-06
5.126957337e-06
5.197223869e-06
5.299649421e-06
5.392680395e-06
5.530041987e-06
5.622720352e-06
5.862885114e-06
6.038129877e-06
6.250466502e-06
6.498832847e-06
4.902276634e-06
4.93406721e-06
4.962375873e-06
5.001276599e-06
5.080872399e-06
5.089974429e-06
5.141787082e-06
5.243880429e-06
4.854157295e-06
)
;

boundaryField
{
    flow
    {
        type            calculated;
        value           nonuniform List<scalar> 
15
(
8.950363474e-06
8.19597533e-06
8.299112889e-06
8.764578581e-06
8.773549187e-06
8.95907308e-06
9.281658477e-06
9.681137356e-06
9.855875212e-06
1.001383593e-05
1.037134832e-05
1.080074174e-05
1.090666416e-05
1.110020097e-05
1.140123088e-05
)
;
    }
    obstacle
    {
        type            calculated;
        value           nonuniform List<scalar> 
30
(
6.38083068e-24
6.530818661e-24
6.477499526e-24
6.583567525e-24
6.399969396e-24
6.234859341e-24
6.512566708e-24
6.19334875e-24
6.614899595e-24
6.238216188e-24
6.18514318e-24
6.496479925e-24
6.126052376e-24
6.251880061e-24
6.398574645e-24
5.999131394e-24
5.953217288e-24
5.952956575e-24
6.195170711e-24
6.199631991e-24
5.843595987e-24
5.684613463e-24
5.930389198e-24
5.940187755e-24
5.722960764e-24
5.272031206e-24
5.247970779e-24
5.215110271e-24
4.665501819e-24
4.11606638e-24
)
;
    }
    frontAndBack
    {
        type            empty;
    }
    procBoundary1to0
    {
        type            processor;
        value           nonuniform List<scalar> 
21
(
1.47699599e-05
1.315010867e-05
1.228508548e-05
1.13796862e-05
1.051146473e-05
9.489774381e-06
8.690590457e-06
7.779167903e-06
7.017649972e-06
6.385476164e-06
6.047232315e-06
5.707052446e-06
5.481601416e-06
5.266818801e-06
5.137665296e-06
5.062171863e-06
5.000724371e-06
4.918212616e-06
4.918635905e-06
4.85658707e-06
4.871795818e-06
)
;
    }
    procBoundary1to3
    {
        type            processor;
        value           nonuniform List<scalar> 
36
(
1.158047985e-05
1.159900539e-05
1.181223963e-05
1.178422121e-05
1.158047985e-05
1.177910308e-05
9.449923398e-06
9.860721104e-06
1.026956796e-05
1.065217192e-05
1.103483659e-05
1.159900539e-05
1.138132262e-05
6.821202072e-06
7.200155382e-06
7.531107318e-06
7.918075912e-06
9.449923398e-06
8.343295418e-06
5.328401126e-06
5.426607466e-06
5.514002387e-06
5.697256713e-06
5.862026089e-06
6.821202072e-06
6.097117159e-06
4.874989402e-06
4.88805429e-06
4.889144579e-06
4.934042434e-06
5.026760512e-06
5.078764427e-06
5.328401126e-06
5.143707027e-06
4.874989402e-06
4.898383286e-06
)
;
    }
}


// ************************************************************************* //
