/*--------------------------------*- C++ -*----------------------------------*\
| =========                 |                                                 |
| \\      /  F ield         | OpenFOAM: The Open Source CFD Toolbox           |
|  \\    /   O peration     | Version:  2406                                  |
|   \\  /    A nd           | Website:  www.openfoam.com                      |
|    \\/     M anipulation  |                                                 |
\*---------------------------------------------------------------------------*/
FoamFile
{
    version     2.0;
    format      ascii;
    arch        "LSB;label=32;scalar=64";
    class       volScalarField;
    location    "0.008";
    object      rhoNMean;
}
// * * * * * * * * * * * * * * * * * * * * * * * * * * * * * * * * * * * * * //

dimensions      [0 -3 0 0 0 0 0];

internalField   nonuniform List<scalar> 
546
(
3.045177873e+20
3.067295697e+20
3.032965718e+20
3.039123369e+20
3.003513303e+20
2.989862755e+20
3.029974444e+20
3.041028722e+20
3.048769813e+20
3.015260831e+20
2.986396297e+20
3.012431966e+20
2.957745431e+20
3.003777196e+20
3.000437489e+20
2.944269619e+20
2.841836066e+20
2.920152653e+20
2.923617897e+20
2.881921742e+20
2.851930195e+20
2.886182444e+20
2.842698244e+20
2.810488387e+20
2.705156974e+20
2.646414356e+20
2.534086497e+20
2.437850604e+20
2.261015831e+20
1.862408473e+20
2.752135028e+20
2.741805676e+20
2.711059428e+20
2.728911603e+20
2.713752819e+20
2.759143346e+20
2.741549318e+20
2.744522509e+20
2.708011809e+20
2.698579181e+20
2.699770035e+20
2.734745174e+20
2.73593835e+20
2.748650321e+20
2.728195994e+20
2.714021118e+20
2.66377656e+20
2.702994367e+20
2.674033666e+20
2.656764481e+20
2.64511334e+20
2.613605914e+20
2.601641447e+20
2.563697508e+20
2.499114916e+20
2.478522115e+20
2.371083191e+20
2.241193362e+20
2.03894012e+20
1.708920118e+20
2.573224657e+20
2.609796053e+20
2.606954291e+20
2.590392975e+20
2.567457e+20
2.572669896e+20
2.575352146e+20
2.573375967e+20
2.607681978e+20
2.573773949e+20
2.574401305e+20
2.613714727e+20
2.59502598e+20
2.588990678e+20
2.590044063e+20
2.522304899e+20
2.564025116e+20
2.56601711e+20
2.520749023e+20
2.527488831e+20
2.463828207e+20
2.464060032e+20
2.523975019e+20
2.420284249e+20
2.348232921e+20
2.310458201e+20
2.261744519e+20
2.143371676e+20
1.972183329e+20
1.729290268e+20
2.417533376e+20
2.442192137e+20
2.507260388e+20
2.507327676e+20
2.531316383e+20
2.527754421e+20
2.533406869e+20
2.523835102e+20
2.532285656e+20
2.523755782e+20
2.519599769e+20
2.50586098e+20
2.516068317e+20
2.519033038e+20
2.494422052e+20
2.462159253e+20
2.462907648e+20
2.471228593e+20
2.464087005e+20
2.454347743e+20
2.420618144e+20
2.409405523e+20
2.395890607e+20
2.359303257e+20
2.317335119e+20
2.271832685e+20
2.206313003e+20
2.063450176e+20
1.982980148e+20
1.826297751e+20
2.247344186e+20
2.292215873e+20
2.378224658e+20
2.431602626e+20
2.475010981e+20
2.466799786e+20
2.464827804e+20
2.468884943e+20
2.501007056e+20
2.485926915e+20
2.476569518e+20
2.493660334e+20
2.497159066e+20
2.482736894e+20
2.472953972e+20
2.458220957e+20
2.413413143e+20
2.430385285e+20
2.428681323e+20
2.405608736e+20
2.389204585e+20
2.350143987e+20
2.3300597e+20
2.307125387e+20
2.260779896e+20
2.232486155e+20
2.215909575e+20
2.077714385e+20
1.971830493e+20
1.827045616e+20
2.10062647e+20
2.179896112e+20
2.258580594e+20
2.311090563e+20
2.356564524e+20
2.376939728e+20
2.408011017e+20
2.438173154e+20
2.451199609e+20
2.465181084e+20
2.486706741e+20
2.467886457e+20
2.456419614e+20
2.472322283e+20
2.451673385e+20
2.459134642e+20
2.422435246e+20
2.445345145e+20
2.432170204e+20
2.419096673e+20
2.375666529e+20
2.330887311e+20
2.315516065e+20
2.329892073e+20
2.277964226e+20
2.224486386e+20
2.169243185e+20
2.109948689e+20
2.029872199e+20
1.866005288e+20
1.914116613e+20
2.022716237e+20
2.093088143e+20
2.168098963e+20
2.258860638e+20
2.323233279e+20
2.348583649e+20
2.387124781e+20
2.396000328e+20
2.433266734e+20
2.452512523e+20
2.480117613e+20
2.479756403e+20
2.48134208e+20
2.464672979e+20
2.437174705e+20
2.447309572e+20
2.451687871e+20
2.433591608e+20
2.406162608e+20
2.384702871e+20
2.361910135e+20
2.337147645e+20
2.313331433e+20
2.308453731e+20
2.240073947e+20
2.188574927e+20
2.141169119e+20
2.046843685e+20
1.932635651e+20
1.71535224e+20
1.830902557e+20
1.930327818e+20
2.039329113e+20
2.10638249e+20
2.182606798e+20
2.262346502e+20
2.317542923e+20
2.339430748e+20
2.373851396e+20
2.421586417e+20
2.453642199e+20
2.436956921e+20
2.45375577e+20
2.468329123e+20
2.477124781e+20
2.470150742e+20
2.44806802e+20
2.439147955e+20
2.44297747e+20
2.432808948e+20
2.373278498e+20
2.36921052e+20
2.331038836e+20
2.311584305e+20
2.276090055e+20
2.240992317e+20
2.161831221e+20
2.101392292e+20
2.014935288e+20
1.560810698e+20
1.652196614e+20
1.759143452e+20
1.851779878e+20
1.954799913e+20
2.034965006e+20
2.120407197e+20
2.181512458e+20
2.249467535e+20
2.286124453e+20
2.326810922e+20
2.391967917e+20
2.424811957e+20
2.433670461e+20
2.451392148e+20
2.473438515e+20
2.477362073e+20
2.464373331e+20
2.452328183e+20
2.452914233e+20
2.432578953e+20
2.423756902e+20
2.383453286e+20
2.362136442e+20
2.328394342e+20
2.324329053e+20
2.257552523e+20
2.193506167e+20
2.133041786e+20
2.05165143e+20
1.409129476e+20
1.48001629e+20
1.569631121e+20
1.668273518e+20
1.770167883e+20
1.8673252e+20
1.969110865e+20
2.045245525e+20
2.121433798e+20
2.203141125e+20
2.257242337e+20
2.329683596e+20
2.354924574e+20
2.393809789e+20
2.417611944e+20
2.42999126e+20
2.445181133e+20
2.470363684e+20
2.447805559e+20
2.449754037e+20
2.457814947e+20
2.441853523e+20
2.413443292e+20
2.358864785e+20
2.360006761e+20
2.335899541e+20
2.29697817e+20
2.250003608e+20
2.170830646e+20
2.084485811e+20
1.32519864e+20
1.392556028e+20
1.462253126e+20
1.550227314e+20
1.625518756e+20
1.716132089e+20
1.815291964e+20
1.917905409e+20
2.004600785e+20
2.100883099e+20
2.168216296e+20
2.213960431e+20
2.281316865e+20
2.339629037e+20
2.365176102e+20
2.385630301e+20
2.417574722e+20
2.454122441e+20
2.448257821e+20
2.442814573e+20
2.457617791e+20
2.456138623e+20
2.437548972e+20
2.424399113e+20
2.356944183e+20
2.342354294e+20
2.312949396e+20
2.294159715e+20
2.250254312e+20
2.159235748e+20
1.238379443e+20
1.300180376e+20
1.351829976e+20
1.423120494e+20
1.503461124e+20
1.572914882e+20
1.66965676e+20
1.757163603e+20
1.859557434e+20
1.944884078e+20
2.033376103e+20
2.106259211e+20
2.185509981e+20
2.263720191e+20
2.307052899e+20
2.349744553e+20
2.374560922e+20
2.415970002e+20
2.445091985e+20
2.4480273e+20
2.444309727e+20
2.463662276e+20
2.444335967e+20
2.429896846e+20
2.408871587e+20
2.380018485e+20
2.3527908e+20
2.296432199e+20
2.281621515e+20
2.250224744e+20
1.172339636e+20
1.212550607e+20
1.2699233e+20
1.316715478e+20
1.379063453e+20
1.454003867e+20
1.52636819e+20
1.600973934e+20
1.678320304e+20
1.758081521e+20
1.84787998e+20
1.970191431e+20
2.067104217e+20
2.148415614e+20
2.223493011e+20
2.273782694e+20
2.318331585e+20
2.368848032e+20
2.406391246e+20
2.435321297e+20
2.436784973e+20
2.463894327e+20
2.45944803e+20
2.465783889e+20
2.448582706e+20
2.425648052e+20
2.39696277e+20
2.369920826e+20
2.323750273e+20
2.273728761e+20
1.112132652e+20
1.144638967e+20
1.17680356e+20
1.238839958e+20
1.288726361e+20
1.344989953e+20
1.400473666e+20
1.469495542e+20
1.551567501e+20
1.650599506e+20
1.747355019e+20
1.815243193e+20
1.898489023e+20
1.999077575e+20
2.088653475e+20
2.167984345e+20
2.243930985e+20
2.308880421e+20
2.352539718e+20
2.394824897e+20
2.414144828e+20
2.422795704e+20
2.483353108e+20
2.49037191e+20
2.466481653e+20
2.44336431e+20
2.458214597e+20
2.421593588e+20
2.375405633e+20
2.312510411e+20
1.094830513e+20
1.12079645e+20
1.145981845e+20
1.160046923e+20
1.205004946e+20
1.253063152e+20
1.303970202e+20
1.364147319e+20
1.438190024e+20
1.509101535e+20
1.58854859e+20
1.663162105e+20
1.765140368e+20
1.862509859e+20
1.954345188e+20
2.06026409e+20
2.13414086e+20
2.197658495e+20
2.271100202e+20
2.343446968e+20
2.392654822e+20
2.442383849e+20
2.464128744e+20
2.467875051e+20
2.491220333e+20
2.482882527e+20
2.478551058e+20
2.458407846e+20
2.424308886e+20
2.375721973e+20
1.059356897e+20
1.064834298e+20
1.09583606e+20
1.109611347e+20
1.140639398e+20
1.180202859e+20
1.23345521e+20
1.287353067e+20
1.343937186e+20
1.40212992e+20
1.477886391e+20
1.563696281e+20
1.625857562e+20
1.712551918e+20
1.809380953e+20
1.890948895e+20
1.983274758e+20
2.068337357e+20
2.138748827e+20
2.225215784e+20
2.28734057e+20
2.331351335e+20
2.377234622e+20
2.428075511e+20
2.459097487e+20
2.466642599e+20
2.473527554e+20
2.462533278e+20
2.440327671e+20
1.05243043e+20
1.059862405e+20
1.071702345e+20
1.10204171e+20
1.120532389e+20
1.148473837e+20
1.181947563e+20
1.219190021e+20
1.255344256e+20
1.307978076e+20
1.362957513e+20
1.418173053e+20
1.479779749e+20
1.548490864e+20
1.631792753e+20
1.731369153e+20
1.839492883e+20
1.941835209e+20
2.047714869e+20
2.094799832e+20
2.181204776e+20
2.280342629e+20
2.327518727e+20
2.382677073e+20
2.38967956e+20
1.034791782e+20
1.049607859e+20
1.067803367e+20
1.07354087e+20
1.089447416e+20
1.103878571e+20
1.121786903e+20
1.1426027e+20
1.180037313e+20
1.221091766e+20
1.261403678e+20
1.321574396e+20
1.391782541e+20
1.467498698e+20
1.538764422e+20
1.612369646e+20
1.688785605e+20
1.784420264e+20
1.870201882e+20
1.031622993e+20
1.038392832e+20
1.045633371e+20
1.057971511e+20
1.069109293e+20
1.083356587e+20
1.104686119e+20
1.123921411e+20
1.15269088e+20
1.172394607e+20
1.22273093e+20
1.259015564e+20
1.303416361e+20
1.355231716e+20
1.021724026e+20
1.028505521e+20
1.034306452e+20
1.04217276e+20
1.058709124e+20
1.061029849e+20
1.072303198e+20
1.093061835e+20
1.01235788e+20
)
;

boundaryField
{
    flow
    {
        type            calculated;
        value           nonuniform List<scalar> 
15
(
1.862408473e+20
1.708920118e+20
1.729290268e+20
1.826297751e+20
1.827045616e+20
1.866005288e+20
1.932635651e+20
2.014935288e+20
2.05165143e+20
2.084485811e+20
2.159235748e+20
2.250224744e+20
2.273728761e+20
2.312510411e+20
2.375721973e+20
)
;
    }
    obstacle
    {
        type            calculated;
        value           nonuniform List<scalar> 
30
(
133.085559
136.0850011
135.2309209
137.0896006
133.5594918
130.0561684
135.5024865
128.9205886
138.0414208
129.8492693
128.8780331
135.197993
127.6695407
130.249914
133.4389578
125.0600129
123.9742823
124.0864272
128.7136959
129.1675031
121.6692223
118.5153893
123.7953705
123.8144975
118.7856444
109.6500931
109.1473126
108.867725
97.13124934
85.5517855
)
;
    }
    frontAndBack
    {
        type            empty;
    }
    procBoundary1to0
    {
        type            processor;
        value           nonuniform List<scalar> 
21
(
3.075495281e+20
2.738039034e+20
2.559261273e+20
2.371380378e+20
2.190820965e+20
1.979639387e+20
1.811913442e+20
1.621916834e+20
1.46437972e+20
1.330477348e+20
1.261466126e+20
1.19008865e+20
1.143431603e+20
1.097804571e+20
1.071107619e+20
1.054460297e+20
1.041459797e+20
1.025007343e+20
1.026120884e+20
1.012396579e+20
1.016154754e+20
)
;
    }
    procBoundary1to3
    {
        type            processor;
        value           nonuniform List<scalar> 
36
(
2.414432377e+20
2.417957325e+20
2.460986195e+20
2.455331252e+20
2.414432377e+20
2.453276795e+20
1.96998758e+20
2.055682012e+20
2.141071438e+20
2.22029695e+20
2.30034597e+20
2.417957325e+20
2.371678487e+20
1.422330549e+20
1.501435717e+20
1.570386358e+20
1.651287098e+20
1.96998758e+20
1.738981181e+20
1.110807345e+20
1.131113107e+20
1.148925869e+20
1.187672264e+20
1.222121955e+20
1.422330549e+20
1.271232952e+20
1.01675377e+20
1.019194423e+20
1.019091101e+20
1.028259709e+20
1.047319422e+20
1.058253004e+20
1.110807345e+20
1.071986276e+20
1.01675377e+20
1.020882755e+20
)
;
    }
}


// ************************************************************************* //
