/*--------------------------------*- C++ -*----------------------------------*\
| =========                 |                                                 |
| \\      /  F ield         | OpenFOAM: The Open Source CFD Toolbox           |
|  \\    /   O peration     | Version:  2406                                  |
|   \\  /    A nd           | Website:  www.openfoam.com                      |
|    \\/     M anipulation  |                                                 |
\*---------------------------------------------------------------------------*/
FoamFile
{
    version     2.0;
    format      ascii;
    arch        "LSB;label=32;scalar=64";
    class       volScalarField;
    location    "0.008";
    object      rhoN;
}
// * * * * * * * * * * * * * * * * * * * * * * * * * * * * * * * * * * * * * //

dimensions      [0 -3 0 0 0 0 0];

internalField   nonuniform List<scalar> 
546
(
3.028576785e+20
3.276934774e+20
2.959796142e+20
2.637903918e+20
2.195592896e+20
2.67804515e+20
4.106530835e+20
2.719426928e+20
2.62144456e+20
3.362565847e+20
3.99436935e+20
2.074110484e+20
3.443636374e+20
2.975601965e+20
3.12490235e+20
2.77255994e+20
2.922653797e+20
2.690853494e+20
2.972009972e+20
3.257954896e+20
3.548811654e+20
3.446979492e+20
2.273489921e+20
2.968101312e+20
2.041704951e+20
2.334697858e+20
2.355839521e+20
2.377367576e+20
3.387236775e+20
2.136728845e+20
3.252915809e+20
2.598948269e+20
1.593736384e+20
3.096669817e+20
1.964477854e+20
2.794481898e+20
3.637213025e+20
2.601190975e+20
2.502287989e+20
3.002290932e+20
2.904995891e+20
2.56213648e+20
2.828701305e+20
3.967469283e+20
2.374925784e+20
2.646534489e+20
2.541438085e+20
2.050174089e+20
2.71357432e+20
2.085091135e+20
2.891624313e+20
2.121218151e+20
2.273489923e+20
2.69827392e+20
1.769477624e+20
1.373351683e+20
1.52436675e+20
2.377367578e+20
1.975888119e+20
1.851831666e+20
2.579898743e+20
2.598948269e+20
2.618281203e+20
3.326052766e+20
3.466725627e+20
2.910918642e+20
1.759941785e+20
2.364719068e+20
2.502287991e+20
2.161649473e+20
1.936663926e+20
3.050162476e+20
3.689610398e+20
3.471535623e+20
2.874910162e+20
3.276661748e+20
2.160222372e+20
2.050174089e+20
1.938267373e+20
2.867000311e+20
1.84012456e+20
2.916674955e+20
2.407224625e+20
2.968101312e+20
2.722273268e+20
1.648022018e+20
2.910154703e+20
2.796903031e+20
1.975888119e+20
1.424485898e+20
1.794712169e+20
2.598948267e+20
3.187472769e+20
2.40852097e+20
2.657822979e+20
2.212298168e+20
4.106530835e+20
2.955898835e+20
2.383131418e+20
2.521924385e+20
1.573539441e+20
2.562136478e+20
2.705714292e+20
2.975601965e+20
2.749914068e+20
3.780763555e+20
3.049725702e+20
2.818989373e+20
1.938267371e+20
1.824454743e+20
1.971562032e+20
2.253794285e+20
2.13975522e+20
2.96810131e+20
2.450045941e+20
1.785357186e+20
1.247209159e+20
1.817986973e+20
1.552483523e+20
1.566934482e+20
2.243390211e+20
2.259955015e+20
2.504442888e+20
2.408520967e+20
2.195592896e+20
1.862987932e+20
2.463918501e+20
1.655303348e+20
2.383131418e+20
3.122382569e+20
2.541871405e+20
2.196116984e+20
2.336753254e+20
3.223568795e+20
3.12490235e+20
3.780763555e+20
3.430941417e+20
1.66576645e+20
2.713574322e+20
3.257954896e+20
3.023061777e+20
2.916674952e+20
2.540959324e+20
2.02370544e+20
2.041704954e+20
2.197362686e+20
2.494418308e+20
1.957832128e+20
9.879440603e+19
1.4244859e+20
2.355559725e+20
1.807964015e+20
2.049089638e+20
2.293829496e+20
2.080035376e+20
4.191722847e+20
2.815906858e+20
1.891775254e+20
2.383131418e+20
1.561191285e+20
2.904995889e+20
3.294175471e+20
2.459740263e+20
2.603651715e+20
3.249898441e+20
2.394483585e+20
2.541438085e+20
2.690853492e+20
3.359663447e+20
2.215409333e+20
2.628749375e+20
1.98864202e+20
2.139755233e+20
2.563360224e+20
1.225022962e+20
2.060027522e+20
2.078681941e+20
2.796903036e+20
2.258157844e+20
1.994280242e+20
1.570373148e+20
2.146957264e+20
2.504442888e+20
1.835063594e+20
2.195592896e+20
2.328734915e+20
2.698577406e+20
2.482955022e+20
2.502287989e+20
1.561191286e+20
3.026037389e+20
1.952103986e+20
2.090779227e+20
3.09958538e+20
3.124902347e+20
2.646534486e+20
3.30386951e+20
3.203397014e+20
2.972009982e+20
2.736682135e+20
3.548811681e+20
2.651522702e+20
1.872285822e+20
2.158619151e+20
1.905591311e+20
2.197362709e+20
2.217260738e+20
2.237522429e+20
1.975888131e+20
1.566934505e+20
1.794712169e+20
1.807964013e+20
1.707574699e+20
2.293829496e+20
2.080035375e+20
2.328734913e+20
2.698577406e+20
2.955898835e+20
2.502287991e+20
2.28174111e+20
2.057705421e+20
2.074110482e+20
2.459740265e+20
2.603651719e+20
2.999906263e+20
2.898585399e+20
1.651934752e+20
2.050174079e+20
1.938267363e+20
2.736682103e+20
1.70868708e+20
2.916674922e+20
3.744571613e+20
2.158619132e+20
2.177818603e+20
2.884038506e+20
2.078681905e+20
3.356283613e+20
1.552483518e+20
2.136728831e+20
1.346034128e+20
1.468970761e+20
1.138383131e+20
2.293829494e+20
2.080035376e+20
1.862987932e+20
2.111930144e+20
2.601190975e+20
1.906505135e+20
3.122382569e+20
2.420829904e+20
2.074110485e+20
2.336753255e+20
1.239834154e+20
2.374925788e+20
3.024610825e+20
3.049725697e+20
3.203397025e+20
2.325920846e+20
3.38827308e+20
2.628749375e+20
1.590913621e+20
3.075898137e+20
2.698273915e+20
2.586159591e+20
2.472033026e+20
1.801524349e+20
1.957832125e+20
3.246101901e+20
9.971401303e+19
1.794712169e+20
9.03982006e+19
1.366059758e+20
1.146914747e+20
2.195592896e+20
1.397240948e+20
1.642612332e+20
2.246483118e+20
1.668191992e+20
3.362565834e+20
2.299788423e+20
2.31812348e+20
2.582727268e+20
1.487800982e+20
2.374925778e+20
2.646534493e+20
2.287294291e+20
2.690853501e+20
2.584356495e+20
2.997318519e+20
1.971562032e+20
2.121218143e+20
2.006020524e+20
2.293532828e+20
1.905591294e+20
2.060027522e+20
2.494418308e+20
2.37736758e+20
2.258157844e+20
1.566934476e+20
1.009525595e+20
1.468970757e+20
7.968681887e+19
1.03222327e+20
1.617805292e+20
1.513677697e+20
1.525282888e+20
1.064123585e+20
2.025661709e+20
2.161649468e+20
3.26812036e+20
3.050162473e+20
2.336753261e+20
1.735767813e+20
1.37495704e+20
1.26025452e+20
3.430941381e+20
2.562717599e+20
2.455138671e+20
3.127636689e+20
1.314374688e+20
3.049251107e+20
3.075898137e+20
2.428446524e+20
2.313932265e+20
2.19736269e+20
1.662945553e+20
2.517212732e+20
2.258157864e+20
1.851831687e+20
1.346034132e+20
1.016979762e+20
1.593736392e+20
1.261606224e+20
1.733362811e+20
1.746551179e+20
1.877271225e+20
2.128247139e+20
1.668191983e+20
2.161649484e+20
1.81562245e+20
2.074110498e+20
2.582727288e+20
1.983734643e+20
2.624917965e+20
3.024610849e+20
1.906078576e+20
2.56271762e+20
2.067485196e+20
3.257954885e+20
2.102999483e+20
2.916674922e+20
2.139755189e+20
3.777583482e+20
3.130614296e+20
1.922692371e+20
1.940103145e+20
2.517212732e+20
1.693618383e+20
3.133868952e+20
1.233864613e+20
1.129977501e+20
6.830298775e+19
1.490989174e+20
2.080035373e+20
1.746551192e+20
1.642612346e+20
2.246483125e+20
2.14481828e+20
1.441099645e+20
1.452497938e+20
2.318123462e+20
3.812597396e+20
2.479668304e+20
2.374925778e+20
2.52050902e+20
3.430941409e+20
3.715940549e+20
3.876534743e+20
2.867000323e+20
2.365874458e+20
3.181827242e+20
2.273489927e+20
2.023705437e+20
2.858386916e+20
2.884038506e+20
2.217260718e+20
2.796903036e+20
2.96383217e+20
1.994280242e+20
4.486780409e+19
6.779865055e+19
1.252221442e+20
1.490989163e+20
1.733362811e+20
1.047930707e+20
1.173294515e+20
1.300595484e+20
1.906505138e+20
1.801374556e+20
1.452497938e+20
1.464077987e+20
1.721818179e+20
2.851618527e+20
2.374925778e+20
2.142432685e+20
2.541438081e+20
2.306445839e+20
2.067485196e+20
1.69413654e+20
2.23443695e+20
2.121218143e+20
2.54095933e+20
1.753878045e+20
2.858386916e+20
2.472033026e+20
2.355839513e+20
2.097677258e+20
2.68156244e+20
1.566934491e+20
1.12169511e+20
3.389932552e+19
1.366059765e+20
1.605680649e+20
1.040017694e+20
8.150572227e+19
1.173294524e+20
1.537067401e+20
1.429878853e+20
1.200916371e+20
1.452497949e+20
9.760519991e+19
1.598831179e+20
2.479668304e+20
1.124964851e+20
2.520509041e+20
1.397790944e+20
1.28135881e+20
3.10122782e+20
3.518591305e+20
2.1029995e+20
2.518946567e+20
2.54095933e+20
3.642669786e+20
3.266727933e+20
1.236016524e+20
2.217260738e+20
1.678141821e+20
1.975888131e+20
2.991420391e+20
1.346034123e+20
1.129977501e+20
1.821413007e+20
2.064446549e+20
1.271132728e+20
1.280804207e+20
7.039767198e+19
9.458876315e+19
7.14939432e+19
2.642016037e+20
1.694580927e+20
2.074110466e+20
1.844805192e+20
1.859751228e+20
1.624949217e+20
2.016407233e+20
2.033150481e+20
2.050174096e+20
1.938267371e+20
2.736682126e+20
2.628749398e+20
9.280329456e+19
2.139755226e+20
3.777583482e+20
2.177818603e+20
2.746703339e+20
1.524366744e+20
1.398451518e+20
2.117022979e+20
1.121695102e+20
6.779865055e+19
1.252221451e+20
6.881488497e+19
1.155575207e+20
6.986204714e+19
1.52528287e+20
9.458876172e+19
1.668191983e+20
1.681282932e+20
9.683319734e+19
1.342071499e+20
1.598831179e+20
1.363817567e+20
1.999937497e+20
1.386279961e+20
1.397790944e+20
1.793902334e+20
2.067485196e+20
2.476045712e+20
1.971562015e+20
2.518946524e+20
1.738551106e+20
2.833187636e+20
2.858386966e+20
6.730170662e+19
7.909842564e+19
1.479898057e+20
1.146914741e+20
8.089026452e+19
1.280804207e+20
5.866472665e+19
1.064123585e+20
1.310722282e+20
1.441099645e+20
1.694580927e+20
1.342071488e+20
1.721818192e+20
1.115850737e+20
1.37495704e+20
8.821781714e+19
1.143647136e+20
2.690853479e+20
1.938267371e+20
1.233864621e+20
1.129977509e+20
1.366059765e+20
1.261606224e+20
6.933451245e+19
1.047930707e+20
1.173294515e+20
8.276516713e+19
1.191565711e+20
1.801374556e+20
8.472904702e+19
1.830097484e+20
1.844805192e+20
1.611784398e+20
1.233864613e+20
7.909842506e+19
1.138383129e+20
1.261606224e+20
1.386690259e+20
4.657469844e+19
1.759941786e+20
1.655303355e+20
1.009525599e+20
)
;

boundaryField
{
    flow
    {
        type            zeroGradient;
    }
    obstacle
    {
        type            calculated;
        value           nonuniform List<scalar> 
30
(
98.52668125
124.8471719
106.256946
102.8928484
1e-300
86.32412354
220.5514415
194.6688385
47.2181733
219.9973676
1e-300
139.0638472
1e-300
1e-300
42.32644923
45.75173718
1e-300
84.42068242
133.6074143
88.42177641
1e-300
273.3110856
64.79530783
177.6140008
89.89590654
217.5576316
215.111486
38.5178513
57.79651651
371.6675216
)
;
    }
    frontAndBack
    {
        type            empty;
    }
    procBoundary1to0
    {
        type            processor;
        value           nonuniform List<scalar> 
21
(
2.561126441e+20
2.338419794e+20
2.338419794e+20
2.004359824e+20
1.447593207e+20
2.004359825e+20
2.338419794e+20
2.004359824e+20
1.336239882e+20
1.336239882e+20
8.908265883e+19
7.794732681e+19
1.113533235e+20
1.670299841e+20
7.794732648e+19
5.567666177e+19
1.113533235e+20
1.447593206e+20
1.447593216e+20
1.113533235e+20
1.113533235e+20
)
;
    }
    procBoundary1to3
    {
        type            processor;
        value           nonuniform List<scalar> 
36
(
2.136728851e+20
2.472033048e+20
2.910154718e+20
2.237522429e+20
2.136728851e+20
1.975888113e+20
1.303181954e+20
2.891624313e+20
2.386370432e+20
2.674694032e+20
1.618964349e+20
2.472033048e+20
2.450045928e+20
1.499953123e+20
1.512305412e+20
1.524862848e+20
2.56271762e+20
1.303181954e+20
2.067485196e+20
1.191565711e+20
8.406414597e+19
1.210414948e+20
1.220064989e+20
1.721818192e+20
1.499953123e+20
1.611784398e+20
9.039820138e+19
5.691915687e+19
4.587658998e+19
1.271132728e+20
1.280804207e+20
9.386356265e+19
1.191565711e+20
9.458876315e+19
9.039820138e+19
1.682542654e+20
)
;
    }
}


// ************************************************************************* //
