/*--------------------------------*- C++ -*----------------------------------*\
| =========                 |                                                 |
| \\      /  F ield         | OpenFOAM: The Open Source CFD Toolbox           |
|  \\    /   O peration     | Version:  2406                                  |
|   \\  /    A nd           | Website:  www.openfoam.com                      |
|    \\/     M anipulation  |                                                 |
\*---------------------------------------------------------------------------*/
FoamFile
{
    version     2.0;
    format      ascii;
    arch        "LSB;label=32;scalar=64";
    class       volScalarField;
    location    "0.008";
    object      translationalT;
}
// * * * * * * * * * * * * * * * * * * * * * * * * * * * * * * * * * * * * * //

dimensions      [1 2 -2 0 0 0 0];

internalField   nonuniform List<scalar> 
546
(
933.2430971
912.4148503
896.5254303
879.7407415
867.0902205
860.3991435
853.8818752
836.7635845
828.6499899
824.0382223
815.2422847
812.262907
809.0854312
809.5993126
795.5028142
783.3919046
785.480539
773.3509802
768.5179742
769.2364802
773.6502101
756.920862
761.9131937
772.8495832
766.3131004
760.5543976
761.2672629
745.2194183
741.2689015
731.954589
1022.46009
1006.160121
999.6759184
989.9891321
977.6525196
959.486661
949.1903947
938.3905172
930.7927109
922.787737
904.7493748
904.5714827
899.1900976
896.4729429
892.8159737
871.811788
867.6765879
866.685175
855.8531982
851.8939411
848.8223792
851.0739771
843.4120032
839.6624013
835.9221857
824.808975
809.3136305
806.0360053
782.4384924
728.1506615
1031.659865
1025.744792
1012.994088
1016.321068
1005.933721
989.8554601
989.4258779
982.150262
963.0819804
968.6708037
955.6059466
951.0889269
943.2347963
935.4552409
934.2776173
922.715118
912.7696591
908.9826019
900.0612418
904.3108741
893.8578896
892.9283243
878.8480926
882.1803064
873.467363
860.6862013
845.3697478
820.1869894
797.7008749
742.7683361
1027.206279
1013.788431
1010.962477
994.4881653
1002.479674
1001.079623
982.8008667
978.0205541
972.178936
971.6523199
965.2680769
962.3190438
955.4888294
948.5559693
944.6419174
936.1123311
929.673472
926.717907
924.1029416
923.0475332
916.3031477
909.9220737
906.0440687
899.331494
888.9374529
874.863544
853.1754957
834.4857611
797.8567405
752.743111
1006.257523
992.6552671
996.7107246
987.8302282
981.2918067
973.2247977
964.1778186
960.9023663
963.2973556
958.3841784
958.9257156
959.2814201
952.7185746
952.4468939
935.6427077
938.4226817
940.2221234
939.5802921
939.1494758
929.4808889
913.0535014
915.8449539
915.4765031
909.0974607
902.7964189
887.262819
869.847573
835.8211143
805.7492557
756.7129896
978.07112
975.1280777
970.8658708
968.1143616
956.3871792
941.8794983
944.1158491
945.6524707
940.8085952
933.8891098
934.905874
942.4226045
942.7794825
943.0043223
929.9361305
934.155704
921.6020766
930.4600218
925.9114018
927.3341756
916.3460122
911.6701957
906.0998864
902.3212621
900.095435
884.7497762
859.7448956
838.4671809
812.4700798
769.6155929
953.0087438
954.4979488
951.553385
938.5326762
935.9533612
933.011794
925.3473422
924.9007451
919.105106
922.6665521
920.544529
921.7431741
915.508351
911.9628596
918.2309152
914.3931368
918.5675318
918.196518
921.1270937
917.3743326
910.2690328
897.3830663
899.9997141
891.6645045
881.8891402
858.1774621
850.9570497
843.3651645
816.3637226
775.24132
906.8237709
917.8884696
916.0415394
922.6966667
914.9744005
915.6119572
913.5724945
903.4922154
901.345724
903.4296995
902.2834971
897.7908799
894.428024
896.9143291
894.5438906
899.1075027
904.6285907
899.0470792
899.5427618
902.5280548
897.7815447
893.636739
886.2696064
875.4270944
870.5880966
860.2481011
850.3763127
825.4117438
805.4199126
774.5783393
857.4703767
874.8010936
884.6010036
891.6411046
896.7991062
899.0892517
896.1705863
887.9507764
888.383381
882.9094022
877.7081927
890.1916889
884.1042933
876.7176987
879.0770606
885.5507342
882.7242658
882.0680064
872.6528689
884.211141
870.0272637
870.3527819
867.1313465
861.39328
861.1042085
858.1190935
841.533885
831.4910889
811.8670599
780.9180042
794.5425631
817.4217559
842.1230318
863.6841237
868.2551293
866.3346916
862.0266962
872.812358
869.3228262
874.8100247
867.2930199
873.5785057
863.5118876
871.9865585
864.70568
861.6659179
864.8273779
862.1255793
858.4251546
854.3017244
860.4309667
858.6045576
854.6733242
850.9110153
853.8093844
847.4425998
832.8455771
818.4367261
806.808713
785.7149164
712.9556959
750.2938088
780.9959328
811.8116307
824.0963601
840.0164147
843.0345897
847.1983151
849.2025686
855.7771235
855.2881503
850.7097071
854.7160746
859.110929
853.2138525
849.6661961
846.0443701
856.6194395
847.8843924
843.0054032
852.7675813
848.0717301
851.8909976
845.3939423
835.6103963
840.3095637
829.7906389
809.5754461
797.8585124
778.2335635
654.6815151
699.837752
716.2011856
748.8497408
771.523878
791.8892743
813.8214625
821.1404491
829.985145
830.8604152
829.2512925
834.1960406
838.711008
845.5145285
845.5699768
831.920865
832.5275436
839.8814299
840.4846683
834.1259863
835.6775051
839.5667554
838.7893282
832.8405197
827.452462
825.2705937
819.8085765
806.8526696
792.8107413
776.9558274
580.8154554
619.4214447
655.1163828
688.5875063
718.9833117
751.7133177
764.4233519
781.4842681
799.5228502
812.4452101
818.0032621
823.1891278
818.7344722
822.6193106
828.9737869
827.476345
823.9320359
825.3678273
824.051959
823.5993187
825.8062661
829.1791503
824.8665097
830.6718121
819.8993664
808.1177049
804.6423116
800.3641981
792.3763332
774.6397166
523.1247149
558.663551
586.4675898
623.8522336
665.7314172
699.3827223
713.1149504
735.9790038
754.6456952
776.0291147
788.126198
798.7586783
801.7092461
807.1604948
811.3637809
810.3504758
817.6307582
809.9751338
812.1502331
809.4542911
803.8158991
806.4153948
808.2919496
804.7544147
801.8235728
795.3759122
801.4870545
796.7927381
781.4277613
766.5851537
471.0639549
494.9182035
528.6359304
553.798831
598.5002979
628.6036957
652.2126286
687.3858448
712.1045929
730.1633359
750.414859
769.6124676
778.0051782
781.1689788
785.0888355
792.984612
793.5897058
790.9984383
790.3070995
791.8603529
790.2337063
793.15203
793.7038016
791.5223875
792.3221549
782.2168158
782.6749596
784.8194502
775.6019186
758.2284978
437.9332346
456.5098905
486.0783168
508.617187
536.1148135
568.8142814
605.0910238
633.6194587
660.6838467
676.8259462
699.3745415
726.9092396
730.6656829
746.4434227
767.9869627
769.1761188
778.9963506
778.6496243
786.1785805
783.9884619
780.6796261
779.4849755
783.0540639
779.9876338
781.7623933
773.3765061
764.9807994
766.6000165
760.2787926
407.4532337
418.2149228
436.1413096
464.3579914
493.0538201
516.1597895
546.5266218
576.077708
606.7481649
638.0973562
667.1630704
692.6309099
705.2103841
718.937915
740.585968
750.437754
765.4899702
769.2943004
774.110628
773.1601321
770.6579722
775.3462392
770.7479192
777.1754677
768.605304
384.0719832
392.4733918
417.1359307
434.950769
452.1101759
472.934693
496.2579183
528.7756156
550.170247
585.3571177
612.2865507
632.7488161
660.395556
688.5419348
707.3429277
724.1045308
738.511008
748.5183833
753.4370955
364.0636658
376.4707293
382.0230435
402.9324285
426.0415625
441.8473383
457.0817209
478.0792965
508.0987491
524.1861891
562.4424951
588.3547317
609.030267
635.4189753
352.2160168
353.6076135
360.2685851
370.3340093
395.3637344
414.5718761
420.1136814
435.5289454
334.6132542
)
;

boundaryField
{
    flow
    {
        type            calculated;
        value           nonuniform List<scalar> 
15
(
731.954589
728.1506615
742.7683361
752.743111
756.7129896
769.6155929
775.24132
774.5783393
780.9180042
785.7149164
778.2335635
776.9558274
774.6397166
766.5851537
758.2284978
)
;
    }
    obstacle
    {
        type            calculated;
        value           nonuniform List<scalar> 
30
(
798.3751573
815.3835212
775.4321354
775.1989033
759.1346582
763.9347208
745.953394
753.7028316
710.3137492
722.1201517
733.3659923
712.5873488
724.1456897
723.9020134
715.7311505
719.9895043
714.7297495
699.6377067
686.2196729
701.2014356
707.4154196
704.9984609
680.2148046
711.0307562
703.4543419
718.3118042
727.117971
697.6598994
696.854993
728.8266883
)
;
    }
    frontAndBack
    {
        type            empty;
    }
    procBoundary1to0
    {
        type            processor;
        value           nonuniform List<scalar> 
21
(
948.1959651
1044.127843
1044.924483
1047.69798
1017.83782
992.1238145
949.2827725
897.3241059
833.8628781
761.3478647
680.2646783
610.9815301
548.3349069
495.3113323
450.8591864
417.388754
385.7868379
364.1763425
351.7838333
337.1411041
331.7657525
)
;
    }
    procBoundary1to3
    {
        type            processor;
        value           nonuniform List<scalar> 
36
(
754.1610761
772.1613624
769.2421537
762.6770359
754.1610761
751.0014759
759.3366212
767.0523743
772.6440956
763.2401457
769.175952
772.1613624
766.1465794
661.9877332
689.0717554
699.702319
721.3243023
759.3366212
728.1695833
464.2011413
485.4808519
506.8529845
544.6957539
565.4573613
661.9877332
591.2943746
336.6741288
345.9871889
354.0494924
372.6916291
389.0549298
401.0672863
464.2011413
410.3655349
336.6741288
327.781753
)
;
    }
}


// ************************************************************************* //
