/*--------------------------------*- C++ -*----------------------------------*\
| =========                 |                                                 |
| \\      /  F ield         | OpenFOAM: The Open Source CFD Toolbox           |
|  \\    /   O peration     | Version:  2406                                  |
|   \\  /    A nd           | Website:  www.openfoam.com                      |
|    \\/     M anipulation  |                                                 |
\*---------------------------------------------------------------------------*/
FoamFile
{
    version     2.0;
    format      ascii;
    arch        "LSB;label=32;scalar=64";
    class       volVectorField;
    location    "0.008";
    object      UMean;
}
// * * * * * * * * * * * * * * * * * * * * * * * * * * * * * * * * * * * * * //

dimensions      [0 1 -1 0 0 0 0];

internalField   nonuniform List<vector> 
546
(
(376.0347753 104.0050202 -0.5088531821)
(354.2953137 103.8127028 -1.311488171)
(344.7643391 96.46165555 1.482097318)
(331.6808248 91.34096345 0.3027505539)
(324.296054 90.68397553 -4.160911321)
(313.9125493 88.87757154 -8.967110517)
(306.6161665 82.07709012 -5.053825117)
(297.8751841 84.2359752 -0.4396007547)
(285.1239446 80.35420819 2.983772277)
(277.7824717 76.50440917 0.9932659652)
(273.2396513 76.89051639 2.776825834)
(266.9364879 71.21448866 -3.486724675)
(261.0372158 74.37946443 -3.335453395)
(254.0349314 68.61959908 -0.03850949954)
(245.6712132 68.43812389 -2.654183491)
(241.4961995 68.23317029 -3.135935546)
(241.1626553 66.04240452 -4.689299819)
(236.3216268 62.77962754 2.873011069)
(228.3955289 63.80555756 -2.264350183)
(225.8791212 61.804288 0.6907108448)
(230.2605548 59.19047938 -3.068548941)
(230.7020001 62.40897141 1.650407811)
(227.071399 63.39147782 8.434514635)
(234.4783972 58.66801841 5.412064956)
(243.4153425 63.00429489 -2.733995843)
(245.1659002 68.75533618 1.819152829)
(251.9046168 67.33345666 1.700299228)
(269.0289516 67.56575025 4.597228617)
(302.8500814 74.487677 9.57828969)
(402.1859775 76.55882606 1.541003209)
(637.9953532 198.420954 -6.608663191)
(616.8990869 189.8442325 -4.007140584)
(599.6932537 179.973319 2.090590168)
(575.6024713 172.5610389 2.608725542)
(564.7495175 164.8065756 -0.7199184218)
(546.6329687 156.0693439 -2.615676017)
(525.2004577 151.0239928 -0.5537255048)
(509.0196279 148.6026224 -4.979016129)
(499.119377 150.2018035 -6.175905169)
(492.49731 140.6562765 -3.42522537)
(480.1626116 139.0241989 0.004526718257)
(460.7979318 133.2846432 -3.502985444)
(447.5349137 131.4434674 -3.306617571)
(434.3460949 122.5532989 4.473577284)
(423.4884275 122.0477903 4.683295282)
(422.3981095 123.3966773 4.486855975)
(419.3665277 118.6613751 -1.526240586)
(399.8264905 110.814269 0.006004665204)
(397.7305804 112.8868281 1.899809325)
(395.0502224 107.737843 4.671527809)
(392.2538105 103.4015397 2.787092076)
(381.9328608 106.1789863 5.713042415)
(385.6955767 103.4899 -3.322854641)
(384.94606 99.16699786 4.28626244)
(389.4719716 106.4588507 -0.8516875034)
(392.6635273 106.3231545 -3.31051932)
(412.3670314 110.0859875 9.52930095)
(432.9561878 103.2359638 7.240146906)
(483.5028603 113.3214888 3.271871402)
(605.4788466 90.41017115 0.1426377616)
(836.7775125 268.7390138 -7.117848333)
(813.4138885 257.7855061 -6.509860724)
(796.212808 255.8915437 -4.042025197)
(773.0894532 240.5189968 -4.21386246)
(751.2887417 228.6963306 2.38701041)
(721.9513772 223.7795425 -7.017846648)
(704.8419708 217.2161643 -6.989263981)
(687.9060961 209.5724449 -9.912363032)
(670.1108804 201.7196393 -3.649535056)
(658.1927533 195.0848945 -0.750808655)
(641.6727765 193.0631198 -3.353319696)
(618.5063419 187.3193496 1.789063044)
(603.4706617 180.499176 5.96062775)
(585.592403 175.559759 2.593279325)
(573.5003236 171.9156938 4.487463067)
(579.2572941 167.7377388 3.859769769)
(564.575533 162.5834626 -4.969240634)
(551.1036303 160.3757134 -2.653308302)
(545.9123479 159.0361957 -1.935674204)
(534.4259714 148.7848386 2.303958684)
(530.434684 150.1913343 0.4328970731)
(528.7135973 142.7783618 -1.630886639)
(509.5234366 143.0410977 1.068623218)
(514.241729 140.979449 0.03181170241)
(520.5974393 141.3210854 -0.2290534727)
(518.9999464 141.3086873 5.612791118)
(532.6530096 139.342683 3.176307159)
(568.9726697 139.0747317 -0.08521424501)
(620.2787268 137.5201397 2.492489389)
(718.8905086 103.8582391 1.29788236)
(987.2947222 315.9972888 -0.3217782393)
(973.4755228 313.5452541 -2.872445596)
(939.5779764 310.8545775 -3.300307651)
(925.4275779 303.9105875 -4.717854486)
(900.4578313 290.2056992 -2.904885954)
(887.2734798 276.2471075 -2.739869745)
(863.6384044 270.889748 -0.736279577)
(844.7283648 264.7292829 0.8676822617)
(816.8550879 258.6569759 -2.850306186)
(796.9463465 250.4603752 -0.6378046588)
(781.7461863 240.5679031 -0.07253863884)
(758.7020707 236.9996109 -1.658164761)
(744.6824615 231.2083847 -4.569459501)
(731.0436387 225.6080137 -4.907569215)
(717.9525276 218.1167704 0.2219313605)
(708.9118764 208.0764998 0.5833729625)
(697.2948199 206.9604669 6.47421479)
(679.4949667 204.7761985 1.491891187)
(667.6293591 199.670121 -2.544511399)
(654.5136208 192.4859427 -1.473661213)
(651.895218 184.9298847 6.923118702)
(637.0055327 178.3283633 6.772138926)
(627.7670934 180.899514 -1.002758094)
(629.3287778 180.6154117 6.163851061)
(635.9445578 175.2316987 3.018699804)
(639.8728991 175.0269689 -0.4287143668)
(644.4257968 169.3471465 -0.5994820707)
(688.8864191 161.0205861 -1.401712026)
(723.5244585 156.6354684 -0.7255412039)
(790.2772695 132.9833676 3.93602189)
(1100.057766 346.4838835 1.680920309)
(1084.013363 344.039926 4.132349297)
(1059.67131 344.0052324 1.922571827)
(1041.690548 337.2321868 -1.162115246)
(1016.199949 326.8643246 -1.00935844)
(1002.537227 326.0676986 -0.2922443166)
(985.3562183 323.9364868 3.724163794)
(965.4830977 313.8415228 -0.6570621552)
(940.1274155 305.1985293 -6.916021264)
(924.8454621 295.6872036 -3.84998448)
(902.2872618 292.0882875 -5.44475312)
(885.782175 280.5658834 1.598496714)
(868.9958434 272.9342985 -1.522190322)
(849.7049764 269.608034 0.3521170381)
(838.9725692 262.8629213 0.4608655004)
(821.1179499 253.0749245 -0.2791764012)
(807.1645971 245.0627006 2.414204058)
(786.8550026 245.9615788 4.56520363)
(770.662727 232.3796708 0.9200699956)
(760.7449561 230.9872284 2.350149024)
(759.4410077 223.3953402 3.477203263)
(749.1891146 219.9214506 -4.192852531)
(742.2875098 214.7960297 3.232868671)
(737.4878604 214.8016936 3.962133032)
(739.3728324 207.2293115 9.353289204)
(743.7463215 204.0586862 0.890218359)
(749.490553 199.0583688 -3.765171172)
(778.6733235 190.6468811 -1.834374521)
(808.4191605 173.0890864 0.70741488)
(859.9311226 161.0321309 -0.845396217)
(1182.730066 350.6606197 -1.653889546)
(1160.639897 355.0542739 -1.427467191)
(1143.712314 353.4119106 0.2321306215)
(1123.672112 360.195955 -1.315424887)
(1103.901231 361.239248 -1.302206375)
(1091.014212 362.2534896 1.99990453)
(1077.126196 352.1327256 2.710349322)
(1056.299369 342.7352417 2.439737603)
(1038.308141 338.6740192 -0.5793266625)
(1025.36067 338.8841632 0.04303478443)
(1006.819519 329.843966 -2.760918362)
(988.1730573 321.7126018 -1.83598874)
(970.5789457 314.6490553 0.8944274237)
(948.8284988 307.2022881 2.420846649)
(938.3323422 299.4170646 2.607734634)
(920.075575 292.5070162 2.735159869)
(911.8254133 288.7068293 3.345614658)
(887.5719781 279.5676995 4.289561757)
(875.7971102 274.4370322 3.609965784)
(861.7481902 263.7924678 0.9929486652)
(848.5695114 261.2076863 -2.184970817)
(848.4794867 254.6603884 0.896403891)
(838.424218 247.3532024 -5.672651861)
(823.9013785 243.7343952 2.846276138)
(827.3000833 236.9065738 5.409580394)
(834.5456249 230.8341121 3.401116953)
(839.441942 228.9730944 -4.388422327)
(857.658528 215.5119877 -5.089076488)
(878.6387616 202.3958238 0.07866375966)
(929.2579683 191.3219204 -8.477082588)
(1266.169443 336.900202 -3.066262768)
(1241.781548 350.9678465 -1.978100908)
(1218.387085 364.1427865 -5.166482344)
(1197.734548 372.6116845 -3.465900448)
(1175.100893 373.1627621 -3.308819526)
(1164.421017 375.1831072 -5.636633919)
(1155.257329 374.945961 -2.879332156)
(1136.854445 373.9175831 -3.84457891)
(1129.812362 365.7456563 0.7687326443)
(1109.194156 361.3474025 3.655560545)
(1085.651685 362.4864199 2.031208249)
(1061.832863 352.3191931 -3.190060143)
(1055.411215 345.1057494 -2.352190653)
(1036.983407 341.7788517 2.467765085)
(1018.062352 336.6083285 -3.579253477)
(1010.060233 330.7164553 0.3584431244)
(989.0000024 316.883143 0.3697769002)
(970.3916111 308.9583587 -1.12738887)
(961.8772819 304.7588223 2.501310402)
(943.9819513 304.3050533 -1.666522224)
(941.3806271 293.2586179 3.044645951)
(934.9781738 288.8435889 -0.7868697336)
(925.5391479 277.5790535 0.1566339396)
(921.832701 270.2911924 0.4013714829)
(916.532132 270.5898122 3.797245961)
(921.2218684 261.391579 5.149262049)
(925.3896337 257.3039242 6.670525078)
(932.3135675 241.5638339 5.792576073)
(951.6377878 236.1054068 2.461530261)
(985.4289679 220.7853792 1.953720821)
(1336.090763 309.8720778 -3.521944005)
(1308.219503 334.7230085 -4.884781116)
(1295.83264 353.9811101 -3.527235892)
(1273.613463 364.9636982 -4.274769751)
(1256.704951 369.9062321 -6.251795867)
(1230.326286 382.5191296 -2.434498082)
(1215.844978 383.7794105 -3.292815513)
(1203.639125 384.8321412 0.344270494)
(1192.222425 388.2547044 -0.5571075996)
(1174.696744 383.1374442 -4.641225065)
(1153.422599 381.3650817 -2.168651125)
(1135.694818 379.4612252 1.180082346)
(1125.81553 374.1520771 0.6128639435)
(1108.215115 371.789812 1.541871217)
(1096.783745 362.8634795 0.3921207514)
(1081.564281 357.023525 0.5683551354)
(1063.449255 347.4963731 3.735213067)
(1051.180192 343.3670727 1.488037207)
(1041.300468 339.2671643 2.121089654)
(1026.772772 329.6108243 -3.852859732)
(1017.216409 322.797624 -1.490967188)
(1016.259786 316.4032662 0.6190331802)
(1000.492654 307.3308084 -2.385196431)
(995.856971 297.1047785 -2.279617068)
(983.1748002 295.5922004 -2.556772766)
(978.0336867 288.6030972 1.323760613)
(981.8653153 279.7548132 -3.009916689)
(996.572665 267.9387657 0.8402631405)
(1009.275334 262.5929963 -0.2494067042)
(1032.761565 241.5725143 -2.51433417)
(1410.665097 276.644168 -0.7651436769)
(1381.35686 302.7512487 -1.303617466)
(1356.056861 323.8804208 0.5935559807)
(1330.758382 347.5346739 -1.947353088)
(1314.015733 362.0060062 1.873572586)
(1288.856077 371.6678193 -2.313274136)
(1268.25991 382.9283713 -3.480759498)
(1258.677306 388.7575449 -2.235526553)
(1242.97219 398.9917468 -2.164910551)
(1231.389533 397.4480734 2.828384858)
(1220.115971 398.7782867 1.898126718)
(1196.549819 397.7561618 7.974849089)
(1185.457996 391.3371871 3.397395338)
(1175.20278 390.6894642 -2.654079242)
(1161.87141 382.999788 1.258336232)
(1141.823676 379.5119679 0.2558334031)
(1129.134782 380.0783153 -4.19064453)
(1120.600485 367.8772912 -3.906836518)
(1106.952316 359.4665583 0.05641370219)
(1088.862537 357.4825418 0.1456668765)
(1077.883852 352.2426699 -4.613144221)
(1070.548937 343.2187927 0.7514789379)
(1061.858742 333.1754475 -5.150024756)
(1059.672511 327.1840076 -2.334766121)
(1051.480843 320.964875 -2.780341939)
(1042.525722 312.4647118 -5.153599049)
(1046.173592 303.2061601 -2.95861342)
(1054.91391 297.2031424 -4.095576725)
(1062.705732 284.3402757 -2.487625078)
(1086.739072 270.2834092 -0.565458044)
(1470.228317 234.364494 2.161781861)
(1446.153258 260.5298961 6.339929731)
(1418.79879 292.9184325 5.908374736)
(1390.041413 313.9129893 4.995264354)
(1366.69143 339.1499994 3.489830375)
(1349.107072 360.0234609 0.5347185597)
(1329.791857 370.4945713 2.835642546)
(1311.538326 383.6380786 0.9551274355)
(1298.51242 388.8191346 -2.543218913)
(1281.448112 397.2975595 -3.395702327)
(1270.089647 398.5098276 2.306079951)
(1249.465164 402.9491119 0.7380939703)
(1240.403554 405.779095 3.323911006)
(1220.068056 405.4558179 2.23260193)
(1208.53174 401.1532245 1.306593624)
(1200.10467 399.8013731 0.4107724844)
(1190.076214 395.7679478 -1.181572198)
(1170.075615 394.9192153 -3.306411355)
(1167.173589 385.0689686 -6.844297855)
(1155.989718 381.4657147 -2.677273921)
(1136.767779 372.9172308 -6.481229227)
(1126.805853 366.7053973 0.3650171031)
(1122.131031 361.3179203 -0.05226155722)
(1118.992728 352.8941363 -1.653549565)
(1108.59597 342.562692 1.221192061)
(1099.174595 338.1394822 -3.370357164)
(1099.45476 332.9069079 -1.844370314)
(1103.923223 321.9917641 1.877607119)
(1108.389972 308.0503302 1.782190519)
(1123.631839 295.0134855 1.466852367)
(1523.564251 194.779921 -0.733320292)
(1494.02521 223.8663617 0.05152836627)
(1469.486454 246.9703781 -3.42477091)
(1446.591632 278.3146246 -2.561826008)
(1423.507713 300.2445702 2.458912283)
(1403.121757 324.2599281 8.966311437)
(1382.88978 345.6325669 4.099986872)
(1359.687638 363.1829005 7.210776516)
(1345.882543 375.5073078 2.349661203)
(1323.971648 387.2073501 -3.277311788)
(1309.910921 395.7423999 -2.328381158)
(1298.61496 405.2206751 -5.468824291)
(1285.333464 411.6776896 -4.460049674)
(1266.703727 415.1527351 -1.699439395)
(1257.472392 412.5548794 -1.053488084)
(1250.047501 406.8313459 2.110581731)
(1237.711051 412.1332583 5.128888674)
(1217.854497 408.9006155 2.948889263)
(1206.798765 405.0176173 1.546648452)
(1204.638775 398.6805516 4.665756837)
(1186.03671 391.9329751 3.167244438)
(1179.938067 389.716202 -1.422484221)
(1168.457801 383.0050204 -0.2069845216)
(1159.80551 373.573691 1.450323104)
(1160.114678 369.9266359 2.067050697)
(1154.444049 358.8519707 4.840000809)
(1145.905078 350.377039 2.508597114)
(1146.259326 342.8923016 4.384039007)
(1152.604511 334.9418752 -0.4438187074)
(1164.91581 321.9505008 -2.468949467)
(1566.773941 153.0969112 1.66335758)
(1538.155407 183.1091971 1.663198404)
(1522.044501 208.1829594 3.200887266)
(1496.388199 233.7380141 3.748633244)
(1479.715993 264.4543204 -0.6257680061)
(1455.811478 290.1765043 -1.058837216)
(1428.019561 312.6605148 4.15133)
(1407.948072 325.8809493 2.707054304)
(1389.964807 350.7832149 5.478163536)
(1371.371849 369.7330441 1.757756165)
(1361.202176 388.6430688 -6.620339527)
(1339.150118 396.0740504 -3.25241775)
(1325.382559 405.3559231 -1.895718869)
(1309.232071 412.2275528 -1.004035628)
(1300.864813 417.9287455 4.481234165)
(1291.238509 419.0471864 3.14477466)
(1280.762062 419.8937874 2.491768962)
(1263.182636 417.0770814 2.908956395)
(1251.889553 417.2104646 2.083788931)
(1242.341539 412.9049048 -0.8197044634)
(1231.087471 409.7059321 4.035647145)
(1215.776666 407.4823102 6.233561948)
(1211.773043 402.6230874 4.236159323)
(1204.330866 394.2026493 1.953349213)
(1199.240558 386.2063963 3.812487621)
(1196.680644 379.8074382 1.176695078)
(1193.190104 372.6433973 1.155026209)
(1192.218369 362.8555184 0.1227573138)
(1184.865393 354.165156 3.684063905)
(1194.283264 341.7556068 3.336796902)
(1613.028149 117.2915907 -2.926230724)
(1593.421697 143.2849123 -3.243925344)
(1571.708714 170.8006211 -4.615045014)
(1544.729934 194.8323032 -0.9481708618)
(1522.170833 222.583824 -3.689443711)
(1496.25824 251.9040898 -3.726468599)
(1477.260489 274.0683428 -4.844981246)
(1460.345855 298.1340475 -2.633486737)
(1440.183725 326.9605484 -2.866918841)
(1417.727149 344.900367 0.1317190902)
(1401.988532 362.2026685 2.824434943)
(1377.640596 377.0877195 -2.55152058)
(1361.674154 387.2296138 -3.175467877)
(1345.841475 404.0324819 -1.968083461)
(1330.840704 413.3456132 0.9121964578)
(1325.727502 417.4971475 2.148091324)
(1312.456893 420.3298591 0.3018661839)
(1298.97646 422.8850173 2.090120902)
(1291.388796 426.173718 2.280056652)
(1280.482475 423.4196182 2.298965912)
(1276.8281 420.0791549 0.3854339536)
(1261.053228 419.7133808 0.8016243977)
(1253.564347 415.853657 -0.861395813)
(1243.196584 409.6038572 4.672186862)
(1238.791943 402.3820769 1.240275121)
(1234.443604 400.0248408 -1.569124263)
(1228.563309 394.2916471 2.936239921)
(1225.329886 382.2658398 4.902077225)
(1231.269571 367.2559553 4.65759718)
(1235.858124 360.5495693 8.684180164)
(1639.55361 94.55154771 -1.214415916)
(1622.504535 109.9523634 -2.741259413)
(1606.259806 129.0542389 3.273549935)
(1586.340737 153.8225541 -1.892707448)
(1565.434668 181.8139131 -2.902209982)
(1543.549972 206.3218509 -3.027763473)
(1523.829602 234.6869226 -2.526998558)
(1500.039012 265.1957317 -4.791409038)
(1478.230711 286.6511742 -2.447999974)
(1453.552121 309.5456474 -0.2950981584)
(1436.060216 326.4089697 -1.555831429)
(1420.91067 347.9740162 1.295088791)
(1404.494057 368.5401792 -1.791042891)
(1383.247463 384.0319741 -7.244327048)
(1362.769179 400.4131247 -5.472510398)
(1358.001936 410.5530693 -1.13300685)
(1344.286815 414.2700764 -2.51426541)
(1335.242449 417.8663624 -1.703291307)
(1327.845113 428.2891378 -0.7564768943)
(1318.171827 429.3423774 0.6915258488)
(1311.71929 428.9130513 0.1558776091)
(1299.781768 427.5139354 2.297641075)
(1285.122076 425.2172245 2.031630677)
(1272.797021 419.4155 -1.354296986)
(1273.920368 418.9978696 3.474613337)
(1271.267968 412.2049331 1.460380863)
(1262.433599 404.7592546 -2.534811854)
(1259.529812 398.4011213 -0.6151993703)
(1263.609694 387.8698036 0.3014282666)
(1269.207819 373.4103566 -0.1634582782)
(1666.094433 69.20955261 -1.56725122)
(1653.971267 84.44379908 -1.465124398)
(1638.809588 97.61411166 -4.085433886)
(1624.569663 118.1849901 -2.503834146)
(1602.917368 148.5739872 0.3033550716)
(1579.688538 173.8940415 -2.287711401)
(1563.487858 193.5760937 -4.095900524)
(1540.420812 223.8504345 -5.987164157)
(1517.145008 243.8698742 -4.93751279)
(1496.296566 266.4425638 -4.347837971)
(1475.87431 297.3711499 1.315180875)
(1456.311964 319.223856 1.900615865)
(1438.352947 337.1263557 -1.089565636)
(1423.334829 357.2985885 -0.2205614879)
(1411.72829 370.7953209 -2.234181433)
(1392.370645 386.5459618 -3.59356232)
(1381.582756 401.9299201 -1.465195606)
(1372.087392 414.6218522 -0.1880862793)
(1358.419135 419.9310742 -2.86808681)
(1343.697874 423.434508 -0.1421946268)
(1335.914191 425.8012339 -1.016884853)
(1328.507081 428.0930302 -0.320655701)
(1318.258986 429.6821673 -0.4257834939)
(1312.354242 432.3479299 1.195998641)
(1299.421681 426.7998194 -1.227471546)
(1299.002375 420.9926764 1.058960213)
(1290.002347 417.6637712 0.2435366495)
(1284.226564 409.5936505 3.163947321)
(1286.212705 405.2507399 0.884286344)
(1291.580524 397.5021256 -1.298218622)
(1675.891161 55.44749542 2.720583299)
(1668.456115 63.62279855 1.587433291)
(1657.56524 82.78248946 1.574485154)
(1644.360969 98.97946263 -0.5159707694)
(1633.12222 111.253276 -1.262196292)
(1614.062376 132.6351186 2.203745606)
(1591.884825 154.8056593 2.774181898)
(1574.252291 174.9729616 3.220332385)
(1556.847215 202.8839705 -0.2492910348)
(1540.856027 227.683282 0.3065779583)
(1522.74248 253.9129522 0.8605008583)
(1501.414829 278.7504482 -4.449100938)
(1488.836681 301.4781285 -1.859602031)
(1472.359306 323.1849867 2.261010268)
(1443.788589 349.126468 -0.8952601006)
(1427.566567 366.8457403 -0.3655426592)
(1407.437755 382.8799993 0.03169935944)
(1395.426897 396.3586689 -0.9318171259)
(1385.182712 406.3162123 -0.8966926418)
(1374.404337 417.7326049 -3.524257446)
(1365.189569 427.0869439 -1.107742838)
(1354.149653 433.99335 -0.5656547966)
(1345.737601 435.1040615 -0.1068257199)
(1331.209719 434.5986837 -0.5205645959)
(1330.7807 430.8369956 2.927898124)
(1324.208617 430.3537583 2.935035908)
(1316.892824 429.9313304 2.442318547)
(1314.756273 424.6710201 -0.1136988817)
(1310.345518 421.0113395 1.153484902)
(1695.113053 44.9376857 2.254807101)
(1690.977232 54.47392429 -0.5586544725)
(1681.987666 62.99132604 0.2647879238)
(1666.647734 72.70234399 1.598040693)
(1656.526736 87.16930785 2.388558934)
(1644.026531 102.6946387 1.170186188)
(1629.653941 122.6468562 0.5593139065)
(1616.366447 140.7040747 -2.861030222)
(1599.049833 165.7743196 -3.420534654)
(1580.112055 188.5319473 -1.535232942)
(1557.039784 215.7404066 -2.420615272)
(1537.746989 239.9667427 -1.720254222)
(1519.300562 268.5216224 -5.243174005)
(1505.052326 287.4817608 -2.53377995)
(1481.26722 314.8024309 -1.719738761)
(1464.909604 337.1529888 -4.325182804)
(1445.594194 354.6752874 -4.976832819)
(1427.775591 373.2241945 -2.350128751)
(1413.495013 388.849732 -1.690930753)
(1406.989189 402.1686881 -2.408714684)
(1395.423483 414.5630061 -4.660676236)
(1378.186671 419.6026257 -2.953861519)
(1371.910194 426.4796187 0.3660131311)
(1359.300423 434.2019036 0.1654301877)
(1359.646143 436.216104 -2.471812626)
(1701.443504 33.86818541 -2.911923723)
(1693.965588 37.98148165 -3.10126599)
(1684.583642 45.86852729 -1.274420988)
(1679.489803 57.24880871 -1.589156552)
(1672.163441 68.65560717 -1.641104334)
(1665.893749 78.99299165 -2.795728055)
(1657.951343 91.291366 -1.337059521)
(1641.753227 113.4046764 -0.01976617543)
(1628.803618 127.8604083 -0.09312907725)
(1611.074089 156.3838072 -2.030949908)
(1593.730569 180.1729471 -0.7626139534)
(1576.598176 201.061372 0.463377108)
(1558.829606 227.7238057 -1.438557351)
(1538.258082 252.9886712 -4.509741162)
(1518.176683 273.3659739 -7.25919375)
(1500.559006 296.7611612 -3.165384162)
(1485.286145 320.5398702 -4.111170103)
(1466.680485 344.1856232 -2.120937824)
(1450.410645 366.3131591 2.901777407)
(1708.662839 25.10549809 -1.229196874)
(1704.246711 28.35156038 -0.2725037968)
(1704.317903 33.26842938 -1.518746255)
(1695.25227 43.35914799 -0.6385607758)
(1685.129926 55.19442559 -1.403787918)
(1675.661754 62.34013851 -0.763735126)
(1667.48665 75.22956953 1.56370231)
(1657.602249 88.34337782 -2.017165338)
(1643.172757 105.9813589 -0.03965556134)
(1635.863463 117.9851156 0.08009449526)
(1620.631669 141.536206 2.385169807)
(1605.174309 166.7634353 0.962306603)
(1590.735475 184.7123315 3.641497306)
(1571.9167 209.7852711 2.792784255)
(1720.13324 16.66008984 -4.308005158)
(1719.04911 20.73655477 -2.86227637)
(1715.060265 28.40286143 -1.983702038)
(1706.720809 32.51066491 -3.911255501)
(1698.795312 43.11977835 -1.052903391)
(1690.452637 53.62305542 0.4176655205)
(1685.086039 59.63054554 -0.5589613782)
(1677.239752 68.12541509 1.095850537)
(1722.974706 12.06055843 3.944275609)
)
;

boundaryField
{
    flow
    {
        type            calculated;
        value           nonuniform List<vector> 
15
(
(402.1859775 76.55882606 1.541003209)
(605.4788466 90.41017115 0.1426377616)
(718.8905086 103.8582391 1.29788236)
(790.2772695 132.9833676 3.93602189)
(859.9311226 161.0321309 -0.845396217)
(929.2579683 191.3219204 -8.477082588)
(985.4289679 220.7853792 1.953720821)
(1032.761565 241.5725143 -2.51433417)
(1086.739072 270.2834092 -0.565458044)
(1123.631839 295.0134855 1.466852367)
(1164.91581 321.9505008 -2.468949467)
(1194.283264 341.7556068 3.336796902)
(1235.858124 360.5495693 8.684180164)
(1269.207819 373.4103566 -0.1634582782)
(1291.580524 397.5021256 -1.298218622)
)
;
    }
    obstacle
    {
        type            calculated;
        value           nonuniform List<vector> 
30
(
(199.4374133 53.43909392 -4.621980782)
(178.3505159 47.78887678 2.616508272)
(188.8207814 50.59437572 10.73680499)
(185.5017553 49.70504561 -3.558247206)
(164.5228835 44.08377363 -9.952536576)
(168.6825505 45.19835328 -3.429193498)
(159.3161822 42.68864243 -0.8235888789)
(149.2142191 39.98182937 -5.047625007)
(168.3349574 45.10521598 6.86012985)
(152.9161895 40.97376956 -21.36973781)
(165.7812586 44.42095422 0.4544386216)
(132.3761858 35.47009214 15.84327979)
(148.0545531 39.67109801 4.14077964)
(143.0504878 38.33026257 -6.799083341)
(123.516199 33.09606584 14.3099064)
(135.3104747 36.25633232 -11.46473193)
(125.0167303 33.49813198 4.426892975)
(139.4381685 37.36234472 -4.351037152)
(134.999455 36.17299485 -16.05515315)
(151.6408127 40.63203338 24.82532761)
(133.7120348 35.8280318 -2.551293831)
(131.420631 35.21405183 1.709358022)
(133.3415319 35.72875584 -2.657898952)
(138.5705638 37.12987072 -5.959918563)
(139.3881906 37.34895299 6.154778489)
(142.2779095 38.12325101 2.028124542)
(143.8283391 38.53868718 6.423303404)
(166.4570721 44.60203812 -7.468624565)
(193.3476909 51.80735773 -0.4199316003)
(217.3044915 58.22656283 13.02731458)
)
;
    }
    frontAndBack
    {
        type            empty;
    }
    procBoundary1to0
    {
        type            processor;
        value           nonuniform List<vector> 
21
(
(388.8261064 113.3432334 -1.712318929)
(664.1503504 201.6793801 1.477108081)
(856.2908365 278.5931975 -2.03343387)
(1009.075056 325.1226798 -3.310582465)
(1110.544664 342.9998836 -0.120528872)
(1211.729232 338.9144523 -1.452717767)
(1292.077709 316.9475578 -1.295775356)
(1359.739147 285.3111342 1.997404335)
(1436.922793 245.0317371 -3.984091508)
(1504.6453 205.1253942 -1.537760051)
(1548.5232 169.1711407 3.306442512)
(1593.022939 129.7725255 0.219507978)
(1627.488416 100.0847412 -1.846558912)
(1654.352878 74.54488262 -1.692836275)
(1678.002663 60.25498125 2.375579147)
(1684.609367 43.15699482 -0.5276957888)
(1705.449718 35.81213269 2.728002359)
(1707.723486 24.57601051 -3.488903921)
(1716.659078 21.73775724 -3.314622969)
(1724.439197 14.02931701 -2.470152931)
(1723.45758 10.61344158 4.404973149)
)
;
    }
    procBoundary1to3
    {
        type            processor;
        value           nonuniform List<vector> 
36
(
(1309.904338 414.7241416 -2.353349053)
(1352.810965 435.7729364 -0.8782819773)
(1343.066872 437.5573736 0.5797004197)
(1336.835529 432.817578 -1.319688864)
(1309.904338 414.7241416 -2.353349053)
(1337.892546 427.1753339 -0.3332296447)
(1431.831327 379.223108 -0.04712816885)
(1421.957545 391.5627733 -1.269580995)
(1408.266712 410.1110303 -3.861116169)
(1400.096442 417.1595706 -6.579319947)
(1386.409039 428.1874617 -0.9528579707)
(1352.810965 435.7729364 -0.8782819773)
(1370.890268 431.8951199 -5.97223163)
(1552.831533 240.6273356 1.416473665)
(1533.149846 261.505731 -2.465639409)
(1516.112514 284.8749879 0.5635899011)
(1497.399856 307.6912434 -4.180749324)
(1431.831327 379.223108 -0.04712816885)
(1478.063678 327.8835045 -2.263552959)
(1667.228849 82.86936835 0.9270325813)
(1658.907794 95.00302365 0.05864986886)
(1647.828301 111.9357217 1.190863796)
(1632.378949 132.0068317 5.351867772)
(1624.227582 153.4131938 5.121383214)
(1552.831533 240.6273356 1.416473665)
(1603.973323 173.9614457 -2.222386968)
(1723.463246 15.33565944 3.439909057)
(1717.688332 18.82989372 3.178176377)
(1714.247794 25.04107642 4.070466947)
(1709.720791 30.12870589 2.658662789)
(1704.982818 37.62818084 1.210916812)
(1700.77297 44.96041747 0.5392285141)
(1667.228849 82.86936835 0.9270325813)
(1694.022468 54.56379066 1.171836325)
(1723.463246 15.33565944 3.439909057)
(1726.598027 12.17178897 -1.651124728)
)
;
    }
}


// ************************************************************************* //
