/*--------------------------------*- C++ -*----------------------------------*\
| =========                 |                                                 |
| \\      /  F ield         | OpenFOAM: The Open Source CFD Toolbox           |
|  \\    /   O peration     | Version:  2406                                  |
|   \\  /    A nd           | Website:  www.openfoam.com                      |
|    \\/     M anipulation  |                                                 |
\*---------------------------------------------------------------------------*/
FoamFile
{
    version     2.0;
    format      ascii;
    arch        "LSB;label=32;scalar=64";
    class       volScalarField;
    location    "0.011";
    object      dsmcRhoNMean;
}
// * * * * * * * * * * * * * * * * * * * * * * * * * * * * * * * * * * * * * //

dimensions      [0 -3 0 0 0 0 0];

internalField   nonuniform List<scalar> 
654
(
17.11618182
17.79618182
17.89836364
17.72890909
17.49272727
17.45727273
15.16018182
15.67
16.31945455
16.68945455
17.12654545
17.52218182
17.55418182
17.57672727
17.67872727
17.52927273
17.31
11.37309091
11.93981818
12.35654545
12.902
13.53963636
14.12872727
14.75654545
15.19818182
15.82290909
16.26690909
16.65472727
17.09363636
17.15090909
17.27836364
17.36818182
17.22672727
9.317272727
9.433454545
9.473454545
9.691818182
9.909818182
10.19963636
10.48672727
10.93109091
11.43072727
11.93509091
12.49981818
13.00563636
13.57581818
14.16436364
14.66618182
15.25381818
15.73963636
16.25818182
16.74054545
16.94472727
17.03490909
17.10545455
9.028545455
8.994545455
8.965818182
8.986
9.022909091
9.007090909
9.029454545
9.073636364
9.234363636
9.403636364
9.493090909
9.644181818
9.873636364
10.10454545
10.37454545
10.702
11.13181818
11.57545455
12.072
12.62509091
13.224
13.8
14.28836364
14.90272727
15.41618182
15.88381818
16.29836364
16.60018182
16.78436364
9.054
9.002909091
8.979272727
8.973272727
8.962181818
8.941090909
8.957818182
9.015818182
9.034545455
9.042181818
9.040363636
9.161818182
9.252727273
9.446
9.615818182
9.876545455
10.12836364
10.41145455
10.74727273
11.15181818
11.69654545
12.12381818
12.67309091
13.21054545
13.85890909
14.47236364
14.87909091
15.34890909
15.72945455
16.06909091
8.976545455
8.912
8.895090909
8.849090909
8.816
8.812
8.830363636
8.829272727
8.815272727
8.922
8.966545455
8.992909091
9.049818182
9.169818182
9.289818182
9.386909091
9.523818182
9.708363636
10.02818182
10.33381818
10.64545455
11.16327273
11.70890909
12.29018182
12.87981818
13.36381818
13.99036364
14.55727273
15.10618182
15.50436364
9
8.975454545
8.913636364
8.895818182
8.848
8.768363636
8.695090909
8.686909091
8.672363636
8.633636364
8.6
8.707090909
8.741818182
8.776727273
8.870545455
9.032
9.178727273
9.423454545
9.518181818
9.786545455
10.16145455
10.50727273
10.81072727
11.33418182
11.828
12.32272727
12.95436364
13.48218182
14.02218182
14.48545455
8.991636364
8.926909091
8.890727273
8.853272727
8.770363636
8.721636364
8.679454545
8.637636364
8.608
8.595636364
8.562363636
8.606
8.588
8.578
8.627636364
8.684909091
8.744
8.888181818
9.090727273
9.339090909
9.568363636
9.927272727
10.21945455
10.48854545
10.93836364
11.50145455
12.00509091
12.57054545
13.13745455
13.71127273
8.925454545
8.851818182
8.784
8.701818182
8.710727273
8.674909091
8.678909091
8.635272727
8.605272727
8.521454545
8.548545455
8.476
8.433090909
8.456545455
8.468181818
8.504363636
8.596727273
8.767818182
8.898181818
8.978181818
9.176727273
9.416181818
9.788181818
10.08745455
10.41763636
10.85563636
11.30490909
11.76363636
12.21163636
12.72218182
8.936727273
8.867272727
8.836727273
8.769090909
8.714727273
8.635818182
8.568181818
8.496909091
8.495090909
8.478909091
8.456545455
8.409818182
8.393818182
8.411090909
8.387090909
8.398181818
8.376545455
8.465272727
8.581636364
8.723636364
8.864727273
9.071272727
9.267454545
9.570545455
9.830545455
10.14436364
10.49763636
10.90818182
11.44181818
12.02963636
9.049090909
8.954727273
8.829272727
8.771272727
8.69
8.667636364
8.590909091
8.531090909
8.488545455
8.399818182
8.382727273
8.376181818
8.36
8.309636364
8.35
8.422181818
8.429090909
8.415454545
8.46
8.445818182
8.567090909
8.614
8.747636364
8.941636364
9.167454545
9.452545455
9.809090909
10.204
10.68272727
11.13981818
8.810181818
8.820363636
8.778181818
8.736909091
8.648909091
8.596909091
8.516545455
8.452909091
8.394909091
8.374727273
8.320545455
8.274
8.292181818
8.274
8.228545455
8.233818182
8.232727273
8.253454545
8.268545455
8.317636364
8.349818182
8.402181818
8.478727273
8.592181818
8.78
9.010545455
9.262181818
9.626909091
9.938727273
10.37054545
8.885636364
8.796909091
8.726
8.682727273
8.611090909
8.516727273
8.536181818
8.453636364
8.425272727
8.436181818
8.349636364
8.316363636
8.266727273
8.248363636
8.248181818
8.221454545
8.182
8.148909091
8.079636364
8.133272727
8.134545455
8.236363636
8.328
8.441272727
8.543090909
8.704181818
8.874
9.098181818
9.408
9.711636364
8.802727273
8.722545455
8.669272727
8.634181818
8.590727273
8.600909091
8.586181818
8.530727273
8.454363636
8.364909091
8.326181818
8.302181818
8.223818182
8.182181818
8.072181818
8.068
7.995454545
7.943636364
7.978181818
7.965636364
7.923454545
7.949818182
7.968545455
8.036727273
8.147818182
8.292545455
8.467090909
8.7
8.844545455
9.105818182
8.926181818
8.847454545
8.782181818
8.731272727
8.643818182
8.587818182
8.492727273
8.489636364
8.468363636
8.416181818
8.319090909
8.265272727
8.199454545
8.112181818
8.038181818
7.995090909
7.929090909
7.920909091
7.898
7.908363636
7.906727273
7.923090909
7.961090909
8.011090909
8.010363636
8.005454545
8.09
8.237818182
8.495818182
8.7
8.942545455
8.947272727
8.924181818
8.785454545
8.710181818
8.627090909
8.521636364
8.440727273
8.333090909
8.242545455
8.185454545
8.118909091
8.1
8.088909091
8.058545455
8.056181818
8.058909091
8.016727273
8.035636364
7.955090909
7.996
7.914909091
7.803454545
7.822363636
7.859090909
7.842727273
7.902909091
7.999090909
8.061090909
8.306909091
9.011090909
8.915454545
8.854727273
8.805818182
8.726363636
8.682545455
8.620909091
8.562909091
8.441818182
8.372
8.296909091
8.268545455
8.196181818
8.167818182
8.123818182
8.021818182
7.960363636
7.925636364
7.832909091
7.792363636
7.757454545
7.71
7.764545455
7.712545455
7.791090909
7.796545455
7.852909091
7.875090909
7.928181818
8.017818182
8.904
8.793818182
8.741272727
8.673454545
8.629818182
8.560363636
8.478181818
8.483090909
8.448181818
8.379454545
8.368
8.313090909
8.213272727
8.108
8.022
7.977636364
7.876181818
7.879454545
7.802181818
7.760545455
7.754363636
7.770909091
7.723454545
7.738363636
7.694
7.678727273
7.672181818
7.698181818
7.769636364
7.764909091
8.878727273
8.793272727
8.768909091
8.701454545
8.667454545
8.610545455
8.551636364
8.448727273
8.400181818
8.315090909
8.267818182
8.133090909
8.085454545
8.101636364
8.060181818
8.024181818
7.988909091
7.904909091
7.910545455
7.857454545
7.766909091
7.708181818
7.616181818
7.649090909
7.674363636
7.691454545
7.607636364
7.579636364
7.621818182
7.641272727
8.934545455
8.893454545
8.759090909
8.707272727
8.620909091
8.590181818
8.590545455
8.570363636
8.501636364
8.426727273
8.362727273
8.310909091
8.276
8.163636364
8.103090909
8.058363636
7.997090909
7.865636364
7.801636364
7.746545455
7.726909091
7.738727273
7.736909091
7.651272727
7.537272727
7.557090909
7.600181818
7.664181818
7.697636364
7.695818182
8.981454545
8.94
8.898727273
8.848909091
8.769636364
8.672181818
8.546909091
8.436363636
8.407636364
8.367454545
8.295090909
8.266727273
8.157454545
8.101090909
8.057272727
8.003272727
7.951090909
7.900545455
7.844545455
7.776909091
7.696181818
7.616363636
7.55
7.522181818
7.520545455
7.524909091
7.478727273
7.440363636
7.412909091
7.455454545
8.917090909
8.831818182
8.757636364
8.721454545
8.687818182
8.632
8.573636364
8.483636364
8.416727273
8.341454545
8.262
8.246909091
8.222545455
8.173272727
8.053636364
7.995090909
7.923090909
7.881818182
7.838363636
7.778909091
7.703090909
7.625272727
7.604181818
7.553272727
7.490181818
7.392727273
7.414545455
7.374
7.385454545
7.380545455
8.756181818
8.732727273
8.658727273
8.611818182
8.513090909
8.410545455
8.396545455
8.369454545
8.293636364
8.226181818
8.202
8.046363636
7.983454545
7.917454545
7.854909091
7.835454545
7.793090909
7.703636364
7.600363636
7.579636364
7.55
7.556
7.441818182
7.391272727
7.304545455
7.268909091
7.228181818
7.196181818
7.148909091
7.166909091
)
;

boundaryField
{
    flow
    {
        type            calculated;
        value           nonuniform List<scalar> 
55
(
17.11618182
17.45727273
17.31
17.22672727
17.10545455
16.78436364
16.06909091
15.50436364
14.48545455
13.71127273
12.72218182
12.02963636
11.13981818
10.37054545
9.711636364
9.105818182
8.7
8.306909091
8.017818182
7.764909091
7.641272727
7.695818182
7.455454545
7.380545455
7.166909091
8.756181818
8.732727273
8.658727273
8.611818182
8.513090909
8.410545455
8.396545455
8.369454545
8.293636364
8.226181818
8.202
8.046363636
7.983454545
7.917454545
7.854909091
7.835454545
7.793090909
7.703636364
7.600363636
7.579636364
7.55
7.556
7.441818182
7.391272727
7.304545455
7.268909091
7.228181818
7.196181818
7.148909091
7.166909091
)
;
    }
    obstacle
    {
        type            calculated;
        value           nonuniform List<scalar> 0();
    }
    frontAndBack
    {
        type            empty;
    }
    procBoundary3to1
    {
        type            processor;
        value           nonuniform List<scalar> 
36
(
16.82254545
18.13036364
17.92090909
17.71309091
17.45163636
17.45163636
16.21309091
16.71
17.23763636
17.52090909
17.82
17.78054545
17.78054545
12.31654545
12.87109091
13.38436364
13.98836364
14.50836364
14.50836364
9.612181818
9.714727273
10.05945455
10.30636364
10.62672727
10.95727273
10.95727273
9.098727273
9.069090909
9.045090909
9.101272727
9.063636364
9.120181818
9.220909091
9.220909091
9.031454545
9.031454545
)
;
    }
    procBoundary3to2
    {
        type            processor;
        value           nonuniform List<scalar> 
19
(
9.093272727
8.992363636
9.076545455
9.036545455
8.977818182
9.020909091
9.094181818
8.888909091
8.913636364
8.889272727
8.986363636
9.020181818
9.07
8.968363636
8.898363636
9.039454545
9.001090909
8.997272727
8.85
)
;
    }
}


// ************************************************************************* //
