/*--------------------------------*- C++ -*----------------------------------*\
| =========                 |                                                 |
| \\      /  F ield         | OpenFOAM: The Open Source CFD Toolbox           |
|  \\    /   O peration     | Version:  2406                                  |
|   \\  /    A nd           | Website:  www.openfoam.com                      |
|    \\/     M anipulation  |                                                 |
\*---------------------------------------------------------------------------*/
FoamFile
{
    version     2.0;
    format      ascii;
    arch        "LSB;label=32;scalar=64";
    class       volScalarField;
    location    "0.011";
    object      iDof;
}
// * * * * * * * * * * * * * * * * * * * * * * * * * * * * * * * * * * * * * //

dimensions      [0 -3 0 0 0 0 0];

internalField   nonuniform List<scalar> 
654
(
5.982840782e+20
4.394725419e+20
6.097467028e+20
2.796903036e+20
3.104967035e+20
6.267737905e+20
4.430818643e+20
6.046123564e+20
4.507588593e+20
5.081918661e+20
4.856893048e+20
4.900091856e+20
5.218736343e+20
5.265994205e+20
4.754735161e+20
5.64539461e+20
3.988560521e+20
1.74994531e+20
4.032814433e+20
2.033150464e+20
1.793902334e+20
5.68558429e+20
3.909545894e+20
4.205999001e+20
5.303045358e+20
3.209632838e+20
4.317238265e+20
3.266727904e+20
5.493406725e+20
3.880206291e+20
4.475044857e+20
5.645394661e+20
3.133868981e+20
2.14481828e+20
1.681282919e+20
1.936663917e+20
1.220064989e+20
1.721818192e+20
3.471535626e+20
1.249960936e+20
2.520509041e+20
4.066300962e+20
2.306445858e+20
3.876534743e+20
2.345727517e+20
3.943124063e+20
2.651522702e+20
3.209632838e+20
6.475857397e+20
5.716773882e+20
5.218736435e+20
3.603048667e+20
5.31411572e+20
5.92766434e+20
4.273457701e+20
1.355973021e+20
1.138383137e+20
3.211361299e+20
9.24460166e+19
1.397240953e+20
3.050565786e+20
3.074134802e+20
3.336383991e+20
1.20091638e+20
3.147078914e+20
3.660194997e+20
2.213766247e+20
3.223568821e+20
2.749914081e+20
2.772559923e+20
2.795581866e+20
3.844076367e+20
2.842792121e+20
3.909545862e+20
3.417374159e+20
3.977283985e+20
4.279510415e+20
3.777583482e+20
3.538955229e+20
3.57071434e+20
4.988836615e+20
3.356283643e+20
3.104967035e+20
4.55835484e+20
1.346034123e+20
2.033959502e+20
2.276766242e+20
1.376297689e+20
1.386690249e+20
1.862987924e+20
2.346589031e+20
1.65530333e+20
2.621444544e+20
1.200916371e+20
9.683319584e+19
1.22006498e+20
3.197662307e+20
2.231701456e+20
3.499890648e+20
4.53691631e+20
2.287294291e+20
2.306445858e+20
2.842792168e+20
3.127636742e+20
2.102999518e+20
3.712131782e+20
2.407224629e+20
4.85689309e+20
2.450045971e+20
4.944066096e+20
5.265994252e+20
3.635973946e+20
5.363124879e+20
3.133868981e+20
2.692068246e+20
2.259955018e+20
2.276766275e+20
3.211361299e+20
1.386690249e+20
1.397240943e+20
1.877271239e+20
2.364719079e+20
1.906505138e+20
1.921466194e+20
2.662912886e+20
3.41618197e+20
9.838961099e+19
2.727635134e+20
2.499921872e+20
2.772559923e+20
3.558013313e+20
2.56271762e+20
2.842792145e+20
4.691455034e+20
1.577249612e+20
3.181827215e+20
3.209632838e+20
3.237928699e+20
3.811182555e+20
3.845384708e+20
3.048733514e+20
4.475044857e+20
2.82269733e+20
6.267737962e+20
2.019051199e+20
1.355973011e+20
1.593736381e+20
1.605680649e+20
1.848920332e+20
1.164367461e+20
2.815906858e+20
2.364719061e+20
2.383131422e+20
1.441099645e+20
1.452497949e+20
1.708090998e+20
1.96779222e+20
2.975601965e+20
2.999906246e+20
2.520509041e+20
1.779006671e+20
2.818989382e+20
2.067485196e+20
2.606363908e+20
1.577249625e+20
2.916674972e+20
4.814449258e+20
4.047410873e+20
2.722273277e+20
1.922692354e+20
3.880206256e+20
3.91566425e+20
3.669506496e+20
4.843252062e+20
1.346034123e+20
1.807964015e+20
1.82141302e+20
1.376297699e+20
3.004495539e+20
2.561608395e+20
3.050565763e+20
2.128247171e+20
1.429878853e+20
2.642016037e+20
1.452497949e+20
2.928155952e+20
1.967792204e+20
1.983734643e+20
2.749914081e+20
2.016407233e+20
2.287294254e+20
2.306445839e+20
1.550613897e+20
3.127636716e+20
2.102999518e+20
2.916674947e+20
1.604816405e+20
2.968101307e+20
3.266727904e+20
3.296044035e+20
2.217260738e+20
2.796903036e+20
5.363124879e+20
4.273457662e+20
1.794712164e+20
1.355973001e+20
1.138383121e+20
2.064446534e+20
2.080035389e+20
2.095861446e+20
3.050565786e+20
1.418831447e+20
2.14481828e+20
1.681282919e+20
2.662912906e+20
1.708090998e+20
2.705714302e+20
2.479668304e+20
1.74994531e+20
2.268458137e+20
2.033150481e+20
1.793902334e+20
2.842792145e+20
1.303181954e+20
1.051499741e+20
2.386370411e+20
2.674694032e+20
3.237928699e+20
2.177818603e+20
3.57071434e+20
3.880206222e+20
1.957832107e+20
1.975888113e+20
2.564074621e+20
1.12169511e+20
2.033959531e+20
2.049089647e+20
2.293829482e+20
2.542265438e+20
2.794481886e+20
9.386356124e+19
9.458876172e+19
2.383131404e+20
1.200916371e+20
3.147078865e+20
1.708090972e+20
3.197662332e+20
9.918673216e+19
2.499921872e+20
2.268458118e+20
2.287294272e+20
1.28135881e+20
1.292178248e+20
2.606363908e+20
3.154499251e+20
2.916674972e+20
1.337347016e+20
2.428446524e+20
1.905591294e+20
3.570714403e+20
4.434521475e+20
3.91566425e+20
4.234045996e+20
2.279177441e+20
1.794712177e+20
1.807964015e+20
1.82141302e+20
2.752595399e+20
2.773380498e+20
3.260228867e+20
2.581247953e+20
1.655303355e+20
1.668191995e+20
1.921466194e+20
2.662912906e+20
1.952103998e+20
1.96779222e+20
1.735767813e+20
9.999687567e+19
1.764356343e+20
1.016575232e+20
1.793902319e+20
1.809049547e+20
1.563818358e+20
1.05149975e+20
2.121218143e+20
2.942163435e+20
3.237928726e+20
3.266727933e+20
2.746703363e+20
1.940103145e+20
2.237522449e+20
2.258157864e+20
2.564074597e+20
2.692068246e+20
2.259955002e+20
1.593736381e+20
1.605680649e+20
2.542265456e+20
2.328734922e+20
1.407953429e+20
1.891775249e+20
1.906505138e+20
1.681282919e+20
3.389161854e+20
1.708090985e+20
2.951688306e+20
1.239834142e+20
1.499953123e+20
1.008203608e+20
2.033150464e+20
1.793902334e+20
1.55061391e+20
1.824454751e+20
2.1029995e+20
1.856065891e+20
2.139755226e+20
1.618964349e+20
1.905591294e+20
2.472033026e+20
2.217260718e+20
1.957832125e+20
2.822697305e+20
2.279177441e+20
1.570373155e+20
1.807964028e+20
1.138383129e+20
1.376297689e+20
4.160070747e+20
2.095861414e+20
1.407953429e+20
1.891775263e+20
2.621444564e+20
7.205498281e+19
1.936663947e+20
3.172168972e+20
2.951688306e+20
2.727635134e+20
2.999906246e+20
2.016407233e+20
2.795581911e+20
2.818989382e+20
2.584356495e+20
7.819091789e+19
1.840124563e+20
1.85606586e+20
1.069877604e+20
3.777583482e+20
1.905591277e+20
3.021373699e+20
1.385787961e+20
2.796903036e+20
3.387236766e+20
3.41876613e+20
2.916407266e+20
1.807964001e+20
3.415149387e+20
1.376297699e+20
1.848920332e+20
2.328734922e+20
2.346589066e+20
2.364719079e+20
1.429878853e+20
3.842932387e+20
2.178746906e+20
9.760519915e+19
2.213766247e+20
9.918673216e+19
2.999906246e+20
1.26025451e+20
2.287294272e+20
1.28135881e+20
1.292178248e+20
3.909545862e+20
2.1029995e+20
3.712131782e+20
1.604816419e+20
1.079309566e+20
3.538955229e+20
2.197362671e+20
2.494418308e+20
1.118761214e+20
1.411348665e+20
3.418766192e+20
1.570373143e+20
1.581968513e+20
2.049089647e+20
2.752595399e+20
3.466725648e+20
2.794481907e+20
2.346589031e+20
1.655303343e+20
1.906505138e+20
1.441099645e+20
2.662912886e+20
1.220064989e+20
1.229870137e+20
3.223568795e+20
1.249960946e+20
1.512305437e+20
1.524862848e+20
2.306445839e+20
2.584356495e+20
2.345727517e+20
2.365874438e+20
2.916674972e+20
1.069877613e+20
2.428446524e+20
2.450045949e+20
2.746703387e+20
2.771575897e+20
1.118761204e+20
2.822697305e+20
2.27917742e+20
2.019051199e+20
1.581968513e+20
2.959796136e+20
2.523212449e+20
2.311150415e+20
1.164367452e+20
1.877271239e+20
2.128247155e+20
2.383131404e+20
1.681282919e+20
1.69458094e+20
1.952103983e+20
1.721818179e+20
2.231701474e+20
2.999906246e+20
1.26025451e+20
1.779006656e+20
1.025087048e+20
1.550613897e+20
3.909545894e+20
1.840124563e+20
2.121218143e+20
1.604816419e+20
2.968101333e+20
2.722273277e+20
3.570714372e+20
1.662945553e+20
3.076593339e+20
2.540427574e+20
1.4244859e+20
6.730170614e+19
2.48595052e+20
3.415149387e+20
1.376297689e+20
2.080035373e+20
2.328734922e+20
2.111930144e+20
9.458876244e+19
1.906505138e+20
2.40183276e+20
1.936663932e+20
3.172168972e+20
2.95168833e+20
9.918673295e+19
1.999937513e+20
2.016407233e+20
1.524862861e+20
1.537630559e+20
3.876534711e+20
2.867000299e+20
1.314374688e+20
1.590913608e+20
1.872285806e+20
1.349136958e-281
2.722273277e+20
8.240110088e+19
2.217260718e+20
1.118761214e+20
2.258157844e+20
5.128149195e+20
3.813763348e+20
1.581968501e+20
2.049089632e+20
1.376297699e+20
1.155575207e+20
2.561608395e+20
1.407953429e+20
2.128247171e+20
1.668191995e+20
2.642016016e+20
2.178746923e+20
2.196116998e+20
9.838961099e+19
1.239834152e+20
1.999937513e+20
2.520509041e+20
3.81215709e+20
2.306445839e+20
2.067485196e+20
2.345727517e+20
3.154499224e+20
1.856065875e+20
2.942163435e+20
3.237928699e+20
1.361136627e+20
1.648022018e+20
2.771575922e+20
1.398451518e+20
1.411348665e+20
2.564074644e+20
1.346034142e+20
2.033959531e+20
2.959796157e+20
2.293829499e+20
1.848920332e+20
1.862987924e+20
2.581247953e+20
9.458876315e+19
1.906505138e+20
2.88219929e+20
2.420829896e+20
1.952103968e+20
3.197662332e+20
2.975601965e+20
1.999937497e+20
2.016407233e+20
1.524862861e+20
1.025087048e+20
1.033742598e+20
2.345727537e+20
1.840124578e+20
7.954568105e+19
8.024082096e+19
2.158619132e+20
3.811182555e+20
2.472033026e+20
2.217260738e+20
1.957832125e+20
1.411348652e+20
2.848971775e+20
1.346034123e+20
1.807964001e+20
1.366059755e+20
1.605680649e+20
1.848920332e+20
2.09586143e+20
1.877271239e+20
1.655303343e+20
9.532525688e+19
2.161649468e+20
2.662912906e+20
2.684142998e+20
2.21376623e+20
1.239834142e+20
2.999906246e+20
2.016407216e+20
1.779006656e+20
2.050174096e+20
1.809049562e+20
1.824454751e+20
1.051499741e+20
1.32576134e+20
1.872285822e+20
5.396547831e+19
2.177818622e+20
2.746703363e+20
3.048733487e+20
1.678141821e+20
3.104967035e+20
2.564074621e+20
1.794712164e+20
2.259955018e+20
2.73211951e+20
1.376297689e+20
2.311150432e+20
2.328734922e+19
2.111930144e+20
2.364719061e+20
2.383131404e+20
2.161649484e+20
1.69458094e+20
1.708090985e+20
2.95168833e+20
3.223568795e+20
2.249929685e+20
1.512305424e+20
1.524862861e+20
1.537630572e+20
2.842792145e+20
1.824454736e+20
7.886248126e+19
1.590913608e+20
1.872285806e+20
1.888791757e+20
1.361136639e+20
2.746703363e+20
3.603048667e+20
2.796903011e+20
1.693618383e+20
2.27917742e+20
1.570373155e+20
9.039820073e+19
3.415149387e+20
1.835063599e+20
1.848920332e+20
1.164367461e+20
1.173294524e+20
1.891775249e+20
2.621444564e+20
9.607330968e+19
1.69458094e+20
2.440129979e+20
2.21376623e+20
1.735767813e+20
1.249960946e+20
2.520509041e+20
2.287294254e+20
1.537630559e+20
2.842792145e+20
1.303181965e+20
2.365874438e+20
1.590913608e+20
1.337347016e+20
1.079309566e+20
1.905591294e+20
1.373351681e+20
2.217260718e+20
1.398451518e+20
3.66950653e+20
1.709383096e+20
1.346034123e+20
1.355973011e+20
1.82141302e+20
1.605680649e+20
2.542265456e+20
2.794481886e+20
1.407953429e+20
1.891775263e+20
1.906505138e+20
1.441099645e+20
1.452497938e+20
2.196116981e+20
1.475844165e+20
1.487800982e+20
1.999937497e+20
2.520509041e+20
5.082876202e+19
2.050174096e+20
1.809049547e+20
2.867000299e+20
1.314374688e+20
2.386370432e+20
1.604816419e+20
2.428446524e+20
1.905591277e+20
1.098681345e+20
2.49441833e+20
1.118761214e+20
2.540427574e+20
1.424485887e+20
)
;

boundaryField
{
    flow
    {
        type            zeroGradient;
    }
    obstacle
    {
        type            calculated;
        value           nonuniform List<scalar> 0();
    }
    frontAndBack
    {
        type            empty;
    }
    procBoundary3to1
    {
        type            processor;
        value           nonuniform List<scalar> 
36
(
4.273457701e+20
7.965439682e+20
4.988836615e+20
3.91566425e+20
3.951776227e+20
3.951776227e+20
4.170182253e+20
4.468873901e+20
6.09850211e+20
5.88432682e+20
6.745684847e+20
3.538955291e+20
3.538955291e+20
4.499859405e+20
3.276661779e+20
2.541438081e+20
2.818989359e+20
4.393406042e+20
4.393406042e+20
2.383131422e+20
2.401832742e+20
1.69458094e+20
1.220064989e+20
2.459740255e+20
2.975601965e+20
2.975601965e+20
2.485950502e+20
1.821413007e+20
1.835063599e+20
2.773380518e+20
1.862987938e+20
7.039767146e+19
3.074134802e+20
3.074134802e+20
2.916407287e+20
2.916407287e+20
)
;
    }
    procBoundary3to2
    {
        type            processor;
        value           nonuniform List<scalar> 
19
(
3.117893059e+20
1.336239882e+20
1.336239882e+20
1.336239873e+20
2.227066471e+20
2.895186412e+20
2.449773135e+20
2.004359824e+20
1.781653177e+20
1.781653177e+20
2.227066471e+20
2.449773118e+20
1.55894653e+20
2.4497731e+20
1.558946541e+20
2.227066471e+20
1.55894653e+20
2.449773118e+20
1.781653177e+20
)
;
    }
}


// ************************************************************************* //
