/*--------------------------------*- C++ -*----------------------------------*\
| =========                 |                                                 |
| \\      /  F ield         | OpenFOAM: The Open Source CFD Toolbox           |
|  \\    /   O peration     | Version:  2406                                  |
|   \\  /    A nd           | Website:  www.openfoam.com                      |
|    \\/     M anipulation  |                                                 |
\*---------------------------------------------------------------------------*/
FoamFile
{
    version     2.0;
    format      ascii;
    arch        "LSB;label=32;scalar=64";
    class       volScalarField;
    location    "0.011";
    object      iDofMean;
}
// * * * * * * * * * * * * * * * * * * * * * * * * * * * * * * * * * * * * * //

dimensions      [0 -3 0 0 0 0 0];

internalField   nonuniform List<scalar> 
654
(
4.876351934e+20
4.888083287e+20
4.96066737e+20
4.958603966e+20
4.937667413e+20
4.973527727e+20
3.951295073e+20
4.119250271e+20
4.327140421e+20
4.463918447e+20
4.621211086e+20
4.77001669e+20
4.821612981e+20
4.871523366e+20
4.944568598e+20
4.947983088e+20
4.931570187e+20
2.843183871e+20
3.009441943e+20
3.140339516e+20
3.306418273e+20
3.499124718e+20
3.682460513e+20
3.879125965e+20
4.029832377e+20
4.232144051e+20
4.389257648e+20
4.53387186e+20
4.695114848e+20
4.753504668e+20
4.832590771e+20
4.902512045e+20
4.907846022e+20
2.22042854e+20
2.265758e+20
2.293362198e+20
2.364929609e+20
2.43755789e+20
2.5291715e+20
2.621599887e+20
2.755191346e+20
2.905048582e+20
3.058626777e+20
3.230398631e+20
3.389742122e+20
3.568742357e+20
3.755713174e+20
3.922754898e+20
4.115897971e+20
4.284759146e+20
4.465640306e+20
4.639769229e+20
4.739275872e+20
4.808439198e+20
4.873295764e+20
2.040410675e+20
2.047847775e+20
2.056605823e+20
2.076799763e+20
2.10119635e+20
2.113594105e+20
2.135212344e+20
2.162366793e+20
2.21793971e+20
2.276460439e+20
2.31643759e+20
2.372218243e+20
2.448334333e+20
2.526057439e+20
2.61491354e+20
2.719847012e+20
2.852770613e+20
2.991510089e+20
3.14640251e+20
3.318819956e+20
3.506373561e+20
3.691077733e+20
3.855391889e+20
4.056929586e+20
4.234367807e+20
4.402320763e+20
4.558494273e+20
4.685728848e+20
4.781817826e+20
2.031165491e+20
2.034616943e+20
2.044370502e+20
2.058315753e+20
2.071295023e+20
2.082143049e+20
2.102031789e+20
2.131987694e+20
2.153050899e+20
2.171780835e+20
2.188518256e+20
2.235602703e+20
2.275930557e+20
2.342294661e+20
2.403879438e+20
2.489392231e+20
2.574060925e+20
2.668161801e+20
2.777478431e+20
2.90656969e+20
3.074728682e+20
3.214657914e+20
3.389664062e+20
3.564567052e+20
3.77277382e+20
3.975129022e+20
4.12385301e+20
4.292941043e+20
4.439948895e+20
4.578038687e+20
2.013789414e+20
2.014071912e+20
2.025204299e+20
2.029830577e+20
2.037510206e+20
2.052081198e+20
2.07212346e+20
2.087874967e+20
2.100795343e+20
2.142915172e+20
2.17064813e+20
2.194386707e+20
2.226020226e+20
2.27381075e+20
2.322381966e+20
2.365978904e+20
2.42041942e+20
2.487979455e+20
2.591639682e+20
2.693369074e+20
2.798423175e+20
2.959967081e+20
3.131774927e+20
3.316227702e+20
3.506238454e+20
3.670644434e+20
3.877535499e+20
4.071528028e+20
4.264017909e+20
4.417149479e+20
2.019051199e+20
2.028412354e+20
2.029426651e+20
2.040549016e+20
2.044905887e+20
2.041919461e+20
2.04038051e+20
2.054209951e+20
2.066738228e+20
2.07365505e+20
2.081913727e+20
2.124643372e+20
2.150260226e+20
2.176337243e+20
2.21756706e+20
2.276523766e+20
2.332716721e+20
2.4149653e+20
2.459837501e+20
2.550729886e+20
2.671191729e+20
2.786027217e+20
2.891538772e+20
3.058272715e+20
3.219904832e+20
3.384687644e+20
3.590400202e+20
3.770835525e+20
3.958037483e+20
4.126865152e+20
2.017174894e+20
2.0174413e+20
2.024210801e+20
2.030789814e+20
2.026962956e+20
2.031037903e+20
2.036711298e+20
2.042558351e+20
2.051399528e+20
2.064528102e+20
2.072802603e+20
2.099975843e+20
2.112424931e+20
2.127059471e+20
2.156841702e+20
2.189039188e+20
2.22223344e+20
2.277789997e+20
2.349368007e+20
2.434106968e+20
2.515283015e+20
2.632238878e+20
2.733391385e+20
2.830096861e+20
2.977721476e+20
3.159108388e+20
3.32730209e+20
3.515859674e+20
3.708305754e+20
3.9063029e+20
2.00232773e+20
2.000471078e+20
1.999911467e+20
1.996048709e+20
2.01318011e+20
2.02015639e+20
2.036583318e+20
2.041999417e+20
2.050749583e+20
2.046710854e+20
2.069457456e+20
2.068254186e+20
2.074321335e+20
2.096942772e+20
2.116979294e+20
2.143532543e+20
2.184805024e+20
2.246944214e+20
2.299607398e+20
2.340040905e+20
2.412331588e+20
2.496721964e+20
2.618039149e+20
2.721871547e+20
2.835965284e+20
2.981721264e+20
3.133241328e+20
3.290174996e+20
3.446975305e+20
3.624513725e+20
2.004856657e+20
2.003963764e+20
2.011916263e+20
2.011479926e+20
2.01410454e+20
2.011053123e+20
2.010600147e+20
2.009280273e+20
2.024491792e+20
2.036492147e+20
2.047185805e+20
2.05210493e+20
2.064661248e+20
2.085671553e+20
2.0967072e+20
2.116769303e+20
2.12884716e+20
2.169410358e+20
2.217800768e+20
2.273697096e+20
2.330314628e+20
2.405268557e+20
2.478760536e+20
2.582395316e+20
2.676143119e+20
2.786355796e+20
2.909499618e+20
3.050912684e+20
3.229678964e+20
3.427209478e+20
2.030064205e+20
2.023728084e+20
2.010219038e+20
2.011980413e+20
2.008389711e+20
2.018462734e+20
2.015933319e+20
2.017363344e+20
2.02293194e+20
2.017495834e+20
2.029315695e+20
2.043897252e+20
2.05634287e+20
2.060514191e+20
2.08743478e+20
2.122818559e+20
2.142201262e+20
2.156643347e+20
2.186365595e+20
2.201287587e+20
2.252073488e+20
2.284021636e+20
2.339725078e+20
2.412698437e+20
2.495631653e+20
2.596333839e+20
2.718664018e+20
2.853959883e+20
3.015410575e+20
3.173702758e+20
1.976467559e+20
1.993362492e+20
1.998586817e+20
2.00409798e+20
1.998892983e+20
2.001992242e+20
1.99848323e+20
1.998875525e+20
2.000617164e+20
2.011469417e+20
2.014262519e+20
2.018963544e+20
2.039661342e+20
2.051677538e+20
2.057072075e+20
2.0753413e+20
2.09229666e+20
2.115127339e+20
2.136886933e+20
2.16787874e+20
2.194957933e+20
2.227857583e+20
2.267800124e+20
2.318406008e+20
2.390155937e+20
2.47492955e+20
2.567083988e+20
2.692553126e+20
2.805401869e+20
2.954539156e+20
1.993394972e+20
1.988061899e+20
1.986706237e+20
1.99166958e+20
1.990152633e+20
1.983320007e+20
2.003091077e+20
1.999047519e+20
2.007853217e+20
2.026229786e+20
2.021304964e+20
2.029300822e+20
2.033400185e+20
2.045320587e+20
2.061981013e+20
2.072225051e+20
2.079404654e+20
2.088335291e+20
2.088066072e+20
2.119826867e+20
2.138368128e+20
2.183890479e+20
2.227485171e+20
2.277686601e+20
2.325662788e+20
2.390780547e+20
2.459496473e+20
2.544673235e+20
2.655593624e+20
2.766817789e+20
1.974795214e+20
1.971256023e+20
1.973790763e+20
1.980534095e+20
1.98544629e+20
2.002923736e+20
2.014824037e+20
2.017277354e+20
2.014785963e+20
2.009111254e+20
2.015626987e+20
2.025840274e+20
2.022845679e+20
2.028909691e+20
2.017982388e+20
2.033546678e+20
2.031995265e+20
2.035729688e+20
2.0618466e+20
2.076134712e+20
2.082877619e+20
2.107912338e+20
2.131342097e+20
2.168529157e+20
2.218058751e+20
2.277716229e+20
2.346718508e+20
2.433305641e+20
2.496547484e+20
2.594221946e+20
2.002490886e+20
1.99948493e+20
1.999497538e+20
2.002805095e+20
1.997716412e+20
1.99987521e+20
1.992894066e+20
2.007560493e+20
2.018122347e+20
2.021426105e+20
2.013910398e+20
2.016833976e+20
2.016852858e+20
2.011552013e+20
2.00948267e+20
2.015169908e+20
2.015129358e+20
2.029905313e+20
2.04112476e+20
2.061207355e+20
2.078480438e+20
2.100825541e+20
2.129348234e+20
2.161611763e+20
2.180639887e+20
2.198860911e+20
2.242204901e+20
2.304037847e+20
2.398112308e+20
2.478605444e+20
2.006161902e+20
2.02204339e+20
2.031827605e+20
2.01523348e+20
2.013054032e+20
2.009020773e+20
1.999677857e+20
1.995994867e+20
1.985885064e+20
1.979721555e+20
1.981559323e+20
1.981119347e+20
1.992389607e+20
2.005781149e+20
2.014573404e+20
2.030567894e+20
2.048121845e+20
2.054460824e+20
2.076694903e+20
2.0733862e+20
2.101948001e+20
2.098656096e+20
2.08718533e+20
2.110687994e+20
2.139459316e+20
2.154164537e+20
2.190351255e+20
2.237268165e+20
2.275401958e+20
2.366614975e+20
2.021539308e+20
2.014852624e+20
2.016014428e+20
2.019904536e+20
2.016793894e+20
2.021934681e+20
2.022973086e+20
2.024887434e+20
2.011796217e+20
2.010814387e+20
2.008540573e+20
2.017632564e+20
2.016047852e+20
2.025348002e+20
2.030891092e+20
2.021906525e+20
2.023077144e+20
2.031116779e+20
2.024302932e+20
2.030973534e+20
2.039240379e+20
2.044323986e+20
2.076778321e+20
2.081056022e+20
2.120947858e+20
2.141479762e+20
2.176493356e+20
2.202586567e+20
2.237885745e+20
2.28425377e+20
1.997514638e+20
1.987363339e+20
1.99018348e+20
1.989542589e+20
1.994480787e+20
1.99348176e+20
1.989480861e+20
2.006012692e+20
2.013312755e+20
2.012604829e+20
2.025750473e+20
2.02850225e+20
2.020251771e+20
2.010515061e+20
2.005437342e+20
2.010770458e+20
2.001682824e+20
2.019281683e+20
2.016361926e+20
2.022680558e+20
2.038427839e+20
2.060474169e+20
2.065787778e+20
2.088022475e+20
2.094517041e+20
2.109118602e+20
2.12640344e+20
2.15310681e+20
2.193133182e+20
2.212200724e+20
1.991845008e+20
1.987240097e+20
1.996475649e+20
1.995965312e+20
2.003179117e+20
2.005167775e+20
2.006717624e+20
1.997886657e+20
2.001873724e+20
1.99714576e+20
2.001498143e+20
1.984579879e+20
1.988811803e+20
2.00893709e+20
2.014982482e+20
2.022502282e+20
2.030331795e+20
2.025804981e+20
2.044366953e+20
2.047938611e+20
2.041725759e+20
2.043841908e+20
2.037095606e+20
2.063934248e+20
2.089171486e+20
2.112614406e+20
2.108514177e+20
2.119950795e+20
2.151408564e+20
2.176977032e+20
2.004367176e+20
2.009880708e+20
1.994240264e+20
1.997299904e+20
1.992421762e+20
2.000425639e+20
2.015847988e+20
2.026650225e+20
2.026051676e+20
2.023958947e+20
2.024474035e+20
2.027969858e+20
2.035681035e+20
2.024311018e+20
2.025709419e+20
2.031117824e+20
2.032411137e+20
2.01574049e+20
2.016220978e+20
2.019031665e+20
2.031210728e+20
2.051941087e+20
2.069386457e+20
2.064522962e+20
2.051851613e+20
2.075708701e+20
2.106448074e+20
2.143597339e+20
2.172809742e+20
2.192516899e+20
2.014890715e+20
2.020399786e+20
2.0260322e+20
2.029788856e+20
2.026794887e+20
2.019521265e+20
2.005608327e+20
1.99496299e+20
2.003650225e+20
2.009722645e+20
2.008100422e+20
2.017188904e+20
2.006521948e+20
2.008801836e+20
2.014255232e+20
2.017232127e+20
2.020720538e+20
2.024686704e+20
2.0273102e+20
2.026945517e+20
2.023133315e+20
2.019496091e+20
2.019393977e+20
2.029690716e+20
2.047297992e+20
2.06686931e+20
2.072786025e+20
2.080997545e+20
2.092439851e+20
2.124037957e+20
2.000451454e+20
1.995951182e+20
1.993909098e+20
2.000552971e+20
2.00788546e+20
2.010163985e+20
2.01188012e+20
2.006141662e+20
2.005816723e+20
2.003477864e+20
2.000089676e+20
2.01235301e+20
2.022532606e+20
2.026700532e+20
2.013346185e+20
2.015169892e+20
2.013604479e+20
2.019887417e+20
2.025712598e+20
2.027466807e+20
2.024949542e+20
2.021858357e+20
2.033885973e+20
2.038079878e+20
2.03903218e+20
2.030562886e+20
2.054997547e+20
2.062436299e+20
2.084690283e+20
2.102696607e+20
1.964353252e+20
1.973557082e+20
1.971389824e+20
1.975404258e+20
1.967503359e+20
1.958593077e+20
1.970324161e+20
1.979140884e+20
1.976482542e+20
1.975791283e+20
1.985564681e+20
1.963417313e+20
1.963722468e+20
1.963266108e+20
1.963665904e+20
1.974933402e+20
1.980565816e+20
1.974224465e+20
1.964204913e+20
1.975529065e+20
1.984705778e+20
2.003490553e+20
1.990458668e+20
1.99436784e+20
1.988496872e+20
1.996553704e+20
2.003345469e+20
2.012702277e+20
2.017920642e+20
2.041832171e+20
)
;

boundaryField
{
    flow
    {
        type            calculated;
        value           nonuniform List<scalar> 
55
(
4.876351934e+20
4.973527727e+20
4.931570187e+20
4.907846022e+20
4.873295764e+20
4.781817826e+20
4.578038687e+20
4.417149479e+20
4.126865152e+20
3.9063029e+20
3.624513725e+20
3.427209478e+20
3.173702758e+20
2.954539156e+20
2.766817789e+20
2.594221946e+20
2.478605444e+20
2.366614975e+20
2.28425377e+20
2.212200724e+20
2.176977032e+20
2.192516899e+20
2.124037957e+20
2.102696607e+20
2.041832171e+20
1.964353252e+20
1.973557082e+20
1.971389824e+20
1.975404258e+20
1.967503359e+20
1.958593077e+20
1.970324161e+20
1.979140884e+20
1.976482542e+20
1.975791283e+20
1.985564681e+20
1.963417313e+20
1.963722468e+20
1.963266108e+20
1.963665904e+20
1.974933402e+20
1.980565816e+20
1.974224465e+20
1.964204913e+20
1.975529065e+20
1.984705778e+20
2.003490553e+20
1.990458668e+20
1.99436784e+20
1.988496872e+20
1.996553704e+20
2.003345469e+20
2.012702277e+20
2.017920642e+20
2.041832171e+20
)
;
    }
    obstacle
    {
        type            calculated;
        value           nonuniform List<scalar> 0();
    }
    frontAndBack
    {
        type            empty;
    }
    procBoundary3to1
    {
        type            processor;
        value           nonuniform List<scalar> 
36
(
4.792695762e+20
4.979873033e+20
4.96691597e+20
4.954179773e+20
4.926068693e+20
4.926068693e+20
4.225721498e+20
4.392640169e+20
4.570598337e+20
4.686307058e+20
4.808324159e+20
4.840350416e+20
4.840350416e+20
3.079040161e+20
3.244170126e+20
3.401553143e+20
3.584822567e+20
3.74947838e+20
3.74947838e+20
2.290709252e+20
2.333315004e+20
2.435222849e+20
2.514886688e+20
2.613898886e+20
2.717040188e+20
2.717040188e+20
2.056271421e+20
2.064820018e+20
2.074789635e+20
2.10344104e+20
2.110680652e+20
2.140131878e+20
2.180485965e+20
2.180485965e+20
2.026107681e+20
2.026107681e+20
)
;
    }
    procBoundary3to2
    {
        type            processor;
        value           nonuniform List<scalar> 
19
(
2.02513228e+20
2.002659155e+20
2.021407005e+20
2.012498725e+20
1.999419785e+20
2.009016417e+20
2.025334755e+20
1.97961914e+20
1.985126068e+20
1.979700124e+20
2.001322915e+20
2.008854449e+20
2.019949289e+20
1.997314181e+20
1.981724744e+20
2.013146613e+20
2.004602776e+20
2.003752442e+20
1.970953827e+20
)
;
    }
}


// ************************************************************************* //
