/*--------------------------------*- C++ -*----------------------------------*\
| =========                 |                                                 |
| \\      /  F ield         | OpenFOAM: The Open Source CFD Toolbox           |
|  \\    /   O peration     | Version:  2406                                  |
|   \\  /    A nd           | Website:  www.openfoam.com                      |
|    \\/     M anipulation  |                                                 |
\*---------------------------------------------------------------------------*/
FoamFile
{
    version     2.0;
    format      ascii;
    arch        "LSB;label=32;scalar=64";
    class       volScalarField;
    location    "0.011";
    object      internalT;
}
// * * * * * * * * * * * * * * * * * * * * * * * * * * * * * * * * * * * * * //

dimensions      [1 2 -2 0 0 0 0];

internalField   nonuniform List<scalar> 
654
(
704.328954
654.6922593
663.0708874
678.0315436
683.558702
693.0292294
538.5403895
557.5403051
575.4385426
591.0491358
610.3592841
623.4645265
635.2684902
644.9940542
655.1309138
664.8565226
673.9534157
431.2274888
442.5376011
464.1914392
476.8397322
500.558477
518.6568291
533.9858041
547.4336148
566.378781
582.8168987
597.5210721
610.8543247
620.6482014
631.2953984
641.9956058
651.9325868
346.2465885
351.5154845
360.787271
366.6453076
377.1897596
389.5899902
402.6691349
419.0875024
431.6712875
449.9300709
468.1509885
481.4515637
502.3345583
518.4627948
529.7902118
547.1908951
566.3987227
582.1165439
598.1959662
611.8912225
619.0330642
631.2679536
307.6636417
311.520021
312.0409657
315.7951211
318.5498741
322.5495818
326.82474
334.2844228
339.598385
346.166468
350.6930312
362.9610358
374.3508059
388.5545136
396.2884957
407.6477465
422.4848005
439.9422807
457.2613392
471.8368486
492.0572246
510.7332687
525.8961448
539.9362908
556.2601088
572.8723006
586.0002648
602.8178839
610.9940113
304.6974441
304.9331324
306.0398755
307.5869637
310.8552549
316.9364472
319.1028415
324.4645236
329.0405132
334.8021064
337.7002717
344.0148005
350.7012905
358.2727799
368.704008
380.5398199
394.0895884
404.6169946
416.1778626
435.7916179
445.4251568
460.487427
478.7784702
499.9484378
517.1076072
526.8393599
540.4553439
556.5081985
572.8465109
589.9577223
303.5316652
305.8756171
308.7826733
309.3668121
309.1924782
312.188505
314.219181
316.8807418
320.422062
325.9180856
326.7561931
330.7385175
337.8904755
345.5981511
353.0810169
361.5545114
369.9410964
377.3032205
389.0565901
398.7645131
419.7006458
436.7193155
456.054502
469.4760822
484.9744754
503.376029
521.5396742
531.5819516
545.743209
564.6367707
305.2525321
303.5485978
304.0921722
306.5335768
309.6718694
310.6884745
311.0029996
312.2715003
313.8674741
313.8225784
321.8243408
324.1637587
326.1012913
329.490476
332.8335791
344.0644564
353.0762807
368.9340604
381.1000957
388.9040831
395.6066464
408.0756843
423.3377688
441.1461435
457.1857903
470.5117084
491.1703087
511.5754791
525.3859662
540.4104608
300.177226
302.3641975
304.2065288
304.8633285
303.6580244
305.4761783
308.6768354
309.9393794
311.1634555
312.8199716
315.6109773
319.8532375
324.0555363
329.5848072
333.8388144
338.0795952
345.9656428
354.4148533
358.1586919
372.069485
382.3469171
393.6420183
403.8581322
415.1974629
434.3050293
451.2257854
464.600423
481.8193339
499.8793671
516.4242516
299.4198368
299.993798
298.6580903
300.4392613
301.1656943
301.7628141
302.4988704
305.3842498
307.7210743
311.4533649
312.3322696
315.6351308
316.7916066
318.947432
324.330917
330.5481814
333.1605724
337.7037158
344.863321
352.4084859
364.0928425
373.0787711
385.5291233
398.3847374
408.9108626
428.2671378
445.4145954
459.3285133
475.6227104
491.5365121
299.7171845
301.3329698
300.3830512
300.7348037
299.7755582
300.3005662
302.6031607
306.8857837
309.2675565
310.1259363
313.6224037
313.4823612
316.9049085
317.2655311
320.1456513
323.9906803
326.3438172
331.5989215
336.6998579
338.9454144
347.8629408
357.1347753
363.1034639
374.4711385
388.9048099
400.8976866
411.8636841
431.652146
451.4997039
467.58119
298.6582492
300.9151897
303.3385886
304.2422337
307.0360375
307.0179465
305.6417946
303.6969637
303.762831
305.0221306
305.8435542
307.5620118
308.4833945
311.0604456
312.8758169
315.5765106
319.1034224
322.417131
328.4928357
335.5480881
340.4621531
342.3337352
353.6126856
363.3627993
370.5120206
380.4699607
395.4978519
410.845412
427.1498606
440.0095839
303.8304525
303.0286911
303.1895634
302.3372433
300.7434642
300.181515
299.3472946
303.8995584
300.7072108
301.7999687
302.447912
304.3007928
304.2339518
306.3826009
310.267882
313.1573582
314.4414004
318.5822806
321.6544824
323.8362122
328.6449129
334.871714
339.4415276
346.3692435
357.8815757
366.0967171
377.4825346
386.499903
402.7362372
415.4809125
301.274241
301.4612622
300.9626525
302.0031003
302.5504674
300.320404
301.3618086
302.4877735
302.6829295
303.9744491
305.1048026
304.8272613
306.7936115
307.3253972
310.3226244
312.0257102
312.4814286
314.9774747
314.5051013
320.4410475
325.2392602
327.0019227
334.2010909
340.0306513
346.7067034
354.3003122
362.9488991
371.9811344
379.8090544
393.6322958
303.2624224
303.5071463
301.6867943
302.2505902
302.0005237
303.4255111
304.3285529
303.1367505
303.0047817
303.1936765
302.7475693
302.1509769
304.9861126
305.5555591
307.3575764
307.647353
311.372603
313.9825522
315.914512
319.7909645
320.3232189
322.9084015
326.901968
333.0309142
336.4203445
344.3334412
349.1506437
360.9390439
373.7157467
383.036882
301.4427682
300.4991889
301.8576991
303.3163531
303.2031999
302.0453143
301.3202147
301.1022398
302.5037562
301.2260811
302.4541297
305.2896841
301.940971
301.6504994
302.908889
305.9086585
306.8291265
309.1711046
312.8783456
314.4154234
320.1800514
323.4150955
325.5686759
329.7932378
336.7958353
337.8472753
341.7594147
348.821527
357.3077804
366.712548
300.3407644
301.635418
301.9638221
302.8133245
301.1085006
303.810083
304.7424918
305.5527843
305.2551619
304.7591598
303.0552779
302.488922
304.5854846
306.2866227
308.7574841
309.1878859
310.3852927
310.8366783
310.4812893
311.7494461
311.8324415
313.4801912
316.7476908
317.8117965
322.7726522
329.0734365
335.5597618
341.1216426
345.6858304
355.7717586
303.7186887
303.0450429
301.9366305
301.8851713
304.106385
303.988319
305.3326026
303.8880932
303.9860137
304.4595469
305.3517437
306.233488
303.9084487
303.9717629
300.6779684
301.8504151
301.903284
303.8227353
303.7159831
307.0739205
306.0649361
307.8619448
313.6966301
314.8280225
319.6868923
321.6784277
323.2402116
329.414762
334.8664758
338.8390127
303.2685731
303.8385181
303.3239891
303.9084112
301.8779079
300.0615747
302.8563708
303.6606901
303.8974454
304.7271025
302.9822378
301.0897627
303.1243721
302.1804418
304.9245592
304.3042464
302.8170933
304.8659466
306.5652252
305.8114238
310.3435343
310.1079443
310.402897
315.5313437
317.2915334
320.3164511
323.2116358
328.0335836
331.7978278
336.5333203
301.0730529
301.8669597
301.0622318
300.6046377
301.8505894
304.4282139
303.7421982
303.5641773
301.9845285
300.1172629
302.5801602
303.424816
304.876605
302.8225396
301.0974892
302.5802688
304.0601151
303.2092672
304.1195635
307.6546512
309.5734171
310.5307494
310.2181534
311.8470912
313.6111551
314.2512439
318.2734498
322.8949748
326.9638294
330.962002
300.1052431
300.9529204
300.5793464
300.6509319
301.3705457
301.4029514
300.1364866
300.6285845
301.7946757
302.9576932
301.1353456
300.4117798
300.8473215
302.2415707
302.3494974
302.6570686
304.0632173
303.1227399
302.0093943
303.0294108
303.7455787
304.2968376
304.2711731
304.2768596
307.2985858
308.6409725
309.4415317
313.0910248
317.5572716
320.831063
299.2523396
299.6277711
299.4870521
298.1162236
298.7764222
299.2549221
301.7959559
302.0621738
301.5857925
302.7503696
305.6939095
304.968779
300.6849144
300.8976122
299.8655775
298.4139836
298.4915991
300.5188963
301.8709127
300.9039627
300.7694693
303.7810901
304.0508358
307.6205534
306.9022285
311.1522796
313.8963905
313.1910866
313.6581789
319.1240651
301.5309524
301.7756749
299.9155182
299.8887086
299.7158499
299.5491558
297.2798172
297.5257925
298.3813215
298.6061504
297.6504813
299.9986259
300.8675146
300.3308075
301.9275938
302.7600463
302.781427
302.2387792
302.645156
305.663391
304.6152873
303.6055877
306.7435962
305.4430223
305.597682
305.3251585
307.3074005
309.5962897
311.7486474
312.7027068
300.0399583
300.499519
301.2233838
302.4514577
302.4227075
300.3578115
301.5866089
303.0047733
301.878441
301.6616821
300.9524852
300.0693334
299.2229499
300.7688906
300.9332274
302.1891434
301.5762624
301.8241961
301.6379962
302.4841115
302.1062045
301.4590888
303.7635799
304.3841488
306.339258
307.3661437
308.127072
309.2041911
308.2758887
310.7684976
)
;

boundaryField
{
    flow
    {
        type            calculated;
        value           nonuniform List<scalar> 
55
(
704.328954
693.0292294
673.9534157
651.9325868
631.2679536
610.9940113
589.9577223
564.6367707
540.4104608
516.4242516
491.5365121
467.58119
440.0095839
415.4809125
393.6322958
383.036882
366.712548
355.7717586
338.8390127
336.5333203
330.962002
320.831063
319.1240651
312.7027068
310.7684976
300.0399583
300.499519
301.2233838
302.4514577
302.4227075
300.3578115
301.5866089
303.0047733
301.878441
301.6616821
300.9524852
300.0693334
299.2229499
300.7688906
300.9332274
302.1891434
301.5762624
301.8241961
301.6379962
302.4841115
302.1062045
301.4590888
303.7635799
304.3841488
306.339258
307.3661437
308.127072
309.2041911
308.2758887
310.7684976
)
;
    }
    obstacle
    {
        type            calculated;
        value           nonuniform List<scalar> 0();
    }
    frontAndBack
    {
        type            empty;
    }
    procBoundary3to1
    {
        type            processor;
        value           nonuniform List<scalar> 
36
(
728.3784802
681.8605573
688.0365887
698.3897905
702.7175258
702.7175258
574.3835221
585.1966662
601.7351144
623.3875212
630.8490383
642.2227491
642.2227491
455.2099576
469.4705793
490.1748736
511.4438701
527.4690101
527.4690101
360.528993
366.5985179
374.5159757
387.847559
398.7793828
416.896387
416.896387
317.1859158
316.0279556
319.0793233
324.6943696
329.2632834
333.5575453
338.3793554
338.3793554
307.3866421
307.3866421
)
;
    }
    procBoundary3to2
    {
        type            processor;
        value           nonuniform List<scalar> 
19
(
304.5123127
302.166823
306.0458364
299.728298
297.3871116
300.3488334
299.8512544
300.6438193
301.4100764
302.5499905
301.3654333
298.9672576
305.2529717
303.1738741
301.8586385
300.8606319
299.9792117
300.8780782
298.6751897
)
;
    }
}


// ************************************************************************* //
