/*--------------------------------*- C++ -*----------------------------------*\
| =========                 |                                                 |
| \\      /  F ield         | OpenFOAM: The Open Source CFD Toolbox           |
|  \\    /   O peration     | Version:  2406                                  |
|   \\  /    A nd           | Website:  www.openfoam.com                      |
|    \\/     M anipulation  |                                                 |
\*---------------------------------------------------------------------------*/
FoamFile
{
    version     2.0;
    format      ascii;
    arch        "LSB;label=32;scalar=64";
    class       volScalarField;
    location    "0.011";
    object      internalE;
}
// * * * * * * * * * * * * * * * * * * * * * * * * * * * * * * * * * * * * * //

dimensions      [1 -1 -2 0 0 0 0];

internalField   nonuniform List<scalar> 
654
(
3.95152394
2.434552719
2.262026747
1.091350009
1.22042784
3.965343455
1.172309124
2.224333376
1.674618599
2.329987157
2.216305521
3.482335809
2.11302127
2.54200907
2.308757686
2.393513555
1.559789084
0.5105186222
0.7547891433
0.5970345718
0.2199081234
1.769559793
0.9634237885
1.762414679
2.211382356
1.704748697
1.933012337
1.111980106
2.566078371
2.970720187
3.954741942
3.163006242
1.128016879
0.6145523122
0.3645541301
0.23979088
0.1117331536
0.7421708908
0.7409925666
0.2145731488
0.4019390971
1.155483671
1.091536297
1.089818842
0.6068759792
1.204458489
1.076582127
0.8382855848
2.722271169
2.794487033
2.844158114
1.091340615
1.837810676
2.514724923
0.7922419587
0.3157441964
0.2278686709
0.7860533029
0.09705672619
0.2759362159
0.5104383625
1.213739794
0.4619373029
0.2992236326
0.7282414186
1.104113763
0.8404180219
1.243814189
0.6463071537
0.7645452058
0.6815590306
1.094936579
0.8277633587
1.094851008
1.109864957
1.419182287
0.829741515
1.446034659
1.196086118
1.119738246
1.374628846
0.6161463064
1.477127681
1.695667455
0.1907774664
0.2521745855
0.444237247
0.2485412435
0.2156676242
0.3042796137
0.2960097655
0.172205068
0.9752095375
0.3504445545
0.06397575539
0.3509861087
0.6236292213
0.49550925
0.7800786902
0.7370612365
0.4949983285
0.5402144336
0.8271967408
0.8045345796
0.6067357396
0.8740134907
0.8161826065
1.555478896
0.9028809146
1.48393842
2.168568324
1.747580501
2.777843103
1.565357725
0.7745742111
0.3845069011
0.4961599279
0.5347443977
0.2186159076
0.3024465045
0.3631165006
0.5250235378
0.6414836445
0.3928425012
0.3783212069
0.7430429298
0.08539269348
0.4228602496
0.3487333384
0.625592441
1.191673353
1.044686529
1.311526205
1.142004582
0.1520824293
1.115114327
0.7430216593
0.5085660787
0.79800666
0.8079845302
1.253859625
1.243019127
0.7095607052
1.617486362
0.3447778928
0.7032925566
0.2107383853
0.4366435184
0.3739915676
0.2200498046
0.8533209346
0.4816130557
0.4577663591
0.3977387652
0.1427309695
0.2063854478
0.6626971709
0.5476056445
0.5618594163
0.5989134605
0.5549266013
0.5074238988
0.441848153
0.5509719628
0.1581019991
0.7017967347
1.267768033
1.506546457
1.192101018
0.4625804232
1.590444029
1.368886501
1.131667976
1.447500905
0.2443380454
0.3555714414
0.2726708198
0.1857704254
0.4109305769
0.4567461863
0.6642759002
0.3993367
0.3491841487
0.4461278379
0.2372687714
0.6781220554
0.4460397415
0.5374807815
0.6898654281
0.4300030782
0.3349940823
0.3894231801
0.8367797586
1.453376131
0.480504114
1.121945365
0.2465108656
0.7981544231
0.90959769
1.016835078
1.130154295
0.646844755
1.299821947
1.496965044
0.3773641921
0.3208963031
0.3878010895
0.2954561526
0.3252764421
0.2628922046
0.4286938929
0.5127637583
0.4672089113
0.3185693819
0.4185190874
0.3852915915
0.6834019448
0.4366569884
0.4867368942
0.3128445453
0.5219166638
0.1478712999
0.3278139504
0.1555328436
0.7474161915
0.6558693855
0.7557737889
0.7853409114
0.4318192735
0.9072012688
1.508160421
0.5431179442
0.4695709354
0.7004617277
0.1719696714
0.262841127
0.706031893
0.4704144457
0.431222949
0.4686115837
0.1157117834
0.1753380747
0.548092552
0.2550655574
1.037575551
0.318989452
0.5055066279
0.2678909346
0.2672764357
0.7699821919
0.7375162302
0.195113821
0.2843767495
0.2084423422
0.6354346897
0.8826793062
0.3326099103
0.526178254
0.3078538084
1.12022337
1.011750866
1.113736852
1.290219704
0.5423214123
0.2534923646
0.4248246293
0.2286039783
0.3808145882
0.5563559525
0.3964370315
0.3235687586
0.3486334067
0.2669454796
0.1412432964
0.5162543267
0.3810628877
0.4901010637
0.2634637538
0.1132710532
0.4008701777
0.07532978376
0.4338798991
0.507247039
0.4537227687
0.3966734828
0.3809281617
0.9371075335
1.511920563
0.9972069962
0.5457962315
0.2938395892
0.5501463065
0.2735344219
1.61110152
1.004805108
0.1934735212
0.1818989787
0.211928383
0.6146540361
0.2867894785
0.3696032308
0.3351436785
0.6186466931
0.407134868
0.8885754697
0.3605143553
0.9781685835
0.3079849575
0.2550596204
0.2187362065
0.7149547188
0.547701301
0.2581929175
0.1784611483
0.3644946512
0.5565807989
0.5903075949
0.6184165501
0.4811314255
0.6109459745
0.8571988213
0.403269134
1.089797845
0.6536537682
0.230060282
0.6569333228
0.4327378437
0.2937477195
0.9679478792
0.5188936376
0.3152363021
0.4372232901
0.2991418268
0.1523491475
0.4979219097
0.8336327659
0.4662089518
0.2066759392
0.7521809983
0.3289604451
0.371553302
0.6736490605
0.5059632181
0.08377102817
0.2006750077
0.3279518783
0.2459414889
0.8249775772
0.3553757204
0.6840637952
0.3889012076
0.2295597738
0.5740310127
0.8779565171
0.9358218565
0.4835932235
0.6218086149
0.262707684
0.2412727315
0.3805632174
0.3655963468
0.5493789757
0.284749771
0.7373013025
0.4627689518
0.2256943737
0.2918811808
0.06284531702
0.9614503243
0.1262802633
0.5864411552
0.30180881
0.4879546854
0.8494216101
0.5932158994
0.854133056
0.3673029886
0.2418997081
0.69891534
0.5499542009
0.6960552409
0.3877159059
0.1932757556
0.998782589
0.3775915351
0.2420798878
0.472786819
0.4099388397
0.7969714539
0.4109020508
0.4280625928
0.2867822128
0.2933017054
0.5710277084
0.3273345168
0.2049495118
0.2614530881
0.6687311406
0.2076751696
0.217535881
0.1352212157
0.3689881609
0.5619934831
0.4926834349
0.5413941242
0.5348179062
0.3781211356
0.6545271367
0.4210880567
0.9260054265
0.6439520142
0.160029957
0.622219675
0.6548234609
0.4492054689
0.2904384879
0.6253351206
0.5526925295
0.2224277899
0.1182063547
0.5293088396
0.4799886252
0.3922462983
0.1474108674
0.6247073593
0.5088921076
0.3117109548
0.526607856
0.8087621976
0.3415489016
0.4557309678
0.12225172
0.2622350656
0.6736067635
0.2034026333
0.2834434002
0.3072206448
0.6021460492
0.8804950141
0.5749620283
0.3267323561
0.8601788807
0.623282039
0.1351283949
0.06006576063
0.413540359
0.5890590209
0.3681265756
0.4061632
0.2977139263
0.4113468643
0.2003648486
0.4063962554
0.4400418344
0.3950965282
0.5992986965
0.5092756002
0.2554879955
0.3642219092
0.5033485835
0.4141203505
0.1547235819
0.6512425615
0.5579271817
0.2309649484
0.3762424783
0.2071617105
0
0.4000802906
0.1752266128
0.2907598728
0.3741464697
0.5982871914
0.858914638
0.7150443233
0.326287247
0.3569374743
0.2575370044
0.1364520755
0.302907217
0.1831417698
0.3377686609
0.3913028312
0.5252355823
0.3203427695
0.6296850471
0.3520488184
0.2334671904
0.465653039
0.4540504273
0.8984806093
0.5858231776
0.6015604622
0.4511277855
0.9729457994
0.1576589641
0.6608032544
0.5330188263
0.46350503
0.2357181426
0.7293849154
0.1857047898
0.1687717242
0.5396626258
0.2203370651
0.469161927
0.5007389237
0.3526671425
0.3447963386
0.2365554892
0.6181345612
0.1733666174
0.4412859041
0.6167476458
0.3109469276
0.4710174021
0.8143259219
0.694051218
0.3517814711
0.315009428
0.3670358897
0.09126688476
0.2408283142
0.4839946815
0.1749309318
0.1938968373
0.1614587493
0.320804685
0.4824694714
0.5847698017
0.253420094
0.5136397183
0.3894083952
0.5173847703
0.2792442447
0.3163310176
0.5493717666
0.4769194879
0.5243257471
0.5023693999
0.425056011
0.3783797835
0.3550818898
0.6595263089
0.6052813921
0.5704646631
0.5981748272
0.2719620505
0.883429335
0.2364306416
0.4502582588
0.4899094104
0.5209138037
0.2632202029
0.1815815789
0.2123128547
0.2516298355
0.1482346951
0.4695680506
0.5389486791
0.6469843146
0.410674616
0.7057688096
0.3600575384
0.4112080976
0.3806128594
0.4547966147
0.3274369772
0.6699015072
0.269683062
0.3077629629
0.2591580978
0.7195019695
0.173672885
0.5167019201
0.3907467144
0.6484856022
0.554766558
0.3034282247
0.2657122533
0.4533793298
0.4687381224
0.3387188396
0.2439804339
0.4177385394
0.2368520293
0.4171287049
0.2996759152
0.211514402
0.3834753694
0.7323610152
0.3327205908
0.2084648086
0.3320105741
0.3237637484
0.1799454643
0.773125171
0.2909765277
0.3586103438
0.07634416748
0.2881934275
0.4655677622
0.546553858
0.292539003
0.2358466433
0.573772429
0.4174323422
0.4214849077
0.1739587487
0.5484807358
0.2536299658
0.4227579917
0.7209653587
0.3210179394
0.4951747293
0.2474142559
0.2332720507
0.3685927929
0.2625235066
0.5585745624
0.6115895452
0.3958284305
0.5191962315
0.9712511593
0.223644541
0.1887994067
0.378381331
0.1648323541
0.5398492483
0.6213797222
0.2107325497
0.3806965787
0.3735478248
0.2539284979
0.1781729288
0.8043440213
0.3113393216
0.2892410202
0.4351057143
0.3545346229
0.1002958744
0.2927491235
0.3525292636
1.173957522
0.3883633691
0.5073530924
0.6068359738
0.6095508799
0.205522616
0.1179277401
0.6293007374
0.21924049
0.2831838996
0.4319121269
)
;

boundaryField
{
    flow
    {
        type            zeroGradient;
    }
    obstacle
    {
        type            calculated;
        value           nonuniform List<scalar> 0();
    }
    frontAndBack
    {
        type            empty;
    }
    procBoundary3to1
    {
        type            processor;
        value           nonuniform List<scalar> 
36
(
1.488228783
3.20260286
1.937201138
1.322817125
1.581969431
1.581969431
1.56556392
1.625256438
2.866400579
1.850464846
3.151143532
1.033447459
1.033447459
1.697687292
0.7592851137
0.6875475485
1.017355258
1.477847851
1.477847851
0.5386770067
0.4798602098
0.5625997589
0.2523809215
0.599235036
1.242138499
1.242138499
0.5144918972
0.4614730991
0.4704181796
0.4889516031
0.4737203328
0.1599574415
0.3673248542
0.3673248542
0.7239917085
0.7239917085
)
;
    }
    procBoundary3to2
    {
        type            processor;
        value           nonuniform List<scalar> 
19
(
0.6302586047
0.3212661106
0.08725875366
0.1183583247
0.4167891029
0.4929945376
0.4100381155
0.4866162225
0.242003145
0.549494468
0.6036091029
0.5527441266
0.1775323919
0.4904356173
0.2876599771
0.3060112915
0.3550722925
0.3392723693
0.6032467438
)
;
    }
}


// ************************************************************************* //
