/*--------------------------------*- C++ -*----------------------------------*\
| =========                 |                                                 |
| \\      /  F ield         | OpenFOAM: The Open Source CFD Toolbox           |
|  \\    /   O peration     | Version:  2406                                  |
|   \\  /    A nd           | Website:  www.openfoam.com                      |
|    \\/     M anipulation  |                                                 |
\*---------------------------------------------------------------------------*/
FoamFile
{
    version     2.0;
    format      ascii;
    arch        "LSB;label=32;scalar=64";
    class       volScalarField;
    location    "0.011";
    object      internalEMean;
}
// * * * * * * * * * * * * * * * * * * * * * * * * * * * * * * * * * * * * * //

dimensions      [1 -1 -2 0 0 0 0];

internalField   nonuniform List<scalar> 
654
(
2.370959772
2.209171363
2.270668154
2.320934711
2.329974949
2.379412271
1.468964649
1.585433567
1.718911581
1.821350125
1.947130067
2.052982506
2.114478452
2.169072672
2.236197209
2.270961345
2.294397701
0.8463792074
0.9193687726
1.006299675
1.088388212
1.209115655
1.318474701
1.429937961
1.522902308
1.65470667
1.765943529
1.870148395
1.979873645
2.036634177
2.106038206
2.172722823
2.208753345
0.5307327721
0.5498086705
0.5711858735
0.5985741418
0.6346999054
0.6802047666
0.7287328596
0.7970949859
0.8656855408
0.9500032867
1.043988378
1.126608084
1.237547433
1.344199148
1.434659059
1.554737467
1.675337391
1.794515785
1.915990988
2.001888177
2.054809556
2.123685072
0.4333585456
0.4403897838
0.4430128015
0.4527449796
0.4620592587
0.4706214024
0.4817365491
0.4989983441
0.5199588259
0.5439997573
0.5607913953
0.5943855581
0.6327076663
0.6775615945
0.7153562902
0.7653905988
0.8320157409
0.908531052
0.993190062
1.0810086
1.19104288
1.301370451
1.399658604
1.512145531
1.625998337
1.7409773
1.844050573
1.949920401
2.016896358
0.4272358838
0.4282928984
0.4319079759
0.4370524152
0.4444815889
0.4555503139
0.4630453769
0.4775353366
0.4890545146
0.5019469037
0.5101938102
0.5309154395
0.5509979363
0.5793072231
0.6118488426
0.6539537579
0.7002730047
0.745263555
0.797963951
0.8744061724
0.9454425461
1.021894691
1.120327182
1.230227995
1.346775781
1.445716189
1.53856764
1.649225695
1.755778979
1.864463776
0.4219603654
0.4252785055
0.4316933564
0.4334980158
0.4348928971
0.4422471581
0.449471254
0.4567241066
0.4646861821
0.4821332041
0.4896286901
0.5010159369
0.5192286617
0.5424744989
0.5660588968
0.5905249539
0.6181257127
0.648023721
0.6960508989
0.7414228615
0.810786722
0.8923657296
0.9859636221
1.074759805
1.173853589
1.275523456
1.396036379
1.494105477
1.606426878
1.72172924
0.4254614428
0.4250481003
0.4260221716
0.4317960706
0.4371481881
0.4379427616
0.4380557101
0.4428236222
0.4478013378
0.4492357414
0.4625250072
0.4754491812
0.4840577098
0.4950199038
0.5095156154
0.5407114923
0.56857027
0.6150540013
0.6471412411
0.684794991
0.7294948701
0.7848373702
0.8450251564
0.9313486699
1.016223798
1.099366838
1.21738674
1.33168317
1.435529006
1.539563573
0.417998666
0.4210996441
0.4250870455
0.427389418
0.4248974996
0.4283008915
0.4339973856
0.4370235422
0.4406486446
0.4458295725
0.451610101
0.4636803071
0.4725571424
0.4839499152
0.497059871
0.5108884656
0.5307331954
0.5572873661
0.5808716051
0.6251976175
0.6638929432
0.715287031
0.7620513823
0.8111657261
0.8927554978
0.9840383809
1.067149918
1.169416878
1.279659272
1.392599216
0.4138751325
0.4142839942
0.4123240394
0.4139819655
0.4185445897
0.4208276958
0.4252844866
0.4304828456
0.4356357108
0.4400511106
0.446197324
0.450653604
0.4536316024
0.4616993783
0.4739784123
0.4891234166
0.5024812801
0.5238195836
0.5474624099
0.5692766993
0.6063211905
0.6430197629
0.6967659656
0.7485553507
0.8005402258
0.881526546
0.963411646
1.043268284
1.131760043
1.229869789
0.4148093841
0.4168598978
0.417194839
0.4175927939
0.4168039541
0.4169013443
0.4200033665
0.4256678918
0.4322191301
0.4359878934
0.4432185639
0.4440851743
0.4516805337
0.4567961245
0.4633818244
0.4734342226
0.4795937042
0.4966019496
0.5154885987
0.5320053153
0.5595982235
0.5929926582
0.6213246256
0.6675667202
0.7184660509
0.771123118
0.827228343
0.9091117784
1.006631291
1.106244905
0.4185408867
0.4203875743
0.4209443114
0.4225682383
0.4256875433
0.4277973597
0.4253461493
0.4229394311
0.4241988675
0.4248128043
0.4284523683
0.4339556572
0.4379060268
0.442459986
0.4508566848
0.462456776
0.4718949551
0.4800097297
0.4957951664
0.5099001676
0.5293037864
0.5397635006
0.571144854
0.6051974745
0.6383169681
0.681921697
0.742255236
0.8094311379
0.8891608333
0.9640109941
0.4145477788
0.4169880734
0.4183028925
0.4182772084
0.4149916353
0.4148584468
0.4129804063
0.4193430222
0.415299525
0.4190696658
0.4205525433
0.424116494
0.4283702926
0.4339371218
0.4405953723
0.4486480154
0.4541680563
0.4651700417
0.474487475
0.4846341336
0.4979740561
0.5150145414
0.5314022017
0.5543479122
0.590499016
0.6254783431
0.6689452001
0.7184015684
0.7799547217
0.8474116463
0.414580586
0.4137280982
0.4127621469
0.4152238521
0.4156595998
0.4111792918
0.4167182413
0.4174308524
0.4195401132
0.425186412
0.4257302287
0.4270255268
0.4306483347
0.4339237718
0.4417247188
0.4463555112
0.4485561595
0.4540809957
0.4533415575
0.4689236495
0.4801081064
0.4929862004
0.5138972412
0.5346451554
0.5566248412
0.5847427556
0.616233479
0.6534412366
0.6962745683
0.7518390588
0.4134226508
0.4130147446
0.4110654862
0.4132406941
0.4139228873
0.4195368441
0.4232855335
0.4221412634
0.4214363581
0.4205113547
0.4212543813
0.422554572
0.4258889951
0.4279632803
0.4281686802
0.4318778493
0.436773912
0.4412444207
0.4496551055
0.4583268711
0.4605807418
0.4698784119
0.4809769894
0.4985439116
0.5151205765
0.5414176638
0.5656235032
0.6062951973
0.6440726088
0.6859639999
0.416705295
0.4147773579
0.4166551294
0.4193610729
0.4181395232
0.4169928434
0.4145396571
0.4172883194
0.4214362266
0.4203432166
0.4204876691
0.4250459477
0.4203875674
0.4188793172
0.4201940368
0.4255563158
0.4268282103
0.4332397329
0.440857932
0.4473826389
0.4594029852
0.4690335158
0.4785671748
0.4921222979
0.506995688
0.5128280614
0.5289923436
0.554812822
0.5915147693
0.6274610495
0.4159430404
0.4210429571
0.4235409162
0.4212636171
0.4184388981
0.4213472969
0.4206749515
0.4210166461
0.4184761655
0.4164994966
0.4145553574
0.413688754
0.4189257654
0.4240969761
0.4293922395
0.4334046699
0.4388443646
0.4408427725
0.4451042404
0.4462102022
0.4524773711
0.4541559221
0.4563815433
0.4630710754
0.4767101126
0.4893564312
0.5073845572
0.5268426417
0.5429918453
0.5812362342
0.423845238
0.4215063011
0.4202067667
0.4209458447
0.4233900603
0.4243044816
0.4263996956
0.4247840204
0.4221737158
0.4226249985
0.4233841689
0.4265288004
0.4229579684
0.4249976216
0.4215429626
0.4213145454
0.4216323087
0.4259991817
0.4244208912
0.430527403
0.4308594292
0.4344695401
0.4497317994
0.4522835108
0.4680674311
0.4755426935
0.4856644666
0.500875334
0.5173246625
0.5343076097
0.4181874353
0.416844144
0.4167287635
0.4173972295
0.4156375635
0.4129298248
0.415939419
0.4205095398
0.4223688643
0.4233730352
0.423698298
0.4216237676
0.4227464352
0.4193988972
0.422138637
0.4224001952
0.4184362011
0.4249711264
0.4267219467
0.4270066183
0.4367085003
0.4410965573
0.4426546912
0.4548113325
0.4587710275
0.4663734813
0.474445416
0.4875705711
0.5023335048
0.5139326415
0.4139815912
0.4141136288
0.4149291016
0.4141925352
0.4174124647
0.4213948442
0.4207702229
0.4186730136
0.4173255498
0.413765562
0.4180702282
0.415693547
0.4185731726
0.419960202
0.418824434
0.422457696
0.4261672508
0.4240271911
0.4291971328
0.4349446777
0.4363295946
0.4381325436
0.4362467674
0.4443151855
0.4522922992
0.4583010414
0.4632661182
0.4725422759
0.4855972357
0.4973768686
0.4152450524
0.4175634193
0.413799744
0.4145333127
0.4145106399
0.4162205459
0.4176670122
0.4205936144
0.4221003316
0.4232892958
0.4208502081
0.4205639623
0.4227751784
0.4223621947
0.4228048886
0.4243649829
0.4266080577
0.4218001589
0.4203510948
0.4223587668
0.4259106974
0.4310383665
0.4346663427
0.4336528895
0.4352713808
0.4422558499
0.4499693802
0.4633054714
0.4763184053
0.4855936077
0.416238887
0.417900585
0.4188687839
0.4177246237
0.4180321887
0.4171990727
0.4178430102
0.4159918175
0.4171443728
0.4200242931
0.4237657132
0.424673883
0.41649439
0.4172625805
0.4169603096
0.4155551299
0.4163820219
0.4200328119
0.4224692218
0.42104022
0.4200605076
0.4235038421
0.4238584638
0.4310213829
0.4337452223
0.4439556684
0.4491530936
0.4499192376
0.4530678036
0.4679241181
0.4164026816
0.4158031224
0.4128173047
0.4141558219
0.4154342003
0.4156743144
0.412877414
0.4120404182
0.4131583007
0.4129874921
0.4109695632
0.4167513687
0.4200726744
0.4201874404
0.4196380533
0.4211762082
0.4208787525
0.4214353405
0.423219001
0.4278098515
0.4258135746
0.4237542718
0.4306809948
0.4297392397
0.4301577355
0.4279890293
0.4359512512
0.4407881317
0.4486417867
0.4539017489
0.4068668327
0.4093992804
0.4099348066
0.4124442651
0.4107555888
0.4061035143
0.4102072563
0.4139804021
0.411887567
0.4114478669
0.4125110386
0.4067127911
0.4056286394
0.407629574
0.4079353523
0.4119883299
0.4123253488
0.4113430687
0.4090029511
0.4125148553
0.4139132989
0.4169358916
0.4173904113
0.4190645232
0.420514688
0.4236338226
0.4261272493
0.4296140852
0.4294348076
0.4380368348
)
;

boundaryField
{
    flow
    {
        type            calculated;
        value           nonuniform List<scalar> 
55
(
2.370959772
2.379412271
2.294397701
2.208753345
2.123685072
2.016896358
1.864463776
1.72172924
1.539563573
1.392599216
1.229869789
1.106244905
0.9640109941
0.8474116463
0.7518390588
0.6859639999
0.6274610495
0.5812362342
0.5343076097
0.5139326415
0.4973768686
0.4855936077
0.4679241181
0.4539017489
0.4380368348
0.4068668327
0.4093992804
0.4099348066
0.4124442651
0.4107555888
0.4061035143
0.4102072563
0.4139804021
0.411887567
0.4114478669
0.4125110386
0.4067127911
0.4056286394
0.407629574
0.4079353523
0.4119883299
0.4123253488
0.4113430687
0.4090029511
0.4125148553
0.4139132989
0.4169358916
0.4173904113
0.4190645232
0.420514688
0.4236338226
0.4261272493
0.4296140852
0.4294348076
0.4380368348
)
;
    }
    obstacle
    {
        type            calculated;
        value           nonuniform List<scalar> 0();
    }
    frontAndBack
    {
        type            empty;
    }
    procBoundary3to1
    {
        type            processor;
        value           nonuniform List<scalar> 
36
(
2.409853095
2.344053074
2.359130406
2.388488999
2.389653046
2.389653046
1.675546345
1.774520716
1.898593608
2.016705335
2.093981234
2.145932664
2.145932664
0.9675662447
1.051394264
1.151017449
1.265666381
1.365278982
1.365278982
0.5701167058
0.5904969792
0.629597014
0.6733379402
0.7195733691
0.7819478593
0.7819478593
0.450244002
0.4504652614
0.4570106634
0.471475036
0.4797549179
0.4927934273
0.5093434857
0.5093434857
0.4299333307
0.4299333307
)
;
    }
    procBoundary3to2
    {
        type            processor;
        value           nonuniform List<scalar> 
19
(
0.4257080429
0.4177413061
0.4270648654
0.416405985
0.4104684012
0.4165460655
0.4192337974
0.4108540058
0.4130469894
0.4134758565
0.4163554048
0.4145965658
0.4256513045
0.4180148982
0.4129529211
0.4181136728
0.4151194561
0.4161867146
0.406377075
)
;
    }
}


// ************************************************************************* //
