/*--------------------------------*- C++ -*----------------------------------*\
| =========                 |                                                 |
| \\      /  F ield         | OpenFOAM: The Open Source CFD Toolbox           |
|  \\    /   O peration     | Version:  2406                                  |
|   \\  /    A nd           | Website:  www.openfoam.com                      |
|    \\/     M anipulation  |                                                 |
\*---------------------------------------------------------------------------*/
FoamFile
{
    version     2.0;
    format      ascii;
    arch        "LSB;label=32;scalar=64";
    class       volScalarField;
    location    "0.011";
    object      linearKEMean;
}
// * * * * * * * * * * * * * * * * * * * * * * * * * * * * * * * * * * * * * //

dimensions      [1 -1 -2 0 0 0 0];

internalField   nonuniform List<scalar> 
654
(
14.81180444
15.66352366
15.75426004
15.59921814
15.50287044
15.4423178
13.49528608
13.98232819
14.57921735
14.92801868
15.31678679
15.59449158
15.73585077
15.8223855
15.96418862
15.86356704
15.7146086
10.34093504
10.85399054
11.24121841
11.75435241
12.25336643
12.84812109
13.37925393
13.76571317
14.34945362
14.8234725
15.25475514
15.57241608
15.70816126
15.83470721
15.95921398
15.92992417
8.478349377
8.630079958
8.700955056
8.944668789
9.216406991
9.477278187
9.741227998
10.12543569
10.61029148
11.08405271
11.58391924
12.02497124
12.57603878
13.11179485
13.55706405
14.09631801
14.60636741
15.08792687
15.48497245
15.75654264
15.89331771
16.0353823
7.974038966
7.983638821
8.01198108
8.086445232
8.173620832
8.215666074
8.265250909
8.324084286
8.507502537
8.69467479
8.803724012
8.983038316
9.234880214
9.506794017
9.743634513
10.0267245
10.42404837
10.87467079
11.33367922
11.83581816
12.45776604
12.99022833
13.48728869
14.04701259
14.59092065
15.07664396
15.41701336
15.77957303
15.9750221
7.955224591
7.976561834
8.000406125
8.058878589
8.09822234
8.110266806
8.177029433
8.280507158
8.343761028
8.379462253
8.418645925
8.590248475
8.700454917
8.895773804
9.08102401
9.373631228
9.634250164
9.947136787
10.28795025
10.64514763
11.14143322
11.59268524
12.11162668
12.64427767
13.26052951
13.82818012
14.26432632
14.80726166
15.19440794
15.58489788
7.911878815
7.906076656
7.944647939
7.947811258
7.976886165
8.021754705
8.090872049
8.159532886
8.201383554
8.31740867
8.389587733
8.453070615
8.571180606
8.701301131
8.828260666
8.968286088
9.140218115
9.350170369
9.661211939
10.00518992
10.33782165
10.7905063
11.31495207
11.86358609
12.4395449
12.97161017
13.6098787
14.20394103
14.7701868
15.16631039
7.932836642
7.964151559
7.957442912
7.993317346
8.006534624
8.000764594
7.975542958
8.002925779
8.060446207
8.06892849
8.076806032
8.207950511
8.302962202
8.396014662
8.52200762
8.733795599
8.909247881
9.167404453
9.30448765
9.571492508
9.962411526
10.33834926
10.65146206
11.13584167
11.60285202
12.14224086
12.75489425
13.32499166
13.83949301
14.36383704
7.918294103
7.894226266
7.938334527
7.950991445
7.940337832
7.95174112
7.968236535
7.992178113
8.011653165
8.070421343
8.092874098
8.185680414
8.206471816
8.224688922
8.343012278
8.442899926
8.525294947
8.697612742
8.939036725
9.209509064
9.457705321
9.785704258
10.11409661
10.44663605
10.89659774
11.4384627
11.95667279
12.52826383
13.13484014
13.75843213
7.8357031
7.842502876
7.822190606
7.813155463
7.868227511
7.906607953
7.965845912
8.005315212
8.026379044
8.000598362
8.075758362
8.060927862
8.083867986
8.149963398
8.211665965
8.283272731
8.429263924
8.646963164
8.811885471
8.909904591
9.130478129
9.401974498
9.797065305
10.09730276
10.46898595
10.92793305
11.40348129
11.90038443
12.41009617
12.90336958
7.864502428
7.861828395
7.886855224
7.894289815
7.888880681
7.886623059
7.87647132
7.863864323
7.912039735
7.954010664
8.000154128
7.99114187
8.036372367
8.144513605
8.158753037
8.245317809
8.261506748
8.382966001
8.527646341
8.727005735
8.922083979
9.182017717
9.406009437
9.740744384
10.00855973
10.33690254
10.7814205
11.17927254
11.72509977
12.36109518
7.961329643
7.941247902
7.894628265
7.909119449
7.885710294
7.927937463
7.919979928
7.904187766
7.923385353
7.911879483
7.95528896
8.011161335
8.051541671
8.053813975
8.145666346
8.255189624
8.317421441
8.364238884
8.472055172
8.512215923
8.661245563
8.763856769
8.96111509
9.213435724
9.464390693
9.759595622
10.11395435
10.58968435
11.11483117
11.59738047
7.785612227
7.849321292
7.855869937
7.85303837
7.813777164
7.836688847
7.834986016
7.842846583
7.853504322
7.881023626
7.897799839
7.918508701
7.986057822
8.012282388
8.019402283
8.095896376
8.129808377
8.208235835
8.263761247
8.375992902
8.454029188
8.578540767
8.67422181
8.837286186
9.072593432
9.359582037
9.665954417
10.06766101
10.4213741
10.87533176
7.797807786
7.781514614
7.784300929
7.806961609
7.820252503
7.779081545
7.841375605
7.836778394
7.879106188
7.943958859
7.925771622
7.946126263
7.960425784
8.010135005
8.057397008
8.106494832
8.107898463
8.131756157
8.106920194
8.210093076
8.287545732
8.428027587
8.588439032
8.730859838
8.88147472
9.115786901
9.336566335
9.581200743
9.940214307
10.32453766
7.741887169
7.748316339
7.750454435
7.785983093
7.792287201
7.865986328
7.887927887
7.888325642
7.878617095
7.86892367
7.892528142
7.930009202
7.924263671
7.954873054
7.906007782
7.935843416
7.950073023
7.944303523
8.043239677
8.102428656
8.098338767
8.167165737
8.231555056
8.356430904
8.512597002
8.701820744
8.93148903
9.210126622
9.408391305
9.732369298
7.867401932
7.830252858
7.843451617
7.848100523
7.830085716
7.864847273
7.842780114
7.88465975
7.920393567
7.92563814
7.896146447
7.900608116
7.891399723
7.857716114
7.843502202
7.853210269
7.867034145
7.931610199
7.950757478
8.036883502
8.119756094
8.197354161
8.284346946
8.389862854
8.428443634
8.483635171
8.590170151
8.794620362
9.100427173
9.336983385
7.889253004
7.936703332
7.975380883
7.920323236
7.899723408
7.879433842
7.841562917
7.817833156
7.772706858
7.760611481
7.752707158
7.748843968
7.785502704
7.841427033
7.8867044
7.95110831
7.994569364
8.002528226
8.100184975
8.078182626
8.162032354
8.146589652
8.108873913
8.195993372
8.287547828
8.361854395
8.488026817
8.629939216
8.722879515
8.985240915
7.937756076
7.914627999
7.920355397
7.937848458
7.925755487
7.939818272
7.93104624
7.936737905
7.884801042
7.885913717
7.868961798
7.907906537
7.916286958
7.94327934
7.94979997
7.914355685
7.925818217
7.958676193
7.915932843
7.928590011
7.945604864
7.972444585
8.06220152
8.098465368
8.244148516
8.285050475
8.409059106
8.50657126
8.642425954
8.79733991
7.837559411
7.804476896
7.794688035
7.788979616
7.810022518
7.792970458
7.78719345
7.853207551
7.879260997
7.866898108
7.918473532
7.925759455
7.894096223
7.879552033
7.865290969
7.879600695
7.839115932
7.893402333
7.87964473
7.922498911
7.978909154
8.046560377
8.067085524
8.129673679
8.127490079
8.193788817
8.260238087
8.328006946
8.464937962
8.520344018
7.821886029
7.790373128
7.826029301
7.809965854
7.83874749
7.829702231
7.842329259
7.809603577
7.840175209
7.801774799
7.838051112
7.779447375
7.782645845
7.836575893
7.855998631
7.8957481
7.95264796
7.913421374
7.994751469
8.002262111
7.981722206
7.972893883
7.951080356
8.05532383
8.15144943
8.224358517
8.203600959
8.256374755
8.343872143
8.419611188
7.854081846
7.869657342
7.828857947
7.84364887
7.807646678
7.851138991
7.899353873
7.936208614
7.936325525
7.926164119
7.926188334
7.914861733
7.952075065
7.917332499
7.93413411
7.958665756
7.971316417
7.918485178
7.926019264
7.919600711
7.946668043
8.046687539
8.109839586
8.082503776
8.02637939
8.106013973
8.204148883
8.330866888
8.402112107
8.475283549
7.879951823
7.913900563
7.912458187
7.933535181
7.927180173
7.905418391
7.849991048
7.82072841
7.851105059
7.885709341
7.889440201
7.937273353
7.886058066
7.913708124
7.917111769
7.914554467
7.908931194
7.920915708
7.931392915
7.950875838
7.954907239
7.923046089
7.909906678
7.954605007
8.02197293
8.066109029
8.082908194
8.112963212
8.123689123
8.231095109
7.849270785
7.823981766
7.829162771
7.84013991
7.874808838
7.876713212
7.899270812
7.895453744
7.891481467
7.885422076
7.854202361
7.907039521
7.940067442
7.962713773
7.912083776
7.92002745
7.907427538
7.926646921
7.926556745
7.942028282
7.911252031
7.893220214
7.931648993
7.954462759
7.961696003
7.924205898
7.998911265
8.007501545
8.102145092
8.163098033
7.696104797
7.743120097
7.737823983
7.753064133
7.736409159
7.695948697
7.746493504
7.757590394
7.764731686
7.755147335
7.789285318
7.709381564
7.695077114
7.704763825
7.71232368
7.739316788
7.761627722
7.75143563
7.707953464
7.741053755
7.772629114
7.837133354
7.785172426
7.799143515
7.780465036
7.822734934
7.840418702
7.877739684
7.900575175
7.9777935
)
;

boundaryField
{
    flow
    {
        type            calculated;
        value           nonuniform List<scalar> 
55
(
14.81180444
15.4423178
15.7146086
15.92992417
16.0353823
15.9750221
15.58489788
15.16631039
14.36383704
13.75843213
12.90336958
12.36109518
11.59738047
10.87533176
10.32453766
9.732369298
9.336983385
8.985240915
8.79733991
8.520344018
8.419611188
8.475283549
8.231095109
8.163098033
7.9777935
7.696104797
7.743120097
7.737823983
7.753064133
7.736409159
7.695948697
7.746493504
7.757590394
7.764731686
7.755147335
7.789285318
7.709381564
7.695077114
7.704763825
7.71232368
7.739316788
7.761627722
7.75143563
7.707953464
7.741053755
7.772629114
7.837133354
7.785172426
7.799143515
7.780465036
7.822734934
7.840418702
7.877739684
7.900575175
7.9777935
)
;
    }
    obstacle
    {
        type            calculated;
        value           nonuniform List<scalar> 0();
    }
    frontAndBack
    {
        type            empty;
    }
    procBoundary3to1
    {
        type            processor;
        value           nonuniform List<scalar> 
36
(
14.22423819
15.55828497
15.37859458
15.26436868
15.04976017
15.04976017
14.20019364
14.63678265
15.03022971
15.31076128
15.59528805
15.64945313
15.64945313
11.0494629
11.52258945
12.00149169
12.52304038
12.96866022
12.96866022
8.671993381
8.790593071
9.130118223
9.37902812
9.669038991
9.942099786
9.942099786
8.038304808
8.048444835
8.048691578
8.152303737
8.147258277
8.229606823
8.349831549
8.349831549
7.925274226
7.925274226
)
;
    }
    procBoundary3to2
    {
        type            processor;
        value           nonuniform List<scalar> 
19
(
7.948389224
7.87352244
7.922043671
7.89310292
7.831167599
7.874667219
7.926323893
7.80564359
7.763885306
7.768519601
7.856597507
7.899450383
7.936821796
7.851999609
7.769128918
7.892709881
7.838271862
7.851468135
7.750896593
)
;
    }
}


// ************************************************************************* //
