/*--------------------------------*- C++ -*----------------------------------*\
| =========                 |                                                 |
| \\      /  F ield         | OpenFOAM: The Open Source CFD Toolbox           |
|  \\    /   O peration     | Version:  2406                                  |
|   \\  /    A nd           | Website:  www.openfoam.com                      |
|    \\/     M anipulation  |                                                 |
\*---------------------------------------------------------------------------*/
FoamFile
{
    version     2.0;
    format      ascii;
    arch        "LSB;label=32;scalar=64";
    class       volScalarField;
    location    "0.011";
    object      linearKE;
}
// * * * * * * * * * * * * * * * * * * * * * * * * * * * * * * * * * * * * * //

dimensions      [1 -1 -2 0 0 0 0];

internalField   nonuniform List<scalar> 
654
(
17.38153968
15.7906771
22.22589275
8.030680255
9.794875762
24.40593489
14.88880161
17.18134248
14.76105651
16.60000002
15.09958118
14.11614326
15.38999677
15.75462358
13.31242729
16.94231143
12.06142935
6.972684619
17.93099375
8.34748478
5.862424114
19.69551243
17.61316891
13.15914625
20.668127
10.0451194
15.47852412
11.01403709
19.42312185
12.35056097
17.84013266
19.78548387
10.56925606
8.218440665
6.473060527
6.587479255
4.56728969
6.903519418
11.85662838
3.698318013
8.193587301
14.24591019
8.704905707
10.56295626
6.670608726
14.67472379
10.20856838
10.92365632
20.31167208
20.73165035
16.46109346
11.51519272
20.36117858
12.70169776
15.84224408
4.283388854
3.317199596
11.7850244
3.081744218
4.595360127
12.85945499
11.93232707
13.09853187
3.828076181
10.99104479
13.38925971
10.62474978
12.97780247
9.708420867
10.16398851
11.7514669
14.97073224
10.78592741
15.88217843
12.00807091
14.68175677
19.27596952
14.92864376
11.02140764
11.20003205
14.82402932
10.51107288
9.526437263
17.29996315
5.723283694
8.275331817
8.643612225
4.45350421
4.707186889
6.656580982
9.485354856
7.084126531
10.97379627
4.124863993
4.533752366
5.436169001
10.23126187
8.246364028
12.44193848
20.22865072
9.152098987
8.520757366
9.524223611
13.53033832
8.433321528
13.61872304
8.341103803
15.58359399
11.91967981
16.61143211
18.27926711
11.34868961
19.36481143
14.71468333
11.01364604
9.739704392
7.969659687
14.49159063
6.076285393
5.823833159
7.872113625
9.74671169
7.201976699
8.802595185
10.58071178
11.70390286
4.018158133
11.41545191
9.471109814
11.46944469
15.01830824
9.872882377
11.21010568
17.15103103
6.984233225
11.97903688
10.83581502
9.606521306
15.90947252
12.47544318
10.12290133
13.26498511
10.44703482
20.50092643
8.483380095
6.529831374
5.357142141
6.571422018
7.942665712
3.710102544
11.75887325
10.20066895
7.359678325
5.010287939
5.506791688
5.440246323
7.376501773
9.672538616
13.47391199
10.76623077
7.167827608
12.69771996
8.212178801
8.528849586
4.668176338
9.581255035
18.8291988
14.07122731
11.48850751
7.348339382
12.17995635
13.0055529
12.30902097
14.39746545
4.574732427
6.304353349
7.539715186
6.78944632
12.96406063
8.567627883
11.52611052
8.015654108
6.129123159
8.390680255
6.02858373
11.12745724
7.016493165
5.499604514
8.897714991
8.397973987
9.728428992
8.047277043
6.31729409
11.82808903
6.279765746
12.98795282
7.410917278
13.19732749
14.62347071
11.42430183
9.049288909
11.03608952
20.35229291
15.81654756
7.890465384
4.988862417
3.812107727
8.238071204
7.000539794
8.51433817
12.63307015
5.972244315
8.429318645
7.603379546
10.71169313
6.307775393
11.33983323
8.565603124
7.426745328
8.103558464
7.152391963
6.282014546
13.3707514
3.498954584
2.529479237
7.841273082
9.62688704
12.45366762
5.844060422
13.92454404
16.76869539
7.242247964
7.37669816
8.268612721
4.315362925
8.087709992
8.511062257
7.961494355
9.644913887
11.14185328
4.200449314
3.670743939
9.722913325
4.827528292
13.02243519
7.091477551
11.76018192
2.886716016
10.73588254
11.54956934
9.048638355
5.299354307
6.504388107
11.26888078
11.38043955
8.679368044
4.31117159
9.871489612
7.746395058
12.02436321
18.44462977
14.12017553
12.59186921
9.994576597
7.307330911
7.37242056
7.148025244
10.67201704
10.25120971
11.0454031
9.551465315
6.237199636
6.481108692
9.029779158
11.54374221
7.939164835
9.505552455
7.486540638
3.761181122
7.010165995
4.816491152
6.888167322
6.57683926
5.372169339
4.533850742
8.391646579
11.33944651
13.22112926
11.5722832
7.664526941
6.888675428
8.802339327
8.263088873
10.59391471
10.38784938
9.764539774
5.820096965
6.540257499
9.579754623
9.560109797
5.551853201
5.804075232
6.922244688
6.277979624
14.12375421
6.435649912
10.03929534
6.698564325
6.19007484
3.551652683
7.230760566
7.254727957
6.231774302
7.418241934
8.169338541
7.812870181
8.804149101
6.792625943
7.761077768
9.470076189
10.16901491
5.962130535
10.86726365
6.954022657
5.068089983
5.886898246
3.570534163
5.121613376
16.27468385
9.393133437
6.87334818
6.911554757
9.800382435
1.909212806
6.929410577
15.25002125
13.22059358
11.78912125
9.61658114
6.581917286
12.02769689
10.44558202
11.90477212
2.691244543
7.67560674
6.499522376
3.826168725
13.35321917
7.927302953
10.72231416
6.325929794
9.90514614
13.27451388
13.70647743
11.37003735
7.823452271
12.27821304
4.743957256
7.61668157
9.693650262
10.42027922
8.641873299
4.635189737
16.61597129
10.20580712
3.668406784
7.410396672
3.854100165
11.06378291
5.510717321
9.18753293
5.222122811
5.344204294
14.05047863
8.460353086
15.24480438
6.357894157
4.146647571
12.79961633
7.38089773
8.478801838
4.651054316
5.405407056
15.04164326
5.598806728
4.994195023
7.674841974
11.45350172
12.74838316
11.21451462
9.987486908
6.616586858
7.581929962
4.794601895
10.95099937
4.141160642
5.133672564
12.39815926
4.118890894
5.223310769
5.589344979
9.855839423
9.421246852
8.840327049
9.373061904
10.25139323
4.788575394
9.046282083
8.745405033
9.984216495
10.90320766
5.211410341
11.19632956
9.984700005
7.03530753
4.885218154
12.66592486
9.391592044
9.626507626
3.636331091
7.872339903
7.616275563
10.34338368
4.596624742
4.997717835
7.222260668
6.472326777
9.128638421
10.57461538
3.94104376
7.403983238
3.895520733
5.380804687
14.73620427
6.766783497
8.401048491
6.18910583
11.54031516
9.438828236
15.25613168
6.857597133
13.21275421
9.279394201
3.292746355
2.390406845
9.703011725
13.33568095
6.1084127
7.425664065
7.728860949
7.499654146
2.733596338
7.297315884
9.722002144
7.672708141
11.31520937
11.13489425
3.850782022
6.738209408
7.703153862
5.460704601
7.126455022
15.81631007
10.03869203
4.939285543
5.922446564
6.192041972
0
10.4600199
3.256528173
8.455572251
3.269767547
7.226603874
18.53482402
14.73156067
7.036109635
7.509484308
5.959867101
4.958400497
11.9275789
4.553745994
8.151969911
6.566015895
10.06571914
10.42762877
8.881363718
3.074081328
5.50816094
9.86090345
8.76269881
13.37421724
8.472597557
8.307984217
8.752229813
11.99425118
8.083673137
11.46217582
13.9659304
4.946326791
6.155893367
11.82340522
5.153804125
6.660079694
10.16404486
4.636322135
8.033787409
11.98038346
9.148433137
7.00908478
6.474042624
11.54343045
3.57000794
7.688315649
10.2700605
10.21080667
6.790869214
12.42480407
11.70151185
9.11833807
8.307628687
5.139211706
3.56214456
5.428014749
10.40806726
7.248430713
4.706382637
2.804053113
7.884603222
16.84844589
10.16052533
11.07652646
8.011604041
6.547630563
10.83025151
5.921219138
8.318207704
5.395309352
5.96857639
7.163424904
7.339699339
8.444719964
5.25500804
4.50544308
7.439606546
11.45135262
11.0224531
9.725289407
4.660755086
12.84501653
7.373200421
6.028749727
8.063310431
7.905010653
6.861192482
3.573537059
5.622252732
6.11774857
2.810670221
9.314132873
10.35396749
12.01464375
7.184587346
12.68480973
10.40460438
6.342291038
8.279571627
11.50680906
6.213078513
9.731094528
1.029583346
9.645249211
9.854270041
10.09411227
9.279846777
6.344727198
5.77144906
11.44781196
10.84463046
8.25446103
6.406307917
5.427960624
5.754281224
9.34510475
7.166834268
2.892416045
4.917460997
9.257269044
7.767911776
5.725966952
11.95838095
16.13830112
10.53123926
6.461484424
9.640982902
5.543643979
4.546032631
13.29774857
7.792116657
6.293860616
4.788177167
4.297881856
6.579150917
8.926415373
2.976694713
7.098499597
10.44491634
7.988125081
6.756051118
4.362172432
11.62095034
8.353207431
5.45436066
10.39562544
5.372245978
9.485887158
5.064531896
4.727541884
4.194724819
6.443800474
6.474472367
7.454083495
5.83307055
13.00503788
6.663528015
6.725096741
4.642594391
7.739791376
6.887932172
8.932072655
9.67866169
5.424786023
8.255456294
8.011191909
4.195901003
6.454758689
8.308024206
5.966650249
5.408351913
9.29806289
7.704434239
2.097721632
6.691331133
7.320204498
13.61089518
6.006838573
9.270797093
5.608391463
8.211663659
7.11431578
5.143758055
10.23757929
3.296037388
9.567428688
5.258574442
)
;

boundaryField
{
    flow
    {
        type            zeroGradient;
    }
    obstacle
    {
        type            calculated;
        value           nonuniform List<scalar> 0();
    }
    frontAndBack
    {
        type            empty;
    }
    procBoundary3to1
    {
        type            processor;
        value           nonuniform List<scalar> 
36
(
14.84587458
21.09900836
13.07567547
15.1888551
11.77548367
11.77548367
13.87037099
14.06789369
20.57794079
17.32518588
18.99169093
10.62160719
10.62160719
16.15333074
10.80552369
9.62724734
12.12582448
17.15683589
17.15683589
11.40387611
9.694670156
5.11642863
4.016670087
8.043354981
9.626994499
9.626994499
9.490310753
6.041603534
6.662518647
10.42219425
8.673542221
2.586708614
13.50060563
13.50060563
11.98082794
11.98082794
)
;
    }
    procBoundary3to2
    {
        type            processor;
        value           nonuniform List<scalar> 
19
(
11.04796166
4.93571574
4.712044436
5.331045732
8.295661405
11.5549049
8.982496654
7.954913298
7.46910546
7.895233392
8.689251318
10.62805637
6.294692569
9.582237653
5.941688435
9.823804427
4.993416574
9.004679701
7.426513286
)
;
    }
}


// ************************************************************************* //
