/*--------------------------------*- C++ -*----------------------------------*\
| =========                 |                                                 |
| \\      /  F ield         | OpenFOAM: The Open Source CFD Toolbox           |
|  \\    /   O peration     | Version:  2406                                  |
|   \\  /    A nd           | Website:  www.openfoam.com                      |
|    \\/     M anipulation  |                                                 |
\*---------------------------------------------------------------------------*/
FoamFile
{
    version     2.0;
    format      ascii;
    arch        "LSB;label=32;scalar=64";
    class       volVectorField;
    location    "0.011";
    object      momentum;
}
// * * * * * * * * * * * * * * * * * * * * * * * * * * * * * * * * * * * * * //

dimensions      [1 -2 -1 0 0 0 0];

internalField   nonuniform List<vector> 
654
(
(0.01913434338 0.004392186579 0.001158916015)
(0.01446072761 0.006639847943 0.001554901989)
(0.02070890505 0.00750771332 0.0008919119449)
(0.009212595515 0.001451353331 0.000156382493)
(0.009226251301 0.003155712911 -0.002268607498)
(0.0219830419 0.0100281246 0.001388971006)
(0.01613229967 0.001334492478 0.0006289565082)
(0.01977227509 0.0033781619 -0.001813586092)
(0.01567529174 0.003064011615 -0.0006343780842)
(0.01712835511 0.004909661484 0.0007686299577)
(0.01576410412 0.004930618812 -0.0003576714961)
(0.01391358315 0.006837386502 0.0002969419622)
(0.01604550306 0.004456548434 0.001622447812)
(0.01671599534 0.005776606842 -0.001860074818)
(0.01285001281 0.008914858124 0.0004109076058)
(0.0179167646 0.006467916703 0.001443161175)
(0.01236124423 0.003842653855 0.000382695272)
(0.006876083472 -0.0001008436894 -0.0008717091892)
(0.01601487322 0.004222540235 -0.0003421915977)
(0.008502230526 8.137626e-05 -0.001444027835)
(0.006374746154 0.0001852284985 0.00061033462)
(0.02013508686 0.004077182354 -0.002567417194)
(0.01611037327 0.003914968668 -0.0004210406741)
(0.01376156352 0.004291620934 -0.0001840925085)
(0.0186826074 0.004864858902 7.379930136e-05)
(0.01045210446 0.003153353965 -5.316546718e-05)
(0.01521764508 0.004098963071 -0.001644277621)
(0.01004420574 0.00499898466 0.002152518291)
(0.01833249621 0.006503036267 -0.0003818850253)
(0.0127906848 0.005355962892 -0.0006571926103)
(0.01668822127 0.005179174089 -0.002121511847)
(0.02008322002 0.004100692369 -0.0001581260193)
(0.009968529709 0.004147542253 -0.0002189321138)
(0.00886854747 -0.0004673609894 0.0004010385957)
(0.006809670031 0.0006020215512 -0.001083589418)
(0.007062375006 0.000443270029 -0.0003824495298)
(0.004786931383 0.0004260401763 -2.108899433e-05)
(0.006708015519 0.001997214348 -2.663457821e-05)
(0.01320256036 0.001851436643 -5.913881778e-05)
(0.003734758226 0.00194189073 8.35571202e-05)
(0.009211450392 0.001663996143 -0.001291956539)
(0.01439856704 0.003106336652 0.001678328287)
(0.008916068783 0.001586575828 0.0003162068282)
(0.01257648137 0.0001837507885 0.0004204966498)
(0.007360729508 0.0007996402107 0.0006764958125)
(0.01497087653 0.0008341000253 0.0006582666883)
(0.01003392769 0.001106599443 -0.0002937288499)
(0.0110633503 0.002378847902 0.0008610496721)
(0.02092888686 0.006316415659 -0.0008258588966)
(0.02083154882 0.006343268261 0.0006605706071)
(0.01718841095 0.004863463504 0.001509183684)
(0.01104508245 0.005200132838 -0.0003415707396)
(0.01933542754 0.005486551322 -0.001225284022)
(0.01547214792 0.005793845636 0.0003143676738)
(0.01586284987 0.004302456107 -0.001015044498)
(0.005049793281 -0.0002951243955 3.518961664e-05)
(0.004134881017 0.0001068550094 -0.0005329081913)
(0.01280689323 -9.987053157e-05 -0.0002103561339)
(0.003419292147 -9.500078674e-06 0.0004133438175)
(0.005214973829 -0.0001320378431 -0.0003873426446)
(0.01338650623 -0.0002994899627 0.0001501909512)
(0.01238255772 -0.0006824739464 0.001192963803)
(0.01351288105 0.001008820979 -1.227869195e-06)
(0.004284220338 0.0008329353803 0.0004045514929)
(0.01185424866 0.0008434960351 -0.0003733672631)
(0.0140485154 0.002016187015 0.0002151570706)
(0.01016346839 0.0003707086009 -0.0004199241387)
(0.01354083181 0.001399495327 0.000779931289)
(0.01004425042 0.001540444464 -0.001943733571)
(0.01091283732 0.0009125248503 -0.000376740941)
(0.01154909955 0.00172849642 0.0003164714141)
(0.0149432957 0.003186130014 -0.00055237784)
(0.01051320951 0.002873858454 0.0004569073199)
(0.01579865943 0.002352981036 -0.0004706076766)
(0.01278934589 0.002882346153 -0.0004190641675)
(0.01367982983 0.00508508121 0.0007733527035)
(0.01713727773 0.003980599718 0.0005336596726)
(0.01336407501 0.004395033066 -0.00123464156)
(0.01217363665 0.003166462744 -0.00038483744)
(0.01077549402 0.006040122672 0.001608926707)
(0.01603093849 0.004053666555 -0.0005107338338)
(0.01091090486 0.00388797064 0.0002826835175)
(0.01073167081 0.002478108808 -0.0005124726148)
(0.01724571521 0.005072239435 0.0008007675563)
(0.00595747573 -3.868431074e-05 -9.488423157e-05)
(0.00862212909 -0.0007394652014 0.0003432197542)
(0.009421579768 0.0002547012812 -0.000331713288)
(0.005184428932 -0.000398662313 0.000417084079)
(0.005283524758 6.391685538e-06 -9.326367062e-05)
(0.007570290608 0.0007161323971 0.000309823343)
(0.009750474033 0.0007169668813 0.000164442103)
(0.007284893669 0.0007728184454 0.0004586240776)
(0.01105834255 0.001121624028 -0.0003828083824)
(0.004427399857 0.0007840720685 0.0001537877977)
(0.004281731881 0.0001569780183 -0.0005249360767)
(0.00539116066 6.792233607e-05 -0.0004439599221)
(0.01147456376 0.0007322889317 -0.001118965066)
(0.008754037065 0.000439351139 0.0004283701153)
(0.01378915871 0.0004520212504 0.0003223620235)
(0.0194879341 0.001044583144 0.0004632787795)
(0.009388865863 0.0005560331316 0.0004544309295)
(0.009203536842 0.0002190588491 0.000872133156)
(0.009937624999 0.001946597407 0.0003098352005)
(0.0122675335 0.004561259547 0.0003034985452)
(0.00868644807 0.000930909607 7.686679322e-05)
(0.01434292026 0.001078542127 -0.0006195320248)
(0.00880051938 0.001463270968 0.0008260400858)
(0.01492834413 0.004359900448 -0.0002927614892)
(0.0109754803 0.001934794925 -0.001306233521)
(0.01626667632 0.005775005038 0.000776244399)
(0.01723145364 0.007924443694 0.001188201231)
(0.01194746551 0.002542390207 0.0003270097098)
(0.01800161127 0.009458625352 0.003442443547)
(0.01299687016 0.004500101488 -0.000126659726)
(0.01135402159 -0.0006311597654 0.0005139723911)
(0.009727865522 0.0007893219212 4.769096037e-05)
(0.008853056022 0.0004907740936 -0.0001988319593)
(0.01471212583 0.0002846970534 -0.0002453406302)
(0.00607612864 0.0008760580867 -0.0002526830356)
(0.005708333619 -0.0005906983809 0.0001552891939)
(0.008068474172 -0.0001846590342 0.0002989662333)
(0.01004128307 -0.0005387460778 -0.0004889389371)
(0.007355251311 0.0007555455192 0.0009771788703)
(0.008623247508 0.0003224342477 -0.0006017904936)
(0.01109967245 0.0001964834789 3.975242226e-05)
(0.01288782866 -3.422706936e-06 0.001018487063)
(0.004241133993 -0.0001009720495 0.000124469864)
(0.01110773402 0.0009739543819 -1.140253461e-05)
(0.0101089811 0.0009852984775 -0.0006553305691)
(0.01178536133 -0.0001194444611 -0.0007523861571)
(0.01418247547 0.002948783507 -0.0002261644571)
(0.009734463362 0.0001820424451 -0.0008546338152)
(0.01122603735 0.001022483529 -0.0008318120085)
(0.01750375978 0.002931023735 -0.002317288281)
(0.006693432317 0.001317561182 -0.000417125089)
(0.01177711589 0.002060582849 -0.001112554457)
(0.01034034767 0.001897104553 -0.0001534207998)
(0.01112074155 0.001740515005 -0.0003387639235)
(0.01468820033 0.004249263147 0.0002710453271)
(0.01216241375 0.004698946794 0.0008663843361)
(0.009774053674 0.004732438515 -0.000527541221)
(0.01337913061 0.00274293833 -0.001795841786)
(0.01007112824 0.003084657401 -0.001629732665)
(0.02082783228 0.00600756605 -0.001717465777)
(0.008722424899 0.0002803990963 -0.0005305303534)
(0.006552733579 -7.272200926e-05 0.0001293991647)
(0.006138063338 -9.926331647e-05 -0.0001665513706)
(0.006756054424 -0.0002597053899 6.764375419e-05)
(0.007807697422 0.0005017654884 3.53532516e-05)
(0.004347189367 -0.0005389743021 0.0007556801532)
(0.01173907157 0.001145435275 0.000126536466)
(0.009752375155 0.001328989889 0.0004176937637)
(0.008595216631 0.001089204158 0.0001473194484)
(0.005400546471 0.0006957474554 0.0004473975615)
(0.006122074863 -0.0005953572475 0.0006898571139)
(0.006223230859 0.0002720280021 -0.001043019041)
(0.007907288888 0.0004154931679 0.0003077112906)
(0.01049984579 0.000638249879 0.001353900266)
(0.01326238384 0.001874019095 -0.0002553801574)
(0.01024728286 0.001244840076 -0.0005501116448)
(0.007280128554 0.0001739821941 -0.0005897020717)
(0.01226764155 0.0006337786884 -0.0001386727851)
(0.008154591367 0.0009663330095 -0.000289373841)
(0.00924222092 0.0009676642508 0.0002788807191)
(0.005857691426 0.000215849353 0.0003954595054)
(0.0105330624 0.002126147523 -0.0005937727613)
(0.01921753352 0.002159060437 0.0003996873959)
(0.01528792938 0.001672509076 -0.00123807613)
(0.01132085825 0.002375823709 0.0005672444717)
(0.006751254373 0.002074923718 -0.0005823447235)
(0.01320990324 0.002988902925 0.0005756207174)
(0.0131921321 0.004401461767 -7.453728522e-05)
(0.01251556647 0.005765797474 0.001898324117)
(0.01578960311 0.004048071982 -0.0002312421056)
(0.005034571814 -0.0006466247424 -0.0008299238619)
(0.006894123351 -0.0001194105728 0.0003039293235)
(0.007756837782 0.0001662107144 -0.0008225283623)
(0.006362797768 0.0002349731729 0.0004002799642)
(0.01331945741 0.0006519170829 -0.0006825929286)
(0.009769540575 -0.0002448027226 -4.327344186e-05)
(0.01252568387 0.0006077927178 -0.0003120098637)
(0.008603855195 0.0003672079678 -0.0005438570811)
(0.006247818364 0.0001418967713 0.0009548142062)
(0.009878223003 0.0002856632559 -0.0002024819397)
(0.006340749034 1.091972258e-05 -0.0005556288278)
(0.0124135527 0.0008082304793 0.0003377584968)
(0.007507460402 9.183082346e-05 0.0003559626968)
(0.006711776296 -9.447743129e-06 -0.0008256029259)
(0.009569562825 0.001448679316 -0.0004950324101)
(0.008741607914 0.0007715420922 0.0001896262873)
(0.009305845812 0.002289875973 0.000471407964)
(0.008791963126 0.0003447833929 -0.0003626666003)
(0.005914137179 0.00176943709 -0.0006454709917)
(0.01235338473 0.0001701100828 -0.001037337838)
(0.006550897628 0.002203599666 0.0001815392338)
(0.01245042775 0.002164651186 -0.0003363470263)
(0.00732844893 1.252257161e-05 0.0003079770243)
(0.01219761906 0.001635138651 -0.0006851520464)
(0.01426479105 0.001495472721 0.0007119323181)
(0.01275627869 0.0009791016717 -0.0003982025087)
(0.008570946071 0.001667352748 0.0007078987006)
(0.01058761818 0.002808130494 0.0006354019914)
(0.02018597787 0.005747779133 0.0004329033681)
(0.01569961295 0.004831530425 0.0003293035219)
(0.008058993509 0.0003463496065 -0.0008853678178)
(0.00538432506 8.267487696e-06 0.0006078187451)
(0.004397270801 0.0001007959993 -5.917732549e-05)
(0.008748506722 0.000472382786 0.0009256584976)
(0.008022378911 -0.00015409155 -0.0003885045672)
(0.009020076451 -0.0005062948559 -7.638883908e-05)
(0.01300613827 -0.0005550886532 0.001131750106)
(0.006093619077 0.0003469471271 7.732605536e-05)
(0.00909448815 0.0002199287045 -0.0001647550008)
(0.007636966645 -0.0002148666581 -0.0005357955875)
(0.01106276862 -5.485402356e-05 0.001098374447)
(0.006848925441 0.0004410401433 0.0005226437242)
(0.01139689719 -0.0002784309565 0.0003684399255)
(0.009469359539 -6.684037611e-05 -0.0001882838596)
(0.007701570444 0.0001057801791 0.000243708402)
(0.008998850324 -0.0004153122916 2.166449196e-05)
(0.008001017847 -0.0001415928374 0.0002034625294)
(0.006746303895 -0.0005752042357 -0.000222598514)
(0.01294892234 -5.923737222e-05 -0.001130884087)
(0.003561159332 0.001539310229 -0.0001423294819)
(0.002903664825 0.0009170844103 -0.0006692279417)
(0.008314609893 0.001378538707 -0.001372190914)
(0.009756513747 0.002172742371 0.0001505795487)
(0.01134323633 0.002903426451 -0.001461764348)
(0.006659254456 0.001834159473 0.0006569865778)
(0.01432762885 0.001453989102 0.001233579763)
(0.01605290825 0.003037364222 -0.0009699458811)
(0.007463311773 0.001293707199 -0.0003305436547)
(0.00702523945 0.001453042304 0.0005830950677)
(0.008646085711 0.003028208932 -0.000439841679)
(0.004460343388 -0.0007461436945 -0.001216391032)
(0.008630234738 -0.0004080134555 -0.0003835768779)
(0.009000975045 -0.0003918495426 0.0007583318751)
(0.008802511353 -0.000242119418 0.0004934858824)
(0.01025435163 -8.22918501e-05 -0.0006404451045)
(0.01188735135 -0.0002162397274 -3.834938195e-05)
(0.004343286901 -2.248571028e-05 1.153360388e-05)
(0.003916150617 -0.0003990353352 -0.000442515871)
(0.009933198156 0.0004360660061 -0.0002332992785)
(0.005014917297 0.0007547750282 0.0001490482934)
(0.01346791968 -0.0004594969994 0.0005236577265)
(0.00751281252 0.0001870268933 0.0004205165079)
(0.01286374135 -0.0004613629106 -0.001171876033)
(0.003433348979 0.0001081383573 0.0004143259769)
(0.01089466614 -0.0001697318592 -0.000839241912)
(0.01046305792 0.001130178594 0.0003543541033)
(0.009618831329 -0.0001396238751 -0.0003015937231)
(0.00546928478 0.0009968425797 -0.0002338721725)
(0.006181565041 0.0001111455 -0.0006402305437)
(0.01071034134 0.001083744057 -0.001008652423)
(0.01238526577 0.000348581952 -0.0008033727504)
(0.01031240458 0.0006047180058 -0.0007876470059)
(0.004562111608 0.0006551878843 -1.490332178e-05)
(0.009800768441 -3.736520487e-05 -0.0009377526957)
(0.007688622673 0.001008928945 0.0005133898039)
(0.0127485466 0.002318907739 0.00178756884)
(0.01779160709 0.003162731898 -0.0004680080141)
(0.01538682002 0.0013795832 -0.001372321218)
(0.01367951566 0.003679671408 -0.0006097245616)
(0.008407687466 0.004273457978 -0.0001604942154)
(0.007799087393 0.0005132561036 -5.293954031e-05)
(0.007704919583 0.0001831520517 0.0002688268897)
(0.007351215581 0.0008230944869 -3.72012146e-05)
(0.01137246582 -0.0004221878882 -0.0005009844137)
(0.01114563527 0.0007337748613 -0.0002966211783)
(0.01247614899 0.0003611430048 0.0001365268407)
(0.01045186077 -0.0004139617005 0.0006048849323)
(0.006882749435 -6.639604441e-05 0.0003177824075)
(0.007097899168 -0.0001824587933 -8.961690484e-05)
(0.008837814843 -0.0001617360782 0.0005852527824)
(0.01182865405 -0.0001411238913 -0.0006474900298)
(0.008142896892 0.0006468916587 -0.000377275494)
(0.009070076293 -0.0001701026906 0.001296738067)
(0.007372425108 0.0005340198203 0.0004569463464)
(0.004160716128 0.0003286324443 0.0003831607304)
(0.007370377111 0.0001379393686 0.0005860224055)
(0.004788468559 0.0006250312475 0.0002751129032)
(0.007385949847 -0.0009215864603 0.000573177194)
(0.007095984863 -0.001237557398 0.0008680101098)
(0.006005385935 0.0007260341831 -0.0006354611481)
(0.004552473678 -0.000739393227 0.0001531628924)
(0.008899575 0.000577961752 0.0007361457598)
(0.01119913966 -0.0001077098917 1.223965692e-05)
(0.01298349566 0.001257570414 0.0008328734689)
(0.01248752657 0.001277381272 0.000181038262)
(0.008915353265 0.001324665222 0.0003332357769)
(0.007308075043 0.001017092756 0.00104452863)
(0.009220653504 0.0002956830709 -0.0002944124993)
(0.007982344826 0.0006164092355 0.0002226327985)
(0.009048770403 0.004520501674 -0.0009102600884)
(0.01106122001 0.0002220540528 -0.0004011784418)
(0.009752349698 -0.0001212905242 0.0002162242877)
(0.00664414997 -0.0001885931839 -0.0003722117883)
(0.006940277132 2.133530756e-05 0.0004072518839)
(0.01023869217 -0.0002467600274 -0.0004469450443)
(0.01018406728 -0.000983986843 0.000210446144)
(0.005789872478 0.0004583862173 -8.226758664e-05)
(0.006838437587 0.0001705218923 -0.0005297161103)
(0.007429243396 0.0008144003674 0.001227766566)
(0.006880975378 0.0002524958775 0.0004138850514)
(0.01447509925 0.001413476682 -0.0006455306622)
(0.00688410759 -0.0001176245966 0.0007322689081)
(0.01119223154 0.0004362305284 0.0007357625768)
(0.006016835109 -0.0002738550878 -3.992444543e-05)
(0.006337135783 8.772390718e-05 0.0006688852699)
(0.003969419275 -0.0005687487983 0.0001568887088)
(0.008102209926 0.0003801167873 0.0009920747322)
(0.007545779625 -0.0001553935555 5.587813484e-06)
(0.006443500597 0.0007021780682 7.773463951e-05)
(0.00770061086 4.92396031e-05 -0.0001907619904)
(0.008812995871 0.0001299824263 -0.00022440614)
(0.008092315362 -0.0005671143663 0.0007859417182)
(0.008978827613 0.0001435939664 -0.0008839349582)
(0.007128832522 0.0004015540768 0.0003581818724)
(0.008108250825 2.437923071e-06 -0.000684216127)
(0.009876141507 0.00137154939 -0.0004384373608)
(0.01001792684 0.000169866986 0.0003798055602)
(0.006657936333 0.001181577996 -0.00025747099)
(0.01094371473 0.002546821533 0.0001754363536)
(0.008058006786 0.00103328548 0.0002084782356)
(0.005943119002 0.0005732701624 0.0003081328607)
(0.006942781484 -0.0001042427341 0.0003794553533)
(0.004289014668 -0.0003959712822 0.0002067427003)
(0.00570527528 -2.310611598e-05 0.0001854858955)
(0.01741286042 0.0007032064219 0.0006071989867)
(0.00928850789 0.0007293789854 0.0008752668009)
(0.006625251637 0.0008371748078 -3.233807477e-05)
(0.007489627503 -0.0006777031517 0.0003407932619)
(0.01064434491 0.001284928905 -0.0004885892547)
(0.002316430539 -0.0006786826559 -0.0005658747845)
(0.007595447444 0.0004765985331 -0.0002655181167)
(0.01439025522 -3.34006565e-05 0.0005239650409)
(0.01325211258 6.510906223e-05 0.0003758816699)
(0.0120197307 -0.0002096247325 0.0002399681445)
(0.01097433755 0.0008650125859 3.878915502e-05)
(0.007549436766 -0.0003793088767 8.296733882e-06)
(0.01179245025 0.0006073920988 -0.0005022432172)
(0.01140380598 -0.0002756340281 0.0002755626986)
(0.01156963475 -0.001040881597 0.0003409204938)
(0.003101172948 0.0004450650986 -0.0002848149458)
(0.007848083168 -0.0007672523619 -0.0008465676762)
(0.007408997376 -8.922105064e-05 0.0005532222235)
(0.00399811602 0.0010342979 -0.0005421771139)
(0.01456234163 -0.001230960059 0.0005707409605)
(0.007492139658 0.001089328295 0.0007918546394)
(0.01143355232 0.001878982545 0.0001958427512)
(0.005732073081 0.0009058550502 0.00010514613)
(0.01000041498 0.0008991344342 -0.0005355734286)
(0.013636039 -2.122007498e-05 -0.0001016814156)
(0.01405652884 0.001236219748 -0.0009608160434)
(0.0122672095 -0.0002176615035 0.001081281819)
(0.007929341717 -8.855001445e-05 0.000189192239)
(0.01365189338 -0.0001558051026 0.0004120427054)
(0.005393145254 -0.0002318199483 0.0004615206522)
(0.007673605027 0.0001008001769 -0.0004208077071)
(0.009892228374 -0.0004899869132 -0.0004172297737)
(0.01031208574 0.0003757373823 0.0002310155274)
(0.009505457122 0.0002378487726 -0.0001701505495)
(0.005504710801 -0.0004676785075 -0.0002129548393)
(0.01668201897 0.0001148263168 4.132200573e-06)
(0.01003888677 -0.0006058348604 -0.0007716833324)
(0.003903383954 0.0004107796706 0.0004240194967)
(0.008301831416 -0.0007141450896 0.0005538776303)
(0.004099005044 0.000183279291 -0.0006058737667)
(0.01200949759 0.0007219105796 -0.00068498916)
(0.005572397339 0.0007126596336 -5.003756135e-06)
(0.008899573394 0.0006789225643 0.000379597851)
(0.00537459644 -0.000734730014 0.000329968135)
(0.005711789341 0.0004006284344 0.0003763205742)
(0.01509832858 0.0001461519684 -0.002342288819)
(0.008602139581 0.0002128770754 0.001277440089)
(0.01549515927 -5.268562954e-05 -0.0004729076435)
(0.006759764447 -0.000269296144 0.0003223950339)
(0.004549326607 1.189717872e-05 -0.0002269287442)
(0.01368862569 0.0001947447757 -0.000334332579)
(0.007627239155 0.001005171012 0.0004784376151)
(0.0095023225 0.0009858212511 -0.0003752264614)
(0.004726136606 0.0001103849146 -0.0007540527858)
(0.005750131504 0.0006350076666 -0.0002530093734)
(0.0142376007 0.002617019614 -0.0001956317823)
(0.006177371879 0.0001408313989 -0.0007523890263)
(0.005832359558 6.164383182e-05 -0.0001271786922)
(0.0086818026 0.000521894612 -0.0001197016438)
(0.01180652852 -0.0002892244029 -0.0002452091425)
(0.01407489918 -0.0007813885814 -0.001096931616)
(0.01158361672 -0.0006831565689 -0.000289456571)
(0.01033435815 0.0001972630188 0.0008469146017)
(0.00708015901 0.0002821037059 -0.000216361629)
(0.008144682564 -0.0008439067973 0.0004080751905)
(0.005452233873 0.0004098541077 -0.0007051912809)
(0.01170629219 6.269291311e-05 -2.669540109e-06)
(0.004797486923 -0.000384069603 0.0007693132378)
(0.005461697137 -0.0001131722984 -0.0002301851858)
(0.01301585726 0.0001660422574 0.001054428721)
(0.004679221008 -0.0003624136924 3.482304244e-05)
(0.00589438133 0.0001399247175 0.0001981409666)
(0.006156928116 -0.0002375146173 -0.0001537803424)
(0.009975066857 -0.0001063524219 0.0002254451238)
(0.01031728188 0.0006880763938 -0.0002285028492)
(0.009809594118 -0.0001314779018 -7.006080485e-05)
(0.009625454115 -0.0006794599413 0.0001635548265)
(0.01156851229 -0.0004226802152 -0.0002868826066)
(0.004566943085 0.0007729588948 -0.0004774339392)
(0.009699851019 -0.0002036205552 -4.493898344e-06)
(0.009620394155 0.0009368239954 -0.0004409480207)
(0.01012481366 0.002206740378 0.0003816409523)
(0.01130695399 -0.0003855393121 -0.0001133245038)
(0.005037417224 -0.0003033381839 -3.843441435e-05)
(0.01147110254 -8.04898287e-05 0.0005184552587)
(0.00984341346 0.000395280324 -9.284965915e-05)
(0.007880837526 -0.0002359364213 -0.000436800978)
(0.0057828625 -0.0008630728693 -0.0004945092792)
(0.01266167972 -0.0008473545731 -0.000709248306)
(0.01018353294 0.00125597688 -0.0005252579599)
(0.0100071533 0.0007780129547 -0.0004426542973)
(0.004296651608 -0.0004426587679 -0.000262312863)
(0.008111090817 -5.915815065e-05 0.0002326619004)
(0.008448243555 0.0001599336697 -0.0001993294343)
(0.01074629516 0.001247480215 0.0007341416965)
(0.005676271737 6.371159113e-05 -0.000493506222)
(0.00603299804 -0.0003744390921 -0.0003649909335)
(0.007786819742 -4.501775526e-05 0.0003907671703)
(0.007012208222 -0.0001257050154 -0.0003337482374)
(0.009552955803 0.0001733229465 1.75338658e-05)
(0.01184314874 0.0003216454703 0.0001669188736)
(0.004728470454 0.0002232377662 -0.0001761113418)
(0.007741658352 0.0003894688461 0.0006436544775)
(0.004170071537 4.051700677e-05 0.0001305615582)
(0.005884814251 0.0006936872884 -0.0004120594562)
(0.01575731784 0.001351727807 -0.0001332510905)
(0.007061362253 0.0002844926246 0.0001565713688)
(0.008612702345 8.727994421e-06 -0.001336636399)
(0.006640122063 0.0004353781196 0.0003560907296)
(0.01219433012 -4.767359172e-05 0.0007635496094)
(0.01009612754 0.0002268968826 -0.0003633717027)
(0.0149149287 0.0006829202854 -0.0001292219624)
(0.007059646744 -0.001004600775 0.0002785938258)
(0.01342015325 -2.336061798e-05 -0.0002721309238)
(0.01009804183 0.0002042499249 1.430399935e-07)
(0.003753242844 0.001362501055 0.0005789473409)
(0.002625998111 0.0002268508865 -0.000413661455)
(0.009968963163 0.000680746172 -0.0001357555138)
(0.01440483776 -4.771639414e-05 -0.0006242792591)
(0.006231675911 0.0003574817938 -0.0001054384073)
(0.008251066349 0.0003957675531 0.0002004840188)
(0.009206691067 0.0006602999663 0.0005287747631)
(0.008225661064 0.0001592761864 -0.001024104542)
(0.003374355961 -0.0001651907484 0.0001604721426)
(0.008064712945 2.299124886e-05 4.489559374e-05)
(0.01040372944 0.0001734635694 -2.040815155e-05)
(0.007847633984 0.001138656913 -0.0001368300085)
(0.01251183353 6.928458105e-05 -0.0001328452876)
(0.01205707058 0.0005696550648 0.0007470738754)
(0.003955025179 0.0006123810404 -0.0004675249298)
(0.007736814164 -4.884786379e-05 -9.873832705e-05)
(0.008248943429 -5.62035879e-05 0.0004195595263)
(0.006120273945 0.0003006089932 0.0001106580877)
(0.006902450861 1.095983834e-05 0.0006210995855)
(0.0161905343 0.000192895868 -0.0002228326456)
(0.01125595768 0.0004753237516 4.929742463e-05)
(0.005429866919 0.0002563261025 -0.0005483575668)
(0.006377661476 0.0003083911592 -0.0006867417914)
(0.007113049391 0.000336900372 0.0002964896994)
(0 0 0)
(0.01128335827 -8.87891798e-05 0.0001708671937)
(0.003445060889 0.0005127190311 -4.840695986e-05)
(0.008932792167 -0.0003882043073 0.0005973324174)
(0.003367408701 0.0005385958919 -0.0006119729661)
(0.008185346975 0.0008154396412 -0.001109909903)
(0.02027535235 0.0003740775265 -0.0001580638011)
(0.01587695133 0.0002372313791 8.077494573e-06)
(0.007156719297 0.0005011364996 -0.0002638057176)
(0.00834948278 0.0001436468305 0.0002319489236)
(0.005977973282 0.0003996214044 0.0002476496434)
(0.005095913382 -0.0003994650742 -4.174186073e-05)
(0.01180015252 -0.0004913857445 0.0008835629813)
(0.005377058415 0.0003641367036 0.0005212073365)
(0.008524436672 -0.0007392964667 1.067621291e-05)
(0.006784676412 -9.90267265e-05 0.0004635729029)
(0.01080625747 -0.0002175645383 -0.0004922647129)
(0.01005544966 0.0003339668059 -8.408750702e-06)
(0.009055925815 0.0002923793172 -0.001046178007)
(0.00371871192 0.0002163744963 -0.0002884293256)
(0.005287696181 -9.078565372e-05 -0.0005232684496)
(0.009571793349 -0.0005177201984 -7.424170447e-05)
(0.00976337196 -0.0003909109757 -0.000950107226)
(0.01500967084 0.000454166504 0.0001534538397)
(0.009209482796 0.0001660310996 0.0008657983912)
(0.008919151851 -0.0009710800273 -0.0004423032037)
(0.009451789692 -0.000680087036 0.0007153558874)
(0.0128296009 0.00129935388 -0.0005370054388)
(0.00834452335 0.0009779505278 0.0003995313444)
(0.01163602019 0.0001712368596 0.0006646841852)
(0.01429515134 -0.0003504257874 0.0004737973153)
(0.005609484396 -0.0001013637629 1.616878916e-06)
(0.006932091003 0.000505390805 -0.0002899188712)
(0.01200554444 -0.0006350956395 -0.0001067421154)
(0.005449359726 -0.0001861278382 6.213358012e-05)
(0.006490447698 -0.0006057981797 0.0001072051332)
(0.01067079707 -0.0001264684501 0.0006321319768)
(0.005280322758 0.000296406883 0.0005809468844)
(0.008530473079 -0.0006701558958 -0.0001006578746)
(0.01241541942 0.0004921809922 -0.0002687149406)
(0.00963020539 -0.0001061854531 -0.0007417193704)
(0.007475030395 -0.0005319071236 0.0002665624955)
(0.007364897926 0.0006939904247 0.0005033966396)
(0.01142049762 0.0002881940862 0.0005556636671)
(0.003920008756 0.0002882970719 -9.535360331e-05)
(0.008026163992 -0.0003674235523 -0.0003499304312)
(0.01116866237 0.001459521857 0.0001409746092)
(0.01043823639 0.0007296172598 0.0009035742032)
(0.007467546798 0.000655918544 -0.0007684985597)
(0.01317661537 7.466941333e-05 0.0001608773453)
(0.01214579679 0.001102811986 0.000614093273)
(0.009025163406 -0.001247220322 -0.001280315027)
(0.008776719805 -0.0002322697814 -0.0002077201043)
(0.005928696272 0.0002640385666 0.0005869860844)
(0.003969580518 -0.0001498532712 0.000706630868)
(0.00525789916 -0.0001636238319 -0.0001518300288)
(0.01052625482 5.284118661e-05 0.0002777500001)
(0.007636539561 0.0005064538067 6.152009054e-05)
(0.004132369498 0.0002567210715 -0.0003227260453)
(0.003133891092 4.814200953e-05 0.0001789622645)
(0.008605901196 0.0009091636917 0.0004739737292)
(0.01618764348 0.001306998984 0.001189863363)
(0.01000364591 -0.0004253935366 -1.823421972e-05)
(0.01058000148 0.0009042837499 0.0009653412114)
(0.008522134951 -0.0006070563887 0.0006115243516)
(0.00628217606 -0.0006025518965 -0.0003961233615)
(0.01172313103 3.051835562e-05 -7.660633119e-05)
(0.006015611707 0.0005608000974 0.0001301251146)
(0.008213481751 -0.0005127420346 0.0006490422136)
(0.00570964712 0.0002123718899 0.0005521697149)
(0.00640883635 0.0005174970597 0.0002225142207)
(0.007699983695 -0.0002237395215 0.0001196746881)
(0.008143981615 0.0002346199723 0.0004202062975)
(0.008563955534 1.140557956e-05 -0.0005536373778)
(0.006323882449 -3.813881439e-06 -0.0002258785337)
(0.004423206709 -0.0006137187836 -0.000545865463)
(0.008495545467 4.33378545e-05 -0.0003440334208)
(0.01148736314 0.001070531774 -0.0001835516136)
(0.01123052654 6.091232814e-05 -0.0007926061755)
(0.009908955217 -0.001467211473 -0.0003959136585)
(0.005045579393 -5.035647597e-05 1.809148617e-05)
(0.01315160178 0.0003003649878 -0.0002769033314)
(0.007958486835 0.0003522733034 3.975746205e-05)
(0.007005523979 -3.834235766e-05 5.645436503e-05)
(0.008661856381 -0.0001379739339 -3.969509811e-06)
(0.008084530821 0.0008268423649 -5.0350736e-05)
(0.007448794123 -3.691963241e-05 -0.0001468496201)
(0.003768876092 0.0009876306366 -6.812059639e-05)
(0.005775382567 -0.0002390195141 -0.0005157874809)
(0.007039044395 -0.0007316800077 8.498298834e-06)
(0.002633066866 -4.742976816e-05 0.0001069188567)
(0.009393046229 -5.398964379e-05 -0.0004659356281)
(0.01122389298 -0.0003700891409 0.0004236800058)
(0.01292160302 0.0005055352537 -0.0002768464181)
(0.007354829299 9.086615943e-05 0.0001971994985)
(0.01303473879 0.0009316154233 0.000524346521)
(0.01101431922 -7.963780842e-05 -0.0006614540465)
(0.006860085336 -0.0005590765577 -0.0005650955718)
(0.009158775923 -0.0003030075559 -0.0008901211464)
(0.01170501318 0.0006549879655 0.0005441631662)
(0.006162161754 5.628640425e-05 -8.346940556e-05)
(0.01005661693 -1.272310942e-05 0.000878264926)
(0.001022004144 -0.0002064770675 0.0001666468208)
(0.009853393341 0.0001510767777 1.071712143e-05)
(0.01005946649 -0.001590706429 -0.0003244380006)
(0.01043469863 0.0008247402938 -0.0006316778316)
(0.00952815456 0.0007561812248 -0.000258986517)
(0.00683023 0.0008907812108 0.0007637823817)
(0.006511115101 -0.0007970446048 -0.0002915852149)
(0.01218523321 3.270333247e-05 -0.0004278911584)
(0.01238684012 0.0001150849149 0.0002420947358)
(0.008961871576 0.0010956055 0.0003488557835)
(0.006704901437 -6.450930596e-05 -0.000289288586)
(0.006046278355 0.0002714142896 -0.0001679883182)
(0.006607253626 -0.0001748342768 -0.0003753495059)
(0.0109767982 0.000449657145 -0.0001988388159)
(0.007486641701 -0.001123177973 -0.0001840128623)
(0.003161489221 1.440794497e-05 -0.0001751848046)
(0.005699728044 0.0002524992643 0.0001600091053)
(0.008801974531 7.787991023e-05 -0.000952538448)
(0.008080724443 -0.0008434241005 -0.0005784753616)
(0.005976259156 0.0006536262682 -0.0001935866786)
(0.01211276955 0.0005048944788 0.0002107391151)
(0.01607557669 -0.0005640756451 0.0005485413376)
(0.01154203872 -0.0005386073012 0.000401892575)
(0.006980297199 0.0008445694068 0.0002788725425)
(0.009890467458 -0.000270673357 0.0007669630891)
(0.006262774391 0.000181264447 -0.0007202226839)
(0.004378903705 -0.00020878775 -0.0005084210891)
(0.01420967726 -0.0002740322447 -0.0005871913711)
(0.008050130768 -3.848653507e-05 -0.0004328833583)