/*--------------------------------*- C++ -*----------------------------------*\
| =========                 |                                                 |
| \\      /  F ield         | OpenFOAM: The Open Source CFD Toolbox           |
|  \\    /   O peration     | Version:  2406                                  |
|   \\  /    A nd           | Website:  www.openfoam.com                      |
|    \\/     M anipulation  |                                                 |
\*---------------------------------------------------------------------------*/
FoamFile
{
    version     2.0;
    format      ascii;
    arch        "LSB;label=32;scalar=64";
    class       volVectorField;
    location    "0.011";
    object      momentumMean;
}
// * * * * * * * * * * * * * * * * * * * * * * * * * * * * * * * * * * * * * //

dimensions      [1 -2 -1 0 0 0 0];

internalField   nonuniform List<vector> 
654
(
(0.01529588463 0.004849576365 9.220852846e-06)
(0.01579297008 0.005141260338 -1.280933497e-05)
(0.01593571161 0.005217583188 -5.338964425e-06)
(0.01585756028 0.005151153423 -1.014293663e-05)
(0.01583250348 0.005077560742 1.942872055e-06)
(0.01584692814 0.00505947425 -1.730150553e-05)
(0.01356726696 0.003615445714 1.902201223e-05)
(0.01403441597 0.003872469368 6.343393341e-07)
(0.0145945168 0.004238585372 -3.464791048e-05)
(0.01496442533 0.004476727581 -5.145457293e-05)
(0.01534363889 0.004775146595 -1.212346686e-05)
(0.01567127288 0.004980480714 -4.070623923e-05)
(0.01583964836 0.005022743719 -3.672282189e-05)
(0.0159320022 0.005122591523 -2.269311063e-05)
(0.01611766681 0.005238408075 -1.964100789e-05)
(0.01608992953 0.005173710782 1.238836776e-06)
(0.01599774557 0.005095191612 2.931957519e-05)
(0.01058621892 0.001613029095 -8.399192295e-07)
(0.01105105236 0.00189037471 -1.479388008e-05)
(0.01140420932 0.002167341314 6.173500972e-06)
(0.01187107386 0.002462500721 -3.426772291e-05)
(0.01237673781 0.002786642203 -2.481484286e-05)
(0.01292649482 0.003135948536 -3.185430991e-05)
(0.01345233691 0.003445087941 -1.648382726e-05)
(0.01383690306 0.003729708014 -4.667974876e-05)
(0.01439281066 0.004087688461 -5.842398364e-05)
(0.01485781259 0.004353353511 -1.852136714e-05)
(0.01525842864 0.004650179914 -2.584689359e-06)
(0.01560049407 0.004919921139 -1.927147495e-05)
(0.01577582624 0.004983463074 -1.826483567e-05)
(0.01594700579 0.005039432977 -2.17544758e-05)
(0.01609469497 0.005157603112 -4.694359684e-05)
(0.01612342961 0.005116092092 -1.887807793e-05)
(0.008870881324 0.0004387684672 2.142596258e-06)
(0.009004866054 0.0005124751409 -2.615808609e-06)
(0.009053815576 0.0006255854939 8.77583637e-06)
(0.009261678435 0.0007437476397 3.160597996e-05)
(0.009498263434 0.0008987632136 2.400725056e-05)
(0.009750386347 0.001055842792 -1.344100781e-05)
(0.009997003906 0.001213115896 -1.224110413e-05)
(0.01034938771 0.001465967796 -1.865243288e-05)
(0.01080841742 0.001721739332 -2.339791664e-05)
(0.01123773577 0.002020769952 -1.977707643e-05)
(0.01171252361 0.002305722686 -4.526129191e-05)
(0.01214657421 0.002592173969 -1.193866147e-05)
(0.01265352379 0.002949315634 -1.523658224e-05)
(0.01318072778 0.003261229381 1.79234736e-05)
(0.01362820676 0.003572592522 -4.459856319e-06)
(0.01416282682 0.003916352083 -2.341511466e-05)
(0.01464017242 0.004226978751 -3.300165646e-05)
(0.0151037949 0.004557981215 -2.685792911e-05)
(0.01554730442 0.004764898298 2.189389468e-05)
(0.01582424696 0.004944084579 1.861886022e-05)
(0.01598883378 0.00504744081 -1.026029164e-05)
(0.01618271564 0.005079037621 -7.322980426e-06)
(0.008430073512 8.427834585e-05 1.042339738e-05)
(0.00843828687 0.0001037854581 1.383970043e-05)
(0.008459453487 0.0001325630343 1.547675794e-05)
(0.008520545489 0.0001601413456 8.982464635e-06)
(0.00859459596 0.0002032287593 4.219143522e-06)
(0.008628979407 0.0002359625824 9.883170169e-06)
(0.008678394951 0.0002848376771 1.807518038e-05)
(0.008739346869 0.0003351771839 1.408844364e-05)
(0.008910901381 0.0004032961584 2.001590267e-06)
(0.009084612944 0.0004910382392 -9.472872597e-06)
(0.009195497376 0.0005659495298 -2.534038459e-05)
(0.009349375002 0.0006953540404 -1.674052403e-05)
(0.009569264738 0.0008293418385 -5.464197041e-06)
(0.009815907952 0.0009877078069 -1.272505577e-05)
(0.01003612519 0.001165995381 -1.78530161e-05)
(0.01029626681 0.001354077137 -1.081168005e-05)
(0.01068941531 0.001564757018 -1.54443691e-05)
(0.01109190911 0.001868728106 -1.589239151e-05)
(0.01151927 0.002140501496 -7.879937549e-06)
(0.01199775032 0.002453951534 -3.440666798e-06)
(0.01254800886 0.002799430197 -2.867085367e-05)
(0.01306703323 0.003121496918 3.002122031e-07)
(0.01355257016 0.003443268707 4.161098132e-06)
(0.01409301885 0.003793786496 -1.296380451e-05)
(0.01459809599 0.004088795577 -1.189473685e-06)
(0.01508974628 0.00439502754 -1.708917352e-06)
(0.01545316372 0.004645110137 -1.257746206e-05)
(0.01584810431 0.004814180767 2.591197345e-05)
(0.016077239 0.005012147291 1.70251612e-05)
(0.008417900164 5.75954001e-05 -4.994268954e-06)
(0.008430826487 7.438293233e-05 -4.945056113e-06)
(0.00845403713 8.634787274e-05 1.038157604e-05)
(0.008511400228 9.056379368e-05 1.379743473e-06)
(0.008541490521 0.0001136335309 9.06701853e-07)
(0.008553243378 0.0001475095632 1.761061383e-06)
(0.008612265208 0.0001946761823 5.701171815e-06)
(0.008707829345 0.0002331602702 -7.151853433e-07)
(0.008772517358 0.0002614892189 -1.676463056e-05)
(0.008796520815 0.0003048374872 -8.60800982e-06)
(0.008828016454 0.000354293845 -7.738440209e-06)
(0.008978258606 0.000446469807 -1.885303202e-06)
(0.009084158849 0.000522564863 2.331796052e-06)
(0.009268272118 0.0006285659057 1.611158783e-05)
(0.009436054175 0.0007462015308 2.608387448e-05)
(0.009705561621 0.0008888907947 2.232005064e-05)
(0.00994184855 0.001070936073 4.228670709e-06)
(0.01021571528 0.001276573035 8.244492576e-07)
(0.01053247699 0.001480204404 -1.294710165e-05)
(0.01086695781 0.001739233045 -1.739460762e-05)
(0.0113459783 0.002002647477 -3.281632036e-05)
(0.01175037059 0.002294264117 -3.312689389e-05)
(0.01224017737 0.002627517459 -2.979069441e-05)
(0.01274099113 0.002941841568 1.661501736e-05)
(0.01332075083 0.003282171569 -3.230266459e-07)
(0.01389111406 0.003660318644 -1.989977391e-05)
(0.0143090888 0.00392841105 -6.653353291e-06)
(0.01482426836 0.004240832845 -1.682938651e-05)
(0.01522782453 0.004501746841 -2.341415047e-05)
(0.01561833456 0.00471884305 -1.772991559e-05)
(0.008368291588 4.067449914e-05 3.310297476e-06)
(0.008361760258 3.701594813e-05 -3.646728172e-06)
(0.00839630272 6.125767281e-05 -1.720576365e-06)
(0.008401082976 6.573212359e-05 2.080634672e-06)
(0.008423765987 8.638390518e-05 -8.332329483e-06)
(0.008467036602 0.0001020444147 -1.966424634e-06)
(0.008537617941 0.0001161895938 1.956372713e-06)
(0.008589602324 0.000148530906 -4.272911718e-06)
(0.008626045986 0.0001924181643 2.199854673e-07)
(0.008746118107 0.0002485074337 -7.461450447e-06)
(0.00881976349 0.0002973559557 -1.580022134e-05)
(0.008875579821 0.0003373271651 -2.181099027e-05)
(0.008974222203 0.0004078535088 -2.057608268e-05)
(0.009097322049 0.0004973093899 -2.66387138e-05)
(0.009208211379 0.0006001999181 -2.91341034e-05)
(0.009337486333 0.0006912184131 -2.787465115e-05)
(0.009479576192 0.0008323056773 3.85752952e-06)
(0.009666825418 0.0009777294809 8.479405883e-06)
(0.009961713843 0.00117305967 2.181172061e-05)
(0.01027207449 0.001359666105 1.396447698e-05)
(0.01057633098 0.001580416032 1.626035095e-05)
(0.01101343354 0.001866770253 -5.564714218e-07)
(0.01152133375 0.002138595153 -3.444012029e-05)
(0.0120499416 0.002442335427 -2.864555978e-05)
(0.0125873355 0.00278118167 2.57077644e-06)
(0.01307289308 0.003110479665 8.884174121e-06)
(0.01367049273 0.003493794683 2.446992797e-06)
(0.01425257518 0.003809863077 -1.113552846e-05)
(0.01481271298 0.004123736937 -5.415239577e-05)
(0.01524349848 0.004372588551 -5.494310768e-05)
(0.008393985696 3.751284829e-05 6.605380533e-06)
(0.008424575424 3.821261612e-05 9.320954346e-06)
(0.00842293447 3.616275686e-05 5.062085785e-07)
(0.008457268315 4.957468681e-05 -6.603928671e-06)
(0.008468623851 5.500844579e-05 -6.212284394e-06)
(0.008450758806 7.850134011e-05 -1.483328271e-05)
(0.008426271538 0.0001047665684 -1.119782426e-05)
(0.008463666694 0.0001153183704 -6.256443231e-06)
(0.008500031519 0.0001409649406 -4.804304426e-06)
(0.008502171873 0.0001696619146 -1.000890822e-06)
(0.008502990725 0.0001944955308 6.874591316e-07)
(0.008638758276 0.0002406850408 -1.040206305e-05)
(0.008731834847 0.0002863830453 -2.002544111e-06)
(0.008806707138 0.0003600878032 -1.201090957e-05)
(0.008913640056 0.0004606848204 -5.991460289e-06)
(0.009112933353 0.0005650867059 -7.962862774e-06)
(0.009272279809 0.0006568011438 -1.002066742e-05)
(0.009507312578 0.0007896202025 -1.314680949e-05)
(0.009626946125 0.0009165899897 -1.714724943e-05)
(0.00987378766 0.001097225086 -1.270792344e-05)
(0.01024161749 0.001292716362 -1.896723895e-05)
(0.01057258863 0.001517029511 -1.554151185e-05)
(0.01088299505 0.001682333354 -3.786484925e-06)
(0.01133943833 0.001992738945 -3.380495095e-05)
(0.01178419239 0.002298103221 -3.081282217e-05)
(0.01229416882 0.002600267493 -2.593699743e-05)
(0.01286706293 0.002984160005 -2.715069627e-05)
(0.01339082375 0.003317537545 4.834463546e-06)
(0.01389832107 0.00364665551 1.807249163e-05)
(0.0144213438 0.003918334168 -1.138458137e-05)
(0.008382538892 1.465351591e-05 -9.36938339e-08)
(0.008367205738 2.002938094e-05 -2.244722266e-07)
(0.008400591249 2.692749238e-05 -3.562708849e-06)
(0.008421956349 4.158744414e-05 -6.595718827e-06)
(0.008407916196 6.33417265e-05 2.488489108e-06)
(0.008410038509 7.421007934e-05 3.436562411e-06)
(0.008419804584 8.253918088e-05 -1.264520531e-05)
(0.008440548961 9.604996713e-05 -5.610658269e-06)
(0.008458609485 0.000108077468 -2.71580761e-06)
(0.008503610502 0.0001272825256 8.61747436e-07)
(0.00851813566 0.0001652634868 3.727158811e-07)
(0.00861248057 0.0002002755104 -1.030961792e-05)
(0.0086335838 0.0002391863176 -6.187712878e-06)
(0.008656339942 0.0002819697554 -1.088175037e-06)
(0.008751309993 0.0003278173987 -5.994704788e-06)
(0.00884156263 0.0003957667522 -1.579660796e-05)
(0.008914811772 0.0004948830677 -1.72963422e-05)
(0.009063047938 0.0006115943168 -2.212999111e-05)
(0.009293629599 0.0007181356798 -2.138632284e-05)
(0.009542511832 0.000851079799 -1.903402563e-05)
(0.009777561498 0.0009899905279 -1.221846285e-05)
(0.01008530512 0.001187180772 -1.003458727e-05)
(0.01038285059 0.001405591361 -2.130885166e-05)
(0.01069050184 0.001598979477 -1.164737028e-05)
(0.01110922111 0.001867032887 -6.818939222e-08)
(0.01162523954 0.002198487785 -3.114405736e-05)
(0.01211943997 0.002478097671 -2.156261372e-05)
(0.0126603406 0.002813603315 -1.200460116e-05)
(0.01325273596 0.003143309523 1.28780536e-06)
(0.01383705737 0.003496020016 2.177749958e-06)
(0.008314317311 -2.528965537e-06 -7.604658063e-07)
(0.008314633324 1.426532771e-06 8.836764512e-07)
(0.008298907291 2.261911888e-05 5.604408805e-06)
(0.008280204157 3.145749728e-05 5.954614231e-06)
(0.008337964528 3.974730983e-05 7.442222539e-06)
(0.008371026863 4.890585138e-05 1.072922064e-05)
(0.008429814554 5.665167084e-05 1.706305376e-05)
(0.008456882401 7.981650113e-05 2.557197871e-06)
(0.008478661183 9.275032811e-05 -6.702618918e-07)
(0.008452135242 0.0001041250471 -4.493296955e-07)
(0.008525472229 0.0001342209411 1.146098297e-06)
(0.008497200523 0.0001672463979 3.458764043e-06)
(0.008517711924 0.0001832323661 -8.028922869e-06)
(0.008578242634 0.0002259094416 -2.026721153e-05)
(0.008633862665 0.000274981412 -1.881259184e-05)
(0.008707724139 0.0003154989657 -2.385127011e-05)
(0.008845776328 0.0003788125002 -1.647690173e-05)
(0.009046862693 0.000455464924 -2.07961315e-06)
(0.009200149261 0.0005436010218 -3.505304368e-07)
(0.009291227795 0.000660284877 -1.937667459e-05)
(0.009489465994 0.0008000757683 -5.352101541e-06)
(0.009742508403 0.0009268044135 -1.063886837e-05)
(0.01010573699 0.001139974582 -1.234696351e-06)
(0.01041436084 0.00129881681 1.640033165e-06)
(0.01075661786 0.001516038462 -1.013332339e-05)
(0.0111877348 0.001762354848 6.653689693e-07)
(0.0116347974 0.002070413602 -4.33617917e-06)
(0.0120872323 0.002385156403 6.777663502e-06)
(0.01254341565 0.002718165009 7.024530871e-06)
(0.0130309621 0.003022154086 1.031114098e-05)
(0.008334244965 1.43091577e-05 6.356582271e-06)
(0.008329689014 1.193233223e-05 -3.571116367e-06)
(0.008360774307 1.132829194e-05 -8.511342459e-06)
(0.008361098013 8.878245595e-06 -6.227377634e-06)
(0.00836108817 1.657352831e-05 -1.186474794e-05)
(0.008347604269 2.443470635e-05 -1.300619222e-05)
(0.008341888662 3.618904892e-05 -7.317753211e-06)
(0.008325917021 5.207477072e-05 -7.419670725e-07)
(0.008376146119 7.402523772e-05 -8.13344027e-06)
(0.008420071788 8.187193788e-05 -9.65152053e-06)
(0.008455936988 0.0001025114444 -6.629889683e-06)
(0.008447766185 0.0001300659627 -3.323280424e-06)
(0.00848864695 0.0001678077766 1.40741357e-05)
(0.008575097267 0.0001903285591 1.39593635e-05)
(0.008581555417 0.0002099310286 6.898839634e-06)
(0.008650973732 0.0002413516207 5.844986911e-06)
(0.008671072292 0.0002757058306 1.239687282e-05)
(0.008787876024 0.0003386126911 -1.433557882e-05)
(0.008942102383 0.0004052532243 -8.975417551e-06)
(0.009124968324 0.0004906462345 -3.119206971e-06)
(0.009304746219 0.0005832494658 -1.184548101e-05)
(0.009551158416 0.0007155802141 -2.120721517e-05)
(0.009756796538 0.0008569228468 -1.650737859e-05)
(0.01006958567 0.001033324097 -1.967198636e-05)
(0.01033425917 0.001206832894 -1.714384298e-05)
(0.01063273731 0.001453452129 -1.364359806e-05)
(0.01102266662 0.001693584757 -1.124468449e-05)
(0.01140670292 0.001976143847 1.390992079e-05)
(0.01193290733 0.002276038096 -6.231335945e-06)
(0.01254553172 0.002593272327 -2.318648958e-05)
(0.008444827757 1.968771977e-05 -1.871677997e-05)
(0.008421726663 2.802221619e-05 -1.336452062e-05)
(0.008369872722 2.431995929e-05 -1.380922842e-05)
(0.008377248927 2.226179836e-05 -3.556459961e-06)
(0.008354474241 3.173079407e-05 -4.638596613e-06)
(0.008391189597 4.185559317e-05 7.995569571e-07)
(0.00838160711 4.099054401e-05 -7.528577235e-06)
(0.008370375993 4.417750607e-05 -5.286367348e-06)
(0.008385278289 5.249357248e-05 -9.614588858e-06)
(0.008368334577 7.141821669e-05 -1.596691733e-06)
(0.008405209998 8.516973648e-05 3.666367222e-06)
(0.008455117169 0.0001044757639 -9.03947638e-06)
(0.008493394308 0.0001157189776 -1.320680837e-05)
(0.008500835217 0.0001180257715 -8.22837937e-06)
(0.008591906557 0.000155749393 -1.181501318e-05)
(0.008702628911 0.0001907558642 -1.166696816e-05)
(0.008761897274 0.0002257242546 -1.831514894e-05)
(0.008794503538 0.0002600802337 1.21161609e-05)
(0.008888417478 0.0003100941758 -9.291367128e-06)
(0.008917361305 0.0003808159337 3.186176611e-06)
(0.009069022512 0.000453095429 2.107697378e-06)
(0.009154058498 0.0005381533828 2.975728159e-06)
(0.009317701649 0.0006650437022 3.968769991e-06)
(0.009550805327 0.0008108209968 -5.982159993e-06)
(0.009788054884 0.0009610049668 -1.229998945e-05)
(0.01007679836 0.001136043382 -8.540468268e-06)
(0.01042184716 0.001356207417 -1.368472563e-05)
(0.01084965011 0.001591449653 -2.555027348e-05)
(0.01134993611 0.001847619767 -3.091729559e-05)
(0.0118031649 0.002125204302 -2.339483596e-05)
(0.008242607631 2.338699544e-06 -1.21382009e-06)
(0.008310199582 1.044782066e-05 -2.887661876e-07)
(0.008320501689 1.873932691e-05 -4.848318321e-06)
(0.00832717159 2.569329136e-05 -1.704776182e-05)
(0.00829633259 2.37123057e-05 -1.29291988e-05)
(0.008311321822 2.174299325e-05 -1.256483784e-05)
(0.008302440533 3.168426191e-05 -3.291665205e-06)
(0.008301713538 4.124644816e-05 -1.217132332e-05)
(0.008310462592 5.457223314e-05 -6.786642394e-06)
(0.008341216427 5.51658566e-05 -3.681221295e-06)
(0.008357746121 5.349630193e-05 -6.865324607e-06)
(0.008369606465 5.27439715e-05 -8.056897005e-07)
(0.008443612049 6.830153178e-05 -3.301503406e-06)
(0.008472121435 9.258989927e-05 1.612474297e-05)
(0.008474061523 0.0001229340253 1.658082022e-05)
(0.008539517819 0.0001426931329 1.035744568e-05)
(0.008583178362 0.0001601002197 3.957310033e-06)
(0.008659135511 0.0001898601496 -4.353502297e-06)
(0.008711625776 0.0002448293951 -1.26198365e-05)
(0.008818024708 0.0002921714566 -8.990580941e-06)
(0.008880066691 0.0003662128852 -1.139269844e-05)
(0.008987743123 0.0004328268499 -4.733731217e-06)
(0.009081762038 0.0005169733983 -1.336359238e-05)
(0.009225241577 0.0006341927256 -1.51782048e-05)
(0.009445473371 0.0007433294766 -9.266332133e-06)
(0.009716689146 0.0008755533667 -1.664416325e-05)
(0.01000537917 0.001047455513 -1.280215009e-05)
(0.01037759989 0.001259843455 -4.078142505e-05)
(0.01070194348 0.001479488989 -2.179316104e-05)
(0.01114293956 0.001765296232 -1.358222652e-05)
(0.008281377905 -3.590275046e-06 -1.216773379e-05)
(0.008263793242 2.311038033e-06 -1.535103246e-05)
(0.008259777515 9.00192372e-06 -1.115699151e-05)
(0.008277700733 1.34517091e-05 -6.36890286e-06)
(0.008282662769 2.455791604e-05 -1.911851599e-06)
(0.008248263839 2.60376317e-05 -3.338156232e-06)
(0.008315172005 2.955659436e-05 -3.707506282e-06)
(0.008304091118 2.098092256e-05 4.70193166e-06)
(0.008340982382 2.113604731e-05 7.814070957e-06)
(0.008409459475 3.111712672e-05 -1.785957874e-06)
(0.008383060054 4.925416485e-05 -7.894647246e-06)
(0.008407016916 5.734431892e-05 1.886095413e-06)
(0.008423165215 4.680624541e-05 -4.823403358e-07)
(0.008469885168 5.112684672e-05 -1.693193175e-05)
(0.008523248849 6.373867857e-05 -1.481046633e-05)
(0.008555698726 0.0001099095661 -2.32257353e-05)
(0.008561996479 0.0001343680081 -1.700189468e-05)
(0.008577736388 0.000169034484 -1.00936055e-05)
(0.008549510797 0.0001978000986 -1.483430239e-05)
(0.008652369493 0.0002246490836 -1.938380695e-05)
(0.008728345835 0.0002583747704 -1.903570225e-05)
(0.008864973171 0.0003362781449 -2.367653078e-05)
(0.009008320725 0.0004130660102 -1.278695467e-05)
(0.009148303011 0.0004701229364 -4.002416507e-06)
(0.009289159819 0.0005797178804 5.848864803e-06)
(0.009502489986 0.0006928525623 9.039702297e-06)
(0.009703408959 0.0008384692245 1.318613782e-05)
(0.009935718305 0.001003969775 2.061988697e-05)
(0.01027860247 0.001190923284 1.4958929e-05)
(0.01062076576 0.001405007261 8.963493407e-06)
(0.008217671442 7.610429034e-06 2.608962154e-06)
(0.008211987627 -4.427928345e-06 6.481391708e-06)
(0.008217767749 -3.794590302e-06 6.751209725e-06)
(0.008249760015 1.687643765e-06 4.206889348e-06)
(0.00825824237 -4.489101359e-06 4.532769578e-06)
(0.008333684563 3.767576907e-07 4.353830316e-07)
(0.008364229895 5.203107619e-06 2.306966832e-06)
(0.008366880823 1.395321245e-05 -5.456968682e-06)
(0.008356971967 1.705735673e-05 -1.488526647e-05)
(0.008337406214 2.036827297e-05 -2.359394837e-05)
(0.00835949873 1.788490332e-05 -1.376417091e-05)
(0.008401238718 2.13958657e-05 -1.516993114e-05)
(0.008384740765 5.016979909e-05 -1.584403197e-05)
(0.008411621817 5.871135198e-05 -6.649971359e-06)
(0.008360573185 7.12162192e-05 1.172632207e-06)
(0.008399464266 6.782016699e-05 -5.921477061e-06)
(0.008398657519 8.695782305e-05 1.904664866e-06)
(0.00839052045 0.000118009339 -1.273585176e-05)
(0.008486348916 0.0001457114067 -1.386833293e-06)
(0.008530818431 0.0001900898351 9.732862117e-06)
(0.008531345575 0.0002017346977 8.700753965e-06)
(0.0085968525 0.0002412718284 7.522560908e-06)
(0.008655321956 0.0002904011523 -8.234960911e-06)
(0.008760227644 0.0003662060359 -9.897651841e-06)
(0.008927715799 0.0004166823304 -2.082448714e-05)
(0.009111197229 0.0005113092411 -1.685720541e-05)
(0.009333311316 0.0006388103738 -1.835785746e-05)
(0.009591932963 0.0007912318748 -9.569446692e-07)
(0.00977293078 0.0009409972794 7.733431731e-07)
(0.01007124787 0.001131350525 5.051648669e-06)
(0.008338275455 1.325896855e-05 1.067450408e-05)
(0.008312763838 1.480800438e-05 7.371186792e-06)
(0.008321152639 7.438785151e-06 8.62110993e-06)
(0.008328158049 -2.491550687e-06 -2.959001256e-06)
(0.008301437849 -5.209232574e-06 -8.504929761e-06)
(0.008327718202 -9.895259717e-06 -8.230206508e-06)
(0.008300710512 -1.486376103e-05 -1.481072285e-05)
(0.008352867442 -4.191704323e-06 -1.290721252e-05)
(0.008395368315 -4.598829927e-06 -1.053745219e-05)
(0.008402624558 -8.887986495e-07 -1.274438988e-05)
(0.008363870364 1.901668427e-05 -2.293701272e-05)
(0.008368512759 2.977632125e-05 -2.378948452e-05)
(0.008359609858 3.722012668e-05 -1.644650229e-05)
(0.008330095971 5.29075801e-05 -2.201100129e-05)
(0.008310985696 7.065845121e-05 -2.416983979e-05)
(0.008321074778 9.067825292e-05 -1.571908235e-05)
(0.008327638537 9.230994871e-05 -9.281528207e-06)
(0.00838311829 9.930387625e-05 -1.850572159e-06)
(0.008408009393 0.0001062108667 -3.134998014e-06)
(0.008485154279 0.0001202846655 -1.076011608e-05)
(0.008548507565 0.0001575737241 -8.212113831e-06)
(0.00862786314 0.0001890503966 3.713911132e-06)
(0.008714087923 0.0002299687045 1.182856846e-05)
(0.008811031276 0.0002927362984 7.254578468e-06)
(0.008853762153 0.0003407653945 1.348336748e-05)
(0.008898105044 0.0004080728135 7.052027148e-06)
(0.009006057082 0.0004716786483 7.696356623e-06)
(0.009198634755 0.0005763821062 -2.624748198e-06)
(0.009486368015 0.0007392040076 -8.539555327e-06)
(0.009719133596 0.0008771292097 -1.337693358e-05)
(0.00835582484 1.676496573e-05 -2.408238295e-05)
(0.008415802587 5.412577877e-06 -2.47663883e-05)
(0.008456968385 6.4257847e-06 -2.475309982e-05)
(0.008396217631 1.181887204e-05 -2.873023062e-05)
(0.008382049643 1.341080446e-05 -2.35492009e-05)
(0.008358574068 1.386155031e-05 -1.383610639e-05)
(0.008315214159 1.002773107e-05 -8.65219115e-06)
(0.008293315369 -8.311668504e-06 -8.729750601e-06)
(0.008245633064 1.396356288e-07 -7.584757635e-06)
(0.008226053259 1.344367871e-06 -4.762174329e-06)
(0.008223888824 1.386797728e-05 1.462963159e-06)
(0.008217206935 2.900672174e-05 3.811437263e-07)
(0.008256422436 4.11548957e-05 1.508563787e-06)
(0.008313070401 3.76837426e-05 -6.970537566e-06)
(0.008354778467 4.2781257e-05 -7.98768896e-06)
(0.008417921234 4.1808663e-05 -8.798840298e-06)
(0.008465761812 5.4810255e-05 -9.359754328e-06)
(0.00848265802 6.720084006e-05 -1.255418922e-05)
(0.008574959028 8.505208485e-05 -7.628778933e-06)
(0.008551640141 9.651034551e-05 -5.299902877e-06)
(0.008642964359 0.0001220046018 -2.744343232e-06)
(0.008617128855 0.00015484897 -1.502210521e-05)
(0.008564964556 0.0001914416234 -1.341330318e-05)
(0.008640949156 0.0002354239524 -1.592473193e-05)
(0.008721658347 0.00028911606 -1.73110104e-05)
(0.008773165226 0.0003206523765 -1.420536008e-05)
(0.008890343919 0.0003870028954 -1.88056983e-05)
(0.009023593569 0.0004628888482 -1.554998634e-05)
(0.009116162005 0.0005528890413 -1.497401763e-05)
(0.009385693974 0.0006832831063 -8.864530603e-06)
(0.008418574881 -6.52499917e-06 -1.719276987e-05)
(0.008390125667 6.988030376e-06 -9.047694075e-06)
(0.008395812105 8.326372876e-06 -1.173070664e-05)
(0.008412545751 1.342644431e-05 -1.051593827e-05)
(0.008402456118 1.84327519e-05 -1.125365127e-05)
(0.008420997331 2.469597076e-05 -1.83254438e-05)
(0.008416652551 2.174607288e-05 -1.830888723e-05)
(0.008422443099 2.87698501e-05 -2.232727138e-05)
(0.00836999536 3.047754561e-05 -7.319734952e-06)
(0.008368224235 1.943243341e-05 7.614858837e-06)
(0.008352745811 2.489906742e-05 6.381316978e-06)
(0.008392654051 1.160019349e-05 1.071606471e-05)
(0.00838863033 1.635883709e-05 1.099755397e-05)
(0.008417859353 2.434021253e-05 6.13213509e-06)
(0.008430807703 9.013293245e-06 1.906975261e-06)
(0.008390448266 2.277404312e-05 3.982498979e-06)
(0.008394805888 4.355012897e-05 1.956833259e-06)
(0.008420297662 5.880292248e-05 -1.806761151e-06)
(0.00838051571 6.842535448e-05 -6.817096277e-06)
(0.008395681194 9.069992858e-05 -9.829770789e-06)
(0.008415023349 0.0001134483946 -1.643301278e-05)
(0.008427869492 0.0001290134602 -1.067130926e-05)
(0.008527613889 0.0001457612681 -2.020732649e-05)
(0.008547592361 0.0001646452192 -1.947231901e-05)
(0.008686184893 0.0002162303278 -1.521260352e-05)
(0.008735968108 0.0002605766471 -1.722462133e-05)
(0.008852432459 0.0003160667503 7.024222864e-07)
(0.008936675787 0.0003698760884 2.835481695e-06)
(0.009056276669 0.0004348172233 1.033270091e-05)
(0.009190097512 0.0005452165831 7.808139812e-06)
(0.008320602654 2.558495067e-06 -4.943919639e-06)
(0.008283452752 8.645201684e-06 -6.405309493e-06)
(0.008282796692 1.448292034e-05 -4.602727579e-06)
(0.00827715033 1.091098792e-05 -1.03632499e-06)
(0.008294925921 3.307740805e-06 -2.833463405e-06)
(0.008282867545 6.614506517e-06 2.354337346e-06)
(0.008270889578 2.002056082e-05 1.118180669e-06)
(0.008338349247 1.837592544e-05 6.439639151e-06)
(0.008368004214 1.564140029e-05 -7.460627588e-06)
(0.008358421705 1.652188668e-05 -1.006210061e-06)
(0.008411437584 1.784541756e-05 3.046113352e-06)
(0.008417085587 1.537333582e-05 6.899324292e-06)
(0.008382168327 1.061073952e-05 4.903094445e-06)
(0.008354226945 2.356612379e-05 8.611956104e-06)
(0.008334238157 3.070066273e-05 1.385319362e-05)
(0.008353397852 3.977310996e-05 1.018908318e-05)
(0.008307898754 3.456518533e-05 -3.286363423e-07)
(0.008370801389 4.005489918e-05 1.610347307e-06)
(0.008352868162 5.837012464e-05 1.412264638e-05)
(0.008385770778 5.236873205e-05 1.439805417e-05)
(0.008443167787 6.121309308e-05 1.296274154e-05)
(0.008513870032 8.314117224e-05 2.434708431e-05)
(0.008529613621 0.0001143535018 2.568547686e-05)
(0.008590348737 0.0001512715039 2.115450629e-05)
(0.008595124929 0.0001706027009 1.745007633e-05)
(0.008638372199 0.000216142453 2.56486059e-05)
(0.008698014719 0.0002336536165 2.073798546e-05)
(0.008768665716 0.0002854823279 1.875846933e-05)
(0.008899195521 0.0003487887087 8.503433116e-06)
(0.008944643862 0.0003991932012 3.403226134e-06)
(0.008298699868 5.452923069e-06 5.722359727e-06)
(0.008271777889 -4.023289071e-06 2.993672682e-06)
(0.008310005569 -5.831219117e-06 -2.571744533e-09)
(0.008297647078 -6.532864117e-06 -2.294330443e-06)
(0.008324171175 1.73855388e-06 -3.308543297e-06)
(0.008322225225 8.293648263e-06 -4.192935303e-06)
(0.008334475199 5.769552957e-06 -3.303433613e-06)
(0.00829865292 1.324271693e-05 -2.502394964e-06)
(0.008323028173 9.210835219e-06 -1.770792967e-06)
(0.008293385085 1.367739465e-05 -1.172616431e-05)
(0.008321489444 1.336730891e-05 -1.501896726e-05)
(0.008257099052 1.34463329e-05 -8.62409706e-06)
(0.008266368694 2.377330451e-05 -1.932495109e-05)
(0.00833382363 1.853451431e-05 -1.386116594e-05)
(0.008353156449 2.457859518e-05 -2.007355555e-05)
(0.008388113482 1.989863767e-05 -1.653445142e-05)
(0.008434676709 2.427926139e-05 -9.33615257e-06)
(0.008404019713 3.094754211e-05 -4.260873177e-06)
(0.008477998923 3.768501718e-05 -1.647895013e-05)
(0.008486796219 3.647812556e-05 -9.165663398e-06)
(0.008456787542 6.099851429e-05 2.249259696e-06)
(0.008449728317 6.807636237e-05 9.892952524e-07)
(0.00842496852 8.17259312e-05 -1.638141288e-06)
(0.008522135014 0.000106094344 -3.678884769e-06)
(0.008613693442 0.0001269312717 5.565857915e-07)
(0.008684774702 0.0001639502623 9.934813534e-07)
(0.008653670352 0.0002149976722 -9.209632785e-06)
(0.008695040143 0.0002460495292 -1.78222144e-05)
(0.008781435326 0.0002884915203 -4.330594472e-06)
(0.008857296528 0.0003329729185 3.372277037e-07)
(0.008337922003 1.200982593e-05 -1.301635088e-05)
(0.00835436428 1.383173045e-05 -7.903590419e-06)
(0.008304748978 2.138176888e-06 -4.534917391e-06)
(0.008321079056 4.088302499e-06 4.403262097e-06)
(0.008293850643 1.033636699e-06 6.631717455e-06)
(0.008334682518 -1.113975193e-06 1.543440179e-05)
(0.008390005983 -8.552158953e-06 1.219149655e-05)
(0.008431250563 -3.008539153e-07 7.904184741e-06)
(0.00842823221 1.873885152e-05 5.035824959e-07)
(0.008418282976 1.569533704e-05 9.428315003e-06)
(0.008418571105 1.309186044e-05 2.842292768e-06)
(0.008417648159 1.90466617e-05 1.49857142e-06)
(0.008456228678 5.620254891e-06 2.330314036e-06)
(0.008414008649 1.262446309e-05 -4.66467249e-06)
(0.008421898876 1.403885056e-05 3.626310614e-06)
(0.008445022261 1.755407534e-05 9.890082413e-06)
(0.008452223619 1.850670094e-05 8.217782706e-06)
(0.008387520822 1.949029287e-05 1.310020691e-05)
(0.008391433253 1.68889576e-05 8.207260954e-06)
(0.008390151552 5.253211241e-05 -1.944137838e-06)
(0.008428702864 5.152358734e-05 -4.563990229e-06)
(0.00852166795 5.231872361e-05 9.985923324e-07)
(0.00858196358 6.206491936e-05 1.537401166e-07)
(0.008553532043 8.140694382e-05 2.407117524e-06)
(0.008495057228 0.0001019786568 7.509348236e-06)
(0.008571764405 0.0001286828593 6.053158803e-06)
(0.008671431094 0.0001535382083 -1.911714037e-06)
(0.008795371714 0.0001867856657 9.633674062e-06)
(0.008874070008 0.0002263650614 9.285355681e-06)
(0.008932636441 0.0002714943115 5.696619475e-07)
(0.008371931448 4.787110499e-06 -4.130273613e-06)
(0.008402108429 6.685607206e-06 -6.699962206e-06)
(0.008411055188 9.864388192e-06 -7.120880271e-06)
(0.00843084407 8.444007254e-06 -1.119725338e-05)
(0.00842145239 6.886103089e-06 -7.168714055e-06)
(0.008396533896 7.677792268e-06 -6.938525024e-06)
(0.008339392682 9.071681567e-06 -3.830603594e-06)
(0.008301709304 3.810614369e-06 -2.189104541e-06)
(0.008337812502 -1.253658625e-05 -2.644059987e-06)
(0.008366758166 -1.125766504e-05 -3.165265481e-06)
(0.008365377843 -1.404001218e-05 -1.850697995e-06)
(0.008406347371 1.517080056e-06 8.813094138e-06)
(0.008355285701 1.177000595e-05 1.450067188e-05)
(0.008375168007 1.672719816e-05 1.46975386e-05)
(0.008386007933 1.100306947e-05 1.588003704e-05)
(0.008389972252 1.917165592e-05 8.490495949e-06)
(0.008391478746 3.594218043e-05 -4.299363766e-08)
(0.008406270562 3.226813181e-05 -4.476397905e-06)
(0.008420968672 2.389493229e-05 2.033086213e-06)
(0.008428210461 2.395944698e-05 -7.948918034e-06)
(0.008414822013 3.274432129e-05 2.910130265e-06)
(0.008385745597 4.788064799e-05 4.218752211e-06)
(0.008379405988 4.359577663e-05 3.716450769e-06)
(0.008418144912 4.824049369e-05 -5.565222129e-06)
(0.008486480252 5.513525217e-05 -2.734265721e-06)
(0.008536999468 8.035702966e-05 -1.044857258e-06)
(0.008549433671 0.0001118723525 8.728352195e-06)
(0.008572098684 0.0001476826139 -1.791205399e-06)
(0.008585485492 0.000190589978 -4.652933813e-06)
(0.008689374071 0.0002272189115 1.994009356e-05)