/*--------------------------------*- C++ -*----------------------------------*\
| =========                 |                                                 |
| \\      /  F ield         | OpenFOAM: The Open Source CFD Toolbox           |
|  \\    /   O peration     | Version:  2406                                  |
|   \\  /    A nd           | Website:  www.openfoam.com                      |
|    \\/     M anipulation  |                                                 |
\*---------------------------------------------------------------------------*/
FoamFile
{
    version     2.0;
    format      ascii;
    arch        "LSB;label=32;scalar=64";
    class       volScalarField;
    location    "0.011";
    object      overallT;
}
// * * * * * * * * * * * * * * * * * * * * * * * * * * * * * * * * * * * * * //

dimensions      [1 2 -2 0 0 0 0];

internalField   nonuniform List<scalar> 
654
(
733.9386856
723.9567654
725.6135056
728.4857691
723.8733061
725.7200034
668.7994968
680.3934604
691.6288644
694.5876271
703.7682606
708.3602141
710.7369961
714.9062125
714.1879734
714.7428322
716.5482285
565.9017967
589.9299515
608.6981628
625.9765549
641.5305834
652.6623201
663.5055941
669.6888363
680.5816769
686.4612011
693.8259559
699.8170041
699.8568548
704.4868071
707.0493215
706.1696486
418.6533289
433.7653097
452.1511041
473.6218127
490.9706765
510.7339963
531.3467964
557.7878051
573.8591739
595.4819841
614.7926157
626.0094084
640.9110248
651.267033
656.1415424
663.2550862
672.9629737
682.1933293
688.5040708
692.5407693
694.2474163
695.8207009
325.436404
332.3606107
338.5014213
349.3706292
361.0287202
367.9346196
376.9383334
389.1019298
403.9057455
421.5277905
431.0784185
452.3359236
476.2670986
493.7396596
513.3365039
536.8056575
552.6389746
573.6007989
594.5039837
610.3585449
630.7245666
642.2291565
647.3045459
658.0490499
669.8769569
673.7895032
680.2556271
682.6860081
682.0470649
317.6995842
321.226099
325.8302511
327.1629805
335.8656815
344.9383398
353.0161225
363.5866916
369.716453
385.4712921
395.0837977
411.7420263
424.6485689
442.5869701
462.6709682
481.9295811
503.2444203
523.0805487
540.2648001
563.9702856
580.6862881
597.4603806
613.8236057
629.508853
645.4167142
648.867844
656.1552071
662.8548381
667.132981
673.957433
313.2342739
315.9774267
321.4198382
324.3448179
328.4795365
334.0675212
338.0056556
346.6924309
353.4649201
366.3725213
373.861852
385.1069182
399.1063431
416.6109739
436.7490378
448.9548178
468.1798887
486.683403
506.6553996
524.8348615
544.8002166
567.1081879
584.8377103
600.4110094
616.5469278
629.0020456
642.0587167
648.1096675
654.5178269
658.6390631
311.0831606
313.0120863
313.0168845
316.9132829
320.7127776
326.3144267
329.8169184
332.3790867
342.5743976
349.3507993
361.1312874
369.8651775
374.3610823
386.7139829
404.3994615
419.2904453
437.055553
461.6699223
476.4852477
497.1309686
515.8326804
538.0266814
551.8186361
573.8913307
591.3250721
601.7892198
619.5563568
634.49599
643.6692464
647.9973386
307.4135615
309.05765
312.2927248
313.0788742
312.7877988
318.51798
325.2622985
327.006514
331.9192631
339.3807848
347.3615372
353.9778247
362.009835
370.8702095
383.3214841
395.3346252
411.5419235
432.2168293
445.6020783
468.8711629
485.7124547
511.9649352
528.8691612
541.8179342
564.8339108
583.4710951
597.337468
612.5247516
621.1322743
634.3361786
305.6908776
305.9790253
306.3412063
309.5883742
312.5411724
314.1671771
317.7182461
322.2798403
326.6082284
330.0975053
336.2530229
344.3701694
346.1380921
355.5887714
364.6828117
374.5777685
384.8559849
401.3070477
416.979198
431.6370862
454.7342862
473.6122725
498.0579328
511.3366282
529.0256166
551.8976119
568.6762954
585.5016726
601.3065584
613.3591441
305.4770641
306.4096989
305.2703168
307.250825
308.2849073
311.1468437
312.1423145
316.3119628
320.2894973
321.6794121
328.1980479
334.3871419
338.9441735
346.0747757
357.3474858
366.0890888
371.5307486
384.5953768
393.4056441
408.1239872
423.7765562
438.9517463
457.7006572
478.3696915
495.5435765
516.4992393
535.651767
556.0066678
574.6808952
588.7475429
301.6359641
302.3752399
303.4645508
306.140959
308.7628223
311.4955685
310.6428713
312.1419826
315.0801234
315.7165254
320.884062
326.3074831
330.9119892
333.0407081
339.4192979
348.4130951
355.2923496
365.8550463
378.2914971
388.4939398
400.3026188
412.8130356
434.9948932
451.4050466
468.5660845
487.4111338
507.9256134
529.4698131
548.0922925
566.5881741
303.3007192
304.0022308
305.3821005
305.5825326
303.4654386
306.2846983
306.5120282
311.2899887
310.3414577
313.268038
312.8463835
317.7030298
319.848863
324.3432195
332.4737524
339.6693768
343.7222131
350.9236436
360.5045137
367.0482778
381.5339748
394.0106767
407.0331967
424.071572
443.7983531
459.3968486
476.5563548
499.2079765
521.0531499
536.4215521
301.821758
301.2287143
302.5012264
305.4399817
305.3604043
303.264531
306.7583375
307.1861191
308.9628393
312.059052
316.2915248
317.1440898
317.0573101
319.7986234
322.9138762
330.8790752
334.1499548
342.0102229
348.0566445
358.931589
362.074974
374.1422758
388.6372369
402.653318
415.8419533
432.0028703
450.1285562
469.8698497
486.0307591
508.5948255
301.454217
301.7314344
301.1318432
302.1693371
304.1856479
304.7557768
307.5569298
307.9043879
307.9901167
309.6846174
311.9353831
311.7573257
317.3709893
318.6017514
320.6018205
323.8932389
328.1385648
334.9152959
339.5819568
348.1814123
352.019849
362.4162122
373.0844623
390.5403074
396.5773959
410.8700273
423.9270286
446.9142999
464.6148171
483.4639122
302.1885745
300.6612117
301.1191006
302.2251113
304.5199324
303.974573
304.4684868
305.2809785
305.25904
305.4662641
308.5859662
310.8971618
311.378873
312.0704629
315.8389
320.5434456
322.0868676
327.0887037
332.5588933
337.7422619
347.3023495
351.1585006
359.8888733
371.7161343
379.841583
388.917719
401.2377202
417.4881912
439.6772571
456.519518
302.4417897
302.2499625
302.3635856
301.7435716
300.9379117
303.5311055
304.7915375
305.0374834
305.447122
306.0695571
306.753445
308.6989316
310.862563
311.2163589
313.0842833
315.5498352
320.2930191
320.8587387
323.144015
325.9640232
331.4081052
337.121937
342.3711051
350.9734383
363.0641949
373.3230847
385.240877
399.9937244
411.6748466
430.7379026
301.9194687
302.702884
302.1211296
302.4880136
302.4061818
302.2877754
304.0228073
304.0021853
303.4447769
303.8464948
304.2622954
304.74177
306.3450303
308.2629269
307.2264969
308.3627736
310.4679695
315.1794493
317.053003
320.2189254
323.0820304
329.6020193
337.3470906
342.0162899
353.3036838
359.1271176
367.5986541
377.7144074
389.1690338
404.6569471
299.7394266
299.5729114
299.6697776
301.182299
301.9050052
300.9754638
301.9954966
303.2124764
302.6717995
302.7497907
303.0548299
303.5462662
305.4447468
305.327975
307.4684961
307.5447297
309.0957496
311.9933445
314.9170025
316.0173741
319.7945761
323.9418106
327.0273651
337.3026937
340.7308442
351.6471092
357.8410982
366.5981723
376.2991494
386.8886986
300.0737584
300.5342258
300.1564972
300.8168459
301.8672887
303.1855798
302.2418726
302.0290613
302.2737942
301.0973406
302.5491503
302.4198038
303.2810839
303.7884809
305.4244148
306.7947762
307.4372605
306.4880553
310.1757686
312.6711802
316.2496481
318.9100076
319.400106
326.2291644
331.912085
339.6541022
346.2926536
353.3852839
365.582919
372.8385191
300.9594401
302.0925845
300.5546583
299.5433378
298.4731378
298.4457875
299.1413937
299.5947862
301.6290107
301.6746988
301.2458739
301.1835267
300.7304268
302.253973
304.2388851
304.6200635
306.6813
307.5473709
307.8713525
309.6754672
310.6683045
312.9760472
316.1227206
318.2477145
320.3327968
326.3540326
332.3376091
341.9099085
349.9038669
359.2810854
300.4405432
300.6106684
300.3946918
300.1229869
301.0128956
300.3122896
300.4710996
300.8027658
299.9056048
301.4332444
303.7982705
305.0906609
303.8477368
303.4435093
303.357595
303.7887605
304.9084565
305.2438319
305.0418477
305.9972298
309.2769848
313.2312806
312.304292
316.8818217
317.8531215
324.5132487
329.5261727
332.8262911
339.7312713
349.0480112
300.0752116
300.2779519
299.5260692
299.6256912
300.6490936
301.9583409
300.7733727
300.1832687
300.9341542
299.9940892
299.2263968
300.2923251
301.5775731
302.4099885
303.8245113
303.0406022
303.2132093
304.4514115
304.7588124
306.7828978
309.0034287
308.387333
311.1486855
312.0298314
314.8291597
315.9882333
320.8713213
325.8834219
330.7435864
338.6051173
299.115304
301.4044821
301.8187591
301.6625014
301.6451409
299.8248283
301.0846589
302.0508363
301.688833
301.6028536
302.061713
302.0613426
301.9101381
301.2785299
301.7248555
304.0577717
302.9169265
304.956958
303.5224717
302.7113764
303.4425584
306.569285
309.1485532
309.658512
312.142386
311.7999279
313.9845947
320.0388252
320.7603268
328.2150657
)
;

boundaryField
{
    flow
    {
        type            calculated;
        value           nonuniform List<scalar> 
55
(
733.9386856
725.7200034
716.5482285
706.1696486
695.8207009
682.0470649
673.957433
658.6390631
647.9973386
634.3361786
613.3591441
588.7475429
566.5881741
536.4215521
508.5948255
483.4639122
456.519518
430.7379026
404.6569471
386.8886986
372.8385191
359.2810854
349.0480112
338.6051173
328.2150657
299.115304
301.4044821
301.8187591
301.6625014
301.6451409
299.8248283
301.0846589
302.0508363
301.688833
301.6028536
302.061713
302.0613426
301.9101381
301.2785299
301.7248555
304.0577717
302.9169265
304.956958
303.5224717
302.7113764
303.4425584
306.569285
309.1485532
309.658512
312.142386
311.7999279
313.9845947
320.0388252
320.7603268
328.2150657
)
;
    }
    obstacle
    {
        type            calculated;
        value           nonuniform List<scalar> 0();
    }
    frontAndBack
    {
        type            empty;
    }
    procBoundary3to1
    {
        type            processor;
        value           nonuniform List<scalar> 
36
(
747.5949649
740.0648411
738.6941982
742.1066436
737.3864479
737.3864479
690.465722
695.46458
704.6901926
711.1951333
717.5045211
718.48709
718.48709
605.7124269
622.2501045
638.0329773
654.0662146
663.6636945
663.6636945
450.1205356
463.9908268
487.9665405
506.0852222
524.8719159
545.4623723
545.4623723
338.1652228
343.1672542
352.7719871
366.8330006
380.4380122
385.680144
398.4334164
398.4334164
322.9066724
322.9066724
)
;
    }
    procBoundary3to2
    {
        type            processor;
        value           nonuniform List<scalar> 
19
(
313.5232218
308.7326422
308.5350228
304.9759714
302.9333765
304.3535741
300.2503122
302.2383321
301.4059137
301.646356
301.4833191
300.5887684
302.3318338
299.3896765
299.7309397
300.4884371
299.8036549
300.4264673
298.3079371
)
;
    }
}


// ************************************************************************* //
