/*--------------------------------*- C++ -*----------------------------------*\
| =========                 |                                                 |
| \\      /  F ield         | OpenFOAM: The Open Source CFD Toolbox           |
|  \\    /   O peration     | Version:  2406                                  |
|   \\  /    A nd           | Website:  www.openfoam.com                      |
|    \\/     M anipulation  |                                                 |
\*---------------------------------------------------------------------------*/
FoamFile
{
    version     2.0;
    format      ascii;
    arch        "LSB;label=32;scalar=64";
    class       volScalarField;
    location    "0.011";
    object      p;
}
// * * * * * * * * * * * * * * * * * * * * * * * * * * * * * * * * * * * * * //

dimensions      [1 -1 -2 0 0 0 0];

internalField   nonuniform List<scalar> 
654
(
2.537083575
2.598711031
2.627627301
2.608780127
2.559001897
2.566477081
2.061139435
2.167680012
2.29737153
2.353115965
2.443775872
2.518898779
2.53313747
2.560922672
2.572168816
2.554957157
2.536079689
1.286926007
1.429713068
1.528415684
1.655730336
1.776653677
1.886232415
2.007997224
2.089737427
2.210790043
2.289349724
2.372514007
2.46044339
2.469834634
2.51298954
2.539661194
2.515012749
0.7157099496
0.7642215437
0.8122592845
0.8896518693
0.9537998429
1.032723793
1.11685813
1.236769736
1.340931409
1.462211757
1.589012519
1.690389395
1.806540572
1.918060138
2.00491963
2.104360849
2.200677188
2.308700825
2.398078031
2.441648731
2.470918642
2.485627797
0.4750814825
0.4894930098
0.5056238143
0.5329717982
0.5647524619
0.5809877426
0.6048481469
0.6353784413
0.6840604097
0.7413833138
0.7750311506
0.8383196506
0.9197967581
0.9832647959
1.067503063
1.169564103
1.259211865
1.368564559
1.490017656
1.609945475
1.750458676
1.85979913
1.938200655
2.063456503
2.179518783
2.252128327
2.338395215
2.380499544
2.407807568
0.457621112
0.4664332923
0.4784575803
0.4834119081
0.5040842174
0.5226314331
0.5450638047
0.5734996938
0.5898159262
0.6285552313
0.6546844638
0.7051202982
0.7446327991
0.8065261755
0.8717392272
0.9443491903
1.023542063
1.108926684
1.194496747
1.303052241
1.423942792
1.528502566
1.646996423
1.761578957
1.903731418
2.003819754
2.087524699
2.174493819
2.23742691
2.306909091
0.4444408114
0.4486871627
0.461138986
0.4684777202
0.480106398
0.493903623
0.5061797408
0.5283373629
0.5445525073
0.5818741491
0.6072713574
0.6382816509
0.6760103967
0.7282521396
0.7896196158
0.8284423371
0.8917004525
0.9611271217
1.046705787
1.132093861
1.213570119
1.33641357
1.450000113
1.57433654
1.704626524
1.806070939
1.933703904
2.039975209
2.140067569
2.199459655
0.4390060076
0.4471337338
0.4468608387
0.4561648872
0.4631246786
0.4746530208
0.4822221896
0.4903469806
0.5160626253
0.5339999135
0.5566780561
0.5871658757
0.6034506947
0.6383056582
0.6921090439
0.7377460689
0.793961213
0.8727222814
0.9170951035
1.002410706
1.09898763
1.201387546
1.27245991
1.398435203
1.513160833
1.610590895
1.747737312
1.864974223
1.974177703
2.050400089
0.4347930701
0.4366361534
0.4439193017
0.4465851087
0.4461890952
0.4587768919
0.4728624531
0.477132136
0.4896369299
0.5089201521
0.5273302892
0.5461290536
0.5648025186
0.5849864643
0.6198529095
0.6550898846
0.6983968045
0.7611824054
0.8172350819
0.8962947324
0.9630263913
1.073628045
1.155196152
1.22346026
1.339946484
1.464708534
1.575293833
1.69813899
1.79699211
1.922538366
0.4283221148
0.4280597449
0.4300027468
0.4349932437
0.4448930137
0.4496588355
0.4609461314
0.4701774374
0.480199438
0.4839548194
0.5031525665
0.5190318645
0.5236697229
0.5501010077
0.572262428
0.5977102193
0.632428515
0.6882471043
0.7382661738
0.7825850136
0.8578954305
0.931810555
1.035721096
1.1022785
1.192462203
1.305652577
1.407760793
1.520894687
1.630208197
1.737888933
0.428095532
0.4285650268
0.4285078497
0.4326727663
0.4365227642
0.4419974656
0.4420700929
0.447458962
0.45789212
0.4630584851
0.4775496364
0.4934420353
0.5040343404
0.5259282866
0.5531256327
0.5759620037
0.5902712913
0.6288809435
0.6601831763
0.7129753028
0.7631320454
0.8194098094
0.8911079958
0.9762652603
1.046808324
1.141720708
1.241609017
1.34562129
1.464357843
1.584021683
0.4254958563
0.4237871312
0.4212356421
0.4269635353
0.4296776873
0.4381958554
0.436945723
0.4425408316
0.4505394977
0.4496367727
0.4635691304
0.4780373003
0.4909700218
0.4945687576
0.5146056505
0.5426565611
0.5610895075
0.5877925778
0.621063934
0.6439947014
0.6843566794
0.7249733804
0.7902217846
0.8495948363
0.919862367
1.001375328
1.093922104
1.198946193
1.308753126
1.426209838
0.4133431609
0.4192208347
0.4233445383
0.4257601907
0.4212516584
0.4289163695
0.4294545523
0.4363394568
0.437475571
0.445609982
0.4446509277
0.4552485727
0.4650140446
0.4763338893
0.4931510525
0.511952529
0.5246550098
0.5438741113
0.5700032858
0.5924151721
0.6315395936
0.6666020724
0.7077622855
0.761612868
0.8267679196
0.8911513604
0.9615634029
1.067559296
1.161849977
1.25852763
0.4158363077
0.4131961802
0.416279001
0.423099462
0.4220936629
0.4178974723
0.4291552962
0.4282369884
0.4340474507
0.4440337378
0.4517460203
0.4557827984
0.454660377
0.4632760988
0.4715961425
0.4913053509
0.5003968452
0.519033033
0.5339460204
0.5628001225
0.5707343364
0.6114337382
0.6534069856
0.6987524461
0.741615003
0.7984786099
0.8629303902
0.9400351757
1.020821297
1.11780378
0.4093142559
0.4089874081
0.4098052318
0.4130555439
0.418914451
0.4226023712
0.4307693598
0.433206767
0.4329928392
0.4355155943
0.442561499
0.4449451809
0.454713164
0.4584175957
0.458918806
0.4698880266
0.4759709738
0.4902729219
0.5057999749
0.5261425517
0.5365397345
0.5656943732
0.5942256045
0.6420288787
0.6686395075
0.7157839353
0.7675195497
0.846993203
0.9051694535
0.9857146269
0.4184235948
0.41515009
0.4149559796
0.4168465126
0.4211659747
0.4214319514
0.4217583543
0.4269402948
0.4278338133
0.4302047585
0.4346956728
0.438057828
0.4422879667
0.442995014
0.4500881386
0.4594876104
0.4622031348
0.4750861178
0.4870757121
0.5027023519
0.5242626618
0.5360917484
0.5626483589
0.5963855643
0.6149938985
0.6420302115
0.682431512
0.7368407015
0.8187827098
0.8835670739
0.4207925701
0.4224726611
0.4244754443
0.4187832772
0.4180437967
0.4207024511
0.4207877918
0.4198332702
0.4189147642
0.4194842569
0.4229866849
0.4278436037
0.4333148834
0.4354734998
0.4394211139
0.4482677929
0.4621914218
0.4645323454
0.4753595951
0.4801193205
0.4998187405
0.5112410753
0.5179134488
0.5436019497
0.5758892393
0.5990272396
0.6325854579
0.6783835155
0.7157474447
0.7853607334
0.4196604948
0.4207131179
0.4206347138
0.422346841
0.4194448995
0.4203484729
0.4233511278
0.4250498227
0.4209209391
0.4212066866
0.4208665524
0.4230659707
0.428609734
0.4349970948
0.4368444168
0.4364641648
0.4415677666
0.4525385105
0.455483409
0.4612435945
0.4707854637
0.485603933
0.5062426826
0.5173815123
0.5501004328
0.5678110861
0.5967444961
0.6232747314
0.6571418458
0.707285641
0.4100766667
0.4070906453
0.4083613902
0.4111570177
0.4156997445
0.4150259059
0.4139688945
0.4194750619
0.4195297777
0.4187944001
0.4238674892
0.427356943
0.4281398768
0.4266797123
0.4280083623
0.429896973
0.4328960689
0.4415299797
0.446097305
0.450757684
0.4588739924
0.4738919698
0.4821673099
0.5071138844
0.5152557612
0.5424013595
0.5591669414
0.5831042779
0.614623294
0.642098616
0.4116915074
0.4110664627
0.4128486036
0.4146798588
0.4174509524
0.4185280512
0.4173062528
0.4151443164
0.4179917978
0.416017584
0.4179988184
0.4133987605
0.4149222839
0.4221928458
0.4288556379
0.4322647417
0.4340561994
0.4316693021
0.4434421106
0.4467648173
0.4520126659
0.457836581
0.4577670916
0.4784674657
0.4962818573
0.5200465217
0.5312388409
0.5469109365
0.5811904963
0.6022650974
0.4172149229
0.4201988373
0.4137430982
0.411988087
0.4078687256
0.4094144171
0.4153590763
0.4181830599
0.4217141571
0.420301652
0.4211076553
0.4223646514
0.4225013951
0.4223910805
0.4272084148
0.4289522774
0.4327301135
0.432061734
0.4339493504
0.4377974233
0.4420890563
0.451528624
0.462883874
0.4668381362
0.4660417743
0.4845579912
0.5054593122
0.5343814281
0.5571819222
0.5825869439
0.4189933993
0.4201853831
0.4209845233
0.4224111316
0.4232474478
0.4196559121
0.4147858568
0.4131011134
0.4132710645
0.4169787446
0.4193860227
0.4249567539
0.4237960411
0.4231466837
0.4250530064
0.4280295012
0.4313007225
0.4310394851
0.4298654432
0.4329181533
0.4398634442
0.4454614959
0.4430345183
0.4526487017
0.4595400687
0.4757283103
0.4864274153
0.4969313049
0.5158371892
0.5410520831
0.4130521446
0.4123637139
0.4119238794
0.4135504297
0.4175901388
0.4212462234
0.4209641283
0.4181742707
0.4190496661
0.4161868088
0.4145960386
0.4174313693
0.4217249861
0.4250356817
0.4240321464
0.4218266876
0.4218790781
0.4265774197
0.4281452296
0.4304213082
0.4360370173
0.4348777221
0.4409892146
0.4451846206
0.4518147035
0.4529006079
0.4680212471
0.4794361754
0.4942015853
0.5165658978
0.4047770492
0.4114541437
0.4112852167
0.4106511371
0.4089954155
0.4049024671
0.4090693658
0.4118082074
0.4114563933
0.4113141361
0.4150450417
0.4112127268
0.4116999234
0.4087807571
0.4097238614
0.4162343079
0.4153803517
0.41845891
0.4132616765
0.4130314123
0.4169648452
0.4287154017
0.429722569
0.4311670943
0.4337913657
0.4338187491
0.4396284434
0.4547038238
0.4584199496
0.4790225392
)
;

boundaryField
{
    flow
    {
        type            calculated;
        value           nonuniform List<scalar> 
55
(
2.537083575
2.566477081
2.536079689
2.515012749
2.485627797
2.407807568
2.306909091
2.199459655
2.050400089
1.922538366
1.737888933
1.584021683
1.426209838
1.25852763
1.11780378
0.9857146269
0.8835670739
0.7853607334
0.707285641
0.642098616
0.6022650974
0.5825869439
0.5410520831
0.5165658978
0.4790225392
0.4047770492
0.4114541437
0.4112852167
0.4106511371
0.4089954155
0.4049024671
0.4090693658
0.4118082074
0.4114563933
0.4113141361
0.4150450417
0.4112127268
0.4116999234
0.4087807571
0.4097238614
0.4162343079
0.4153803517
0.41845891
0.4132616765
0.4130314123
0.4169648452
0.4287154017
0.429722569
0.4311670943
0.4337913657
0.4338187491
0.4396284434
0.4547038238
0.4584199496
0.4790225392
)
;
    }
    obstacle
    {
        type            calculated;
        value           nonuniform List<scalar> 0();
    }
    frontAndBack
    {
        type            empty;
    }
    procBoundary3to1
    {
        type            processor;
        value           nonuniform List<scalar> 
36
(
2.515816562
2.677537511
2.648620599
2.637674636
2.586144268
2.586144268
2.239922755
2.331805439
2.439999753
2.490145675
2.573374729
2.570650673
2.570650673
1.500730874
1.621651925
1.729679156
1.85391049
1.952813467
1.952813467
0.8062402729
0.8519540473
0.947465683
1.015456481
1.098784
1.183853865
1.183853865
0.4998773907
0.5149390474
0.5374394969
0.573454592
0.6040289616
0.62113547
0.6600035079
0.6600035079
0.4661124039
0.4661124039
)
;
    }
    procBoundary3to2
    {
        type            processor;
        value           nonuniform List<scalar> 
19
(
0.4467034528
0.4328698911
0.4328539985
0.428556782
0.4232271164
0.4258028518
0.4201636946
0.4144857228
0.4130374818
0.4114176233
0.4166268493
0.4183443162
0.4188624754
0.4093188379
0.4081016468
0.4172515917
0.4147145556
0.4151455706
0.4055442692
)
;
    }
}


// ************************************************************************* //
