/*--------------------------------*- C++ -*----------------------------------*\
| =========                 |                                                 |
| \\      /  F ield         | OpenFOAM: The Open Source CFD Toolbox           |
|  \\    /   O peration     | Version:  2406                                  |
|   \\  /    A nd           | Website:  www.openfoam.com                      |
|    \\/     M anipulation  |                                                 |
\*---------------------------------------------------------------------------*/
FoamFile
{
    version     2.0;
    format      ascii;
    arch        "LSB;label=32;scalar=64";
    class       volScalarField;
    location    "0.011";
    object      rhoMMean;
}
// * * * * * * * * * * * * * * * * * * * * * * * * * * * * * * * * * * * * * //

dimensions      [1 -3 0 0 0 0 0];

internalField   nonuniform List<scalar> 
654
(
1.169718213e-05
1.172290304e-05
1.190105872e-05
1.189438481e-05
1.185018352e-05
1.193535783e-05
9.474748144e-06
9.876276214e-06
1.037291865e-05
1.070233303e-05
1.108173979e-05
1.144178898e-05
1.156670655e-05
1.16880944e-05
1.186279618e-05
1.187141549e-05
1.183367446e-05
6.817030316e-06
7.216294545e-06
7.529304797e-06
7.927479933e-06
8.392946992e-06
8.829896919e-06
9.300157733e-06
9.659049929e-06
1.014502673e-05
1.052318894e-05
1.087740125e-05
1.126018425e-05
1.140142456e-05
1.159130477e-05
1.175509511e-05
1.176812552e-05
5.326627557e-06
5.435127837e-06
5.503660728e-06
5.672186618e-06
5.845670616e-06
6.066011806e-06
6.286426444e-06
6.605533376e-06
6.965245517e-06
7.331823889e-06
7.744315895e-06
8.127962907e-06
8.55495943e-06
9.006978196e-06
9.407459283e-06
9.868758318e-06
1.026960924e-05
1.070551387e-05
1.112157749e-05
1.136305317e-05
1.153364075e-05
1.168759042e-05
4.893903864e-06
4.911830984e-06
4.934150285e-06
4.983226677e-06
5.043914471e-06
5.073065772e-06
5.123417812e-06
5.188478728e-06
5.317633626e-06
5.457982921e-06
5.553994484e-06
5.688560028e-06
5.872469233e-06
6.058828924e-06
6.268663076e-06
6.518485222e-06
6.837091373e-06
7.171013937e-06
7.543720705e-06
7.959319358e-06
8.405657346e-06
8.847143585e-06
9.240477404e-06
9.724685572e-06
1.014970477e-05
1.055766711e-05
1.093157616e-05
1.123529278e-05
1.146940047e-05
4.8745635e-06
4.884241664e-06
4.907391053e-06
4.939630583e-06
4.969287624e-06
4.994303954e-06
5.041763137e-06
5.113074239e-06
5.163248086e-06
5.2087965e-06
5.248316212e-06
5.363938709e-06
5.458888313e-06
5.613869133e-06
5.763014939e-06
5.968786528e-06
6.172864025e-06
6.397496277e-06
6.657339508e-06
6.968243537e-06
7.370085888e-06
7.706290945e-06
8.128022554e-06
8.547746181e-06
9.044511106e-06
9.533948836e-06
9.888695906e-06
1.029593555e-05
1.064990765e-05
1.097774822e-05
4.83284101e-06
4.833400683e-06
4.860212553e-06
4.871055752e-06
4.8897643e-06
4.923919635e-06
4.971929709e-06
5.009032094e-06
5.040635234e-06
5.141741653e-06
5.206593341e-06
5.262398997e-06
5.339530888e-06
5.454733578e-06
5.569997743e-06
5.673795863e-06
5.802830451e-06
5.968501169e-06
6.217425638e-06
6.46224668e-06
6.713073453e-06
7.101193349e-06
7.511850615e-06
7.954410784e-06
8.407499403e-06
8.797838244e-06
9.295124523e-06
9.765412121e-06
1.022590212e-05
1.059594814e-05
4.843089993e-06
4.865667745e-06
4.867960519e-06
4.893090945e-06
4.904413926e-06
4.899424683e-06
4.895966653e-06
4.929337799e-06
4.959301125e-06
4.97498782e-06
4.994531101e-06
5.096501033e-06
5.1587703e-06
5.221974283e-06
5.32248166e-06
5.464993549e-06
5.597514553e-06
5.790846734e-06
5.897361027e-06
6.116587665e-06
6.408654103e-06
6.682150281e-06
6.935434113e-06
7.333051727e-06
7.7224744e-06
8.117566067e-06
8.608620007e-06
9.039168431e-06
9.489678879e-06
9.892095252e-06
4.835271295e-06
4.835467761e-06
4.851914899e-06
4.87089777e-06
4.86154217e-06
4.869107778e-06
4.883636864e-06
4.89605721e-06
4.916711404e-06
4.949171082e-06
4.970361095e-06
5.037342753e-06
5.068168276e-06
5.104776999e-06
5.172704519e-06
5.249820854e-06
5.330454559e-06
5.460239016e-06
5.632416277e-06
5.834930051e-06
6.026390979e-06
6.307007396e-06
6.549085251e-06
6.78420937e-06
7.139934931e-06
7.573555647e-06
7.975116339e-06
8.425999362e-06
8.885389015e-06
9.36521145e-06
4.805072e-06
4.800636272e-06
4.798008621e-06
4.787460395e-06
4.827410716e-06
4.844817325e-06
4.884596186e-06
4.898955926e-06
4.920306076e-06
4.910839279e-06
4.965264324e-06
4.959257785e-06
4.972693944e-06
5.026592742e-06
5.073901111e-06
5.139270045e-06
5.239640376e-06
5.387890234e-06
5.512259112e-06
5.607740558e-06
5.781127941e-06
5.982787013e-06
6.273164844e-06
6.522225223e-06
6.797196125e-06
7.1504521e-06
7.514934624e-06
7.890089023e-06
8.265394842e-06
8.689305408e-06
4.808670065e-06
4.805655784e-06
4.824809914e-06
4.82438713e-06
4.831854987e-06
4.823287844e-06
4.823578057e-06
4.819041461e-06
4.855599471e-06
4.883611666e-06
4.90905376e-06
4.922210057e-06
4.950707942e-06
5.000849772e-06
5.027054348e-06
5.073420147e-06
5.101860334e-06
5.197938435e-06
5.315215321e-06
5.452518698e-06
5.587907264e-06
5.76752488e-06
5.944078417e-06
6.190213362e-06
6.414387146e-06
6.676920162e-06
6.97205056e-06
7.314733186e-06
7.743804895e-06
8.218073869e-06
4.86924878e-06
4.854273586e-06
4.822919163e-06
4.827483418e-06
4.819527725e-06
4.842337107e-06
4.835328062e-06
4.838503473e-06
4.850983209e-06
4.838332228e-06
4.866077993e-06
4.901218139e-06
4.93167858e-06
4.942463367e-06
5.007301369e-06
5.091398241e-06
5.138062981e-06
5.172774043e-06
5.245052532e-06
5.278425669e-06
5.399842519e-06
5.476944991e-06
5.611130704e-06
5.786298389e-06
5.982345103e-06
6.226589548e-06
6.517966244e-06
6.839076712e-06
7.224651323e-06
7.603655269e-06
4.740748251e-06
4.782191095e-06
4.793832652e-06
4.805857444e-06
4.791898174e-06
4.801590633e-06
4.793033695e-06
4.793896924e-06
4.798111749e-06
4.82342462e-06
4.830350907e-06
4.840838903e-06
4.891191664e-06
4.918321683e-06
4.933262779e-06
4.977084871e-06
5.018272251e-06
5.073889623e-06
5.125861959e-06
5.198287466e-06
5.261274448e-06
5.341783813e-06
5.434810497e-06
5.556139842e-06
5.730626343e-06
5.931860836e-06
6.153316345e-06
6.454009619e-06
6.724642711e-06
7.081000635e-06
4.779820964e-06
4.76774549e-06
4.76433313e-06
4.776740538e-06
4.772647846e-06
4.756173577e-06
4.803167931e-06
4.792489436e-06
4.812683861e-06
4.858537486e-06
4.848006667e-06
4.866209423e-06
4.874117936e-06
4.903601464e-06
4.942178591e-06
4.967245715e-06
4.983220454e-06
5.005043379e-06
5.005027932e-06
5.085217901e-06
5.130304323e-06
5.239161358e-06
5.344184912e-06
5.461109971e-06
5.574978439e-06
5.732296756e-06
5.897620984e-06
6.102378697e-06
6.366298928e-06
6.636044222e-06
4.737022062e-06
4.725883659e-06
4.731934208e-06
4.748448522e-06
4.759869621e-06
4.801542026e-06
4.830334087e-06
4.835585367e-06
4.830423154e-06
4.816843336e-06
4.833639847e-06
4.85925035e-06
4.853960448e-06
4.868341212e-06
4.84260493e-06
4.878683695e-06
4.874507812e-06
4.883892068e-06
4.944674233e-06
4.978049577e-06
4.992413704e-06
5.053145222e-06
5.108772832e-06
5.198955979e-06
5.318376863e-06
5.458446188e-06
5.624470235e-06
5.833467505e-06
5.986833775e-06
6.221985396e-06
4.801752027e-06
4.793760004e-06
4.794456563e-06
4.801319165e-06
4.786798131e-06
4.794272012e-06
4.778146515e-06
4.815583762e-06
4.84172275e-06
4.848973395e-06
4.828424983e-06
4.834213551e-06
4.834327919e-06
4.823552451e-06
4.818254366e-06
4.833121127e-06
4.834178054e-06
4.868175767e-06
4.896433742e-06
4.943986581e-06
4.984199436e-06
5.036764163e-06
5.106487233e-06
5.184594343e-06
5.229543094e-06
5.275041457e-06
5.374437202e-06
5.523678967e-06
5.750429537e-06
5.943301143e-06
4.809868607e-06
4.8491326e-06
4.87288504e-06
4.833790573e-06
4.830386182e-06
4.819431544e-06
4.794681428e-06
4.784253514e-06
4.758352241e-06
4.744378252e-06
4.750659161e-06
4.750428095e-06
4.776814324e-06
4.807075957e-06
4.829022127e-06
4.867844452e-06
4.908193695e-06
4.924912604e-06
4.977376821e-06
4.970090731e-06
5.039979682e-06
5.032645727e-06
5.005142541e-06
5.062039472e-06
5.128916093e-06
5.163353211e-06
5.251809175e-06
5.362312509e-06
5.452183494e-06
5.671572897e-06
4.848807341e-06
4.832414069e-06
4.835091755e-06
4.844471317e-06
4.837996464e-06
4.850955961e-06
4.854760038e-06
4.859384035e-06
4.829294893e-06
4.826758444e-06
4.8198592e-06
4.842149919e-06
4.837474553e-06
4.859627516e-06
4.872045958e-06
4.848723085e-06
4.851310713e-06
4.869928246e-06
4.855565487e-06
4.870697002e-06
4.891669035e-06
4.903738481e-06
4.980382856e-06
4.990774286e-06
5.088072293e-06
5.138026708e-06
5.221324263e-06
5.282923383e-06
5.368185924e-06
5.477682704e-06
4.792868977e-06
4.769059113e-06
4.776076152e-06
4.77614376e-06
4.787175569e-06
4.783948017e-06
4.772936398e-06
4.812326678e-06
4.829249657e-06
4.825688631e-06
4.857599454e-06
4.862752063e-06
4.84431764e-06
4.820320767e-06
4.808111774e-06
4.822619364e-06
4.800039432e-06
4.845172347e-06
4.838362453e-06
4.852372653e-06
4.889241989e-06
4.941128084e-06
4.954363037e-06
5.008643875e-06
5.024441685e-06
5.058737123e-06
5.100761966e-06
5.163540221e-06
5.257680965e-06
5.303952658e-06
4.779646585e-06
4.768922187e-06
4.791075399e-06
4.7893372e-06
4.803546414e-06
4.808413156e-06
4.812913017e-06
4.791213563e-06
4.801822068e-06
4.791235126e-06
4.801489597e-06
4.761601768e-06
4.771737822e-06
4.820934913e-06
4.837029332e-06
4.854264493e-06
4.871863831e-06
4.860261901e-06
4.903287503e-06
4.911756421e-06
4.896213563e-06
4.899888946e-06
4.885915283e-06
4.949699541e-06
5.0095558e-06
5.067790557e-06
5.058385477e-06
5.087714909e-06
5.16568254e-06
5.226206815e-06
4.808990142e-06
4.820568747e-06
4.784028359e-06
4.791280533e-06
4.779703914e-06
4.799433844e-06
4.837092654e-06
4.862955964e-06
4.862940809e-06
4.856813632e-06
4.857924329e-06
4.865684833e-06
4.885534619e-06
4.85984299e-06
4.862571261e-06
4.874674848e-06
4.878334848e-06
4.838188329e-06
4.839558956e-06
4.846367299e-06
4.877145011e-06
4.927240758e-06
4.966206874e-06
4.955777526e-06
4.92516265e-06
4.97967057e-06
5.050879652e-06
5.139494992e-06
5.207303263e-06
5.253352695e-06
4.832768814e-06
4.846181674e-06
4.858273458e-06
4.868501516e-06
4.86272312e-06
4.844868267e-06
4.810969401e-06
4.785284144e-06
4.806899011e-06
4.820967844e-06
4.819302057e-06
4.840296041e-06
4.814320213e-06
4.818247674e-06
4.830358586e-06
4.83959953e-06
4.848416431e-06
4.857230067e-06
4.866010181e-06
4.864437606e-06
4.853270893e-06
4.846620006e-06
4.845612125e-06
4.870197003e-06
4.911135023e-06
4.956589872e-06
4.970947403e-06
4.988261162e-06
5.016841917e-06
5.091790203e-06
4.798860005e-06
4.790399533e-06
4.786793512e-06
4.801232124e-06
4.820302591e-06
4.826083717e-06
4.831553253e-06
4.81718055e-06
4.81423086e-06
4.808602473e-06
4.798302326e-06
4.82774561e-06
4.849798216e-06
4.861667839e-06
4.830772611e-06
4.832195786e-06
4.828996161e-06
4.845300577e-06
4.857660924e-06
4.861681156e-06
4.856101435e-06
4.847548473e-06
4.876537368e-06
4.887948022e-06
4.888574851e-06
4.870425238e-06
4.92973931e-06
4.948792531e-06
5.002323598e-06
5.045309217e-06
4.714000106e-06
4.734470618e-06
4.729448676e-06
4.738854642e-06
4.720099555e-06
4.697239944e-06
4.725925686e-06
4.747060388e-06
4.740822699e-06
4.740588596e-06
4.76454628e-06
4.712765931e-06
4.714722601e-06
4.712451725e-06
4.712979118e-06
4.739768445e-06
4.754307255e-06
4.737098392e-06
4.71317801e-06
4.74102002e-06
4.763373161e-06
4.808146501e-06
4.776937112e-06
4.785619271e-06
4.772669422e-06
4.791039817e-06
4.806395659e-06
4.830434104e-06
4.842344668e-06
4.89791845e-06
)
;

boundaryField
{
    flow
    {
        type            calculated;
        value           nonuniform List<scalar> 
55
(
1.169718213e-05
1.193535783e-05
1.183367446e-05
1.176812552e-05
1.168759042e-05
1.146940047e-05
1.097774822e-05
1.059594814e-05
9.892095252e-06
9.36521145e-06
8.689305408e-06
8.218073869e-06
7.603655269e-06
7.081000635e-06
6.636044222e-06
6.221985396e-06
5.943301143e-06
5.671572897e-06
5.477682704e-06
5.303952658e-06
5.226206815e-06
5.253352695e-06
5.091790203e-06
5.045309217e-06
4.89791845e-06
4.714000106e-06
4.734470618e-06
4.729448676e-06
4.738854642e-06
4.720099555e-06
4.697239944e-06
4.725925686e-06
4.747060388e-06
4.740822699e-06
4.740588596e-06
4.76454628e-06
4.712765931e-06
4.714722601e-06
4.712451725e-06
4.712979118e-06
4.739768445e-06
4.754307255e-06
4.737098392e-06
4.71317801e-06
4.74102002e-06
4.763373161e-06
4.808146501e-06
4.776937112e-06
4.785619271e-06
4.772669422e-06
4.791039817e-06
4.806395659e-06
4.830434104e-06
4.842344668e-06
4.89791845e-06
)
;
    }
    obstacle
    {
        type            calculated;
        value           nonuniform List<scalar> 0();
    }
    frontAndBack
    {
        type            empty;
    }
    procBoundary3to1
    {
        type            processor;
        value           nonuniform List<scalar> 
36
(
1.149604617e-05
1.194461233e-05
1.19169211e-05
1.188800365e-05
1.181817121e-05
1.181817121e-05
1.013463958e-05
1.053415105e-05
1.096099539e-05
1.123810712e-05
1.153257794e-05
1.161009877e-05
1.161009877e-05
7.383961703e-06
7.777616016e-06
8.157779238e-06
8.598382375e-06
8.992065483e-06
8.992065483e-06
5.495437191e-06
5.597011276e-06
5.839110374e-06
6.030998946e-06
6.266854622e-06
6.514207749e-06
6.514207749e-06
4.933078634e-06
4.954223674e-06
4.979685553e-06
5.04860315e-06
5.063204568e-06
5.13314204e-06
5.231667557e-06
5.231667557e-06
4.859388305e-06
4.859388305e-06
)
;
    }
    procBoundary3to2
    {
        type            processor;
        value           nonuniform List<scalar> 
19
(
4.86086363e-06
4.806268107e-06
4.848958866e-06
4.825794385e-06
4.796243636e-06
4.81922595e-06
4.856134064e-06
4.748558579e-06
4.759110501e-06
4.750931539e-06
4.798590964e-06
4.815713096e-06
4.848437895e-06
4.789243851e-06
4.756335732e-06
4.83079888e-06
4.806337268e-06
4.805968587e-06
4.729832433e-06
)
;
    }
}


// ************************************************************************* //
