/*--------------------------------*- C++ -*----------------------------------*\
| =========                 |                                                 |
| \\      /  F ield         | OpenFOAM: The Open Source CFD Toolbox           |
|  \\    /   O peration     | Version:  2406                                  |
|   \\  /    A nd           | Website:  www.openfoam.com                      |
|    \\/     M anipulation  |                                                 |
\*---------------------------------------------------------------------------*/
FoamFile
{
    version     2.0;
    format      ascii;
    arch        "LSB;label=32;scalar=64";
    class       volScalarField;
    location    "0.011";
    object      rhoM;
}
// * * * * * * * * * * * * * * * * * * * * * * * * * * * * * * * * * * * * * //

dimensions      [1 -3 0 0 0 0 0];

internalField   nonuniform List<scalar> 
654
(
1.409870675e-05
1.067231601e-05
1.445182833e-05
6.780532029e-06
7.312479638e-06
1.523259739e-05
1.056046528e-05
1.475333012e-05
1.074343968e-05
1.199252563e-05
1.156021494e-05
1.148282081e-05
1.267905728e-05
1.270213234e-05
1.161022419e-05
1.368613015e-05
9.556306112e-06
4.15137026e-06
9.793437799e-06
4.81119643e-06
4.340474833e-06
1.390332107e-05
9.262235497e-06
1.02140057e-05
1.276840746e-05
7.639461094e-06
1.039483043e-05
7.955571356e-06
1.286308652e-05
9.204957952e-06
1.077478925e-05
1.331240515e-05
7.474847314e-06
5.223347451e-06
4.226985443e-06
4.502743607e-06
3.078956007e-06
4.0846447e-06
8.399628413e-06
2.98890659e-06
6.193898917e-06
9.538271338e-06
5.532138526e-06
9.269569877e-06
5.712628413e-06
9.42879826e-06
6.428086486e-06
7.550928722e-06
1.568155851e-05
1.37420355e-05
1.249722574e-05
8.560566474e-06
1.272562901e-05
1.415554471e-05
1.031299302e-05
3.227441785e-06
2.797462722e-06
7.770118045e-06
2.225868965e-06
3.248585216e-06
7.325581747e-06
7.303907819e-06
8.151501029e-06
2.951131913e-06
7.477217416e-06
8.833026579e-06
5.635510943e-06
7.823105594e-06
6.559045067e-06
6.613059517e-06
6.499727838e-06
9.191955408e-06
6.609491682e-06
9.43477671e-06
8.380452939e-06
9.510481465e-06
1.03039912e-05
8.872194461e-06
8.408285398e-06
8.483742602e-06
1.178252345e-05
7.98851445e-06
7.4993422e-06
1.11639808e-05
3.203785551e-06
4.728955841e-06
5.5195644e-06
3.199892128e-06
3.224054829e-06
4.71685255e-06
5.611163691e-06
4.005124643e-06
6.331503513e-06
2.871631226e-06
2.251371803e-06
2.91741938e-06
7.515982265e-06
5.352859925e-06
8.468235416e-06
1.096547467e-05
5.402080828e-06
5.616964479e-06
6.866118394e-06
7.358026071e-06
5.06349709e-06
8.981768e-06
5.685329634e-06
1.173884077e-05
6.056785867e-06
1.158586956e-05
1.251865412e-05
8.638794406e-06
1.284299047e-05
7.474847314e-06
6.481827318e-06
5.404004439e-06
5.368842553e-06
7.846043801e-06
3.300553908e-06
3.248585192e-06
4.442327728e-06
5.57624406e-06
4.511506095e-06
4.705910891e-06
6.351531398e-06
8.104159685e-06
2.368975859e-06
6.670059771e-06
6.060560594e-06
6.613059517e-06
8.524745754e-06
6.127970373e-06
6.951660537e-06
1.09939036e-05
4.015151762e-06
7.573279076e-06
7.550928722e-06
7.706809957e-06
9.131321174e-06
9.21326709e-06
7.271783746e-06
1.058963427e-05
6.749633856e-06
1.485539366e-05
4.917062686e-06
3.451855295e-06
3.780798049e-06
3.809133266e-06
4.298739772e-06
2.784235473e-06
6.857671835e-06
5.81106062e-06
5.777425506e-06
3.350556675e-06
3.617446142e-06
4.052079874e-06
4.575116911e-06
7.000351589e-06
7.14027685e-06
6.110470068e-06
4.304433712e-06
6.893454126e-06
4.892445281e-06
6.146066731e-06
3.928140192e-06
7.220096317e-06
1.137065927e-05
9.588856013e-06
6.689714351e-06
4.652091485e-06
9.388436195e-06
9.566806834e-06
8.905327727e-06
1.163776491e-05
3.203785551e-06
4.278320845e-06
4.310146235e-06
3.199892151e-06
7.291448444e-06
6.10990177e-06
7.403253789e-06
4.948174672e-06
3.403349984e-06
6.301688614e-06
3.537316672e-06
7.211804096e-06
4.73795168e-06
4.612183045e-06
6.393550238e-06
4.855004514e-06
5.40208074e-06
5.362486576e-06
3.690719511e-06
7.530567302e-06
5.150508695e-06
7.044565454e-06
3.908262886e-06
7.258087005e-06
8.0456786e-06
8.117881789e-06
5.246870378e-06
6.687954539e-06
1.293642175e-05
1.021869196e-05
4.321218212e-06
3.227441738e-06
2.646740756e-06
4.951689703e-06
4.912581358e-06
5.10412124e-06
7.247909649e-06
3.377055316e-06
5.1444658e-06
4.067984115e-06
6.271401977e-06
4.294384783e-06
6.535037962e-06
5.847305828e-06
4.316865088e-06
5.441022866e-06
4.895318071e-06
4.25564888e-06
6.866118337e-06
3.029898043e-06
2.444736899e-06
5.723842008e-06
6.307195997e-06
7.706809957e-06
5.063428251e-06
8.574658482e-06
9.480175273e-06
4.55195965e-06
4.687371145e-06
6.244376393e-06
2.682197348e-06
4.878564933e-06
5.065577285e-06
5.409079302e-06
5.987266221e-06
6.805494886e-06
2.337671993e-06
2.19918871e-06
5.619662163e-06
2.792130563e-06
7.4772173e-06
4.213616414e-06
7.515982324e-06
2.306091523e-06
6.060560594e-06
5.357593974e-06
5.570323985e-06
3.14881114e-06
3.260941026e-06
6.318608022e-06
7.508233966e-06
7.132330915e-06
3.109331812e-06
6.003389634e-06
4.430499758e-06
8.665574515e-06
1.058547992e-05
9.381651853e-06
1.012445078e-05
5.487689483e-06
4.39547446e-06
4.278320845e-06
4.310146235e-06
6.551635815e-06
6.677606894e-06
7.65711324e-06
6.234417784e-06
4.005124704e-06
4.115191339e-06
4.546909564e-06
6.431660918e-06
4.700178402e-06
4.656534314e-06
4.035660165e-06
2.490422189e-06
4.185557347e-06
2.615902216e-06
4.255648845e-06
4.291582396e-06
3.722148328e-06
2.444736919e-06
5.195128385e-06
6.929062359e-06
7.617497156e-06
7.685249689e-06
6.567917081e-06
4.602478976e-06
5.294817184e-06
5.250217035e-06
6.150075371e-06
6.407571103e-06
5.254395379e-06
4.082241901e-06
3.885059022e-06
6.063765344e-06
5.722633198e-06
3.273491723e-06
4.476649654e-06
4.590387745e-06
4.067984115e-06
8.280448659e-06
4.052079843e-06
6.862675312e-06
2.882614381e-06
3.570138425e-06
2.427502238e-06
4.895318031e-06
4.340474833e-06
3.605177341e-06
4.328127942e-06
5.063497047e-06
4.666414803e-06
5.063463272e-06
3.942717845e-06
4.520607004e-06
5.838392668e-06
5.338609494e-06
4.551959691e-06
6.936496357e-06
5.487689483e-06
3.799630017e-06
4.278320876e-06
2.722101738e-06
3.427669395e-06
9.901661723e-06
5.027040039e-06
3.35116382e-06
4.476649688e-06
6.331503562e-06
1.754779015e-06
4.502743676e-06
7.617597768e-06
7.10692752e-06
6.423828708e-06
6.974782022e-06
4.688146816e-06
6.667971146e-06
6.723802219e-06
6.179713252e-06
1.904209487e-06
4.539324422e-06
4.490883924e-06
2.5759978e-06
8.782881595e-06
4.43049972e-06
7.388357375e-06
3.221957009e-06
6.595377048e-06
7.875325481e-06
8.420136081e-06
7.226184188e-06
4.353125325e-06
8.090944252e-06
3.275817907e-06
4.37523885e-06
5.414308694e-06
5.455819579e-06
5.57624406e-06
3.482231634e-06
9.173319792e-06
5.305974966e-06
2.350089183e-06
5.309841331e-06
2.306091523e-06
7.14027685e-06
3.013520585e-06
5.402080784e-06
2.979159233e-06
3.260941026e-06
9.348506065e-06
5.150508651e-06
8.806237197e-06
3.819730547e-06
2.688020475e-06
8.228070908e-06
5.290699971e-06
5.98300089e-06
2.693697314e-06
3.374816928e-06
8.137233332e-06
3.79962999e-06
3.752881303e-06
5.065577285e-06
6.627561571e-06
8.289634369e-06
6.72841381e-06
5.766507885e-06
3.926852473e-06
4.669269395e-06
3.350556675e-06
6.511790337e-06
3.078956007e-06
3.022282876e-06
7.57687447e-06
2.906159199e-06
3.68296784e-06
3.713549323e-06
5.616964433e-06
6.265255452e-06
5.798899059e-06
5.500658068e-06
6.956800112e-06
2.48746545e-06
5.646138168e-06
5.876571323e-06
6.386085374e-06
6.535653124e-06
2.6011198e-06
6.936496357e-06
5.487689433e-06
4.84280647e-06
3.752881303e-06
6.881526016e-06
5.9423947e-06
5.449923793e-06
2.707154327e-06
4.519999825e-06
5.182991238e-06
6.01407041e-06
4.067984115e-06
3.939900686e-06
4.619410063e-06
4.16606207e-06
5.434936989e-06
7.305771678e-06
3.013520585e-06
4.388555277e-06
2.46815334e-06
3.605177311e-06
9.348506143e-06
4.278289609e-06
5.019597584e-06
3.819730547e-06
7.079461333e-06
6.419392615e-06
8.483742676e-06
3.958087574e-06
7.523389476e-06
6.093356672e-06
3.500531652e-06
1.564764668e-06
5.779834959e-06
8.241666178e-06
3.351743639e-06
4.912581322e-06
5.876795449e-06
5.065581779e-06
2.199188727e-06
4.748151045e-06
5.822763161e-06
4.743132052e-06
7.536829465e-06
7.106927576e-06
2.388168563e-06
4.732602133e-06
4.771575665e-06
3.713549353e-06
3.57499105e-06
9.440654199e-06
6.75204634e-06
3.142932753e-06
3.786639538e-06
4.441596872e-06
1.349136958e-281
6.50949986e-06
2.006741477e-06
5.155131169e-06
2.786274804e-06
5.250216987e-06
1.248875267e-05
9.164024647e-06
3.827685787e-06
4.990216285e-06
3.199892151e-06
2.763211436e-06
6.341145146e-06
3.428835918e-06
5.026446874e-06
3.957428039e-06
6.381189229e-06
5.225845537e-06
5.186740323e-06
2.368975859e-06
2.882614403e-06
4.898096962e-06
5.943612369e-06
8.947386834e-06
5.532138481e-06
5.063529681e-06
5.712628413e-06
7.68225711e-06
4.578649362e-06
7.194659477e-06
7.796122824e-06
3.344857146e-06
4.104398835e-06
6.535653182e-06
3.251399779e-06
3.281385647e-06
6.338677418e-06
3.278041814e-06
4.878564933e-06
6.95688703e-06
5.560930854e-06
4.451737929e-06
4.485609174e-06
6.156745687e-06
2.277460945e-06
4.511506095e-06
7.019116005e-06
5.788688447e-06
4.700178328e-06
7.678817129e-06
7.000351589e-06
4.898096923e-06
4.938433364e-06
3.629427752e-06
2.46815334e-06
2.660078141e-06
5.712628461e-06
4.452312855e-06
1.937202486e-06
1.865599087e-06
5.108102349e-06
9.041213929e-06
5.838392668e-06
5.338609541e-06
4.829692162e-06
3.281385617e-06
6.812461308e-06
3.278041767e-06
4.278320814e-06
3.251449893e-06
3.73320751e-06
4.451737929e-06
4.872877825e-06
4.67534402e-06
4.005124674e-06
2.295193872e-06
5.105335676e-06
6.351531447e-06
6.321400772e-06
5.554093497e-06
2.882614381e-06
7.14027685e-06
4.688146778e-06
4.304433677e-06
4.936306679e-06
4.377124632e-06
4.58693988e-06
2.444736899e-06
3.082395115e-06
4.44159691e-06
1.254697371e-06
5.153535541e-06
6.567917081e-06
7.363522844e-06
3.994257225e-06
7.312479638e-06
6.150075427e-06
4.172705781e-06
5.404004439e-06
6.502899787e-06
3.275817883e-06
5.526422913e-06
5.414308694e-07
5.298598072e-06
5.732788419e-06
5.777425462e-06
5.264337044e-06
3.939900686e-06
4.052079843e-06
7.106927576e-06
7.741028511e-06
5.231086517e-06
3.68296781e-06
3.629427752e-06
3.999120846e-06
6.780576137e-06
4.24185726e-06
1.833552689e-06
3.698874137e-06
4.441596872e-06
4.659379437e-06
3.25474993e-06
6.658832962e-06
8.560566474e-06
6.595376989e-06
4.031094021e-06
5.487689433e-06
3.799630017e-06
2.251367189e-06
8.090944252e-06
4.418374381e-06
4.37523885e-06
2.861316599e-06
2.805581866e-06
4.554921855e-06
6.331503562e-06
2.313205114e-06
3.939900686e-06
5.834838805e-06
5.228423887e-06
4.363968248e-06
2.988906614e-06
6.027041218e-06
5.57032394e-06
3.659817003e-06
6.866118337e-06
3.029898068e-06
5.674681277e-06
3.698874137e-06
3.37492893e-06
2.777333341e-06
4.430499758e-06
3.28395854e-06
5.338609494e-06
3.43655476e-06
8.718465244e-06
4.068616666e-06
3.203785551e-06
3.227441761e-06
4.385507199e-06
3.885059022e-06
6.140264422e-06
6.57425151e-06
3.35116382e-06
4.476649688e-06
4.748151045e-06
3.430057339e-06
3.377057705e-06
5.105971981e-06
3.594172489e-06
3.541214305e-06
4.732602095e-06
5.943612369e-06
1.181768717e-06
4.851480726e-06
4.377124596e-06
6.92458763e-06
3.142932753e-06
5.811607458e-06
3.90826292e-06
5.646138168e-06
4.610714209e-06
2.645350009e-06
5.799522617e-06
2.601119823e-06
6.186787953e-06
3.311929688e-06
)
;

boundaryField
{
    flow
    {
        type            zeroGradient;
    }
    obstacle
    {
        type            calculated;
        value           nonuniform List<scalar> 0();
    }
    frontAndBack
    {
        type            empty;
    }
    procBoundary3to1
    {
        type            processor;
        value           nonuniform List<scalar> 
36
(
1.031299302e-05
1.888331078e-05
1.196600178e-05
9.381651853e-06
9.748467412e-06
9.748467412e-06
9.781944383e-06
1.065116663e-05
1.470560981e-05
1.394665697e-05
1.657684594e-05
8.408285544e-06
8.408285544e-06
1.071041536e-05
7.868525187e-06
6.077086738e-06
6.978280022e-06
1.055683785e-05
1.055683785e-05
5.856307156e-06
5.822763116e-06
3.939900686e-06
2.917419403e-06
5.963148301e-06
7.164505631e-06
7.164505631e-06
5.929443938e-06
4.310146204e-06
4.494300137e-06
6.601107864e-06
4.485609207e-06
1.714417959e-06
7.225635617e-06
7.225635617e-06
6.929159375e-06
6.929159375e-06
)
;
    }
    procBoundary3to2
    {
        type            processor;
        value           nonuniform List<scalar> 
19
(
7.543964963e-06
3.254189527e-06
3.180473627e-06
3.106757705e-06
5.399077245e-06
7.026172009e-06
6.064302043e-06
4.66013659e-06
4.363491336e-06
4.289775436e-06
5.399077245e-06
5.843154299e-06
3.624550681e-06
5.990586057e-06
3.771982508e-06
5.325361345e-06
3.698266581e-06
5.769438399e-06
4.289775436e-06
)
;
    }
}


// ************************************************************************* //
