/*--------------------------------*- C++ -*----------------------------------*\
| =========                 |                                                 |
| \\      /  F ield         | OpenFOAM: The Open Source CFD Toolbox           |
|  \\    /   O peration     | Version:  2406                                  |
|   \\  /    A nd           | Website:  www.openfoam.com                      |
|    \\/     M anipulation  |                                                 |
\*---------------------------------------------------------------------------*/
FoamFile
{
    version     2.0;
    format      ascii;
    arch        "LSB;label=32;scalar=64";
    class       volScalarField;
    location    "0.011";
    object      rhoN;
}
// * * * * * * * * * * * * * * * * * * * * * * * * * * * * * * * * * * * * * //

dimensions      [0 -3 0 0 0 0 0];

internalField   nonuniform List<scalar> 
654
(
2.991420391e+20
2.197362709e+20
3.048733514e+20
1.398451518e+20
1.552483518e+20
3.133868952e+20
2.215409322e+20
3.023061782e+20
2.253794296e+20
2.54095933e+20
2.428446524e+20
2.450045928e+20
2.609368172e+20
2.632997103e+20
2.37736758e+20
2.822697305e+20
1.994280261e+20
8.749726551e+19
2.016407216e+20
1.016575232e+20
8.96951167e+19
2.842792145e+20
1.954772947e+20
2.1029995e+20
2.651522679e+20
1.604816419e+20
2.158619132e+20
1.633363952e+20
2.746703363e+20
1.940103145e+20
2.237522429e+20
2.82269733e+20
1.566934491e+20
1.07240914e+20
8.406414597e+19
9.683319584e+19
6.100324947e+19
8.609090961e+19
1.735767813e+20
6.249804679e+19
1.26025452e+20
2.033150481e+20
1.153222929e+20
1.938267371e+20
1.172863759e+20
1.971562032e+20
1.325761351e+20
1.604816419e+20
3.237928699e+20
2.858386941e+20
2.609368218e+20
1.801524333e+20
2.65705786e+20
2.96383217e+20
2.136728851e+20
6.779865104e+19
5.691915687e+19
1.605680649e+20
4.62230083e+19
6.986204766e+19
1.525282893e+20
1.537067401e+20
1.668191995e+20
6.004581901e+19
1.573539457e+20
1.830097498e+20
1.106883124e+20
1.61178441e+20
1.37495704e+20
1.386279961e+20
1.397790933e+20
1.922038183e+20
1.421396061e+20
1.954772931e+20
1.70868708e+20
1.988641993e+20
2.139755207e+20
1.888791741e+20
1.769477615e+20
1.78535717e+20
2.494418308e+20
1.678141821e+20
1.552483518e+20
2.27917742e+20
6.730170614e+19
1.016979751e+20
1.138383121e+20
6.881488446e+19
6.933451245e+19
9.314939619e+19
1.173294515e+20
8.276516651e+19
1.310722272e+20
6.004581855e+19
4.841659792e+19
6.100324899e+19
1.598831153e+20
1.115850728e+20
1.749945324e+20
2.268458155e+20
1.143647146e+20
1.153222929e+20
1.421396084e+20
1.563818371e+20
1.051499759e+20
1.856065891e+20
1.203612314e+20
2.428446545e+20
1.225022985e+20
2.472033048e+20
2.632997126e+20
1.817986973e+20
2.68156244e+20
1.566934491e+20
1.346034123e+20
1.129977509e+20
1.138383137e+20
1.605680649e+20
6.933451245e+19
6.986204714e+19
9.386356194e+19
1.182359539e+20
9.532525688e+19
9.607330968e+19
1.331456443e+20
1.708090985e+20
4.919480549e+19
1.363817567e+20
1.249960936e+20
1.386279961e+20
1.779006656e+20
1.28135881e+20
1.421396072e+20
2.345727517e+20
7.88624806e+19
1.590913608e+20
1.604816419e+20
1.618964349e+20
1.905591277e+20
1.922692354e+20
1.524366757e+20
2.237522429e+20
1.411348665e+20
3.133868981e+20
1.009525599e+20
6.779865055e+19
7.968681904e+19
8.028403246e+19
9.24460166e+19
5.821837305e+19
1.407953429e+20
1.18235953e+20
1.191565711e+20
7.205498226e+19
7.262489744e+19
8.540454992e+19
9.838961099e+19
1.487800982e+20
1.499953123e+20
1.26025452e+20
8.895033354e+19
1.409494691e+20
1.033742598e+20
1.303181954e+20
7.886248126e+19
1.458337486e+20
2.407224629e+20
2.023705437e+20
1.361136639e+20
9.61346177e+19
1.940103128e+20
1.957832125e+20
1.834753248e+20
2.421626031e+20
6.730170614e+19
9.039820073e+19
9.1070651e+19
6.881488497e+19
1.50224777e+20
1.280804198e+20
1.525282882e+20
1.064123585e+20
7.149394266e+19
1.321008018e+20
7.262489744e+19
1.464077976e+20
9.838961021e+19
9.918673216e+19
1.37495704e+20
1.008203616e+20
1.143647127e+20
1.15322292e+20
7.753069486e+19
1.563818358e+20
1.051499759e+20
1.458337474e+20
8.024082027e+19
1.484050653e+20
1.633363952e+20
1.648022018e+20
1.108630369e+20
1.398451518e+20
2.68156244e+20
2.136728831e+20
8.973560819e+19
6.779865006e+19
5.691915604e+19
1.032223267e+20
1.040017694e+20
1.047930723e+20
1.525282893e+20
7.094157237e+19
1.07240914e+20
8.406414597e+19
1.331456453e+20
8.540454992e+19
1.352857151e+20
1.239834152e+20
8.749726551e+19
1.134229068e+20
1.01657524e+20
8.96951167e+19
1.421396072e+20
6.51590977e+19
5.257498707e+19
1.193185206e+20
1.337347016e+20
1.618964349e+20
1.088909301e+20
1.78535717e+20
1.940103111e+20
9.789160537e+19
9.879440567e+19
1.28203731e+20
5.608475552e+19
1.016979766e+20
1.024544824e+20
1.146914741e+20
1.271132719e+20
1.397240943e+20
4.693178062e+19
4.729438086e+19
1.191565702e+20
6.004581855e+19
1.573539432e+20
8.540454859e+19
1.598831166e+20
4.959336608e+19
1.249960936e+20
1.134229059e+20
1.143647136e+20
6.40679405e+19
6.460891238e+19
1.303181954e+20
1.577249625e+20
1.458337486e+20
6.68673508e+19
1.214223262e+20
9.52795647e+19
1.785357201e+20
2.217260738e+20
1.957832125e+20
2.117022998e+20
1.13958872e+20
8.973560883e+19
9.039820073e+19
9.1070651e+19
1.376297699e+20
1.386690249e+20
1.630114433e+20
1.290623977e+20
8.276516776e+19
8.340959977e+19
9.607330968e+19
1.331456453e+20
9.760519991e+19
9.838961099e+19
8.678839064e+19
4.999843783e+19
8.821781714e+19
5.082876161e+19
8.969511596e+19
9.045247734e+19
7.819091789e+19
5.257498751e+19
1.060609072e+20
1.471081718e+20
1.618964363e+20
1.633363966e+20
1.373351681e+20
9.700515727e+19
1.118761224e+20
1.129078932e+20
1.282037299e+20
1.346034123e+20
1.129977501e+20
7.968681904e+19
8.028403246e+19
1.271132728e+20
1.164367461e+20
7.039767146e+19
9.458876244e+19
9.532525688e+19
8.406414597e+19
1.694580927e+20
8.540454926e+19
1.475844153e+20
6.199170711e+19
7.499765615e+19
5.041018041e+19
1.016575232e+20
8.96951167e+19
7.75306955e+19
9.122273754e+19
1.05149975e+20
9.280329456e+19
1.069877613e+20
8.094821746e+19
9.52795647e+19
1.236016513e+20
1.108630359e+20
9.789160625e+19
1.411348652e+20
1.13958872e+20
7.851865773e+19
9.039820138e+19
5.691915646e+19
6.881488446e+19
2.080035373e+20
1.047930707e+20
7.039767146e+19
9.458876315e+19
1.310722282e+20
3.602749141e+19
9.683319734e+19
1.586084486e+20
1.475844153e+20
1.363817567e+20
1.499953123e+20
1.008203616e+20
1.397790956e+20
1.409494691e+20
1.292178248e+20
3.909545894e+19
9.200622814e+19
9.280329298e+19
5.349388018e+19
1.888791741e+20
9.527956387e+19
1.510686849e+20
6.928939805e+19
1.398451518e+20
1.693618383e+20
1.709383065e+20
1.458203633e+20
9.039820007e+19
1.707574694e+20
6.881488497e+19
9.24460166e+19
1.164367461e+20
1.173294533e+20
1.182359539e+20
7.149394266e+19
1.921466194e+20
1.089373453e+20
4.880259958e+19
1.106883124e+20
4.959336608e+19
1.499953123e+20
6.301272551e+19
1.143647136e+20
6.40679405e+19
6.460891238e+19
1.954772931e+20
1.05149975e+20
1.856065891e+20
8.024082096e+19
5.396547831e+19
1.769477615e+20
1.098681335e+20
1.247209154e+20
5.593806071e+19
7.056743326e+19
1.709383096e+20
7.851865717e+19
7.909842564e+19
1.024544824e+20
1.376297699e+20
1.733362824e+20
1.397240953e+20
1.173294515e+20
8.276516713e+19
9.532525688e+19
7.205498226e+19
1.331456443e+20
6.100324947e+19
6.149350687e+19
1.611784398e+20
6.249804729e+19
7.561527183e+19
7.624314242e+19
1.15322292e+20
1.292178248e+20
1.172863759e+20
1.182937219e+20
1.458337486e+20
5.349388064e+19
1.214223262e+20
1.225022975e+20
1.373351693e+20
1.385787949e+20
5.593806021e+19
1.411348652e+20
1.13958871e+20
1.009525599e+20
7.909842564e+19
1.479898068e+20
1.261606224e+20
1.155575207e+20
5.821837262e+19
9.386356194e+19
1.064123577e+20
1.191565702e+20
8.406414597e+19
8.472904702e+19
9.760519915e+19
8.609090894e+19
1.115850737e+20
1.499953123e+20
6.301272551e+19
8.895033282e+19
5.12543524e+19
7.753069486e+19
1.954772947e+20
9.200622814e+19
1.060609072e+20
8.024082096e+19
1.484050666e+20
1.361136639e+20
1.785357186e+20
8.314727766e+19
1.53829667e+20
1.270213787e+20
7.122429502e+19
3.365085307e+19
1.24297526e+20
1.707574694e+20
6.881488446e+19
1.040017687e+20
1.164367461e+20
1.055965072e+20
4.729438122e+19
9.532525688e+19
1.20091638e+20
9.683319659e+19
1.586084486e+20
1.475844165e+20
4.959336647e+19
9.999687567e+19
1.008203616e+20
7.624314304e+19
7.688152797e+19
1.938267355e+20
1.433500149e+20
6.571873439e+19
7.954568038e+19
9.361429032e+19
1.349136958e-281
1.361136639e+20
4.120055044e+19
1.108630359e+20
5.593806071e+19
1.129078922e+20
2.564074597e+20
1.906881674e+20
7.909842506e+19
1.024544816e+20
6.881488497e+19
5.777876037e+19
1.280804198e+20
7.039767146e+19
1.064123585e+20
8.340959977e+19
1.321008008e+20
1.089373462e+20
1.098058499e+20
4.919480549e+19
6.19917076e+19
9.999687567e+19
1.26025452e+20
1.906078545e+20
1.15322292e+20
1.033742598e+20
1.172863759e+20
1.577249612e+20
9.280329377e+19
1.471081718e+20
1.618964349e+20
6.805683133e+19
8.240110088e+19
1.385787961e+20
6.992257589e+19
7.056743326e+19
1.282037322e+20
6.730170711e+19
1.016979766e+20
1.479898079e+20
1.146914749e+20
9.24460166e+19
9.314939619e+19
1.290623977e+20
4.729438158e+19
9.532525688e+19
1.441099645e+20
1.210414948e+20
9.760519839e+19
1.598831166e+20
1.487800982e+20
9.999687487e+19
1.008203616e+20
7.624314304e+19
5.12543524e+19
5.168712991e+19
1.172863768e+20
9.200622892e+19
3.977284053e+19
4.012041048e+19
1.079309566e+20
1.905591277e+20
1.236016513e+20
1.108630369e+20
9.789160625e+19
7.056743262e+19
1.424485887e+20
6.730170614e+19
9.039820007e+19
6.830298775e+19
8.028403246e+19
9.24460166e+19
1.047930715e+20
9.386356194e+19
8.276516713e+19
4.766262844e+19
1.080824734e+20
1.331456453e+20
1.342071499e+20
1.106883115e+20
6.199170711e+19
1.499953123e+20
1.008203608e+20
8.895033282e+19
1.025087048e+20
9.045247808e+19
9.122273754e+19
5.257498707e+19
6.628806698e+19
9.361429112e+19
2.698273915e+19
1.088909311e+20
1.373351681e+20
1.524366744e+20
8.390709107e+19
1.552483518e+20
1.28203731e+20
8.973560819e+19
1.129977509e+20
1.366059755e+20
6.881488446e+19
1.155575216e+20
1.164367461e+19
1.055965072e+20
1.18235953e+20
1.191565702e+20
1.080824742e+20
8.472904702e+19
8.540454926e+19
1.475844165e+20
1.611784398e+20
1.124964842e+20
7.561527122e+19
7.624314304e+19
7.68815286e+19
1.421396072e+20
9.122273678e+19
3.943124063e+19
7.954568038e+19
9.361429032e+19
9.443958786e+19
6.805683193e+19
1.373351681e+20
1.801524333e+20
1.398451505e+20
8.468091915e+19
1.13958871e+20
7.851865773e+19
4.519910036e+19
1.707574694e+20
9.175317996e+19
9.24460166e+19
5.821837305e+19
5.866472621e+19
9.458876244e+19
1.310722282e+20
4.803665484e+19
8.472904702e+19
1.220064989e+20
1.106883115e+20
8.678839064e+19
6.249804729e+19
1.26025452e+20
1.143647127e+20
7.688152797e+19
1.421396072e+20
6.515909824e+19
1.182937219e+20
7.954568038e+19
6.68673508e+19
5.396547831e+19
9.52795647e+19
6.866758407e+19
1.108630359e+20
6.992257589e+19
1.834753265e+20
8.546915481e+19
6.730170614e+19
6.779865055e+19
9.1070651e+19
8.028403246e+19
1.271132728e+20
1.397240943e+20
7.039767146e+19
9.458876315e+19
9.532525688e+19
7.205498226e+19
7.262489688e+19
1.09805849e+20
7.379220824e+19
7.439004912e+19
9.999687487e+19
1.26025452e+20
2.541438101e+19
1.025087048e+20
9.045247734e+19
1.433500149e+20
6.571873439e+19
1.193185216e+20
8.024082096e+19
1.214223262e+20
9.527956387e+19
5.493406725e+19
1.247209165e+20
5.593806071e+19
1.270213787e+20
7.122429437e+19
)
;

boundaryField
{
    flow
    {
        type            zeroGradient;
    }
    obstacle
    {
        type            calculated;
        value           nonuniform List<scalar> 0();
    }
    frontAndBack
    {
        type            empty;
    }
    procBoundary3to1
    {
        type            processor;
        value           nonuniform List<scalar> 
36
(
2.136728851e+20
3.982719841e+20
2.494418308e+20
1.957832125e+20
1.975888113e+20
1.975888113e+20
2.085091126e+20
2.23443695e+20
3.049251055e+20
2.94216341e+20
3.372842423e+20
1.769477646e+20
1.769477646e+20
2.249929703e+20
1.63833089e+20
1.27071904e+20
1.409494679e+20
2.196703021e+20
2.196703021e+20
1.191565711e+20
1.200916371e+20
8.472904702e+19
6.100324947e+19
1.229870128e+20
1.487800982e+20
1.487800982e+20
1.242975251e+20
9.107065033e+19
9.175317996e+19
1.386690259e+20
9.314939689e+19
3.519883573e+19
1.537067401e+20
1.537067401e+20
1.458203644e+20
1.458203644e+20
)
;
    }
    procBoundary3to2
    {
        type            processor;
        value           nonuniform List<scalar> 
19
(
1.55894653e+20
6.681199412e+19
6.681199412e+19
6.681199365e+19
1.113533235e+20
1.447593206e+20
1.224886568e+20
1.002179912e+20
8.908265883e+19
8.908265883e+19
1.113533235e+20
1.224886559e+20
7.794732648e+19
1.22488655e+20
7.794732703e+19
1.113533235e+20
7.794732648e+19
1.224886559e+20
8.908265883e+19
)
;
    }
}


// ************************************************************************* //
