/*--------------------------------*- C++ -*----------------------------------*\
| =========                 |                                                 |
| \\      /  F ield         | OpenFOAM: The Open Source CFD Toolbox           |
|  \\    /   O peration     | Version:  2406                                  |
|   \\  /    A nd           | Website:  www.openfoam.com                      |
|    \\/     M anipulation  |                                                 |
\*---------------------------------------------------------------------------*/
FoamFile
{
    version     2.0;
    format      ascii;
    arch        "LSB;label=32;scalar=64";
    class       volScalarField;
    location    "0.011";
    object      rhoNMean;
}
// * * * * * * * * * * * * * * * * * * * * * * * * * * * * * * * * * * * * * //

dimensions      [0 -3 0 0 0 0 0];

internalField   nonuniform List<scalar> 
654
(
2.438175967e+20
2.444041644e+20
2.480333685e+20
2.479301983e+20
2.468833706e+20
2.486763863e+20
1.975647536e+20
2.059625136e+20
2.16357021e+20
2.231959224e+20
2.310605543e+20
2.385008345e+20
2.41080649e+20
2.435761683e+20
2.472284299e+20
2.473991544e+20
2.465785094e+20
1.421591936e+20
1.504720971e+20
1.570169758e+20
1.653209137e+20
1.749562359e+20
1.841230257e+20
1.939562982e+20
2.014916189e+20
2.116072026e+20
2.194628824e+20
2.26693593e+20
2.347557424e+20
2.376752334e+20
2.416295385e+20
2.451256023e+20
2.453923011e+20
1.11021427e+20
1.132879e+20
1.146681099e+20
1.182464805e+20
1.218778945e+20
1.26458575e+20
1.310799944e+20
1.377595673e+20
1.452524291e+20
1.529313388e+20
1.615199315e+20
1.694871061e+20
1.784371178e+20
1.877856587e+20
1.961377449e+20
2.057948986e+20
2.142379573e+20
2.232820153e+20
2.319884615e+20
2.369637936e+20
2.404219599e+20
2.436647882e+20
1.020205338e+20
1.023923887e+20
1.028302911e+20
1.038399881e+20
1.050598175e+20
1.056797052e+20
1.067606172e+20
1.081183396e+20
1.108969855e+20
1.13823022e+20
1.158218795e+20
1.186109122e+20
1.224167167e+20
1.263028719e+20
1.30745677e+20
1.359923506e+20
1.426385306e+20
1.495755045e+20
1.573201255e+20
1.659409978e+20
1.753186781e+20
1.845538866e+20
1.927695945e+20
2.028464793e+20
2.117183903e+20
2.201160382e+20
2.279247137e+20
2.342864424e+20
2.390908913e+20
1.015582746e+20
1.017308472e+20
1.022185251e+20
1.029157877e+20
1.035647511e+20
1.041071524e+20
1.051015894e+20
1.065993847e+20
1.07652545e+20
1.085890417e+20
1.094259128e+20
1.117801352e+20
1.137965278e+20
1.171147331e+20
1.201939719e+20
1.244696116e+20
1.287030462e+20
1.334080901e+20
1.388739215e+20
1.453284845e+20
1.537364341e+20
1.607328957e+20
1.694832031e+20
1.782283526e+20
1.88638691e+20
1.987564511e+20
2.061926505e+20
2.146470522e+20
2.219974448e+20
2.289019343e+20
1.006894707e+20
1.007035956e+20
1.01260215e+20
1.014915288e+20
1.018755103e+20
1.026040599e+20
1.03606173e+20
1.043937484e+20
1.050397671e+20
1.071457586e+20
1.085324065e+20
1.097193353e+20
1.113010113e+20
1.136905375e+20
1.161190983e+20
1.182989452e+20
1.21020971e+20
1.243989728e+20
1.295819841e+20
1.346684537e+20
1.399211588e+20
1.479983541e+20
1.565887463e+20
1.658113851e+20
1.753119227e+20
1.835322217e+20
1.93876775e+20
2.035764014e+20
2.132008955e+20
2.20857474e+20
1.009525599e+20
1.014206177e+20
1.014713326e+20
1.020274508e+20
1.022452944e+20
1.02095973e+20
1.020190255e+20
1.027104975e+20
1.033369114e+20
1.036827525e+20
1.040956863e+20
1.062321686e+20
1.075130113e+20
1.088168622e+20
1.10878353e+20
1.138261883e+20
1.166358361e+20
1.20748265e+20
1.22991875e+20
1.275364943e+20
1.335595865e+20
1.393013608e+20
1.445769386e+20
1.529136358e+20
1.609952416e+20
1.692343822e+20
1.795200101e+20
1.885417763e+20
1.979018741e+20
2.063432576e+20
1.008587447e+20
1.00872065e+20
1.012105401e+20
1.015394907e+20
1.013481478e+20
1.015518951e+20
1.018355649e+20
1.021279175e+20
1.025699764e+20
1.032264051e+20
1.036401302e+20
1.049987922e+20
1.056212466e+20
1.063529736e+20
1.078420851e+20
1.094519594e+20
1.11111672e+20
1.138894998e+20
1.174684004e+20
1.217053484e+20
1.257641507e+20
1.316119439e+20
1.366695692e+20
1.415048431e+20
1.488860738e+20
1.579554194e+20
1.663651045e+20
1.757929837e+20
1.854152877e+20
1.95315145e+20
1.001163865e+20
1.000235539e+20
9.999557334e+19
9.980243547e+19
1.006590055e+20
1.010078195e+20
1.018291659e+20
1.020999708e+20
1.025374792e+20
1.023355427e+20
1.034728728e+20
1.034127093e+20
1.037160667e+20
1.048471386e+20
1.058489647e+20
1.071766272e+20
1.092402512e+20
1.123472107e+20
1.149803699e+20
1.170020452e+20
1.206165794e+20
1.248360982e+20
1.309019575e+20
1.360935774e+20
1.417982642e+20
1.490860632e+20
1.566620664e+20
1.645087498e+20
1.723487653e+20
1.812256862e+20
1.002428328e+20
1.001981882e+20
1.005958132e+20
1.005739963e+20
1.00705227e+20
1.005526562e+20
1.005300073e+20
1.004640137e+20
1.012245896e+20
1.018246074e+20
1.023592903e+20
1.026052465e+20
1.032330624e+20
1.042835776e+20
1.0483536e+20
1.058384651e+20
1.06442358e+20
1.084705179e+20
1.108900384e+20
1.136848548e+20
1.165157314e+20
1.202634278e+20
1.239380268e+20
1.291197658e+20
1.33807156e+20
1.393177898e+20
1.454749809e+20
1.525456342e+20
1.614839482e+20
1.713604739e+20
1.015032103e+20
1.011864042e+20
1.005109519e+20
1.005990206e+20
1.004194855e+20
1.009231367e+20
1.007966659e+20
1.008681672e+20
1.01146597e+20
1.008747917e+20
1.014657847e+20
1.021948626e+20
1.028171435e+20
1.030257095e+20
1.04371739e+20
1.061409279e+20
1.071100631e+20
1.078321673e+20
1.093182798e+20
1.100643793e+20
1.126036744e+20
1.142010818e+20
1.169862539e+20
1.206349218e+20
1.247815826e+20
1.298166919e+20
1.359332009e+20
1.426979942e+20
1.507705288e+20
1.586851379e+20
9.882337796e+19
9.966812459e+19
9.992934086e+19
1.00204899e+20
9.994464917e+19
1.000996121e+20
9.992416148e+19
9.994377624e+19
1.000308582e+20
1.005734708e+20
1.007131259e+20
1.009481772e+20
1.019830671e+20
1.025838769e+20
1.028536038e+20
1.03767065e+20
1.04614833e+20
1.057563669e+20
1.068443466e+20
1.08393937e+20
1.097478967e+20
1.113928792e+20
1.133900062e+20
1.159203004e+20
1.195077969e+20
1.237464775e+20
1.283541994e+20
1.346276563e+20
1.402700934e+20
1.477269578e+20
9.966974862e+19
9.940309494e+19
9.933531185e+19
9.958347902e+19
9.950763164e+19
9.916600037e+19
1.001545539e+20
9.995237597e+19
1.003926609e+20
1.013114893e+20
1.010652482e+20
1.014650411e+20
1.016700093e+20
1.022660293e+20
1.030990506e+20
1.036112526e+20
1.039702327e+20
1.044167646e+20
1.044033036e+20
1.059913433e+20
1.069184064e+20
1.09194524e+20
1.113742585e+20
1.138843301e+20
1.162831394e+20
1.195390273e+20
1.229748237e+20
1.272336617e+20
1.327796812e+20
1.383408894e+20
9.873976069e+19
9.856280114e+19
9.868953815e+19
9.902670477e+19
9.92723145e+19
1.001461868e+20
1.007412019e+20
1.008638677e+20
1.007392982e+20
1.004555627e+20
1.007813493e+20
1.012920137e+20
1.01142284e+20
1.014454846e+20
1.008991194e+20
1.016773339e+20
1.015997633e+20
1.017864844e+20
1.0309233e+20
1.038067356e+20
1.041438809e+20
1.053956169e+20
1.065671049e+20
1.084264578e+20
1.109029375e+20
1.138858114e+20
1.173359254e+20
1.216652821e+20
1.248273742e+20
1.297110973e+20
1.001245443e+20
9.997424649e+19
9.997487692e+19
1.001402547e+20
9.988582062e+19
9.999376052e+19
9.96447033e+19
1.003780246e+20
1.009061174e+20
1.010713053e+20
1.006955199e+20
1.008416988e+20
1.008426429e+20
1.005776007e+20
1.004741335e+20
1.007584954e+20
1.007564679e+20
1.014952656e+20
1.02056238e+20
1.030603678e+20
1.039240219e+20
1.050412771e+20
1.064674117e+20
1.080805882e+20
1.090319943e+20
1.099430456e+20
1.12110245e+20
1.152018924e+20
1.199056154e+20
1.239302722e+20
1.003080951e+20
1.011021695e+20
1.015913802e+20
1.00761674e+20
1.006527016e+20
1.004510386e+20
9.998389283e+19
9.979974335e+19
9.929425318e+19
9.898607775e+19
9.907796615e+19
9.905596734e+19
9.961948034e+19
1.002890574e+20
1.007286702e+20
1.015283947e+20
1.024060923e+20
1.027230412e+20
1.038347452e+20
1.0366931e+20
1.050974e+20
1.049328048e+20
1.043592665e+20
1.055343997e+20
1.069729658e+20
1.077082269e+20
1.095175627e+20
1.118634082e+20
1.137700979e+20
1.183307488e+20
1.010769654e+20
1.007426312e+20
1.008007214e+20
1.009952268e+20
1.008396947e+20
1.010967341e+20
1.011486543e+20
1.012443717e+20
1.005898108e+20
1.005407194e+20
1.004270286e+20
1.008816282e+20
1.008023926e+20
1.012674001e+20
1.015445546e+20
1.010953263e+20
1.011538572e+20
1.01555839e+20
1.012151466e+20
1.015486767e+20
1.01962019e+20
1.022161993e+20
1.038389161e+20
1.040528011e+20
1.060473929e+20
1.070739881e+20
1.088246678e+20
1.101293283e+20
1.118942873e+20
1.142126885e+20
9.987573191e+19
9.936816693e+19
9.9509174e+19
9.947712947e+19
9.972403936e+19
9.967408799e+19
9.947404303e+19
1.003006346e+20
1.006656377e+20
1.006302414e+20
1.012875236e+20
1.014251125e+20
1.010125886e+20
1.00525753e+20
1.002718671e+20
1.005385229e+20
1.000841412e+20
1.009640842e+20
1.008180963e+20
1.011340279e+20
1.01921392e+20
1.030237085e+20
1.032893889e+20
1.044011237e+20
1.047258521e+20
1.054559301e+20
1.06320172e+20
1.076553405e+20
1.096566591e+20
1.106100362e+20
9.95922504e+19
9.936200485e+19
9.982378243e+19
9.97982656e+19
1.001589558e+20
1.002583887e+20
1.003358812e+20
9.989433287e+19
1.000936862e+20
9.985728799e+19
1.000749071e+20
9.922899396e+19
9.944059014e+19
1.004468545e+20
1.007491241e+20
1.011251141e+20
1.015165898e+20
1.012902491e+20
1.022183476e+20
1.023969305e+20
1.02086288e+20
1.021920954e+20
1.018547803e+20
1.031967124e+20
1.044585743e+20
1.056307203e+20
1.054257088e+20
1.059975398e+20
1.075704282e+20
1.088488516e+20
1.002183588e+20
1.004940354e+20
9.971201318e+19
9.986499519e+19
9.962108811e+19
1.000212819e+20
1.007923994e+20
1.013325113e+20
1.013025838e+20
1.011979474e+20
1.012237018e+20
1.013984929e+20
1.017840518e+20
1.012155509e+20
1.01285471e+20
1.015558912e+20
1.016205568e+20
1.007870245e+20
1.008110489e+20
1.009515833e+20
1.015605364e+20
1.025970544e+20
1.034693229e+20
1.032261481e+20
1.025925806e+20
1.037854351e+20
1.053224037e+20
1.07179867e+20
1.086404871e+20
1.096258449e+20
1.007445358e+20
1.010199893e+20
1.0130161e+20
1.014894428e+20
1.013397444e+20
1.009760633e+20
1.002804164e+20
9.974814948e+19
1.001825112e+20
1.004861322e+20
1.004050211e+20
1.008594452e+20
1.003260974e+20
1.004400918e+20
1.007127616e+20
1.008616063e+20
1.010360269e+20
1.012343352e+20
1.0136551e+20
1.013472758e+20
1.011566657e+20
1.009748046e+20
1.009696988e+20
1.014845358e+20
1.023648996e+20
1.033434655e+20
1.036393013e+20
1.040498773e+20
1.046219926e+20
1.062018978e+20
1.000225727e+20
9.97975591e+19
9.969545488e+19
1.000276485e+20
1.00394273e+20
1.005081992e+20
1.00594006e+20
1.003070831e+20
1.002908362e+20
1.001738932e+20
1.000044838e+20
1.006176505e+20
1.011266303e+20
1.013350266e+20
1.006673093e+20
1.007584946e+20
1.006802239e+20
1.009943708e+20
1.012856299e+20
1.013733403e+20
1.012474771e+20
1.010929179e+20
1.016942986e+20
1.019039939e+20
1.01951609e+20
1.015281443e+20
1.027498774e+20
1.031218149e+20
1.042345141e+20
1.051348303e+20
9.821766261e+19
9.867785411e+19
9.856949119e+19
9.877021292e+19
9.837516793e+19
9.792965384e+19
9.851620805e+19
9.895704422e+19
9.88241271e+19
9.878956416e+19
9.927823404e+19
9.817086565e+19
9.818612338e+19
9.816330542e+19
9.818329518e+19
9.87466701e+19
9.902829081e+19
9.871122323e+19
9.821024565e+19
9.877645326e+19
9.923528892e+19
1.001745277e+20
9.952293339e+19
9.971839201e+19
9.94248436e+19
9.982768522e+19
1.001672734e+20
1.006351139e+20
1.008960321e+20
1.020916086e+20
)
;

boundaryField
{
    flow
    {
        type            calculated;
        value           nonuniform List<scalar> 
55
(
2.438175967e+20
2.486763863e+20
2.465785094e+20
2.453923011e+20
2.436647882e+20
2.390908913e+20
2.289019343e+20
2.20857474e+20
2.063432576e+20
1.95315145e+20
1.812256862e+20
1.713604739e+20
1.586851379e+20
1.477269578e+20
1.383408894e+20
1.297110973e+20
1.239302722e+20
1.183307488e+20
1.142126885e+20
1.106100362e+20
1.088488516e+20
1.096258449e+20
1.062018978e+20
1.051348303e+20
1.020916086e+20
9.821766261e+19
9.867785411e+19
9.856949119e+19
9.877021292e+19
9.837516793e+19
9.792965384e+19
9.851620805e+19
9.895704422e+19
9.88241271e+19
9.878956416e+19
9.927823404e+19
9.817086565e+19
9.818612338e+19
9.816330542e+19
9.818329518e+19
9.87466701e+19
9.902829081e+19
9.871122323e+19
9.821024565e+19
9.877645326e+19
9.923528892e+19
1.001745277e+20
9.952293339e+19
9.971839201e+19
9.94248436e+19
9.982768522e+19
1.001672734e+20
1.006351139e+20
1.008960321e+20
1.020916086e+20
)
;
    }
    obstacle
    {
        type            calculated;
        value           nonuniform List<scalar> 0();
    }
    frontAndBack
    {
        type            empty;
    }
    procBoundary3to1
    {
        type            processor;
        value           nonuniform List<scalar> 
36
(
2.396347881e+20
2.489936516e+20
2.483457985e+20
2.477089887e+20
2.463034346e+20
2.463034346e+20
2.112860749e+20
2.196320085e+20
2.285299168e+20
2.343153529e+20
2.404162079e+20
2.420175208e+20
2.420175208e+20
1.539520081e+20
1.622085063e+20
1.700776571e+20
1.792411284e+20
1.87473919e+20
1.87473919e+20
1.145354626e+20
1.166657502e+20
1.217611425e+20
1.257443344e+20
1.306949443e+20
1.358520094e+20
1.358520094e+20
1.028135711e+20
1.032410009e+20
1.037394817e+20
1.05172052e+20
1.055340326e+20
1.070065939e+20
1.090242983e+20
1.090242983e+20
1.01305384e+20
1.01305384e+20
)
;
    }
    procBoundary3to2
    {
        type            processor;
        value           nonuniform List<scalar> 
19
(
1.01256614e+20
1.001329577e+20
1.010703503e+20
1.006249362e+20
9.997098927e+19
1.004508209e+20
1.012667378e+20
9.898095699e+19
9.925630339e+19
9.89850062e+19
1.000661457e+20
1.004427224e+20
1.009974644e+20
9.986570905e+19
9.90862372e+19
1.006573307e+20
1.002301388e+20
1.001876221e+20
9.854769133e+19
)
;
    }
}


// ************************************************************************* //
