/*--------------------------------*- C++ -*----------------------------------*\
| =========                 |                                                 |
| \\      /  F ield         | OpenFOAM: The Open Source CFD Toolbox           |
|  \\    /   O peration     | Version:  2406                                  |
|   \\  /    A nd           | Website:  www.openfoam.com                      |
|    \\/     M anipulation  |                                                 |
\*---------------------------------------------------------------------------*/
FoamFile
{
    version     2.0;
    format      ascii;
    arch        "LSB;label=32;scalar=64";
    class       volScalarField;
    location    "0.011";
    object      translationalT;
}
// * * * * * * * * * * * * * * * * * * * * * * * * * * * * * * * * * * * * * //

dimensions      [1 2 -2 0 0 0 0];

internalField   nonuniform List<scalar> 
654
(
753.6785068
770.1331028
767.3085844
762.1219195
750.7497089
747.5138527
755.6389017
762.2955638
769.089079
763.613288
766.0409116
764.9573392
761.0493333
761.514318
753.5593464
748.0003719
744.9447704
655.6846686
688.1915184
705.0359785
725.4011033
735.5119876
741.999314
749.8521208
751.1923173
756.7169408
755.5574026
758.0292117
759.1254571
752.6626238
753.2810795
750.4184652
742.3276897
466.9244891
488.5985265
513.0603262
544.9394828
566.8246211
591.4966669
617.131904
650.2546736
668.6510982
692.516593
712.5537005
722.3813048
733.2953357
739.8031919
740.3757628
740.6312137
744.0058076
748.9111863
748.7094739
746.3071338
744.3903177
738.8558657
337.2849122
346.2543372
356.141725
371.7543013
389.347951
398.1913114
410.3473956
425.6469346
446.7773192
471.7686722
484.6686767
511.9191821
544.2112937
563.8630903
591.3685094
622.9109316
639.4084239
662.7064777
685.99908
702.7063425
723.1694614
729.8930817
728.2434799
736.7908894
745.6215223
741.0676383
743.0925352
735.9314242
729.4157673
326.3676776
332.0880766
339.0238348
340.2136583
352.5392993
363.6062682
375.6249766
389.668137
396.8337461
419.2507492
433.3394817
456.8935101
473.9467544
498.7964303
525.3156084
549.5227552
576.0143082
602.0562514
622.9894251
649.4227308
670.8603756
688.775683
703.853696
715.8824631
730.9561188
730.2201667
733.2884492
733.7525978
729.9906278
729.9572401
319.7026797
322.7119664
329.8446148
334.3301551
341.3375753
348.653532
353.8633053
366.5668903
375.4934922
393.3421451
405.2656246
421.3525187
439.9169215
463.9528558
492.5277184
507.2216888
533.6724169
559.6035247
585.0546059
608.8817605
628.1999305
654.0341028
670.6931825
687.7009608
704.2618961
712.7527233
722.4047451
725.7948115
727.0342389
721.307258
314.9702462
319.3210787
318.9666928
323.833087
328.0733831
336.7317282
342.3595309
345.7841444
361.7123466
373.0362798
387.3359184
400.3327901
406.5342763
424.8629874
452.1100497
469.4411045
493.0417345
523.4938302
540.0753491
569.2822257
595.9833697
624.6606795
637.4725476
662.3881222
680.75126
689.3075608
705.1470556
716.4429972
722.5247665
719.7219238
312.2377852
313.5199517
317.6835221
318.5559046
318.874315
327.2125144
336.3192739
338.3846038
345.7564682
357.0879936
368.5285771
376.7275496
387.3127008
398.393811
416.3099305
433.5046452
455.2594439
484.0848133
503.8976692
533.4056148
554.6228131
590.8468798
612.2098471
626.2315818
651.8531652
671.6346349
685.8288313
699.6616967
701.9675457
712.94413
309.8715715
309.9691769
311.4632836
315.6877828
320.1248245
322.4367525
327.8644966
333.5435673
339.1996644
342.5269322
352.2001918
363.5268618
365.7024158
380.016331
391.5840748
403.9308266
419.3195933
443.709269
465.0564494
484.4561531
515.1619154
540.6346068
573.0771391
586.6378888
609.1021193
634.3179279
650.850762
669.6171122
685.0957903
694.5742321
309.3169838
309.794185
308.5284939
311.5948391
313.9578068
318.3776953
318.5017503
322.5960823
327.6374579
329.3817293
337.915144
348.3236624
353.6370168
365.2809388
382.1487088
394.1546945
401.6553695
419.926347
431.2095015
454.2430357
474.3856331
493.4963935
520.7654527
547.6353935
566.6360876
593.5669411
618.1771556
638.9096824
656.8016894
669.5251115
303.6211073
303.3486067
303.5485257
307.4067758
309.9140122
314.4806499
313.9769224
317.7719952
322.6249851
322.8461219
330.9110672
338.8044639
345.8643857
347.6942164
357.1149519
370.3041515
379.418301
394.8136565
411.4906047
423.7911743
440.1962626
459.799236
489.2496983
510.0998781
533.9354604
558.7052491
582.8774544
608.5527471
628.7205805
650.9739008
302.9475637
304.6512572
306.843792
307.7460588
305.2800882
310.3534872
311.2885174
316.2169422
316.764289
320.9134175
319.7786978
326.6378544
330.2588038
336.3169653
347.277666
357.3440559
363.242755
372.4845523
386.4045345
395.8563215
416.7933494
433.4366519
452.0943094
475.8731244
501.0762046
521.5969363
542.6055683
574.3466922
599.9310918
617.0486452
302.1867694
301.0736823
303.5269423
307.731236
307.2336956
305.2272822
310.3560234
310.3183495
313.1494458
317.4487872
323.7493395
325.3553089
323.8997758
328.1141074
331.3080441
343.4479852
348.595639
360.032055
370.4243399
384.59195
386.6321165
405.5691779
424.9280009
444.4017624
461.9321199
483.8045756
508.2483276
535.1289932
556.8452289
585.2365119
300.2487467
300.5476264
300.7618758
302.1151684
305.6423974
305.6426206
309.709181
311.0828129
311.3136733
314.0119113
318.0605924
318.1615583
325.6275739
327.2992129
329.4313165
334.7238295
339.3158726
348.8704584
355.3602534
367.1083775
373.1509358
388.7547526
403.8727918
428.8799029
436.6820968
455.2277513
473.7779518
504.2311372
525.2141973
550.4152657
302.6857787
300.769227
300.6267016
301.4976167
305.397754
305.2607454
306.5673349
308.0668043
307.0958959
308.2930527
312.6738572
314.6354803
317.6708078
319.0171053
324.4589073
330.2999703
332.2586949
339.0337697
345.6792584
353.2934876
365.3838816
369.654104
382.7690048
399.6647319
408.5387482
422.9646814
440.8899239
463.2659673
494.5902416
516.3908314
303.8424733
302.6596588
302.6300946
301.030403
300.8241858
303.3451205
304.8242347
304.6939494
305.5750953
306.9431553
309.2188897
312.838938
315.047282
314.5028497
315.9688162
319.7911347
326.89817
327.5401123
331.5858322
335.4404079
344.4585477
352.8831008
359.4533814
373.0811994
389.9252234
402.8228501
418.3616205
439.2417789
455.6675242
480.7153319
300.7199887
302.4747781
302.2441289
302.8899086
301.272713
301.1540796
303.1496105
304.0782466
303.0839524
303.4377934
303.5359966
303.7472914
307.969418
311.1237029
311.5921826
312.7043459
316.1777598
322.750592
325.9443496
328.982262
334.4267599
344.0954024
353.1140643
360.1418016
375.7148781
384.0929109
397.1709492
409.914171
425.3707391
448.53557
297.3866622
296.7291736
297.2336366
299.3648908
301.92307
301.5847231
301.4215804
302.9136672
301.8547022
301.4315828
303.1032247
305.1839352
306.9916634
307.4263304
309.164454
309.7050519
313.2815204
316.744943
320.484854
322.821341
326.0952707
333.1643881
338.1103439
351.816927
356.3570513
372.5342146
380.9274064
392.307898
405.9666972
420.4589507
299.4075621
299.6457365
299.5526742
300.958318
301.8784216
302.357157
301.2416555
301.0056506
302.4666379
301.7507258
302.528477
301.7497956
302.2174032
304.4324419
308.3090319
309.6044479
309.6886908
308.6739141
314.2132386
316.0155328
320.7004688
324.4961797
325.5214078
335.8172133
344.1127049
356.589341
364.9721227
373.7121567
391.3289786
400.7561971
301.5289048
302.8523606
300.5381995
298.8049417
296.5415325
296.4743449
298.4779985
298.9055874
301.5185674
300.8193692
301.3195595
301.6980246
300.6524969
302.2622413
305.4984769
305.9287267
308.4266885
310.4971249
311.7793247
314.1061715
315.2834551
318.7621869
324.0237522
327.5616178
329.0222709
338.1627393
347.6016607
361.1224976
371.4682638
384.9144336
301.2326789
301.2659333
300.9997849
301.460829
302.5038779
301.0172014
299.5878621
299.9631605
298.7854796
300.555161
302.5345111
305.1719156
305.9562851
305.140774
305.6856067
307.3719451
309.1863615
308.3937889
307.1558044
309.3927412
314.9486617
319.5314076
317.806596
323.0560006
325.1537168
333.4205614
339.9460275
345.9164275
357.1133329
368.9973086
299.1047178
299.2794699
299.2664365
299.4503463
301.2712561
303.5644643
303.1024097
301.9549195
302.6360427
300.9193818
300.2770071
300.4881246
302.0509454
303.7961092
305.089123
303.2276396
303.5010642
305.9264997
306.1679166
307.5292357
311.9288563
311.5751632
314.0854117
316.4210374
320.9834781
323.0969498
329.9139352
336.74151
343.406879
355.8733909
298.4988679
302.0077909
302.2156759
301.1365305
301.1267632
299.4695061
300.7500256
301.4148783
301.5624276
301.5636346
302.8011982
303.3893487
303.7015969
301.6182895
302.2526075
305.303524
303.8107026
307.0454659
304.7787887
302.8628864
304.3334609
309.9760825
312.7385354
313.1747541
316.011138
314.7557841
317.8896099
327.2619146
329.0832855
339.8461111
)
;

boundaryField
{
    flow
    {
        type            calculated;
        value           nonuniform List<scalar> 
55
(
753.6785068
747.5138527
744.9447704
742.3276897
738.8558657
729.4157673
729.9572401
721.307258
719.7219238
712.94413
694.5742321
669.5251115
650.9739008
617.0486452
585.2365119
550.4152657
516.3908314
480.7153319
448.53557
420.4589507
400.7561971
384.9144336
368.9973086
355.8733909
339.8461111
298.4988679
302.0077909
302.2156759
301.1365305
301.1267632
299.4695061
300.7500256
301.4148783
301.5624276
301.5636346
302.8011982
303.3893487
303.7015969
301.6182895
302.2526075
305.303524
303.8107026
307.0454659
304.7787887
302.8628864
304.3334609
309.9760825
312.7385354
313.1747541
316.011138
314.7557841
317.8896099
327.2619146
329.0832855
339.8461111
)
;
    }
    obstacle
    {
        type            calculated;
        value           nonuniform List<scalar> 0();
    }
    frontAndBack
    {
        type            empty;
    }
    procBoundary3to1
    {
        type            processor;
        value           nonuniform List<scalar> 
36
(
760.4059547
778.867697
772.4659378
771.2512124
760.4990626
760.4990626
767.8538553
768.9765225
773.3269113
769.7335414
775.274843
769.329984
769.329984
706.0474064
724.1031213
736.6050464
749.1477776
754.4601508
754.4601508
509.8482306
528.9190328
563.6002503
584.9103309
608.9336046
631.1730292
631.1730292
352.1514274
361.26012
375.233763
394.9254213
414.554498
420.4285431
438.469457
438.469457
333.2533592
333.2533592
)
;
    }
    procBoundary3to2
    {
        type            processor;
        value           nonuniform List<scalar> 
19
(
319.5304945
313.109855
310.1944804
308.4744204
306.6308864
307.0234012
300.5163507
303.3013406
301.4031385
301.043933
301.5619097
301.6697756
300.3844085
296.8668781
298.3124739
300.2403072
299.6866171
300.1253934
298.063102
)
;
    }
}


// ************************************************************************* //
