/*--------------------------------*- C++ -*----------------------------------*\
| =========                 |                                                 |
| \\      /  F ield         | OpenFOAM: The Open Source CFD Toolbox           |
|  \\    /   O peration     | Version:  2406                                  |
|   \\  /    A nd           | Website:  www.openfoam.com                      |
|    \\/     M anipulation  |                                                 |
\*---------------------------------------------------------------------------*/
FoamFile
{
    version     2.0;
    format      ascii;
    arch        "LSB;label=32;scalar=64";
    class       volVectorField;
    location    "0.011";
    object      UMean;
}
// * * * * * * * * * * * * * * * * * * * * * * * * * * * * * * * * * * * * * //

dimensions      [0 1 -1 0 0 0 0];

internalField   nonuniform List<vector> 
654
(
(1307.655507 414.5935585 0.7882969369)
(1347.189346 438.5654578 -1.092676014)
(1339.016299 438.4133639 -0.4486125604)
(1333.197179 433.074388 -0.8527499986)
(1336.055552 428.4795027 0.1639529086)
(1327.729622 423.9063732 -1.449600907)
(1431.939589 381.5875271 2.007653601)
(1421.023032 392.0981232 0.06422859389)
(1406.982673 408.6203233 -3.340227727)
(1398.23955 418.29455 -4.807790299)
(1384.587545 430.9022489 -1.094003928)
(1369.652326 435.2886358 -3.557681349)
(1369.417326 434.2414755 -3.174872789)
(1363.096639 438.2743111 -1.941557781)
(1358.6735 441.5829114 -1.655681139)
(1355.350551 435.8124595 0.1043545967)
(1351.88319 430.5671608 2.477639156)
(1552.907707 236.6175622 -0.1232089621)
(1531.402618 261.959195 -2.050065998)
(1514.643068 287.8541077 0.8199297463)
(1497.458708 310.6284395 -4.322650224)
(1474.659357 332.0218996 -2.956630477)
(1463.946289 355.1512056 -3.607551731)
(1446.463307 370.4332809 -1.772424483)
(1432.532512 386.1361149 -4.832747434)
(1418.706035 402.9253514 -5.75887922)
(1411.911605 413.6914709 -1.760052703)
(1402.764162 427.508355 -0.2376201172)
(1385.456377 436.9307847 -1.711470659)
(1383.671501 437.091264 -1.601978382)
(1375.773142 434.7597684 -1.876792667)
(1369.167567 438.7546899 -3.993468057)
(1370.093273 434.7414619 -1.604170341)
(1665.384191 82.37265747 0.4022425513)
(1656.790111 94.28943648 -0.4812782124)
(1645.053361 113.6671617 1.594545304)
(1632.823294 131.1218565 5.572098045)
(1624.837261 153.7485214 4.106842849)
(1607.380048 174.0588093 -2.215789919)
(1590.252267 192.9738472 -1.947227768)
(1566.775478 221.9302686 -2.823758782)
(1551.764025 247.190042 -3.359237888)
(1532.734003 275.6162699 -2.697429279)
(1512.402615 297.7309704 -5.844453213)
(1494.418018 318.9204969 -1.468838085)
(1479.086359 344.7492251 -1.781023319)
(1463.390661 362.078081 1.989954146)
(1448.659659 379.7616778 -0.4740766008)
(1435.117404 396.8434485 -2.37265053)
(1425.582228 411.600739 -3.213526017)
(1410.842589 425.7601525 -2.508794015)
(1397.940575 428.4372701 1.968596155)
(1392.605202 435.1017727 1.638543791)
(1386.278117 437.6277117 -0.8895969505)
(1384.606669 434.5667017 -0.6265603227)
(1722.566226 17.22108733 2.129873752)
(1717.951391 21.12968839 2.817625541)
(1714.470172 26.8664363 3.136661238)
(1709.845054 32.13607487 1.802539844)
(1703.953548 40.2918726 0.8364819718)
(1700.939786 46.5128175 1.948165195)
(1693.868287 55.59524668 3.527953612)
(1684.37558 64.60028102 2.715332253)
(1675.726838 75.84128332 0.3764062002)
(1664.463424 89.9669798 -1.735599531)
(1655.654755 101.8995484 -4.56255127)
(1643.539834 122.2372687 -2.942840359)
(1629.512963 141.2254038 -0.9304769126)
(1620.09987 163.01959 -2.100250054)
(1600.999298 186.0038363 -2.84797825)
(1579.548999 207.7288036 -1.65861848)
(1563.444852 228.8629671 -2.258909273)
(1546.769983 260.5946833 -2.216198665)
(1527.001125 283.7461221 -1.0445691)
(1507.383958 308.3117317 -0.432281536)
(1492.805184 333.0411986 -3.410899646)
(1476.977638 352.8253936 0.03393323508)
(1466.652595 372.6288759 0.4503120294)
(1449.200464 390.1191939 -1.333082126)
(1438.277893 402.8487201 -0.1171929343)
(1429.268996 416.287755 -0.1618650535)
(1413.626314 424.9259272 -1.150562542)
(1410.564425 428.4873443 2.306301575)
(1401.750601 437.0016817 1.484398531)
(1726.903376 11.81549899 -1.024557164)
(1726.128039 15.22916707 -1.012451155)
(1722.715194 17.59547422 2.115498017)
(1723.084365 18.3341228 0.2793211861)
(1718.856135 22.86716718 0.1824611336)
(1712.599685 29.53555983 0.3526139776)
(1708.185207 38.61271881 1.130789301)
(1703.051616 45.60079892 -0.139873843)
(1699.030767 50.64432593 -3.246915562)
(1688.781817 58.52359316 -1.652590924)
(1682.066419 67.5061926 -1.474461503)
(1673.818269 83.23544157 -0.3514773945)
(1664.104178 95.72734101 0.4271558454)
(1650.959775 111.9666118 2.869961421)
(1637.346819 129.481103 4.526081358)
(1626.052729 148.9232008 3.739462039)
(1610.573068 173.4909548 0.685041934)
(1596.830204 199.5425991 0.1288706115)
(1582.085002 222.3417332 -1.944786148)
(1559.497419 249.5941819 -2.496268612)
(1539.463512 271.7264774 -4.452637439)
(1524.776403 297.7131454 -4.298681964)
(1505.923155 323.2665069 -3.665183531)
(1490.567322 344.1657608 1.943789276)
(1472.799433 362.8909877 -0.03571521358)
(1457.015797 383.9247207 -2.087254112)
(1447.014746 397.2628027 -0.6728241372)
(1439.817517 411.8938801 -1.63456603)
(1429.855078 422.7028993 -2.198530845)
(1422.726614 429.8552812 -1.615077631)
(1731.547049 8.416270895 0.6849589029)
(1729.995257 7.658365312 -0.7544849706)
(1727.558749 12.60390819 -0.3540125759)
(1724.694482 13.49443056 0.4271424468)
(1722.734568 17.6662718 -1.704034995)
(1719.572461 20.72422425 -0.3993616428)
(1717.163846 23.36911433 0.3934835824)
(1714.822777 29.65261616 -0.8530413937)
(1711.301371 38.17339589 0.04364240955)
(1701.003025 48.331373 -1.451152343)
(1693.960506 57.1114232 -3.034656311)
(1686.603358 64.10140418 -4.144685775)
(1680.713604 76.38377179 -3.853537531)
(1667.784855 91.17024375 -4.883595765)
(1653.180451 107.7558638 -5.23054133)
(1645.721235 121.8264509 -4.912875229)
(1633.612471 143.4309833 0.6647668845)
(1619.640366 163.8149099 1.420692674)
(1602.224847 188.672891 3.508159466)
(1589.551591 210.4014552 2.160932208)
(1575.482683 235.4236168 2.422191722)
(1550.927146 262.8812034 -0.07836308553)
(1533.754375 284.6961771 -4.584771724)
(1514.875449 307.0416519 -3.601217055)
(1497.155682 330.7977244 0.3057718255)
(1485.921054 353.5504494 1.009813306)
(1470.716471 375.8738976 0.2632555154)
(1459.495514 390.1384836 -1.140302972)
(1448.548285 403.2638773 -5.295610611)
(1438.615807 412.6660961 -5.185294131)
(1733.188049 7.74564345 1.363877306)
(1731.432532 7.853519419 1.915657795)
(1730.279947 7.428728462 0.1039878151)
(1728.410203 10.13156865 -1.349643558)
(1726.735137 11.21610994 -1.266672122)
(1724.847172 16.02256289 -3.027556024)
(1721.063915 21.39854615 -2.287152885)
(1716.99872 23.39429252 -1.269225905)
(1713.957532 28.42435598 -0.9687462618)
(1708.983455 34.10298091 -0.2011845774)
(1702.460262 38.9416998 0.1376423768)
(1695.037089 47.22554537 -2.041020493)
(1692.61943 55.5138199 -0.3881824534)
(1686.470798 68.95625748 -2.300070608)
(1674.715034 86.55451533 -1.125689231)
(1667.510359 103.4011661 -1.457067186)
(1656.499455 117.3379966 -1.790199441)
(1641.782802 136.3566053 -2.270274123)
(1632.415937 155.423754 -2.90761399)
(1614.264064 179.3851647 -2.077616497)
(1598.091788 201.7141729 -2.959629066)
(1582.213537 227.0271465 -2.325824951)
(1569.187288 242.5707356 -0.5459622084)
(1546.346426 271.7475642 -4.609943065)
(1525.960693 297.5863826 -3.990019335)
(1514.514168 320.326003 -3.195169243)
(1494.671959 346.6478951 -3.153896472)
(1481.422086 367.0180029 0.5348349887)
(1464.572327 384.2759651 1.904436584)
(1457.865441 396.1076059 -1.150876642)
(1733.623282 3.030546792 -0.01937716173)
(1730.381868 4.142180639 -0.04642202942)
(1731.397072 5.549869061 -0.7342892286)
(1729.035744 8.537942307 -1.354107423)
(1729.475113 13.02914266 0.5118723692)
(1727.223732 15.24100158 0.7057889386)
(1724.084902 16.90117082 -2.589300896)
(1723.948189 19.61781961 -1.145954393)
(1720.379496 21.98165788 -0.5523626235)
(1718.188836 25.71794822 0.1741195488)
(1713.78608 33.24979486 0.07498768681)
(1709.726932 39.75816621 -2.046638164)
(1703.491938 47.19383898 -1.220897283)
(1695.733221 55.23644921 -0.213167987)
(1691.82484 63.37446832 -1.15891112)
(1684.164636 75.38671569 -3.008980382)
(1672.429935 92.84068782 -3.244815617)
(1659.82623 112.0087079 -4.052934505)
(1650.025343 127.5004624 -3.797006789)
(1635.411521 145.859469 -3.262082916)
(1622.457211 164.2758545 -2.027492556)
(1599.063468 188.2320248 -1.591021961)
(1585.389439 214.6240745 -3.253714197)
(1575.791851 235.6913518 -1.716835322)
(1555.927501 261.491583 -0.009550422081)
(1534.977768 290.2847602 -4.112210804)
(1519.656825 310.7287174 -2.703736573)
(1502.532823 333.9192414 -1.424709479)
(1491.52006 353.76161 0.1449351692)
(1477.495457 373.2985672 0.2325361226)
(1730.321067 -0.5263116842 -0.1582631449)
(1731.985689 0.2971549374 0.1840748603)
(1729.656603 4.714272248 1.168069766)
(1729.560868 6.57081097 1.243793941)
(1727.212582 8.23367063 1.541659282)
(1727.831268 10.09446757 2.214576923)
(1725.795589 11.59802544 3.493237334)
(1726.262193 16.29255342 0.5219883399)
(1723.197917 18.85052 -0.1362236173)
(1721.118278 21.20310627 -0.09149753637)
(1717.022836 27.03198306 0.2308232194)
(1713.401661 33.72407831 0.6974358248)
(1712.896876 36.84770633 -1.614602258)
(1706.572041 44.94285756 -4.031997931)
(1701.622179 54.19526435 -3.70771748)
(1694.350377 61.38984 -4.640984012)
(1688.241118 72.29742369 -3.144662714)
(1679.110431 84.53493004 -0.3859791236)
(1669.034252 98.61673967 -0.06359106668)
(1656.857642 117.7452612 -3.455344339)
(1641.455801 138.3944061 -0.9257884613)
(1628.423071 154.9118181 -1.778246217)
(1610.947145 181.7224017 -0.1968219204)
(1596.74965 199.1370684 0.2514530101)
(1582.50809 223.0387993 -1.490809329)
(1564.619222 246.4676112 0.0930527133)
(1548.223369 275.5065354 -0.5770082359)
(1531.951321 302.2977809 0.8590097631)
(1517.582147 328.8608785 0.8498723902)
(1499.655208 347.8015727 1.18664732)
(1733.170472 2.975699623 1.321900273)
(1733.309539 2.482976885 -0.7431069823)
(1732.871234 2.347925026 -1.764078298)
(1733.090191 1.840284653 -1.290812173)
(1730.409582 3.430054989 -2.455526495)
(1730.68756 5.065985514 -2.696540751)
(1729.398501 7.50253204 -1.517079878)
(1727.712261 10.80604331 -0.153965696)
(1725.048816 15.24533442 -1.675064082)
(1724.148512 16.76462902 -1.976307944)
(1722.518718 20.88211893 -1.350543304)
(1716.254708 26.42430151 -0.6751602197)
(1714.632947 33.89571322 2.842853157)
(1714.728028 38.05924348 2.79139829)
(1707.074327 41.76024647 1.372342361)
(1705.156183 47.57177874 1.152080203)
(1699.590292 54.04025445 2.429873029)
(1690.646423 65.14365172 -2.757935478)
(1682.359386 76.24399011 -1.688627273)
(1673.532698 89.98524567 -0.5720671755)
(1665.157595 104.377084 -2.11984209)
(1656.023791 124.0705899 -3.677004541)
(1641.43133 144.1641221 -2.777113192)
(1626.694442 166.9286721 -3.177917336)
(1611.106242 188.144692 -2.67271722)
(1592.461352 217.6830175 -2.043396915)
(1580.979157 242.9105673 -1.612823143)
(1559.414764 270.1593888 1.901630646)
(1540.961775 293.9172832 -0.8046865887)
(1526.578115 315.5571936 -2.821401943)
(1734.318401 4.043276624 -3.843874243)
(1734.909768 5.772689918 -2.753145322)
(1735.437074 5.042580742 -2.863251062)
(1735.324226 4.611470704 -0.7367109637)
(1733.46326 6.583797394 -0.9624587466)
(1732.880097 8.643676026 0.1651179873)
(1733.410226 8.477303604 -1.556994094)
(1729.951428 9.130407018 -1.092562479)
(1728.572936 10.82122329 -1.98198766)
(1729.590732 14.76091623 -0.3300087008)
(1727.30688 17.50274792 0.753454266)
(1725.105255 21.31628524 -1.844332597)
(1722.211651 23.46442003 -2.677953997)
(1719.959175 23.87994867 -1.664833659)
(1715.875663 31.10445757 -2.359557038)
(1709.280732 37.46630203 -2.291505714)
(1705.291918 43.93178041 -3.564601876)
(1700.152271 50.27867669 2.342294636)
(1694.628876 59.12127169 -1.771453588)
(1689.397912 72.14574146 0.6036225212)
(1679.497593 83.90900799 0.3903257124)
(1671.380398 98.25794921 0.5433189786)
(1660.574693 118.5222261 0.7073030731)
(1650.589839 140.1277539 -1.033849206)
(1636.156844 160.6401754 -2.056048127)
(1618.349545 182.4503404 -1.371612534)
(1598.941567 208.0721756 -2.099539199)
(1586.420297 232.6994885 -3.735924388)
(1571.001229 255.7382613 -4.279416986)
(1552.301424 279.4977188 -3.076788088)
(1738.672293 0.4933186535 -0.2560397696)
(1737.738919 2.184735083 -0.06038365717)
(1735.667949 3.909049036 -1.011365784)
(1732.712984 5.346245006 -3.547288288)
(1731.324892 4.948416023 -2.698137216)
(1730.951773 4.528289667 -2.616807387)
(1732.18906 6.610481779 -0.6867602889)
(1731.725498 8.603949734 -2.53892053)
(1732.027728 11.37368948 -1.414440253)
(1729.314146 11.4370724 -0.7631966052)
(1730.256514 11.07503429 -1.421288999)
(1728.957859 10.89562626 -0.1664359663)
(1726.289344 13.96419042 -0.6749895798)
(1722.563505 18.825507 3.278505151)
(1717.73974 24.91941558 3.36102514)
(1715.766968 28.67002204 2.081026533)
(1710.385155 31.90345436 0.7885801797)
(1706.606993 37.41905397 -0.8580206944)
(1699.543578 47.76355607 -2.461993046)
(1696.332641 56.20532887 -1.729527465)
(1687.816665 69.60535681 -2.165387598)
(1682.535916 81.02665048 -0.8861704971)
(1671.03564 95.12261717 -2.458888381)
(1660.36886 114.1426861 -2.731789557)
(1648.244504 129.7117334 -1.616984179)
(1638.050759 147.6018051 -2.805892402)
(1626.014104 170.2261763 -2.080528511)
(1607.930651 195.2032193 -6.318773516)
(1591.451611 220.0100514 -3.24079092)
(1573.639114 249.3003917 -1.918122483)
(1732.570732 -0.7511316998 -2.545646351)
(1733.270633 0.484723448 -3.219767601)
(1733.669181 1.889440447 -2.341774013)
(1732.918225 2.816085361 -1.333315638)
(1735.443937 5.145553755 -0.4005850967)
(1734.222628 5.474491474 -0.7018575285)
(1731.184944 6.153562562 -0.7718877074)
(1732.730187 4.377875598 0.9811042304)
(1733.124931 4.391738149 1.623641025)
(1730.862322 6.404628308 -0.3675916628)
(1729.176676 10.1596735 -1.628431598)
(1727.631547 11.7841864 0.3875902677)
(1728.141445 9.603018643 -0.09895951269)
(1727.278456 10.42638703 -3.452958377)
(1724.593454 12.89687886 -2.99674851)
(1722.423093 22.12686314 -4.67577741)
(1718.165303 26.96409067 -3.411828724)
(1713.81859 33.77283097 -2.016686918)
(1708.184432 39.52027865 -2.96388004)
(1701.474678 44.17688443 -3.811794759)
(1701.33101 50.3624647 -3.710443095)
(1692.059581 64.18549113 -4.519145177)
(1685.630433 77.29261188 -2.392685673)
(1675.172824 86.08560145 -0.7328943252)
(1666.223452 103.9856722 1.049127789)
(1657.710756 120.8682299 1.576977376)
(1645.309013 142.1707544 2.235840155)
(1628.171373 164.521054 3.3789917)
(1614.533434 187.0668182 2.349705719)
(1600.466393 211.7236134 1.350728402)
(1734.775843 1.606585094 0.5507599754)
(1737.661826 -0.9369524653 1.371466624)
(1736.661455 -0.8019110442 1.426733642)
(1737.359051 0.3554095106 0.8859502908)
(1734.97239 -0.9431143533 0.9522886002)
(1735.626704 0.07846597794 0.0906756682)
(1731.604842 1.077173447 0.4775998493)
(1730.272591 2.885527065 -1.128502191)
(1730.070368 3.531234466 -3.081565732)
(1730.8859 4.228552093 -4.898217924)
(1729.441786 3.700090178 -2.847578914)
(1728.916626 4.403120679 -3.121866553)
(1727.401955 10.33584835 -3.264145256)
(1727.820925 12.05982683 -1.365962464)
(1726.461957 14.70617988 0.2421490549)
(1721.666087 13.90132487 -1.21374482)
(1722.975497 17.83930325 0.3907399351)
(1717.998746 24.16297029 -2.607725883)
(1716.260468 29.4683532 -0.2804701033)
(1713.686917 38.18560506 1.955155722)
(1708.861901 40.40824933 1.742795065)
(1701.28744 47.74686216 1.488688842)
(1694.207639 56.8436221 -1.611925443)
(1684.997465 70.43837981 -1.903776812)
(1678.654227 78.34765026 -3.915571927)
(1669.192462 93.67303872 -3.088279124)
(1659.411629 113.5769854 -3.263926501)
(1644.293545 135.6366302 -0.1640438844)
(1632.403896 157.1777862 0.1291739845)
(1618.655016 181.8311122 0.8119030096)
(1736.506885 2.761277233 2.223043593)
(1734.080103 3.089016631 1.537662876)
(1735.577855 1.551538752 1.798141211)
(1734.556226 -0.5189304443 -0.6162892228)
(1734.236043 -1.088249897 -1.776747113)
(1737.014124 -2.063975446 -1.716674917)
(1737.22394 -3.110779669 -3.09967951)
(1734.5493 -0.8704457298 -2.680300699)
(1733.963043 -0.9498333887 -2.176384881)
(1732.866707 -0.183296252 -2.628265581)
(1732.215038 3.938486015 -4.750412981)
(1731.101175 6.159496458 -4.921066118)
(1729.218621 7.699131565 -3.402024555)
(1726.962867 10.96859226 -4.563234568)
(1724.895588 14.66474076 -5.016306312)
(1721.677268 18.76184158 -3.252366728)
(1722.658629 19.0952728 -1.919980626)
(1722.024572 20.3985807 -0.3801366769)
(1717.170054 21.6914743 -0.6402615003)
(1716.257546 24.32948867 -2.176404791)
(1715.12149 31.61465069 -1.647629461)
(1712.977392 37.53409738 0.7373605378)
(1706.474045 45.03461852 2.316380698)
(1699.463968 56.46271995 1.399256719)
(1693.02786 65.16159986 2.578306984)
(1686.831301 77.3591671 1.336866678)
(1675.720963 87.76335653 1.432030245)
(1665.309445 104.3475027 -0.4751811634)
(1649.679898 128.5476159 -1.485029122)
(1635.308957 147.5828313 -2.250758166)
(1737.225177 3.485535073 -5.006869194)
(1735.527419 1.116195065 -5.107385246)
(1735.515678 1.318681776 -5.07976273)
(1736.984154 2.445052565 -5.943623371)
(1735.275261 2.776342089 -4.875221155)
(1734.348541 2.876179522 -2.870900078)
(1734.257903 2.091428016 -1.804539317)
(1733.460684 -1.737296839 -1.82468395)
(1732.87572 0.02934537457 -1.593988265)
(1733.852746 0.283360179 -1.003750982)
(1731.104789 2.91916907 0.3079495097)
(1729.782405 6.106127944 0.08023355341)
(1728.436962 8.615552733 0.3158095929)
(1729.340346 7.839223456 -1.450057712)
(1730.118075 8.859196722 -1.654100716)
(1729.291335 8.588742596 -1.807543438)
(1724.822274 11.16709291 -1.90696515)
(1722.397675 13.64508276 -2.549119189)
(1722.786788 17.08773274 -1.532690653)
(1720.620529 19.41822609 -1.066359381)
(1714.880794 24.20735985 -0.5445147411)
(1712.246266 30.76889939 -2.984931986)
(1711.232894 38.24898528 -2.679904332)
(1707.009438 46.50772751 -3.145912239)
(1700.487625 56.36981669 -3.3751791)
(1699.12165 62.10157691 -2.751188907)
(1692.815489 73.68944349 -3.580803809)
(1682.780247 86.32261685 -2.899865742)
(1672.020396 101.4069027 -2.74642584)
(1654.866144 120.4750637 -1.562975697)
(1736.215587 -1.345691572 -3.545772942)
(1736.218285 1.446074421 -1.872292802)
(1736.432839 1.722071327 -2.426160089)
(1736.525041 2.77149836 -2.170709161)
(1736.763592 3.809996976 -2.326097456)
(1735.945945 5.090949282 -3.777697416)
(1733.690746 4.479330124 -3.771326921)
(1733.232656 5.920472615 -4.594671097)
(1733.171311 6.310972156 -1.515694343)
(1733.715149 4.025980092 1.577634126)
(1732.985439 5.165932527 1.323963359)
(1733.249526 2.39567004 2.213079912)
(1734.092911 3.381689538 2.273408128)
(1732.202587 5.008658061 1.261852903)
(1730.445028 1.850001688 0.3914115913)
(1730.444927 4.696915605 0.8213500563)
(1730.420166 8.976982003 0.4033617665)
(1729.039369 12.07469998 -0.3710036492)
(1725.960804 14.09214944 -1.403975767)
(1723.712477 18.62155017 -2.018144587)
(1720.276513 23.19216485 -3.359387697)
(1718.662103 26.30920484 -2.176157904)
(1712.240632 29.26708093 -4.057384155)
(1712.678609 32.98991495 -3.901662928)
(1707.166171 42.49749518 -2.989856009)
(1700.257434 50.7153158 -3.352380654)
(1695.438171 60.53382905 0.1345295276)
(1691.615634 70.01352501 0.5367258788)
(1687.027386 80.99891274 1.924803101)
(1677.734547 99.53416663 1.425445801)
(1736.037996 0.533812854 -1.031515709)
(1736.915512 1.812768825 -1.343097106)
(1734.226262 3.032388906 -0.9637048137)
(1733.019512 2.284476445 -0.2169794383)
(1732.739024 0.6909587412 -0.5918862519)
(1731.387447 1.382645985 0.4921327192)
(1732.872364 4.194600379 0.2342752083)
(1732.706403 3.818511642 1.33815503)
(1732.775236 3.238888316 -1.544883391)
(1732.068176 3.423736577 -0.2085111862)
(1731.603781 3.673711209 0.6270820352)
(1730.930444 3.161447597 1.418810625)
(1730.309396 2.190347602 1.012133144)
(1733.126766 4.888911947 1.786593988)
(1733.370302 6.385180746 2.88121289)
(1732.128792 8.247200733 2.112769516)
(1730.798022 7.201021121 -0.06846534221)
(1727.658128 8.266970978 0.3323612023)
(1726.383305 12.0640248 2.918889711)
(1728.179466 10.792397 2.96721938)
(1726.886868 12.51995569 2.651278371)
(1723.061999 16.82635439 4.927434362)
(1721.636779 23.08137312 5.184415569)
(1715.104717 30.20208816 4.223599604)
(1710.66269 33.95455885 3.473037886)
(1707.614369 42.72656351 5.07015986)
(1705.238311 45.80759072 4.065664228)
(1698.188712 55.28809996 3.6328698)
(1692.608506 66.338888 1.617335318)
(1686.410954 75.26334168 0.6416396137)
(1736.258052 1.140863236 1.197234905)
(1734.517269 -0.8436474559 0.6277461793)
(1734.476057 -1.217100261 -0.0005367781382)
(1732.525135 -1.364043467 -0.4790496779)
(1732.921983 0.361931317 -0.6887709645)
(1730.763342 1.724820225 -0.8719997986)
(1731.690386 1.198765267 -0.6863688585)
(1732.056568 2.763958808 -0.5222883369)
(1733.306244 1.918195862 -0.3687752152)
(1730.949299 2.854669889 -2.447419925)
(1733.105795 2.783992059 -3.127980797)
(1734.10114 2.823909591 -1.811175625)
(1732.360201 4.982106183 -4.049876966)
(1728.673749 3.844589201 -2.875202878)
(1726.918709 5.081340941 -4.149975981)
(1727.988554 4.099207552 -3.406170274)
(1731.303871 4.983567323 -1.916341034)
(1729.128982 6.367463881 -0.8766756326)
(1729.043814 7.685663376 -3.360796225)
(1727.853642 7.426696773 -1.866066354)
(1727.209696 12.45830344 0.4593875793)
(1724.473434 13.89345006 0.2019015662)
(1724.337822 16.72684164 -0.3352782833)
(1721.747945 21.43450185 -0.7432541589)
(1719.45254 25.3378297 0.1111048192)
(1713.720132 32.35142819 0.1960383608)
(1710.757393 42.50322028 -1.820666461)
(1709.026606 48.36150091 -3.50298999)
(1699.956445 55.84770611 -0.8383392588)
(1694.784926 63.7121588 0.06452628372)
(1733.819733 2.49736963 -2.706670319)
(1733.066101 2.869315049 -1.639555587)
(1735.932222 0.4469406801 -0.9479286181)
(1736.712973 0.8532797175 0.9190157135)
(1735.222682 0.2162553828 1.387474533)
(1736.597022 -0.2321055418 3.215879684)
(1734.514218 -1.768037035 2.52041824)
(1733.770699 -0.06186646917 1.625386863)
(1733.155418 3.853399055 0.1035551358)
(1733.293392 3.231611963 1.941255259)
(1732.95641 2.694949437 0.5850837878)
(1730.002753 3.914487345 0.3079877697)
(1730.87069 1.150386872 0.4769824017)
(1731.333433 2.597710074 -0.9598401636)
(1731.984669 2.8871249 0.7457598912)
(1732.427808 3.601076151 2.028870175)
(1732.604235 3.793651218 1.684546667)
(1733.607758 4.028427905 2.707667834)
(1733.925205 3.489772055 1.695869609)
(1731.224861 10.83948227 -0.4011536308)
(1728.204277 10.56429268 -0.9357913736)
(1729.501027 10.61826003 0.2026676555)
(1728.072108 12.49744945 0.03095725178)
(1725.971757 16.4266744 0.4857194479)
(1724.827753 20.70564244 1.524690405)
(1721.351701 25.84164103 1.215574147)
(1716.816018 30.39831056 -0.3784913063)
(1711.329951 36.34319441 1.874439819)
(1704.158479 43.47068915 1.783140949)
(1700.36869 51.68019879 0.1084377883)
(1732.326079 0.9905523486 -0.8546391877)
(1733.75845 1.379561819 -1.382523945)
(1731.28484 2.030430826 -1.465722408)
(1731.712323 1.734416067 -2.299938358)
(1731.838762 1.416100181 -1.474218021)
(1733.077853 1.584726735 -1.432139047)
(1733.412123 1.885624458 -0.7962228139)
(1734.841454 0.7963193521 -0.4574659466)
(1734.551211 -2.608040283 -0.5500552396)
(1735.49346 -2.335146261 -0.6565622471)
(1735.806917 -2.913287446 -0.384017846)
(1736.742402 0.3134271217 1.82077585)
(1735.506849 2.444790838 3.011987412)
(1738.218658 3.471635185 3.050390846)
(1736.104636 2.277899098 3.287548275)
(1733.608783 3.961413709 1.754379861)
(1730.766914 7.413179322 -0.008867562898)
(1730.671689 6.643319621 -0.9215947862)
(1730.569473 4.910580004 0.4178138019)
(1732.617652 4.925430014 -1.634087777)
(1733.845524 6.746856298 0.5996224668)
(1730.225515 9.879183416 0.8704524402)
(1729.27708 8.996959621 0.7669724016)
(1728.501929 9.905244831 -1.142709859)
(1728.007927 11.2265804 -0.5567482278)
(1722.35341 16.21216032 -0.2108016368)
(1719.880131 22.50523761 1.755872973)
(1718.454268 29.60603086 -0.3590841258)
(1711.332674 37.99003061 -0.9274627126)
(1706.545974 44.62456277 3.916126307)
(1735.824045 -1.505603886 0.3545598839)
(1734.438485 -2.118071782 0.7693493625)
(1735.795818 -0.7284912018 0.9315404653)
(1734.209516 -0.4168605409 1.061697393)
(1734.20173 0.3471045819 0.3092779225)
(1732.734575 -0.7851332573 -0.1512468146)
(1734.496776 -0.9562883725 -1.930346998)
(1737.125681 -1.064037993 -2.413503603)
(1737.027482 1.035457336 -0.4648617947)
(1737.830191 3.081967711 -0.05071002194)
(1736.235185 3.421449678 -1.91144426)
(1736.739003 2.149530666 -1.776601568)
(1735.946908 -0.2794464129 -2.726255465)
(1735.921298 1.093452872 -3.339334756)
(1735.614421 2.273497518 -2.590890767)
(1736.702596 0.9666261883 -1.515715899)
(1735.76658 0.09347040741 0.9874291584)
(1734.287965 4.161923121 0.6189127063)
(1731.78791 4.772710715 1.277957286)
(1732.498304 6.574516404 0.5737251139)
(1728.825248 7.838115022 0.2442434366)
(1728.390408 10.71812531 1.193645306)
(1726.721591 10.99800457 1.776494467)
(1726.672614 9.280546233 2.504849709)
(1726.223401 12.15510042 1.991555412)
(1724.78129 12.60911636 3.244368708)
(1720.483442 16.69310277 3.014198197)
(1716.111668 21.14269826 4.360752887)
(1715.303646 26.46722201 1.52240221)
(1711.004271 34.98546592 0.3367031988)
(1734.238247 5.06264328 1.745097526)
(1734.993627 5.739923903 0.9914827494)
(1735.298776 5.740851449 2.438031756)
(1735.550099 4.604599014 1.338666157)
(1737.272502 2.176250998 0.7863097582)
(1737.288209 5.043774628 -0.2520843797)
(1737.405067 6.685629756 0.1364754242)
(1734.375753 7.898478142 2.10818648)
(1736.447655 8.173273809 1.42836924)
(1735.35394 7.833230558 0.2198959646)
(1734.448392 6.116407918 2.007917758)
(1734.907466 5.610741884 0.9167160199)
(1732.709169 5.259166175 -0.5930600056)
(1734.833217 8.768723078 1.469794218)
(1735.481134 10.05834808 -0.622487977)
(1732.657102 11.81179923 -1.260063163)
(1732.872311 11.1430595 -3.820701769)
(1734.21753 11.03491829 -3.076120014)
(1734.25672 10.78373257 -0.4782834683)
(1733.232059 10.73457305 0.1794953749)
(1732.261921 12.63104263 -0.3185013608)
(1729.814845 13.55725077 -1.779378569)
(1728.958921 17.39770123 -2.826635501)
(1728.837835 15.4311349 -0.8211871013)
(1728.428831 16.83528496 -1.747876781)
(1730.195067 18.6172323 -1.836994989)
(1728.499217 19.48292838 -1.673846679)
(1725.888797 24.8455698 -1.435466425)
(1725.788735 27.6725234 -0.4169387333)
(1721.359391 33.82607139 -0.06061675602)
)
;

boundaryField
{
    flow
    {
        type            calculated;
        value           nonuniform List<vector> 
55
(
(1307.655507 414.5935585 0.7882969369)
(1327.729622 423.9063732 -1.449600907)
(1351.88319 430.5671608 2.477639156)
(1370.093273 434.7414619 -1.604170341)
(1384.606669 434.5667017 -0.6265603227)
(1401.750601 437.0016817 1.484398531)
(1422.726614 429.8552812 -1.615077631)
(1438.615807 412.6660961 -5.185294131)
(1457.865441 396.1076059 -1.150876642)
(1477.495457 373.2985672 0.2325361226)
(1499.655208 347.8015727 1.18664732)
(1526.578115 315.5571936 -2.821401943)
(1552.301424 279.4977188 -3.076788088)
(1573.639114 249.3003917 -1.918122483)
(1600.466393 211.7236134 1.350728402)
(1618.655016 181.8311122 0.8119030096)
(1635.308957 147.5828313 -2.250758166)
(1654.866144 120.4750637 -1.562975697)
(1677.734547 99.53416663 1.425445801)
(1686.410954 75.26334168 0.6416396137)
(1694.784926 63.7121588 0.06452628372)
(1700.36869 51.68019879 0.1084377883)
(1706.545974 44.62456277 3.916126307)
(1711.004271 34.98546592 0.3367031988)
(1721.359391 33.82607139 -0.06061675602)
(1734.238247 5.06264328 1.745097526)
(1734.993627 5.739923903 0.9914827494)
(1735.298776 5.740851449 2.438031756)
(1735.550099 4.604599014 1.338666157)
(1737.272502 2.176250998 0.7863097582)
(1737.288209 5.043774628 -0.2520843797)
(1737.405067 6.685629756 0.1364754242)
(1734.375753 7.898478142 2.10818648)
(1736.447655 8.173273809 1.42836924)
(1735.35394 7.833230558 0.2198959646)
(1734.448392 6.116407918 2.007917758)
(1734.907466 5.610741884 0.9167160199)
(1732.709169 5.259166175 -0.5930600056)
(1734.833217 8.768723078 1.469794218)
(1735.481134 10.05834808 -0.622487977)
(1732.657102 11.81179923 -1.260063163)
(1732.872311 11.1430595 -3.820701769)
(1734.21753 11.03491829 -3.076120014)
(1734.25672 10.78373257 -0.4782834683)
(1733.232059 10.73457305 0.1794953749)
(1732.261921 12.63104263 -0.3185013608)
(1729.814845 13.55725077 -1.779378569)
(1728.958921 17.39770123 -2.826635501)
(1728.837835 15.4311349 -0.8211871013)
(1728.428831 16.83528496 -1.747876781)
(1730.195067 18.6172323 -1.836994989)
(1728.499217 19.48292838 -1.673846679)
(1725.888797 24.8455698 -1.435466425)
(1725.788735 27.6725234 -0.4169387333)
(1721.359391 33.82607139 -0.06061675602)
)
;
    }
    obstacle
    {
        type            calculated;
        value           nonuniform List<vector> 0();
    }
    frontAndBack
    {
        type            empty;
    }
    procBoundary3to1
    {
        type            processor;
        value           nonuniform List<vector> 
36
(
(1288.321971 397.9071216 -1.445361989)
(1321.286047 432.1837874 1.891940716)
(1315.055709 429.8976792 3.585918535)
(1311.754614 426.2601645 -0.162118845)
(1308.262307 422.9071099 0.8513634089)
(1308.262307 422.9071099 0.8513634089)
(1406.292887 401.9941655 0.1183475087)
(1394.152728 413.741491 -2.472400566)
(1377.178923 421.9545048 -1.921059708)
(1369.860579 428.4087243 -0.02305017222)
(1358.692913 434.8513903 1.189360383)
(1356.372493 437.9946442 -1.951435095)
(1356.372493 437.9946442 -1.951435095)
(1518.907609 275.6437989 -6.486392191)
(1498.958946 301.0319993 -2.772854276)
(1484.219513 321.4670292 -3.108856922)
(1464.764066 347.1444359 -2.283851051)
(1448.405733 367.4953381 4.825071454)
(1448.405733 367.4953381 4.825071454)
(1644.585307 106.1933535 0.06680072224)
(1634.006167 120.6186625 1.135818616)
(1618.728723 141.9867822 0.5428324347)
(1605.552583 165.3956342 0.3802419924)
(1589.194678 185.0190504 1.158561603)
(1569.623928 208.5968093 1.140356737)
(1569.623928 208.5968093 1.140356737)
(1718.881455 19.3238435 -4.291276717)
(1713.636529 27.40686236 -2.243695148)
(1705.194669 33.64194361 -3.248283949)