/*--------------------------------*- C++ -*----------------------------------*\
| =========                 |                                                 |
| \\      /  F ield         | OpenFOAM: The Open Source CFD Toolbox           |
|  \\    /   O peration     | Version:  2406                                  |
|   \\  /    A nd           | Website:  www.openfoam.com                      |
|    \\/     M anipulation  |                                                 |
\*---------------------------------------------------------------------------*/
FoamFile
{
    version     2.0;
    format      ascii;
    arch        "LSB;label=32;scalar=64";
    class       volScalarField;
    location    "0.009";
    object      dsmcRhoNMean;
}
// * * * * * * * * * * * * * * * * * * * * * * * * * * * * * * * * * * * * * //

dimensions      [0 -3 0 0 0 0 0];

internalField   nonuniform List<scalar> 
546
(
27.23155556
27.26755556
26.58666667
26.43222222
25.96133333
25.67
25.70533333
25.548
25.58244444
25.01288889
24.59977778
24.77844444
24.164
24.30488889
24.08222222
23.42466667
22.48066667
22.86244444
22.69288889
22.15577778
21.764
21.82888889
21.148
20.82355556
19.88622222
19.37
18.29311111
17.54022222
16.042
13.16711111
24.62911111
24.36111111
23.85288889
23.744
23.50688889
23.60422222
23.33177778
23.17977778
22.84955556
22.57311111
22.49844444
22.54688889
22.27955556
22.27333333
21.85888889
21.52288889
21.05444444
21.12466667
20.77777778
20.31177778
20.11377778
19.75533333
19.48288889
19.04266667
18.49177778
18.08822222
17.13555556
16.03444444
14.43488889
12.04222222
22.94622222
23.072
22.92777778
22.64888889
22.29422222
22.13533333
22.01511111
21.76
21.92844444
21.50711111
21.37911111
21.48911111
21.10222222
20.87822222
20.72288889
20.13755556
20.23577778
20.152
19.55155556
19.39222222
18.81066667
18.62577778
18.86866667
17.95488889
17.39377778
16.91866667
16.37911111
15.37177778
14.02155556
12.19488889
21.51866667
21.65044444
22.04888889
21.93511111
21.902
21.73311111
21.75044444
21.36311111
21.21577778
20.98777778
20.75933333
20.56444444
20.52311111
20.26777778
19.96311111
19.64422222
19.48733333
19.37155556
19.19244444
18.98177778
18.53022222
18.29
17.89977778
17.538
17.08622222
16.65022222
15.94088889
14.82422222
14.12911111
12.84377778
20.14555556
20.35244444
20.92066667
21.248
21.39688889
21.12711111
21.06644444
20.94266667
20.99866667
20.71311111
20.45444444
20.50977778
20.32
20.08844444
19.90088889
19.55111111
19.08533333
19.02622222
18.82422222
18.48355556
18.26577778
17.83733333
17.49444444
17.16666667
16.72111111
16.44066667
16.02666667
14.90933333
14.01511111
12.86088889
18.72622222
19.32355556
19.93022222
20.17333333
20.39222222
20.44533333
20.57444444
20.65688889
20.60755556
20.53622222
20.586
20.30177778
19.94088889
19.88955556
19.65533333
19.518
19.12177778
19.07288889
18.85244444
18.56488889
18.17622222
17.72622222
17.37244444
17.25622222
16.79088889
16.25777778
15.69422222
15.098
14.34333333
13.11177778
17.076
17.87355556
18.40333333
18.94044444
19.57555556
19.89822222
20.03377778
20.23066667
20.15755556
20.26
20.24822222
20.28577778
20.06222222
19.95733333
19.70955556
19.41711111
19.24933333
19.10644444
18.87511111
18.504
18.20066667
17.82244444
17.49933333
17.13866667
16.96044444
16.31822222
15.82777778
15.252
14.50244444
13.602
15.284
16.20733333
16.98355556
17.72888889
18.17822222
18.75066667
19.28355556
19.57777778
19.70733333
19.83555556
19.964
20.07
19.80488889
19.78488889
19.80111111
19.69155556
19.52555556
19.18288889
18.89577778
18.80577778
18.56377778
17.98866667
17.69044444
17.25466667
16.97777778
16.56288889
16.17266667
15.518
14.97888889
14.18066667
13.98466667
14.60466667
15.44088889
16.13755556
16.884
17.47244444
18.10222222
18.456
18.87311111
19.08244444
19.30822222
19.72
19.81977778
19.71577778
19.67488889
19.70044444
19.52511111
19.26088889
19.00733333
18.824
18.558
18.30711111
17.86733333
17.58844444
17.222
16.98688889
16.37888889
15.76333333
15.17422222
14.47666667
12.57511111
13.16177778
13.80466667
14.57422222
15.36466667
16.008
16.73822222
17.34977778
17.88822222
18.37133333
18.71288889
19.13355556
19.186
19.34533333
19.43088889
19.40311111
19.33488889
19.34666667
18.98
18.792
18.71088889
18.47
18.13444444
17.63555556
17.47488889
17.11844444
16.676
16.17111111
15.42644444
14.70466667
11.79688889
12.312
12.86644444
13.50244444
14.02155556
14.72044444
15.44955556
16.14755556
16.82577778
17.52044444
17.97822222
18.22555556
18.60444444
18.90244444
18.95955556
18.99244444
19.10311111
19.17444444
19.03955556
18.86888889
18.78022222
18.556
18.29733333
18.08377778
17.44222222
17.14688889
16.782
16.45533333
15.95355556
15.136
11.02822222
11.49022222
11.874
12.40377778
13.01911111
13.54911111
14.23888889
14.86733333
15.61333333
16.19044444
16.80355556
17.28533333
17.77688889
18.252
18.48133333
18.634
18.70022222
18.88222222
19.01511111
18.85822222
18.72133333
18.63155556
18.31066667
18.05577778
17.74133333
17.446
17.03977778
16.484
16.17622222
15.80733333
10.40444444
10.70822222
11.14066667
11.48777778
11.93444444
12.48555556
13.02377778
13.52911111
14.10133333
14.66288889
15.27444444
16.13
16.824
17.30266667
17.80333333
18.05155556
18.316
18.56222222
18.662
18.758
18.61466667
18.69088889
18.48844444
18.37
18.052
17.75866667
17.39133333
17.02822222
16.53311111
16.01044444
9.953555556
10.14977778
10.35511111
10.80333333
11.15044444
11.544
11.94022222
12.43333333
12.97866667
13.70266667
14.38888889
14.83422222
15.40644444
16.13111111
16.73311111
17.21333333
17.65777778
18.03
18.23822222
18.42533333
18.46933333
18.36155556
18.60444444
18.51955556
18.19177778
17.89711111
17.81822222
17.39444444
16.95244444
16.29977778
9.766666667
9.920888889
10.076
10.128
10.42555556
10.79022222
11.11
11.52466667
12.06755556
12.56088889
13.13066667
13.63022222
14.36244444
15.03
15.64911111
16.33511111
16.78733333
17.19088889
17.60933333
18.01422222
18.25755556
18.49044444
18.49422222
18.42066667
18.42777778
18.12444444
17.94644444
17.66466667
17.23555556
16.79222222
9.48
9.458
9.637555556
9.700444444
9.885333333
10.14022222
10.51022222
10.87622222
11.23466667
11.63266667
12.17222222
12.77777778
13.22422222
13.83644444
14.49266667
15.05088889
15.66
16.17466667
16.58511111
17.08555556
17.43377778
17.64111111
17.86488889
18.01755556
18.12377778
18.02444444
17.90977778
17.65333333
17.32888889
9.368888889
9.381111111
9.408666667
9.603555556
9.695555556
9.880222222
10.088
10.34377778
10.56622222
10.95088889
11.33222222
11.69622222
12.11533333
12.56977778
13.16333333
13.77288889
14.50933333
15.166
15.876
16.10933333
16.64644444
17.232
17.44755556
17.71
17.61133333
9.233111111
9.289555556
9.368888889
9.378444444
9.460888889
9.518888889
9.585555556
9.698
9.975777778
10.236
10.47777778
10.84911111
11.31088889
11.80777778
12.29466667
12.80555556
13.30533333
13.92933333
14.48133333
9.2
9.194444444
9.193777778
9.226
9.244444444
9.318888889
9.444444444
9.510222222
9.655333333
9.752444444
10.09155556
10.31666667
10.60955556
10.95066667
9.118888889
9.104444444
9.067333333
9.066222222
9.138888889
9.086666667
9.134666667
9.236
9.016
)
;

boundaryField
{
    flow
    {
        type            calculated;
        value           nonuniform List<scalar> 
15
(
13.16711111
12.04222222
12.19488889
12.84377778
12.86088889
13.11177778
13.602
14.18066667
14.47666667
14.70466667
15.136
15.80733333
16.01044444
16.29977778
16.79222222
)
;
    }
    obstacle
    {
        type            calculated;
        value           nonuniform List<scalar> 
30
(
27.23155556
27.26755556
26.58666667
26.43222222
25.96133333
25.67
25.70533333
25.548
25.58244444
25.01288889
24.59977778
24.77844444
24.164
24.30488889
24.08222222
23.42466667
22.48066667
22.86244444
22.69288889
22.15577778
21.764
21.82888889
21.148
20.82355556
19.88622222
19.37
18.29311111
17.54022222
16.042
13.16711111
)
;
    }
    frontAndBack
    {
        type            empty;
    }
    procBoundary1to0
    {
        type            processor;
        value           nonuniform List<scalar> 
21
(
27.642
24.59311111
23.06
21.32333333
19.69511111
17.79822222
16.27244444
14.538
13.20933333
11.97911111
11.31555556
10.67222222
10.21888889
9.891333333
9.618222222
9.484
9.349111111
9.207111111
9.206
9.121333333
9.121555556
)
;
    }
    procBoundary1to3
    {
        type            processor;
        value           nonuniform List<scalar> 
36
(
16.94911111
17.68044444
17.81488889
17.65866667
16.94911111
17.46755556
15.11044444
15.60733333
16.21222222
16.59888889
17.04822222
17.68044444
17.44777778
11.38444444
11.96133333
12.36466667
12.90666667
15.11044444
13.46533333
9.333555556
9.445111111
9.508888889
9.726888889
9.938
11.38444444
10.25133333
9.003111111
8.971333333
8.921111111
8.939111111
9.024222222
9.024888889
9.333555556
9.069777778
9.003111111
9.087777778
)
;
    }
}


// ************************************************************************* //
