/*--------------------------------*- C++ -*----------------------------------*\
| =========                 |                                                 |
| \\      /  F ield         | OpenFOAM: The Open Source CFD Toolbox           |
|  \\    /   O peration     | Version:  2406                                  |
|   \\  /    A nd           | Website:  www.openfoam.com                      |
|    \\/     M anipulation  |                                                 |
\*---------------------------------------------------------------------------*/
FoamFile
{
    version     2.0;
    format      ascii;
    arch        "LSB;label=32;scalar=64";
    class       volVectorField;
    location    "0.009";
    object      fD;
}
// * * * * * * * * * * * * * * * * * * * * * * * * * * * * * * * * * * * * * //

dimensions      [1 -1 -2 0 0 0 0];

internalField   uniform (0 0 0);

boundaryField
{
    flow
    {
        type            zeroGradient;
    }
    obstacle
    {
        type            calculated;
        value           nonuniform List<vector> 
30
(
(2.151987255 -0.7589512904 1.250026277)
(4.78128056 -6.962597415 3.69296274)
(0.8357545668 -7.722128867 1.847464677)
(1.221871677 -2.03430281 0.1357625014)
(1.144741188 -1.198770161 0.2030074027)
(0.7930980844 -3.041504771 0.2130467106)
(0 0 0)
(0 0 0)
(0 0 0)
(1.688309105 -1.351402078 2.128310943)
(0.7417765793 -2.84538863 -3.094467478)
(0 0 0)
(2.242095784 -1.801070074 -1.466757922)
(-0.1260991194 -5.343531423 -0.4604935334)
(4.218060511 -10.35739656 0.4176469669)
(3.529574713 -1.505119516 1.989265186)
(0 0 0)
(0 0 0)
(2.298742047 -2.062366672 -0.6150362325)
(1.02929591 -1.906685128 -1.337610256)
(2.074748679 -4.011686461 -0.3547955083)
(-0.9324454937 -2.215597037 1.10995841)
(-0.4856492437 -2.640231838 1.317616959)
(1.089676577 -3.213227413 0.4638248434)
(1.45102165 -5.233683692 -0.6623994883)
(0 0 0)
(2.945919946 -4.419812427 -0.1495309685)
(4.515578198 -3.224923611 -2.377499526)
(2.794122051 -2.848543679 2.944308201)
(1.352160667 -5.3459475 1.118492605)
)
;
    }
    frontAndBack
    {
        type            empty;
    }
    procBoundary1to0
    {
        type            processor;
        value           uniform (0 0 0);
    }
    procBoundary1to3
    {
        type            processor;
        value           uniform (0 0 0);
    }
}


// ************************************************************************* //
