/*--------------------------------*- C++ -*----------------------------------*\
| =========                 |                                                 |
| \\      /  F ield         | OpenFOAM: The Open Source CFD Toolbox           |
|  \\    /   O peration     | Version:  2406                                  |
|   \\  /    A nd           | Website:  www.openfoam.com                      |
|    \\/     M anipulation  |                                                 |
\*---------------------------------------------------------------------------*/
FoamFile
{
    version     2.0;
    format      ascii;
    arch        "LSB;label=32;scalar=64";
    class       volVectorField;
    location    "0.009";
    object      fDMean;
}
// * * * * * * * * * * * * * * * * * * * * * * * * * * * * * * * * * * * * * //

dimensions      [1 -1 -2 0 0 0 0];

internalField   uniform (0 0 0);

boundaryField
{
    flow
    {
        type            calculated;
        value           uniform (0 0 0);
    }
    obstacle
    {
        type            calculated;
        value           nonuniform List<vector> 
30
(
(2.356304877 -2.726063186 0.01108575497)
(2.390970426 -2.795453826 -0.00665741886)
(2.232456938 -2.687370204 -0.01493225501)
(2.18424483 -2.686850497 0.003227598902)
(2.082352337 -2.632882965 0.007311457555)
(2.094093633 -2.62664112 -0.003345567698)
(2.026277406 -2.639887268 0.001114544693)
(2.038052059 -2.703040096 0.02577194342)
(1.969875337 -2.66665627 0.003470169516)
(1.893356298 -2.597576214 0.03581172174)
(1.845529574 -2.562916035 -0.01063224747)
(1.910457328 -2.614955694 -0.04150372355)
(1.828920659 -2.578314038 -0.04176282353)
(1.818850184 -2.618051852 -0.004311398787)
(1.841416496 -2.625061192 -0.03646343193)
(1.781351633 -2.536581673 -0.005544366176)
(1.70029256 -2.486970751 -0.02326623521)
(1.664239494 -2.479988318 0.03776708216)
(1.681049305 -2.515775692 -0.01450903249)
(1.684701699 -2.457160751 0.005525592661)
(1.662235919 -2.454743407 0.02061589537)
(1.592785341 -2.426908018 0.01867481657)
(1.580655144 -2.37678091 -0.0203737448)
(1.616814858 -2.431849704 0.005702468993)
(1.605269956 -2.324158818 -0.001985255334)
(1.549505237 -2.250415383 0.00060771305)
(1.562823024 -2.15821769 0.0167540997)
(1.536172243 -2.021528239 0.007172536242)
(1.505039408 -1.879770897 -0.01936374272)
(1.510823866 -1.661571012 0.01232675179)
)
;
    }
    frontAndBack
    {
        type            empty;
    }
    procBoundary1to0
    {
        type            processor;
        value           uniform (0 0 0);
    }
    procBoundary1to3
    {
        type            processor;
        value           uniform (0 0 0);
    }
}


// ************************************************************************* //
