/*--------------------------------*- C++ -*----------------------------------*\
| =========                 |                                                 |
| \\      /  F ield         | OpenFOAM: The Open Source CFD Toolbox           |
|  \\    /   O peration     | Version:  2406                                  |
|   \\  /    A nd           | Website:  www.openfoam.com                      |
|    \\/     M anipulation  |                                                 |
\*---------------------------------------------------------------------------*/
FoamFile
{
    version     2.0;
    format      ascii;
    arch        "LSB;label=32;scalar=64";
    class       volScalarField;
    location    "0.009";
    object      iDofMean;
}
// * * * * * * * * * * * * * * * * * * * * * * * * * * * * * * * * * * * * * //

dimensions      [0 -3 0 0 0 0 0];

internalField   nonuniform List<scalar> 
546
(
6.109100517e+20
6.162344897e+20
6.053162572e+20
6.063101092e+20
6.000054635e+20
5.977862523e+20
6.031985369e+20
6.041384275e+20
6.096632711e+20
6.007677564e+20
5.95518778e+20
6.046262516e+20
5.943716381e+20
6.026806261e+20
6.020367425e+20
5.904208402e+20
5.713322244e+20
5.858998907e+20
5.864651485e+20
5.774601974e+20
5.721210136e+20
5.78797941e+20
5.656442924e+20
5.618765688e+20
5.413573115e+20
5.320364414e+20
5.070074602e+20
4.905830069e+20
4.528171029e+20
3.751272815e+20
5.525270682e+20
5.505501526e+20
5.43074527e+20
5.44646875e+20
5.432795605e+20
5.496797643e+20
5.475009422e+20
5.481366251e+20
5.445349374e+20
5.421683744e+20
5.446490722e+20
5.501733955e+20
5.480191989e+20
5.523047865e+20
5.464551456e+20
5.424863594e+20
5.350856696e+20
5.41365553e+20
5.369718496e+20
5.293988473e+20
5.287408077e+20
5.238171455e+20
5.211076655e+20
5.138233084e+20
5.033967232e+20
4.968298085e+20
4.749249298e+20
4.48467863e+20
4.074532207e+20
3.430795144e+20
5.147733032e+20
5.214168214e+20
5.220119094e+20
5.195268934e+20
5.152530101e+20
5.154732355e+20
5.16604186e+20
5.145628692e+20
5.225836495e+20
5.165648377e+20
5.175519157e+20
5.243622428e+20
5.190598568e+20
5.177106585e+20
5.180560334e+20
5.075689076e+20
5.142797632e+20
5.164388531e+20
5.052818964e+20
5.05431883e+20
4.944852817e+20
4.938667232e+20
5.046791004e+20
4.844720843e+20
4.735061627e+20
4.647055863e+20
4.539594974e+20
4.299337185e+20
3.957860718e+20
3.47428945e+20
4.827476616e+20
4.89290305e+20
5.020016637e+20
5.031540486e+20
5.061881642e+20
5.061065462e+20
5.103935473e+20
5.05177562e+20
5.055998659e+20
5.040913196e+20
5.025481503e+20
5.017991739e+20
5.048152276e+20
5.025736615e+20
4.990621825e+20
4.951343963e+20
4.95258511e+20
4.964382658e+20
4.960011846e+20
4.947342071e+20
4.871131009e+20
4.849634997e+20
4.787642867e+20
4.732232797e+20
4.6513366e+20
4.573322137e+20
4.418138362e+20
4.146191213e+20
3.9882204e+20
3.659156051e+20
4.519434213e+20
4.599560889e+20
4.763146804e+20
4.873928905e+20
4.945142867e+20
4.91994413e+20
4.943428782e+20
4.95235232e+20
5.004258228e+20
4.974942853e+20
4.951673089e+20
5.004652369e+20
4.998192222e+20
4.981267897e+20
4.975066756e+20
4.927875223e+20
4.850419303e+20
4.875883485e+20
4.864850101e+20
4.817487225e+20
4.801615185e+20
4.729609395e+20
4.679228603e+20
4.632036896e+20
4.551943386e+20
4.515763434e+20
4.441912305e+20
4.169995973e+20
3.95604165e+20
3.664030978e+20
4.201022369e+20
4.367036635e+20
4.537645761e+20
4.627418702e+20
4.712949292e+20
4.761176159e+20
4.827976601e+20
4.884773904e+20
4.91105131e+20
4.932457101e+20
4.983520447e+20
4.953897658e+20
4.904940728e+20
4.931950041e+20
4.913679781e+20
4.919529538e+20
4.859681429e+20
4.887842826e+20
4.872143729e+20
4.83868566e+20
4.778073282e+20
4.700148048e+20
4.646597364e+20
4.656201438e+20
4.570938764e+20
4.465529289e+20
4.349772843e+20
4.222764203e+20
4.048688834e+20
3.735508481e+20
3.830813125e+20
4.039343151e+20
4.190008843e+20
4.344615006e+20
4.524205338e+20
4.633768484e+20
4.701104353e+20
4.783984323e+20
4.803810396e+20
4.866113147e+20
4.9017502e+20
4.949993458e+20
4.934785584e+20
4.94875669e+20
4.927234913e+20
4.894100398e+20
4.892098884e+20
4.896442167e+20
4.87800162e+20
4.822815831e+20
4.784499146e+20
4.725661604e+20
4.680536243e+20
4.624481761e+20
4.617096508e+20
4.482131625e+20
4.386788779e+20
4.26583651e+20
4.093601122e+20
3.875171479e+20
3.428797599e+20
3.662784427e+20
3.866758635e+20
4.066704826e+20
4.201260586e+20
4.366533212e+20
4.525058028e+20
4.629594442e+20
4.696516527e+20
4.76416869e+20
4.832944827e+20
4.897340867e+20
4.871488264e+20
4.905996188e+20
4.950123103e+20
4.963274385e+20
4.962299043e+20
4.916032695e+20
4.883342583e+20
4.901470046e+20
4.879951883e+20
4.769735723e+20
4.731652577e+20
4.655781699e+20
4.621815035e+20
4.549334221e+20
4.482377273e+20
4.340234092e+20
4.22808693e+20
4.040031908e+20
3.137306433e+20
3.30058897e+20
3.515529487e+20
3.701680089e+20
3.902146366e+20
4.068869143e+20
4.247847642e+20
4.364325512e+20
4.497710405e+20
4.583283993e+20
4.674192174e+20
4.811936326e+20
4.875150552e+20
4.888858932e+20
4.918568525e+20
4.965514793e+20
4.96218609e+20
4.936021933e+20
4.912172536e+20
4.90621942e+20
4.878433091e+20
4.854172071e+20
4.778964983e+20
4.745844086e+20
4.688298997e+20
4.665794483e+20
4.539533407e+20
4.408851485e+20
4.283223617e+20
4.12436151e+20
2.821088117e+20
2.974502569e+20
3.142999934e+20
3.343078078e+20
3.551005577e+20
3.727838849e+20
3.92777289e+20
4.10273504e+20
4.262998436e+20
4.412486985e+20
4.530072129e+20
4.668836251e+20
4.719257654e+20
4.79700099e+20
4.857570412e+20
4.890571698e+20
4.91384233e+20
4.958004355e+20
4.905108628e+20
4.897879097e+20
4.918623748e+20
4.897362389e+20
4.850409033e+20
4.758555954e+20
4.757142304e+20
4.701928892e+20
4.621879966e+20
4.522902976e+20
4.354418316e+20
4.189318029e+20
2.646502506e+20
2.782456608e+20
2.929388651e+20
3.097230524e+20
3.240592396e+20
3.4280013e+20
3.625375803e+20
3.81844327e+20
4.009803972e+20
4.208117712e+20
4.352221783e+20
4.447272449e+20
4.576210129e+20
4.687179236e+20
4.739740799e+20
4.787062793e+20
4.854937364e+20
4.913868623e+20
4.920499907e+20
4.917919098e+20
4.936849744e+20
4.920165525e+20
4.893976827e+20
4.879498587e+20
4.748249504e+20
4.709741737e+20
4.651258712e+20
4.602397175e+20
4.503205868e+20
4.312203757e+20
2.474060587e+20
2.596738547e+20
2.703432275e+20
2.845215136e+20
3.008912405e+20
3.155228797e+20
3.341282048e+20
3.515706625e+20
3.720862498e+20
3.888673987e+20
4.067855028e+20
4.217846039e+20
4.372652956e+20
4.525890588e+20
4.620188942e+20
4.696716547e+20
4.752545726e+20
4.838980359e+20
4.914182591e+20
4.915138977e+20
4.921369289e+20
4.940199169e+20
4.897543002e+20
4.87194342e+20
4.829675805e+20
4.791898729e+20
4.72270378e+20
4.610414964e+20
4.566057887e+20
4.50346465e+20
2.334122875e+20
2.420010037e+20
2.536469396e+20
2.635100354e+20
2.758229623e+20
2.907554924e+20
3.056145453e+20
3.199254716e+20
3.360533056e+20
3.521780663e+20
3.697683176e+20
3.935929625e+20
4.138267006e+20
4.290487411e+20
4.450694239e+20
4.549910861e+20
4.654897988e+20
4.756973395e+20
4.822926092e+20
4.889017459e+20
4.893329379e+20
4.95593162e+20
4.945093202e+20
4.956729183e+20
4.914247677e+20
4.877778902e+20
4.820140029e+20
4.762628643e+20
4.666796818e+20
4.561330433e+20
2.232970904e+20
2.293804122e+20
2.357616758e+20
2.47810045e+20
2.57703543e+20
2.688291574e+20
2.801879449e+20
2.940134032e+20
3.092986835e+20
3.291151345e+20
3.483305239e+20
3.619743036e+20
3.789585159e+20
3.999980461e+20
4.183147045e+20
4.338636229e+20
4.487614886e+20
4.620579831e+20
4.713406806e+20
4.802312379e+20
4.855124806e+20
4.868608098e+20
4.976119652e+20
4.997083368e+20
4.952299008e+20
4.915805527e+20
4.938455525e+20
4.865057403e+20
4.785161925e+20
4.643760725e+20
2.191044449e+20
2.242076279e+20
2.294069699e+20
2.323190517e+20
2.409502723e+20
2.512756731e+20
2.607060433e+20
2.725259914e+20
2.875857083e+20
3.01691542e+20
3.178711067e+20
3.325951412e+20
3.532788304e+20
3.726941461e+20
3.912155545e+20
4.117279524e+20
4.26639682e+20
4.405539386e+20
4.550879535e+20
4.695161902e+20
4.799453776e+20
4.902783321e+20
4.94663858e+20
4.970400437e+20
5.0165447e+20
4.978247294e+20
4.973993331e+20
4.940635982e+20
4.865075665e+20
4.784056759e+20
2.126733914e+20
2.137465441e+20
2.19424613e+20
2.225116562e+20
2.284649223e+20
2.361388961e+20
2.466317255e+20
2.571921019e+20
2.677368735e+20
2.793971989e+20
2.946687946e+20
3.117943837e+20
3.252815175e+20
3.430979273e+20
3.623053438e+20
3.793590152e+20
3.979892066e+20
4.145110326e+20
4.286183963e+20
4.453117572e+20
4.582903283e+20
4.677580659e+20
4.778311169e+20
4.861630018e+20
4.933787549e+20
4.950780173e+20
4.963830842e+20
4.937466159e+20
4.891420796e+20
2.101807356e+20
2.120088913e+20
2.142133496e+20
2.202891903e+20
2.240788724e+20
2.300841836e+20
2.367239014e+20
2.446012829e+20
2.5180696e+20
2.630220369e+20
2.743338277e+20
2.854030271e+20
2.980057334e+20
3.116887954e+20
3.29073049e+20
3.471469068e+20
3.687457226e+20
3.886617542e+20
4.102924372e+20
4.198678498e+20
4.375933007e+20
4.569103842e+20
4.666687232e+20
4.778643146e+20
4.794286253e+20
2.071347117e+20
2.099397769e+20
2.133076994e+20
2.151255236e+20
2.186553728e+20
2.216696898e+20
2.249335986e+20
2.293304563e+20
2.377358948e+20
2.458515995e+20
2.536491769e+20
2.647324127e+20
2.782184894e+20
2.92793723e+20
3.073570635e+20
3.227651881e+20
3.381468081e+20
3.569694767e+20
3.742492786e+20
2.063919003e+20
2.077903086e+20
2.093208318e+20
2.116287096e+20
2.136530161e+20
2.170122183e+20
2.216222974e+20
2.248900376e+20
2.300992826e+20
2.342374038e+20
2.442993958e+20
2.517400761e+20
2.609675089e+20
2.715402104e+20
2.045722601e+20
2.057563476e+20
2.064419859e+20
2.079636798e+20
2.1121347e+20
2.116043799e+20
2.143530876e+20
2.184054541e+20
2.022640623e+20
)
;

boundaryField
{
    flow
    {
        type            calculated;
        value           nonuniform List<scalar> 
15
(
3.751272815e+20
3.430795144e+20
3.47428945e+20
3.659156051e+20
3.664030978e+20
3.735508481e+20
3.875171479e+20
4.040031908e+20
4.12436151e+20
4.189318029e+20
4.312203757e+20
4.50346465e+20
4.561330433e+20
4.643760725e+20
4.784056759e+20
)
;
    }
    obstacle
    {
        type            calculated;
        value           nonuniform List<scalar> 
30
(
267.4593824
273.7578914
269.1800037
274.6051194
265.0604767
258.0338537
269.4691368
258.3103016
276.4221797
259.6931485
256.7388455
270.4746013
254.9822086
260.7337305
265.6239137
249.8527034
249.3685897
251.904502
256.6851051
261.6222913
243.1661331
238.5350153
246.9181687
248.7592911
236.2357682
222.1206507
218.3852601
219.0116563
196.2767813
173.3818318
)
;
    }
    frontAndBack
    {
        type            empty;
    }
    procBoundary1to0
    {
        type            processor;
        value           nonuniform List<scalar> 
21
(
6.156057138e+20
5.477049317e+20
5.135615282e+20
4.748848071e+20
4.386232162e+20
3.963782398e+20
3.623981542e+20
3.237709235e+20
2.941806337e+20
2.66782767e+20
2.520049438e+20
2.376774838e+20
2.275814481e+20
2.202865666e+20
2.142042022e+20
2.112149841e+20
2.082109189e+20
2.050484845e+20
2.050237408e+20
2.031381564e+20
2.031431054e+20
)
;
    }
    procBoundary1to3
    {
        type            processor;
        value           nonuniform List<scalar> 
36
(
4.828753961e+20
4.856293664e+20
4.93753171e+20
4.938957841e+20
4.828753961e+20
4.930562199e+20
3.938331703e+20
4.102776775e+20
4.298707527e+20
4.439694905e+20
4.600077333e+20
4.856293664e+20
4.749761878e+20
2.846022166e+20
3.014864856e+20
3.142403472e+20
3.307614208e+20
3.938331703e+20
3.479922166e+20
2.224308952e+20
2.268557712e+20
2.30194025e+20
2.373487318e+20
2.444489885e+20
2.846022166e+20
2.541990634e+20
2.034662628e+20
2.042562917e+20
2.046350783e+20
2.065963035e+20
2.101502143e+20
2.117770559e+20
2.224308952e+20
2.144747655e+20
2.034662628e+20
2.038743165e+20
)
;
    }
}


// ************************************************************************* //
