/*--------------------------------*- C++ -*----------------------------------*\
| =========                 |                                                 |
| \\      /  F ield         | OpenFOAM: The Open Source CFD Toolbox           |
|  \\    /   O peration     | Version:  2406                                  |
|   \\  /    A nd           | Website:  www.openfoam.com                      |
|    \\/     M anipulation  |                                                 |
\*---------------------------------------------------------------------------*/
FoamFile
{
    version     2.0;
    format      ascii;
    arch        "LSB;label=32;scalar=64";
    class       volScalarField;
    location    "0.009";
    object      iDof;
}
// * * * * * * * * * * * * * * * * * * * * * * * * * * * * * * * * * * * * * //

dimensions      [0 -3 0 0 0 0 0];

internalField   nonuniform List<scalar> 
546
(
5.832814549e+20
4.971901036e+20
5.691915658e+20
6.422722583e+20
5.546761e+20
7.917698706e+20
5.631813716e+20
3.310606695e+20
5.719515404e+20
6.484948418e+20
5.3258258e+20
6.588350948e+20
5.165454561e+20
5.95120393e+20
6.749789075e+20
7.057425303e+20
5.337019978e+20
6.406794034e+20
6.977762543e+20
4.952091441e+20
6.571873433e+20
5.303045372e+20
6.686735063e+20
4.04741088e+20
5.444546535e+20
4.944066053e+20
4.434521452e+20
5.873496364e+20
5.645394625e+20
3.703663331e+20
5.832814553e+20
6.553869548e+20
5.691915658e+20
3.67012719e+20
4.391185792e+20
5.821837288e+20
6.335790431e+20
4.729438136e+20
6.672767971e+20
5.76439859e+20
7.9887387e+20
3.904207969e+20
5.65740261e+20
6.943071246e+20
5.749820319e+20
7.057425303e+20
6.099451403e+20
5.125435223e+20
5.68558429e+20
4.691455054e+20
3.943124063e+20
4.242436301e+20
7.221673874e+20
3.777583488e+20
6.261228516e+20
5.218736394e+20
2.77157591e+20
4.754735156e+20
4.234045969e+20
3.418766152e+20
5.832814549e+20
4.971901036e+20
3.870502648e+20
4.128893089e+20
3.235610586e+20
4.890343318e+20
4.223860284e+20
6.148269577e+20
4.76626284e+20
6.244765144e+20
5.083742805e+20
4.636246963e+20
7.871168848e+20
5.207303434e+20
4.249867196e+20
3.276661748e+20
5.591163786e+20
5.381706984e+20
4.134970396e+20
5.994637013e+20
5.257498742e+20
4.772740835e+20
6.151796263e+20
2.968101312e+20
4.627864555e+20
6.317417734e+20
5.543151814e+20
4.475044849e+20
4.798585431e+20
2.564074616e+20
6.05715357e+20
5.423892036e+20
5.919592285e+20
5.27580784e+20
4.853415875e+20
3.725975862e+20
6.570449336e+20
3.783550509e+20
5.719515404e+20
6.244765144e+20
3.873327855e+20
4.880259958e+20
5.165454557e+20
4.463402947e+20
3.74988282e+20
3.276661748e+20
4.066300935e+20
4.35661994e+20
4.910277341e+20
4.17018227e+20
4.731748876e+20
5.833349914e+20
5.616857453e+20
4.58706566e+20
4.083409901e+20
2.746703363e+20
4.157363865e+20
5.314115768e+20
4.798585436e+20
2.279177428e+20
6.505831612e+20
5.649887537e+20
5.464239028e+20
5.275807832e+20
5.315645958e+20
4.424596339e+20
2.815906858e+20
5.20238195e+20
3.336383986e+20
6.484948413e+20
3.631244864e+20
3.660194974e+20
4.181558454e+20
3.719502456e+20
4.499859384e+20
4.78896717e+20
2.541438087e+20
4.356619947e+20
4.910277345e+20
5.212727833e+20
6.834748365e+20
6.363654441e+20
4.546979843e+20
2.968101312e+20
4.355637236e+20
5.21873638e+20
4.988836615e+20
4.475044865e+20
4.798585436e+20
4.843252062e+20
4.71111945e+20
4.067919033e+20
5.236562409e+20
5.04642489e+20
4.853415878e+20
5.356090305e+20
5.866472621e+20
5.675325763e+20
3.813010269e+20
4.083115668e+20
5.809991778e+20
5.124272955e+20
5.411428579e+20
3.47153562e+20
4.49985938e+20
4.284865362e+20
6.099451403e+20
3.587804656e+20
5.685584294e+20
4.430818666e+20
4.994623813e+20
4.772740847e+20
3.209632849e+20
5.666375232e+20
5.716773822e+20
3.021373699e+20
3.048733514e+20
3.356283643e+20
4.798585418e+20
3.703663307e+20
2.467729232e+20
4.745905531e+20
3.870502645e+20
5.73457373e+20
5.315645958e+20
5.123216813e+20
5.866472621e+20
6.148269577e+20
7.387707397e+20
6.244765144e+20
3.631244867e+20
5.856311958e+20
4.427532481e+20
5.703237099e+20
3.999875004e+20
2.016407228e+20
5.591163786e+20
6.66306579e+20
4.910277361e+20
7.037182633e+20
6.046123604e+20
4.772740863e+20
4.012041048e+20
4.317238302e+20
3.811182621e+20
4.394725419e+20
3.603048699e+20
3.91566425e+20
6.49220386e+20
6.552635202e+20
5.159797486e+20
5.42389204e+20
5.919592289e+20
3.440744243e+20
4.16007075e+20
6.520457758e+20
3.285224668e+20
4.965910043e+20
6.672767976e+20
5.764398594e+20
3.38916187e+20
5.368285953e+20
4.427532477e+20
4.215436117e+20
4.249867206e+20
5.041018086e+20
5.591163777e+20
6.406793997e+20
2.842792133e+20
4.170182253e+20
4.994623771e+20
2.651522657e+20
3.477102212e+20
5.936202614e+20
5.716773832e+20
4.944066009e+20
3.603048635e+20
6.432876924e+20
4.798585418e+20
5.69794355e+20
1.570373149e+20
2.71194602e+20
4.553532523e+20
2.523212443e+20
4.391185795e+20
3.958849356e+20
4.223860287e+20
5.675325763e+20
4.527949695e+20
5.043848766e+20
3.389161865e+20
4.636246967e+20
3.93558443e+20
4.711369785e+20
5.49982814e+20
4.032814433e+20
4.320444737e+20
6.150522288e+20
6.719326888e+20
5.473364207e+20
3.680249126e+20
7.424263565e+20
4.814449258e+20
3.50775609e+20
7.077910459e+20
7.416099079e+20
5.543151844e+20
5.034425464e+20
3.669506496e+20
2.848971801e+20
3.365085317e+20
2.259955015e+20
2.276766263e+20
4.817041937e+20
3.928955708e+20
3.027355387e+20
2.111930141e+20
4.492966236e+20
5.957828541e+20
6.004581846e+20
5.325825821e+20
4.63624696e+20
3.443636357e+20
3.719502456e+20
3.49989062e+20
4.788967178e+20
4.574588582e+20
3.587804668e+20
3.876534743e+20
5.473364252e+20
6.308998501e+20
3.977284019e+20
5.349388064e+20
4.587065656e+20
4.900091899e+20
6.592088071e+20
3.880206256e+20
3.91566425e+20
5.080855149e+20
6.267737905e+20
3.140746296e+20
2.25995501e+20
2.959796129e+20
2.293829489e+20
4.853415875e+20
3.958849362e+20
4.458519212e+20
4.965910066e+20
5.004575986e+20
4.083115661e+20
2.904995875e+20
3.904207966e+20
5.165454577e+20
5.95120393e+20
3.749882838e+20
5.54511989e+20
5.08287612e+20
4.356619918e+20
4.651841692e+20
5.734000597e+20
3.943124063e+20
4.772740863e+20
4.012041048e+20
5.126720439e+20
4.355637205e+20
4.944066053e+20
4.98883666e+20
6.432876982e+20
6.209934127e+20
5.697943654e+20
2.019051197e+20
2.033959524e+20
3.187472785e+20
1.605680649e+20
3.004495539e+20
3.958849338e+20
3.05056574e+20
3.547078565e+20
3.098070825e+20
2.40183276e+20
5.325825854e+20
3.904207996e+20
4.181558467e+20
3.223568795e+20
3.749882808e+20
4.536916273e+20
5.591163823e+20
4.356619954e+20
3.876534743e+20
7.037182551e+20
5.783248577e+20
5.833349845e+20
6.419265567e+20
4.317238265e+20
5.172319272e+20
4.669395758e+20
3.603048699e+20
5.314115768e+20
4.234045957e+20
5.982840727e+20
2.467729225e+20
2.937941502e+20
3.415149387e+20
2.064446549e+20
3.697840664e+20
3.493102383e+20
3.989201412e+20
2.601190987e+20
2.383131422e+20
3.362565839e+20
3.147078865e+20
4.392233927e+20
4.42753246e+20
5.207303438e+20
1.74994531e+20
4.032814433e+20
3.558013313e+20
4.612891716e+20
3.359663444e+20
6.255273431e+20
6.308998554e+20
3.977284053e+20
4.012041048e+20
5.126720439e+20
6.533455808e+20
3.845384674e+20
6.374624564e+20
4.754735161e+20
3.951776227e+20
3.133868952e+20
8.973560819e+19
1.807964015e+20
2.959796136e+20
3.89951012e+20
1.848920332e+20
2.328734905e+20
2.111930128e+20
2.601190967e+20
3.813010275e+20
3.362565839e+20
2.178746906e+20
4.148220964e+20
3.689610383e+20
5.207303397e+20
3.999874995e+20
3.024610849e+20
4.066300929e+20
5.381706958e+20
6.977762537e+20
4.691455034e+20
3.94312403e+20
4.772740823e+20
4.012041048e+20
5.396547831e+20
5.989001157e+20
4.669395717e+20
6.374624564e+20
3.915664215e+20
3.387236766e+20
3.703663341e+20
2.692068265e+20
2.485950538e+20
1.366059765e+20
1.835063599e+20
2.542265475e+20
2.328734922e+20
2.346589049e+20
3.31060671e+20
3.336383991e+20
3.122382565e+20
3.873327864e+20
4.636246996e+20
2.213766247e+20
3.223568795e+20
2.99990627e+20
3.780763561e+20
5.337019969e+20
5.12543524e+20
5.685584337e+20
3.648909501e+20
4.205999001e+20
6.363654484e+20
4.546979854e+20
6.475857397e+20
5.716773882e+20
5.493406774e+20
5.543151844e+20
5.314115768e+20
2.82269733e+20
3.988560521e+20
2.916407266e+20
1.355973001e+20
2.504442884e+20
2.981978349e+20
1.61780529e+20
9.314939689e+19
2.11193016e+20
2.364719079e+20
3.336384016e+20
2.882199313e+20
4.357493813e+20
4.392233927e+20
2.21376623e+20
4.959336608e+20
3.999874995e+20
5.041018082e+20
3.303869532e+20
3.587804668e+20
3.101227794e+20
4.43081868e+20
2.891624337e+20
3.712131782e+20
4.546979854e+20
4.317238265e+20
5.172319181e+20
5.493406677e+20
5.543151795e+20
4.754735161e+20
4.234045957e+20
2.467729225e+20
2.48595052e+20
3.64282604e+20
1.605680649e+20
1.848920332e+20
3.027355376e+20
2.111930128e+20
2.364719043e+20
2.383131404e+20
3.122382589e+20
3.389161907e+20
2.928155997e+20
2.213766247e+20
2.727635134e+20
2.249929685e+20
4.032814433e+20
5.082876161e+20
3.587804668e+20
4.134970393e+20
7.558455333e+20
4.994623771e+20
6.628806642e+20
4.814449216e+20
5.126720484e+20
4.627864611e+20
2.916407287e+20
1.807964015e+20
2.276766242e+20
2.064446534e+20
1.386690249e+20
3.027355399e+20
1.642612346e+20
1.655303355e+20
1.906505138e+20
9.607330968e+19
2.420829896e+20
3.660194968e+20
2.459740275e+20
2.975601965e+20
3.249898459e+20
3.276661779e+20
2.541438081e+20
2.818989359e+20
4.910277341e+20
1.794712177e+20
2.711946022e+20
1.82141302e+20
1.605680649e+20
2.080035373e+20
2.561608395e+20
1.877271225e+20
2.837662873e+20
2.383131422e+20
7.205498226e+19
1.936663932e+20
2.440129979e+20
3.443636357e+20
1.487800982e+20
3.813763348e+20
3.389932503e+20
2.73211951e+20
1.376297699e+20
2.311150432e+20
9.314939689e+19
1.877271239e+20
1.891775263e+20
2.467729243e+20
)
;

boundaryField
{
    flow
    {
        type            zeroGradient;
    }
    obstacle
    {
        type            calculated;
        value           nonuniform List<scalar> 
30
(
306.0990897
534.5731531
655.1932779
95.26087208
240.264816
88.16903497
1e-300
1e-300
1e-300
154.6745608
82.66215717
1e-300
102.8598764
392.6933338
362.8751161
119.1759217
1e-300
1e-300
82.84289386
224.762418
306.886892
120.9326201
97.31969873
420.165178
213.9283716
1e-300
193.4088527
486.8716605
268.0916862
204.1768553
)
;
    }
    frontAndBack
    {
        type            empty;
    }
    procBoundary1to0
    {
        type            processor;
        value           nonuniform List<scalar> 
21
(
7.794732648e+20
5.122252883e+20
7.349319353e+20
4.231426294e+20
4.899546239e+20
4.231426297e+20
2.227066471e+20
1.336239882e+20
3.340599706e+20
3.117893059e+20
2.227066471e+20
1.781653184e+20
3.117893059e+20
2.4497731e+20
3.117893059e+20
3.117893059e+20
1.336239882e+20
2.672479765e+20
1.781653189e+20
2.449773118e+20
2.227066471e+20
)
;
    }
    procBoundary1to3
    {
        type            processor;
        value           nonuniform List<scalar> 
36
(
4.558354881e+20
6.31741779e+20
3.603048699e+20
4.195354554e+20
4.558354881e+20
5.92766434e+20
5.734000597e+20
4.468873938e+20
2.916674972e+20
6.151796274e+20
3.50775609e+20
6.31741779e+20
4.900091856e+20
1.74994531e+20
3.276661727e+20
2.541438081e+20
3.075261144e+20
5.734000597e+20
3.876534743e+20
2.859757706e+20
2.88219929e+20
2.420829896e+20
2.440129979e+20
1.229870137e+20
1.74994531e+20
4.215436117e+20
1.807964028e+20
2.73211953e+20
2.523212449e+20
2.311150415e+20
2.328734922e+20
2.346589066e+20
2.859757706e+20
2.128247171e+20
1.807964028e+20
1.570373143e+20
)
;
    }
}


// ************************************************************************* //
