/*--------------------------------*- C++ -*----------------------------------*\
| =========                 |                                                 |
| \\      /  F ield         | OpenFOAM: The Open Source CFD Toolbox           |
|  \\    /   O peration     | Version:  2406                                  |
|   \\  /    A nd           | Website:  www.openfoam.com                      |
|    \\/     M anipulation  |                                                 |
\*---------------------------------------------------------------------------*/
FoamFile
{
    version     2.0;
    format      ascii;
    arch        "LSB;label=32;scalar=64";
    class       volScalarField;
    location    "0.009";
    object      internalEMean;
}
// * * * * * * * * * * * * * * * * * * * * * * * * * * * * * * * * * * * * * //

dimensions      [1 -1 -2 0 0 0 0];

internalField   nonuniform List<scalar> 
546
(
2.980518335
2.995791704
2.906907693
2.931865627
2.898552865
2.891644072
2.967600756
2.896286136
2.917762947
2.871948195
2.840423363
2.893733309
2.833366422
2.919244044
2.920826266
2.844070853
2.713936793
2.779633672
2.75811793
2.724217205
2.694954186
2.687542113
2.626023073
2.611275414
2.484156273
2.427320446
2.33646433
2.29270822
2.066938779
1.70219045
2.901618189
2.91688782
2.875682019
2.877905547
2.887564104
2.953533491
2.947551691
2.915879092
2.902449502
2.899838898
2.900654252
2.945230931
2.926005753
2.965657654
2.946196258
2.877053788
2.808007876
2.816114972
2.793212856
2.755587608
2.749592759
2.67464715
2.668589429
2.590650687
2.552739525
2.485691027
2.364041662
2.259475528
2.028153703
1.727432266
2.739923964
2.805219234
2.851717921
2.868694243
2.868832885
2.8637691
2.849844762
2.873362583
2.895292302
2.881542315
2.900316718
2.913493345
2.878734691
2.904576858
2.887501548
2.832982362
2.893481326
2.831893838
2.762785554
2.771948429
2.69909147
2.673959725
2.705487795
2.618575892
2.552838181
2.475075214
2.376192335
2.26424682
2.083289691
1.841830562
2.431298928
2.516255011
2.68296574
2.689029494
2.746324283
2.787385866
2.827285038
2.791962785
2.844576218
2.85146615
2.859269223
2.876719511
2.884823817
2.884197702
2.824928841
2.824097797
2.815048101
2.771696016
2.794900884
2.777627182
2.763490986
2.723074069
2.673795909
2.628859683
2.616142899
2.537842713
2.486135929
2.240298276
2.10208112
1.908632751
2.143902416
2.258998497
2.41459712
2.516578254
2.58730626
2.619184652
2.654417196
2.696052855
2.781641647
2.774359642
2.77038706
2.807529245
2.831478364
2.828482594
2.841188709
2.777515865
2.757619416
2.75951853
2.764385407
2.749200539
2.726227773
2.698959402
2.659668498
2.647082857
2.588784817
2.534320873
2.497005753
2.301329399
2.161426251
1.974615999
1.885538231
2.014942667
2.162393465
2.278661047
2.352132313
2.45375423
2.536901552
2.604242415
2.628908334
2.689988042
2.744814132
2.735535839
2.716377231
2.762970489
2.784848393
2.779291374
2.77095208
2.778022385
2.777624915
2.739244062
2.69524448
2.667290517
2.682942334
2.694813719
2.593011904
2.504536516
2.44185172
2.346322892
2.228901637
2.045912568
1.594583944
1.72817684
1.875589167
2.001343786
2.174786561
2.264716002
2.343678986
2.415780789
2.476541516
2.531603222
2.597567017
2.675828218
2.699228411
2.727866503
2.727684009
2.722206814
2.740439513
2.767427225
2.753961528
2.740023645
2.711532687
2.645310052
2.657616942
2.645564027
2.618999054
2.533264
2.436828112
2.389203445
2.300686162
2.131264813
1.31179786
1.45961301
1.597237214
1.739693556
1.861168674
2.002652901
2.143760041
2.205047613
2.290942975
2.375147237
2.43929003
2.501529347
2.541409467
2.613278065
2.672401436
2.66988708
2.715605899
2.721131275
2.71759586
2.748616995
2.752355783
2.662538809
2.62313308
2.614325518
2.607541529
2.569998756
2.518887979
2.435120051
2.368649021
2.236800484
1.09041388
1.214821912
1.345534195
1.46370524
1.610840799
1.728864554
1.858649116
1.964519839
2.068409346
2.176242524
2.270672452
2.379026332
2.441378735
2.499479374
2.55780968
2.601454604
2.656039312
2.658184303
2.657882419
2.703377667
2.696976837
2.708689047
2.659368484
2.638508125
2.593409322
2.585567559
2.546505096
2.474272385
2.373459527
2.280125086
0.8882703322
0.9841286705
1.100243396
1.218541526
1.360860096
1.491071666
1.621658997
1.753831379
1.869490242
1.966426908
2.071800575
2.189028528
2.254027767
2.3354074
2.412013777
2.487634965
2.534197958
2.594807769
2.607007475
2.61371547
2.639084354
2.65656691
2.667474243
2.639013074
2.637595977
2.58481204
2.540918582
2.479875691
2.373649235
2.271002657
0.781406633
0.8597941943
0.9446200601
1.039380987
1.117643186
1.224019601
1.353222659
1.500840335
1.621077704
1.767676017
1.890077366
1.979998574
2.092180204
2.186947689
2.258087849
2.315540675
2.404029394
2.476050949
2.501305299
2.535589572
2.580909111
2.602553688
2.615484542
2.651098728
2.572827311
2.559910509
2.513626767
2.490605195
2.447512549
2.326390546
0.6868851597
0.742945893
0.8065371306
0.8847899382
0.9641334596
1.052876986
1.170459969
1.276241149
1.394771562
1.508120318
1.648939012
1.778865138
1.888497201
2.007915497
2.101833204
2.191672678
2.244094107
2.354690172
2.437497832
2.46107073
2.49941447
2.540298671
2.538417767
2.527255752
2.539865279
2.542719076
2.502274295
2.46449728
2.445492722
2.411475225
0.5958721247
0.6405057346
0.7082484133
0.766527143
0.8353382393
0.9098983767
0.9840960205
1.084458317
1.191921887
1.299666543
1.389681943
1.556009091
1.695872188
1.818218892
1.943922722
2.017450385
2.112408357
2.204152537
2.278380564
2.35952021
2.382279022
2.45446511
2.48778743
2.527498168
2.501025996
2.493072665
2.502355456
2.466558634
2.425754482
2.39081791
0.5475901806
0.5804824095
0.6134644067
0.6811142938
0.731223758
0.8025025436
0.8594706019
0.9296554527
1.00883084
1.117338282
1.231024718
1.327908279
1.441074166
1.587041088
1.715327558
1.827160265
1.942791407
2.050250607
2.135476727
2.217662006
2.260096764
2.318083041
2.416561623
2.4619065
2.477314844
2.477292017
2.499707191
2.492228575
2.469570287
2.395935905
0.5146051765
0.5376133397
0.5678285528
0.5865073238
0.6325308354
0.6877547126
0.7389643396
0.8009470961
0.8862817698
0.964555509
1.0677719
1.158643083
1.260187211
1.377523907
1.491864167
1.625048621
1.748669476
1.841854563
1.964721581
2.08384731
2.167838936
2.250263865
2.316720614
2.353108911
2.408228441
2.422369154
2.447401369
2.458107147
2.421911642
2.388819646
0.4887812103
0.5011130401
0.5259523009
0.5502018373
0.5772362802
0.61630024
0.6629960645
0.7195878816
0.7722317094
0.8391522264
0.90424322
0.9943938086
1.086366985
1.174807664
1.300905272
1.406078441
1.543111232
1.641676505
1.743074346
1.848401564
1.958603576
2.0444029
2.117275491
2.215816992
2.292107775
2.336469769
2.363631728
2.383233703
2.368249216
0.4706712184
0.477103248
0.4913962168
0.5185001515
0.5439862678
0.5754821914
0.6116225271
0.6316667355
0.6654302236
0.7224537183
0.7814117641
0.8380374791
0.9232464089
1.00726381
1.10291598
1.212411277
1.33029044
1.45645225
1.582290583
1.66475902
1.766701968
1.898823208
2.004047329
2.070547788
2.123569618
0.4613247003
0.4726951777
0.4852477186
0.4993350741
0.5130554172
0.5249057835
0.5499815409
0.5803840641
0.6109901206
0.6506959519
0.7043644051
0.7524701909
0.81036046
0.8919333493
0.9615320061
1.038649666
1.135572305
1.25613179
1.355201379
0.4470021876
0.4556876161
0.4668942325
0.4796153953
0.4920981845
0.5057723897
0.52497146
0.540009884
0.575436601
0.5954106471
0.634606844
0.6791885159
0.7228002207
0.7820006541
0.4437329981
0.450184119
0.449928033
0.4593645689
0.474540416
0.4818651632
0.4922307043
0.5101892494
0.4278741016
)
;

boundaryField
{
    flow
    {
        type            calculated;
        value           nonuniform List<scalar> 
15
(
1.70219045
1.727432266
1.841830562
1.908632751
1.974615999
2.045912568
2.131264813
2.236800484
2.280125086
2.271002657
2.326390546
2.411475225
2.39081791
2.395935905
2.388819646
)
;
    }
    obstacle
    {
        type            calculated;
        value           nonuniform List<scalar> 
30
(
1.174958028e-18
1.164776043e-18
1.155683249e-18
1.19740043e-18
1.163847498e-18
1.124603904e-18
1.169996359e-18
1.152513268e-18
1.224249257e-18
1.104302244e-18
1.12698711e-18
1.136044215e-18
1.086286129e-18
1.117536182e-18
1.183428798e-18
1.086889328e-18
1.083622022e-18
1.0977228e-18
1.083575355e-18
1.022084381e-18
1.064013184e-18
9.762724926e-19
1.044175657e-18
1.103522223e-18
1.023051935e-18
9.414387747e-19
9.301013348e-19
9.264980275e-19
8.338223752e-19
7.280347756e-19
)
;
    }
    frontAndBack
    {
        type            empty;
    }
    procBoundary1to0
    {
        type            processor;
        value           nonuniform List<scalar> 
21
(
2.996173136
2.865544853
2.654138396
2.345850499
2.028414597
1.725315763
1.428835235
1.153513729
0.9634847687
0.799989283
0.7147335344
0.6248711831
0.5591992147
0.5185366545
0.501747178
0.4778456301
0.4601700237
0.4504320879
0.4432153199
0.4367646861
0.430105838
)
;
    }
    procBoundary1to3
    {
        type            processor;
        value           nonuniform List<scalar> 
36
(
2.33417626
2.186392345
2.25952012
2.319682698
2.33417626
2.332496794
1.465731889
1.584290535
1.707314487
1.808446923
1.926864867
2.186392345
2.029167484
0.8485631859
0.9257421282
1.010574865
1.087531588
1.465731889
1.199020369
0.5323525721
0.5493893875
0.5698539521
0.5992332969
0.6364133826
0.8485631859
0.6847377896
0.4312988298
0.4394872328
0.4393323049
0.4494780484
0.4624071082
0.4711190005
0.5323525721
0.482924291
0.4312988298
0.427476418
)
;
    }
}


// ************************************************************************* //
