/*--------------------------------*- C++ -*----------------------------------*\
| =========                 |                                                 |
| \\      /  F ield         | OpenFOAM: The Open Source CFD Toolbox           |
|  \\    /   O peration     | Version:  2406                                  |
|   \\  /    A nd           | Website:  www.openfoam.com                      |
|    \\/     M anipulation  |                                                 |
\*---------------------------------------------------------------------------*/
FoamFile
{
    version     2.0;
    format      ascii;
    arch        "LSB;label=32;scalar=64";
    class       volScalarField;
    location    "0.009";
    object      internalT;
}
// * * * * * * * * * * * * * * * * * * * * * * * * * * * * * * * * * * * * * //

dimensions      [1 2 -2 0 0 0 0];

internalField   nonuniform List<scalar> 
546
(
706.7420394
704.2259281
695.6572276
700.4798565
699.7975523
700.7212865
712.675111
694.4666633
693.2763279
692.4945892
690.9299432
693.2947354
690.5435345
701.6646068
702.7957501
697.7906271
688.1092681
687.243349
681.2664805
683.3859958
682.3542261
672.6276238
672.5143051
673.221778
664.7239163
660.8944923
667.5613803
676.9906734
661.2279304
657.3185645
760.7344863
767.4838367
767.0573358
765.4342981
769.9360712
778.3564862
779.8713347
770.5966006
772.1209236
774.7937142
771.4816413
775.4720792
773.4385253
777.8370175
781.004529
768.2552862
760.1886831
753.5397412
753.5271625
754.0109107
753.3068969
739.6617916
741.8236896
730.3675269
734.5857798
724.7461192
721.0685554
729.8316836
721.0568519
729.3779653
771.0257698
779.342156
791.3571891
799.875927
806.5496577
804.7820411
799.1157329
808.9066135
802.5701381
808.0654891
811.7791713
804.8760719
803.3977245
812.7222787
807.4058434
808.5283614
815.0188383
794.3363902
792.0632011
794.4542826
790.6979844
784.3167603
776.5629337
782.9658244
780.9874396
771.5372633
758.2473176
762.9018323
762.492465
767.9449274
729.5659864
744.9625498
774.2057083
774.1782976
785.9342752
797.8137872
802.4367644
800.5933363
814.9989011
819.4178113
824.1832218
830.4509292
827.8149141
831.3266448
819.9724284
826.2339445
823.3799188
808.7731895
816.2629713
813.2955805
821.8160915
813.3862
809.0081673
804.7253887
814.760736
803.857943
815.1395324
782.7136651
763.5134981
755.5928491
687.1749873
711.4525953
734.3398724
747.9587515
757.9060864
771.1739389
777.8346733
788.6117921
805.2076024
807.8320144
810.4661557
812.6373349
820.6286809
822.5456498
827.2705534
816.4756628
823.5717538
819.8348847
823.1434506
826.6701329
822.4721191
826.6420154
823.3787315
827.8314544
823.8449792
812.9742992
814.3216124
799.4467629
791.454522
780.6743551
650.1697313
668.3781696
690.3201172
713.3248096
722.9618481
746.5574083
761.175596
772.2952068
775.4385186
790.0115324
797.8533906
799.911199
802.2370518
811.5288729
820.9961207
818.3835768
825.9763516
823.3128753
825.8475902
820.0677209
817.1311328
822.0631514
836.4166992
838.3847835
821.7609612
812.457822
813.2032566
804.8915071
797.485695
793.3845555
602.9798767
619.7604099
648.4390705
667.2933513
696.339019
707.9878681
722.1786296
731.4997364
746.8031714
753.6328754
767.6477552
783.0689483
792.3512502
798.4972218
801.9313426
805.7394744
811.4679891
818.7324017
817.8286623
823.0003713
820.9652248
810.8870434
822.5137552
828.708139
821.699055
818.7329025
804.6825263
811.3258692
814.1384308
796.6964614
554.2063111
577.2617281
598.3685439
619.6928741
641.7302516
664.3781098
686.275377
689.9560416
706.6182057
722.1872301
731.1357198
739.9317577
755.7173294
771.6223797
782.0456335
779.2395866
792.7389721
801.8278372
806.1466956
812.3333305
817.0251604
808.6266091
803.0708716
813.4173876
817.2690854
818.3356436
814.0420601
812.7437178
811.5274297
802.026746
503.478384
533.1722912
554.4346865
572.7975387
597.9921237
615.5079201
633.8330434
652.0571817
666.1797095
687.8233617
703.710977
716.185915
725.4266797
740.6080866
753.3137573
758.9241452
775.3679586
780.1074163
783.8059396
798.1897618
800.8353993
808.3331372
806.1039843
805.3624338
801.3129564
802.7432885
812.6054515
812.9586135
802.707795
800.8447742
456.1155767
479.2740712
507.0967146
528.0076474
555.1476729
579.4124011
598.0803945
619.2425124
635.2642675
645.5661784
662.5051076
679.1867074
691.881903
705.243744
719.2950605
736.8403847
747.0776051
758.1317485
769.91015
773.0305302
777.2416554
785.7871376
796.6512996
803.3647278
803.1719397
796.3414277
796.3765904
794.2533192
789.6466407
785.2730805
427.7117511
447.6231162
467.1179624
486.1246415
499.603146
517.2420126
540.7077916
569.3699582
585.6350882
608.5008487
629.0931574
644.9373664
662.2767805
675.8856602
690.1327546
700.6960809
717.3028241
729.9320517
736.3832029
746.8682118
757.3021674
766.2427565
774.1705516
787.0405401
784.9165823
787.3613435
782.8466443
783.9117851
787.3168098
781.5013795
402.1797512
414.453069
432.1706506
450.4757979
464.1667303
483.3850053
507.4459915
525.8556133
543.0075412
561.7988611
587.1992938
610.9401952
625.6302422
642.6696326
658.9992354
675.9704968
684.0079661
704.8980516
718.5208044
725.3284154
735.6965566
744.8806989
750.8120592
751.4383505
761.7967229
768.6650742
767.5216004
774.3454047
775.8385587
775.6797338
369.8075324
383.4001281
404.4849638
421.3827732
438.710817
453.3267651
466.4551088
491.0327327
513.7904426
534.5840947
544.4175486
572.6789286
593.6370631
613.8834602
632.6997097
642.3124988
657.3763981
671.2083062
684.324453
699.1148253
705.2361648
717.4273944
728.761106
738.6557053
737.2377471
740.3877498
752.0310011
750.2242927
752.9642345
759.278958
355.2376481
366.5887502
376.9316092
398.1507024
411.0326324
432.4306268
444.352859
458.0377685
472.483533
491.7939967
511.9430348
531.4185817
550.8597746
574.7469815
594.0053168
610.0561394
627.1291563
642.7718807
656.3059122
668.9464419
674.3308576
689.716429
703.4827589
713.6764374
724.6373996
730.0101661
733.2370325
742.0724369
747.6031993
747.3977052
340.2274584
347.3489983
358.5560185
365.708464
380.2775427
396.487526
410.5998449
425.7378879
446.4274749
463.1380784
486.6019357
504.6382567
516.7302095
535.4180054
552.4075015
571.7450397
593.7353143
605.6233964
625.3916443
642.9270815
654.3070463
664.8706237
678.437556
685.7993168
695.4075367
704.8720008
712.7650537
720.716311
721.1325421
723.3249356
332.926024
339.6119794
347.2221458
358.1918239
365.9994968
378.0691202
389.4111724
405.2962743
417.8167451
435.0759747
444.5263536
461.9941985
483.7974444
496.0153024
520.1365017
536.9150019
561.6585009
573.7172222
589.1033638
601.2825
619.0878053
633.1281183
641.8733441
660.2347551
672.9781874
683.6485886
689.7778373
699.2120406
701.356417
324.392745
325.9903143
332.3010204
340.9589535
351.6684641
362.3193443
374.272365
374.0896346
382.8081638
397.8911617
412.6168702
425.3547286
448.7861088
468.1321179
485.5081365
505.9214182
522.5957545
542.8387512
558.6491342
574.3612792
584.8426371
602.0047267
622.079196
627.6637641
641.6363222
322.626638
326.1616074
329.5363817
336.2377963
339.8994976
343.0215799
354.1931685
366.6064846
372.2938202
383.3994321
402.2632351
411.745234
421.9282967
441.2828395
453.1760452
466.1533361
486.4698155
509.742122
524.5528626
313.735308
317.6788753
323.1115299
328.2955
333.6484665
337.6115761
343.1378609
347.8386927
362.2668676
368.2194704
376.2952681
390.8268328
401.2159918
417.176047
314.2109974
316.9445781
315.7122427
319.9752594
325.4602798
329.8733838
332.648336
338.3874299
306.4387437
)
;

boundaryField
{
    flow
    {
        type            calculated;
        value           nonuniform List<scalar> 
15
(
657.3185645
729.3779653
767.9449274
755.5928491
780.6743551
793.3845555
796.6964614
802.026746
800.8447742
785.2730805
781.5013795
775.6797338
759.278958
747.3977052
723.3249356
)
;
    }
    obstacle
    {
        type            calculated;
        value           nonuniform List<scalar> 
30
(
636.3717822
616.3425926
621.9313113
631.6509866
636.0591451
631.3487086
628.9583358
646.3244802
641.5689841
615.990283
635.8779465
608.4363378
617.1358189
620.8844356
645.3887049
630.1554113
629.4807765
631.2525623
611.5118102
565.9243818
633.855582
592.877968
612.5857855
642.6110235
627.3334213
613.9733814
616.9547948
612.80693
615.3908235
608.2679528
)
;
    }
    frontAndBack
    {
        type            empty;
    }
    procBoundary1to0
    {
        type            processor;
        value           nonuniform List<scalar> 
21
(
705.0349755
757.8913626
748.6476758
715.5804289
669.9023644
630.5291712
571.1399942
516.0969853
474.4354943
434.3829744
410.8483024
380.8455227
355.9394251
340.9870186
339.315228
327.7247889
320.1556881
318.2139071
313.1533116
311.4600929
306.7041474
)
;
    }
    procBoundary1to3
    {
        type            processor;
        value           nonuniform List<scalar> 
36
(
700.2368611
652.1831222
662.9071658
680.3613944
700.2368611
685.2846627
539.1239726
559.3753669
575.3366312
590.0638912
606.7817691
652.1831222
618.8600604
431.9090524
444.8038903
465.8573423
476.2921565
539.1239726
499.1182259
346.6974484
350.8139319
358.6046496
365.7256498
377.135537
431.9090524
390.208521
307.0663806
311.6859448
310.9993314
315.1609045
318.7432985
322.253848
346.6974484
326.1739309
307.0663806
303.735841
)
;
    }
}


// ************************************************************************* //
