/*--------------------------------*- C++ -*----------------------------------*\
| =========                 |                                                 |
| \\      /  F ield         | OpenFOAM: The Open Source CFD Toolbox           |
|  \\    /   O peration     | Version:  2406                                  |
|   \\  /    A nd           | Website:  www.openfoam.com                      |
|    \\/     M anipulation  |                                                 |
\*---------------------------------------------------------------------------*/
FoamFile
{
    version     2.0;
    format      ascii;
    arch        "LSB;label=32;scalar=64";
    class       volScalarField;
    location    "0.009";
    object      internalE;
}
// * * * * * * * * * * * * * * * * * * * * * * * * * * * * * * * * * * * * * //

dimensions      [1 -1 -2 0 0 0 0];

internalField   nonuniform List<scalar> 
546
(
3.558200413
2.36568879
3.361358743
3.290259781
3.030461641
3.65673738
3.695602139
1.603538007
2.614405751
3.318908713
2.25651273
3.085046853
1.505289716
1.942657626
2.292613491
2.98494346
3.290492194
2.621317413
4.734462876
1.225180149
4.767725417
3.035465214
2.728805392
1.6807754
2.887976539
2.370107785
2.570661143
1.834540773
1.811828092
1.856387602
2.799554794
3.76312113
1.943615768
1.342515818
3.245349731
4.013514722
3.551497834
1.999639583
2.342575287
2.204236057
4.151168062
1.645394728
3.419108408
3.784515326
2.992448823
3.470554458
4.256950411
2.565822597
2.50122845
2.901367315
1.8947585
2.961896268
4.244383183
1.603199647
4.240729089
2.96418167
1.278392231
1.735792744
2.102751187
0.6768984221
3.369761456
2.520655954
1.602831345
2.071000815
1.016881754
2.068708526
1.973745687
3.587022104
2.707817508
4.152976204
2.548253368
2.145852575
4.47784368
3.292330664
1.571240113
1.986287751
3.190275762
2.20879438
2.727230745
3.544778771
3.506595142
1.781231196
2.603662349
1.543384384
3.486569081
3.772466427
2.010457705
4.209601527
2.288998522
1.278505946
3.940683481
2.745811621
4.077946402
1.894387939
2.604537122
1.965906307
4.897058066
1.496618242
2.833614543
2.72434717
2.337803777
3.018555203
2.774909169
3.227204738
1.329011252
1.976880226
2.539623038
2.408008396
3.000578299
3.428599489
2.047975985
2.548123548
2.975127685
2.674743804
2.942173782
1.836507368
2.531537239
2.64565449
2.299222557
0.7196539543
2.829009194
2.670325255
2.108021877
2.37132597
3.331671326
2.74242623
1.067372683
2.787660175
1.314194966
2.875070983
1.306273408
2.465118962
2.752833358
1.829423996
3.713300264
4.122541478
1.591671738
3.115493838
2.426664814
3.169597766
3.771057257
4.802828982
2.836513201
2.068908233
2.463863966
3.6575925
2.705919118
2.860558421
2.094330755
2.592350253
2.106310831
2.417657972
3.165381517
2.830709288
1.971347494
3.690090481
2.34110631
2.787319308
2.5354644
1.991227341
3.813109747
4.083216129
2.928065648
3.900792881
3.415381928
4.1591361
3.194787078
1.537528423
3.940609979
2.528335609
3.640180142
2.800943622
2.878569977
3.847751253
4.409543703
1.597053524
2.730045443
1.841658429
1.766795988
2.475024322
0.9637522145
1.688125612
2.153084707
1.267866677
2.575241176
2.917115474
4.182425237
3.851467616
3.847456261
2.195779919
2.169124119
2.412758014
3.679037003
4.448185265
1.30069226
1.396402376
2.292603044
2.369469486
2.721880568
3.347437315
3.639274534
2.820536619
2.785223578
2.613883473
2.710291555
3.454505506
2.125563609
1.319432092
5.57532678
3.922326182
1.79302511
2.597371618
1.509739172
1.068344402
1.797201718
3.27231022
1.330417237
3.047015855
3.730144279
2.702220793
2.676068306
1.773646993
3.072348983
3.244854191
3.566633726
2.25194117
2.97332084
3.835786499
0.9124932459
2.196783137
3.139425763
0.8357661027
1.772143499
5.238761815
2.335757313
3.892386064
1.61982713
3.527285345
4.840122705
2.771880192
0.71416766
0.9547769626
1.533889174
0.7724796865
1.439695984
0.7675860023
2.038488862
2.006979764
1.859323671
2.572433063
1.63062779
3.217366352
1.742515324
2.198604278
3.57909358
2.532442837
1.976100648
2.247632532
5.12197975
3.453138014
0.9556443812
3.301885528
2.403465386
2.555035796
2.951033394
2.715077905
2.383666815
2.846711324
1.74938264
1.69823092
1.363140274
0.8321074007
1.281005772
1.974814214
1.282641796
1.39191951
0.7422383477
2.437893497
3.189908314
3.004681138
2.120543832
1.957468157
1.139974458
2.962057139
2.362781539
1.891936098
3.266563062
0.9119000253
2.541998858
1.70760011
3.164330714
1.94350671
3.265361684
3.46704541
3.717005733
4.215354885
3.588819168
1.56862069
2.165776504
2.944162395
0.5410225093
1.186121961
0.994119978
1.206402048
1.46047953
1.236147221
1.03722425
1.314176099
2.649528194
1.464131384
1.074989037
1.766491606
2.683900487
3.477763204
2.352228256
3.501468901
1.793350171
2.495819194
2.280359044
2.301547984
2.834096565
2.159281496
2.443095411
3.773235231
3.435179582
2.932583731
2.983442408
2.341479083
4.729656015
3.157347573
0.3602248499
0.8133107629
0.8812384766
0.3480210664
1.191234083
1.001504848
0.7686443287
1.058386701
1.274147833
0.55617459
2.819117223
2.2661004
1.965868721
0.7998888376
1.934286847
2.359139427
2.195594957
2.86365688
1.116685473
3.857727407
3.74374228
2.676901715
3.42205422
2.15754424
2.145816318
3.454076083
2.010598624
2.829471443
2.350456638
3.574223901
0.4377405169
1.376725675
0.5203676015
0.644431392
1.11848321
0.7824443666
2.120277746
0.5049703881
2.009092302
2.013114306
1.252459693
2.731954452
2.498521167
3.881688749
1.227500098
1.69042725
1.643377856
2.856506989
0.7414545651
3.328144138
2.910033542
1.506634894
0.7804396151
2.536780018
3.415246255
2.77260311
2.96591754
2.246233857
2.224428163
1.676080499
0.08004141824
0.8065847162
0.4878407126
1.19202995
0.7465661334
0.4524276712
0.5101071674
0.5373079403
1.429453177
1.112262168
0.6545710815
1.19262223
1.687598355
2.360848251
1.137876507
0.9126178337
2.374769153
2.748357355
3.994233786
2.772966603
1.994931417
2.540404285
1.874354627
3.328182845
3.476587641
1.700541918
3.814170127
1.865398149
1.130159924
1.978019707
0.7152681462
0.4361579853
0.115570292
0.4697099789
1.107448866
0.5228256238
0.5103544923
0.9386539478
1.108186788
1.220314692
1.596342453
0.69490246
1.168653876
0.9673903757
1.374124361
2.152645421
1.917627474
1.691894837
2.433379738
2.040022011
2.09628823
2.311553915
2.250812205
3.15482996
3.151416532
2.040391498
3.289735025
2.010938028
2.195340106
1.568970548
0.5298098374
0.1965608277
0.4555216007
1.080386032
0.4643725217
0.02046770325
0.363282452
0.7956387137
1.332755919
0.7722172891
1.559608344
1.515803248
0.7298268933
1.546898163
1.388088951
1.708894717
0.9693482901
1.462476786
2.231928827
1.172897646
0.9159791514
1.164401619
1.546315762
1.842512794
1.927900458
2.05767898
3.200008061
1.952783822
2.537391531
0.5222391954
1.152583278
1.056176226
0.3463136283
0.2469446872
0.759417079
0.3510812691
0.7217156168
1.167252295
0.8563863609
0.8211421696
0.4951545817
0.4486212802
0.6475169007
0.3189230143
1.052644033
1.302448516
2.074529997
1.18532455
3.417773958
1.281134998
2.371912628
1.744561519
2.916284647
1.903887496
0.6010872958
0.549467124
0.5369193197
0.4730670158
0.06225886083
0.6708855209
0.2306065299
0.433858936
1.046675372
0.04778817366
1.002250439
1.224166075
0.3466045298
0.6097066519
0.9863400065
1.199117171
0.7119594138
0.934363216
1.743123953
0.4532771755
0.5567998625
0.4333082686
0.3887094105
0.455649005
0.3469935932
0.4214167329
0.503903863
0.3049681468
0.1220365614
0.2673625847
0.6250906338
0.9265415623
0.1648483958
1.624142261
0.8468316312
0.5441325911
0.09295089454
0.2839914507
0.2957219601
0.6456600687
0.450630576
0.7181214782
)
;

boundaryField
{
    flow
    {
        type            zeroGradient;
    }
    obstacle
    {
        type            calculated;
        value           nonuniform List<scalar> 
30
(
1.384165434e-18
4.089325039e-18
3.115141451e-18
2.848918151e-19
1.811634452e-18
2.310720229e-19
0
0
0
4.27729899e-19
1.114682751e-18
0
8.441690986e-19
7.78820036e-19
1.191724057e-18
1.232855235e-19
0
0
4.201353454e-19
1.264687775e-18
1.284759523e-18
2.047731024e-19
7.168999641e-19
1.958163359e-19
1.044438924e-18
0
2.831747735e-18
2.314999954e-18
1.822881278e-18
5.552348441e-19
)
;
    }
    frontAndBack
    {
        type            empty;
    }
    procBoundary1to0
    {
        type            processor;
        value           nonuniform List<scalar> 
21
(
2.832634032
2.067100386
5.704834322
1.955486953
2.393704023
2.055777004
0.7782606459
0.3621447926
0.8612667167
1.334191751
0.8740370628
0.3085961728
1.112844343
0.5212187813
0.5975815567
0.7975755728
0.3434536165
0.3131545032
0.3523339356
0.2403528844
0.3030366372
)
;
    }
    procBoundary1to3
    {
        type            processor;
        value           nonuniform List<scalar> 
36
(
1.48336925
3.633802187
2.011796613
2.313800393
1.48336925
3.183439149
1.818003793
1.758771871
1.27851357
2.038190676
1.820536903
3.633802187
1.256484779
0.6438233685
1.013387867
0.9939561857
0.9700710205
1.818003793
1.542320137
0.5386022024
0.4874997938
0.6244593894
0.7073093011
0.2106183663
0.6438233685
1.109193304
0.4005350252
0.724797935
0.6017307419
0.4572521015
0.1517903987
0.6573139894
0.5386022024
0.4195611386
0.4005350252
0.4150067999
)
;
    }
}


// ************************************************************************* //
