/*--------------------------------*- C++ -*----------------------------------*\
| =========                 |                                                 |
| \\      /  F ield         | OpenFOAM: The Open Source CFD Toolbox           |
|  \\    /   O peration     | Version:  2406                                  |
|   \\  /    A nd           | Website:  www.openfoam.com                      |
|    \\/     M anipulation  |                                                 |
\*---------------------------------------------------------------------------*/
FoamFile
{
    version     2.0;
    format      ascii;
    arch        "LSB;label=32;scalar=64";
    class       volScalarField;
    location    "0.009";
    object      linearKEMean;
}
// * * * * * * * * * * * * * * * * * * * * * * * * * * * * * * * * * * * * * //

dimensions      [1 -1 -2 0 0 0 0];

internalField   nonuniform List<scalar> 
546
(
7.018670057
6.815758983
6.554871602
6.388029649
6.220664617
6.090870457
6.071163441
5.954836255
5.861558863
5.729187729
5.612251073
5.615831078
5.46144277
5.518991506
5.405792219
5.23061927
5.068853165
5.108326734
5.06596849
4.987172067
4.970460445
4.919267241
4.834623576
4.88845419
4.699141831
4.591538821
4.405941788
4.232402862
3.999705614
3.576427226
8.791867647
8.453779841
8.160869734
7.936034666
7.734598265
7.583629438
7.340161951
7.198478581
7.028295853
6.890781078
6.717226731
6.643118723
6.532834322
6.464974573
6.340756079
6.150742813
6.012942651
5.967535669
5.849317243
5.744386818
5.66620348
5.574711489
5.533580796
5.423684071
5.310902604
5.211897146
5.014210196
4.803573957
4.500836378
4.111348226
10.27654775
10.09435175
9.838036879
9.54567405
9.180424586
8.817360498
8.64961346
8.425255222
8.270564064
8.091354379
7.882698569
7.777598604
7.545799825
7.355225123
7.245514861
7.046713096
6.966042468
6.875867369
6.638406587
6.561837556
6.345044651
6.314877186
6.266005301
6.045025512
5.901912241
5.735258354
5.605627139
5.399845367
5.165323635
4.8525446
11.37390458
11.26986899
11.16887667
10.90467547
10.70128127
10.48170139
10.18043809
9.850810558
9.535337823
9.297308022
9.06504795
8.815923643
8.67239104
8.466186187
8.24021557
8.030104996
7.90770347
7.751216064
7.610242868
7.457016291
7.289582074
7.09110282
6.959611885
6.825852215
6.678161439
6.520814203
6.241180145
6.037366209
5.880785925
5.63511179
11.90490697
11.86534868
12.00553427
11.9689296
11.78112894
11.51823905
11.26827997
11.01887228
10.84817309
10.53257507
10.24653781
10.10582935
9.892892286
9.639768049
9.400017746
9.138448683
8.826207936
8.685983005
8.508792336
8.281892155
8.125953373
7.918596575
7.772645954
7.631004786
7.452135165
7.316673201
7.197316889
6.803515211
6.51691917
6.214650653
11.93305402
12.13325471
12.36500772
12.40126971
12.33271705
12.21681312
12.17423493
12.01310045
11.81141914
11.65470366
11.51604316
11.22612548
10.90982504
10.70609977
10.42025971
10.21441274
9.936553449
9.770581041
9.586863519
9.363814644
9.030942599
8.860397567
8.631138474
8.486841276
8.296116101
8.07023116
7.801116307
7.602801253
7.351647872
6.99387766
11.67503547
12.06767911
12.24531274
12.42608352
12.67046323
12.84788225
12.82807835
12.79490411
12.69332258
12.57273434
12.37776721
12.16827233
11.98741201
11.76573067
11.46107514
11.23740494
10.97291286
10.74138272
10.57180391
10.26628548
10.06412103
9.810165541
9.602259434
9.397128237
9.257562439
8.899895491
8.687247343
8.467308924
8.157811645
7.846074454
10.964483
11.48739549
12.0009993
12.44331374
12.62643536
12.8383252
13.11079968
13.21170864
13.23171822
13.1855053
13.07843157
13.00031527
12.75465516
12.59998546
12.4961447
12.33450656
12.09044966
11.78857627
11.56034872
11.38975544
11.17400826
10.86495462
10.5466401
10.24401048
9.998775881
9.73043407
9.564696803
9.279167336
9.060171757
8.695698509
10.5146752
10.89559685
11.39298585
11.79473352
12.2994271
12.54238802
12.8648373
13.08254351
13.32320437
13.38376878
13.48166738
13.59641985
13.55147534
13.41798311
13.2978342
13.17149275
12.98834192
12.71864399
12.41211117
12.20764855
11.88903596
11.72287277
11.38950395
11.22164435
10.94588264
10.7734412
10.42367386
10.16218211
9.820863586
9.547847416
9.804603931
10.17859256
10.63160151
11.11474141
11.61817765
12.06579445
12.49929914
12.89150601
13.19633774
13.50692039
13.68121634
13.87721114
13.87142152
13.85901643
13.80636727
13.75044355
13.68560894
13.51065344
13.25689409
13.04200728
12.82050135
12.59558236
12.36033207
12.02498971
11.85435215
11.57410493
11.28455063
10.98008129
10.54384761
10.17724452
9.448634317
9.792520185
10.17384574
10.66741867
11.00587343
11.4945802
11.98450639
12.42213762
12.89172401
13.31545311
13.61337368
13.77888204
14.055086
14.14639084
14.11327211
14.11830191
14.13560099
14.10079211
13.90866939
13.78691789
13.58022886
13.41611865
13.18771327
12.92774285
12.52473631
12.3126357
11.96945544
11.73289748
11.47382567
10.99204237
9.025965193
9.365067925
9.652143117
10.03434987
10.54886618
10.92574365
11.39082089
11.82246098
12.39014677
12.76886898
13.25639693
13.502676
13.85324905
14.2092621
14.3892973
14.4298227
14.42959785
14.47654229
14.51926468
14.34053997
14.20612491
14.05584801
13.82828487
13.57594349
13.33566375
13.13295181
12.8576492
12.43307389
12.14997099
11.95733858
8.727089903
8.972182082
9.318225908
9.531869401
9.882390667
10.28441484
10.6650033
11.08289015
11.5432581
11.93870895
12.4224715
12.9898259
13.46630168
13.81986797
14.18340627
14.45367532
14.5908863
14.70933826
14.81822175
14.85446789
14.78376348
14.75568586
14.58732446
14.46214175
14.19046858
13.90958165
13.62859361
13.32992625
13.02956844
12.71205637
8.432494828
8.607659051
8.765385821
9.140276744
9.453772489
9.760440035
10.0565541
10.42703923
10.82253072
11.36834211
11.90897107
12.2771469
12.71491695
13.21801306
13.62319083
14.08178666
14.45406453
14.71676253
14.95367067
15.0783022
15.12798042
15.00633851
15.09718229
14.93259465
14.76511456
14.56078818
14.48816262
14.17527125
13.86211276
13.40911516
8.377378781
8.522908833
8.663621274
8.717271935
8.97861755
9.246941947
9.509933474
9.849792101
10.26265538
10.6317494
11.10078933
11.50953813
12.07228365
12.61480626
13.14019672
13.6815578
14.08699417
14.43273534
14.74382822
15.02567871
15.23143564
15.45584066
15.45461154
15.41567247
15.35137969
15.16929487
14.98783073
14.76507491
14.49461522
14.21027116
8.138232556
8.160987706
8.352291105
8.413091575
8.591041322
8.813715743
9.119897115
9.422373433
9.740034778
10.08992951
10.53857458
11.05519465
11.44248725
11.97902389
12.45904723
12.88555912
13.35522589
13.79419598
14.19006142
14.6131571
14.91903546
15.08465763
15.30684468
15.36903031
15.55639782
15.46196713
15.35328041
15.21914731
14.95613363
8.12879913
8.185929052
8.247212968
8.412550973
8.537116406
8.71253083
8.91595134
9.167455922
9.38242356
9.713750647
10.01912362
10.33466578
10.68933736
11.09705261
11.57599358
12.10840495
12.7188418
13.23763558
13.84756751
14.11381105
14.59290991
15.02695224
15.25684437
15.51075396
15.53012699
8.020940445
8.084662905
8.189892892
8.257781882
8.361476382
8.468040057
8.578791974
8.701740827
8.950975051
9.203627175
9.42206607
9.746996007
10.17981054
10.61191203
11.01435528
11.46706766
11.93730716
12.46790239
12.95210742
8.00024003
8.040066621
8.115244556
8.185124336
8.235633921
8.325007756
8.458966542
8.559984311
8.704192506
8.823993079
9.180056495
9.398021016
9.660065048
9.953616403
8.008133985
8.048664766
8.057678953
8.065591169
8.1842038
8.170296468
8.244322592
8.364589792
7.909515432
)
;

boundaryField
{
    flow
    {
        type            calculated;
        value           nonuniform List<scalar> 
15
(
3.576427226
4.111348226
4.8525446
5.63511179
6.214650653
6.99387766
7.846074454
8.695698509
9.547847416
10.17724452
10.99204237
11.95733858
12.71205637
13.40911516
14.21027116
)
;
    }
    obstacle
    {
        type            calculated;
        value           nonuniform List<scalar> 
30
(
2.330676524e-18
2.402921852e-18
2.279947871e-18
2.32933802e-18
2.186518927e-18
2.14302935e-18
2.170855153e-18
2.097271293e-18
2.129663159e-18
2.020779379e-18
2.037419935e-18
2.058234331e-18
1.977637607e-18
2.016012782e-18
2.015841164e-18
1.918962888e-18
1.887472842e-18
1.872765596e-18
1.879636788e-18
1.951969884e-18
1.830664126e-18
1.787704391e-18
1.793837412e-18
1.885228117e-18
1.790439626e-18
1.703043584e-18
1.691424342e-18
1.65733959e-18
1.525745471e-18
1.395277863e-18
)
;
    }
    frontAndBack
    {
        type            empty;
    }
    procBoundary1to0
    {
        type            processor;
        value           nonuniform List<scalar> 
21
(
7.240353002
9.094186968
10.53974175
11.55935261
11.75003376
11.6081481
11.26252835
10.50372045
10.01459266
9.457177759
9.107047847
8.784179644
8.544450249
8.382976291
8.235149103
8.106490023
8.097072704
7.947684921
7.979367237
7.952932528
7.934458779
)
;
    }
    procBoundary1to3
    {
        type            processor;
        value           nonuniform List<scalar> 
36
(
14.68030192
15.61805819
15.71635325
15.561836
14.68030192
15.49084253
13.45496396
13.94726264
14.49876383
14.85682299
15.2818775
15.61805819
15.53034896
10.36367098
10.88200141
11.25033937
11.73636167
13.45496396
12.19481896
8.498766252
8.652625158
8.736083492
8.982393044
9.247818691
10.36367098
9.509122916
7.953591955
7.956884859
7.967008088
8.04249497
8.173253045
8.23911118
8.498766252
8.30135526
7.953591955
7.983867594
)
;
    }
}


// ************************************************************************* //
