/*--------------------------------*- C++ -*----------------------------------*\
| =========                 |                                                 |
| \\      /  F ield         | OpenFOAM: The Open Source CFD Toolbox           |
|  \\    /   O peration     | Version:  2406                                  |
|   \\  /    A nd           | Website:  www.openfoam.com                      |
|    \\/     M anipulation  |                                                 |
\*---------------------------------------------------------------------------*/
FoamFile
{
    version     2.0;
    format      ascii;
    arch        "LSB;label=32;scalar=64";
    class       volScalarField;
    location    "0.009";
    object      linearKE;
}
// * * * * * * * * * * * * * * * * * * * * * * * * * * * * * * * * * * * * * //

dimensions      [1 -1 -2 0 0 0 0];

internalField   nonuniform List<scalar> 
546
(
7.768868328
3.600597881
5.339815287
7.036690626
5.479786174
7.559981742
4.663694806
3.450220089
5.160791734
7.017394589
6.864321152
7.902779552
4.132848649
6.036569328
6.567571139
7.602240387
6.033005284
6.358483493
6.167176558
5.320889516
5.197122567
3.419583739
5.806855962
1.948970744
3.155710332
3.375204695
4.693584474
4.863725258
5.830351943
4.313873303
8.336596689
12.33854156
7.441734581
6.128918465
6.221329193
9.609481477
10.23083279
6.687354262
7.506289254
6.473872684
12.15439305
4.619892429
4.945689361
6.928784136
6.919565625
6.516519308
6.34176995
5.263905449
4.395710158
6.364907614
3.341708632
4.849791797
5.745755763
2.513969883
6.24893854
4.826754986
3.644618769
4.407177695
4.034138606
2.961568501
11.12819016
7.810826489
5.842158292
7.158970706
3.321785967
8.990655481
7.90160837
10.6221657
8.874862238
10.72465292
6.756603777
6.723973146
11.56609468
6.417709353
5.75071876
4.000537805
5.63748546
9.89053141
4.751192599
8.309864767
6.919714819
6.842442478
7.381157839
4.033369043
3.524925592
7.636894444
6.257651133
4.012112324
5.788178447
3.144610685
13.60162228
14.4975092
11.4105644
9.598437617
10.36138102
8.944765261
12.63643397
5.106247383
11.78064224
8.955411614
7.961053432
9.17489223
8.820013005
8.348971323
7.546522223
6.5306732
3.957253998
6.745544541
9.838242059
5.870937367
5.917561749
5.945817578
8.522173737
5.663757821
4.756000378
2.249768252
7.176907357
6.512496303
8.229663876
4.242313488
17.93763937
11.23823884
11.86014538
12.51596097
11.30071929
7.851579044
7.260469591
10.71869892
7.102122467
13.07829924
7.170650486
7.608837728
8.169104442
8.007859849
7.855186218
7.010700688
5.039760131
5.23237142
9.03231525
10.84118313
10.43022954
9.980438627
6.47882491
2.493357565
6.231619109
7.527066852
7.131148276
9.633281817
6.848846637
6.207354596
17.37557063
10.72364821
11.01062408
17.28367359
11.57368251
11.98754901
13.8147144
16.57769351
8.928934999
6.695249315
10.95647492
13.69025495
11.7202398
7.420013917
8.550791915
8.238535984
10.64114596
7.901297097
10.59656737
9.261821051
10.62232247
9.470217369
4.2998205
9.573507733
8.881412995
6.718947916
6.8597535
3.95682951
7.888813048
9.35017972
7.043062635
12.57858562
11.13129832
13.40639037
13.8348384
15.64673345
17.80998606
13.56745794
19.54798161
15.54030225
8.099176877
13.27319708
11.9710579
9.335186257
8.35098092
3.501107101
15.1514201
12.94543591
10.7294636
10.60385174
9.91765155
8.57289215
7.780109991
8.988031627
6.442528275
9.624624153
6.608652454
5.772902598
12.34661009
12.52442325
17.72078822
17.60725624
21.52937744
9.681813042
13.35134037
19.14862083
7.171694389
13.7714392
20.08798544
14.06127639
7.609309927
16.24258867
10.99735436
7.965759653
11.87008866
13.16355296
12.53848179
16.12613087
8.378992309
8.20439184
10.21847235
6.349667076
7.724391323
8.946481364
10.58909251
9.492900117
9.230728159
9.886426923
10.23226385
11.18317249
4.299389977
8.204916091
13.65084904
7.029187332
14.93980963
14.55619061
15.55841038
19.82197655
16.96810183
14.15822255
10.82821475
10.80374893
10.30604089
11.23113192
17.01825577
11.00322511
14.69079077
15.20124875
13.88577928
10.43248121
4.743313854
15.55319363
9.768873095
6.959451825
15.52953062
21.57426695
12.59878747
10.87319751
6.640706279
7.488768935
11.66722716
6.330002299
9.44720897
17.53019633
10.55891774
10.69228252
6.29107831
14.38321409
19.31617545
18.64171771
10.88960952
13.21822151
11.76858535
11.24817448
9.959423858
11.48861029
13.95509904
7.835903471
10.4745978
15.08060881
22.56897364
10.39833871
14.03915773
11.31127152
10.52569863
14.32087202
12.78813935
12.97035981
12.43361028
15.4901389
11.18726373
8.38506636
10.78986549
8.012151831
18.49394161
12.63778413
12.91812456
16.12275183
14.97631421
10.27197026
7.427672559
11.34278026
14.19399592
17.0683777
13.19868074
14.98227231
12.64731234
14.93705732
12.3342373
15.16104757
10.14353585
11.90376427
13.93621104
14.0252184
9.9592082
13.89415991
10.61178817
20.42347388
14.39630225
15.90574329
6.652211359
6.379336544
11.19545828
5.405252008
11.36746495
12.70023671
9.482785021
11.55051774
9.735637635
9.169726995
16.55617624
10.80326627
14.72424768
8.480792642
11.62353504
12.20714339
16.73224566
15.62995215
14.76716645
20.54698544
16.21771194
16.07795732
23.26244621
13.05567582
15.21994275
12.95257509
9.42625296
13.94523566
10.23132648
15.82967645
9.527933698
9.535176122
9.559718898
7.862919585
13.04148769
12.1656766
14.2250568
8.954572622
7.135133106
10.21052513
11.26295288
15.68441282
14.1149612
17.77850743
5.046477837
11.45484092
12.18996658
14.67745418
8.863012227
19.42769495
17.93501423
14.51056313
11.38749268
13.68172177
17.18734252
9.225212403
19.03390284
11.96158611
9.165206789
6.140618605
2.957128285
5.843148399
10.71042992
15.71824855
6.594054963
7.393023737
7.086766445
11.90732042
14.28762844
11.60481259
7.065446301
15.42784059
10.29371662
16.20151232
13.11888163
8.936963999
15.41264192
18.06849499
20.61588008
12.22338293
12.28237241
15.92761178
12.44252825
16.53257846
19.44934854
12.86273116
18.50773668
12.01872192
7.889610576
11.4945602
9.997961302
8.604429115
3.37820589
6.625007247
9.507709259
8.4743533
9.131826745
11.69388939
11.85448012
10.92157332
12.15004482
19.8072509
9.572553714
10.46266743
12.59392598
13.45081389
18.01110454
17.20286011
18.25153418
14.13432987
14.64209238
17.53290192
14.60496341
21.93614213
19.48654985
13.12294399
17.06674256
12.46623943
8.395764151
10.30638341
12.1474426
6.536909746
9.628346726
11.18623113
5.549318384
2.943688379
9.759886374
8.450173258
12.5812022
11.08638564
14.06799084
16.2127085
9.652919559
17.39318467
11.89990264
16.51832004
10.75423341
12.47024855
13.30291587
13.74461866
10.13301559
12.22906735
15.19675922
17.86348264
15.15626277
19.62725472
14.9190997
18.26443742
12.45392341
9.709053499
7.931401005
14.07756213
7.184143848
7.052198528
11.44622018
7.968255912
8.685466582
8.440869037
9.288012291
12.18752474
12.96993204
8.350764152
11.05569764
7.348990202
17.60318756
16.16369672
13.83182808
12.31073202
25.45596098
16.66103906
19.29077104
13.95391338
15.59474824
14.86345932
10.61422033
7.314123663
8.939555139
7.219884879
4.771482608
12.85100142
6.946089395
5.948816519
8.002522944
4.21219346
9.439534633
13.5022006
7.382769278
9.18064881
11.00857427
9.283699801
10.55760286
8.942704898
17.96966814
7.160016837
9.020766659
7.557415329
5.778947293
9.22279107
8.687805885
6.749222311
11.08139983
9.841656598
2.871037455
8.603015311
10.92388312
12.01705087
6.11767346
15.74113819
13.46687667
11.11577394
4.100490522
9.354979837
2.969740796
6.819373073
8.917019622
9.801751234
)
;

boundaryField
{
    flow
    {
        type            zeroGradient;
    }
    obstacle
    {
        type            calculated;
        value           nonuniform List<scalar> 
30
(
1.395413639e-18
4.951102907e-18
5.10437071e-18
6.75687539e-19
4.164187694e-19
1.174198452e-18
0
0
0
1.082924205e-18
1.58326972e-18
0
1.110459074e-18
2.661851659e-18
3.219136394e-18
1.783668729e-18
0
0
1.2325896e-18
1.6555564e-18
1.917333455e-18
8.953914833e-19
8.282244426e-19
1.384301329e-18
2.360694131e-18
0
1.697405274e-18
3.50759072e-18
4.877939404e-18
1.63461336e-18
)
;
    }
    frontAndBack
    {
        type            empty;
    }
    procBoundary1to0
    {
        type            processor;
        value           nonuniform List<scalar> 
21
(
9.325716772
8.290099789
14.22521385
11.77399519
11.395488
11.48929201
5.909280656
3.304208098
10.24953071
12.11859305
7.713111023
5.620383229
10.06347753
10.36080228
13.06576123
14.16996884
4.497741076
9.195958743
6.552159592
10.45945476
9.847217858
)
;
    }
    procBoundary1to3
    {
        type            processor;
        value           nonuniform List<scalar> 
36
(
13.45384186
16.00785963
9.328107732
12.36493857
13.45384186
16.62667292
16.84271791
15.53634203
8.843371006
19.32521653
11.77301256
16.00785963
14.55975294
5.000426701
11.3408495
8.537327585
8.544211018
16.84271791
13.31979049
10.6289428
11.85859886
8.806062555
10.09253773
3.585161788
5.000426701
14.53474915
5.782334091
11.87831109
9.966358215
8.219820915
10.40610997
10.28486169
10.6289428
7.058135523
5.782334091
5.873551257
)
;
    }
}


// ************************************************************************* //
