/*--------------------------------*- C++ -*----------------------------------*\
| =========                 |                                                 |
| \\      /  F ield         | OpenFOAM: The Open Source CFD Toolbox           |
|  \\    /   O peration     | Version:  2406                                  |
|   \\  /    A nd           | Website:  www.openfoam.com                      |
|    \\/     M anipulation  |                                                 |
\*---------------------------------------------------------------------------*/
FoamFile
{
    version     2.0;
    format      ascii;
    arch        "LSB;label=32;scalar=64";
    class       volVectorField;
    location    "0.009";
    object      momentumMean;
}
// * * * * * * * * * * * * * * * * * * * * * * * * * * * * * * * * * * * * * //

dimensions      [1 -2 -1 0 0 0 0];

internalField   nonuniform List<vector> 
546
(
(0.005485177397 0.001517427993 -2.290519344e-06)
(0.005201813841 0.001521937448 1.185297448e-05)
(0.004992015708 0.001389311663 2.317633071e-05)
(0.004819408655 0.001330411323 2.644733807e-05)
(0.004662539023 0.001312179459 -7.012310819e-05)
(0.004480669203 0.001258828985 -6.883469112e-05)
(0.004442784862 0.001194903351 -4.827529129e-05)
(0.004337574073 0.00120746384 -3.557777199e-05)
(0.004169741701 0.001185676753 2.114872679e-05)
(0.004015955274 0.00109998606 2.469775307e-06)
(0.003925795509 0.001089745143 4.872560272e-05)
(0.003857550599 0.001046382265 -5.156218253e-05)
(0.003693098889 0.001048503608 -8.269064837e-06)
(0.003653766605 0.0009919681461 3.356019494e-05)
(0.003525295947 0.0009712929975 -7.553927043e-06)
(0.003433928077 0.0009636726123 -5.508116613e-05)
(0.003311980857 0.0009061083734 -7.766429898e-05)
(0.003315238587 0.0008884369616 2.245053437e-05)
(0.003220782807 0.0008973230215 -1.837281684e-05)
(0.003154840776 0.0008566226951 4.580378104e-05)
(0.003169296277 0.0008153615975 -5.137379783e-05)
(0.003192710849 0.0008746600531 5.241378401e-05)
(0.003087890575 0.0008583197524 0.00011443905)
(0.003163927503 0.0007985702595 8.116618325e-05)
(0.003159178796 0.0008192881677 -1.984073784e-05)
(0.003116540348 0.0008695645795 6.119241487e-05)
(0.003067356509 0.0008152869322 5.60331009e-05)
(0.00315221575 0.000793493253 5.920543528e-05)
(0.003284184864 0.000817606622 9.928325117e-05)
(0.003587505033 0.0006838621973 1.274369588e-06)
(0.008433510828 0.0026153508 -8.280022145e-05)
(0.008113801995 0.002506219016 -3.668628251e-05)
(0.0078133091 0.00235863995 3.651762194e-05)
(0.00751868974 0.00224964813 3.266903789e-05)
(0.007331215086 0.002142220998 4.048595599e-05)
(0.007210325449 0.002063531323 -6.198309828e-06)
(0.00690528804 0.001974272729 1.58005881e-05)
(0.006721195406 0.001944004542 -8.564013071e-05)
(0.006529380133 0.001958307218 -0.0001038563219)
(0.006425892491 0.001831557442 -5.951984992e-05)
(0.006252659588 0.001817652979 -1.084167191e-05)
(0.006068703927 0.001770198593 -5.359334798e-05)
(0.005904720502 0.00172605812 -2.404975114e-05)
(0.005766693389 0.001625511547 7.447808053e-05)
(0.005594615121 0.001599602378 7.795239725e-05)
(0.0054957731 0.0015992344 5.373571452e-05)
(0.005355888854 0.001526976352 -6.044245018e-06)
(0.005179776413 0.001434879098 1.509057948e-06)
(0.005110858454 0.001438455174 4.50533667e-05)
(0.005022251158 0.001372193464 6.268578844e-05)
(0.004952654488 0.00133061424 5.38833469e-05)
(0.004783678462 0.001338005021 9.808748547e-05)
(0.004814972432 0.00127723907 5.589432467e-07)
(0.00473436643 0.001214302805 7.045170636e-05)
(0.00467156453 0.001284834694 -4.191020198e-06)
(0.004653011522 0.001258185272 -1.907140958e-05)
(0.004673527476 0.001235854332 0.0001088555489)
(0.004644524477 0.001107519168 8.563388705e-05)
(0.004722911056 0.001113619708 2.869042304e-05)
(0.004957050733 0.0007433038627 4.683073045e-07)
(0.01033449296 0.00331620815 -7.420711563e-05)
(0.01018234594 0.003243860211 -5.767025073e-05)
(0.009947613201 0.003203297435 -4.277032076e-05)
(0.009634374196 0.00300408063 -5.767661124e-05)
(0.009294855277 0.002824239137 2.86066855e-05)
(0.008955821488 0.002760100651 -5.366594116e-05)
(0.008739043185 0.002683903573 -8.525015599e-05)
(0.008508858778 0.002559189975 -0.0001099508071)
(0.008395954549 0.002517522132 -3.549271297e-05)
(0.008162846774 0.002424504152 -5.912609702e-06)
(0.007945362695 0.002401089017 -3.109833193e-05)
(0.007773641438 0.002366314915 1.599870032e-05)
(0.007535499306 0.002252907533 8.534184333e-05)
(0.007297961553 0.002176675565 6.388708819e-05)
(0.007149573905 0.00215023476 5.805488947e-05)
(0.007035313218 0.002051872604 7.695080134e-05)
(0.006942847202 0.001997768976 -1.25571087e-05)
(0.006808739744 0.001979983263 4.562944342e-06)
(0.006582441075 0.00193899508 6.584323142e-06)
(0.006446927193 0.001796267453 1.907084689e-05)
(0.006256808285 0.001785895492 1.725743575e-05)
(0.006245466178 0.001685538903 -6.242866604e-06)
(0.00615629215 0.001723201941 2.506305789e-05)
(0.005953790962 0.001634651532 9.017521281e-06)
(0.005879020625 0.001609463215 -1.847457348e-05)
(0.005777831704 0.001567964217 5.505044598e-05)
(0.005790875309 0.001518136054 4.192250482e-05)
(0.005856356845 0.001420181727 3.577418408e-05)
(0.005868393118 0.001293540117 2.07882873e-05)
(0.005973634725 0.000869301784 2.366002939e-05)
(0.01144645428 0.003661629682 -3.415852388e-06)
(0.01141444539 0.003677406491 -2.294887597e-05)
(0.01132522719 0.003739201847 -3.581213233e-05)
(0.0111521444 0.003655961226 -6.877356714e-05)
(0.0109588539 0.003514902389 -3.922337392e-05)
(0.01078822438 0.003363749454 -2.75797046e-05)
(0.01054810925 0.003317907098 6.875345321e-06)
(0.01024485687 0.003204238467 3.011859889e-05)
(0.00990405894 0.003131263277 -1.82111695e-05)
(0.009637720621 0.003020063265 -2.18437424e-07)
(0.009426450733 0.002913381524 -1.220523111e-06)
(0.009129737716 0.002871664609 -4.176359809e-06)
(0.009003184789 0.00278736347 -4.638289562e-05)
(0.008836053897 0.002723885799 -3.157896176e-05)
(0.008586549262 0.002613904349 2.036928553e-05)
(0.00841116401 0.002474562254 -7.75053012e-07)
(0.008296176262 0.002458351027 8.651482572e-05)
(0.008083001245 0.002455553741 4.809507873e-05)
(0.00791872527 0.002379928612 1.314216164e-05)
(0.007751228666 0.002289649531 -4.551523564e-06)
(0.007613473554 0.002162907363 7.029825401e-05)
(0.007382727762 0.002080529081 6.874921373e-05)
(0.007234958968 0.002082915625 2.620373573e-06)
(0.007145003927 0.002038984325 7.4352492e-05)
(0.007069661166 0.001946205644 9.617829861e-06)
(0.006975949372 0.001921641251 7.231795687e-06)
(0.0068207783 0.001784342398 1.043463717e-05)
(0.006824881163 0.001602675809 -1.07590116e-05)
(0.006893946659 0.001492375033 1.311717023e-05)
(0.006906878834 0.001166855547 4.089382963e-05)
(0.01192152049 0.003754748824 2.025671371e-05)
(0.01196624128 0.003797642228 2.528782565e-05)
(0.01211106392 0.003942376871 9.657398697e-06)
(0.01215957603 0.003940152985 -1.916119966e-06)
(0.01206397694 0.003882587425 5.429084291e-07)
(0.01185320625 0.003829172789 -5.66315345e-06)
(0.01163906634 0.003845855075 5.129805484e-05)
(0.01145348169 0.00372425148 1.044312176e-06)
(0.01127898495 0.003665162083 -5.304112702e-05)
(0.01102127535 0.003525953514 -3.1118476e-05)
(0.01071622605 0.00346557354 -5.148353743e-05)
(0.010595214 0.003353477851 1.310415914e-05)
(0.01041518736 0.003282188882 -1.81440453e-06)
(0.0101494485 0.003201543132 -1.160785146e-05)
(0.00997512294 0.003127971959 -4.353144705e-06)
(0.00968578675 0.002996612281 -3.973086647e-06)
(0.009347082282 0.002870114393 3.017695464e-05)
(0.009163706052 0.002873632755 5.699586277e-05)
(0.008998649304 0.00272208771 5.01006772e-06)
(0.008802669508 0.002678060734 2.482569788e-05)
(0.008730054646 0.002562641246 2.857409756e-05)
(0.008456760345 0.002508892095 -4.956005797e-05)
(0.008322878101 0.002401532472 3.05314368e-06)
(0.008192452314 0.002388139812 3.358319008e-05)
(0.008046965748 0.00225593907 9.749058206e-05)
(0.007997873485 0.002206495056 1.484435322e-05)
(0.00798048392 0.00211531259 -2.844687655e-05)
(0.00777912633 0.001896258725 4.056894066e-06)
(0.007651254246 0.001644158847 4.342345153e-05)
(0.007548802219 0.001421773771 4.537807543e-06)
(0.01192387384 0.003531379608 -1.036497651e-05)
(0.01216885263 0.003729489759 6.389533904e-06)
(0.01246015812 0.003850592243 2.36229588e-05)
(0.01250217349 0.004020763571 1.2059572e-05)
(0.01251287431 0.004093911732 -7.146286313e-06)
(0.01249020382 0.004131454736 3.172770322e-05)
(0.01247640718 0.004082999341 3.469825499e-05)
(0.01238209131 0.004031281178 2.25101958e-05)
(0.01222859272 0.003986715776 -8.132594091e-06)
(0.01212580435 0.004016565659 1.751128801e-05)
(0.01201874035 0.003940162901 -3.126072687e-05)
(0.01173321693 0.003806851074 5.794364924e-07)
(0.01143648236 0.003710544881 1.450466654e-05)
(0.01124033208 0.003656659246 2.036912975e-05)
(0.01103017381 0.003531490444 -2.012648916e-06)
(0.01081263732 0.003460965953 1.469126086e-05)
(0.01058589656 0.003371841659 2.777005415e-05)
(0.01040273664 0.003280516218 3.410400596e-05)
(0.01023646806 0.003206659015 1.787887987e-05)
(0.0100166437 0.003071812203 -2.189235729e-06)
(0.009711784499 0.002981996371 -3.495752013e-05)
(0.009561392944 0.002886898816 -1.78715512e-05)
(0.009367467942 0.002760190898 -7.971867561e-05)
(0.009237072548 0.002732625293 8.745300025e-06)
(0.009051219409 0.002595596331 6.019965768e-05)
(0.008904615167 0.002484236201 5.808038777e-05)
(0.008741726324 0.002387082486 -4.785791781e-05)
(0.008672136404 0.002188426904 -5.496246922e-05)
(0.008543835636 0.001960866328 2.498853974e-05)
(0.008314223211 0.00173371374 -5.43329026e-05)
(0.01163509954 0.003097151539 -3.648886182e-05)
(0.01203975605 0.003396921808 -3.432469667e-05)
(0.01223875782 0.003657877513 -6.042413071e-05)
(0.01248689924 0.003887164083 -3.206844935e-05)
(0.01278838493 0.004060518672 -3.22698004e-05)
(0.01299396945 0.004189971965 -6.039409126e-05)
(0.01302757584 0.00424516637 -1.085497529e-05)
(0.01303925845 0.004305833464 -2.124345995e-05)
(0.0130027157 0.004240657101 1.352900022e-05)
(0.01292004621 0.004207356661 4.949781175e-05)
(0.01276214422 0.004265099796 4.069788764e-05)
(0.01261267035 0.004199438592 -2.35817229e-05)
(0.01249980974 0.004113486554 -1.806581825e-05)
(0.01232278629 0.00406681269 3.297774191e-05)
(0.01201010891 0.00398333354 -2.365265023e-05)
(0.01183066557 0.003884915707 1.204099863e-05)
(0.01159117305 0.003744014232 -2.918412908e-06)
(0.01140332538 0.003620266259 -3.543052201e-05)
(0.01123779581 0.003559858289 5.023096824e-06)
(0.01093230332 0.003507506942 -2.562049846e-05)
(0.01077709679 0.003352862469 3.732012225e-05)
(0.01058500963 0.003265097446 1.086792308e-05)
(0.01038826429 0.003141621411 2.482114086e-05)
(0.01023477865 0.00301618663 2.003438624e-05)
(0.01013650616 0.003011951187 7.949911756e-06)
(0.009884524036 0.002820580351 6.306140489e-05)
(0.009699225554 0.002722830996 7.989004842e-05)
(0.009538771745 0.002484635204 7.897033875e-05)
(0.009327356904 0.002304763869 3.936124594e-05)
(0.009159721528 0.002025160494 4.26674089e-05)
(0.01099410627 0.002550066376 -3.206238981e-05)
(0.01148946559 0.002929670231 -3.105515301e-05)
(0.01199478258 0.003268893139 -2.727532467e-05)
(0.01242745738 0.003567521191 -4.326537659e-05)
(0.01267329409 0.003743167123 -6.291902416e-05)
(0.0128957947 0.004018899467 -2.380135501e-05)
(0.01320141892 0.004181018517 -3.45547074e-05)
(0.0133805561 0.00427873405 1.915598242e-05)
(0.01342128032 0.004393111255 5.565644039e-06)
(0.0134238243 0.004408751004 -4.313824633e-05)
(0.0133845372 0.004432864986 -8.057571448e-06)
(0.01335073404 0.004484016028 3.710038166e-05)
(0.01316759584 0.00437402037 9.024950544e-06)
(0.01304855612 0.00437710422 3.0068879e-05)
(0.01300636907 0.004312731176 1.585032521e-05)
(0.01287122038 0.004257457252 2.638404079e-05)
(0.01266357299 0.004137745744 4.998075769e-05)
(0.01240707318 0.004040236685 2.616649989e-05)
(0.01220433423 0.003950611144 1.777491883e-05)
(0.01205582741 0.003878855019 -4.149522408e-05)
(0.01188080853 0.003790754645 -8.746962093e-06)
(0.01159815058 0.003638683733 1.178356063e-05)
(0.01133197132 0.003505463797 -2.420990233e-05)
(0.01111050096 0.003327864953 -4.528375351e-05)
(0.01088251683 0.003296239343 -2.654498416e-05)
(0.010666893 0.003158549252 -1.715680565e-06)
(0.01056528696 0.003020866993 -6.461640102e-05)
(0.01039315458 0.002781673249 -1.502205959e-06)
(0.01025480944 0.00264942719 -7.607362864e-06)
(0.01001342248 0.002322800073 -1.376414847e-05)
(0.01058345197 0.002076051344 -2.09793084e-06)
(0.01093053226 0.002395072415 -3.051114894e-06)
(0.01141629791 0.002743217887 1.575776586e-05)
(0.01180803687 0.003087441183 -1.123084538e-05)
(0.01229409309 0.003388360003 1.669449709e-05)
(0.0125720113 0.00362108788 -3.566678519e-05)
(0.01292323464 0.003901561058 -5.38385054e-05)
(0.01316661632 0.004074778576 -3.276609061e-05)
(0.01340083446 0.004310452929 -3.221932001e-05)
(0.01352648076 0.004376590238 1.62792435e-05)
(0.01367810506 0.004478469309 8.598179863e-06)
(0.0138102951 0.004583485756 7.305851714e-05)
(0.01384636958 0.004593019691 2.806637503e-05)
(0.01378239745 0.004570677821 -4.385052973e-05)
(0.0136980547 0.004534348329 1.755006627e-06)
(0.01358021059 0.004527818742 1.145684111e-05)
(0.01344749636 0.0045208438 -3.96621123e-05)
(0.0132486891 0.004358944056 -3.540456755e-05)
(0.01303867158 0.004242444317 4.66195486e-06)
(0.01281153689 0.004201430962 7.995833682e-06)
(0.01258273237 0.004108894594 -4.568748052e-05)
(0.01244613878 0.00402616854 1.42925209e-05)
(0.01216877194 0.003857093635 -3.763218348e-05)
(0.01204767477 0.003733039601 -2.51096734e-05)
(0.01179481627 0.003606566943 -1.370749985e-05)
(0.01166209174 0.003495274395 -5.473736037e-05)
(0.01139047081 0.00329596263 -2.034326378e-05)
(0.0111690048 0.003117994377 -3.079864832e-05)
(0.01091810141 0.002917285745 -2.71623127e-05)
(0.01075769542 0.00268191723 -6.421590652e-06)
(0.009940048041 0.001600194056 1.431665368e-05)
(0.01028507173 0.001865917217 4.012936583e-05)
(0.01068082064 0.00221323985 3.419084632e-05)
(0.01113860372 0.002512585071 3.370637504e-05)
(0.01162815994 0.002890939442 3.472901783e-05)
(0.0120727415 0.00321538745 7.121970383e-06)
(0.01254115652 0.003490559571 2.032257412e-05)
(0.01291248708 0.003781276893 7.764374486e-06)
(0.01325178899 0.003977499029 -3.176922391e-05)
(0.01356204848 0.004204028176 -4.077499472e-05)
(0.01379134687 0.004322471038 1.689289904e-05)
(0.01399073407 0.004522909029 -5.245640287e-06)
(0.01405424772 0.004593686098 2.407310473e-05)
(0.01407099968 0.004674572282 1.325517511e-05)
(0.01409313927 0.004684959953 -7.840279252e-06)
(0.01408014182 0.004704792154 -1.042897201e-05)
(0.01404601733 0.004685674822 -2.386059981e-05)
(0.01393560979 0.00469905808 -3.670054573e-05)
(0.01373987409 0.00455945596 -9.282380288e-05)
(0.01358473337 0.004486512456 -5.095981824e-05)
(0.01340734201 0.004409267826 -8.404512819e-05)
(0.01323872672 0.004312230322 2.609285098e-06)
(0.0130447398 0.004209111162 2.057349711e-05)
(0.01275281599 0.004019830832 -7.523420545e-06)
(0.01261819669 0.003891864813 1.584604734e-05)
(0.01238529821 0.003803634126 -9.733757689e-06)
(0.01217182863 0.003686640099 5.38597795e-06)
(0.01194959944 0.003475807236 4.157038626e-05)
(0.01158488113 0.003194001969 4.074393348e-05)
(0.01127482857 0.00297238935 3.149256776e-05)
(0.009674614788 0.001232922738 -1.202692621e-05)
(0.009977271159 0.001504554367 4.603759408e-06)
(0.01031801044 0.001745071288 -1.813482856e-05)
(0.01074562527 0.002074551859 -2.163345012e-05)
(0.01107258853 0.002340369949 1.924644404e-05)
(0.01152951221 0.002666667135 7.028837522e-05)
(0.01202209008 0.002998915903 4.012682295e-05)
(0.01246902949 0.003315393032 6.386896331e-05)
(0.01292980487 0.003612012832 2.376331665e-05)
(0.01336214785 0.003909004013 -3.797454184e-05)
(0.01366900269 0.004135064605 -3.70067981e-05)
(0.01384820332 0.004326754712 -5.828234424e-05)
(0.01412077205 0.004522414829 -3.623712797e-05)
(0.01424904284 0.004657463469 -1.615240892e-05)
(0.01428529284 0.004685676022 -1.083789756e-05)
(0.01434611928 0.004691077967 2.591984454e-05)
(0.01439318931 0.004814774393 6.141003932e-05)
(0.01437899188 0.00483361573 3.403578869e-05)
(0.01425706217 0.004811910901 9.484842277e-06)
(0.01420954456 0.004715127218 4.026747786e-05)
(0.01403681498 0.004644927098 6.72041199e-06)
(0.01392359801 0.00458648768 -3.672616488e-05)
(0.01371381634 0.004484008685 -1.426781048e-05)
(0.01354543146 0.004366107748 3.939403084e-06)
(0.0131829865 0.004218297619 5.844333799e-06)
(0.01300442352 0.004061802519 2.386188798e-05)
(0.01274622934 0.003909257524 2.216966641e-05)
(0.01263592415 0.003777433114 3.318920102e-05)
(0.01243422945 0.003624502338 -1.589770178e-05)
(0.0120358662 0.003323399472 -2.865286318e-05)
(0.009287006303 0.0009189131774 2.021837782e-05)
(0.009585232254 0.001141904401 7.477432969e-06)
(0.0098518662 0.0013541658 2.22781004e-05)
(0.01020697112 0.001599298444 2.337503208e-05)
(0.01067030059 0.001908007645 -4.436011867e-06)
(0.01101282762 0.002194975818 -1.353151483e-05)
(0.01145485438 0.002494617545 2.934426575e-05)
(0.01189442845 0.002746778973 3.244965523e-05)
(0.01242031471 0.003130353216 5.006182778e-05)
(0.01280162364 0.003443766255 1.575161798e-05)
(0.01327256804 0.00378052818 -5.143696067e-05)
(0.01353639007 0.004018922894 -3.554824422e-05)
(0.01387997782 0.004263772873 -3.033720835e-05)
(0.01423520104 0.004486110578 1.054582908e-06)
(0.0144063587 0.004644960112 4.761874343e-05)
(0.01454386539 0.004715850471 3.353885116e-05)
(0.01458479403 0.004790891642 2.425172886e-05)
(0.01466672656 0.004861235977 4.032607191e-05)
(0.01473952337 0.004917621039 3.206427093e-05)
(0.01463513251 0.004887607537 -1.461287623e-05)
(0.01454282678 0.004858584026 4.310071677e-05)
(0.01443294007 0.004832977988 6.378539462e-05)
(0.0142379724 0.004731105316 2.750930125e-05)
(0.01406432869 0.0046067874 2.345498577e-05)
(0.01390072477 0.004474268628 5.116660225e-05)
(0.01372942847 0.00437424065 1.520615022e-05)
(0.01350867271 0.004231216601 -1.151481893e-05)
(0.01317044618 0.004027244949 -1.201854927e-05)
(0.0129981827 0.003883332349 2.453232942e-05)
(0.0129083277 0.0036845888 1.835916054e-05)
(0.009025169547 0.000658750673 -1.731075758e-05)
(0.009240986493 0.0008268080756 -2.395432189e-05)
(0.009551022949 0.001040704281 -2.364219535e-05)
(0.00975497047 0.001227314701 -4.097232122e-06)
(0.01007525994 0.001465688217 -2.11531198e-05)
(0.01042801344 0.001756124073 -2.308741529e-05)
(0.01080727616 0.002000928061 -3.874359132e-05)
(0.01119516175 0.002271546097 -2.229482676e-05)
(0.01159407447 0.002623557533 -1.723815925e-05)
(0.01196505836 0.002913880193 7.085878682e-06)
(0.01243449045 0.003210843947 3.476592726e-05)
(0.01301256337 0.00356625826 -1.369915657e-05)
(0.01351489267 0.003869966691 -3.346457971e-05)
(0.01385663852 0.004155782571 -1.477166392e-05)
(0.01420540051 0.004418919285 2.459364755e-05)
(0.01448239133 0.004559437733 3.873497697e-05)
(0.01466801936 0.004700614281 7.476861314e-06)
(0.0148172922 0.004824618859 1.431772248e-05)
(0.01495081243 0.004935982488 2.933505375e-05)
(0.01503337969 0.004979311624 4.919490126e-05)
(0.01497916142 0.004949191159 6.725567952e-06)
(0.01499573073 0.005000523925 -2.200342419e-06)
(0.01488943669 0.00493555564 -1.532553086e-05)
(0.01479424886 0.004876705354 4.790518521e-05)
(0.01462211116 0.004756029145 1.799497994e-05)
(0.01441591989 0.004677436946 -1.499103744e-05)
(0.01418296911 0.004575575876 3.660336746e-05)
(0.01396320413 0.00436156702 5.159688706e-05)
(0.01374177635 0.004115754908 4.88442568e-05)
(0.01351114808 0.003939385279 7.975944243e-05)
(0.008774200619 0.0005135797877 -8.765008305e-06)
(0.008927483266 0.0006074331409 -1.187346355e-05)
(0.009069456769 0.0007275590261 1.920094118e-05)
(0.009416766644 0.0009101406914 -1.531120852e-05)
(0.009671678788 0.001120284969 -2.180738242e-05)
(0.009945498527 0.001331039324 -1.337119842e-05)
(0.01024019046 0.001576560683 -1.966273286e-05)
(0.01058165634 0.001865471684 -3.709894321e-05)
(0.0109631473 0.00211486223 -9.086894429e-06)
(0.0114744734 0.002446260499 -2.639402143e-06)
(0.01199118148 0.002743030985 -1.058361204e-05)
(0.01232807123 0.003026840617 1.563289477e-05)
(0.01274886698 0.003350269647 -7.683339122e-06)
(0.01324924996 0.003683001431 -5.419028274e-05)
(0.01365239517 0.004010821491 -4.79029668e-05)
(0.01411250801 0.004258556124 -1.0615842e-05)
(0.01447107549 0.004458683694 -1.960475568e-05)
(0.01479085124 0.004636441815 -1.610798885e-05)
(0.0150122224 0.004845130143 -7.412541161e-06)
(0.01518566556 0.004949069487 2.489476147e-05)
(0.0152761789 0.004995682535 2.485792437e-05)
(0.01517898512 0.004999784369 3.809396139e-05)
(0.01533773996 0.005091423074 2.305526992e-05)
(0.01525683991 0.005048277319 -2.52964111e-05)
(0.0151007999 0.004976460923 3.756080504e-05)
(0.01497975514 0.004868766752 1.224829793e-05)
(0.01493992323 0.004813685684 -3.433370475e-05)
(0.01468152996 0.004662989642 -1.705768569e-05)
(0.01447750757 0.004458998048 -1.374260752e-05)
(0.01412359094 0.004170581435 -3.786716018e-06)
(0.008751228004 0.0003675198138 -1.220100913e-05)
(0.008885811826 0.0004568475448 -5.42857039e-06)
(0.009007096799 0.0005448542017 -1.438372972e-05)
(0.009043570468 0.0006610847818 -2.929218152e-06)
(0.009265243649 0.0008529188008 1.699482272e-05)
(0.009518630021 0.001044651034 -3.650516243e-06)
(0.009764323367 0.001214813193 -4.441125319e-06)
(0.01006110103 0.001454682379 -2.08875565e-05)
(0.01046575872 0.001684126631 -1.989870007e-05)
(0.01081930621 0.001929467741 -1.913905907e-05)
(0.01124238169 0.002264340171 8.864668687e-06)
(0.0116073843 0.002548675608 1.906326006e-05)
(0.01216745331 0.002853604781 -2.032964886e-06)
(0.01269706034 0.003189039745 -3.332664854e-06)
(0.01321621376 0.003481590998 -2.206383277e-05)
(0.01374611078 0.003824106497 -3.537827621e-05)
(0.01413059223 0.004111666808 -7.817738636e-06)
(0.01447273602 0.004369093996 -2.083130053e-06)
(0.01481986521 0.004561498229 -3.170034928e-05)
(0.01512950877 0.004759123373 -8.094578969e-06)
(0.01536962803 0.004898703333 -1.069571672e-05)
(0.01560424956 0.005045740121 7.829022158e-06)
(0.01562190929 0.005106041332 4.075006694e-06)
(0.0156204263 0.00512750706 1.787627132e-05)
(0.01561512581 0.005149351349 -3.886589545e-06)
(0.01551017313 0.005039615991 8.33364117e-06)
(0.01538062985 0.004993430804 1.779719238e-05)
(0.01519643513 0.00487806418 3.143814776e-05)
(0.0149897851 0.004733185065 1.345815297e-05)
(0.01479730242 0.004577774318 -5.235071681e-06)
(0.008554606903 0.0002768550847 1.57778686e-05)
(0.008554003664 0.0003289498768 6.688268097e-06)
(0.008723448839 0.000437191142 1.219463818e-05)
(0.008775840115 0.0005315957456 1.743575801e-06)
(0.008931334931 0.0006143309031 -3.013242588e-06)
(0.009133857144 0.0007629343914 1.216635525e-05)
(0.009421349004 0.0009201567836 1.533343008e-05)
(0.009706000982 0.001089969559 2.047143234e-05)
(0.009993777896 0.001308099055 -2.497861246e-06)
(0.01032802128 0.001522785841 6.065751915e-06)
(0.01075027072 0.001795626217 1.150747976e-05)
(0.01122555072 0.002085042588 -3.505649839e-05)
(0.01160147693 0.00234317518 -2.150486388e-05)
(0.0120993435 0.002662006419 2.05074502e-05)
(0.01254065413 0.003022983044 -6.470967571e-06)
(0.01297548694 0.003319550909 2.612442711e-06)
(0.01342973179 0.003639422027 1.250626846e-05)
(0.01386628697 0.003935259357 2.319414507e-06)
(0.01423190134 0.004174064164 -2.083505805e-06)
(0.01466908893 0.004450075931 -2.953461097e-05)
(0.01498337264 0.004694648601 -1.94772421e-05)
(0.01516659957 0.004860518843 -2.081823796e-05)
(0.0154007057 0.004984519845 -9.813357904e-06)
(0.01552125309 0.005087303321 -7.414154151e-06)
(0.01572556509 0.005107392981 3.003636951e-05)
(0.01570184735 0.005134053084 3.047470229e-05)
(0.01565592765 0.005132658924 3.871553362e-05)
(0.01555557517 0.005041570935 1.063798894e-06)
(0.0153587004 0.004964545804 1.729467778e-05)
(0.008543786728 0.0002260806271 1.873806709e-05)
(0.008592692535 0.0002779477754 9.148258757e-06)
(0.008643347906 0.0003201160815 7.696268671e-06)
(0.008807155822 0.0003861950288 8.912848048e-06)
(0.00890212267 0.0004785181748 9.982209951e-06)
(0.009067229753 0.0005775363409 9.105404401e-06)
(0.009245921294 0.0007064531489 1.823665035e-06)
(0.009471640191 0.0008344170234 -1.218531872e-05)
(0.009660504196 0.001004695363 -1.777649783e-05)
(0.009966039761 0.001193537559 -1.027509692e-05)
(0.01024827006 0.001408452575 -1.799492594e-05)
(0.01053629861 0.001624474763 -1.005833337e-05)
(0.01087454532 0.001905101947 -4.676459389e-05)
(0.01125879945 0.002145762902 -2.714525224e-05)
(0.01169463749 0.002485580573 -2.046219005e-05)
(0.01220410763 0.0028057318 -4.123920233e-05)
(0.01279109549 0.00313257853 -5.242222807e-05)
(0.013306122 0.003477922635 -2.018355027e-05)
(0.01390464424 0.003820324239 -9.592679359e-06)
(0.01416341542 0.004030137927 -1.360213198e-05)
(0.01463756487 0.004343024937 -3.021316171e-05)
(0.01509661346 0.004603323332 -2.84276045e-05)
(0.01534569353 0.004778845691 1.004598776e-05)
(0.01558381266 0.004984127792 1.481795999e-05)
(0.01561829959 0.005038154365 -2.01412467e-05)
(0.0084573737 0.0001683055445 -1.15733268e-05)
(0.008533448855 0.0001938881796 -1.162193753e-05)
(0.008626217858 0.0002369823516 -3.934366114e-06)
(0.00867077057 0.0002934083408 -7.892723476e-07)
(0.00876543375 0.0003575256877 5.217572752e-07)
(0.008846214783 0.0004215271184 -9.581625636e-06)
(0.008933800794 0.0004963925091 -2.400773372e-06)
(0.009028994903 0.0006280759828 -2.855788611e-06)
(0.009279224477 0.000725870461 -5.837023742e-07)
(0.009493287813 0.000912427541 -1.925889088e-05)
(0.00968935295 0.001094690208 -9.495423105e-06)
(0.01000724655 0.001273971294 2.003305409e-06)
(0.01040299589 0.001523361556 -9.974072935e-06)
(0.01080717371 0.001770788354 -3.284043212e-05)
(0.0111877126 0.002026730483 -5.560989093e-05)
(0.01160701687 0.002313840537 -2.962581464e-05)
(0.01203870715 0.002601579271 -3.730024684e-05)
(0.01254837634 0.002940615019 -3.313618065e-05)
(0.0130105575 0.003281222728 2.846955941e-05)
(0.008452747894 0.0001247168362 -3.075715787e-06)
(0.008486617509 0.0001379788938 3.941510998e-07)
(0.00855240874 0.0001627658156 -7.370627159e-06)
(0.008608323395 0.0002177802603 -9.945023005e-06)
(0.008641931415 0.0002822849384 -1.388992761e-05)
(0.008734242088 0.0003203581833 -9.475591839e-06)
(0.008864713769 0.0004016526547 -8.108241227e-07)
(0.008950782104 0.0004744050905 -1.680179819e-05)
(0.009075033835 0.0005836395072 -6.038658901e-06)
(0.009180193066 0.000671562702 -1.272163392e-06)
(0.009494416293 0.0008311952872 5.184521462e-06)
(0.00969440018 0.001002866253 2.352215412e-06)
(0.009949767537 0.001153108708 1.611510766e-05)
(0.01022505137 0.001368732427 1.390236171e-05)
(0.008446027979 7.726825442e-05 -2.213634024e-05)
(0.008485939064 0.0001019643917 -2.123089989e-05)
(0.008495788821 0.0001384363648 -1.21423951e-05)
(0.008515763221 0.000158894432 -1.822468123e-05)
(0.008612022752 0.0002177379728 -6.478535944e-06)
(0.008580266515 0.0002662874069 2.342222156e-06)
(0.008663561045 0.0003013503534 -5.890436746e-06)
(0.008783509396 0.0003547971568 2.52786188e-06)
(0.008362874578 5.820395194e-05 1.203846974e-05)
)
;

boundaryField
{
    flow
    {
        type            calculated;
        value           nonuniform List<vector> 
15
(
(0.003587505033 0.0006838621973 1.274369588e-06)
(0.004957050733 0.0007433038627 4.683073045e-07)
(0.005973634725 0.000869301784 2.366002939e-05)
(0.006906878834 0.001166855547 4.089382963e-05)
(0.007548802219 0.001421773771 4.537807543e-06)
(0.008314223211 0.00173371374 -5.43329026e-05)
(0.009159721528 0.002025160494 4.26674089e-05)
(0.01001342248 0.002322800073 -1.376414847e-05)
(0.01075769542 0.00268191723 -6.421590652e-06)
(0.01127482857 0.00297238935 3.149256776e-05)
(0.0120358662 0.003323399472 -2.865286318e-05)
(0.0129083277 0.0036845888 1.835916054e-05)
(0.01351114808 0.003939385279 7.975944243e-05)
(0.01412359094 0.004170581435 -3.786716018e-06)
(0.01479730242 0.004577774318 -5.235071681e-06)
)
;
    }
    obstacle
    {
        type            calculated;
        value           nonuniform List<vector> 
30
(
(1.27683638e-21 3.421272774e-22 -2.537975756e-23)
(1.141357609e-21 3.0582585e-22 1.302002995e-23)
(1.193817522e-21 3.198824399e-22 5.146563036e-23)
(1.224043469e-21 3.279814595e-22 -1.739818023e-24)
(1.052933606e-21 2.821327086e-22 -4.157521532e-23)
(1.035833629e-21 2.77550785e-22 -2.113163761e-23)
(1.015730789e-21 2.721642452e-22 -4.818154152e-24)
(9.661678822e-22 2.58883903e-22 -3.054777731e-23)
(1.131964812e-21 3.033090578e-22 2.063564771e-23)
(9.537745232e-22 2.555631137e-22 -1.220671933e-22)
(1.01837255e-21 2.728721016e-22 1.450517322e-23)
(8.630553866e-22 2.312549943e-22 7.245804653e-23)
(9.190465301e-22 2.46257776e-22 3.449146831e-23)
(9.072592848e-22 2.430993919e-22 -2.204146458e-23)
(7.725022484e-22 2.06991354e-22 8.649910644e-23)
(8.167922636e-22 2.188588267e-22 -6.693432324e-23)
(7.424669263e-22 1.989434137e-22 4.164252962e-24)
(8.271729085e-22 2.216403132e-22 -2.890695813e-23)
(8.282489783e-22 2.219286442e-22 -9.414941067e-23)
(9.207639744e-22 2.467179638e-22 1.324625176e-22)
(7.786198703e-22 2.086305658e-22 -2.426802366e-23)
(7.577020933e-22 2.030256634e-22 4.78141289e-24)
(7.891773264e-22 2.114594277e-22 -9.452066472e-24)
(8.20667922e-22 2.198973074e-22 5.623024225e-24)
(8.156530247e-22 2.185535686e-22 2.96543888e-23)
(7.605910918e-22 2.037997692e-22 2.612641906e-23)
(7.479616172e-22 2.004157107e-22 5.626261352e-23)
(8.859469756e-22 2.373887771e-22 -1.386356102e-23)
(8.7050258e-22 2.332504637e-22 3.634251613e-23)
(8.783816259e-22 2.353616466e-22 4.893966361e-23)
)
;
    }
    frontAndBack
    {
        type            empty;
    }
    procBoundary1to0
    {
        type            processor;
        value           nonuniform List<vector> 
21
(
(0.005718130719 0.001666960094 -3.031590214e-05)
(0.008736935279 0.00263832365 2.620516657e-05)
(0.01052864668 0.003423306946 -1.208141244e-05)
(0.01149086658 0.003715575957 -2.71773503e-05)
(0.01170606573 0.003614127445 2.581770726e-06)
(0.01153467236 0.003212850866 -7.630058735e-06)
(0.01123718854 0.002747397154 -1.367156386e-05)
(0.01055770723 0.002220773495 4.88124707e-06)