/*--------------------------------*- C++ -*----------------------------------*\
| =========                 |                                                 |
| \\      /  F ield         | OpenFOAM: The Open Source CFD Toolbox           |
|  \\    /   O peration     | Version:  2406                                  |
|   \\  /    A nd           | Website:  www.openfoam.com                      |
|    \\/     M anipulation  |                                                 |
\*---------------------------------------------------------------------------*/
FoamFile
{
    version     2.0;
    format      ascii;
    arch        "LSB;label=32;scalar=64";
    class       volVectorField;
    location    "0.009";
    object      momentum;
}
// * * * * * * * * * * * * * * * * * * * * * * * * * * * * * * * * * * * * * //

dimensions      [1 -2 -1 0 0 0 0];

internalField   nonuniform List<vector> 
546
(
(0.006164077593 0.0009136301756 -0.002250234422)
(0.002910008876 0.001553318903 0.000612558922)
(0.003933317364 0.0006067800714 0.00168526059)
(0.004338687097 -0.0001904416404 -0.001144532355)
(0.005831260826 0.0004824629473 3.262837057e-05)
(0.006379583107 0.001440292227 -0.00183569449)
(0.001968097003 0.0007924591386 0.000328777758)
(0.003571485222 -0.0003595254148 0.0001245813421)
(0.002020388551 0.001700048808 -0.0009223663603)
(0.005403716037 0.002994121044 -0.0002421176614)
(0.00558720075 0.0004325871746 0.001328281478)
(0.006383819745 0.001653513928 -0.001587859621)
(-0.0002177605467 -3.773992811e-06 -0.0007638575811)
(0.006240043356 0.001844777756 -0.0001651229288)
(0.004749273855 0.001746278779 0.001984006483)
(0.006597062439 -0.00148577809 -0.0006305900172)
(0.003951131177 -0.0006929074736 0.0008996180265)
(0.005695664045 0.001274957347 0.001512217296)
(0.005953228981 -4.295206426e-05 -0.00328640648)
(0.003961630909 0.001995941635 0.0005739140726)
(0.005668707982 0.002027072341 -0.0004375987279)
(0.001120059162 0.001961619833 0.0003294433094)
(0.00191203528 0.001850784224 -0.002352305585)
(0.001209817357 -0.0001804993983 -0.001199664581)
(0.001255376129 0.001210096306 0.0007021636819)
(0.001536562706 -3.373008629e-05 0.0003253217969)
(0.002059681573 0.002211266112 0.001632463081)
(0.004828211915 0.0006440619193 0.0004297980542)
(0.004913332394 0.002694186947 -0.002272928944)
(0.00535377156 0.001070446674 0.001365575014)
(0.008913438389 0.0004841961739 -0.0006283953243)
(0.01163307496 0.00305195539 0.002957844808)
(0.004824790354 0.001978286153 -0.0006361545926)
(0.004053257431 0.00317447343 0.0005815469216)
(0.006003175582 0.0007155621772 0.0003383728305)
(0.009270795715 -0.0004536597009 0.0008622566189)
(0.009746899664 0.00298580947 0.0003836493814)
(0.006019483762 0.001351897167 0.003098841166)
(0.008961735804 0.001219933284 -0.001532073617)
(0.00683793187 0.001525885917 0.0003946322123)
(0.01060944265 0.001959990503 -0.0007273657388)
(0.005156669139 0.002480387895 -0.0001444032325)
(0.003689878624 0.001736435536 0.000412238384)
(0.007376789573 0.004068550972 0.0003721491789)
(0.004955158936 0.0002062866006 0.0004455347461)
(0.003796957532 0.002953058213 0.000492873214)
(0.00590799905 0.002752205673 0.0005306265593)
(0.005129213279 -0.001530053137 0.0005379858559)
(0.00557190108 0.002272433808 0.0002574428492)
(0.005706882952 0.001920092998 0.00112443819)
(0.003673638989 0.001672498642 5.833617392e-05)
(0.005635425663 0.002142511793 -0.0002101376979)
(0.006031911714 0.001825982748 0.001091277433)
(0.003681953795 0.001509840369 0.002020864777)
(0.004867700054 5.074751169e-05 -3.580737612e-05)
(0.003051394205 0.0008296389289 -0.001412754475)
(0.004095459812 -0.0009260455262 0.001048404395)
(0.003708539993 0.003031092113 -0.0007971150652)
(0.0059807962 -1.975289272e-05 0.0006572530262)
(0.002645976875 0.0005174140268 0.001974637513)
(0.008658997387 0.006171295936 0.0007511494723)
(0.007781150441 0.002002665616 0.001243527303)
(0.006761196461 0.002358284719 0.000255968289)
(0.008345822455 0.001559124102 5.905446733e-05)
(0.003676411661 0.001474117489 -0.002011416998)
(0.008417453144 0.001895731077 -0.001426357885)
(0.007826863987 -4.80652571e-05 -0.0020624066)
(0.009894102018 0.002706353544 0.001741903387)
(0.01053146242 0.001363135124 0.001641905578)
(0.01183846527 0.001313703635 -0.001098244005)
(0.008103174289 0.0008184221453 -0.001462265332)
(0.006009453749 -0.001873303884 -0.000551345796)
(0.01213222263 0.00197183795 -0.001282959336)
(0.008288125747 0.002778051229 -0.0002067234924)
(0.006288652021 0.0004625447485 0.001425408568)
(0.003560176391 0.001815773508 0.001071614999)
(0.006116521183 0.00106081024 0.001403918756)
(0.007715450085 0.002086446327 0.0001108731536)
(0.005350980694 0.002284787789 0.0007446973494)
(0.007986935017 0.002738448424 0.002910554495)
(0.00763568324 0.001446765226 -0.0007892100498)
(0.008040594602 0.002155547183 0.000538525258)
(0.006915612566 0.003542979462 0.001816929266)
(0.005105897648 -7.907280244e-05 -0.002045102029)
(0.002828733489 0.001760486514 -0.001049693142)
(0.005817712044 0.002004162417 -0.002256690216)
(0.005773824342 0.003156990694 -0.0002218621642)
(0.006231992092 0.00111138964 0.002008152081)
(0.005836256835 0.002313528859 0.001293909187)
(0.00432368551 0.001274678806 -0.001183565278)
(0.01357894872 0.004009281434 -0.0003553167047)
(0.01419841102 0.005302773269 0.001539177653)
(0.01203686618 0.005429130209 0.002368211876)
(0.009979027194 0.004008328107 -0.001834896413)
(0.01069582865 0.004375235268 -0.0003089176833)
(0.008140250433 0.002989208175 0.0009076796522)
(0.01432982654 0.003123232331 -0.0001874001475)
(0.005359186458 0.001886413394 -0.0003990285258)
(0.0126682376 0.001734267797 -0.001783574219)
(0.007943379493 0.006716792041 0.0005410595231)
(0.00868080801 0.001877142093 -0.0008531362182)
(0.01069995871 0.001068817892 -8.210994472e-05)
(0.009233118701 0.003113827551 -0.0007383175191)
(0.009631250284 6.445793674e-05 -0.0001753898108)
(0.006750525054 0.00314944059 0.0004834517173)
(0.006803900512 0.0001404448495 -0.0004907819702)
(0.004524052148 0.001902597376 -0.0002641438203)
(0.00759637862 0.001468371469 0.001028416388)
(0.00978863768 0.0001886935561 -0.0003020187725)
(0.005954080865 0.001537392935 -0.0002303466181)
(0.005157463826 0.003367751731 0.0008791803542)
(0.005513670065 0.001856425209 -0.001135730215)
(0.007269597058 0.003956505101 -0.001162817942)
(0.006070138232 0.001871287298 0.002456910883)
(0.006238699144 0.001085233587 0.0008967583614)
(0.002972286337 0.002020285254 -0.0006684879779)
(0.006923589551 0.00165624344 -0.00143216092)
(0.006049325521 0.003227413305 0.0009014655417)
(0.00964078112 0.00112255727 -4.176623778e-05)
(0.006289152768 -0.0007525283995 0.0006566923609)
(0.017742454 0.005247979527 0.0004618845008)
(0.01267066094 0.005171440472 0.001029582843)
(0.01288843314 0.003489384001 0.0005353658084)
(0.01174596789 0.006467002193 0.0002539354353)
(0.01320081054 0.002544778888 3.737544788e-05)
(0.008280735702 0.003360443309 -0.000565510751)
(0.006645155388 0.001111204455 -0.0003550962386)
(0.01194517196 0.002635314083 -0.0002656544331)
(0.00786625575 0.002245852117 -0.001105747817)
(0.01327367897 0.005789982749 -0.001708111167)
(0.00807999434 0.001626741086 0.001375408009)
(0.006694844759 0.001608511044 0.0001840387903)
(0.008482887023 0.003618476971 -0.0008585873722)
(0.008435119975 0.002392815311 -2.305183146e-05)
(0.008397763556 0.003882838729 0.000649760772)
(0.006743366428 0.004416494198 -0.002143628279)
(0.005275558712 0.0006418349262 -0.0008675487036)
(0.005992824679 0.0008790163173 -0.0006558100767)
(0.00983778363 0.001704553704 -0.0003864252539)
(0.010372881 0.0025476812 -0.001795013182)
(0.01038429202 0.002108175236 0.0001395198243)
(0.01200270623 0.0036752361 -0.0004151279901)
(0.007295846072 0.001068954201 5.715554035e-05)
(0.002440448586 0.0002573194872 -0.0001448500648)
(0.006411857899 0.004556509454 0.001040363449)
(0.008967786883 0.002459062938 0.001252169539)
(0.007369050814 0.002270741005 -2.45177098e-05)
(0.01029135838 0.002799527464 -0.001467880109)
(0.009697553418 0.002539330104 -0.0003145492736)
(0.007874975875 0.002212005836 -0.0007572378605)
(0.01674018106 0.000881838461 0.0004081270581)
(0.01016386615 0.004227503799 -0.0002293762163)
(0.01264073263 0.003379709901 -0.002281022429)
(0.01636121397 0.005568983374 0.0002456399264)
(0.01184528834 0.003154517404 -0.0001398733224)
(0.01266004126 0.006289270931 0.0003022261797)
(0.01487127281 0.002663830661 -0.001671010549)
(0.01612251249 0.003281766914 -0.0008256864651)
(0.01029970735 0.003243367623 0.0008862566383)
(0.008602775458 0.001291984666 -0.001306901518)
(0.01213301281 0.004898690836 -0.001533229281)
(0.01385501213 0.003916130637 -0.001194490637)
(0.01108054137 0.00364897252 0.003151592725)
(0.008032872152 0.002308813118 0.0001866769319)
(0.008551686451 0.003377995737 -0.002347754656)
(0.008714071551 0.002199871515 0.0002046628283)
(0.01250172858 0.003446461268 -0.002247652118)
(0.007747810561 0.002893701495 -0.002606071476)
(0.01040996715 0.003802983791 -0.0004925542568)
(0.008168501784 0.005940517131 0.001445375319)
(0.01208046828 0.003714173624 -0.001338645242)
(0.01037399163 0.001781195731 -0.001644184098)
(0.005904802815 0.001846569615 -4.070640022e-05)
(0.01038832863 0.003819058035 0.001199562268)
(0.01121546162 0.002525287194 -0.001311357111)
(0.007787372179 0.003320140035 -0.000254663383)
(0.006807728154 0.002603506959 -0.0005559960248)
(0.005422963019 0.001018724246 -0.001389963077)
(0.008778656917 0.002890248317 -0.0003499265411)
(0.01061507469 0.003028977357 0.0006505232547)
(0.007855117292 0.001852674055 0.0005377644832)
(0.0116786131 0.005614644168 0.0017032112)
(0.01152577398 0.003611734378 -0.0007086126383)
(0.01437660398 0.004277326954 -0.0006100229573)
(0.01400243525 0.005639235797 -0.0009875786622)
(0.01494039277 0.004801118132 -0.0002294908564)
(0.01843099133 0.005775531528 -0.0005142887373)
(0.01327784741 0.004652994548 0.002057377314)
(0.01785095893 0.007060313572 -0.0009593537642)
(0.01587707693 0.004013372728 0.0001643153265)
(0.007723614889 0.004972722865 -0.0006589704404)
(0.01356490603 0.006854737313 0.001425596756)
(0.01244894053 0.004712271941 -6.344331168e-05)
(0.01233521933 0.002275626778 -0.001127550686)
(0.009436611191 0.003240336118 -0.0002069357203)
(0.00436042106 0.0009973281303 0.0006835445492)
(0.01361934242 0.006558902706 0.001024267307)
(0.01388972811 0.0043129352 0.002164865647)
(0.01049389109 0.003897719403 -0.0007070360293)
(0.01089401014 0.005838290712 9.553879817e-05)
(0.01282474595 0.003022252444 0.0004363112515)
(0.009480520038 0.002476560514 0.001900513116)
(0.009206495492 0.0004346224482 -0.0002040414355)
(0.01104185284 0.002478964907 0.0003932459682)
(0.007945433771 -0.001181549087 -0.00234333346)
(0.01188566873 0.001317176922 0.0004357848421)
(0.006091398225 0.001052948925 0.001872587872)
(0.007076001927 0.001879386176 -0.0006481447879)
(0.01322726412 0.004544739725 0.001201398022)
(0.01562407767 0.003630632409 0.001247304098)
(0.01722070564 0.00480010135 -9.259039918e-05)
(0.01634464681 0.003743632818 -0.0004861449975)
(0.02032949336 0.002962551115 -0.003648712512)
(0.01014872315 0.002424411931 0.002684253683)
(0.0130605139 0.003486546942 0.0003525248613)
(0.02096499332 0.004811596935 0.0006090822634)
(0.006574578573 0.002427563551 0.001060908486)
(0.01449660672 0.004328650662 0.000853972013)
(0.02053738174 0.005873306124 0.0008244880876)
(0.01291820344 0.007120533369 -0.0009633229725)
(0.008339173041 0.0003863080709 0.002213498129)
(0.01711052846 0.004249106029 -0.000213098814)
(0.01156541205 0.003051706668 -0.0002455593967)
(0.01060909842 0.000956717714 0.0008611412395)
(0.01292594634 0.004519874942 -0.0007785123414)
(0.01247433985 0.00656195881 0.001334235401)
(0.01254344405 0.004707843452 0.002533771254)
(0.01651862576 0.006791358265 0.0005175815483)
(0.00787064688 0.003362157545 -0.001440980933)
(0.009226527097 0.003085157386 0.0009472896124)
(0.008627560009 0.006976301269 -0.0001493435271)
(0.006403426739 0.002397150571 0.0003540961661)
(0.008320526618 0.005594655722 -0.00027958112)
(0.01038843284 0.004409542404 0.00019186525)
(0.01259778085 0.003598463617 -0.003817684158)
(0.009566122644 0.004076253171 0.001329217425)
(0.009432182588 0.002444026275 -0.0004729665405)
(0.01314190782 0.003221913355 -0.0009081009532)
(0.01260428899 0.003294836045 0.001172240614)
(0.01292001194 0.003952782916 0.004046778707)
(0.004008719869 0.001145126111 -0.0005734251744)
(0.008280122276 0.001352269095 -0.0009569364964)
(0.01286874422 0.004266914259 0.001467722666)
(0.007190801426 0.001882546722 0.001025204364)
(0.01514750997 0.004254677972 -4.242819456e-06)
(0.01414911918 0.003335575146 0.0008280697742)
(0.01530201669 0.0003157590357 -0.0004538669461)
(0.01958414602 0.006603300469 0.000864746978)
(0.01664045377 0.00375277681 -0.0004837356303)
(0.01572790919 0.004748059261 -0.001389342916)
(0.01163776209 0.001978276864 -0.0003949192661)
(0.01178381093 0.004941163444 0.001896905405)
(0.01106654752 0.001602127924 0.003934882534)
(0.01286279808 0.004079350678 -0.003207262841)
(0.01619621409 0.006258172437 0.0009029147802)
(0.01094120164 0.004975076811 0.002192667371)
(0.01453293322 0.004557200919 0.0001500341353)
(0.01648317122 0.003605754018 0.00174053636)
(0.01637888824 0.00532006621 0.0002189417093)
(0.01186467835 0.00231631353 0.0003417062824)
(0.005788485971 0.001649703091 0.0006277751194)
(0.01817229962 0.00480902545 -0.003458280219)
(0.009442913989 0.004370812165 0.0007444557361)
(0.007700706804 0.002183156144 0.002012257146)
(0.01557528436 0.007579170559 0.0007302613852)
(0.02154479652 0.003720572476 -0.003741060325)
(0.01369409653 0.004644562851 -0.002254591332)
(0.01165793094 0.002690345753 -0.001026785907)
(0.007900866611 0.00219137926 0.0005954631928)
(0.008228666593 0.0009735583383 0.00076876569)
(0.01221346942 0.001431939111 0.0005925463696)
(0.007095778948 0.001257669575 0.0009621414289)
(0.008383534487 0.002278102323 -0.0011233496)
(0.01722039132 0.005182127997 -0.001081410921)
(0.0119645178 0.003477875377 0.001479935005)
(0.01013684702 0.00320968087 -0.0003154465158)
(0.007022486959 0.001142431291 -6.595822452e-05)
(0.01355756652 0.006069060619 0.0005768570752)
(0.01627049215 0.008363192964 -0.001275300935)
(0.01768864414 0.005850140371 0.000438323786)
(0.01199459479 0.004461734075 0.001080100428)
(0.01315804151 0.004602066231 -0.000298887103)
(0.01072841106 0.004762582473 0.0002186883396)
(0.01133254883 0.004953747405 -0.001473843279)
(0.01069144935 0.003664023935 -0.001595290899)
(0.01217402614 0.004533782027 -0.0005736565085)
(0.01357707828 0.006501042833 0.001765478038)
(0.008496525407 0.003577068 0.0001001626829)
(0.01055595341 0.004055093908 -0.0003972603603)
(0.01481560342 0.005823801433 0.001953660963)
(0.02054350909 0.009263462494 -0.001143692084)
(0.009543390799 0.003026242166 -0.001903412306)
(0.01312833197 0.006222263442 0.003129057591)
(0.01142495669 0.003640862938 -0.0002239473894)
(0.01213083872 0.005174948448 -0.0005036686892)
(0.01561979652 0.00478377182 -0.0008249298292)
(0.01359069501 0.00378576261 6.703252735e-05)
(0.01317837744 0.003431486094 -0.0008415879614)
(0.01317148673 0.002893854555 0.001644090397)
(0.01735016492 0.004776990227 -0.00105038831)
(0.01108703689 0.001536590308 -0.0003456135558)
(0.008780860574 0.000737225671 -0.0004356486956)
(0.01113819523 0.0004225713105 0.0007891783553)
(0.00767394082 0.002901214667 -5.648005668e-05)
(0.01790563138 0.004155446892 0.0003094465412)
(0.01295478202 0.003604931297 0.00138508577)
(0.01407317168 0.003219216482 -0.0001851616807)
(0.01732796833 0.004524467626 -0.0004064734942)
(0.01577699908 0.004280774821 0.0006695610658)
(0.01092070401 0.00461218643 -0.0003045075677)
(0.007896635467 0.003885094952 5.39543424e-05)
(0.0116269728 0.00316642187 -0.001043255748)
(0.01408436275 0.005425651589 0.0004655539635)
(0.01863078521 0.005001684174 0.001695029464)
(0.0130413102 0.003415359291 2.890807393e-05)
(0.01443765777 0.00551722632 0.00182941615)
(0.01208478433 0.005602845804 0.0004763604462)
(0.01517141922 0.003623790499 -0.0005408434688)
(0.01118884887 0.006907322221 -0.002519348747)
(0.0164081884 0.006167988426 -0.0005743310294)
(0.01088530982 0.003852182255 -0.001774284485)
(0.01352327053 0.003565232368 0.001011918946)
(0.01363336246 0.004489918966 -0.0001449101885)
(0.013641569 0.00602187048 2.677514668e-05)
(0.01149395496 0.00322607804 0.00128313513)
(0.01501812493 0.002960576171 0.0007410468685)
(0.01128804851 0.003495392057 -0.0008674000938)
(0.02125481664 0.005102270525 0.0004842469401)
(0.01665731807 0.005666555873 -0.0004490698175)
(0.01806800073 0.003323440585 0.0007023390719)
(0.00704875733 0.0001085634243 -0.0004731266521)
(0.006952406078 0.001196538007 0.0009200106986)
(0.01116655713 0.003183461367 0.000159804808)
(0.006216572859 -0.0002252915281 6.727270502e-06)
(0.01036590422 0.002658615612 -0.001338645675)
(0.01345378983 0.003357788485 0.0005483471302)
(0.009480699239 0.002494529809 0.0008507350651)
(0.01137662247 0.00293087932 -0.000654753005)
(0.01072130505 0.001815380781 -0.001300655808)
(0.008839700975 0.001583673914 0.0004236590659)
(0.01634692471 0.006310594877 0.002370878289)
(0.01183287695 0.004209722615 0.001117620035)
(0.01340785404 0.00549722571 4.869690458e-05)
(0.009929667574 0.002966127881 -0.0008164755074)
(0.01066975022 0.004373856054 -0.001760185298)
(0.01269659597 0.00426178723 9.077116601e-05)
(0.01577459458 0.007451274385 -0.002325025065)
(0.0156832351 0.004824525633 -0.001387077342)
(0.01349928246 0.004518100532 0.0005990050105)
(0.02158086734 0.006553684628 -6.129590155e-06)
(0.01546500763 0.004954480884 0.002408896996)
(0.01757413187 0.004664783333 0.00365328461)
(0.02241480713 0.006053284158 -0.001428305188)
(0.01303221638 0.004989018703 0.0003920522512)
(0.0158332505 0.005326122806 -0.0001577169798)
(0.01332725524 0.00476432375 0.00023403152)
(0.01084693331 0.004168480879 0.0005857755506)
(0.01560486113 0.002850105406 0.0002922238181)
(0.01152560507 0.002940161214 0.0003160049638)
(0.01801008687 0.00454068026 -0.001023762518)
(0.009644272137 0.0008907959055 -0.0001260441872)
(0.01107544269 0.000436500241 -0.0003033102413)
(0.01091904294 0.001819324458 0.001437944226)
(0.008576222201 0.0004096705084 0.0002218692628)
(0.01320361554 0.003423547791 0.0004546560696)
(0.01207674605 0.002305603067 -0.001646594713)
(0.01487287051 0.002057774176 -0.001719951435)
(0.009565899826 0.001052584977 0.0005047488914)
(0.007310708166 0.002100238608 -0.0008659442933)
(0.009932046649 0.002883836624 -0.00104139281)
(0.009810942809 0.003548747477 0.001532329757)
(0.01498750202 0.005931827122 0.001767914651)
(0.01420137984 0.004145611481 0.0004298691369)
(0.01763348121 0.005362060669 0.001891893417)
(0.004956349229 0.001666284753 -0.001304667777)
(0.01136472668 0.004585349844 -0.0002756263082)
(0.0125655464 0.002108527992 0.001363842542)
(0.0153731649 0.004437821288 0.003435579714)
(0.009655408417 0.004603527696 0.0003230497776)
(0.01974001066 0.005096171281 0.001891460436)
(0.01843634009 0.007112838377 -0.0009943558528)
(0.01418268636 0.005103290464 -0.0006691960282)
(0.01259269237 0.002904496491 -0.0007885273617)
(0.01420841517 0.004868556579 0.0004244192237)
(0.01924713309 0.005478307705 -0.0002268475574)
(0.0101051237 0.004414135097 -2.317937896e-05)
(0.02032822917 0.00466246178 -0.001829293179)
(0.01336650917 0.003913933036 0.0004393169421)
(0.01069005189 0.003965481868 4.773249815e-05)
(0.006780493101 0.00350138751 0.001663432089)
(0.00319875806 0.000761734376 -1.142867051e-05)
(0.006553495969 0.001137596698 -0.0002528363824)
(0.01143256617 0.001125415758 0.0005748571788)
(0.01529741481 0.001646635496 -0.0005882204109)
(0.00731658974 -1.830098925e-05 0.0002161588693)
(0.008667554423 0.0006869803179 1.751635826e-05)
(0.006222685276 0.002485854729 0.001020182877)
(0.01156619091 0.001038097981 -0.0003709237743)
(0.0148844786 0.0003290637931 0.0008520175759)
(0.01209770761 0.002058335519 -0.0007055771556)
(0.007129305323 0.001859860186 -0.001284198653)
(0.01465333727 0.004628914872 0.0020467003)
(0.009775460108 0.005432599809 -0.0008179352235)
(0.01701868565 0.005497520509 0.0002162504257)
(0.01210950636 0.005196722144 0.001775359542)
(0.009554188359 0.003672695351 0.001338899015)
(0.0150151492 0.0042246424 0.0006992088524)
(0.01724244088 0.007806901658 -0.0005296403048)
(0.02236709416 0.007168847186 0.001504559688)
(0.01397942786 0.002481341077 -0.001439242353)
(0.01295158712 0.004247579392 -0.0008078664192)
(0.01387687703 0.006539497444 -0.0005115629415)
(0.01221518026 0.005479972473 0.001214282445)
(0.01653571325 0.007432052674 -0.003210171823)
(0.0205077394 0.003516755787 0.001913879221)
(0.01476980837 0.003434398419 0.0009125107441)
(0.0188734488 0.007894347573 -0.0005953787663)
(0.01275658015 0.004226878907 0.0007500678159)
(0.008714944612 0.003458607454 0.0005609876342)
(0.01109703845 0.003512140797 0.001365197648)
(0.01071479455 0.001088859684 -0.001537199401)
(0.008765621551 3.765174682e-05 -9.736061136e-05)
(0.004407133126 -0.0001640888226 0.000196686171)
(0.006999766934 0.0003616028942 0.0008348232977)
(0.01032392093 0.0004510609377 -0.0006532702447)
(0.00931186145 -5.920617231e-05 -1.404859581e-05)
(0.009205287467 0.0006726355981 0.001245685367)
(0.01192212393 0.002472607609 0.001769475717)
(0.01194858991 0.001588321055 0.0003941403307)
(0.01179386912 0.001934986663 0.0003152564113)
(0.01236245744 0.00389906088 0.0003037687022)
(0.01819483417 0.00604216655 0.0008235232223)
(0.008806718663 0.001962460436 -0.001930632027)
(0.0110216073 0.00320527226 -0.001371089895)
(0.01194663612 0.003293325035 0.000883478965)
(0.01238767506 0.005666010182 -0.001500787608)
(0.01844418853 0.004843019003 -0.0008603658117)
(0.01721829998 0.005588302334 -0.0008888858689)
(0.01880724287 0.005468534229 0.0009114649692)
(0.01259726993 0.006217199067 0.0005678081439)
(0.01354225833 0.004117221491 6.528604653e-05)
(0.01759239382 0.008271561747 0.0009536100532)
(0.01459906911 0.004891947439 0.001184899631)
(0.02055677565 0.009350831157 -8.637618239e-05)
(0.01941948855 0.006069207346 5.207730916e-05)
(0.01502009507 0.005154271564 -0.001954389211)
(0.01740831625 0.006797946838 0.001245452545)
(0.01478727362 0.003499506288 0.001062814995)
(0.00868811545 0.002644766648 -0.001495226051)
(0.01135179002 0.004124759264 0.0002681644653)
(0.01263007638 -0.0003640308421 7.29236862e-05)
(0.006467603014 -0.0002272687092 0.0003489147694)
(0.009512219324 0.001072552578 -0.0001298391008)
(0.01195462437 0.0001854599413 -8.540154276e-05)
(0.006134727242 0.0005451090949 0.0001819622374)
(0.003076698049 0.000573810566 -0.0001897326961)
(0.009004073449 0.001841930526 -0.0003116892337)
(0.008658441749 0.001016465185 0.0006260154407)
(0.01252628681 0.00253250718 -0.0003287123614)
(0.01088728739 0.002312727696 0.0008858583843)
(0.01479356441 0.001732289012 0.001352797679)
(0.01641615014 0.004034466706 0.0007221990097)
(0.008108913515 0.00357361302 0.002519288954)
(0.01651117787 0.006043618841 -5.217988963e-05)
(0.01276845871 0.004796426105 -0.001182896463)
(0.01678700248 0.004793416748 0.0004152046421)
(0.01073956787 0.004677021044 -0.000961194213)
(0.01227750071 0.004900394534 -0.001065761562)
(0.01252313212 0.002707555614 7.148733241e-05)
(0.01359037147 0.005253895442 -0.001569069916)
(0.0100068884 0.003709025223 0.0003983597193)
(0.009921791424 0.005499488644 -0.003385039503)
(0.01516019532 0.005371196414 0.0002456390645)
(0.01582522918 0.007332394754 -0.002558398699)
(0.01647498331 0.0056623222 0.0003828518788)
(0.01849832523 0.005066754277 -0.0006080354378)
(0.01531247089 0.007730766934 -4.947030359e-05)
(0.01723716789 0.004027089589 0.0002909456689)
(0.0118659841 0.004947537714 0.0004248299129)
(0.009816124215 0.0006509713673 9.271727145e-05)
(0.009156836845 -5.839994861e-05 -6.741782771e-05)
(0.01510605888 0.0007995460187 0.0004461618311)
(0.007087721064 -0.0003910279208 0.0004073785025)
(0.007596737499 -7.851309313e-05 0.0002688648268)
(0.01183971428 5.572836408e-06 0.0005715978625)
(0.008551050755 0.0009266175955 -0.0008705341529)
(0.009174015426 0.0008950465245 0.001367504179)
(0.0086761779 0.00174251904 -5.430693053e-05)
(0.01016445082 0.002356981108 -0.0004675314223)
(0.01306109557 0.001110143878 -0.0007216946401)
(0.01197158688 0.001876110762 7.172013063e-05)
(0.007666113659 0.001846822975 -0.0009403263413)
(0.01073007087 0.0006284275999 -0.001251615902)
(0.00669398826 0.003494123962 0.001146019498)
(0.01728343795 0.0001204502811 0.0002260289935)
(0.01636212153 0.003857516864 0.001782053834)
(0.01322105087 0.002897526638 -0.001561899123)
(0.01296208551 0.005286942635 0.001292806277)
(0.02660018684 0.004523883328 0.00288989432)
(0.01698555552 0.004298066295 -0.001167804245)
(0.02101901643 0.007580263054 -0.001242617305)
(0.01491651877 0.003504038155 -0.0008763301804)
(0.01606029657 0.003927129917 -0.0009654829619)
(0.01470994806 0.005764069356 0.001483270473)
(0.01159675738 7.74394912e-05 0.0009351679394)
(0.0077063832 0.0004897057266 -0.0001175607044)
(0.009437830072 0.0003036473164 0.0005496279106)
(0.00793288425 0.0004901068664 -0.0001364448072)
(0.005479288776 -5.880994262e-05 -0.0001725628725)
(0.01293355873 0.0005478875904 0.0002717070745)
(0.006816421426 0.000551889416 -0.001151701679)
(0.006085720836 0.0014919178 0.0003179023928)
(0.007956598036 0.0002017561688 -0.0001544484577)
(0.004184711741 -5.29930314e-05 4.519468802e-05)
(0.009521766466 0.000752279974 -0.0004298918293)
(0.01448005556 -0.0003322687958 0.000703761167)
(0.008266981853 0.001068448325 -0.0001978547984)
(0.009927639889 0.001441977384 -0.001263956562)
(0.01201908715 0.002048777479 0.000484247934)
(0.01065218524 0.003137428871 -0.001587904133)
(0.01045749103 0.001409299394 0.000532352422)
(0.01034173139 0.001879913601 0.000383776331)
(0.01811351874 0.005216970719 0.0004303458467)
(0.007475025384 0.0002425220472 0.0007375141808)
(0.01014212402 -0.0004002297978 -0.0002314341191)
(0.007416246818 0.0007558370934 -0.0002784680098)
(0.006176057644 0.0007049850982 -0.0005073569254)
(0.009333541946 -0.0002483785438 7.451054201e-05)
(0.009992384412 -0.001296076058 0.0003658857216)
(0.007338041211 -0.0004635364613 0.0003986718929)
(0.011032288 0.001050213145 -0.0008945325919)
(0.01030921492 -0.0001519791106 -0.0002776946055)
(0.003102166645 -0.0001118469726 -0.0001520423603)
(0.008473615733 0.0005905385215 -0.0009733620488)
(0.01042304556 0.001543436306 -0.0001456943943)
(0.01298306385 0.001254311657 0.0002500829184)
(0.005644651345 0.001836608642 4.09402908e-05)
(0.01561419936 0.001648207869 -0.0001737153628)
(0.01431668977 0.0003589561597 0.0006046879333)
(0.0116566612 0.0008919267251 4.893261969e-05)
(0.004931861561 0.0004712327174 -0.0004762975147)
(0.009661019199 -0.0001375751525 -0.0003531135952)
(0.003240977801 3.628549965e-05 -0.0002696672553)
(0.007339847663 0.0007956378289 -0.0006704172013)
(0.008607678889 0.0005203863241 -1.836778812e-05)
(0.01033107182 0.0003850118325 0.0003360200894)
)
;

boundaryField
{
    flow
    {
        type            zeroGradient;
    }
    obstacle
    {
        type            calculated;
        value           nonuniform List<vector> 
30
(
(1.739761837e-21 4.661677801e-22 -1.295960428e-21)
(2.774732702e-21 7.43487388e-22 -1.284253881e-21)
(3.657316795e-21 9.799750786e-22 1.039662754e-21)
(2.36242114e-23 6.330088377e-24 -8.934906765e-22)
(-5.108558758e-23 -1.368834189e-23 -6.038085312e-22)
(1.504576793e-21 4.031501373e-22 -3.395032425e-22)
(0 0 0)
(0 0 0)
(0 0 0)
(-4.168669635e-22 -1.116991664e-22 -1.686048539e-22)
(1.001698413e-21 2.6840428e-22 -4.961999774e-22)
(0 0 0)
(9.616502044e-22 2.576733961e-22 -1.509282542e-22)
(4.10272257e-21 1.099321196e-21 1.698585378e-21)
(6.795402067e-22 1.820822499e-22 1.427892809e-21)
(-2.700066488e-22 -7.234806328e-23 1.105798032e-21)
(0 0 0)
(0 0 0)
(5.852217258e-22 1.568096883e-22 -1.195034035e-21)
(2.260221917e-21 6.056246384e-22 -2.323428075e-21)
(2.346528441e-21 6.287504019e-22 1.21430476e-21)
(9.844002848e-23 2.637692605e-23 9.3401604e-22)
(-4.637386044e-22 -1.242583848e-22 4.233832291e-22)
(1.513385803e-21 4.055105045e-22 1.763707401e-21)
(-1.551187265e-21 -4.156393736e-22 1.6635765e-21)
(0 0 0)
(2.89217721e-22 7.749565453e-23 1.551752801e-22)
(4.038165394e-21 1.082023158e-21 -1.318279342e-21)
(4.746469429e-21 1.271812653e-21 -1.628686245e-21)
(1.566648316e-21 4.197821498e-22 8.613343834e-22)
)
;
    }
    frontAndBack
    {
        type            empty;
    }
    procBoundary1to0
    {
        type            processor;
        value           nonuniform List<vector> 
21
(
(0.00521127871 -0.00104301416 -0.0003332782162)
(0.006691856557 0.004250382385 0.0002017773027)
(0.01381245046 0.006663688642 -0.0008552097266)
(0.01164865184 0.003998525307 -0.0009656675779)
(0.01198060281 0.004332964894 0.000747226481)
(0.01167454918 0.002623478815 -0.0006321110804)
(0.00612063664 0.00210940125 0.0009102387151)
(0.003457895871 0.002099183808 0.0002102271227)
(0.0107301017 0.001186481005 0.0003594810561)
(0.01178585661 0.002435172981 -0.0003393236722)
(0.007346741573 0.002135591815 0.0008237725099)
(0.006172372955 0.0001719864961 0.0009954602568)
(0.01144668905 0.000163189965 -0.0006673425776)
(0.01037920397 0.0004990378349 0.0003199290721)
(0.01362819742 -2.638267429e-05 -0.0008065368012)
(0.01389232766 0.0003748363535 -0.00030673826)
(0.005042869716 -0.0001241213867 0.0001101079616)
(0.01042143138 -0.0005622803834 1.690697724e-05)
(0.007135267207 -1.48138099e-05 -0.0005356891753)
(0.01088139521 0.0001289572155 -0.0005263864571)
(0.009783179353 -1.127789588e-05 -0.0004003697144)
)
;
    }
    procBoundary1to3
    {
        type            processor;
        value           nonuniform List<vector> 
36
(
(0.01363921677 0.005394061753 0.0004970383498)
(0.01830961952 0.005171102407 -0.0003373638754)
(0.01013681175 0.002147858828 -0.0001967434121)
(0.01318320833 0.003649173032 0.002017542508)
(0.01363921677 0.005394061753 0.0004970383498)
(0.01745996196 0.00533000641 -0.0003586071356)
(0.0189933675 0.003861206981 -0.00149106684)
(0.01599230979 0.002504470828 0.0004972019479)
(0.01003913942 0.0003299125509 -0.001720956563)