/*--------------------------------*- C++ -*----------------------------------*\
| =========                 |                                                 |
| \\      /  F ield         | OpenFOAM: The Open Source CFD Toolbox           |
|  \\    /   O peration     | Version:  2406                                  |
|   \\  /    A nd           | Website:  www.openfoam.com                      |
|    \\/     M anipulation  |                                                 |
\*---------------------------------------------------------------------------*/
FoamFile
{
    version     2.0;
    format      ascii;
    arch        "LSB;label=32;scalar=64";
    class       volScalarField;
    location    "0.009";
    object      overallT;
}
// * * * * * * * * * * * * * * * * * * * * * * * * * * * * * * * * * * * * * //

dimensions      [1 2 -2 0 0 0 0];

internalField   nonuniform List<scalar> 
546
(
843.6890125
829.0998245
817.2194427
808.6240718
801.9916961
797.4549999
798.055576
781.8601657
773.3809014
771.6583887
765.9948325
762.7951678
758.2795239
763.6274952
756.847092
748.4122876
745.6602022
738.660182
733.8256556
735.1118575
736.8381646
721.9774821
725.4464771
732.7058188
725.0180549
719.7972112
723.2925929
717.6769548
708.8768361
701.0955506
918.0426311
909.7502955
904.9948638
899.7692852
894.2875969
886.0975883
881.0436987
872.3900456
867.6487563
863.0136482
850.7106445
850.550241
848.1037248
847.296881
847.8360052
829.7294032
824.3493387
821.1088176
814.4947653
813.5486284
808.6340456
804.0029051
801.7036178
794.4695015
793.3977408
784.1658906
775.0644303
775.7544038
757.3710952
728.3320968
928.6060211
926.8270428
924.7996715
929.015977
925.5750294
913.9368584
911.814947
912.4935544
898.7509421
903.1729206
896.8232518
891.6761405
886.5769829
887.0212496
882.6756045
876.3085977
872.6029563
861.5622524
855.4164294
858.3091489
850.5910119
847.5953232
836.3772345
840.0374527
834.5718835
823.4432237
808.8706656
795.8689743
782.9891071
752.0266448
908.5900001
907.5369414
917.4546501
908.8551125
915.8569957
917.4525723
910.164073
905.5285408
909.4027349
911.9764261
909.5414176
911.0043692
905.7227904
900.1873638
894.3890307
891.9266311
886.2558346
878.5410218
879.827657
876.8207133
877.2904415
870.6595473
867.4503929
860.0245204
857.8428657
845.7412778
837.1717512
811.7056211
782.2741985
752.2042619
877.6715527
880.3826492
891.633398
891.9062101
890.6132627
891.0073479
889.5384067
890.7533222
900.3764454
896.9657054
899.0390545
900.2426608
899.2580863
899.6253118
893.0132203
890.3210018
893.3986459
891.8536687
892.157733
886.5599527
876.1824049
880.9709158
878.0530053
875.9967113
871.2674366
856.6947192
847.833445
820.4775791
799.2781373
764.9077961
847.2874067
851.269848
857.6803785
865.9073817
863.2436556
863.4674676
873.0826844
875.9748694
875.2835624
875.3532072
880.0308838
884.6620317
884.7499867
889.3957706
886.8789081
887.7054702
884.245389
886.1690001
885.1495278
883.6239833
876.0503418
876.2266846
878.2549695
875.4108641
868.2738013
855.177335
841.3027769
824.2433428
805.5506839
778.522244
814.0462217
820.1849514
829.9313122
829.6613804
839.1726195
842.0680968
844.7897262
847.6566071
851.2692477
856.6960504
860.3183556
866.6016587
865.7606145
866.8507406
872.2596933
871.5246158
875.8214112
877.7765994
878.0153992
878.8544284
875.6011606
864.0468682
868.6515876
866.3797601
857.6056693
843.3053141
832.442778
830.2644019
815.5122549
784.6518962
765.8669051
782.0017496
788.9524928
800.3066766
803.4138828
813.7639999
822.3494955
817.7169564
823.8205242
830.7105612
832.807403
835.4134417
839.4200356
846.8430181
850.2253034
850.6960318
858.8468825
860.137379
861.0477074
865.3321534
865.2263121
859.4951236
853.9740571
851.026641
849.7503243
845.0768558
836.9097222
822.3307607
809.5633492
787.1260458
714.8429971
737.125726
751.5320221
761.6341884
775.5272489
783.1500262
788.8385768
793.1074226
799.3808918
804.8732079
807.5769879
819.6004932
819.6596396
821.3455374
829.1978569
837.2946345
840.2940887
841.3878477
837.337283
849.3631406
843.5467165
845.9598618
842.5121956
839.5576907
837.6214715
836.4103583
831.7636224
825.7395035
809.2581225
790.017039
658.6382762
682.1596338
707.9570361
727.494167
741.6625528
750.0538393
755.7719057
769.8401583
775.7198059
781.5625983
786.3597734
795.8344115
794.6350493
802.9875899
806.31831
811.7224815
816.2709544
819.8070901
822.5823073
822.5378118
827.4398003
829.1548927
831.143525
832.7552739
835.0738502
828.1220435
819.0179355
810.49345
800.0847715
787.2978306
598.6388378
629.2161707
656.8946795
681.1352127
694.0492274
709.986432
720.1416751
733.4138628
743.1110423
754.9959389
763.9732157
767.9306555
777.0335751
783.5325883
786.5236773
788.7439803
793.872192
803.9194993
803.161973
803.802173
813.9080647
814.9174742
821.5660722
823.0455775
816.3779684
819.5547458
812.2385517
800.0936742
792.9215031
778.1401644
554.4833138
585.1487979
605.6545038
629.7362584
648.1774462
668.5301808
690.2332154
701.6897591
714.8698385
722.9399256
732.453984
745.2117508
753.0498519
762.536029
771.3732591
770.0559312
772.0699967
784.255932
792.1888424
790.2397611
794.6330117
800.478849
803.3917893
801.2973166
801.4003727
804.5609961
800.0034713
795.1034617
787.1436455
776.371277
497.6389474
526.0599103
557.2226878
582.7655799
606.0705134
633.3280114
646.7588337
663.5714267
684.3644435
700.9849883
706.8888548
721.5495811
728.4793475
738.0608359
750.0664921
752.2384999
756.4739123
763.4232162
767.0134
773.6571564
777.8266986
783.7883674
786.1819859
794.0434067
786.5062972
783.1331988
784.5728379
782.2704551
777.4111984
768.7957555
458.0972293
482.4410731
504.8919001
534.5090801
564.6596652
593.1360196
606.1334665
624.8831725
641.8212436
662.5958033
678.8137518
691.4290927
702.3352939
716.5823069
726.110148
729.645862
741.3468061
743.6559731
748.1556472
751.3699495
752.335667
760.9022414
765.2404953
768.4275733
772.6466886
768.6413224
773.2580477
774.3522908
767.9590433
758.0280483
421.0161306
437.9589321
462.6350565
480.5829721
510.7374841
536.4472673
555.9254584
582.9156591
605.3209299
623.7296412
645.285235
663.7778242
674.0024383
684.1465873
692.4262446
703.7424364
713.5794679
718.0063599
724.7424864
732.6227109
735.6322343
740.6657765
747.8213009
749.8237569
754.0837613
751.9699563
754.9412732
759.7128662
753.6604621
744.5020275
396.0233539
412.2321892
431.7872429
448.5019603
469.8409998
494.2697236
519.2520495
542.8067454
562.704515
580.1975111
597.7327703
619.7384648
632.6026916
646.4147585
669.345672
676.9827237
692.0553923
696.9828036
706.8738546
710.1514398
715.5762893
721.4353019
726.7672073
731.8537733
739.1952779
738.1212742
737.7447316
741.3353622
737.2897349
374.1006569
381.850837
394.9895578
414.9033321
436.9783795
456.1975693
478.3516566
494.9849984
514.7836181
540.1609719
564.1596213
583.2083305
600.593058
617.3300421
638.7022028
652.2332925
666.8959477
678.0577242
687.2213177
691.810681
695.7190196
705.2856388
710.4423822
716.211611
718.378203
358.9832238
365.3196261
379.8550014
393.5755183
405.9691571
421.1586026
439.4685958
464.0440366
479.6128523
504.8841329
528.3782214
543.8530257
564.0003036
586.6882087
604.4645902
620.217506
637.5623001
653.2579159
662.3555874
343.3487485
352.3283229
357.4316007
371.9352592
388.5975556
399.310022
412.7693736
426.3719585
450.4086836
464.5488069
488.82949
508.7008853
525.2689329
546.6298296
335.8111623
338.9053997
342.1929377
350.2063799
367.0917004
381.5577857
385.7895085
398.0264933
322.872201
)
;

boundaryField
{
    flow
    {
        type            calculated;
        value           nonuniform List<scalar> 
15
(
701.0955506
728.3320968
752.0266448
752.2042619
764.9077961
778.522244
784.6518962
787.1260458
790.017039
787.2978306
778.1401644
776.371277
768.7957555
758.0280483
744.5020275
)
;
    }
    obstacle
    {
        type            calculated;
        value           nonuniform List<scalar> 
30
(
729.9691762
732.6419825
714.0176642
718.4720223
711.9387164
712.8879313
700.0314652
710.8801328
681.3241788
679.5918308
693.81997
671.0679412
679.4248627
680.7086409
686.8103908
683.1635328
678.8978732
669.2991632
655.3086975
642.3436518
676.4944285
658.3442733
652.7424267
682.0821121
674.6955771
674.6903773
680.3220704
662.3799117
671.1320312
676.3793264
)
;
    }
    frontAndBack
    {
        type            empty;
    }
    procBoundary1to0
    {
        type            processor;
        value           nonuniform List<scalar> 
21
(
850.5708926
930.1754952
927.5131895
915.7013611
877.8382579
846.3671094
798.2415096
744.7326918
689.9310985
631.1258696
572.3951722
517.5832741
471.5075673
432.1223847
408.2988857
382.595013
360.6830943
345.5023949
334.6295391
324.9864135
321.0958053
)
;
    }
    procBoundary1to3
    {
        type            processor;
        value           nonuniform List<scalar> 
36
(
731.6334382
723.9718739
725.7362867
729.2513046
731.6334382
725.7946844
669.7890932
682.8260943
692.9708306
694.6999357
703.2913736
723.9718739
707.6502584
567.2959771
590.8140388
606.4123391
623.6908655
669.7890932
637.1103209
417.4232164
433.3556446
450.1811229
473.1878685
489.5642808
567.2959771
510.3022469
325.6543868
333.2526599
337.1763537
348.5331952
361.4569385
368.575493
417.4232164
377.4868035
325.6543868
317.2448551
)
;
    }
}


// ************************************************************************* //
