/*--------------------------------*- C++ -*----------------------------------*\
| =========                 |                                                 |
| \\      /  F ield         | OpenFOAM: The Open Source CFD Toolbox           |
|  \\    /   O peration     | Version:  2406                                  |
|   \\  /    A nd           | Website:  www.openfoam.com                      |
|    \\/     M anipulation  |                                                 |
\*---------------------------------------------------------------------------*/
FoamFile
{
    version     2.0;
    format      ascii;
    arch        "LSB;label=32;scalar=64";
    class       volScalarField;
    location    "0.009";
    object      p;
}
// * * * * * * * * * * * * * * * * * * * * * * * * * * * * * * * * * * * * * //

dimensions      [1 -1 -2 0 0 0 0];

internalField   nonuniform List<scalar> 
546
(
3.943087754
3.881151946
3.753517499
3.686263499
3.604031012
3.556957263
3.560145495
3.503746515
3.479650868
3.419134976
3.354744841
3.377211465
3.296578535
3.348900396
3.295222807
3.187945705
3.092242984
3.126235694
3.112762326
3.067879701
3.053594202
3.016178191
2.970504233
2.995817374
2.859700814
2.787881714
2.661563001
2.522356317
2.315182403
1.891131732
3.901634582
3.818047516
3.737556898
3.719700863
3.664842926
3.634919974
3.584859323
3.557843552
3.500941055
3.450143647
3.397136028
3.420473755
3.396783965
3.407040127
3.366378724
3.260746431
3.203005483
3.236978171
3.169875881
3.118229127
3.086169011
3.062413959
3.02760318
2.969605616
2.893365997
2.825348342
2.659086418
2.496428022
2.198391937
1.723303938
3.673221579
3.689998442
3.653168737
3.64061254
3.574439161
3.511137325
3.519700311
3.486624228
3.473583486
3.446793713
3.406724489
3.437158687
3.375481217
3.347136957
3.336143235
3.228804827
3.234206723
3.231339437
3.1310882
3.143277529
3.039838428
3.033517532
3.052802125
2.936696184
2.844760106
2.752597251
2.640597736
2.427320983
2.176624915
1.778200176
3.425636431
3.431465733
3.510334141
3.468673169
3.502981961
3.484038526
3.45989108
3.401875401
3.393736264
3.388285815
3.352812519
3.341787432
3.337321296
3.282372372
3.252222896
3.198331134
3.173324848
3.170190974
3.157645495
3.139220063
3.074393607
3.042642573
2.995718048
2.929943051
2.846699353
2.758224346
2.598131256
2.378600509
2.188166727
1.89436676
3.134445956
3.152974053
3.27659692
3.323786413
3.34235607
3.297513733
3.289745672
3.278043822
3.329586501
3.284550108
3.274996272
3.311966062
3.283646856
3.270238182
3.217501154
3.196198687
3.147296034
3.163537218
3.150673028
3.081153028
3.022948009
2.994596235
2.954015513
2.903772439
2.837145736
2.76147355
2.668271499
2.402230084
2.197036146
1.908150173
2.838296911
2.933874152
3.036139636
3.091016463
3.112802633
3.094179532
3.158521731
3.186936209
3.19306969
3.174301825
3.215999163
3.218587251
3.182025668
3.204819505
3.157309704
3.171661866
3.096749766
3.131504289
3.110048115
3.093068731
3.019145314
2.960191531
2.906614073
2.893168126
2.837625512
2.724019869
2.582478436
2.440343131
2.266469849
1.982036462
2.524860995
2.659636389
2.750523292
2.812966455
2.918276409
2.979543787
3.0068599
3.055128335
3.053923851
3.108619508
3.120198422
3.151561516
3.116023028
3.117054403
3.12637466
3.092634158
3.102656842
3.100056298
3.091750206
3.049949462
3.012290708
2.934343771
2.906076181
2.846001876
2.809740802
2.659980958
2.57693919
2.482154192
2.307156679
2.077563562
2.146793507
2.322425563
2.445119841
2.584769888
2.642702941
2.753149447
2.852198343
2.885571403
2.924250152
2.970004266
3.004635872
3.03952994
3.010550599
3.037864947
3.06070667
3.077935822
3.093037895
3.0509359
3.026056597
3.047495669
3.02298539
2.941694009
2.900248161
2.815785909
2.780263464
2.709967571
2.636820212
2.482994102
2.359094574
2.167538677
1.853355962
1.98932797
2.142746236
2.267948669
2.407899298
2.513664893
2.616211643
2.672780823
2.757699254
2.793476703
2.829248575
2.951563899
2.969937423
2.953614286
2.987239168
3.049187691
3.026715695
3.006201933
2.960423327
2.99224166
2.936708649
2.918831565
2.859555333
2.825224191
2.789260478
2.766298819
2.646566735
2.53910431
2.405739719
2.228744779
1.545614343
1.678461729
1.826584926
1.985836626
2.122881536
2.222958583
2.334277402
2.464707629
2.558390573
2.65684675
2.717335643
2.815623908
2.811946789
2.8748703
2.898372547
2.908982035
2.925388118
2.946628008
2.904264473
2.892699595
2.92315975
2.900927708
2.859961476
2.799923872
2.812204399
2.756737706
2.661317682
2.564385894
2.425943642
2.280761921
1.301864468
1.441133899
1.584240414
1.734299747
1.842623068
1.984214833
2.10166757
2.221530826
2.347584601
2.476948809
2.565477456
2.609327223
2.696388547
2.767465506
2.783733507
2.800483429
2.831731161
2.894347166
2.879355954
2.857737345
2.902433513
2.878094228
2.882355649
2.8532334
2.744702717
2.73435864
2.670916588
2.576292338
2.476551171
2.309714313
1.120418742
1.252925994
1.346143298
1.471605969
1.60115631
1.724995112
1.873146009
1.987484459
2.130515318
2.229078566
2.328765345
2.430459165
2.52953499
2.632086877
2.699182037
2.700088545
2.725617456
2.796511086
2.854014843
2.828149076
2.833126848
2.856313273
2.834695466
2.806733899
2.759932593
2.740623314
2.678769981
2.574607864
2.504883315
2.415058403
0.9391641084
1.037716559
1.15398501
1.255806367
1.366447225
1.512049902
1.618084068
1.71955183
1.851434884
1.973915542
2.080889887
2.23016255
2.337889828
2.431206169
2.544923881
2.592897834
2.643140364
2.708853601
2.737219664
2.778822186
2.790962228
2.832855765
2.81448558
2.84336999
2.77959268
2.73296388
2.682825061
2.642158872
2.557018646
2.44076207
0.8118494116
0.8862302696
0.9605613426
1.069893549
1.186725858
1.299562952
1.380999357
1.494051194
1.611437749
1.764097556
1.899790457
1.994298484
2.101518885
2.239787706
2.351132915
2.424126061
2.532518596
2.586567554
2.633575169
2.673073357
2.695833454
2.716832965
2.770139053
2.776690087
2.750863435
2.695783621
2.727102551
2.672913484
2.58163996
2.452732129
0.7182643652
0.7713509225
0.8425371359
0.8935585542
0.9941962264
1.092382708
1.174873117
1.29378194
1.412027385
1.521982778
1.648114735
1.767613822
1.89943908
2.01527228
2.122102246
2.250333706
2.336944555
2.411496453
2.484920258
2.568381252
2.61691431
2.677813445
2.711605278
2.719242455
2.746892571
2.692131216
2.688766872
2.67977946
2.603985772
2.505383795
0.6431738133
0.6797037864
0.7394429432
0.7814038526
0.8501924067
0.9320029158
1.031432637
1.126495432
1.218547515
1.305657188
1.423656983
1.560273648
1.643270532
1.768507202
1.92287981
2.017429721
2.140202725
2.229545119
2.323851659
2.406191284
2.467370098
2.519650213
2.583991906
2.616418537
2.667990954
2.646750482
2.63757518
2.622526207
2.570474147
0.590875733
0.6133610634
0.6458992538
0.705913578
0.7639255348
0.8239979806
0.8950936268
0.9718952649
1.047782118
1.152987506
1.259729937
1.356378312
1.443743879
1.542303898
1.682927488
1.796791117
1.94249457
2.061113018
2.189226561
2.232128253
2.324930543
2.441765215
2.478488548
2.557386334
2.546879835
0.5479686673
0.5672792029
0.6087393712
0.6412521736
0.6792682582
0.7241866137
0.7706704899
0.8374771815
0.9045345595
0.9943306248
1.072410747
1.154851595
1.265135745
1.38176242
1.496529313
1.610774352
1.723400626
1.845563005
1.948565289
0.5173229982
0.5385245383
0.5495480615
0.5858728187
0.6271722205
0.659822056
0.7025218513
0.7432110642
0.8087821976
0.8550181061
0.950914247
1.020595912
1.095274129
1.186437995
0.4945730705
0.5021722469
0.5128250079
0.5316988366
0.5757088887
0.6076958302
0.623288611
0.6600530166
0.466116931
)
;

boundaryField
{
    flow
    {
        type            calculated;
        value           nonuniform List<scalar> 
15
(
1.891131732
1.723303938
1.778200176
1.89436676
1.908150173
1.982036462
2.077563562
2.167538677
2.228744779
2.280761921
2.309714313
2.415058403
2.44076207
2.452732129
2.505383795
)
;
    }
    obstacle
    {
        type            calculated;
        value           nonuniform List<scalar> 
30
(
3.243031414
3.31902973
3.173602656
3.160622449
3.082122096
3.07913181
3.074374475
3.138422925
3.085633415
2.99910262
2.95324499
3.020315981
2.963819617
2.999596965
3.01220806
2.911197476
2.842297375
2.826221642
2.865140289
2.809467914
2.801318367
2.756456313
2.704897719
2.767448913
2.660439463
2.574775804
2.489166568
2.350236968
2.205252119
1.995984342
)
;
    }
    frontAndBack
    {
        type            empty;
    }
    procBoundary1to0
    {
        type            processor;
        value           nonuniform List<scalar> 
21
(
4.026974965
3.951205969
3.711008097
3.439260758
3.077771997
2.709643991
2.375744488
2.00520903
1.69286644
1.403881152
1.183126063
0.9987912961
0.8618050784
0.749518213
0.6717579956
0.6111866615
0.5572555884
0.5148102221
0.49387524
0.4683782556
0.4637426839
)
;
    }
    procBoundary1to3
    {
        type            processor;
        value           nonuniform List<scalar> 
36
(
2.508605678
2.587502534
2.61644205
2.597498478
2.508605678
2.562302743
2.057803607
2.167029278
2.289114666
2.342933486
2.437649731
2.587502534
2.514388064
1.291883215
1.432211566
1.518746695
1.648464445
2.057803607
1.751512491
0.7133511375
0.7648290495
0.8123922427
0.8926906996
0.9526178154
1.291883215
1.035971843
0.4748126856
0.4901701724
0.5009637963
0.5288032011
0.5656829565
0.5839855457
0.7133511375
0.6095450406
0.4748126856
0.4591639578
)
;
    }
}


// ************************************************************************* //
