/*--------------------------------*- C++ -*----------------------------------*\
| =========                 |                                                 |
| \\      /  F ield         | OpenFOAM: The Open Source CFD Toolbox           |
|  \\    /   O peration     | Version:  2406                                  |
|   \\  /    A nd           | Website:  www.openfoam.com                      |
|    \\/     M anipulation  |                                                 |
\*---------------------------------------------------------------------------*/
FoamFile
{
    version     2.0;
    format      ascii;
    arch        "LSB;label=32;scalar=64";
    class       volScalarField;
    location    "0.009";
    object      rhoM;
}
// * * * * * * * * * * * * * * * * * * * * * * * * * * * * * * * * * * * * * //

dimensions      [1 -3 0 0 0 0 0];

internalField   nonuniform List<scalar> 
546
(
1.378406247e-05
1.185888795e-05
1.368586969e-05
1.538838454e-05
1.320221564e-05
1.941070412e-05
1.379301577e-05
7.775432768e-06
1.369228156e-05
1.563400972e-05
1.270306287e-05
1.596406237e-05
1.233535146e-05
1.44931653e-05
1.602424926e-05
1.690908692e-05
1.266093625e-05
1.531992589e-05
1.682209331e-05
1.185869518e-05
1.580167536e-05
1.28561729e-05
1.6254918e-05
9.767481763e-06
1.319921417e-05
1.194953298e-05
1.086069735e-05
1.393361152e-05
1.368613019e-05
9.082522077e-06
1.408108735e-05
1.583618279e-05
1.368586969e-05
8.68489723e-06
1.066850144e-05
1.399825845e-05
1.496372904e-05
1.138730467e-05
1.606635708e-05
1.419723336e-05
1.897446483e-05
9.48112504e-06
1.347913068e-05
1.696341085e-05
1.361657448e-05
1.699251577e-05
1.460183252e-05
1.217111475e-05
1.356115227e-05
1.125271558e-05
9.341786656e-06
1.00391952e-05
1.732158599e-05
9.229445944e-06
1.500789252e-05
1.240630976e-05
6.719131478e-06
1.114733673e-05
1.031131328e-05
7.948631303e-06
1.408108734e-05
1.208330149e-05
9.149640582e-06
9.751527944e-06
7.59929369e-06
1.183253497e-05
1.013116355e-05
1.468608777e-05
1.20281409e-05
1.515508427e-05
1.254086725e-05
1.10215791e-05
1.887038939e-05
1.259944261e-05
1.037742571e-05
7.618238564e-06
1.367242861e-05
1.285177255e-05
9.870432771e-06
1.462769622e-05
1.291977741e-05
1.162321485e-05
1.474558817e-05
7.168774151e-06
1.139053581e-05
1.514257564e-05
1.334652378e-05
1.077478924e-05
1.162386753e-05
5.961473483e-06
1.43056507e-05
1.305937605e-05
1.406449591e-05
1.264588201e-05
1.181968546e-05
8.894137255e-06
1.55869831e-05
9.031571537e-06
1.385004486e-05
1.499608294e-05
9.085616732e-06
1.158890931e-05
1.257960366e-05
1.045948887e-05
8.883972384e-06
7.701667413e-06
9.790636077e-06
1.038361922e-05
1.158747922e-05
9.954485715e-06
1.143637416e-05
1.408913096e-05
1.341332307e-05
1.075424053e-05
9.674142511e-06
6.4770012e-06
1.021630596e-05
1.272562912e-05
1.143700498e-05
5.676291385e-06
1.586862066e-05
1.351001108e-05
1.308116056e-05
1.249403048e-05
1.28943704e-05
1.082675437e-05
6.624655543e-06
1.248689904e-05
7.993737716e-06
1.563400971e-05
8.763162188e-06
9.075331431e-06
1.021062782e-05
8.976151294e-06
1.071041531e-05
1.171835061e-05
5.992965152e-06
1.029879328e-05
1.167302143e-05
1.22921335e-05
1.676090599e-05
1.523432358e-05
1.074879288e-05
6.900835551e-06
1.039717831e-05
1.249722561e-05
1.233295843e-05
1.095994426e-05
1.153043626e-05
1.173206588e-05
1.125037759e-05
9.457911751e-06
1.247645146e-05
1.211256665e-05
1.151368915e-05
1.268415334e-05
1.418325353e-05
1.366476561e-05
9.259657126e-06
9.652245255e-06
1.39890077e-05
1.215623953e-05
1.274440625e-05
8.317551379e-06
1.095865754e-05
1.012916967e-05
1.460183252e-05
8.76577559e-06
1.364669448e-05
1.056046533e-05
1.248261641e-05
1.153544947e-05
7.727993493e-06
1.344226102e-05
1.392224985e-05
7.661105019e-06
7.455262073e-06
7.89593696e-06
1.143700494e-05
8.799619121e-06
5.737470465e-06
1.125864389e-05
9.149640576e-06
1.356066119e-05
1.281787133e-05
1.221980359e-05
1.433859772e-05
1.476435997e-05
1.74919463e-05
1.475758095e-05
8.763162195e-06
1.418130342e-05
1.053826523e-05
1.358833434e-05
9.465204213e-06
4.688146805e-06
1.32518206e-05
1.608540963e-05
1.184410587e-05
1.696534415e-05
1.44052838e-05
1.135991871e-05
9.682124927e-06
1.030551765e-05
8.95110684e-06
1.058140013e-05
8.652305713e-06
9.381651853e-06
1.584182423e-05
1.561208071e-05
1.229355402e-05
1.313418057e-05
1.406449593e-05
8.075656122e-06
1.005465989e-05
1.569963217e-05
7.638147353e-06
1.201537406e-05
1.606635709e-05
1.379973005e-05
8.200319228e-06
1.296587466e-05
1.061968262e-05
1.021127408e-05
1.004643608e-05
1.19706536e-05
1.358830699e-05
1.540475176e-05
6.866118308e-06
9.781944383e-06
1.178652348e-05
6.428086377e-06
8.526924501e-06
1.406960968e-05
1.356182089e-05
1.194953287e-05
8.468827237e-06
1.532674881e-05
1.153043622e-05
1.362492262e-05
3.725373787e-06
6.380079007e-06
1.096376793e-05
5.866468931e-06
1.066850145e-05
9.589730381e-06
1.028650775e-05
1.358649341e-05
1.100077294e-05
1.220395236e-05
8.200319215e-06
1.102157911e-05
9.557320815e-06
1.128224283e-05
1.286984784e-05
9.876866648e-06
1.046564202e-05
1.489374599e-05
1.596460381e-05
1.298438372e-05
8.730602426e-06
1.77880052e-05
1.154772401e-05
8.423471509e-06
1.68165708e-05
1.760609388e-05
1.325478469e-05
1.207534917e-05
8.718465166e-06
6.906762337e-06
7.972335793e-06
5.553613454e-06
5.368842525e-06
1.17311028e-05
9.517317416e-06
7.269844653e-06
5.298598064e-06
1.07592353e-05
1.393083301e-05
1.443765677e-05
1.262293344e-05
1.102157909e-05
8.087871934e-06
8.976151294e-06
8.468235348e-06
1.155149293e-05
1.105652646e-05
8.426471806e-06
9.098485477e-06
1.307065447e-05
1.510347954e-05
9.598246946e-06
1.287998911e-05
1.084355338e-05
1.202346438e-05
1.578118417e-05
9.296697033e-06
9.566806834e-06
1.209328206e-05
1.494969449e-05
7.450747569e-06
5.254395398e-06
7.10760889e-06
5.409079318e-06
1.143719007e-05
9.743892647e-06
1.059907346e-05
1.209364631e-05
1.226669237e-05
9.811246568e-06
7.074633288e-06
9.561893335e-06
1.249818631e-05
1.44931653e-05
9.049467256e-06
1.322611914e-05
1.198593018e-05
1.038361917e-05
1.098661633e-05
1.333155139e-05
9.254775051e-06
1.144768411e-05
9.770657299e-06
1.227687649e-05
1.039717824e-05
1.176770122e-05
1.178252356e-05
1.569705891e-05
1.481182197e-05
1.38135248e-05
4.917062682e-06
4.803760404e-06
7.636957116e-06
3.885059022e-06
7.138450286e-06
9.281405836e-06
7.325581637e-06
8.403502063e-06
7.518541266e-06
5.743262497e-06
1.302358088e-05
9.400356804e-06
1.012921045e-05
7.823105532e-06
8.883972356e-06
1.096547458e-05
1.316769909e-05
1.038361925e-05
9.269569877e-06
1.68790733e-05
1.362007615e-05
1.400136539e-05
1.572158378e-05
1.02162047e-05
1.211574955e-05
1.094726102e-05
8.652305713e-06
1.29107841e-05
1.031131325e-05
1.447591049e-05
5.88598288e-06
7.129932035e-06
8.317027142e-06
5.179467009e-06
8.903475858e-06
8.506868671e-06
9.507909578e-06
6.047769044e-06
5.856307156e-06
7.897466239e-06
7.4772173e-06
1.029271218e-05
1.061968258e-05
1.25173656e-05
4.068622846e-06
9.71000895e-06
8.608867354e-06
1.123392896e-05
8.238928507e-06
1.514740525e-05
1.492945645e-05
9.510481626e-06
9.505060182e-06
1.236618935e-05
1.600124996e-05
9.213267009e-06
1.555491541e-05
1.161022419e-05
9.561604851e-06
7.474847246e-06
2.160609106e-06
4.278320845e-06
7.182969868e-06
9.21821254e-06
4.604736087e-06
5.64555203e-06
5.065581741e-06
6.282585601e-06
9.10189384e-06
8.056467566e-06
5.225845497e-06
1.004845525e-05
8.741178945e-06
1.259944252e-05
9.713446433e-06
7.282506772e-06
9.958879262e-06
1.310625034e-05
1.69931777e-05
1.116644489e-05
9.428798181e-06
1.135991861e-05
9.505060182e-06
1.290422517e-05
1.428485667e-05
1.158367209e-05
1.50962196e-05
9.474229258e-06
7.968756762e-06
8.893920168e-06
6.407571149e-06
5.929444024e-06
3.251449917e-06
4.342448624e-06
6.293262626e-06
5.568470946e-06
5.611163733e-06
7.931977206e-06
7.835974428e-06
7.498041454e-06
9.245875694e-06
1.150618899e-05
5.228423928e-06
7.823105532e-06
7.388519151e-06
9.123990677e-06
1.282917943e-05
1.225594075e-05
1.347561019e-05
8.828797175e-06
9.778947677e-06
1.549761989e-05
1.074879291e-05
1.550293278e-05
1.347171377e-05
1.295400251e-05
1.334652385e-05
1.244789665e-05
6.749633856e-06
9.650607078e-06
7.077671757e-06
3.377050759e-06
5.898190669e-06
7.312728443e-06
3.837896379e-06
2.242804603e-06
5.065581817e-06
5.654516261e-06
7.835974488e-06
7.098616724e-06
1.06920794e-05
1.045424879e-05
5.228423887e-06
1.177668868e-05
9.547951605e-06
1.222094014e-05
7.765618262e-06
8.765775619e-06
7.381439022e-06
1.047419472e-05
6.897049794e-06
8.806237197e-06
1.074879291e-05
1.039483043e-05
1.256628556e-05
1.304491817e-05
1.353000206e-05
1.133249172e-05
1.021788197e-05
5.811726664e-06
5.929443981e-06
8.695653434e-06
3.809133266e-06
4.451737929e-06
7.03860125e-06
5.143253838e-06
5.654516176e-06
5.698543813e-06
7.339040183e-06
7.959930905e-06
7.131035906e-06
5.391258734e-06
6.58798275e-06
5.231086517e-06
9.793437799e-06
1.215417348e-05
8.850601572e-06
9.955974963e-06
1.809103252e-05
1.178652348e-05
1.602633324e-05
1.145919154e-05
1.218756373e-05
1.103010696e-05
7.003415591e-06
4.278320845e-06
5.368842475e-06
4.875763947e-06
3.300553908e-06
7.26984468e-06
3.896745803e-06
4.005124704e-06
4.590387745e-06
2.313205114e-06
5.708558978e-06
8.913794812e-06
6.044565751e-06
7.000351589e-06
7.887003576e-06
8.118811737e-06
6.161208339e-06
6.893454069e-06
1.192964802e-05
4.246962027e-06
6.529688034e-06
4.385507199e-06
3.885059022e-06
4.989080401e-06
6.186982895e-06
4.519999791e-06
6.832382783e-06
5.777425506e-06
1.834279665e-06
4.663002582e-06
5.915607107e-06
8.413541543e-06
3.623291326e-06
9.089768431e-06
8.106006601e-06
6.57826075e-06
3.351743664e-06
5.602921992e-06
2.242804603e-06
4.597671923e-06
4.476649688e-06
5.811726706e-06
)
;

boundaryField
{
    flow
    {
        type            zeroGradient;
    }
    obstacle
    {
        type            calculated;
        value           nonuniform List<scalar> 
30
(
7.116803835e-24
1.319478192e-23
1.523324371e-23
2.214815276e-24
5.586156971e-24
2.341769569e-24
1e-300
1e-300
1e-300
4.108156336e-24
1.921895154e-24
1e-300
2.391492127e-24
9.62976178e-24
8.43684645e-24
3.16531248e-24
1e-300
1e-300
1.926097282e-24
5.225726219e-24
7.135120238e-24
2.811683416e-24
2.262682995e-24
1.115958713e-23
4.973834639e-24
1e-300
4.496755825e-24
1.179085277e-23
6.725154566e-24
5.19110638e-24
)
;
    }
    frontAndBack
    {
        type            empty;
    }
    procBoundary1to0
    {
        type            processor;
        value           nonuniform List<scalar> 
21
(
1.885991241e-05
1.213038565e-05
1.75294629e-05
9.911782035e-06
1.176002451e-05
1.013292974e-05
5.472793145e-06
3.254189527e-06
7.988042017e-06
7.470249063e-06
5.325361345e-06
4.142343653e-06
7.470249063e-06
5.916870157e-06
7.617680863e-06
7.396533163e-06
3.180473627e-06
6.360947254e-06
4.216059566e-06
6.064302e-06
5.251645445e-06
)
;
    }
    procBoundary1to3
    {
        type            processor;
        value           nonuniform List<scalar> 
36
(
1.097537897e-05
1.496074401e-05
8.468827387e-06
1.003193181e-05
1.097537897e-05
1.406211343e-05
1.384917526e-05
1.056415512e-05
6.956800112e-06
1.456852345e-05
8.334158643e-06
1.496074401e-05
1.157292805e-05
4.316865088e-06
7.951953909e-06
6.077086738e-06
7.574111926e-06
1.384917526e-05
9.098485477e-06
6.648936667e-06
6.780614014e-06
6.029076856e-06
5.673302201e-06
2.859448069e-06
4.316865088e-06
9.965043013e-06
4.427929899e-06
6.502899834e-06
6.094246213e-06
5.67942103e-06
5.645552072e-06
5.688835873e-06
6.648936667e-06
4.948174672e-06
4.427929899e-06
3.79962999e-06
)
;
    }
}


// ************************************************************************* //
