/*--------------------------------*- C++ -*----------------------------------*\
| =========                 |                                                 |
| \\      /  F ield         | OpenFOAM: The Open Source CFD Toolbox           |
|  \\    /   O peration     | Version:  2406                                  |
|   \\  /    A nd           | Website:  www.openfoam.com                      |
|    \\/     M anipulation  |                                                 |
\*---------------------------------------------------------------------------*/
FoamFile
{
    version     2.0;
    format      ascii;
    arch        "LSB;label=32;scalar=64";
    class       volScalarField;
    location    "0.009";
    object      rhoMMean;
}
// * * * * * * * * * * * * * * * * * * * * * * * * * * * * * * * * * * * * * //

dimensions      [1 -3 0 0 0 0 0];

internalField   nonuniform List<scalar> 
546
(
1.466876664e-05
1.477584675e-05
1.452037626e-05
1.455648267e-05
1.440306957e-05
1.433994828e-05
1.448019763e-05
1.449750116e-05
1.463442837e-05
1.443655092e-05
1.430858599e-05
1.452533446e-05
1.426550697e-05
1.44612129e-05
1.444102751e-05
1.417822673e-05
1.370103515e-05
1.405893187e-05
1.40855138e-05
1.386901646e-05
1.373076144e-05
1.387491295e-05
1.357319476e-05
1.349630145e-05
1.300327347e-05
1.278044359e-05
1.218154562e-05
1.177360812e-05
1.087826113e-05
9.015362505e-06
1.326301322e-05
1.322405029e-05
1.303805409e-05
1.306877021e-05
1.303727289e-05
1.319577873e-05
1.313916037e-05
1.31494352e-05
1.30786678e-05
1.301327078e-05
1.307404827e-05
1.321258558e-05
1.31622296e-05
1.325391546e-05
1.311370725e-05
1.30054611e-05
1.283364577e-05
1.298884298e-05
1.287892604e-05
1.270325933e-05
1.268249436e-05
1.257960247e-05
1.25054924e-05
1.232555481e-05
1.20895327e-05
1.192859395e-05
1.139893112e-05
1.076818016e-05
9.784704223e-06
8.230142574e-06
1.235698782e-05
1.252437535e-05
1.252992666e-05
1.246696401e-05
1.235627995e-05
1.236782879e-05
1.240058152e-05
1.235592177e-05
1.25533479e-05
1.241120449e-05
1.242420289e-05
1.259205087e-05
1.246015742e-05
1.242273544e-05
1.24354809e-05
1.218779032e-05
1.234065507e-05
1.239103135e-05
1.21250642e-05
1.212553334e-05
1.185730088e-05
1.185733511e-05
1.211463568e-05
1.162202132e-05
1.136354023e-05
1.11571585e-05
1.089562413e-05
1.032345697e-05
9.501151607e-06
8.337867903e-06
1.158127005e-05
1.1744337e-05
1.204765687e-05
1.207902337e-05
1.215873112e-05
1.214897413e-05
1.225014301e-05
1.213407807e-05
1.213745736e-05
1.210075469e-05
1.206019416e-05
1.204217007e-05
1.211388043e-05
1.206680585e-05
1.198164564e-05
1.188995572e-05
1.189394317e-05
1.191065477e-05
1.189558189e-05
1.188494099e-05
1.16968418e-05
1.164122706e-05
1.149277685e-05
1.1356537e-05
1.116391363e-05
1.098324255e-05
1.060310543e-05
9.951078376e-06
9.573440392e-06
8.782372744e-06
1.084381768e-05
1.104373171e-05
1.143904663e-05
1.16979987e-05
1.186640372e-05
1.180476564e-05
1.186210369e-05
1.18860121e-05
1.201372512e-05
1.194325728e-05
1.189063735e-05
1.201901748e-05
1.200309686e-05
1.196150094e-05
1.194719022e-05
1.183133069e-05
1.164436893e-05
1.170287722e-05
1.168259991e-05
1.156500749e-05
1.152458276e-05
1.135403461e-05
1.122772894e-05
1.111647619e-05
1.09266771e-05
1.084196347e-05
1.066751299e-05
1.001675198e-05
9.506348453e-06
8.800475666e-06
1.007408818e-05
1.047470373e-05
1.088769375e-05
1.110603289e-05
1.130892487e-05
1.142328e-05
1.158703209e-05
1.172231742e-05
1.177989295e-05
1.183536183e-05
1.195269865e-05
1.189080007e-05
1.177827204e-05
1.184266012e-05
1.179883868e-05
1.180992468e-05
1.166332365e-05
1.172602668e-05
1.168967272e-05
1.161772551e-05
1.146236484e-05
1.128419124e-05
1.116478704e-05
1.118746484e-05
1.097430547e-05
1.072573478e-05
1.045453232e-05
1.014616541e-05
9.722147642e-06
8.970181427e-06
9.189523695e-06
9.686285716e-06
1.004805426e-05
1.042045551e-05
1.085437037e-05
1.112378549e-05
1.128540884e-05
1.148064145e-05
1.152883996e-05
1.167107738e-05
1.176133637e-05
1.18745434e-05
1.183901299e-05
1.187500527e-05
1.182233705e-05
1.174952269e-05
1.174035797e-05
1.17498279e-05
1.170850089e-05
1.158057893e-05
1.148540672e-05
1.134325672e-05
1.123242181e-05
1.110039906e-05
1.108682843e-05
1.076019349e-05
1.052452982e-05
1.02409596e-05
9.826651763e-06
9.303238299e-06
8.223748995e-06
8.782859665e-06
9.273688276e-06
9.75762755e-06
1.007965611e-05
1.047548509e-05
1.085533679e-05
1.110770034e-05
1.127317636e-05
1.143336752e-05
1.159637804e-05
1.174916463e-05
1.168356024e-05
1.177547766e-05
1.187625085e-05
1.190751563e-05
1.191062086e-05
1.180363226e-05
1.17182193e-05
1.176137948e-05
1.171193628e-05
1.144976625e-05
1.135380521e-05
1.117213935e-05
1.109185192e-05
1.092219752e-05
1.076351037e-05
1.041963263e-05
1.015847429e-05
9.703953037e-06
7.519382303e-06
7.91324379e-06
8.427656238e-06
8.874390382e-06
9.359684843e-06
9.756677542e-06
1.019152544e-05
1.046825114e-05
1.078539447e-05
1.099251143e-05
1.121194669e-05
1.154630937e-05
1.169773809e-05
1.172996111e-05
1.18066009e-05
1.191732243e-05
1.191219022e-05
1.184805257e-05
1.179237745e-05
1.177489487e-05
1.170569806e-05
1.164910379e-05
1.147561087e-05
1.138939393e-05
1.124854966e-05
1.118844205e-05
1.089327925e-05
1.058227457e-05
1.027937945e-05
9.905404998e-06
6.770165046e-06
7.131404814e-06
7.538246864e-06
8.012716901e-06
8.511696888e-06
8.938465242e-06
9.416938701e-06
9.844555399e-06
1.022740114e-05
1.058664564e-05
1.087353776e-05
1.119755573e-05
1.132358109e-05
1.151416619e-05
1.165926379e-05
1.17389083e-05
1.179059369e-05
1.189586292e-05
1.17735777e-05
1.175901196e-05
1.180720441e-05
1.175732265e-05
1.164022308e-05
1.142434749e-05
1.141728067e-05
1.128265733e-05
1.108968892e-05
1.085552938e-05
1.045721929e-05
1.006185645e-05
6.344748867e-06
6.670951068e-06
7.021939792e-06
7.424569521e-06
7.770011484e-06
8.220325485e-06
8.691444132e-06
9.157068848e-06
9.616882556e-06
1.009521595e-05
1.044231819e-05
1.06689944e-05
1.098095412e-05
1.124177683e-05
1.137214391e-05
1.148556891e-05
1.164793806e-05
1.178983545e-05
1.180537045e-05
1.179672867e-05
1.184662146e-05
1.180922825e-05
1.174250189e-05
1.171046124e-05
1.139346116e-05
1.130262031e-05
1.116082822e-05
1.105277935e-05
1.080985665e-05
1.035592712e-05
5.928475122e-06
6.223929702e-06
6.478085915e-06
6.818791816e-06
7.21087075e-06
7.56156623e-06
8.008159592e-06
8.42774159e-06
8.922077715e-06
9.322899708e-06
9.753725592e-06
1.011398594e-05
1.04799475e-05
1.08548522e-05
1.107879482e-05
1.126066355e-05
1.139471693e-05
1.161015943e-05
1.179096783e-05
1.178790682e-05
1.180651085e-05
1.185459725e-05
1.175325247e-05
1.169293517e-05
1.1595112e-05
1.150692924e-05
1.13347868e-05
1.106498143e-05
1.096398115e-05
1.081024835e-05
5.594704237e-06
5.803976259e-06
6.082947266e-06
6.319544107e-06
6.617085414e-06
6.975001637e-06
7.33213358e-06
7.672788125e-06
8.059788334e-06
8.445987193e-06
8.865974464e-06
9.437692055e-06
9.921720075e-06
1.028585324e-05
1.067530482e-05
1.091075643e-05
1.116331161e-05
1.140465812e-05
1.157031829e-05
1.173465109e-05
1.174211084e-05
1.189166279e-05
1.18688432e-05
1.189821931e-05
1.17964472e-05
1.170714613e-05
1.156214154e-05
1.142330138e-05
1.119084924e-05
1.094233447e-05
5.353667912e-06
5.500523703e-06
5.651188598e-06
5.938878624e-06
6.176752146e-06
6.444984832e-06
6.721771479e-06
7.051877688e-06
7.415691567e-06
7.890658538e-06
8.351252769e-06
8.676963659e-06
9.085252605e-06
9.591382712e-06
1.002709102e-05
1.040142958e-05
1.07595543e-05
1.108554495e-05
1.130760696e-05
1.152341863e-05
1.165255043e-05
1.168231649e-05
1.193429059e-05
1.199236035e-05
1.188105194e-05
1.179497214e-05
1.184774449e-05
1.16709323e-05
1.148593859e-05
1.1144358e-05
5.254753286e-06
5.373856528e-06
5.501817239e-06
5.572993288e-06
5.781271674e-06
6.02597219e-06
6.248225531e-06
6.533109979e-06
6.898349006e-06
7.233432181e-06
7.621062426e-06
7.971641982e-06
8.467302786e-06
8.933859063e-06
9.379805935e-06
9.876745239e-06
1.023380046e-05
1.05658209e-05
1.091262262e-05
1.12570013e-05
1.150811063e-05
1.175580584e-05
1.186049417e-05
1.192087522e-05
1.203574952e-05
1.194685682e-05
1.193546651e-05
1.185288605e-05
1.166802156e-05
1.147683301e-05
5.106188372e-06
5.130569833e-06
5.266361318e-06
5.337530619e-06
5.477642447e-06
5.664295645e-06
5.916527183e-06
6.168334982e-06
6.419614811e-06
6.701573593e-06
7.068396208e-06
7.479337288e-06
7.801945331e-06
8.228419605e-06
8.689880421e-06
9.097025263e-06
9.541879615e-06
9.940794518e-06
1.027485038e-05
1.067743504e-05
1.09886786e-05
1.121834272e-05
1.146140112e-05
1.165591684e-05
1.183010339e-05
1.187396478e-05
1.190908654e-05
1.184691516e-05
1.173544045e-05
5.043003187e-06
5.08621308e-06
5.139204061e-06
5.284103558e-06
5.376431778e-06
5.52049172e-06
5.676918661e-06
5.863353185e-06
6.038796882e-06
6.309067311e-06
6.581630091e-06
6.846461547e-06
7.149889618e-06
7.477893385e-06
7.896009454e-06
8.329461299e-06
8.843760955e-06
9.321400989e-06
9.84189044e-06
1.007115984e-05
1.049573581e-05
1.095971749e-05
1.119357309e-05
1.146485785e-05
1.149953547e-05
4.969839937e-06
5.035945152e-06
5.116807943e-06
5.158261078e-06
5.240713527e-06
5.312641664e-06
5.392800313e-06
5.501105426e-06
5.703773982e-06
5.896904864e-06
6.084507997e-06
6.348818674e-06
6.673606993e-06
7.022368178e-06
7.370701763e-06
7.738317817e-06
8.110389802e-06
8.56276469e-06
8.975829162e-06
4.946150533e-06
4.980567465e-06
5.01790018e-06
5.074429294e-06
5.124340735e-06
5.207010468e-06
5.316848185e-06
5.395569707e-06
5.519736923e-06
5.617405403e-06
5.857527857e-06
6.036964911e-06
6.257070481e-06
6.510021152e-06
4.909107838e-06
4.936120442e-06
4.952892902e-06
4.990600887e-06
5.068845275e-06
5.076070969e-06
5.140520622e-06
5.239393663e-06
4.85006279e-06
)
;

boundaryField
{
    flow
    {
        type            calculated;
        value           nonuniform List<scalar> 
15
(
9.015362505e-06
8.230142574e-06
8.337867903e-06
8.782372744e-06
8.800475666e-06
8.970181427e-06
9.303238299e-06
9.703953037e-06
9.905404998e-06
1.006185645e-05
1.035592712e-05
1.081024835e-05
1.094233447e-05
1.1144358e-05
1.147683301e-05
)
;
    }
    obstacle
    {
        type            calculated;
        value           nonuniform List<scalar> 
30
(
6.416671289e-24
6.56844791e-24
6.449247361e-24
6.593392357e-24
6.35406196e-24
6.184147841e-24
6.479374169e-24
6.203488518e-24
6.627845402e-24
6.243407008e-24
6.162163201e-24
6.500418179e-24
6.116217198e-24
6.259145234e-24
6.367228135e-24
5.990239485e-24
5.984327487e-24
6.03984645e-24
6.174414173e-24
6.275058909e-24
5.837417827e-24
5.71968991e-24
5.912967804e-24
5.966885965e-24
5.687196505e-24
5.338687288e-24
5.246466669e-24
5.244622889e-24
4.718911856e-24
4.170923753e-24
)
;
    }
    frontAndBack
    {
        type            empty;
    }
    procBoundary1to0
    {
        type            processor;
        value           nonuniform List<scalar> 
21
(
1.47833041e-05
1.31489636e-05
1.232313677e-05
1.139341739e-05
1.052053779e-05
9.502729121e-06
8.691019656e-06
7.76403991e-06
7.048774407e-06
6.401977984e-06
6.040505201e-06
5.697644878e-06
5.454819679e-06
5.282592673e-06
5.136115877e-06
5.070073012e-06
4.99852484e-06
4.919641551e-06
4.913660428e-06
4.873981443e-06
4.870312425e-06
)
;
    }
    procBoundary1to3
    {
        type            processor;
        value           nonuniform List<scalar> 
36
(
1.158043967e-05
1.16471114e-05
1.184761488e-05
1.184970441e-05
1.158043967e-05
1.183543437e-05
9.444899364e-06
9.838855999e-06
1.030703735e-05
1.064838489e-05
1.103349694e-05
1.16471114e-05
1.139707755e-05
6.824090732e-06
7.22847809e-06
7.53532878e-06
7.931165292e-06
9.444899364e-06
8.348434124e-06
5.335066268e-06
5.441807411e-06
5.523541566e-06
5.692189349e-06
5.861942116e-06
6.824090732e-06
6.095677009e-06
4.878936269e-06
4.898659151e-06
4.909532721e-06
4.9575522e-06
5.044728215e-06
5.082768183e-06
5.335066268e-06
5.146039651e-06
4.878936269e-06
4.892369106e-06
)
;
    }
}


// ************************************************************************* //
