/*--------------------------------*- C++ -*----------------------------------*\
| =========                 |                                                 |
| \\      /  F ield         | OpenFOAM: The Open Source CFD Toolbox           |
|  \\    /   O peration     | Version:  2406                                  |
|   \\  /    A nd           | Website:  www.openfoam.com                      |
|    \\/     M anipulation  |                                                 |
\*---------------------------------------------------------------------------*/
FoamFile
{
    version     2.0;
    format      ascii;
    arch        "LSB;label=32;scalar=64";
    class       volScalarField;
    location    "0.009";
    object      rhoNMean;
}
// * * * * * * * * * * * * * * * * * * * * * * * * * * * * * * * * * * * * * //

dimensions      [0 -3 0 0 0 0 0];

internalField   nonuniform List<scalar> 
546
(
3.054550258e+20
3.081172448e+20
3.026581286e+20
3.031550546e+20
3.000027317e+20
2.988931261e+20
3.015992684e+20
3.020692138e+20
3.048316356e+20
3.003838782e+20
2.97759389e+20
3.023131258e+20
2.971858191e+20
3.01340313e+20
3.010183712e+20
2.952104201e+20
2.856661122e+20
2.929499453e+20
2.932325742e+20
2.887300987e+20
2.860605068e+20
2.893989705e+20
2.828221462e+20
2.809382844e+20
2.706786557e+20
2.660182207e+20
2.535037301e+20
2.452915035e+20
2.264085514e+20
1.875636408e+20
2.762635341e+20
2.752750763e+20
2.715372635e+20
2.723234375e+20
2.716397802e+20
2.748398822e+20
2.737504711e+20
2.740683125e+20
2.722674687e+20
2.710841872e+20
2.723245361e+20
2.750866977e+20
2.740095994e+20
2.761523932e+20
2.732275728e+20
2.712431797e+20
2.675428348e+20
2.706827765e+20
2.684859248e+20
2.646994236e+20
2.643704039e+20
2.619085727e+20
2.605538327e+20
2.569116542e+20
2.516983616e+20
2.484149042e+20
2.374624649e+20
2.242339315e+20
2.037266104e+20
1.715397572e+20
2.573866516e+20
2.607084107e+20
2.610059547e+20
2.597634467e+20
2.576265051e+20
2.577366178e+20
2.58302093e+20
2.572814346e+20
2.612918247e+20
2.582824189e+20
2.587759578e+20
2.621811214e+20
2.595299284e+20
2.588553292e+20
2.590280167e+20
2.537844538e+20
2.571398816e+20
2.582194265e+20
2.526409482e+20
2.527159415e+20
2.472426408e+20
2.469333616e+20
2.523395502e+20
2.422360421e+20
2.367530813e+20
2.323527931e+20
2.269797487e+20
2.149668593e+20
1.978930359e+20
1.737144725e+20
2.413738308e+20
2.446451525e+20
2.510008318e+20
2.515770243e+20
2.530940821e+20
2.530532731e+20
2.551967737e+20
2.52588781e+20
2.527999329e+20
2.520456598e+20
2.512740751e+20
2.508995869e+20
2.524076138e+20
2.512868307e+20
2.495310913e+20
2.475671982e+20
2.476292555e+20
2.482191329e+20
2.480005923e+20
2.473671036e+20
2.435565505e+20
2.424817498e+20
2.393821434e+20
2.366116398e+20
2.3256683e+20
2.286661068e+20
2.209069181e+20
2.073095607e+20
1.9941102e+20
1.829578025e+20
2.259717107e+20
2.299780444e+20
2.381573402e+20
2.436964453e+20
2.472571433e+20
2.459972065e+20
2.471714391e+20
2.47617616e+20
2.502129114e+20
2.487471427e+20
2.475836544e+20
2.502326185e+20
2.499096111e+20
2.490633948e+20
2.487533378e+20
2.463937612e+20
2.425209652e+20
2.437941742e+20
2.43242505e+20
2.408743612e+20
2.400807592e+20
2.364804698e+20
2.339614301e+20
2.316018448e+20
2.275971693e+20
2.257881717e+20
2.220956152e+20
2.084997987e+20
1.978020825e+20
1.832015489e+20
2.100511184e+20
2.183518317e+20
2.26882288e+20
2.313709351e+20
2.356474646e+20
2.380588079e+20
2.413988301e+20
2.442386952e+20
2.455525655e+20
2.46622855e+20
2.491760224e+20
2.476948829e+20
2.452470364e+20
2.465975021e+20
2.456839891e+20
2.459764769e+20
2.429840715e+20
2.443921413e+20
2.436071865e+20
2.41934283e+20
2.389036641e+20
2.350074024e+20
2.323298682e+20
2.328100719e+20
2.285469382e+20
2.232764645e+20
2.174886421e+20
2.111382102e+20
2.024344417e+20
1.86775424e+20
1.915406562e+20
2.019671576e+20
2.095004422e+20
2.172307503e+20
2.262102669e+20
2.316884242e+20
2.350552177e+20
2.391992161e+20
2.401905198e+20
2.433056573e+20
2.4508751e+20
2.474996729e+20
2.467392792e+20
2.474378345e+20
2.463617457e+20
2.447050199e+20
2.446049442e+20
2.448221084e+20
2.43900081e+20
2.411407916e+20
2.392249573e+20
2.362830802e+20
2.340268122e+20
2.312240881e+20
2.308548254e+20
2.241065812e+20
2.193394389e+20
2.132918255e+20
2.046800561e+20
1.937585739e+20
1.714398799e+20
1.831392214e+20
1.933379317e+20
2.033352413e+20
2.100630293e+20
2.183266606e+20
2.262529014e+20
2.314797221e+20
2.348258264e+20
2.382084345e+20
2.416472413e+20
2.448670434e+20
2.435744132e+20
2.452998094e+20
2.475061551e+20
2.481637192e+20
2.481149522e+20
2.458016348e+20
2.441671292e+20
2.450735023e+20
2.439975941e+20
2.384867862e+20
2.365826289e+20
2.327890849e+20
2.310907517e+20
2.27466711e+20
2.241188637e+20
2.170117046e+20
2.114043465e+20
2.020015954e+20
1.568653216e+20
1.650294485e+20
1.757764744e+20
1.850840045e+20
1.951073183e+20
2.034434572e+20
2.123923821e+20
2.182162756e+20
2.248855202e+20
2.291641997e+20
2.337096087e+20
2.405968163e+20
2.437575276e+20
2.444429466e+20
2.459284263e+20
2.482757396e+20
2.481093045e+20
2.468010967e+20
2.456086268e+20
2.45310971e+20
2.439216546e+20
2.427086036e+20
2.389482492e+20
2.372922043e+20
2.344149498e+20
2.332897242e+20
2.269766704e+20
2.204425743e+20
2.141611809e+20
2.062180755e+20
1.410544059e+20
1.487251285e+20
1.571499967e+20
1.671539039e+20
1.775502788e+20
1.863919425e+20
1.963886445e+20
2.05136752e+20
2.131499218e+20
2.206243492e+20
2.265036064e+20
2.334418126e+20
2.359628827e+20
2.398500495e+20
2.428785206e+20
2.445285849e+20
2.456921165e+20
2.479002178e+20
2.452554314e+20
2.448939548e+20
2.459311874e+20
2.448681194e+20
2.425204516e+20
2.379277977e+20
2.378571152e+20
2.350964446e+20
2.310939983e+20
2.261451488e+20
2.177209158e+20
2.094659015e+20
1.323251253e+20
1.391228304e+20
1.464694326e+20
1.548615262e+20
1.620296198e+20
1.71400065e+20
1.812687902e+20
1.909221635e+20
2.004901986e+20
2.104058856e+20
2.176110892e+20
2.223636225e+20
2.288105064e+20
2.343589618e+20
2.3698704e+20
2.393531396e+20
2.427468682e+20
2.456934311e+20
2.460249953e+20
2.458959549e+20
2.468424872e+20
2.460082763e+20
2.446988413e+20
2.439749294e+20
2.374124752e+20
2.354870869e+20
2.325629356e+20
2.301198588e+20
2.251602934e+20
2.156101879e+20
1.237030293e+20
1.298369273e+20
1.351716137e+20
1.422607568e+20
1.504456202e+20
1.577614399e+20
1.670641024e+20
1.757853313e+20
1.860431249e+20
1.944336994e+20
2.033927514e+20
2.108923019e+20
2.186326478e+20
2.262945294e+20
2.310094471e+20
2.348358273e+20
2.376272863e+20
2.41949018e+20
2.457091295e+20
2.457569488e+20
2.460684645e+20
2.470099584e+20
2.448771501e+20
2.43597171e+20
2.414837903e+20
2.395949364e+20
2.36135189e+20
2.305207482e+20
2.283028944e+20
2.251732325e+20
1.167061438e+20
1.210005019e+20
1.268234698e+20
1.317550177e+20
1.379114811e+20
1.453777462e+20
1.528072727e+20
1.599627358e+20
1.680266528e+20
1.760890331e+20
1.848841588e+20
1.967964812e+20
2.069133503e+20
2.145243705e+20
2.225347119e+20
2.274955431e+20
2.327448994e+20
2.378486698e+20
2.411463046e+20
2.44450873e+20
2.446664689e+20
2.47796581e+20
2.472546601e+20
2.478364591e+20
2.457123839e+20
2.438889451e+20
2.410070015e+20
2.381314321e+20
2.333398409e+20
2.280665216e+20
1.116485452e+20
1.146902061e+20
1.178808379e+20
1.239050225e+20
1.288517715e+20
1.344145787e+20
1.400939725e+20
1.470067016e+20
1.546493417e+20
1.645575673e+20
1.74165262e+20
1.809871518e+20
1.89479258e+20
1.999990231e+20
2.091573522e+20
2.169318114e+20
2.243807443e+20
2.310289915e+20
2.356703403e+20
2.40115619e+20
2.427562403e+20
2.434304049e+20
2.488059826e+20
2.498541684e+20
2.476149504e+20
2.457902764e+20
2.469227762e+20
2.432528702e+20
2.392580962e+20
2.321880363e+20
1.095522225e+20
1.12103814e+20
1.147034849e+20
1.161595258e+20
1.204751361e+20
1.256378365e+20
1.303530216e+20
1.362629957e+20
1.437928542e+20
1.50845771e+20
1.589355533e+20
1.662975706e+20
1.766394152e+20
1.86347073e+20
1.956077773e+20
2.058639762e+20
2.13319841e+20
2.202769693e+20
2.275439768e+20
2.347580951e+20
2.399726888e+20
2.45139166e+20
2.47331929e+20
2.485200219e+20
2.50827235e+20
2.489123647e+20
2.486996665e+20
2.470317991e+20
2.432537833e+20
2.392028379e+20
1.063366957e+20
1.06873272e+20
1.097123065e+20
1.112558281e+20
1.142324612e+20
1.18069448e+20
1.233158627e+20
1.28596051e+20
1.338684368e+20
1.396985995e+20
1.473343973e+20
1.558971919e+20
1.626407587e+20
1.715489636e+20
1.811526719e+20
1.896795076e+20
1.989946033e+20
2.072555163e+20
2.143091981e+20
2.226558786e+20
2.291451642e+20
2.33879033e+20
2.389155585e+20
2.430815009e+20
2.466893775e+20
2.475390087e+20
2.481915421e+20
2.468733079e+20
2.445710398e+20
1.050903678e+20
1.060044457e+20
1.071066748e+20
1.101445951e+20
1.120394362e+20
1.150420918e+20
1.183619507e+20
1.223006414e+20
1.2590348e+20
1.315110184e+20
1.371669138e+20
1.427015135e+20
1.490028667e+20
1.558443977e+20
1.645365245e+20
1.735734534e+20
1.843728613e+20
1.943308771e+20
2.051462186e+20
2.099339249e+20
2.187966503e+20
2.284551921e+20
2.333343616e+20
2.389321573e+20
2.397143126e+20
1.035673559e+20
1.049698885e+20
1.066538497e+20
1.075627618e+20
1.093276864e+20
1.108348449e+20
1.124667993e+20
1.146652281e+20
1.188679474e+20
1.229257997e+20
1.268245884e+20
1.323662063e+20
1.391092447e+20
1.463968615e+20
1.536785318e+20
1.613825941e+20
1.69073404e+20
1.784847384e+20
1.871246393e+20
1.031959502e+20
1.038951543e+20
1.046604159e+20
1.058143548e+20
1.068265081e+20
1.085061091e+20
1.108111487e+20
1.124450188e+20
1.150496413e+20
1.171187019e+20
1.221496979e+20
1.258700381e+20
1.304837545e+20
1.357701052e+20
1.022861301e+20
1.028781738e+20
1.032209929e+20
1.039818399e+20
1.05606735e+20
1.0580219e+20
1.071765438e+20
1.092027271e+20
1.011320312e+20
)
;

boundaryField
{
    flow
    {
        type            calculated;
        value           nonuniform List<scalar> 
15
(
1.875636408e+20
1.715397572e+20
1.737144725e+20
1.829578025e+20
1.832015489e+20
1.86775424e+20
1.937585739e+20
2.020015954e+20
2.062180755e+20
2.094659015e+20
2.156101879e+20
2.251732325e+20
2.280665216e+20
2.321880363e+20
2.392028379e+20
)
;
    }
    obstacle
    {
        type            calculated;
        value           nonuniform List<scalar> 
30
(
133.7296912
136.8789457
134.5900019
137.3025597
132.5302383
129.0169269
134.7345684
129.1551508
138.2110898
129.8465743
128.3694228
135.2373007
127.4911043
130.3668652
132.8119568
124.9263517
124.6842948
125.952251
128.3425525
130.8111457
121.5830666
119.2675076
123.4590843
124.3796455
118.1178841
111.0603253
109.19263
109.5058281
98.13839067
86.69091591
)
;
    }
    frontAndBack
    {
        type            empty;
    }
    procBoundary1to0
    {
        type            processor;
        value           nonuniform List<scalar> 
21
(
3.078028569e+20
2.738524658e+20
2.567807641e+20
2.374424036e+20
2.193116081e+20
1.981891199e+20
1.811990771e+20
1.618854618e+20
1.470903168e+20
1.333913835e+20
1.260024719e+20
1.188387419e+20
1.137907241e+20
1.101432833e+20
1.071021011e+20
1.05607492e+20
1.041054594e+20
1.025242422e+20
1.025118704e+20
1.015690782e+20
1.015715527e+20
)
;
    }
    procBoundary1to3
    {
        type            processor;
        value           nonuniform List<scalar> 
36
(
2.41437698e+20
2.428146832e+20
2.468765855e+20
2.46947892e+20
2.41437698e+20
2.4652811e+20
1.969165852e+20
2.051388388e+20
2.149353763e+20
2.219847452e+20
2.300038666e+20
2.428146832e+20
2.374880939e+20
1.423011083e+20
1.507432428e+20
1.571201736e+20
1.653807104e+20
1.969165852e+20
1.739961083e+20
1.112154476e+20
1.134278856e+20
1.150970125e+20
1.186743659e+20
1.222244943e+20
1.423011083e+20
1.270995317e+20
1.017331314e+20
1.021281459e+20
1.023175391e+20
1.032981518e+20
1.050751072e+20
1.058885279e+20
1.112154476e+20
1.072373828e+20
1.017331314e+20
1.019371582e+20
)
;
    }
}


// ************************************************************************* //
