/*--------------------------------*- C++ -*----------------------------------*\
| =========                 |                                                 |
| \\      /  F ield         | OpenFOAM: The Open Source CFD Toolbox           |
|  \\    /   O peration     | Version:  2406                                  |
|   \\  /    A nd           | Website:  www.openfoam.com                      |
|    \\/     M anipulation  |                                                 |
\*---------------------------------------------------------------------------*/
FoamFile
{
    version     2.0;
    format      ascii;
    arch        "LSB;label=32;scalar=64";
    class       volScalarField;
    location    "0.009";
    object      rhoN;
}
// * * * * * * * * * * * * * * * * * * * * * * * * * * * * * * * * * * * * * //

dimensions      [0 -3 0 0 0 0 0];

internalField   nonuniform List<scalar> 
546
(
2.916407275e+20
2.485950518e+20
2.845957829e+20
3.211361291e+20
2.7733805e+20
3.958849353e+20
2.815906858e+20
1.655303348e+20
2.859757702e+20
3.242474209e+20
2.6629129e+20
3.294175474e+20
2.58272728e+20
2.975601965e+20
3.374894538e+20
3.528712651e+20
2.668509989e+20
3.203397017e+20
3.488881272e+20
2.476045721e+20
3.285936717e+20
2.651522686e+20
3.343367531e+20
2.02370544e+20
2.722273268e+20
2.472033026e+20
2.217260726e+20
2.936748182e+20
2.822697313e+20
1.851831666e+20
2.916407277e+20
3.276934774e+20
2.845957829e+20
1.835063595e+20
2.195592896e+20
2.910918644e+20
3.167895216e+20
2.364719068e+20
3.336383986e+20
2.882199295e+20
3.99436935e+20
1.952103985e+20
2.828701305e+20
3.471535623e+20
2.874910159e+20
3.528712651e+20
3.049725702e+20
2.562717612e+20
2.842792145e+20
2.345727527e+20
1.971562032e+20
2.121218151e+20
3.610836937e+20
1.888791744e+20
3.130614258e+20
2.609368197e+20
1.385787955e+20
2.377367578e+20
2.117022984e+20
1.709383076e+20
2.916407275e+20
2.485950518e+20
1.935251324e+20
2.064446544e+20
1.617805293e+20
2.445171659e+20
2.111930142e+20
3.074134789e+20
2.38313142e+20
3.122382572e+20
2.541871403e+20
2.318123482e+20
3.935584424e+20
2.603651717e+20
2.124933598e+20
1.638330874e+20
2.795581893e+20
2.690853492e+20
2.067485198e+20
2.997318507e+20
2.628749371e+20
2.386370417e+20
3.075898132e+20
1.484050656e+20
2.313932277e+20
3.158708867e+20
2.771575907e+20
2.237522425e+20
2.399292716e+20
1.282037308e+20
3.028576785e+20
2.711946018e+20
2.959796142e+20
2.63790392e+20
2.426707937e+20
1.862987931e+20
3.285224668e+20
1.891775254e+20
2.859757702e+20
3.122382572e+20
1.936663927e+20
2.440129979e+20
2.582727278e+20
2.231701474e+20
1.87494141e+20
1.638330874e+20
2.033150468e+20
2.17830997e+20
2.455138671e+20
2.085091135e+20
2.365874438e+20
2.916674957e+20
2.808428726e+20
2.29353283e+20
2.041704951e+20
1.373351681e+20
2.078681932e+20
2.657057884e+20
2.399292718e+20
1.139588714e+20
3.252915806e+20
2.824943769e+20
2.732119514e+20
2.637903916e+20
2.657822979e+20
2.212298169e+20
1.407953429e+20
2.601190975e+20
1.668191993e+20
3.242474207e+20
1.815622432e+20
1.830097487e+20
2.090779227e+20
1.859751228e+20
2.249929692e+20
2.394483585e+20
1.270719043e+20
2.178309973e+20
2.455138673e+20
2.606363917e+20
3.417374182e+20
3.18182722e+20
2.273489921e+20
1.484050656e+20
2.177818618e+20
2.60936819e+20
2.494418308e+20
2.237522433e+20
2.399292718e+20
2.421626031e+20
2.355559725e+20
2.033959516e+20
2.618281205e+20
2.523212445e+20
2.426707939e+20
2.678045152e+20
2.933236311e+20
2.837662882e+20
1.906505135e+20
2.041557834e+20
2.904995889e+20
2.562136478e+20
2.705714289e+20
1.73576781e+20
2.24992969e+20
2.142432681e+20
3.049725702e+20
1.793902328e+20
2.842792147e+20
2.215409333e+20
2.497311907e+20
2.386370423e+20
1.604816425e+20
2.833187616e+20
2.858386911e+20
1.510686849e+20
1.524366757e+20
1.678141821e+20
2.399292709e+20
1.851831654e+20
1.233864616e+20
2.372952766e+20
1.935251322e+20
2.867286865e+20
2.657822979e+20
2.561608407e+20
2.933236311e+20
3.074134789e+20
3.693853698e+20
3.122382572e+20
1.815622433e+20
2.928155979e+20
2.21376624e+20
2.85161855e+20
1.999937502e+20
1.008203614e+20
2.795581893e+20
3.331532895e+20
2.455138681e+20
3.518591317e+20
3.023061802e+20
2.386370432e+20
2.006020524e+20
2.158619151e+20
1.905591311e+20
2.197362709e+20
1.801524349e+20
1.957832125e+20
3.24610193e+20
3.276317601e+20
2.579898743e+20
2.71194602e+20
2.959796144e+20
1.720372122e+20
2.080035375e+20
3.260228879e+20
1.642612334e+20
2.482955022e+20
3.336383988e+20
2.882199297e+20
1.694580935e+20
2.684142977e+20
2.213766239e+20
2.107718058e+20
2.124933603e+20
2.520509043e+20
2.795581889e+20
3.203396999e+20
1.421396067e+20
2.085091126e+20
2.497311886e+20
1.325761328e+20
1.738551106e+20
2.968101307e+20
2.858386916e+20
2.472033005e+20
1.801524317e+20
3.216438462e+20
2.399292709e+20
2.848971775e+20
7.851865745e+19
1.35597301e+20
2.276766262e+20
1.261606222e+20
2.195592897e+20
1.979424678e+20
2.111930144e+20
2.837662882e+20
2.263974847e+20
2.521924383e+20
1.694580932e+20
2.318123483e+20
1.967792215e+20
2.355684893e+20
2.74991407e+20
2.016407216e+20
2.160222368e+20
3.075261144e+20
3.359663444e+20
2.736682103e+20
1.840124563e+20
3.712131782e+20
2.407224629e+20
1.753878045e+20
3.538955229e+20
3.70804954e+20
2.771575922e+20
2.517212732e+20
1.834753248e+20
1.4244859e+20
1.682542658e+20
1.129977507e+20
1.138383132e+20
2.408520969e+20
1.964477854e+20
1.513677694e+20
1.05596507e+20
2.246483118e+20
2.978914271e+20
3.002290923e+20
2.66291291e+20
2.31812348e+20
1.721818179e+20
1.859751228e+20
1.74994531e+20
2.394483589e+20
2.287294291e+20
1.793902334e+20
1.938267371e+20
2.736682126e+20
3.154499251e+20
1.988642009e+20
2.674694032e+20
2.293532828e+20
2.450045949e+20
3.296044035e+20
1.940103128e+20
1.957832125e+20
2.540427574e+20
3.133868952e+20
1.570373148e+20
1.129977505e+20
1.479898065e+20
1.146914744e+20
2.426707937e+20
1.979424681e+20
2.229259606e+20
2.482955033e+20
2.502287993e+20
2.041557831e+20
1.452497938e+20
1.952103983e+20
2.582727288e+20
2.975601965e+20
1.874941419e+20
2.772559945e+20
2.54143806e+20
2.178309959e+20
2.325920846e+20
2.867000299e+20
1.971562032e+20
2.386370432e+20
2.006020524e+20
2.56336022e+20
2.177818603e+20
2.472033026e+20
2.49441833e+20
3.216438491e+20
3.104967063e+20
2.848971827e+20
1.009525599e+20
1.016979762e+20
1.593736392e+20
8.028403246e+19
1.50224777e+20
1.979424669e+20
1.52528287e+20
1.773539282e+20
1.549035412e+20
1.20091638e+20
2.662912927e+20
1.952103998e+20
2.090779234e+20
1.611784398e+20
1.874941404e+20
2.268458137e+20
2.795581911e+20
2.178309977e+20
1.938267371e+20
3.518591276e+20
2.891624289e+20
2.916674922e+20
3.209632783e+20
2.158619132e+20
2.586159636e+20
2.334697879e+20
1.801524349e+20
2.657057884e+20
2.117022979e+20
2.991420364e+20
1.233864613e+20
1.468970751e+20
1.707574694e+20
1.032223275e+20
1.848920332e+20
1.746551192e+20
1.994600706e+20
1.300595493e+20
1.191565711e+20
1.681282919e+20
1.573539432e+20
2.196116964e+20
2.21376623e+20
2.603651719e+20
8.749726551e+19
2.016407216e+20
1.779006656e+20
2.306445858e+20
1.679831722e+20
3.127636716e+20
3.154499277e+20
1.988642026e+20
2.006020524e+20
2.56336022e+20
3.266727904e+20
1.922692337e+20
3.187312282e+20
2.37736758e+20
1.975888113e+20
1.566934476e+20
4.486780409e+19
9.039820073e+19
1.479898068e+20
1.94975506e+20
9.24460166e+19
1.164367452e+20
1.055965064e+20
1.300595484e+20
1.906505138e+20
1.681282919e+20
1.089373453e+20
2.074110482e+20
1.844805192e+20
2.603651699e+20
1.999937497e+20
1.512305424e+20
2.033150464e+20
2.690853479e+20
3.488881269e+20
2.345727517e+20
1.971562015e+20
2.386370411e+20
2.006020524e+20
2.698273915e+20
2.994500579e+20
2.334697858e+20
3.187312282e+20
1.957832107e+20
1.693618383e+20
1.851831671e+20
1.346034132e+20
1.242975269e+20
6.830298825e+19
9.175317996e+19
1.271132738e+20
1.164367461e+20
1.173294524e+20
1.655303355e+20
1.668191995e+20
1.561191282e+20
1.936663932e+20
2.318123498e+20
1.106883124e+20
1.611784398e+20
1.499953135e+20
1.890381781e+20
2.668509985e+20
2.56271762e+20
2.842792168e+20
1.824454751e+20
2.1029995e+20
3.181827242e+20
2.273489927e+20
3.237928699e+20
2.858386941e+20
2.746703387e+20
2.771575922e+20
2.657057884e+20
1.411348665e+20
1.994280261e+20
1.458203633e+20
6.779865006e+19
1.252221442e+20
1.490989174e+20
8.089026452e+19
4.657469844e+19
1.05596508e+20
1.182359539e+20
1.668192008e+20
1.441099656e+20
2.178746906e+20
2.196116964e+20
1.106883115e+20
2.479668304e+20
1.999937497e+20
2.520509041e+20
1.651934766e+20
1.793902334e+20
1.550613897e+20
2.21540934e+20
1.445812169e+20
1.856065891e+20
2.273489927e+20
2.158619132e+20
2.586159591e+20
2.746703339e+20
2.771575897e+20
2.37736758e+20
2.117022979e+20
1.233864613e+20
1.24297526e+20
1.82141302e+20
8.028403246e+19
9.24460166e+19
1.513677688e+20
1.055965064e+20
1.182359522e+20
1.191565702e+20
1.561191294e+20
1.694580953e+20
1.464077999e+20
1.106883124e+20
1.363817567e+20
1.124964842e+20
2.016407216e+20
2.541438081e+20
1.793902334e+20
2.067485196e+20
3.779227666e+20
2.497311886e+20
3.314403321e+20
2.407224608e+20
2.563360242e+20
2.313932306e+20
1.458203644e+20
9.039820073e+19
1.138383121e+20
1.032223267e+20
6.933451245e+19
1.513677699e+20
8.213061732e+19
8.276516776e+19
9.532525688e+19
4.803665484e+19
1.210414948e+20
1.830097484e+20
1.229870137e+20
1.487800982e+20
1.62494923e+20
1.63833089e+20
1.27071904e+20
1.409494679e+20
2.455138671e+20
8.973560883e+19
1.355973011e+20
9.1070651e+19
8.028403246e+19
1.040017687e+20
1.280804198e+20
9.386356124e+19
1.418831437e+20
1.191565711e+20
3.602749113e+19
9.683319659e+19
1.220064989e+20
1.721818179e+20
7.439004912e+19
1.906881674e+20
1.694966251e+20
1.366059755e+20
6.881488497e+19
1.155575216e+20
4.657469844e+19
9.386356194e+19
9.458876315e+19
1.233864621e+20
)
;

boundaryField
{
    flow
    {
        type            zeroGradient;
    }
    obstacle
    {
        type            calculated;
        value           nonuniform List<scalar> 
30
(
153.0495448
267.2865765
327.596639
47.63043604
120.132408
44.08451749
1e-300
1e-300
1e-300
77.33728042
41.33107859
1e-300
51.42993821
196.3466669
181.4375581
59.58796084
1e-300
1e-300
41.42144693
112.381209
153.443446
60.46631003
48.65984936
210.082589
106.9641858
1e-300
96.70442635
243.4358303
134.0458431
102.0884277
)
;
    }
    frontAndBack
    {
        type            empty;
    }
    procBoundary1to0
    {
        type            processor;
        value           nonuniform List<scalar> 
21
(
3.897366324e+20
2.561126441e+20
3.674659677e+20
2.115713147e+20
2.44977312e+20
2.115713149e+20
1.113533235e+20
6.681199412e+19
1.670299853e+20
1.55894653e+20
1.113533235e+20
8.908265921e+19
1.55894653e+20
1.22488655e+20
1.55894653e+20
1.55894653e+20
6.681199412e+19
1.336239882e+20
8.908265946e+19
1.224886559e+20
1.113533235e+20
)
;
    }
    procBoundary1to3
    {
        type            processor;
        value           nonuniform List<scalar> 
36
(
2.279177441e+20
3.158708895e+20
1.801524349e+20
2.097677277e+20
2.279177441e+20
2.96383217e+20
2.867000299e+20
2.234436969e+20
1.458337486e+20
3.075898137e+20
1.753878045e+20
3.158708895e+20
2.450045928e+20
8.749726551e+19
1.638330863e+20
1.27071904e+20
1.537630572e+20
2.867000299e+20
1.938267371e+20
1.429878853e+20
1.441099645e+20
1.210414948e+20
1.220064989e+20
6.149350687e+19
8.749726551e+19
2.107718058e+20
9.039820138e+19
1.366059765e+20
1.261606224e+20
1.155575207e+20
1.164367461e+20
1.173294533e+20
1.429878853e+20
1.064123585e+20
9.039820138e+19
7.851865717e+19
)
;
    }
}


// ************************************************************************* //
