/*--------------------------------*- C++ -*----------------------------------*\
| =========                 |                                                 |
| \\      /  F ield         | OpenFOAM: The Open Source CFD Toolbox           |
|  \\    /   O peration     | Version:  2406                                  |
|   \\  /    A nd           | Website:  www.openfoam.com                      |
|    \\/     M anipulation  |                                                 |
\*---------------------------------------------------------------------------*/
FoamFile
{
    version     2.0;
    format      ascii;
    arch        "LSB;label=32;scalar=64";
    class       volScalarField;
    location    "0.009";
    object      translationalT;
}
// * * * * * * * * * * * * * * * * * * * * * * * * * * * * * * * * * * * * * //

dimensions      [1 2 -2 0 0 0 0];

internalField   nonuniform List<scalar> 
546
(
934.9869946
912.3490887
898.2609193
880.7202154
870.1211252
861.9441422
854.975886
840.1225007
826.7839505
824.434255
816.0380921
809.1287895
803.4368502
804.9360876
792.8813199
782.1600612
784.0274916
772.9380707
768.8651058
769.5957653
773.1607903
754.8773877
760.7345917
772.361846
765.2141474
759.0656904
760.4467346
744.8011425
740.6427732
730.280208
1022.914728
1004.594601
996.9532158
989.3259432
977.188614
957.9249897
948.4919414
940.2523423
931.3339781
921.8269375
903.52998
900.6023489
897.8805245
893.6034567
892.3903227
870.7121478
867.1231092
866.1548685
855.1398339
853.2404402
845.5188113
846.8969807
841.6235699
837.2041513
832.6057149
823.7790715
811.0616802
806.3695507
781.5805908
727.6348512
1033.659522
1025.150301
1013.761326
1015.109344
1004.925277
986.7067366
986.9477564
981.5515151
962.8714781
966.577875
953.5193054
949.5428529
942.0298219
936.5538969
932.8554452
921.4954218
910.9923683
906.3794939
897.651915
900.8790598
890.5196969
889.7810318
876.2534351
878.0852049
870.2948461
858.0471974
842.6195643
817.8470691
796.6535352
741.4144564
1027.939343
1015.919869
1012.953945
998.6396559
1002.472143
997.2117624
981.9822786
975.4853437
972.3386241
973.6821694
966.4468814
964.7066625
957.6613746
946.0945098
944.0000989
935.7217555
928.1731117
925.05291
922.2041141
919.1708018
914.2733415
908.8417788
906.4118767
896.8906082
886.5642855
873.6635011
851.8598971
831.0335917
794.7813322
749.9452038
1004.669263
993.0026852
996.4957483
987.8711824
979.0847135
970.8962873
964.0075623
958.8476756
963.8223407
956.388166
958.0876537
958.6462113
951.6776898
951.0117532
936.8416648
939.5512278
939.9499073
939.8661914
938.1672546
926.4864993
911.9892621
917.1901828
914.5025211
908.1068825
902.8824083
885.8416659
870.1746668
834.4981232
804.4938808
754.3967568
978.6991902
973.1976336
969.253886
967.6290964
956.7648606
941.4075071
947.68741
945.0946444
941.8469249
932.247657
934.8158793
941.1625869
939.7586099
941.3070358
930.8007663
933.9200657
923.0914139
928.0730832
924.684153
925.9948248
915.3298145
912.3357067
906.1471498
900.0949178
899.2823614
883.6570104
860.0357904
837.1445665
810.9273433
768.6140363
954.7571184
953.8013125
950.92614
937.9067331
934.3950197
931.454916
926.5304572
925.0945209
920.9132986
925.4048337
922.0987559
922.2901323
914.7001907
912.4197531
919.1452604
915.3813767
918.7236926
917.1393978
918.1398904
916.0904666
912.0251178
899.4867513
899.4101426
891.4941743
881.5434121
859.6869218
850.9496125
842.8900904
816.4281376
776.6221862
906.9739677
918.4950973
916.0084588
920.7158783
911.2029702
913.3545932
913.0655745
902.8908996
901.9554033
903.0594485
900.5885252
899.0678978
895.2218398
896.9901103
895.6784166
898.3336619
902.9188228
899.0104069
897.6483819
900.6647019
897.3604133
893.4074665
887.9095141
876.0994766
871.4044835
862.9043306
852.1548303
828.7221227
808.2539623
777.1922457
855.7527391
873.0946826
882.9302458
887.5252882
893.883999
894.9114302
892.175599
887.1409166
888.1816801
882.9064387
876.8209952
888.5435453
882.4816129
875.1705046
879.7872566
889.5416273
883.5781754
882.2414687
873.0248453
883.4787265
872.020928
871.0443448
866.7843365
862.3545285
861.8271483
858.8550715
844.5357363
834.2600967
813.6250074
782.7985489
793.6534092
817.4166756
841.8639171
860.4851801
866.0058062
863.8147981
860.8995798
870.2385889
869.3568315
872.2268782
868.9295505
873.5995475
863.1371469
868.1501539
864.3338096
861.6438793
862.399854
860.9239845
857.6970789
855.5426663
860.9052302
858.0667294
854.1383419
852.3489713
856.3417906
849.3091207
834.1121656
821.3202039
807.0435254
788.6476639
712.5902289
750.2782071
783.4124909
811.1422601
823.6799483
838.4827116
839.7642641
842.7764659
848.0950117
852.6593324
853.8932546
849.9261815
853.5381048
855.297207
850.7842925
847.4425799
844.9184373
853.2444644
847.681153
841.7581472
851.6453296
847.367286
853.1630859
847.0489358
837.3522258
841.017014
831.8331567
810.8816003
796.6579654
775.8993542
656.0190222
698.9459504
721.3104059
749.2432321
770.8512567
791.9602979
812.0913646
818.9125229
829.4447034
830.367302
829.2904442
834.7261213
837.9962583
842.44696
846.289275
832.7795542
830.7780172
837.1611856
841.3008677
833.5139915
833.9239817
837.5442824
838.4449428
834.5366273
827.8028059
828.4916107
821.658052
808.9421663
794.68037
776.8323057
582.8598907
621.1664317
659.0478371
690.3541176
717.6436443
753.3288422
766.9613169
778.5972228
798.0804441
811.9189174
815.203059
820.7966827
818.3742038
820.8457531
828.3110138
825.5225007
822.5389218
824.8998228
822.1393648
823.3520437
826.2203879
828.0290161
824.4625725
830.968541
819.3519973
811.6301648
806.2673958
803.6345634
793.7091744
775.1402872
526.6702834
559.675955
590.1987607
625.4146652
667.0776871
700.2729481
713.9872048
736.1134417
754.7130508
776.4636744
790.0608964
798.1027667
803.3189734
811.1391905
814.1800356
809.3723438
817.491906
810.9120347
809.3888038
806.3189546
804.3388733
808.3594496
806.4123195
804.9283306
804.6528812
794.3954267
799.9387245
795.8721933
781.529606
765.1149437
474.8752454
498.3655547
532.0210818
557.1659775
597.7107784
629.7537616
652.8092006
687.7008399
711.2498999
730.7906831
751.0741012
769.8708692
778.8505908
783.2989751
785.7720733
791.7407009
793.4755703
792.9283355
790.9763812
792.4197972
789.8490263
791.1958783
794.0771308
792.5067169
793.2012443
783.3685933
783.0587528
785.7105698
775.3457421
758.6200887
438.0882405
460.6456624
488.1639743
508.7087178
539.0686685
571.7367925
605.8126343
634.4803928
659.2963617
676.9452021
699.8703814
724.901309
731.8061897
746.6810626
768.8184522
770.3612049
778.9866532
779.1598579
785.3875152
782.730733
779.9019453
780.3067576
783.3631161
779.5997855
783.340005
774.4363979
769.7226612
769.4175767
761.2452802
407.2392649
419.0911855
436.781916
464.1995844
493.8516565
518.7830527
547.737851
575.5819076
602.7672543
635.007512
665.188122
688.4440651
701.7976908
716.7953249
740.8315803
749.7745421
763.0960765
768.2037063
772.9361067
770.1102823
769.636608
774.1395801
769.351173
775.2435089
769.5394568
383.2209476
391.4249719
413.4007479
431.8006663
450.0155967
473.2499511
496.3188806
529.0024046
551.1588736
585.8739335
612.4548789
631.9248869
658.7149748
683.6251216
705.3236203
722.9269526
738.2906231
748.9351119
754.2240706
363.0910422
375.4279546
380.3116478
401.028432
425.2302817
440.4423192
459.1903821
478.727469
509.1698943
528.7683647
563.8523046
587.2835869
607.9708936
632.9323514
350.2112721
353.5459475
359.8467343
370.3604602
394.8459808
416.0140536
421.2169568
437.785869
333.8278391
)
;

boundaryField
{
    flow
    {
        type            calculated;
        value           nonuniform List<scalar> 
15
(
730.280208
727.6348512
741.4144564
749.9452038
754.3967568
768.6140363
776.6221862
777.1922457
782.7985489
788.6476639
775.8993542
776.8323057
775.1402872
765.1149437
758.6200887
)
;
    }
    obstacle
    {
        type            calculated;
        value           nonuniform List<scalar> 
30
(
792.3674388
810.1749091
775.4085661
776.3527128
762.5250972
767.2474131
747.4135515
753.9172346
707.827642
721.9928627
732.4479857
712.8223435
720.950892
720.5914444
714.4248481
718.5022805
711.8426043
694.6635639
684.5066223
693.2898318
704.9203261
701.9884768
679.5135208
708.3961712
706.2703477
715.1683745
722.5669208
695.4285661
708.2928362
721.7869089
)
;
    }
    frontAndBack
    {
        type            empty;
    }
    procBoundary1to0
    {
        type            processor;
        value           nonuniform List<scalar> 
21
(
947.5948373
1045.031584
1046.756865
1049.115316
1016.462187
990.2590682
949.6425199
897.1564961
833.5948346
762.2877997
680.0930853
608.7417751
548.5529953
492.8792954
454.2879908
419.1751624
387.7013651
363.6947202
348.9470242
334.0039606
330.690244
)
;
    }
    procBoundary1to3
    {
        type            processor;
        value           nonuniform List<scalar> 
36
(
752.5644897
771.8310417
767.6223673
761.8445782
752.5644897
752.8013655
756.8991737
765.1265793
771.3936303
764.4572987
767.6311099
771.8310417
766.8437238
657.553927
688.1541379
700.1156704
721.9566714
756.8991737
729.1050509
464.5737283
488.383453
511.2321051
544.8293475
564.5167767
657.553927
590.3647309
338.046391
347.63047
354.627702
370.7813891
389.9326985
399.4565896
464.5737283
411.6953851
338.046391
326.2508644
)
;
    }
}


// ************************************************************************* //
