/*--------------------------------*- C++ -*----------------------------------*\
| =========                 |                                                 |
| \\      /  F ield         | OpenFOAM: The Open Source CFD Toolbox           |
|  \\    /   O peration     | Version:  2406                                  |
|   \\  /    A nd           | Website:  www.openfoam.com                      |
|    \\/     M anipulation  |                                                 |
\*---------------------------------------------------------------------------*/
FoamFile
{
    version     2.0;
    format      ascii;
    arch        "LSB;label=32;scalar=64";
    class       volVectorField;
    location    "0.009";
    object      UMean;
}
// * * * * * * * * * * * * * * * * * * * * * * * * * * * * * * * * * * * * * //

dimensions      [0 1 -1 0 0 0 0];

internalField   nonuniform List<vector> 
546
(
(373.935828 103.4461881 -0.156149416)
(352.048443 103.0017078 0.8021858026)
(343.7938258 95.68014204 1.596124666)
(331.083323 91.39648314 1.816876966)
(323.7184268 91.10415335 -4.868622472)
(312.4606251 87.78476466 -4.800204979)
(306.8179714 82.51982338 -3.333883453)
(299.1946007 83.28772152 -2.454062365)
(284.9268585 81.01968338 1.445135147)
(278.179691 76.19451943 0.1710779341)
(274.3664198 76.16022605 3.405340176)
(265.5739604 72.03842831 -3.549810345)
(258.8831155 73.4992181 -0.5796544667)
(252.6597616 68.59508623 2.320704021)
(244.1166977 67.25927202 -0.52308792)
(242.197289 67.9684865 -3.884912209)
(241.7321626 66.13430034 -5.668498631)
(235.8101326 63.1937739 1.596887629)
(228.6592348 63.7053809 -1.304376759)
(227.4740091 61.76520865 3.302597642)
(230.8172268 59.38211083 -3.741511209)
(230.10673 63.03895787 3.777593718)
(227.4991724 63.23638374 8.431253808)
(234.4292261 59.16956307 6.013957496)
(242.9525769 63.00630144 -1.525826392)
(243.8522832 68.03868533 4.787972691)
(251.8035565 66.92803671 4.599835084)
(267.7357457 67.39592866 5.028656864)
(301.9034774 75.15967965 9.12675748)
(397.9324216 75.85520793 0.1413553351)
(635.8668793 197.1912986 -6.242941937)
(613.5640606 189.5197735 -2.77420924)
(599.2695722 180.9042924 2.80084909)
(575.3173112 172.1392368 2.499779043)
(562.3273477 164.3151152 3.105400671)
(546.4115153 156.3781393 -0.4697191395)
(525.5501756 150.2586675 1.20255691)
(511.139475 147.8393948 -6.512837197)
(499.238931 149.7329275 -7.940894555)
(493.7953418 140.7453571 -4.573780946)
(478.2496942 139.027556 -0.8292513294)
(459.3123648 133.9782121 -4.056234691)
(448.6109633 131.137214 -1.827179123)
(435.0935696 122.6438747 5.619326663)
(426.6234569 121.9794179 5.944344779)
(422.57426 122.9663745 4.131780804)
(417.3318283 118.9822735 -0.470968665)
(398.7865911 110.4701243 0.116181091)
(396.8388699 111.6906154 3.498223887)
(395.351384 108.0190074 4.934622431)
(390.5110735 104.9173926 4.248639531)
(380.2726256 106.3630606 7.79734381)
(385.0286161 102.1342486 0.04469582075)
(384.109803 98.51911932 5.715905486)
(386.4139868 106.2766217 -0.3466651938)
(390.0720856 105.4764105 -1.598797784)
(409.9969925 108.4184402 9.549627746)
(431.3193508 102.8510994 7.952493899)
(482.6830682 113.8123015 2.932170701)
(602.3043573 90.31482213 0.05690148139)
(836.3278418 268.3670323 -6.005275452)
(813.0022982 259.0037523 -4.60464088)
(793.9083338 255.6517305 -3.413453399)
(772.7923322 240.9632872 -4.626355798)
(752.2373493 228.567105 2.315153559)
(724.1223693 223.1677603 -4.339156214)
(704.7284976 216.4336864 -6.874690178)
(688.6462165 207.122546 -8.898632504)
(668.821944 200.5458744 -2.82735038)
(657.6998049 195.3480142 -0.4763929001)
(639.5068374 193.2589993 -2.503044438)
(617.3451423 187.9213274 1.270539683)
(604.7675846 180.8089141 6.849178583)
(587.4681618 175.2170909 5.142755273)
(574.9334473 172.9112671 4.668487686)
(577.2427183 168.3547673 6.313761501)
(562.5995671 161.8851644 -1.017539882)
(549.4893487 159.7916435 0.3682457267)
(542.8788636 159.9162732 0.5430340848)
(531.6819484 148.1392531 1.572784169)
(527.6755941 150.6156848 1.455426992)
(526.717523 142.1515785 -0.5264982855)
(508.1698133 142.2413341 2.068824731)
(512.2853245 140.6512247 0.7758995646)
(517.3581916 141.6339611 -1.625776219)
(517.8587096 140.5343678 4.934091953)
(531.4863323 139.3344737 3.847646018)
(567.2864101 137.5684261 3.465329896)
(617.6507186 136.1456138 2.187975538)
(716.4463139 104.2594814 2.837659419)
(988.3591551 316.1682326 -0.2949462687)
(971.9105806 313.1216764 -1.954037589)
(940.0356692 310.3675583 -2.9725392)
(923.2654044 302.6702667 -5.6936364)
(901.3155884 289.0846383 -3.22594303)
(887.994679 276.8751845 -2.270126211)
(861.0600902 270.846397 0.5612461271)
(844.3045128 264.0693796 2.482149754)
(815.9912451 257.9834627 -1.500410586)
(796.4561603 249.576439 -0.01805155377)
(781.6168303 241.5700349 -0.1012026087)
(758.1472164 238.4673687 -0.3468112297)
(743.2122877 230.0966635 -3.828904857)
(732.261214 225.7337886 -2.617010845)
(716.6418971 218.1590432 1.700040724)
(707.417606 208.1220749 -0.06518552553)
(697.5126873 206.6893201 7.273855649)
(678.6361792 206.1644627 4.037987806)
(665.6862474 200.0682803 1.104793508)
(652.1890747 192.6513167 -0.3829656006)
(650.8999336 184.9137912 6.010020072)
(634.1881077 178.7207714 5.905667278)
(629.5222695 181.2369327 0.2280017794)
(629.1534055 179.5427889 6.547109565)
(633.2601091 174.330052 0.8615105934)
(635.1447979 174.9611958 0.6584390403)
(643.2811919 168.2848868 0.9841114223)
(685.8433734 161.0554905 -1.08119052)
(720.1117233 155.8870136 1.370162626)
(786.4479264 132.8633595 4.656353223)
(1099.384077 346.2570963 1.86804263)
(1083.532414 343.8730971 2.289789928)
(1058.747665 344.642084 0.8442485642)
(1039.457803 336.8228263 -0.1637989553)
(1016.649797 327.1915836 0.04575172409)
(1004.103479 324.3751638 -0.4797345091)
(981.1974872 324.2135775 4.32453266)
(963.6101318 313.3306149 0.08786060178)
(938.8416033 305.0812339 -4.415044167)
(922.8031426 295.2254508 -2.605526723)
(901.2322668 291.4539765 -4.329754235)
(881.5374485 279.0143085 1.090285388)
(867.7083491 273.4451718 -0.1511613671)
(848.5096095 267.653963 -0.9704343551)
(834.9346381 261.8165361 -0.3643655643)
(818.655737 253.2777046 -0.3358106328)
(802.7126534 246.4808879 2.59154917)
(783.0301797 245.5492527 4.870243591)
(770.2608469 233.0035891 0.4288486943)
(761.146892 231.5658452 2.146621859)
(757.515897 222.3630391 2.479404085)
(744.8242528 220.9692133 -4.364973304)
(741.2788593 213.8929863 0.2719288733)
(736.9648593 214.8288513 3.02102838)
(736.4513179 206.4615848 8.922253417)
(737.6775904 203.5143415 1.369157281)
(748.1110103 198.294822 -2.666683095)
(776.6116549 189.308743 0.4050109332)
(804.8573313 172.9537745 4.56783714)
(857.7720689 161.5564687 0.5156320766)
(1183.618172 350.5408673 -1.028874904)
(1161.737167 356.0472787 0.609996623)
(1144.425845 353.6646356 2.169693541)
(1125.710109 362.0341854 1.08585776)
(1106.460114 362.0071561 -0.6319156236)
(1093.399078 361.6697426 2.777459996)
(1076.756073 352.3766317 2.994576585)
(1056.283572 343.8979712 1.920285469)
(1038.090309 338.4339562 -0.6903792864)
(1024.540232 339.3699084 1.479573525)
(1005.525254 329.6463013 -2.615369782)
(986.747473 320.1509613 0.04872981538)
(970.9813397 315.0330429 1.231476611)
(949.1391264 308.7700912 1.719979256)
(934.8524978 299.3083082 -0.1705802555)
(915.5551464 293.0557176 1.24397583)
(907.6226365 289.0978388 2.380972611)
(887.1493239 279.7636664 2.908402554)
(875.6847437 274.315551 1.529459403)
(862.1862939 264.4073662 -0.1884392714)
(847.2758141 260.1554229 -3.049765091)
(847.3263824 255.8356867 -1.583768904)
(839.018954 247.2228882 -7.140187748)
(825.6627106 244.257777 0.781705252)
(824.764668 236.515772 5.48550957)
(830.21027 231.6145469 5.415049781)
(836.1661773 228.329916 -4.57771963)
(854.7205821 215.690048 -5.417068125)
(878.801264 201.6906552 2.570269519)
(926.8734728 193.2752146 -6.057057267)
(1266.126507 337.0306929 -3.970702186)
(1242.969328 350.693951 -3.543638674)
(1218.022664 364.0383916 -6.013515566)
(1198.306468 373.0320693 -3.077451778)
(1178.17842 374.0906689 -2.972977639)
(1168.124777 376.6678141 -5.429275071)
(1154.373406 376.1641631 -0.9618592863)
(1135.760446 375.0516453 -1.850372215)
(1127.842501 367.8303381 1.173491892)
(1107.014013 360.4942819 4.241066195)
(1085.093039 362.6373451 3.460311513)
(1062.160449 353.650532 -1.985905655)
(1055.815189 347.4518151 -1.525956451)
(1037.707859 342.4682852 2.777071772)
(1015.882803 336.932835 -2.000674666)
(1006.906058 330.6445555 1.024807471)
(987.2929841 318.901199 -0.2485795507)
(970.5099921 308.1122797 -3.015407743)
(959.7980057 304.040485 0.4290128063)
(944.0204486 302.8783762 -2.212367673)
(938.3295738 291.9237038 3.249351386)
(933.1543745 287.8447986 0.9580954874)
(924.8463481 279.6922573 2.209776421)
(922.0189833 271.7187567 1.804834775)
(914.2836676 271.6693243 0.7170591489)
(918.619544 262.1310066 5.860619974)
(921.5827897 258.7128396 7.590842514)
(931.4333927 242.6174208 7.711224518)
(949.189727 234.5421334 4.005560276)
(984.5734607 217.6833946 4.586296462)
(1336.872791 310.0856286 -3.898755887)
(1308.169096 333.5667815 -3.535881728)
(1293.420937 352.4911601 -2.941151768)
(1273.614648 365.6135851 -4.434005743)
(1257.314134 371.358614 -6.242179641)
(1231.045111 383.6480538 -2.27210051)
(1216.122464 385.1578811 -3.183199938)
(1204.619831 385.2043104 1.724567807)
(1190.550018 389.6959574 0.4937068187)
(1174.091909 385.6038912 -3.77301318)
(1154.199799 382.2628902 -0.694835182)
(1136.313471 381.6455186 3.157703789)
(1127.019125 374.3739305 0.7724486678)
(1108.112681 371.7135174 2.553516712)
(1095.157826 363.139111 1.334623646)
(1080.932478 357.5437047 2.215746896)
(1063.216867 347.399669 4.19631842)
(1051.123324 342.2875767 2.216817612)
(1041.483687 337.1340853 1.516861767)
(1025.035153 329.7959245 -3.528091594)
(1014.418816 323.6659213 -0.7468416739)
(1012.959595 317.7954602 1.029152943)
(998.0769537 308.7479248 -2.13231616)
(994.4828486 297.8717727 -4.053275036)
(981.127129 297.1766452 -2.393196768)
(976.6251684 289.1862416 -0.1570819939)
(981.5837588 280.6581579 -6.003283205)
(997.4588304 266.9646183 -0.144170722)
(1009.48323 260.8095579 -0.7488686434)
(1031.891069 239.3663762 -1.418406336)
(1407.489544 276.0933359 -0.2790030824)
(1381.296033 302.6663248 -0.3855706933)
(1354.62311 325.5018725 1.869768465)
(1330.574424 347.904594 -1.265534295)
(1313.51571 362.0164631 1.783660174)
(1288.554556 371.1394442 -3.655628162)
(1268.037323 382.8240512 -5.282673894)
(1257.766569 389.251129 -3.130044376)
(1242.498315 399.6564929 -2.987310301)
(1230.51778 398.1428873 1.48093942)
(1219.95809 399.437264 0.7668766276)
(1196.078734 396.9654379 6.327434574)
(1183.679226 392.6416931 2.399299318)
(1174.97384 389.6583951 -3.738335475)
(1160.203078 384.0519696 0.1486462227)
(1139.535383 379.9359099 0.9613603368)
(1128.885294 379.5140704 -3.329539871)
(1118.216603 367.9038415 -2.988218303)
(1105.686417 359.7615776 0.3953362991)
(1088.038325 356.8126092 0.6790577556)
(1074.923709 351.0166222 -3.903012044)
(1068.420283 345.6204539 1.226920212)
(1060.402977 336.1122713 -3.279318539)
(1057.797705 327.7645521 -2.204654045)
(1048.563293 320.625063 -1.218601533)
(1042.333838 312.4004557 -4.892312991)
(1045.642047 302.568451 -1.867505946)
(1055.444624 294.6431183 -2.910399662)
(1062.136237 283.7997914 -2.642407825)
(1086.042966 270.7529102 -0.6482915795)
(1468.213548 236.3596818 2.11466834)
(1442.222395 261.6479173 5.627133346)
(1416.883903 293.6014023 4.535649594)
(1390.115719 313.5746717 4.206609999)
(1366.138867 339.6431381 4.080152088)
(1350.650383 359.7247809 0.7967777678)
(1331.76576 370.6681844 2.158087119)
(1311.637403 384.0982899 0.7886973227)
(1295.71421 388.9061332 -3.106285114)
(1281.052464 397.1067247 -3.851549972)
(1268.340367 397.5220517 1.553578919)
(1249.445361 403.919314 -0.4684629765)
(1241.148679 405.6743235 2.125926819)
(1222.059804 405.9844372 1.151205818)
(1208.750357 401.8229657 -0.6724506276)
(1199.442186 400.786175 -0.8884107236)
(1191.290083 397.4078783 -2.023697911)
(1171.466911 395.0161592 -3.085152038)
(1167.009251 387.2617209 -7.884077829)
(1155.261464 381.538217 -4.333681981)
(1135.522139 373.4387643 -7.118122567)
(1125.99842 366.7697529 0.2219285101)
(1120.660637 361.6005582 1.767448697)
(1116.283972 351.8652453 -0.6585426915)
(1105.184068 340.8749356 1.387900306)
(1097.728828 337.122188 -0.8627185426)
(1097.58071 332.4385496 0.4856743945)
(1100.784588 320.1877232 3.829420455)
(1107.835726 305.4351142 3.896249312)
(1120.551524 295.4116237 3.12989635)
(1524.822336 194.3217555 -1.895571671)
(1495.629492 225.5382107 0.6901203983)
(1469.396028 248.5169824 -2.582595279)
(1447.306169 279.4171235 -2.913764908)
(1425.041462 301.2054685 2.477016164)
(1402.56152 324.3992151 8.550558655)
(1383.209729 345.0423034 4.616818833)
(1361.683493 362.0583275 6.974826155)
(1344.490254 375.5908228 2.470999985)
(1323.61189 387.2135112 -3.761637397)
(1309.000784 395.9910559 -3.543925539)
(1297.985807 405.5447541 -5.462777655)
(1285.933071 411.8417016 -3.299998122)
(1267.508069 414.2995843 -1.436819923)
(1256.165324 412.0310172 -0.9530214924)
(1249.056046 408.4323558 2.256731447)
(1235.685598 413.3585161 5.272181136)
(1219.609209 409.981611 2.886875634)
(1207.675967 407.6035497 0.8034345316)
(1204.532626 399.6978612 3.413444438)
(1184.879169 392.0887583 0.5672851128)
(1179.043856 388.3816608 -3.109954699)
(1167.878572 381.8614403 -1.215057116)
(1156.694956 372.838239 0.3364003348)
(1157.065997 370.2384691 0.5129550815)
(1150.567139 359.368218 2.11118195)
(1142.05049 350.2658984 1.986381832)
(1143.234996 341.7631885 3.002792326)
(1150.267747 335.2960596 -1.470667216)
(1162.220056 320.9176188 -2.766808113)
(1566.508438 154.9999213 3.410384188)
(1540.061137 183.470003 1.201400614)
(1520.798941 209.0379501 3.438994278)
(1496.88851 234.542788 3.428031345)
(1479.752024 264.6015594 -0.6151839383)
(1456.421498 290.2805783 -1.789512175)
(1430.397865 311.5094694 3.664295824)
(1411.34233 325.9211195 3.850338182)
(1392.087707 350.8547354 5.611005573)
(1373.137547 369.3878903 1.689562097)
(1360.769064 387.598374 -5.273570615)
(1338.383319 397.3629108 -3.514761086)
(1324.432 406.8505949 -2.894786292)
(1311.413622 413.2815901 0.09715313373)
(1300.35432 419.2658307 4.298188044)
(1291.563799 418.7897498 2.978408067)
(1279.961066 420.4485002 2.128330964)
(1263.266594 418.7053596 3.473343511)
(1250.069 417.0667845 2.719392623)
(1241.537851 414.6289592 -1.239649791)
(1231.763301 411.5173473 3.650588841)
(1217.497294 407.6880797 5.380646282)
(1211.407007 402.5358365 2.340569243)
(1202.805667 393.9804105 2.00591087)
(1198.84351 385.8754127 4.412773438)
(1193.144425 380.1397018 1.321477686)
(1191.788866 373.2947673 -1.015883151)
(1190.281815 363.9631005 -1.086178892)
(1185.534937 354.1899876 2.237538453)
(1194.082438 340.8421974 1.698310709)
(1613.162942 117.7453973 -3.094132746)
(1592.181994 142.4554544 -4.127226029)
(1570.130815 171.085534 -3.886634934)
(1543.619335 194.2093734 -0.64834299)
(1522.61295 221.5005739 -3.196742746)
(1495.055339 251.7740016 -3.31002292)
(1473.96062 272.8984734 -5.284081488)
(1459.07349 296.052238 -2.905700821)
(1438.508555 325.5119643 -2.138785602)
(1416.655992 345.00173 0.8389639387)
(1402.495631 362.1535297 3.921275366)
(1378.786604 377.8739802 -1.45153672)
(1362.152184 390.0499774 -3.372860699)
(1347.15499 404.0289584 -1.436114591)
(1330.678679 413.9384646 2.303788788)
(1327.349889 417.8846594 3.550164209)
(1313.948752 421.0770463 0.6697709044)
(1299.231599 423.0393238 1.255427592)
(1292.169503 426.6073211 2.535371372)
(1281.110071 424.3254944 4.192276439)
(1275.678763 421.4907548 0.5727733323)
(1261.028924 420.5067039 -0.185032359)
(1254.497716 415.8413382 -1.291240485)
(1243.400249 409.8685043 4.026248293)
(1239.535168 403.1747072 1.525457593)
(1231.377804 399.5369062 -1.280503145)
(1226.673196 395.73775 3.165794792)
(1222.34402 381.8131794 4.516810451)
(1227.94759 367.7786038 4.364660426)
(1234.759194 360.0132395 7.28907005)
(1638.913874 95.93045295 -1.637196862)
(1623.024233 110.4318741 -2.158606015)
(1604.875968 128.7444249 3.397681894)
(1585.613588 153.25127 -2.578131242)
(1565.819473 181.3712033 -3.530558116)
(1543.137616 206.5232671 -2.074667167)
(1523.436268 234.5454154 -2.925230785)
(1500.544509 264.5354567 -5.260860277)
(1478.371532 285.1874583 -1.225360352)
(1454.184507 310.0198149 -0.3344970677)
(1435.854214 328.4574255 -1.267308311)
(1420.781705 348.8363828 1.801654977)
(1403.248487 368.7591081 -0.8456935053)
(1381.370169 383.9906655 -5.649892656)
(1361.550937 399.9985123 -4.777354341)
(1356.78542 409.4202717 -1.020613745)
(1344.951201 414.3929728 -1.822078789)
(1334.246651 418.2421192 -1.453062427)
(1327.621525 428.4841309 -0.6555357986)
(1317.809067 429.4792757 2.160362499)
(1310.972991 428.7200956 2.133260397)
(1299.312951 427.9788493 3.260822579)
(1285.182379 426.6213426 1.931850892)
(1272.213264 420.957774 -2.109377166)
(1270.99856 418.8569285 3.161403992)
(1270.011914 412.7832348 1.038433817)
(1260.993031 406.295535 -2.897910635)
(1257.956912 399.5387449 -1.461552964)
(1260.454899 388.2136415 -1.196472313)
(1267.331051 374.2325429 -0.3397877219)
(1665.392746 69.94045083 -2.321899519)
(1653.526063 85.01297764 -1.010181489)
(1637.11305 99.03167955 -2.614359782)
(1622.749212 118.622928 -0.5256094885)
(1602.630731 147.5313476 2.939633991)
(1579.600722 173.3580907 -0.6057970611)
(1562.735423 194.4253112 -0.7107818526)
(1540.017092 222.6630784 -3.197184277)
(1517.139639 244.1347386 -2.884559777)
(1495.736179 266.7430471 -2.645916709)
(1475.172497 297.116077 1.16318017)
(1456.084496 319.7177713 2.391384372)
(1436.99282 337.0146142 -0.240095924)
(1421.229085 356.9610537 -0.3730375452)
(1409.007164 371.1794276 -2.352269644)
(1391.765247 387.1828628 -3.581977195)
(1380.776604 401.7732049 -0.7639135305)
(1369.769198 413.5120249 -0.197157426)
(1358.047989 418.0020136 -2.904924909)
(1344.008796 422.7700828 -0.7190706255)
(1335.54747 425.673987 -0.9294068391)
(1327.365369 429.2126112 0.6659706927)
(1317.138144 430.5083125 0.343578154)
(1310.342236 430.1284062 1.499577086)
(1297.395379 427.8380288 -0.3229204412)
(1298.263917 421.8361421 0.6975593075)
(1288.64924 418.3691354 1.491118287)
(1282.087339 411.5507531 2.652362272)
(1284.689527 405.654467 1.153422018)
(1289.31931 398.8708656 -0.4561425329)
(1675.341033 54.21952043 3.08995036)
(1667.261911 64.11566112 1.303611161)
(1656.447082 83.01578938 2.315571881)
(1644.17607 99.59582126 0.3266633815)
(1630.507105 112.1524285 -0.5500984442)
(1612.531851 134.691838 2.147902584)
(1592.378217 155.5231228 2.591626744)
(1573.520409 176.7040154 3.318793872)
(1556.756626 203.7659726 -0.3890983056)
(1541.133756 227.228101 0.9051235253)
(1520.892491 254.0358751 1.628018495)
(1500.875049 278.7737079 -4.687112914)
(1486.997978 300.3321711 -2.756346394)
(1470.433459 323.5136937 2.492270835)
(1443.133106 347.8739519 -0.7446555369)
(1426.343949 364.9050996 0.2871754926)
(1407.451397 381.4156302 1.310671373)
(1394.887193 395.8697014 0.2333228499)
(1385.120056 406.2408705 -0.2027772403)
(1373.840146 416.7738706 -2.766077325)
(1363.528153 427.225945 -1.772482644)
(1351.946535 433.2653195 -1.855732035)
(1343.701834 434.8962045 -0.8562092718)
(1331.620096 436.4567277 -0.6360850249)
(1329.283826 431.7285161 2.53897777)
(1322.37611 432.3790056 2.566514459)
(1314.620361 430.9867851 3.250923861)
(1313.048584 425.5598076 0.08979543452)
(1308.745119 423.0387285 1.473713565)
(1694.186264 44.83055407 3.715656405)
(1689.408682 54.64729279 1.798638518)
(1681.845633 62.28903887 1.497560435)
(1666.726574 73.08619609 1.686728496)
(1655.76781 89.00292881 1.856660767)
(1642.467775 104.6168295 1.649382856)
(1628.68659 124.4430634 0.3212420582)
(1615.396496 142.3105512 -2.078216736)
(1599.73988 166.3734321 -2.943715144)
(1579.637571 189.1781304 -1.62862376)
(1557.102103 213.9975288 -2.734113843)
(1538.940741 237.2721663 -1.469128731)
(1520.93891 266.4519382 -6.540603616)
(1505.611121 286.947512 -3.630066764)
(1481.082001 314.7894627 -2.591459669)
(1465.1737 336.8443288 -4.951004735)
(1446.341161 354.2133879 -5.927594418)
(1427.480914 373.1115784 -2.165291494)
(1412.802177 388.1697589 -0.9746785353)
(1406.33409 400.1662162 -1.350602333)
(1394.620172 413.7894681 -2.878613016)
(1377.463742 420.0220797 -2.593826395)
(1370.937895 426.9276354 0.8974781938)
(1359.267847 434.7308842 1.292467833)
(1358.16787 438.1180771 -1.751483507)
(1701.739655 33.86538534 -2.328712181)
(1694.507902 38.50085212 -2.307796686)
(1685.859222 46.31449025 -0.7689102577)
(1680.948374 56.88125055 -0.1530113222)
(1672.564948 68.22080349 0.09955844228)
(1665.125439 79.34416529 -1.803552026)
(1656.61628 92.04726306 -0.4451812106)
(1641.305557 114.1726861 -0.5191299547)
(1626.856973 127.2614348 -0.1023361683)
(1609.876373 154.729907 -3.265932099)
(1592.462851 179.9143347 -1.560590127)
(1576.237575 200.662731 0.3155398684)
(1558.826569 228.2665966 -1.494555035)
(1538.964269 252.1639865 -4.676546614)
(1517.862608 274.9711693 -7.544721346)
(1499.940574 299.0107917 -3.828456692)
(1484.356171 320.7711755 -4.599069558)
(1465.458505 343.4188753 -3.869799282)
(1449.510376 365.5620744 3.171802726)
(1708.95484 25.21492934 -0.6218403111)
(1703.945899 27.70344841 0.07913778954)
(1704.380006 32.43703736 -1.468866836)
(1696.412128 42.9171928 -1.959830836)
(1686.447459 55.08707422 -2.710578459)
(1677.400524 61.52439777 -1.819775838)
(1667.287359 75.54337471 -0.152500898)
(1658.913255 87.92493031 -3.113998911)
(1644.106225 105.7368341 -1.094012085)
(1634.240794 119.5503358 -0.2264681469)
(1620.89136 141.902063 0.8851040215)
(1605.840074 166.1209345 0.3896354288)
(1590.16389 184.2889116 2.575503617)
(1570.66331 210.2500738 2.135532495)
(1720.481248 15.73977532 -4.509238944)
(1719.151541 20.65678763 -4.301130846)
(1715.3185 27.95060736 -2.451576349)
(1706.360299 31.83873758 -3.651800984)
(1699.010778 42.95612925 -1.278108838)
(1690.3362 52.45935459 0.4614242335)
(1685.347007 58.62253565 -1.145883302)
(1676.436237 67.71721683 0.4824722176)
(1724.281713 12.00065947 2.482126575)
)
;

boundaryField
{
    flow
    {
        type            calculated;
        value           nonuniform List<vector> 
15
(
(397.9324216 75.85520793 0.1413553351)
(602.3043573 90.31482213 0.05690148139)
(716.4463139 104.2594814 2.837659419)
(786.4479264 132.8633595 4.656353223)
(857.7720689 161.5564687 0.5156320766)
(926.8734728 193.2752146 -6.057057267)
(984.5734607 217.6833946 4.586296462)
(1031.891069 239.3663762 -1.418406336)
(1086.042966 270.7529102 -0.6482915795)
(1120.551524 295.4116237 3.12989635)
(1162.220056 320.9176188 -2.766808113)
(1194.082438 340.8421974 1.698310709)
(1234.759194 360.0132395 7.28907005)
(1267.331051 374.2325429 -0.3397877219)
(1289.31931 398.8708656 -0.4561425329)
)
;
    }
    obstacle
    {
        type            calculated;
        value           nonuniform List<vector> 
30
(
(198.9873444 53.31849833 -3.955284043)
(173.763669 46.55983487 1.982207993)
(185.109588 49.59996447 7.980098681)
(185.6469936 49.7439621 -0.2638729699)
(165.7103146 44.40194482 -6.543092526)
(167.4981996 44.88100739 -3.4170654)
(156.7637186 42.00471189 -0.7436141248)
(155.7458967 41.73198713 -4.924290135)
(170.7892601 45.76284439 3.113477526)
(152.7650723 40.93327784 -19.55137525)
(165.2621842 44.28186866 2.353909292)
(132.7692101 35.57540268 11.14667465)
(150.2638805 40.2630855 5.639346542)
(144.9493902 38.83907193 -3.52148157)
(121.3247322 32.50886407 13.58504904)
(136.3538579 36.535906 -11.17389771)
(124.0685654 33.24407197 0.6958598056)
(136.9526387 36.696349 -4.786041892)
(134.1421154 35.94327137 -15.24831474)
(146.7339172 39.31723469 21.10936638)
(133.3842965 35.74021459 -4.157321675)
(132.4725825 35.49592138 0.8359566628)
(133.4655206 35.76197853 -1.598531699)
(137.5370548 36.85294283 0.9423716589)
(143.4191739 38.42905171 5.214236712)
(142.4678111 38.17413499 4.89379086)
(142.5648278 38.20013036 10.72390564)
(168.9248196 45.26326908 -2.643385676)
(184.4710405 49.42886641 7.701461108)
(210.5964237 56.42914149 11.73353111)
)
;
    }
    frontAndBack
    {
        type            empty;
    }
    procBoundary1to0
    {
        type            processor;
        value           nonuniform List<vector> 
21
(
(386.7965293 112.7596431 -2.050685146)
(664.4580929 200.648791 1.992945403)
(854.3804123 277.7950947 -0.9803845129)
(1008.553113 326.1160222 -2.385355454)
(1112.687009 343.5306745 0.2454029229)
(1213.827335 338.0977007 -0.8029334139)
(1292.965496 316.1190818 -1.573067879)
(1359.82135 286.0332405 0.628699379)
(1435.523716 245.5240839 -2.967292649)
(1501.388343 205.9643924 -0.8300907466)
(1548.865549 169.5375364 1.683399188)
(1593.971811 129.59094 2.333482598)
(1627.523364 99.97662001 -3.31685553)
(1656.076346 74.62163663 -0.6981967455)
(1676.526832 60.38035541 0.501510942)
(1683.539319 42.7983384 -0.5903472304)
(1704.127058 35.58705806 4.174532453)
(1707.764985 24.61065292 -1.775225979)
(1716.354029 20.3631436 -3.516247353)
(1724.802558 13.37566859 -2.759413836)
(1724.100971 10.44083076 2.765791939)
)
;
    }
    procBoundary1to3
    {
        type            processor;
        value           nonuniform List<vector> 
36
(
(1308.895408 415.0672184 -0.774062663)
(1350.696203 437.0576823 -1.451416958)
(1341.068219 438.2864948 0.558142747)
(1334.485653 433.6727675 -0.8636624825)
(1308.895408 415.0672184 -0.774062663)
(1335.730024 429.0085792 -0.4092966907)
(1432.154293 380.0775606 0.7729719981)
(1421.880995 390.6878949 -0.1512607561)
(1406.979325 409.2636492 -2.644049151)
(1398.629301 417.3195573 -5.998779583)
(1386.462495 430.1325907 -0.4948764839)
(1350.696203 437.0576823 -1.451416958)
(1369.221018 434.3729352 -4.949084659)
(1553.265427 238.3437989 0.4121871437)
(1532.380899 261.2823821 -2.413029175)
(1516.45365 285.9059961 0.6604352868)
(1496.934418 308.5224177 -4.170235396)
(1432.154293 380.0775606 0.7729719981)
(1477.951778 328.1829111 -3.625510035)
(1666.780786 81.9337735 1.059001857)
(1658.150231 94.61909711 0.184977841)
(1645.918152 113.7350648 1.223879906)
(1633.398699 132.4468483 5.115129269)
(1626.024009 153.9372411 5.379517516)
(1553.265427 238.3437989 0.4121871437)
(1606.165163 174.1586669 -1.685674484)
(1722.841796 15.27729079 2.364368794)
(1716.982409 19.40224152 2.385104513)
(1714.285974 24.92154293 3.397262506)
(1709.869669 29.75811214 2.080998746)
(1703.664112 37.98208658 0.1463668293)
(1701.530746 45.65362369 1.133831652)
(1666.780786 81.9337735 1.059001857)
(1693.499636 54.90813568 2.086293418)
(1722.841796 15.27729079 2.364368794)
(1726.8787 11.59169448 -0.768653495)
)
;
    }
}


// ************************************************************************* //
