/*--------------------------------*- C++ -*----------------------------------*\
| =========                 |                                                 |
| \\      /  F ield         | OpenFOAM: The Open Source CFD Toolbox           |
|  \\    /   O peration     | Version:  2406                                  |
|   \\  /    A nd           | Website:  www.openfoam.com                      |
|    \\/     M anipulation  |                                                 |
\*---------------------------------------------------------------------------*/
FoamFile
{
    version     2.0;
    format      ascii;
    arch        "LSB;label=32;scalar=64";
    class       volScalarField;
    location    "0.011";
    object      dsmcRhoNMean;
}
// * * * * * * * * * * * * * * * * * * * * * * * * * * * * * * * * * * * * * //

dimensions      [0 -3 0 0 0 0 0];

internalField   nonuniform List<scalar> 
654
(
7.338727273
9.438545455
9.482727273
9.478
9.499818182
9.490545455
9.466
9.498545455
9.458363636
9.432727273
9.469272727
9.469090909
9.474363636
9.488
9.517818182
9.578909091
9.582363636
9.751636364
10.31509091
13.08781818
7.406181818
9.524545455
9.613090909
9.573272727
9.553272727
9.588545455
9.586
9.584181818
9.576181818
9.572727273
9.584363636
9.616
9.645636364
9.681454545
9.682181818
9.767090909
9.869636364
10.15527273
10.78909091
12.48109091
7.456
9.624545455
9.622363636
9.592363636
9.614363636
9.610363636
9.639272727
9.603636364
9.632545455
9.607272727
9.643090909
9.604909091
9.554909091
9.597272727
9.616
9.616181818
9.719454545
9.935090909
10.38581818
11.41581818
7.471454545
9.567090909
9.665818182
9.652363636
9.594
9.581454545
9.573636364
9.576727273
9.553636364
9.589272727
9.551272727
9.584
9.617090909
9.546727273
9.576
9.566181818
9.634181818
9.822181818
10.16981818
10.92709091
7.451090909
9.555818182
9.520181818
9.533272727
9.561636364
9.571818182
9.545818182
9.540727273
9.544363636
9.533454545
9.537454545
9.535818182
9.570363636
9.575090909
9.611818182
9.712
9.738545455
9.906727273
10.12
10.47872727
7.410181818
9.512363636
9.611090909
9.531272727
9.517272727
9.510181818
9.510363636
9.567818182
9.558
9.581636364
9.573090909
9.549818182
9.494363636
9.492181818
9.579272727
9.575272727
9.647818182
9.750545455
9.869272727
10.14381818
7.461272727
9.586727273
9.646363636
9.634545455
9.706181818
9.680181818
9.674727273
9.642181818
9.678363636
9.719818182
9.692181818
9.708181818
9.759454545
9.698
9.722909091
9.687454545
9.734545455
9.784545455
9.917454545
10.09490909
7.432909091
9.548727273
9.588909091
9.57
9.577090909
9.584181818
9.613090909
9.615636364
9.614181818
9.579454545
9.579090909
9.538909091
9.569818182
9.592909091
9.609090909
9.648363636
9.710363636
9.76
9.848727273
9.930727273
7.473272727
9.635272727
9.668181818
9.663090909
9.598
9.585272727
9.611272727
9.622181818
9.566181818
9.558
9.635272727
9.66
9.599818182
9.586181818
9.569272727
9.632727273
9.683636364
9.723636364
9.756727273
9.889636364
7.432
9.469090909
9.579818182
9.562363636
9.584181818
9.600181818
9.563454545
9.574909091
9.624
9.627454545
9.594181818
9.594909091
9.644909091
9.630727273
9.645818182
9.670363636
9.692545455
9.662545455
9.731454545
9.740181818
7.474727273
9.597090909
9.609454545
9.600363636
9.561454545
9.542
9.511818182
9.527636364
9.531090909
9.551818182
9.608
9.587636364
9.623818182
9.637818182
9.608727273
9.537090909
9.557454545
9.647090909
9.718545455
9.791636364
7.456909091
9.625272727
9.668
9.651454545
9.697454545
9.696545455
9.724545455
9.736727273
9.727272727
9.657272727
9.602
9.555818182
9.500909091
9.583818182
9.606545455
9.707454545
9.75
9.711636364
9.705454545
9.738181818
7.455818182
9.586
9.624
9.604181818
9.559636364
9.553818182
9.590909091
9.554181818
9.544181818
9.555454545
9.614909091
9.647454545
9.671818182
9.663454545
9.598363636
9.613090909
9.648363636
9.677272727
9.716
9.724363636
7.484909091
9.596181818
9.674727273
9.686181818
9.716363636
9.714727273
9.674363636
9.694727273
9.703272727
9.687090909
9.663272727
9.694181818
9.672
9.675272727
9.679818182
9.641636364
9.602545455
9.556727273
9.582909091
9.628363636
7.406909091
9.576545455
9.599454545
9.568727273
9.594909091
9.636545455
9.661272727
9.661454545
9.670363636
9.688
9.689636364
9.674545455
9.72
9.656363636
9.629090909
9.600363636
9.589090909
9.589454545
9.570909091
9.554
7.482363636
9.609818182
9.647272727
9.637636364
9.564545455
9.571090909
9.585454545
9.562181818
9.576727273
9.558727273
9.542727273
9.512909091
9.406181818
9.446363636
9.497636364
9.551272727
9.585818182
9.589454545
9.631090909
9.575090909
7.436909091
9.479090909
9.511454545
9.531818182
9.548
9.566
9.503454545
9.506909091
9.489454545
9.481090909
9.506363636
9.539636364
9.575454545
9.632181818
9.573090909
9.584
9.601636364
9.628545455
9.590545455
9.605818182
7.412181818
9.559454545
9.601090909
9.617818182
9.600909091
9.557818182
9.600181818
9.598909091
9.597090909
9.601454545
9.621818182
9.602181818
9.620909091
9.601454545
9.62
9.595272727
9.622363636
9.584727273
9.611090909
9.602
7.476727273
9.633272727
9.644363636
9.576727273
9.587818182
9.627636364
9.595090909
9.630909091
9.593454545
9.586545455
9.577272727
9.585090909
9.536363636
9.559818182
9.549272727
9.541636364
9.575454545
9.560363636
9.566
9.553454545
7.425272727
9.563090909
9.708545455
9.710727273
9.688
9.686545455
9.66
9.633454545
9.638
9.635090909
9.658727273
9.681272727
9.684363636
9.640909091
9.640363636
9.625272727
9.648181818
9.663272727
9.698
9.691818182
7.431818182
9.517818182
9.503272727
9.507090909
9.531090909
9.561272727
9.545636364
9.485090909
9.529818182
9.560727273
9.577272727
9.563272727
9.569818182
9.634363636
9.672727273
9.687454545
9.681090909
9.685272727
9.678545455
9.658909091
7.434181818
9.566181818
9.596363636
9.528181818
9.563818182
9.534909091
9.601636364
9.651454545
9.710545455
9.671636364
9.646909091
9.626727273
9.647636364
9.648545455
9.604727273
9.623636364
9.587090909
9.583636364
9.627636364
9.617636364
23.24381818
26.46854545
27.61345455
28.27254545
28.16636364
28.37490909
28.44945455
28.62781818
27.67581818
27.54472727
15.83054545
18.84563636
20.95672727
22.364
23.46727273
24.11581818
24.34018182
24.69109091
24.80272727
24.51
13.16290909
15.21909091
16.85927273
18.44654545
19.67290909
20.85763636
21.68236364
22.43636364
22.78981818
22.95690909
11.85872727
12.966
14.24127273
15.70781818
16.91309091
18.13509091
19.26672727
20.10072727
20.80290909
21.40854545
11.07018182
11.87672727
12.742
13.75763636
14.84781818
15.80381818
16.82090909
17.62727273
18.72127273
19.72490909
10.57072727
11.06036364
11.59181818
12.35854545
13.12327273
14.14345455
15.22545455
16.10509091
16.986
17.79763636
10.37145455
10.698
11.00618182
11.616
12.14072727
12.83345455
13.59563636
14.41363636
15.34381818
16.16436364
10.05763636
10.27163636
10.51254545
10.88290909
11.26781818
11.73181818
12.37509091
13.05381818
13.81618182
14.56290909
9.963636364
10.07163636
10.19127273
10.43363636
10.73890909
11.10727273
11.49927273
11.94181818
12.55327273
13.25909091
9.868727273
9.972
10.09581818
10.17581818
10.35727273
10.57418182
10.95163636
11.26
11.59472727
12.04872727
9.836
9.835636364
9.944181818
10.074
10.19036364
10.29490909
10.45418182
10.756
10.968
11.35436364
9.726909091
9.690181818
9.650909091
9.711272727
9.741636364
9.885090909
10.01490909
10.27327273
10.56527273
10.772
9.710727273
9.718727273
9.664727273
9.667818182
9.68
9.766727273
9.896
9.900181818
9.981818182
10.27072727
9.65
9.595636364
9.604181818
9.58
9.556727273
9.507272727
9.516545455
9.643636364
9.774363636
9.895272727
9.543454545
9.489818182
9.473272727
9.452545455
9.406
9.494545455
9.492545455
9.502909091
9.537454545
9.596727273
9.624909091
9.592727273
9.511090909
9.456181818
9.494727273
9.438545455
9.405636364
9.400363636
9.457454545
9.459090909
9.548
9.524909091
9.452909091
9.415454545
9.323454545
9.304727273
9.327818182
9.328909091
9.266545455
9.377636364
9.617454545
9.464909091
9.442
9.374545455
9.389818182
9.353636364
9.294909091
9.270545455
9.249818182
9.212545455
9.567090909
9.584181818
9.549818182
9.521636364
9.435090909
9.333818182
9.268727273
9.216909091
9.173818182
9.200545455
9.618909091
9.568909091
9.509454545
9.405090909
9.374909091
9.349272727
9.333090909
9.305818182
9.194909091
9.140909091
9.614181818
9.558545455
9.481818182
9.409818182
9.310363636
9.259818182
9.190727273
9.157272727
9.196181818
9.147818182
9.588
9.468
9.436727273
9.403090909
)
;

boundaryField
{
    flow
    {
        type            calculated;
        value           nonuniform List<scalar> 
42
(
7.338727273
7.406181818
7.456
7.471454545
7.451090909
7.410181818
7.461272727
7.432909091
7.473272727
7.432
7.474727273
7.456909091
7.455818182
7.484909091
7.406909091
7.482363636
7.436909091
7.412181818
7.476727273
7.425272727
7.431818182
7.434181818
7.338727273
9.438545455
9.482727273
9.478
9.499818182
9.490545455
9.466
9.498545455
9.458363636
9.432727273
9.469272727
9.469090909
9.474363636
9.488
9.517818182
9.578909091
9.582363636
9.751636364
10.31509091
13.08781818
)
;
    }
    obstacle
    {
        type            calculated;
        value           nonuniform List<scalar> 10(23.24381818 26.46854545 27.61345455 28.27254545 28.16636364 28.37490909 28.44945455 28.62781818 27.67581818 27.54472727);
    }
    frontAndBack
    {
        type            empty;
    }
    procBoundary0to1
    {
        type            processor;
        value           nonuniform List<scalar> 
21
(
27.29945455
24.61109091
22.996
21.50909091
20.20181818
18.77036364
16.96272727
15.29236364
14.01363636
12.61963636
11.80745455
11.08781818
10.46090909
9.969636364
9.756909091
9.467818182
9.421090909
9.229272727
9.189818182
9.116727273
9.031454545
)
;
    }
    procBoundary0to2
    {
        type            processor;
        value           nonuniform List<scalar> 
31
(
7.418363636
9.575818182
9.658545455
9.631090909
9.612363636
9.618727273
9.626727273
9.599818182
9.550727273
9.624545455
9.635090909
9.678909091
9.656181818
9.601636364
9.601272727
9.594727273
9.605090909
9.620545455
9.551454545
9.526727273
9.365090909
9.309272727
9.237272727
9.159818182
9.106
9.093272727
9.509818182
9.468
9.406545455
9.365090909
9.287090909
)
;
    }
}


// ************************************************************************* //
