/*--------------------------------*- C++ -*----------------------------------*\
| =========                 |                                                 |
| \\      /  F ield         | OpenFOAM: The Open Source CFD Toolbox           |
|  \\    /   O peration     | Version:  2406                                  |
|   \\  /    A nd           | Website:  www.openfoam.com                      |
|    \\/     M anipulation  |                                                 |
\*---------------------------------------------------------------------------*/
FoamFile
{
    version     2.0;
    format      ascii;
    arch        "LSB;label=32;scalar=64";
    class       volVectorField;
    location    "0.011";
    object      fDMean;
}
// * * * * * * * * * * * * * * * * * * * * * * * * * * * * * * * * * * * * * //

dimensions      [1 -1 -2 0 0 0 0];

internalField   uniform (0 0 0);

boundaryField
{
    flow
    {
        type            calculated;
        value           uniform (0 0 0);
    }
    obstacle
    {
        type            calculated;
        value           nonuniform List<vector> 10((4.48250627 -2.622454654 0.03375846891) (3.986691231 -2.768945451 -0.008418759478) (3.576432721 -2.820989533 -0.02134181889) (3.315370993 -2.800391237 -0.01245770516) (3.103907825 -2.805349648 0.01220079449) (2.828811614 -2.809176736 -0.01037985748) (2.82228767 -2.822535229 0.007490780833) (2.710119335 -2.852250185 -0.01672657963) (2.558736236 -2.752370812 0.01023146108) (2.48784671 -2.748908492 -0.007533542343));
    }
    frontAndBack
    {
        type            empty;
    }
    procBoundary0to1
    {
        type            processor;
        value           uniform (0 0 0);
    }
    procBoundary0to2
    {
        type            processor;
        value           uniform (0 0 0);
    }
}


// ************************************************************************* //
