/*--------------------------------*- C++ -*----------------------------------*\
| =========                 |                                                 |
| \\      /  F ield         | OpenFOAM: The Open Source CFD Toolbox           |
|  \\    /   O peration     | Version:  2406                                  |
|   \\  /    A nd           | Website:  www.openfoam.com                      |
|    \\/     M anipulation  |                                                 |
\*---------------------------------------------------------------------------*/
FoamFile
{
    version     2.0;
    format      ascii;
    arch        "LSB;label=32;scalar=64";
    class       volScalarField;
    location    "0.011";
    object      iDof;
}
// * * * * * * * * * * * * * * * * * * * * * * * * * * * * * * * * * * * * * //

dimensions      [0 -3 0 0 0 0 0];

internalField   nonuniform List<scalar> 
654
(
1.666239693e+20
1.457959731e+20
1.666239693e+20
3.332479385e+20
1.666239693e+20
1.666239693e+20
3.124199424e+20
1.666239693e+20
1.874519654e+20
1.666239693e+20
1.874519654e+20
1.874519654e+20
8.331198464e+19
2.082799616e+20
2.291079578e+20
8.331198464e+19
2.707639501e+20
1.457959731e+20
2.707639501e+20
2.915919462e+20
1.24967977e+20
2.499359539e+20
1.874519654e+20
2.082799616e+20
1.457959731e+20
1.457959731e+20
2.291079578e+20
2.499359539e+20
1.457959731e+20
2.291079578e+20
3.332479385e+20
1.041399808e+20
3.124199424e+20
2.499359539e+20
2.707639501e+20
2.499359539e+20
2.499359539e+20
2.082799616e+20
2.499359539e+20
2.082799616e+20
1.041399808e+20
1.457959731e+20
1.24967977e+20
2.499359539e+20
2.082799616e+20
1.666239693e+20
2.707639501e+20
2.291079578e+20
1.666239693e+20
1.457959731e+20
1.457959731e+20
2.291079578e+20
3.124199424e+20
2.291079578e+20
1.874519654e+20
1.874519654e+20
2.915919462e+20
1.874519654e+20
1.874519654e+20
2.707639501e+20
1.666239693e+20
2.707639501e+20
1.874519654e+20
2.707639501e+20
1.457959731e+20
1.666239693e+20
8.331198464e+19
1.041399808e+20
2.082799616e+20
2.499359539e+20
1.666239693e+20
1.041399808e+20
1.874519654e+20
2.707639501e+20
1.457959731e+20
1.874519654e+20
2.915919462e+20
2.499359539e+20
1.874519654e+20
2.915919462e+20
2.082799616e+20
1.666239693e+20
2.291079578e+20
1.666239693e+20
1.874519654e+20
1.666239693e+20
1.457959731e+20
2.291079578e+20
1.666239693e+20
1.874519654e+20
1.874519654e+20
1.666239693e+20
1.666239693e+20
1.457959731e+20
1.041399808e+20
2.082799616e+20
2.707639501e+20
3.332479385e+20
2.499359539e+20
1.041399808e+20
1.041399808e+20
2.707639501e+20
3.124199424e+20
1.666239693e+20
1.874519654e+20
1.041399808e+20
2.707639501e+20
1.24967977e+20
1.457959731e+20
2.707639501e+20
6.248398848e+19
2.291079578e+20
4.165599232e+19
2.915919462e+20
2.082799616e+20
1.457959731e+20
2.291079578e+20
1.457959731e+20
2.291079578e+20
2.082799616e+20
2.291079578e+20
1.041399808e+20
1.24967977e+20
1.24967977e+20
2.291079578e+20
2.291079578e+20
2.707639501e+20
2.499359539e+20
2.707639501e+20
1.666239693e+20
2.291079578e+20
3.124199424e+20
1.874519654e+20
2.707639501e+20
1.874519654e+20
1.666239693e+20
1.457959731e+20
2.082799616e+20
2.707639501e+20
2.499359539e+20
1.666239693e+20
1.457959731e+20
2.499359539e+20
2.291079578e+20
1.874519654e+20
2.707639501e+20
2.082799616e+20
2.707639501e+20
1.24967977e+20
1.874519654e+20
2.707639501e+20
2.082799616e+20
1.874519654e+20
1.666239693e+20
1.874519654e+20
8.331198464e+19
1.24967977e+20
1.457959731e+20
3.124199424e+20
1.24967977e+20
1.24967977e+20
1.666239693e+20
2.291079578e+20
2.707639501e+20
2.291079578e+20
1.874519654e+20
1.666239693e+20
3.124199424e+20
2.291079578e+20
1.874519654e+20
2.915919462e+20
2.082799616e+20
2.499359539e+20
1.874519654e+20
2.082799616e+20
2.082799616e+20
2.499359539e+20
1.874519654e+20
1.457959731e+20
2.291079578e+20
1.666239693e+20
1.874519654e+20
1.24967977e+20
2.499359539e+20
1.874519654e+20
1.457959731e+20
2.499359539e+20
1.24967977e+20
1.666239693e+20
1.874519654e+20
2.915919462e+20
2.291079578e+20
1.874519654e+20
1.041399808e+20
1.24967977e+20
1.874519654e+20
2.082799616e+20
2.915919462e+20
2.291079578e+20
1.041399808e+20
1.666239693e+20
2.499359539e+20
8.331198464e+19
2.082799616e+20
2.291079578e+20
1.457959731e+20
1.874519654e+20
2.707639501e+20
3.332479385e+20
1.457959731e+20
1.24967977e+20
1.666239693e+20
1.457959731e+20
1.457959731e+20
1.874519654e+20
1.874519654e+20
1.24967977e+20
2.291079578e+20
3.332479385e+20
1.666239693e+20
1.874519654e+20
1.24967977e+20
2.499359539e+20
1.874519654e+20
2.291079578e+20
2.291079578e+20
1.24967977e+20
2.499359539e+20
2.915919462e+20
2.291079578e+20
2.499359539e+20
2.915919462e+20
2.082799616e+20
2.499359539e+20
2.082799616e+20
2.082799616e+20
2.291079578e+20
1.874519654e+20
1.874519654e+20
2.291079578e+20
1.24967977e+20
2.707639501e+20
2.082799616e+20
1.874519654e+20
1.666239693e+20
1.666239693e+20
2.082799616e+20
1.874519654e+20
1.457959731e+20
1.457959731e+20
2.082799616e+20
2.499359539e+20
2.915919462e+20
1.874519654e+20
3.332479385e+20
2.291079578e+20
1.666239693e+20
1.874519654e+20
2.499359539e+20
3.124199424e+20
2.082799616e+20
2.082799616e+20
2.082799616e+20
3.540759347e+20
8.331198464e+19
1.666239693e+20
1.457959731e+20
2.915919462e+20
2.291079578e+20
8.331198464e+19
2.082799616e+20
3.540759347e+20
1.874519654e+20
1.874519654e+20
2.499359539e+20
2.499359539e+20
1.666239693e+20
1.041399808e+20
3.540759347e+20
1.874519654e+20
1.24967977e+20
1.666239693e+20
1.457959731e+20
1.874519654e+20
1.666239693e+20
2.082799616e+20
1.874519654e+20
1.874519654e+20
2.291079578e+20
1.666239693e+20
1.24967977e+20
6.248398848e+19
2.291079578e+20
1.457959731e+20
2.707639501e+20
1.041399808e+20
2.291079578e+20
1.457959731e+20
1.874519654e+20
1.457959731e+20
8.331198464e+19
2.499359539e+20
2.915919462e+20
2.082799616e+20
3.124199424e+20
1.666239693e+20
1.874519654e+20
1.874519654e+20
6.248398848e+19
2.915919462e+20
2.082799616e+20
2.291079578e+20
2.707639501e+20
6.248398848e+19
1.666239693e+20
2.291079578e+20
2.082799616e+20
2.915919462e+20
1.874519654e+20
2.915919462e+20
1.666239693e+20
1.874519654e+20
1.457959731e+20
1.666239693e+20
1.041399808e+20
2.499359539e+20
1.457959731e+20
2.915919462e+20
1.874519654e+20
1.666239693e+20
1.874519654e+20
2.915919462e+20
1.457959731e+20
1.874519654e+20
1.666239693e+20
2.082799616e+20
1.666239693e+20
2.499359539e+20
2.291079578e+20
2.291079578e+20
1.874519654e+20
1.457959731e+20
2.499359539e+20
1.666239693e+20
2.291079578e+20
1.666239693e+20
2.915919462e+20
2.499359539e+20
8.331198464e+19
2.499359539e+20
1.041399808e+20
2.499359539e+20
2.291079578e+20
1.457959731e+20
1.874519654e+20
2.082799616e+20
1.457959731e+20
1.666239693e+20
2.915919462e+20
6.248398848e+19
1.874519654e+20
2.082799616e+20
2.915919462e+20
1.874519654e+20
1.24967977e+20
2.915919462e+20
8.331198464e+19
2.291079578e+20
1.874519654e+20
2.707639501e+20
2.291079578e+20
1.874519654e+20
2.499359539e+20
1.874519654e+20
2.082799616e+20
1.24967977e+20
1.874519654e+20
1.24967977e+20
1.24967977e+20
1.457959731e+20
1.457959731e+20
1.457959731e+20
2.082799616e+20
2.291079578e+20
6.248398848e+19
1.457959731e+20
2.499359539e+20
2.499359539e+20
1.874519654e+20
1.666239693e+20
2.291079578e+20
1.874519654e+20
2.082799616e+20
1.874519654e+20
1.874519654e+20
2.499359539e+20
1.041399808e+20
1.874519654e+20
3.332479385e+20
2.499359539e+20
1.874519654e+20
2.291079578e+20
2.915919462e+20
1.666239693e+20
1.666239693e+20
2.291079578e+20
2.499359539e+20
1.666239693e+20
1.874519654e+20
1.666239693e+20
1.457959731e+20
2.499359539e+20
2.915919462e+20
2.291079578e+20
2.499359539e+20
2.499359539e+20
2.291079578e+20
1.457959731e+20
1.041399808e+20
3.749039309e+20
1.457959731e+20
1.457959731e+20
2.499359539e+20
2.499359539e+20
2.291079578e+20
1.041399808e+20
2.082799616e+20
2.082799616e+20
2.291079578e+20
2.291079578e+20
1.041399808e+20
1.24967977e+20
1.874519654e+20
2.915919462e+20
2.082799616e+20
2.082799616e+20
1.24967977e+20
1.041399808e+20
2.082799616e+20
2.499359539e+20
6.061538695e+20
4.840483623e+20
6.357388371e+20
6.615102399e+20
6.016880814e+20
4.544567734e+20
5.884623351e+20
5.268291436e+20
6.411837851e+20
5.790372824e+20
4.180371515e+20
3.998660385e+20
3.814433024e+20
4.907979202e+20
5.587103615e+20
5.1937917e+20
3.923082237e+20
5.926827869e+20
5.527446424e+20
4.676839589e+20
1.46313003e+20
2.946381335e+20
4.238258913e+20
3.627636801e+20
2.578663208e+20
3.678935785e+20
3.487184208e+20
4.390242866e+20
5.527446424e+20
5.34495953e+20
3.344297211e+20
1.473190669e+20
1.907216512e+20
4.694588798e+20
2.578663205e+20
3.029711823e+20
5.230776316e+20
5.048779296e+20
5.969642138e+20
5.122252883e+20
2.508222908e+20
1.473190668e+20
1.907216512e+20
3.841027204e+20
1.504220205e+20
2.380487862e+20
3.705133224e+20
3.29268215e+20
2.874272142e+20
3.563306356e+20
2.299204332e+20
2.315013906e+20
8.476517826e+19
1.066952e+20
3.223329006e+20
2.596895846e+20
2.833337167e+20
3.512194288e+20
5.52744642e+20
2.44977312e+20
1.672148605e+20
1.052279048e+20
2.754868295e+20
2.560684803e+20
2.578663208e+20
1.514855912e+20
1.961541118e+20
2.853657863e+20
3.979761425e+20
3.117893059e+20
2.508222908e+20
1.894102288e+20
2.331042404e+20
2.774075199e+20
2.578663205e+20
3.24611981e+20
1.743592105e+20
2.414633576e+20
3.537565711e+20
3.117893059e+20
1.881167181e+20
2.946381335e+20
2.331042402e+20
6.401712002e+19
2.148886007e+20
1.298447924e+20
3.051286182e+20
2.414633576e+20
3.095369997e+20
3.117893059e+20
1.672148606e+20
2.315013908e+20
2.331042404e+20
3.841027201e+20
2.363774606e+20
3.246119812e+20
1.525643092e+20
2.414633576e+20
2.210978569e+20
2.449773118e+20
2.508222908e+20
2.946381335e+20
2.754868294e+20
2.347294401e+20
1.719108804e+20
1.514855911e+20
1.961541117e+20
2.195121431e+20
1.547684999e+20
3.117893059e+20
2.926260059e+20
2.525469718e+20
1.907216512e+20
1.920513599e+20
1.933997405e+20
3.246119812e+20
2.179490139e+20
1.756097158e+20
3.095370013e+20
2.22706648e+20
8.360743026e+19
1.683646482e+20
1.695303572e+20
1.920513601e+20
1.933997397e+20
3.895343767e+20
3.269235191e+20
1.975609273e+20
1.989880704e+20
2.227066471e+20
1.463130025e+20
2.104558084e+20
2.331042386e+20
1.280342396e+20
6.446658021e+19
1.082039934e+20
1.307694072e+20
1.536585001e+20
3.31646784e+20
2.004359809e+20
1.463130037e+20
2.104558102e+20
1.907216511e+20
1.707123206e+20
1.504220215e+20
1.731263907e+20
1.961541121e+20
3.292682168e+20
3.979761436e+20
2.004359824e+20
1.672148603e+20
1.473190672e+20
2.542955365e+20
2.133904008e+20
2.148886007e+20
1.29844793e+20
1.743592108e+20
1.975609273e+20
1.989880704e+20
2.004359824e+20
3.135278631e+20
2.525469706e+20
1.271477665e+20
1.920513594e+20
2.578663208e+20
2.164079869e+20
1.743592108e+20
2.195121445e+20
2.432076433e+20
1.336239882e+20
1.254111452e+20
1.473190672e+20
1.695303577e+20
1.493732795e+20
1.933997393e+20
3.678935777e+20
1.743592096e+20
2.414633573e+20
1.989880718e+20
2.672479765e+20
2.717241498e+20
3.156837153e+20
3.178694185e+20
1.707123206e+20
2.578663208e+20
1.947671882e+20
2.179490135e+20
2.19512143e+20
2.653174272e+20
2.449773135e+20
1.672148603e+20
1.262734861e+20
3.602520076e+20
2.347294393e+20
1.933997406e+20
1.947671896e+20
2.833337175e+20
1.317072858e+20
4.200859294e+20
6.681199412e+19
2.299204329e+20
2.735925515e+20
1.907216511e+20
1.920513607e+20
1.719108806e+20
6.492239607e+19
1.743592108e+20
1.756097156e+20
1.547685003e+20
2.895186412e+20
1.881167178e+20
1.052279044e+20
2.331042402e+20
2.133904008e+20
)
;

boundaryField
{
    flow
    {
        type            zeroGradient;
    }
    obstacle
    {
        type            calculated;
        value           nonuniform List<scalar> 10(300.6857289 151.695762 3145.110088 382.2269772 295.5771233 214.8262905 1e-300 64.39526593 708.7883731 284.8653357);
    }
    frontAndBack
    {
        type            empty;
    }
    procBoundary0to1
    {
        type            processor;
        value           nonuniform List<scalar> 
21
(
6.730170633e+20
5.159797489e+20
4.935458465e+20
5.384136507e+20
4.935458465e+20
4.486780429e+20
3.365085317e+20
4.935458465e+20
1.570373149e+20
3.365085317e+20
4.262441401e+20
2.243390219e+20
1.346034123e+20
3.140746287e+20
1.570373155e+20
1.794712164e+20
6.730170614e+19
2.467729243e+20
1.794712177e+20
2.692068246e+20
2.916407287e+20
)
;
    }
    procBoundary0to2
    {
        type            processor;
        value           nonuniform List<scalar> 
31
(
1.24967977e+20
2.082799616e+20
2.082799616e+20
1.666239693e+20
1.874519654e+20
1.874519654e+20
1.24967977e+20
1.874519654e+20
2.291079578e+20
1.666239693e+20
2.499359539e+20
2.082799616e+20
2.499359539e+20
2.707639501e+20
2.291079578e+20
1.874519654e+20
2.291079578e+20
1.457959731e+20
2.082799616e+20
1.666239693e+20
2.148886007e+20
8.656319476e+19
1.08974506e+20
1.756097144e+20
1.768782861e+20
3.117893059e+20
1.881167178e+20
3.367292964e+20
2.542955348e+20
2.148886007e+20
1.707123195e+20
)
;
    }
}


// ************************************************************************* //
