/*--------------------------------*- C++ -*----------------------------------*\
| =========                 |                                                 |
| \\      /  F ield         | OpenFOAM: The Open Source CFD Toolbox           |
|  \\    /   O peration     | Version:  2406                                  |
|   \\  /    A nd           | Website:  www.openfoam.com                      |
|    \\/     M anipulation  |                                                 |
\*---------------------------------------------------------------------------*/
FoamFile
{
    version     2.0;
    format      ascii;
    arch        "LSB;label=32;scalar=64";
    class       volScalarField;
    location    "0.011";
    object      iDofMean;
}
// * * * * * * * * * * * * * * * * * * * * * * * * * * * * * * * * * * * * * //

dimensions      [0 -3 0 0 0 0 0];

internalField   nonuniform List<scalar> 
654
(
1.528509835e+20
1.965859885e+20
1.975062072e+20
1.974077476e+20
1.978621766e+20
1.976690443e+20
1.971578116e+20
1.978356682e+20
1.969987615e+20
1.964648074e+20
1.97225976e+20
1.972221891e+20
1.973320094e+20
1.976160276e+20
1.982370805e+20
1.995094818e+20
1.99581433e+20
2.031070447e+20
2.148426738e+20
2.725930268e+20
1.542559265e+20
1.983771961e+20
2.002214205e+20
1.993920876e+20
1.989755277e+20
1.997101879e+20
1.996571712e+20
1.996193021e+20
1.994526781e+20
1.993807269e+20
1.99623089e+20
2.002820111e+20
2.008992771e+20
2.016452981e+20
2.016604457e+20
2.034289319e+20
2.055647483e+20
2.115139814e+20
2.24715144e+20
2.599561135e+20
1.552935394e+20
2.004599958e+20
2.004145529e+20
1.99789713e+20
2.002479289e+20
2.001646169e+20
2.007667353e+20
2.000245013e+20
2.006266197e+20
2.001002395e+20
2.008462604e+20
2.000510097e+20
1.990096098e+20
1.998919595e+20
2.002820111e+20
2.00285798e+20
2.024367619e+20
2.069280353e+20
2.163157812e+20
2.377686172e+20
1.556154266e+20
1.992633327e+20
2.01319624e+20
2.010393927e+20
1.998237952e+20
1.995624985e+20
1.993996614e+20
1.994640389e+20
1.989831015e+20
1.997253355e+20
1.989338717e+20
1.996155152e+20
2.003047325e+20
1.98839199e+20
1.994488912e+20
1.992443982e+20
2.006607019e+20
2.045763652e+20
2.11816934e+20
2.275894075e+20
1.551912928e+20
1.990285444e+20
1.982863103e+20
1.985589677e+20
1.991497255e+20
1.993617923e+20
1.988202644e+20
1.98714231e+20
1.987899692e+20
1.985627547e+20
1.986460666e+20
1.986119845e+20
1.993314971e+20
1.994299567e+20
2.001949122e+20
2.022814987e+20
2.028343873e+20
2.063372776e+20
2.107793211e+20
2.182508914e+20
1.543392384e+20
1.981234733e+20
2.001797645e+20
1.985173118e+20
1.982257198e+20
1.980780304e+20
1.980818173e+20
1.992784803e+20
1.990739873e+20
1.995662854e+20
1.993883007e+20
1.989035764e+20
1.977485694e+20
1.977031265e+20
1.995170556e+20
1.994337436e+20
2.0094472e+20
2.030843233e+20
2.055571745e+20
2.112754061e+20
1.554033597e+20
1.996723188e+20
2.009144248e+20
2.006682757e+20
2.021603176e+20
2.016187897e+20
2.015051825e+20
2.008273259e+20
2.015809206e+20
2.024443358e+20
2.018687257e+20
2.022019736e+20
2.032698818e+20
2.019899068e+20
2.025087132e+20
2.017702661e+20
2.027510753e+20
2.037924751e+20
2.065607052e+20
2.102567278e+20
1.54812602e+20
1.98880855e+20
1.997177617e+20
1.993239232e+20
1.994716127e+20
1.996193021e+20
2.002214205e+20
2.002744373e+20
2.00244142e+20
1.995208425e+20
1.995132687e+20
1.986763619e+20
1.993201363e+20
1.998010737e+20
2.001381085e+20
2.009560808e+20
2.022474165e+20
2.032812425e+20
2.051292538e+20
2.068371495e+20
1.556532957e+20
2.006834234e+20
2.013688538e+20
2.012628203e+20
1.999071071e+20
1.996420235e+20
2.001835514e+20
2.00410766e+20
1.992443982e+20
1.990739873e+20
2.006834234e+20
2.011984429e+20
1.999449762e+20
1.996609581e+20
1.993087756e+20
2.006304066e+20
2.01690741e+20
2.025238608e+20
2.032130782e+20
2.059813082e+20
1.547936675e+20
1.972221891e+20
1.995284163e+20
1.991648731e+20
1.996193021e+20
1.9995255e+20
1.991875945e+20
1.994261698e+20
2.00448635e+20
2.005205863e+20
1.998275821e+20
1.998427297e+20
2.008841295e+20
2.005887506e+20
2.00903064e+20
2.014142967e+20
2.018762995e+20
2.012514596e+20
2.026866979e+20
2.028684695e+20
1.556835909e+20
1.998881726e+20
2.001456824e+20
1.999563369e+20
1.991459386e+20
1.987407394e+20
1.981121126e+20
1.984415736e+20
1.985135248e+20
1.989452324e+20
2.001153871e+20
1.996912534e+20
2.004448481e+20
2.007364401e+20
2.001305347e+20
1.986384928e+20
1.990626266e+20
2.009295724e+20
2.024178274e+20
2.039401646e+20
1.553124739e+20
2.004751434e+20
2.013650669e+20
2.010204582e+20
2.01978546e+20
2.019596115e+20
2.025427954e+20
2.027965182e+20
2.02599599e+20
2.011416393e+20
1.999904191e+20
1.990285444e+20
1.978848981e+20
1.996117283e+20
2.000850918e+20
2.02186826e+20
2.030729626e+20
2.022739249e+20
2.0214517e+20
2.028268135e+20
1.552897525e+20
1.996571712e+20
2.00448635e+20
2.00035862e+20
1.991080695e+20
1.989868884e+20
1.997594177e+20
1.989944622e+20
1.987861823e+20
1.990209706e+20
2.002592896e+20
2.009371462e+20
2.014445919e+20
2.012703942e+20
1.99914681e+20
2.002214205e+20
2.009560808e+20
2.015581992e+20
2.023648107e+20
2.025390085e+20
1.558956578e+20
1.998692381e+20
2.015051825e+20
2.017437577e+20
2.023723845e+20
2.023383023e+20
2.014976087e+20
2.019217424e+20
2.020997271e+20
2.017626922e+20
2.012666073e+20
2.019103817e+20
2.014483789e+20
2.015165432e+20
2.016112159e+20
2.008159652e+20
2.000017798e+20
1.990474789e+20
1.995927937e+20
2.005395208e+20
1.542710741e+20
1.994602519e+20
1.999374024e+20
1.992974149e+20
1.998427297e+20
2.007099317e+20
2.012249513e+20
2.012287382e+20
2.014142967e+20
2.017816268e+20
2.01815709e+20
2.015013956e+20
2.024481227e+20
2.011227047e+20
2.005546685e+20
1.999563369e+20
1.997215486e+20
1.997291224e+20
1.993428578e+20
1.989906753e+20
1.558426411e+20
2.001532562e+20
2.009333593e+20
2.007326532e+20
1.99210316e+20
1.993466447e+20
1.996458105e+20
1.991610862e+20
1.994640389e+20
1.990891349e+20
1.98755887e+20
1.98134834e+20
1.959119188e+20
1.967488255e+20
1.978167337e+20
1.989338717e+20
1.996533843e+20
1.997291224e+20
2.005963245e+20
1.994299567e+20
1.54895914e+20
1.97430469e+20
1.981045387e+20
1.985286725e+20
1.988657073e+20
1.992406113e+20
1.979379148e+20
1.98009866e+20
1.976463228e+20
1.97472125e+20
1.979985053e+20
1.986915095e+20
1.994375305e+20
2.006190459e+20
1.993883007e+20
1.996155152e+20
1.999828453e+20
2.005433077e+20
1.997518439e+20
2.000699442e+20
1.543808944e+20
1.991042826e+20
1.999714846e+20
2.003198802e+20
1.999676977e+20
1.990702004e+20
1.9995255e+20
1.999260417e+20
1.998881726e+20
1.999790584e+20
2.004031921e+20
1.99994206e+20
2.003842576e+20
1.999790584e+20
2.003653231e+20
1.998503035e+20
2.004145529e+20
1.996306628e+20
2.001797645e+20
1.999904191e+20
1.557252469e+20
2.006417674e+20
2.008727688e+20
1.994640389e+20
1.996950403e+20
2.005243732e+20
1.998465166e+20
2.005925376e+20
1.998124344e+20
1.996685319e+20
1.994753996e+20
1.996382366e+20
1.986233452e+20
1.991118564e+20
1.988922157e+20
1.987331655e+20
1.994375305e+20
1.991232171e+20
1.992406113e+20
1.989793146e+20
1.546535518e+20
1.991800207e+20
2.022095474e+20
2.022549903e+20
2.017816268e+20
2.017513315e+20
2.011984429e+20
2.006455543e+20
2.00740227e+20
2.006796364e+20
2.011719345e+20
2.016415112e+20
2.017058886e+20
2.008008175e+20
2.007894568e+20
2.004751434e+20
2.009522939e+20
2.012666073e+20
2.019899068e+20
2.018611519e+20
1.547898805e+20
1.982370805e+20
1.979341279e+20
1.980136529e+20
1.985135248e+20
1.991421516e+20
1.988164775e+20
1.97555437e+20
1.984870165e+20
1.991307909e+20
1.994753996e+20
1.991838076e+20
1.993201363e+20
2.006644888e+20
2.014635265e+20
2.017702661e+20
2.016377243e+20
2.017248232e+20
2.015847076e+20
2.011757214e+20
1.548391104e+20
1.992443982e+20
1.99873025e+20
1.984529343e+20
1.991951684e+20
1.985930499e+20
1.999828453e+20
2.010204582e+20
2.022512034e+20
2.01440805e+20
2.009257855e+20
2.005054387e+20
2.009409331e+20
2.009598677e+20
2.000472227e+20
2.004410612e+20
1.996798926e+20
1.996079414e+20
2.005243732e+20
2.003160932e+20
4.85838977e+20
5.570459166e+20
5.851648493e+20
6.033089783e+20
6.052630463e+20
6.140556967e+20
6.200530539e+20
6.284153723e+20
6.119064089e+20
6.134393855e+20
3.308878064e+20
3.966173661e+20
4.441001811e+20
4.772262907e+20
5.042849395e+20
5.218855679e+20
5.304918607e+20
5.419994286e+20
5.483829846e+20
5.45853992e+20
2.75129251e+20
3.2029461e+20
3.572698145e+20
3.936315714e+20
4.227483906e+20
4.513759106e+20
4.725649754e+20
4.92505427e+20
5.03877996e+20
5.112656251e+20
2.478694284e+20
2.72877003e+20
3.017910056e+20
3.351897604e+20
3.634430434e+20
3.924578524e+20
4.199164196e+20
4.412353726e+20
4.599478618e+20
4.767825377e+20
2.313873636e+20
2.499526254e+20
2.700194755e+20
2.93574753e+20
3.190626873e+20
3.420072487e+20
3.666100537e+20
3.869400417e+20
4.139233282e+20
4.392868371e+20
2.209478358e+20
2.327717784e+20
2.456456336e+20
2.637194957e+20
2.820041709e+20
3.06075653e+20
3.318372788e+20
3.535263019e+20
3.755568195e+20
3.963651923e+20
2.167826657e+20
2.251456252e+20
2.332352411e+20
2.478742889e+20
2.608903895e+20
2.777262071e+20
2.963155529e+20
3.163968211e+20
3.392485317e+20
3.599911228e+20
2.102232827e+20
2.161725549e+20
2.227744475e+20
2.322308323e+20
2.421325679e+20
2.538859161e+20
2.697138851e+20
2.865471607e+20
3.054728191e+20
3.243256655e+20
2.082585081e+20
2.119634386e+20
2.159662624e+20
2.226437838e+20
2.307669148e+20
2.403702536e+20
2.506255141e+20
2.621374104e+20
2.775501698e+20
2.95288768e+20
2.062747319e+20
2.098665335e+20
2.139434571e+20
2.171421913e+20
2.225659842e+20
2.288337407e+20
2.386898338e+20
2.471706734e+20
2.563569352e+20
2.683331652e+20
2.05590671e+20
2.069966814e+20
2.107300861e+20
2.14969489e+20
2.189792981e+20
2.227900556e+20
2.278478609e+20
2.361072612e+20
2.425001295e+20
2.528692255e+20
2.033104684e+20
2.039355062e+20
2.045152575e+20
2.072292371e+20
2.093366605e+20
2.13921263e+20
2.182739561e+20
2.255108129e+20
2.33595917e+20
2.398996013e+20
2.029722383e+20
2.045362623e+20
2.048080834e+20
2.06301959e+20
2.080121645e+20
2.113597789e+20
2.15682343e+20
2.173210112e+20
2.206958599e+20
2.287359234e+20
2.017029248e+20
2.019457408e+20
2.035250446e+20
2.044280026e+20
2.053631751e+20
2.057449752e+20
2.074121679e+20
2.116895284e+20
2.161090844e+20
2.203742995e+20
1.994759287e+20
1.997187374e+20
2.007509129e+20
2.017082463e+20
2.021242192e+20
2.054695482e+20
2.068890917e+20
2.086003954e+20
2.108710767e+20
2.137254954e+20
2.011784786e+20
2.01884519e+20
2.015523305e+20
2.017858428e+20
2.040308658e+20
2.042576635e+20
2.049949166e+20
2.063493952e+20
2.091022923e+20
2.106602421e+20
1.995709358e+20
2.004572447e+20
2.003193797e+20
2.009167605e+20
2.003504101e+20
2.013617298e+20
2.032988771e+20
2.047808841e+20
2.048813347e+20
2.088461952e+20
2.010226648e+20
1.991945111e+20
2.000882046e+20
2.000437998e+20
2.017764876e+20
2.024201616e+20
2.025816252e+20
2.034997299e+20
2.045114983e+20
2.051695109e+20
1.999699726e+20
2.01704675e+20
2.023730101e+20
2.0318258e+20
2.027493483e+20
2.019912803e+20
2.020109965e+20
2.023223466e+20
2.028311531e+20
2.049022644e+20
2.010530675e+20
2.013832516e+20
2.015176524e+20
2.006956105e+20
2.014561096e+20
2.023257304e+20
2.034137956e+20
2.042740091e+20
2.032974701e+20
2.035741215e+20
2.009542587e+20
2.011651415e+20
2.009320021e+20
2.007964873e+20
2.000691014e+20
2.003898612e+20
2.003109942e+20
2.010132574e+20
2.033256098e+20
2.037279915e+20
2.004070101e+20
1.992595598e+20
1.999764674e+20
2.006529338e+20
)
;

boundaryField
{
    flow
    {
        type            calculated;
        value           nonuniform List<scalar> 
42
(
1.528509835e+20
1.542559265e+20
1.552935394e+20
1.556154266e+20
1.551912928e+20
1.543392384e+20
1.554033597e+20
1.54812602e+20
1.556532957e+20
1.547936675e+20
1.556835909e+20
1.553124739e+20
1.552897525e+20
1.558956578e+20
1.542710741e+20
1.558426411e+20
1.54895914e+20
1.543808944e+20
1.557252469e+20
1.546535518e+20
1.547898805e+20
1.548391104e+20
1.528509835e+20
1.965859885e+20
1.975062072e+20
1.974077476e+20
1.978621766e+20
1.976690443e+20
1.971578116e+20
1.978356682e+20
1.969987615e+20
1.964648074e+20
1.97225976e+20
1.972221891e+20
1.973320094e+20
1.976160276e+20
1.982370805e+20
1.995094818e+20
1.99581433e+20
2.031070447e+20
2.148426738e+20
2.725930268e+20
)
;
    }
    obstacle
    {
        type            calculated;
        value           nonuniform List<scalar> 10(280.096732 287.5232108 297.869414 289.2070615 295.3518695 283.5132425 285.1165155 288.3850821 278.9415958 272.7669933);
    }
    frontAndBack
    {
        type            empty;
    }
    procBoundary0to1
    {
        type            processor;
        value           nonuniform List<scalar> 
21
(
6.12433291e+20
5.521228047e+20
5.15890013e+20
4.8253284e+20
4.532056116e+20
4.21092501e+20
3.805401632e+20
3.430673889e+20
3.143805466e+20
2.831076869e+20
2.648872795e+20
2.487430286e+20
2.346790099e+20
2.236578456e+20
2.188855444e+20
2.124001057e+20
2.113518306e+20
2.070486018e+20
2.061634824e+20
2.045237666e+20
2.026107681e+20
)
;
    }
    procBoundary0to2
    {
        type            processor;
        value           nonuniform List<scalar> 
31
(
1.545096493e+20
1.994451043e+20
2.011681476e+20
2.005963245e+20
2.002062729e+20
2.003388147e+20
2.005054387e+20
1.999449762e+20
1.98922511e+20
2.004599958e+20
2.006796364e+20
2.015922814e+20
2.011189178e+20
1.999828453e+20
1.999752715e+20
1.998389428e+20
2.000547966e+20
2.003766838e+20
1.989376586e+20
1.98422639e+20
2.012451281e+20
2.01460097e+20
2.013254464e+20
2.010691319e+20
2.013317091e+20
2.02513228e+20
1.987728648e+20
1.992595611e+20
1.993368756e+20
2.012451281e+20
1.981776038e+20
)
;
    }
}


// ************************************************************************* //
