/*--------------------------------*- C++ -*----------------------------------*\
| =========                 |                                                 |
| \\      /  F ield         | OpenFOAM: The Open Source CFD Toolbox           |
|  \\    /   O peration     | Version:  2406                                  |
|   \\  /    A nd           | Website:  www.openfoam.com                      |
|    \\/     M anipulation  |                                                 |
\*---------------------------------------------------------------------------*/
FoamFile
{
    version     2.0;
    format      ascii;
    arch        "LSB;label=32;scalar=64";
    class       volScalarField;
    location    "0.011";
    object      internalT;
}
// * * * * * * * * * * * * * * * * * * * * * * * * * * * * * * * * * * * * * //

dimensions      [1 2 -2 0 0 0 0];

internalField   nonuniform List<scalar> 
654
(
299.0328643
301.327714
301.0782791
299.3699229
299.0268944
298.8338853
299.0058511
299.1948745
299.2748634
300.1792963
299.7576029
301.938614
301.3509285
301.6643774
302.5787176
304.24018
305.6550987
310.8155191
339.7680496
428.9442647
300.996463
299.9112374
301.2688855
301.3554593
302.4573851
301.9626972
301.973332
300.8310056
302.5308612
303.4038975
302.4097609
300.1516377
301.5467377
300.8890787
300.7111051
304.2823507
310.4445265
322.8868146
353.3472019
422.0227665
299.4289455
298.7230289
298.3494087
297.5175174
298.5317388
299.2558763
298.5301455
298.180332
297.2056122
298.1082511
298.6892813
299.685278
300.9836994
301.8229103
304.8528718
305.5245699
310.3655237
321.7676581
347.9646761
399.0935677
298.8366006
299.922664
300.5415696
299.8163535
299.9354172
297.9952459
298.8303882
299.5058812
300.3209512
296.2780206
297.0822814
298.3683931
298.4964355
299.8233351
300.8184415
304.6438488
307.7896666
316.8050659
334.1083521
372.0586988
297.4526119
299.040458
297.6026478
300.0684149
300.2703181
299.113011
299.1392951
300.2730603
301.1742049
302.0501287
303.6248414
302.5932156
302.6392886
303.4592709
304.7559584
306.1804459
308.5127879
318.7583341
337.1970818
356.4719101
299.8013115
300.1610899
298.6197546
297.3423799
297.9677729
299.1353868
298.5879824
297.9955163
297.6337679
299.4955677
299.3607736
299.5018413
300.6526004
300.7387078
299.8393414
305.1190401
307.3577878
318.5954998
319.1574345
338.4825328
297.8443571
299.6862124
299.3464262
299.0482377
299.024707
300.584273
299.5807712
298.5221543
300.1554214
299.4786061
299.7212216
298.5122824
301.6922018
302.234109
304.771944
307.0126633
308.413712
309.4161549
313.7151076
324.5435539
299.5684017
299.477128
300.0030401
300.5221844
298.7891284
298.3422336
298.7754138
299.0328998
300.9130071
300.8774199
300.0820597
300.7271991
300.3559529
299.2772394
298.8290469
300.555604
304.6692999
311.4437611
316.4923055
320.7564619
302.1220183
301.3766004
301.1154134
300.6440352
300.6909809
300.2816495
299.4227172
299.2445564
300.4438903
300.715573
300.2747216
300.0131566
300.8277114
300.8159913
302.5062673
303.3009956
304.7212279
307.3471472
308.852704
317.0109942
303.8511458
305.0257387
304.581283
304.4115114
304.3721061
304.6806052
303.2570492
302.7251596
300.6494026
301.3911128
300.9690526
300.139759
302.1092443
302.2739406
300.5154546
302.2327574
303.0668194
305.5952103
309.2504431
313.2527612
301.3214857
301.6146329
302.3527621
302.4053198
302.0799461
301.4812712
301.8387834
300.7384095
301.1778403
300.7489091
300.1552727
300.6004027
299.8758144
298.917107
298.7426901
299.5846457
302.0031817
304.4924712
304.5034641
307.2428799
300.4082739
301.6530189
300.2977419
301.9242713
302.3636821
302.9047223
302.3337612
301.318694
300.8820111
301.0095853
300.7307921
303.0293922
302.9264029
303.4205986
302.7542094
302.0470383
300.4074194
301.9672771
304.1508948
308.9941528
296.8484883
297.117925
297.4939292
296.6492598
295.0978825
295.9479483
298.329851
301.7240598
302.0146232
302.426278
300.0730698
299.5282618
299.4088587
299.7382478
300.5278513
299.6507097
301.8123965
302.7611671
302.0180343
304.2532453
296.8339818
296.380907
296.28543
298.0353314
300.3534309
299.9263532
299.514602
298.7063902
298.0666477
298.8258577
300.4075303
300.4906748
301.4799933
302.7111531
303.7926464
304.8466473
303.4204379
303.2942662
303.7438532
303.5322568
300.0570622
300.9938563
302.0657449
301.4125739
299.506687
299.5559936
296.7009488
298.6269757
296.9907933
299.2080124
300.4447129
299.8142773
298.2595145
298.4251938
297.6897145
298.2485408
298.2804714
299.7471625
300.4909905
303.5401156
300.7597223
299.6135773
298.3233848
296.4688814
295.9382332
298.0163187
299.8093543
300.5577191
297.7028819
297.777674
296.9032561
298.093533
298.2679245
298.0110551
297.0175042
298.5244255
300.5276255
300.5495282
300.3294255
304.0252377
300.7338424
300.682936
300.6682691
300.8350125
302.0244255
299.6071003
299.3503554
298.5202863
299.7012789
299.863438
300.3093502
300.5216745
300.8477858
300.2670013
301.1155841
300.5416195
301.2890097
302.5299894
302.1325545
302.8958957
303.3586725
302.704335
302.8684527
302.1904444
303.0578016
303.1203588
303.7347865
303.7975751
304.1931485
303.1297195
302.2034052
301.01055
300.782468
301.7914095
302.5305787
300.5710447
300.5013265
300.9112073
303.1298196
301.9518017
298.1306579
299.4201491
299.4033054
300.4077158
299.3576779
300.0625231
299.6392939
298.3792319
299.3056591
299.664243
299.7262169
299.9428267
299.2512936
297.9857456
298.6106252
299.895674
300.6704324
299.9075719
299.6311153
301.7901024
298.047547
298.4698585
299.0200613
298.587075
299.9186469
298.416097
297.5863116
298.0467453
298.3403965
296.2374042
297.0720672
299.5527627
300.6959241
301.2297751
301.5175814
301.0401216
301.5771537
302.675373
301.7779871
300.8411529
300.7306168
300.7940044
300.8919856
299.0516331
298.7166222
300.3908518
301.482392
303.7016493
303.9361763
304.6322908
303.5880823
301.568631
301.43108
300.2040024
300.0826891
300.7605129
301.2157082
300.8475303
300.558297
301.7847422
300.2356929
299.9558659
299.6629853
300.6418648
301.4637816
301.5261841
301.7782705
302.3861674
302.5527131
302.0304957
303.015863
302.0755569
300.8809047
301.6051817
301.483074
301.1883072
301.0247122
300.6888182
300.074013
298.9512729
546.2857248
601.1125169
630.0851927
657.5144679
671.7081286
682.2929208
697.1444179
703.4812581
700.5754519
705.1623658
512.2710239
568.8339947
619.0924136
651.5168402
684.4344981
702.5632909
725.7089148
741.3994403
749.0471954
755.9625859
458.5312749
516.1734249
560.4384645
603.1096044
634.6020652
666.7340011
697.2887234
721.0089786
738.4028671
751.4797848
411.6904596
456.796947
505.0366944
541.8564377
583.6924007
620.3296011
642.6573454
668.1595747
693.2522269
717.0701282
387.7211198
417.470098
453.8642912
491.5694202
527.1575012
567.213637
601.9163562
617.7853828
646.7990608
674.8785699
363.9745513
384.5241402
412.0923197
447.6829427
477.7636436
510.947875
554.2145016
575.8062222
601.7554368
628.7770056
342.9049011
369.7581134
381.3448467
409.389585
434.2985714
456.9279693
490.4968598
519.7763813
544.2327456
570.2426017
329.871818
346.4799558
358.6019658
377.362215
400.2640551
421.0693361
444.7901717
476.9225243
496.908999
518.0799509
325.5423258
334.6234056
340.8748215
355.459116
377.5200676
394.8487354
410.4293543
434.2782158
454.731595
476.730479
315.9762782
324.3213134
332.44509
342.5783772
356.0071441
370.9132493
386.8002079
403.8179507
418.91978
440.3632104
312.2251755
320.6696194
323.2000302
332.3638216
340.7711434
354.1998299
365.7334207
379.4917229
393.8605981
413.2684356
309.322294
312.0499517
316.9667453
319.1232422
326.4357695
332.9827624
343.9500227
354.9742069
367.5440396
384.502666
305.3373277
307.4117684
309.4183873
316.5798153
320.340713
325.6951911
334.443352
339.412486
349.3524789
359.2598556
306.4024041
308.0527259
310.1349507
312.5637452
316.5982421
318.1851462
323.5214258
333.1909278
338.5790274
343.536179
304.9038794
306.5313865
308.8608204
310.6216652
316.0349845
315.7969523
319.7721312
325.1233582
333.1608232
339.6922285
303.8565356
305.8308764
304.2156194
306.5665706
309.9559141
317.5719871
319.0839806
318.0262495
322.4908658
327.6142686
304.0936047
303.8121882
307.1659097
307.1316887
306.1571656
310.5721924
312.0697242
315.1457899
317.4928604
319.9805582
304.6653474
305.0626199
305.7070918
303.6695104
304.1698791
305.3522537
308.3719255
312.0674637
316.907483
318.8918884
300.9639567
301.9392854
303.4386133
303.4877962
304.7109677
305.0420689
304.7342614
308.5007006
309.7748994
314.0431683
301.3735962
300.0723368
302.1083651
303.2345191
304.2189088
305.1037038
307.0362534
307.8170182
310.3059188
312.4807709
302.6263699
302.8344175
302.5007244
301.7078969
302.3850089
301.8760724
304.1306302
304.2647445
305.4643149
307.2800938
300.9629284
298.6814409
299.7293607
301.8544659
)
;

boundaryField
{
    flow
    {
        type            calculated;
        value           nonuniform List<scalar> 
42
(
299.0328643
300.996463
299.4289455
298.8366006
297.4526119
299.8013115
297.8443571
299.5684017
302.1220183
303.8511458
301.3214857
300.4082739
296.8484883
296.8339818
300.0570622
300.7597223
300.7338424
303.3586725
298.1306579
298.047547
300.7306168
300.2356929
299.0328643
301.327714
301.0782791
299.3699229
299.0268944
298.8338853
299.0058511
299.1948745
299.2748634
300.1792963
299.7576029
301.938614
301.3509285
301.6643774
302.5787176
304.24018
305.6550987
310.8155191
339.7680496
428.9442647
)
;
    }
    obstacle
    {
        type            calculated;
        value           nonuniform List<scalar> 10(531.4305092 575.5019918 582.7143548 583.8714686 599.2803305 615.5342701 619.5988829 627.3621213 633.9135665 617.398478);
    }
    frontAndBack
    {
        type            empty;
    }
    procBoundary0to1
    {
        type            processor;
        value           nonuniform List<scalar> 
21
(
706.8042999
756.0493328
768.4318212
732.2817135
689.1426884
651.3967339
601.5781418
552.325243
503.1320213
457.9626858
431.9540127
405.3433225
374.6364221
355.9714919
340.8309969
332.6595281
324.9028089
321.9969966
314.102164
313.9882523
307.3866421
)
;
    }
    procBoundary0to2
    {
        type            processor;
        value           nonuniform List<scalar> 
31
(
300.4258329
302.9941
302.8513209
301.2218072
299.5564055
297.5081303
296.6217809
296.8098668
297.4340544
298.051727
297.8315303
300.364803
301.1487853
300.5258913
301.449211
299.859486
298.1734387
297.941075
297.7543774
298.6767531
303.3659452
304.7491051
305.5685248
304.7328813
305.338512
304.5123127
297.5542079
299.2260376
301.2189517
303.3659452
301.760623
)
;
    }
}


// ************************************************************************* //
