/*--------------------------------*- C++ -*----------------------------------*\
| =========                 |                                                 |
| \\      /  F ield         | OpenFOAM: The Open Source CFD Toolbox           |
|  \\    /   O peration     | Version:  2406                                  |
|   \\  /    A nd           | Website:  www.openfoam.com                      |
|    \\/     M anipulation  |                                                 |
\*---------------------------------------------------------------------------*/
FoamFile
{
    version     2.0;
    format      ascii;
    arch        "LSB;label=32;scalar=64";
    class       volScalarField;
    location    "0.011";
    object      internalE;
}
// * * * * * * * * * * * * * * * * * * * * * * * * * * * * * * * * * * * * * //

dimensions      [1 -1 -2 0 0 0 0];

internalField   nonuniform List<scalar> 
654
(
0.2855552435
0.1144050716
0.4708462589
0.5467791773
0.3175093001
0.2428474466
0.4653673482
0.2541356043
0.3991143577
0.3079439245
0.387346584
0.3176122256
0.06013326225
0.4687003521
0.3055545729
0.3056256341
0.5398344089
0.2352954097
0.6944990402
0.5725069539
0.2870054749
0.5779772338
0.3918167543
0.6284448216
0.2050701688
0.3048901525
0.3810333457
0.4761252861
0.2816138806
0.445378693
0.6323561388
0.12561164
0.7241140453
0.4363338383
0.5498954985
0.2917397535
0.4000205093
0.9197279609
0.4714222926
0.4487190197
0.1015584804
0.2425318506
0.1992964034
0.3973521299
0.5479335067
0.2637506382
0.2240872016
0.5041323426
0.3061707641
0.3673459782
0.2863716739
0.5814833953
0.7300890161
0.5424982121
0.4104522357
0.1955607535
0.6191397909
0.3251084073
0.5888048315
1.006805813
0.5016109613
0.6190931867
0.3684472604
0.5325976686
0.164425671
0.4021406978
0.1034069745
0.3961490056
0.4004217842
0.4020584206
0.4801974815
0.1407346985
0.6090117124
0.6231960009
0.3177336659
0.4524889523
0.5534884493
0.2662252264
0.4766455413
0.329964225
0.6124112399
0.4431401496
0.6701319248
0.4387629632
0.7214051188
0.3213182362
0.3652704403
0.3793091279
0.5556125587
0.2579223224
0.4444002458
0.225427947
0.324459988
0.2664105212
0.1152194601
0.2889871512
0.6194780555
0.7398162635
0.2989666076
0.1873152978
0.2246062796
0.7726604474
0.6442652387
0.3302991893
0.2426834448
0.2743877353
0.228385114
0.3537991161
0.3374024783
0.6475687607
0.2440491979
0.3058668789
0.01830826556
0.7525366775
0.3248385535
0.158763233
0.5141684019
0.478923779
0.3282291553
0.6099581728
0.2407781317
0.1638422168
0.2144408092
0.1980535271
0.4636630037
0.473027955
0.4366542082
0.7468378189
0.5881035629
0.4198970247
0.264424389
0.5146296528
0.4739411765
0.5113753275
0.329523248
0.2760829222
0.2581915169
0.4257852963
0.8703927864
0.3843828637
0.1674686655
0.189662819
0.5076987844
0.5251589096
0.2133414295
0.4488676519
0.3164645872
0.4027947876
0.2358099645
0.3563917971
0.5863878841
0.3225701853
0.3467061252
0.8846515627
0.2936932778
0.08430924766
0.4141609511
0.2670573817
0.6022995616
0.1316747408
0.274984439
0.2449184641
0.6034634974
0.609682104
0.5378726677
0.1996120396
0.2574393173
0.5870473346
0.5000096483
0.251578123
0.8449361097
0.2796101957
0.5779726053
0.3746560803
0.3808492439
0.3778958067
0.5134571775
0.3005709254
0.1786917231
0.6129856096
0.3423333368
0.2188856715
0.5278562287
0.3443135402
0.601310656
0.4301038666
0.3885622774
0.4441246753
0.2405590655
0.3259305888
0.5257115187
0.737192324
0.6531364261
0.3743130737
0.2095299314
0.2676688575
0.4267588895
0.5200819981
0.3324154061
0.2816198506
0.3457262235
0.2488788742
0.2411616356
0.4525349307
0.4189777281
0.1221280327
0.6109767737
0.9025131739
0.4808628922
0.4150390571
0.1672253236
0.3991726355
0.2848032136
0.1807269305
0.7347456014
0.2549132553
0.1522429894
0.5526040056
0.9110069092
0.3094068846
0.28272881
0.2786290546
0.6549660591
0.4644782536
0.2567386321
0.5336616973
0.207911855
0.4934157597
0.7905058154
0.4496288856
0.6682050814
0.9037656709
0.6063244142
0.5988834322
0.4526582821
0.3022324024
0.3346517863
0.3189403303
0.3105780609
0.5617691848
0.3276643826
0.4474787071
0.3983096538
0.3451601928
0.2633792985
0.1747268301
0.4719002584
0.736852865
0.4633282646
0.4329762484
0.4938431364
0.5525726486
0.7089608353
0.2723805387
0.3700683193
0.3710228528
0.3638634977
0.2410441357
0.7614997735
0.8159394105
0.3361998988
0.3386145126
0.5543243279
0.7318876295
0.1190735404
0.4502713317
0.1829265142
0.5988166074
0.553072086
0.05734160891
0.3278512729
0.7946626149
0.3924895897
0.3468404112
0.775076023
0.387496823
0.3299971514
0.325326912
1.002444875
0.2414339559
0.4005091644
0.4413740398
0.2276325568
0.4001844348
0.3753002827
0.6104126312
0.4366792382
0.1438958616
0.2694927096
0.3183098273
0.178952651
0.1798069175
0.409039648
0.5547354789
0.4150765792
0.3756987619
0.5251086046
0.2898596978
0.342869315
0.3241731019
0.1284743722
0.5769210638
0.3461254383
0.5731241761
0.7430539778
0.5101303945
0.3739313513
0.3965496072
0.1725393146
0.388112876
0.3166713284
0.4863032197
0.5117015216
0.2291432674
0.3982953406
0.4898579022
0.3570980626
0.7724120543
0.413379194
0.5588287377
0.6034986115
0.8546432085
0.3800674921
0.430266792
0.3770506734
0.6625400914
0.4248176723
0.5956098975
0.4245971075
0.3170002774
0.4677094323
0.6378496438
0.3715500035
0.7577083988
0.2718324612
0.3520847352
0.327451731
0.3622412609
0.5634953589
0.3360060437
0.3212127765
0.290117187
0.390973328
0.3519844814
0.3983606105
0.3291202537
0.4598475368
0.8451515494
0.222141037
0.3297995587
0.2026995347
0.6585831372
0.3194255994
0.5762507104
0.4109120329
0.5940477484
0.3966673229
0.456816956
0.8214521734
0.1110131102
0.2567096806
0.4905046752
0.6045497883
0.4270103513
0.3147908616
0.6816751803
0.1358968458
0.5411287058
0.3329176792
0.6259186652
0.4317026795
0.3122074838
0.5680445568
0.5457394036
0.3502233246
0.5104400749
0.2970059194
0.2423851446
0.2624889888
0.2443600621
0.4333254692
0.08488129509
0.191029672
0.6639899697
0.1450029271
0.2586444954
0.6177546535
0.4060323263
0.1994843275
0.2286006908
0.4219282003
0.2355941884
0.6942348269
0.1145256441
0.3736915636
0.4295488529
0.1428916163
0.6224264979
0.7310179169
0.577462435
0.3286885034
0.3340737814
0.7338381026
0.4200100977
0.298750263
0.3688053833
0.592502168
0.1851162198
0.2432911024
0.3161612529
0.3218355278
0.4099572533
0.44170118
0.3201137658
0.3207571411
0.8404098726
0.5886929748
0.3654203822
0.2390379791
0.8418114434
0.1952160204
0.2540473612
0.5230292145
0.3977286058
0.4512201355
0.2044556485
0.4600132889
0.2851139866
0.4585264564
0.6476639703
0.4844827485
0.1195452107
0.3256873749
0.4566743038
0.4868793822
0.4680410365
0.06078557413
0.2808033582
0.3847870916
0.3556132963
4.193785996
1.915239436
2.340165846
2.828888603
3.203343906
2.667086842
3.07572422
2.498088484
2.589325769
3.00651478
1.741667946
1.272888067
1.929930961
1.983449462
2.595376779
2.923699926
1.771276898
1.865093591
2.385930647
2.685587669
0.286616878
1.256667708
1.72596062
1.337146949
1.131933637
0.836361366
0.6840574178
2.086587234
2.894830395
3.536968886
1.099743309
0.356703776
0.449881545
1.528387844
1.130343542
1.133928227
1.47452273
3.023355811
2.242979754
2.018915035
0.7041781806
0.4312306723
0.3974796319
1.246237693
0.4392693157
0.6372710381
1.369829061
2.564666821
0.8608779125
1.181399092
0.8181734906
0.6029415867
0.1035926135
0.2117845299
1.047838104
1.011101631
1.351018293
1.452810912
1.933323897
1.618729956
0.2110405056
0.2662384459
0.7887341841
0.7371856898
0.8415694107
0.5495782368
0.5723988198
0.8246474739
1.740004637
2.118867666
0.4830446218
0.6848854218
0.4331916444
0.7750679684
0.8606827537
0.4949372538
0.391700713
0.6755328036
1.002275906
1.108952107
0.5304647313
0.6551987646
0.7280134849
0.04642831097
0.1805391803
0.277566313
0.7152865107
0.49864048
1.643104484
0.7357066874
0.4406810136
0.4147637423
1.17143957
2.022901263
0.6012275205
0.7705115804
0.3748352019
0.4531282093
1.934798044
0.1643308997
0.5936318784
0.5879409656
0.5549506403
0.3744116658
0.4111617774
0.6239140844
0.7261653625
1.279233004
0.4453691811
0.6127798678
0.8277576735
0.3160671246
0.2506028766
0.348612282
0.403495668
0.6144142791
0.4809794216
0.1869692046
0.8902789312
1.04959761
0.1126962906
0.186940413
0.5898222326
0.3364716688
0.6179289911
0.8669034484
0.7810966756
0.7779835325
0.2672121673
0.6631580007
0.2491254179
0.5985269983
0.5550351391
0.1834499907
0.09853744953
0.1610723807
0.2846745673
0.4136753271
1.555182574
0.2168431141
0.3466922587
0.3451670035
0.7215927645
0.8000373419
0.3471198033
0.6172654331
0.4441670282
1.016526238
0.6654778116
0.3922117584
0.2491120845
0.3190731087
0.5762539838
0.6379479835
0.2353814263
0.3249145672
0.1307799588
0.4834306873
0.5347618664
0.4455492271
0.6171586454
0.5759479869
0.2925181163
0.4105738792
0.4000825524
0.4553184199
0.6561036479
0.2462333278
0.7068690051
0.167785193
0.2143039572
0.2422302504
0.1883301461
0.2168849677
0.5446833638
0.8436641587
0.2659405508
0.4819398032
0.6098744626
0.5252270457
0.5773472583
0.5745507171
0.9494041203
0.176128915
0.3553421708
0.5301058609
1.024470472
0.2465192831
0.6697823138
0.7278870151
0.3083425683
0.2246094359
0.7140666052
0.3394377521
0.3128209061
0.7593817942
0.6294565668
0.1068940192
0.7205447117
0.1492432831
0.5505507756
0.5575211809
0.4834239424
0.4056522123
0.4453789286
0.1064210615
0.2505283468
0.7963874009
0.3187325148
0.3564221867
0.3586015432
0.2874095331
0.6954725809
0.3522622933
)
;

boundaryField
{
    flow
    {
        type            zeroGradient;
    }
    obstacle
    {
        type            calculated;
        value           nonuniform List<scalar> 10(9.815057183e-19 1.089883113e-18 3.639700034e-18 7.403934476e-19 2.115221136e-18 2.234333749e-19 0 1.391578919e-19 1.001393443e-18 5.123380304e-19);
    }
    frontAndBack
    {
        type            empty;
    }
    procBoundary0to1
    {
        type            processor;
        value           nonuniform List<scalar> 
21
(
2.581787115
2.785688182
1.882593283
2.788611562
2.286202679
1.703600067
2.174208615
1.355108917
1.13302678
1.360842652
1.53063821
0.4068353125
0.2092644657
0.9078901566
0.7427244971
0.3083094918
0.06154903858
0.5247438866
0.5473218021
0.5523848932
0.7239917085
)
;
    }
    procBoundary0to2
    {
        type            processor;
        value           nonuniform List<scalar> 
31
(
0.2081279139
0.3286859527
0.2982171141
0.3634406353
0.6288670174
0.414477219
0.2825212261
0.2902289763
0.3997450778
0.5939868477
0.4024228982
0.3840727598
0.5217250474
0.5570916259
0.6861948812
0.5698158324
0.5017370609
0.2439424396
0.3832113164
0.4242546024
0.4398893752
0.1175806508
0.2008972148
0.1923539919
0.2986033394
0.6302586047
0.344705514
0.5104576799
0.7255772444
0.4398893752
0.3351283521
)
;
    }
}


// ************************************************************************* //
