/*--------------------------------*- C++ -*----------------------------------*\
| =========                 |                                                 |
| \\      /  F ield         | OpenFOAM: The Open Source CFD Toolbox           |
|  \\    /   O peration     | Version:  2406                                  |
|   \\  /    A nd           | Website:  www.openfoam.com                      |
|    \\/     M anipulation  |                                                 |
\*---------------------------------------------------------------------------*/
FoamFile
{
    version     2.0;
    format      ascii;
    arch        "LSB;label=32;scalar=64";
    class       volScalarField;
    location    "0.011";
    object      internalEMean;
}
// * * * * * * * * * * * * * * * * * * * * * * * * * * * * * * * * * * * * * //

dimensions      [1 -1 -2 0 0 0 0];

internalField   nonuniform List<scalar> 
654
(
0.3155300743
0.4089264846
0.4105005806
0.4079678693
0.408438464
0.4077764169
0.4069558328
0.4086131558
0.4069933739
0.4071168744
0.4081200419
0.4110815957
0.4105099365
0.4115283845
0.4140729617
0.4190189955
0.4211195299
0.4357940373
0.5039143053
0.8071778001
0.3205212681
0.4107126581
0.4164073827
0.4148017552
0.4154487531
0.4163006776
0.4162048207
0.4145517282
0.4165461813
0.4175975402
0.4167351932
0.4149886917
0.4182024859
0.4188399758
0.4186236798
0.4273100264
0.4405409149
0.4714579813
0.5481350828
0.7573375966
0.3209968501
0.4133805346
0.4127699161
0.410335665
0.4126787868
0.4135076974
0.4137457552
0.4117331092
0.4116225546
0.4117894412
0.4141302832
0.413866008
0.4134953459
0.4164866924
0.4214886029
0.4224252774
0.4337269978
0.4596373641
0.5196093584
0.6550626864
0.3210258737
0.4125629999
0.4176805598
0.4160926872
0.4137409964
0.4105271363
0.4113417364
0.4124046609
0.4125298968
0.4084944831
0.4079802004
0.4111503941
0.4127470341
0.4115485134
0.414180535
0.4190174745
0.4263536289
0.4474053543
0.4885416687
0.5845438688
0.3186682089
0.4108647829
0.407364448
0.4113044347
0.4128057307
0.4116525743
0.4105704745
0.4119067815
0.4133004141
0.4140286704
0.4163617954
0.4148759299
0.4164423011
0.4177768842
0.4211713715
0.4275502999
0.4319846912
0.4540386735
0.4906427777
0.5370750047
0.3194210132
0.410529082
0.4126599393
0.4074823482
0.407739607
0.4090323924
0.4082916869
0.4099432444
0.4090254387
0.4126018537
0.4120483374
0.4112403218
0.4104232133
0.4104464164
0.4129735565
0.4200698895
0.4263580062
0.4466523658
0.4528884096
0.493672356
0.3195239246
0.4130838595
0.4151822685
0.4142605409
0.4173078808
0.4183606787
0.416729031
0.4138595432
0.4176853258
0.4185284978
0.4176765924
0.4166786005
0.4233413795
0.4214312592
0.4260615086
0.4276289092
0.4316685876
0.4352960542
0.4473389795
0.4710602848
0.3201517749
0.411159415
0.4136146829
0.4135133787
0.4114333499
0.4111221456
0.4129609596
0.4134262937
0.4159626939
0.4144111842
0.4133000116
0.4124511414
0.4132767952
0.4127861417
0.4128632265
0.416945781
0.425368454
0.4370494154
0.4481716261
0.4579916498
0.3246342216
0.4175174506
0.4185803976
0.417705071
0.4149561808
0.4138418031
0.4137773735
0.4140005406
0.4132407093
0.4132606324
0.4159909432
0.4166952188
0.4152235124
0.4146175412
0.4162118104
0.4200724414
0.42426995
0.4296936996
0.4332680493
0.4507707607
0.3246890705
0.415284636
0.4195285962
0.4185307935
0.4194314423
0.4205574767
0.4169911073
0.4167583083
0.4160227208
0.4171987604
0.4151746958
0.4140621037
0.4189510117
0.4185630459
0.4167800989
0.4202284285
0.4223546967
0.4245601065
0.4327022759
0.4386953814
0.3238370555
0.4161914047
0.4177474117
0.4174247547
0.4152856747
0.4136193431
0.4127999846
0.411979079
0.4127306459
0.4130391309
0.4146484647
0.4143832597
0.4149444311
0.4142195475
0.4127282962
0.4108057976
0.4150064534
0.4223514801
0.4254951345
0.4325518704
0.3220859859
0.4174666727
0.4174359025
0.4189786441
0.4215882212
0.4223030054
0.4227241388
0.4218326318
0.4208122814
0.417961147
0.415184078
0.4163453544
0.4138122862
0.41810438
0.4181754401
0.4215810078
0.4211301749
0.4216512441
0.4244299954
0.4326425508
0.318222762
0.4095126941
0.4116563439
0.4096422404
0.4056099091
0.4065307452
0.4113936427
0.414480912
0.4144458222
0.4155008973
0.414832997
0.4154814492
0.4163646595
0.4164622709
0.4147467734
0.4141707748
0.4186892666
0.4212638979
0.4219116071
0.4254000146
0.3194487832
0.4089307614
0.4121450775
0.415070109
0.4196019016
0.4189346964
0.4166213271
0.4163716967
0.4158461757
0.4162101248
0.417384332
0.4188352738
0.4192527068
0.4211072599
0.4228102893
0.4226036673
0.4189211556
0.4167489199
0.4185101128
0.4202023002
0.3195523073
0.4144456599
0.41691654
0.4146833828
0.4131887402
0.4150500574
0.4121491112
0.4148323737
0.4129399322
0.4167815062
0.4185748549
0.4170460097
0.4168325853
0.414333632
0.4121451628
0.4116869506
0.4112475723
0.4132854121
0.4135097336
0.4169677082
0.3235635386
0.4139784664
0.4138023422
0.4108192082
0.4069738481
0.4101120948
0.4131987334
0.4132244155
0.4099220208
0.4092543406
0.4073695497
0.4077246714
0.4033861769
0.4047605014
0.4056006783
0.4099606829
0.4142043711
0.4143916979
0.4158861505
0.4185560591
0.3215702523
0.4098043472
0.4111834486
0.4122922963
0.4146250795
0.4120819276
0.409036789
0.4080508445
0.4089130178
0.4087736729
0.4104727847
0.4122006867
0.4141973433
0.415846805
0.4144637064
0.4141450909
0.4159389916
0.4188226956
0.416621733
0.4183394694
0.3232984106
0.4160570098
0.4180957099
0.4178865378
0.4183491746
0.4165575031
0.419251942
0.4192830174
0.4197494417
0.4184722253
0.418078265
0.4155781762
0.4160731779
0.416624681
0.4184518003
0.4146728051
0.4157471198
0.4146858471
0.4188923573
0.4168697841
0.3204935313
0.4147209441
0.4151750608
0.4136464422
0.4126779662
0.4153675127
0.4133795131
0.4131777873
0.4128488136
0.4130457432
0.4127315585
0.4133670036
0.410317396
0.409587046
0.4099931911
0.4114282921
0.413953169
0.4122521531
0.412114958
0.4145400777
0.318199177
0.4103929149
0.4174030181
0.4168922791
0.4177713838
0.415615999
0.4133245175
0.4128264611
0.4134281794
0.4103900292
0.4125559093
0.4169719824
0.4186968757
0.4175581606
0.4179334646
0.4166184657
0.4183550421
0.4205352584
0.4207952489
0.4192215439
0.3213466758
0.4116306171
0.4111354295
0.4087849664
0.4093578209
0.4129557324
0.4137785076
0.4141805863
0.4164550193
0.4187626666
0.4180494574
0.4146615782
0.4147561234
0.4158537314
0.4173409269
0.4189204728
0.4192788978
0.4189472998
0.41825381
0.4191084796
0.3209198571
0.412569464
0.413467034
0.4118704012
0.4145410512
0.4133735445
0.4166144316
0.4196196148
0.4224212601
0.4200024709
0.4202954041
0.4181146104
0.4173655919
0.4184096924
0.4163408867
0.4167526812
0.4149445702
0.414332209
0.4153834177
0.4133994077
1.832170166
2.311534437
2.545253864
2.738411459
2.806586066
2.892226038
2.984043891
3.051777968
2.959330833
2.986169009
1.170130113
1.557438372
1.897973017
2.146365152
2.382656803
2.531129368
2.657631634
2.773988678
2.835611668
2.848592944
0.8708820318
1.141297519
1.382222189
1.638852131
1.851983212
2.077516981
2.274719098
2.451349838
2.568457414
2.652268564
0.7044454521
0.8604858453
1.05216252
1.253800914
1.464448155
1.680618462
1.862927416
2.035186059
2.201169463
2.360128087
0.619316567
0.7203385847
0.84600846
0.9962243757
1.161101032
1.339169582
1.523330428
1.650193621
1.848174125
2.046573891
0.5551551498
0.6178848347
0.6988068782
0.8150164711
0.9300841243
1.079590324
1.269570026
1.405243824
1.560088648
1.720464682
0.5131588773
0.5746915697
0.6139961601
0.7005221514
0.7821680709
0.8760284434
1.003331113
1.135278084
1.274548151
1.417114861
0.4787178584
0.5170496783
0.551482382
0.604967289
0.6690420281
0.737982098
0.8281558782
0.9434036347
1.047859455
1.159929798
0.4680193579
0.4896332167
0.5081997385
0.5463284693
0.601405212
0.6551867026
0.7100963769
0.7858698933
0.8712649218
0.9717922877
0.4499394906
0.4698641182
0.4909898723
0.5135204763
0.5469795688
0.5859303692
0.6373444708
0.6890268769
0.7413606643
0.8157160066
0.4431236445
0.4582208017
0.4701663452
0.4932239644
0.5151331189
0.5447506433
0.5752587128
0.6185363866
0.6593380092
0.721409432
0.4341347648
0.4393094712
0.447499975
0.4565234234
0.4717334084
0.4917329466
0.5182637867
0.5526087657
0.5926908645
0.6367698368
0.4278289246
0.4340546429
0.4374685264
0.4508584097
0.4599964421
0.475211885
0.4979557616
0.5091938309
0.5322450327
0.5672789509
0.4266364588
0.4294507402
0.4357347255
0.4410954611
0.4488328868
0.4519212268
0.4632238163
0.486907142
0.5051108273
0.5226212055
0.4198624613
0.4226173896
0.4280297456
0.4325227929
0.4409680435
0.4479288158
0.4567008353
0.4681843592
0.4849807978
0.5011820926
0.4219914999
0.4262240469
0.4232753076
0.427040525
0.4365654891
0.4477897496
0.4515456831
0.453022497
0.4655108563
0.4764298775
0.4189461291
0.4204172729
0.4247658396
0.425985088
0.4234364752
0.4317109882
0.4379658201
0.4455069924
0.4490450981
0.4613215694
0.4227870611
0.4194884083
0.4222606409
0.4193531273
0.4236823424
0.4266861032
0.4312493815
0.438395341
0.4474080833
0.4516581976
0.4154635009
0.4204256348
0.4239132958
0.4256780969
0.4264824407
0.4253495339
0.4249618044
0.4308772951
0.4337450044
0.44421141
0.4182823175
0.4171602419
0.4202710232
0.4201168628
0.423077811
0.4261398986
0.431145307
0.4340695699
0.4354874412
0.4391364314
0.4198146448
0.4205441153
0.4195938675
0.4182119037
0.4176321075
0.4175976412
0.4205508838
0.4222113812
0.4287520082
0.4321541938
0.4163700803
0.4108478379
0.4137726504
0.4181159366
)
;

boundaryField
{
    flow
    {
        type            calculated;
        value           nonuniform List<scalar> 
42
(
0.3155300743
0.3205212681
0.3209968501
0.3210258737
0.3186682089
0.3194210132
0.3195239246
0.3201517749
0.3246342216
0.3246890705
0.3238370555
0.3220859859
0.318222762
0.3194487832
0.3195523073
0.3235635386
0.3215702523
0.3232984106
0.3204935313
0.318199177
0.3213466758
0.3209198571
0.3155300743
0.4089264846
0.4105005806
0.4079678693
0.408438464
0.4077764169
0.4069558328
0.4086131558
0.4069933739
0.4071168744
0.4081200419
0.4110815957
0.4105099365
0.4115283845
0.4140729617
0.4190189955
0.4211195299
0.4357940373
0.5039143053
0.8071778001
)
;
    }
    obstacle
    {
        type            calculated;
        value           nonuniform List<scalar> 10(1.027562216e-18 1.142282023e-18 1.198216317e-18 1.165681081e-18 1.221865351e-18 1.20470077e-18 1.219513472e-18 1.248948946e-18 1.220666227e-18 1.162548212e-18);
    }
    frontAndBack
    {
        type            empty;
    }
    procBoundary0to1
    {
        type            processor;
        value           nonuniform List<scalar> 
21
(
2.988213165
2.881637993
2.736629871
2.439263214
2.156046053
1.8935496
1.580324051
1.3080608
1.091921016
0.8950253924
0.7898638128
0.6960293326
0.6069289394
0.5496078886
0.51500301
0.4877623756
0.4740379173
0.4602329671
0.4470295904
0.443313323
0.4299333307
)
;
    }
    procBoundary0to2
    {
        type            processor;
        value           nonuniform List<scalar> 
31
(
0.3204398224
0.4171681599
0.4205738738
0.4171218908
0.4140091056
0.4114504486
0.4105658255
0.4096778015
0.4084399603
0.41245157
0.4125984386
0.4180002501
0.4181071947
0.4148854826
0.4161443936
0.4136676102
0.4117859495
0.412127094
0.4089109671
0.4091157928
0.4214497531
0.4238235446
0.4246791015
0.4229785289
0.4243726304
0.4257080429
0.4082975698
0.4115969545
0.4144990516
0.4214497531
0.4128295176
)
;
    }
}


// ************************************************************************* //
