/*--------------------------------*- C++ -*----------------------------------*\
| =========                 |                                                 |
| \\      /  F ield         | OpenFOAM: The Open Source CFD Toolbox           |
|  \\    /   O peration     | Version:  2406                                  |
|   \\  /    A nd           | Website:  www.openfoam.com                      |
|    \\/     M anipulation  |                                                 |
\*---------------------------------------------------------------------------*/
FoamFile
{
    version     2.0;
    format      ascii;
    arch        "LSB;label=32;scalar=64";
    class       volScalarField;
    location    "0.011";
    object      linearKEMean;
}
// * * * * * * * * * * * * * * * * * * * * * * * * * * * * * * * * * * * * * //

dimensions      [1 -1 -2 0 0 0 0];

internalField   nonuniform List<scalar> 
654
(
5.799945366
7.790716585
7.756003978
7.767122829
7.771025388
7.771165148
7.75827254
7.777877623
7.736191527
7.698695843
7.732308682
7.720686182
7.723211253
7.735084179
7.744709449
7.789264292
7.754264484
7.764285771
7.869878444
8.351005692
5.879317309
7.885378737
7.859541766
7.823354212
7.806972899
7.830505679
7.818625525
7.815516121
7.83316352
7.844413478
7.868142377
7.887656121
7.911467314
7.921983973
7.917308485
7.969269965
7.994811476
8.080768153
8.195434871
8.459604263
5.916315138
7.971819146
7.886458053
7.851245206
7.867897352
7.863723182
7.896010783
7.883302495
7.887433787
7.858611377
7.879471792
7.843242004
7.804296223
7.823958733
7.833696813
7.81269914
7.84614416
7.923137992
7.984352048
8.220780826
5.910782969
7.886358407
7.882732824
7.878279486
7.856619755
7.857072717
7.850595101
7.846231367
7.825870117
7.848014128
7.811865992
7.837011602
7.869402234
7.796547422
7.801186368
7.768290252
7.774670538
7.844531574
7.961013185
8.191837761
5.892404919
7.898087054
7.802989533
7.818428217
7.835143585
7.824449944
7.807944657
7.806523509
7.813027704
7.817692786
7.815025066
7.792793241
7.81859
7.814517899
7.845488942
7.904570135
7.875072389
7.936308271
7.964535125
8.050960358
5.881124483
7.888181198
7.8725495
7.794028048
7.788815908
7.772334663
7.767151712
7.820732675
7.800057843
7.823747447
7.817392152
7.816313507
7.771770962
7.780579792
7.837320429
7.809518361
7.833246812
7.850951483
7.861142592
7.96188996
5.910200127
7.928585056
7.885009843
7.872869227
7.928857668
7.904023727
7.91411724
7.876091654
7.911179437
7.940352104
7.909496598
7.904064286
7.945136687
7.893242207
7.904516693
7.850825507
7.873607914
7.890433932
7.962699894
8.006617161
5.895352724
7.906708161
7.843299156
7.825571731
7.830865243
7.856989478
7.874327545
7.859288938
7.846166547
7.819566527
7.813594033
7.796707586
7.812316674
7.830397565
7.830359533
7.874461789
7.924712996
7.909191678
7.937978254
7.94849417
5.904742613
7.954856103
7.899662241
7.893257323
7.832448025
7.834318822
7.842861075
7.873651308
7.835413989
7.832049123
7.885075213
7.904586642
7.844582379
7.833843857
7.821073249
7.842789697
7.860480884
7.874065373
7.868941775
7.947375231
5.887462801
7.827161364
7.822282275
7.816101834
7.826660382
7.826214871
7.800796167
7.796811747
7.843768662
7.845677402
7.81298347
7.814922026
7.869331957
7.849640187
7.868159644
7.899235336
7.901074167
7.884676427
7.904627455
7.883689001
5.894150091
7.89426982
7.833050138
7.82444361
7.793442713
7.784792206
7.760848289
7.787292832
7.785520375
7.787627094
7.836784607
7.821454266
7.841081212
7.851835258
7.83869671
7.770316057
7.787572383
7.856636283
7.90260098
7.953334757
5.905869172
7.954693382
7.900004639
7.870544114
7.913954986
7.916530526
7.923356592
7.923619262
7.910373951
7.863751496
7.824113681
7.800653718
7.767016109
7.84110513
7.853049677
7.920741318
7.949923231
7.894056246
7.874548397
7.902556106
5.889048927
7.901287905
7.843610782
7.841486864
7.795888402
7.799669761
7.835136399
7.813755042
7.81631922
7.825512221
7.862177622
7.875052687
7.893395824
7.866615546
7.82420499
7.83251137
7.874870104
7.913631856
7.942798696
7.93069588
5.889926414
7.903817724
7.896683305
7.898257449
7.934733232
7.937510206
7.913230575
7.938833005
7.932835596
7.911338879
7.894910246
7.919289633
7.905226727
7.913303502
7.92294203
7.880772941
7.847001892
7.791640908
7.795768628
7.831557536
5.87984927
7.928009943
7.849859036
7.828284843
7.849193354
7.866088779
7.880678592
7.86983521
7.883455565
7.899993895
7.905448953
7.893370026
7.932491551
7.885497333
7.860542118
7.836371575
7.827349087
7.820776988
7.814630794
7.803040295
5.903982366
7.920134974
7.859819572
7.838016042
7.77545934
7.797217485
7.820278541
7.805128098
7.823131249
7.812249166
7.806249492
7.796369677
7.714851155
7.74095184
7.771421825
7.824583995
7.837990552
7.853571931
7.877254027
7.824118647
5.881619583
7.850767781
7.789947753
7.806333984
7.820663061
7.830987487
7.771265812
7.779884605
7.754465227
7.750974559
7.763938457
7.790052782
7.815285276
7.867885312
7.821025253
7.814855804
7.825870294
7.853829657
7.824014492
7.837310639
5.898409732
7.932597279
7.878240583
7.884694494
7.87723622
7.84613583
7.871686014
7.874240533
7.868909873
7.86026638
7.853856037
7.84256835
7.833903025
7.829227297
7.864820021
7.848750252
7.877593846
7.838550459
7.858662509
7.857020392
5.904322652
7.937930861
7.869741429
7.799347028
7.821025033
7.83513029
7.813981851
7.847420241
7.820110084
7.830461531
7.81951836
7.827696149
7.787014682
7.805115757
7.79066821
7.78428407
7.815366049
7.798487803
7.811240776
7.793539177
5.89890023
7.919570679
7.951415887
7.948345964
7.940209948
7.934340649
7.909157656
7.877281909
7.889984424
7.878193363
7.901939781
7.922464741
7.931997429
7.888425006
7.876845291
7.883474736
7.887651094
7.919151953
7.921392937
7.917232034
5.897431403
7.885797872
7.781614005
7.786701059
7.806021851
7.833794454
7.836873303
7.779263944
7.822496067
7.849954783
7.868064342
7.861132687
7.859588831
7.914048872
7.929793532
7.942284358
7.922755058
7.915834181
7.911844601
7.891835141
5.883821812
7.926282838
7.860074525
7.817207339
7.838827289
7.805491144
7.843677485
7.891367291
7.930740455
7.896255762
7.866662111
7.842340978
7.850668683
7.867691814
7.836393992
7.866380353
7.840555927
7.842498426
7.884497557
7.876759888
9.762052338
9.869227815
9.616084141
9.202276305
8.765229503
8.462843147
8.142857685
7.777338174
7.420774228
7.203893965
9.129900355
9.780004097
10.25004887
10.43888817
10.46147544
10.35131421
9.989975051
9.722520666
9.394090214
9.054830949
8.687476374
9.342089592
9.857106357
10.37923321
10.6620236
10.95698395
11.04412458
11.02892877
10.85270437
10.50177777
8.472099253
8.799320528
9.255926769
9.821496615
10.27879684
10.69035017
11.10496739
11.34975213
11.56762768
11.58513635
8.237716222
8.575483689
8.967597277
9.364713055
9.903303717
10.3048916
10.69357354
11.02048325
11.41759522
11.76065102
8.14160475
8.358372865
8.632146676
8.987598613
9.353585608
9.839783
10.35379335
10.77934924
11.1992753
11.6050298
8.138524519
8.307932506
8.445715265
8.741933324
9.016985922
9.426227818
9.829995853
10.26490901
10.76414471
11.1941935
7.987797692
8.098736391
8.274130085
8.442636377
8.692132497
8.93504814
9.328403581
9.710989124
10.15003574
10.51458471
7.978175807
8.06025124
8.134404545
8.289596822
8.497481941
8.745178919
8.98186639
9.257368456
9.648046504
10.0303371
7.981265861
8.06913259
8.170974731
8.221659248
8.333346375
8.495218792
8.764017079
8.961233582
9.197346089
9.49906322
7.983651892
8.001536623
8.112383811
8.219527563
8.311910489
8.382420522
8.501817109
8.6906879
8.862701528
9.133688271
7.911222864
7.930874943
7.927646807
7.99181429
8.044254632
8.154405067
8.24567503
8.428344309
8.669283327
8.850429142
7.919659514
7.950079032
7.927662736
7.972125026
7.994591275
8.099732249
8.226539134
8.285411406
8.377330711
8.577339438
7.867509357
7.866024108
7.912792998
7.94477111
7.964388336
7.973574015
8.012985482
8.154575871
8.277332997
8.398053519
7.808853845
7.804707043
7.869996117
7.891544538
7.897913479
8.023335571
8.037575066
8.08353035
8.150114466
8.225428034
7.900729394
7.929276087
7.90236052
7.917213427
7.982930555
7.97086182
7.985999575
8.004009987
8.06142675
8.094219682
7.812819984
7.847152629
7.840417691
7.841529807
7.815286481
7.845383856
7.894592903
7.945599989
7.9570941
8.120601807
7.883224333
7.801124086
7.820536383
7.815845669
7.874501356
7.895070917
7.901690961
7.935529333
7.949454178
7.944837508
7.834148609
7.910585177
7.929696897
7.958696911
7.962167286
7.911331973
7.898602194
7.910719729
7.913504522
7.977949119
7.883619219
7.881075189
7.883960617
7.848964764
7.872414891
7.91166586
7.947234393
7.975908794
7.949395218
7.955833713
7.890204237
7.903492912
7.901259314
7.896293775
7.873494488
7.873171435
7.871330059
7.884668757
7.958224708
7.961493499
7.878975131
7.837157919
7.843749918
7.879293216
)
;

boundaryField
{
    flow
    {
        type            calculated;
        value           nonuniform List<scalar> 
42
(
5.799945366
5.879317309
5.916315138
5.910782969
5.892404919
5.881124483
5.910200127
5.895352724
5.904742613
5.887462801
5.894150091
5.905869172
5.889048927
5.889926414
5.87984927
5.903982366
5.881619583
5.898409732
5.904322652
5.89890023
5.897431403
5.883821812
5.799945366
7.790716585
7.756003978
7.767122829
7.771025388
7.771165148
7.75827254
7.777877623
7.736191527
7.698695843
7.732308682
7.720686182
7.723211253
7.735084179
7.744709449
7.789264292
7.754264484
7.764285771
7.869878444
8.351005692
)
;
    }
    obstacle
    {
        type            calculated;
        value           nonuniform List<scalar> 10(4.136678981e-18 3.671481108e-18 3.401452745e-18 3.134500574e-18 3.013860421e-18 2.826827836e-18 2.762725804e-18 2.648763547e-18 2.526156328e-18 2.462702833e-18);
    }
    frontAndBack
    {
        type            empty;
    }
    procBoundary0to1
    {
        type            processor;
        value           nonuniform List<scalar> 
21
(
6.996236913
8.783618956
10.28785766
11.37829425
11.91062632
11.99358184
11.60712814
10.97052872
10.51820354
9.838831749
9.458020524
9.083336812
8.754306038
8.453315949
8.383843227
8.132681596
8.175731847
8.00949242
8.00031
7.998189983
7.925274226
)
;
    }
    procBoundary0to2
    {
        type            processor;
        value           nonuniform List<scalar> 
31
(
5.879864869
7.899731197
7.889356136
7.855027868
7.844868948
7.854616209
7.867104706
7.847961806
7.823734385
7.883044867
7.896433089
7.940187476
7.918810248
7.860288862
7.867343244
7.861508332
7.860544236
7.876717129
7.824834547
7.800400559
7.899257676
7.906692856
7.909967101
7.895990737
7.912636037
7.948389224
7.811071555
7.842983214
7.86061462
7.899257676
7.808581844
)
;
    }
}


// ************************************************************************* //
