/*--------------------------------*- C++ -*----------------------------------*\
| =========                 |                                                 |
| \\      /  F ield         | OpenFOAM: The Open Source CFD Toolbox           |
|  \\    /   O peration     | Version:  2406                                  |
|   \\  /    A nd           | Website:  www.openfoam.com                      |
|    \\/     M anipulation  |                                                 |
\*---------------------------------------------------------------------------*/
FoamFile
{
    version     2.0;
    format      ascii;
    arch        "LSB;label=32;scalar=64";
    class       volScalarField;
    location    "0.011";
    object      linearKE;
}
// * * * * * * * * * * * * * * * * * * * * * * * * * * * * * * * * * * * * * //

dimensions      [1 -1 -2 0 0 0 0];

internalField   nonuniform List<scalar> 
654
(
6.461794567
6.274655074
7.224535396
13.01406289
5.870158445
6.884090617
13.55786352
6.573098198
7.423715981
6.720817855
8.826119715
7.606014918
4.298812147
7.672647545
8.051185539
3.142438548
11.29117601
6.402607606
9.821064707
7.328023464
4.732812293
9.811327492
5.512141431
8.029789415
5.239119207
6.783594626
9.095422165
11.54554974
5.005773518
8.690031246
14.14816501
5.302474697
12.51118802
9.618179294
12.22468604
10.14082567
10.28386836
5.778021833
8.370988205
7.415473003
4.694852033
6.041285484
4.801022303
10.79032519
7.711302799
6.222110678
10.92990249
7.942770959
7.997425261
5.705673461
6.440732652
8.508866967
14.21227214
9.300866429
8.055523305
8.910038627
11.1877998
7.667138433
5.728417996
8.721865833
5.603935967
9.787679327
8.233495486
10.20616354
5.546458833
6.481590136
2.9386811
4.528747496
8.922069062
8.352720318
5.578494811
5.033154959
7.698211792
10.43184476
5.157128404
7.039728578
9.632956421
9.566408765
8.523692135
11.06279695
8.347331121
6.507591543
9.301035266
5.702119034
7.529437669
6.844663201
5.791483207
9.754697398
7.199129234
8.467058039
6.830061851
6.664291299
8.20940237
5.562552405
3.760553318
8.818236532
10.61357187
15.33537218
9.50156643
4.203492899
3.52109165
10.84917128
12.51307014
5.886789766
7.20569814
3.258956573
11.85415207
5.213218944
7.21408307
9.145380176
2.759353151
8.761849007
1.571347299
11.90159059
8.299252111
7.168832524
9.262753846
5.876914608
7.961236904
9.407493726
8.389234022
5.0273573
5.591913345
4.610472063
8.32661458
7.426688538
8.161763374
9.143450757
9.827654635
5.598029407
9.894500267
11.43264678
6.321527074
9.875848005
8.858197609
6.725446587
5.89400401
8.758938907
11.14135764
10.23858547
7.465310931
5.216407709
10.35438681
9.015284503
7.406365607
9.669365768
8.994088087
10.75067961
5.167146843
6.875453885
11.94608699
8.719254959
6.876343792
6.297029058
6.797619276
2.648081007
5.13110394
5.077792168
12.86487289
4.659244048
5.600380892
6.903667761
9.108525391
11.48371928
10.00651056
6.548447884
6.818106689
11.84259498
9.414427786
7.525871758
10.68982047
8.503074721
9.301942375
8.477258488
7.880564731
7.611386917
10.49315863
7.53549016
5.97233762
9.590773356
5.404165695
6.958577554
5.143489374
10.3652211
7.010562392
5.355917796
8.932424056
5.04444935
6.120834232
7.25890519
12.33292577
8.07355233
7.10068598
3.93977728
4.83131514
7.556606096
7.995335163
11.47994331
6.592211274
3.319544223
6.233562884
11.32651162
3.404020661
9.214141883
8.756165172
6.715285642
6.80910479
11.99829386
13.75264248
7.158142086
4.512695994
6.444065997
5.517031715
5.859861861
8.338718761
6.864863244
5.296517822
10.83397977
12.98511155
6.000794755
7.095780723
4.579275812
10.52555909
7.235329438
8.775947894
8.34068048
4.935968043
9.978323063
10.5668211
9.45063887
9.266812143
11.56897326
9.529197868
8.283516134
7.633876054
8.048210103
10.09781253
8.093169316
7.130558662
8.351754377
5.143231554
11.01773241
7.085848776
7.705526539
6.573508806
5.758368944
8.642033576
7.754310081
5.574210744
5.000513341
9.056382294
12.10588852
11.90334301
6.410703885
13.0122865
9.595786403
6.159756486
6.754817049
11.15811438
12.67010677
7.134189012
7.84876727
7.876509827
13.82451848
2.482331543
6.257126106
5.640007377
13.63303864
9.537014385
2.639904294
8.753398566
12.86767792
7.418874885
6.941238045
7.418125552
10.33471993
5.849753962
3.280555308
15.96245208
6.804375496
5.062790864
7.176069262
6.472483733
7.135446128
6.672325373
8.362275653
8.621471537
7.367186107
8.72346625
5.296777667
5.31774191
1.484162751
8.277652158
5.423160133
10.20574981
3.929047902
9.406476338
6.222355989
7.285759302
4.977665402
2.630113678
10.36774101
13.05372953
8.299404335
13.12196868
6.645188823
7.108310534
6.91669179
1.87079603
11.29999527
8.698657589
8.619502801
11.31797083
2.880153803
8.137470598
9.456472499
6.459733539
10.00560955
8.315806141
12.52437055
6.177783854
6.288953463
5.362841765
7.109087239
4.430370791
9.378204078
6.539717825
12.3030852
6.41155656
6.658143152
8.079579197
11.66437092
4.680518172
6.647587273
5.11771239
8.982359922
6.407880113
11.91701797
8.745923413
8.66751402
6.503871376
6.553596693
9.136839344
6.218872227
7.685156871
7.542761446
11.60636848
9.35224021
4.084185587
9.768943686
4.010171195
10.00709783
8.726141171
5.058665669
7.122961102
8.429819585
6.886611823
6.955538816
13.00805201
3.224269642
6.678655432
7.541896739
10.09631088
6.574697415
4.873186234
11.93967357
2.367679158
9.69758435
6.722447925
9.754809409
10.65926351
6.676260662
10.25696787
5.749861711
8.38156046
4.254530512
5.976528272
5.276033646
4.659440227
5.413735022
5.182783489
5.982530983
7.966933028
9.333782986
2.062428855
5.484045484
9.296384978
9.980912602
7.101641689
7.245441312
7.824248891
6.352766883
8.06113066
7.455568735
6.972240615
10.23814428
4.430581244
6.786762699
14.26332695
9.624673933
7.405265835
8.43240834
10.73614657
5.937486604
6.353568792
8.098264051
10.61741577
6.29986426
8.06101943
6.506961418
6.88830882
8.422429782
11.87368021
9.191368212
10.43815386
9.170372324
8.015768123
6.780194058
5.211883193
16.86754468
4.600345461
5.299434428
9.776925958
8.805526312
8.470639089
3.998274892
7.628944359
8.010016759
9.573328165
9.524177938
4.709885743
5.117365645
8.66503491
11.27102261
7.146575908
7.956813459
4.646525644
5.51167969
7.680869828
8.123886894
11.924197
7.568484161
12.34791897
8.228523823
7.917457371
7.363476034
7.615499476
9.243338738
7.368681697
6.36115951
13.86319117
8.311184128
8.883437073
11.56698747
12.39128177
10.157021
5.81857454
12.44353286
13.85170097
10.14873934
4.853241138
9.598561447
10.807689
8.154007999
6.207523547
7.761233647
8.352791531
10.2590445
12.96213212
10.68511733
10.16955703
3.73343761
5.515533477
16.58632788
5.628830816
9.881297903
11.43702227
10.46155588
9.639233366
14.24445856
7.147088969
3.845996128
6.566197442
16.20774863
4.264417339
6.743161244
11.81874681
9.675286228
5.798743992
11.0074164
8.482939604
7.467216505
4.004209235
3.940998292
10.33832414
10.00503134
10.21640388
10.77630544
17.28486065
6.773390882
6.048925214
3.130554465
9.96832082
8.584104376
10.03170438
6.856382479
5.996522427
10.06293069
13.35406378
8.599063084
9.000013033
6.806788952
7.800419391
10.75103085
7.085708417
14.44468922
7.485057538
8.72310822
14.36370112
11.76067523
8.482492576
12.10739745
8.518905231
2.056156056
8.113497002
5.60633646
9.561518744
7.968605484
10.25375868
10.83520755
6.968833192
7.979201097
8.326954936
13.78981307
9.369860909
12.18831176
4.607476601
8.677818324
5.907677115
10.13770286
8.660141717
9.51367319
10.43501769
8.987185357
7.986279514
5.118159647
7.971539675
8.048993544
6.408414334
10.25102407
8.604223242
8.839491384
6.604681921
6.930241844
7.425565555
12.18061699
6.883608395
7.309264576
10.87290197
7.472789254
3.347692573
7.134762937
5.536300596
8.068617963
5.21736061
14.25857503
11.65152487
6.095987697
7.831737718
9.872916824
5.204867772
8.489103328
8.574962549
5.36937089
2.090699683
3.657529479
5.400815786
6.302508592
14.00387571
8.321838579
5.246370455
8.217580721
6.556691818
6.607740284
6.131166166
7.210554381
7.380957745
11.81435862
15.50408563
8.039066845
7.213061838
5.454535488
9.550641879
7.488529299
9.85246231
6.798537238
8.118087497
8.081594379
7.291913089
7.873493673
12.73429657
9.012817569
5.445773326
6.416692344
8.243973226
8.156111804
6.678137126
8.0866434
8.294875873
4.833001589
5.561771147
5.349960774
6.246194649
5.352678116
7.919988714
16.53544292
6.539748475
8.914355318
7.239269188
12.00988438
10.02821917
12.67808078
11.24262594
6.942347477
10.26186266
7.106961044
10.46775903
8.702808909
11.17345465
9.284069938
6.187877728
5.025548319
13.78460315
9.645077187
7.462390391
7.838851455
9.368510327
6.3400068
14.60769096
2.502432578
7.999288182
9.742143502
8.037963766
7.737487021
6.680352592
3.547695493
6.243071494
6.632931111
6.610084581
11.33186926
7.519047222
3.468000797
8.982489254
7.494572139
)
;

boundaryField
{
    flow
    {
        type            zeroGradient;
    }
    obstacle
    {
        type            calculated;
        value           nonuniform List<scalar> 10(2.65642317e-18 9.414962255e-19 9.884328444e-18 6.517197623e-18 4.35158546e-18 2.092757338e-18 0 1.306082348e-18 3.409522871e-18 2.855438733e-18);
    }
    frontAndBack
    {
        type            empty;
    }
    procBoundary0to1
    {
        type            processor;
        value           nonuniform List<scalar> 
21
(
6.189357052
6.654634188
13.08247938
11.21801072
13.225025
12.81777463
9.942614311
14.45483332
4.609304207
10.43136977
14.50442022
8.111221927
4.68120065
11.3676828
5.040806653
6.954656007
3.323663654
10.89218029
6.294476904
11.64821781
11.98082794
)
;
    }
    procBoundary0to2
    {
        type            processor;
        value           nonuniform List<scalar> 
31
(
4.664341327
7.751352109
7.928141035
7.052233737
7.253640672
7.990906153
3.487306062
8.387491554
8.670825756
5.843938114
9.345072393
7.827645092
9.351487238
11.33128602
8.684922245
8.24168041
8.788748818
5.72037573
7.530960197
6.933193832
9.05378913
3.622649624
4.377959194
6.963265129
8.467765439
11.04796166
7.244904482
12.53002792
9.694745103
9.05378913
7.081182907
)
;
    }
}


// ************************************************************************* //
