/*--------------------------------*- C++ -*----------------------------------*\
| =========                 |                                                 |
| \\      /  F ield         | OpenFOAM: The Open Source CFD Toolbox           |
|  \\    /   O peration     | Version:  2406                                  |
|   \\  /    A nd           | Website:  www.openfoam.com                      |
|    \\/     M anipulation  |                                                 |
\*---------------------------------------------------------------------------*/
FoamFile
{
    version     2.0;
    format      ascii;
    arch        "LSB;label=32;scalar=64";
    class       volVectorField;
    location    "0.011";
    object      momentumMean;
}
// * * * * * * * * * * * * * * * * * * * * * * * * * * * * * * * * * * * * * //

dimensions      [1 -2 -1 0 0 0 0];

internalField   nonuniform List<vector> 
654
(
(0.006258424583 -3.161760117e-05 -8.859490463e-06)
(0.008223673564 -3.53772153e-05 -1.59594195e-05)
(0.008230705334 -4.22257497e-05 -1.231073332e-05)
(0.008233004987 -4.082104076e-05 -9.368887014e-06)
(0.00824259863 -4.056449741e-05 -1.07917164e-05)
(0.008239284704 -4.378300494e-05 -9.375542641e-06)
(0.008220756295 -3.59821703e-05 -3.342421151e-06)
(0.008245955739 -3.745796412e-05 -1.255670675e-05)
(0.008205181843 -3.036820477e-05 -2.37181431e-06)
(0.008175066444 -2.172638384e-05 -1.62798043e-06)
(0.008211799393 -2.273892401e-05 -1.066757517e-06)
(0.008203224829 -2.092790358e-05 -6.887754142e-06)
(0.008206086624 -2.408033384e-05 -6.844345575e-06)
(0.008208387282 -2.997292631e-05 -1.000234709e-05)
(0.008215312028 -2.472692479e-05 -1.204325248e-05)
(0.008245791253 -3.890174324e-05 -9.609791302e-06)
(0.00818713276 -4.313508291e-05 -3.570854337e-07)
(0.008145475245 -7.433770011e-05 -3.087346164e-06)
(0.008065262966 -0.0001065365159 -1.098080389e-05)
(0.007759369777 6.633608865e-05 1.901414962e-05)
(0.006329997485 -9.379250544e-06 6.686209351e-06)
(0.008309834654 -1.737413028e-05 6.900191101e-06)
(0.008336389679 -9.220101205e-06 1.035284558e-05)
(0.008299036427 -1.284424457e-05 2.918050481e-07)
(0.008284030233 -2.172473452e-06 -3.109202111e-06)
(0.008311080355 -8.342121834e-06 -1.069207573e-05)
(0.008303274153 -9.330956683e-06 -2.079551769e-05)
(0.008299663493 -8.12019808e-06 -1.251180113e-05)
(0.008306400077 -6.470344575e-06 -7.829454622e-06)
(0.008311825979 -1.126898003e-05 -3.159694088e-06)
(0.008330397299 -1.443396624e-05 -3.267981947e-06)
(0.008351412008 -1.23174185e-05 -1.704247627e-06)
(0.00836871157 -1.52415204e-05 2.911036357e-06)
(0.008383838015 -1.757371762e-05 -1.677060555e-06)
(0.008376100143 -1.110152333e-05 -3.929808502e-06)
(0.008414673807 -1.238387631e-05 -7.838501359e-06)
(0.008409370605 -9.647922633e-06 -2.802011888e-06)
(0.008424025388 7.832529991e-06 -4.640300004e-06)
(0.008336933303 8.087176512e-05 -1.010746264e-05)
(0.008156593274 0.0004264892875 7.351091443e-06)
(0.00637087868 2.924336337e-06 1.319149429e-05)
(0.008397008534 -5.198054432e-06 1.418505337e-05)
(0.008358909294 -1.299793082e-05 4.13152015e-06)
(0.008324833522 -1.825384496e-05 2.999958115e-06)
(0.008344019414 -2.623393031e-05 8.110258369e-06)
(0.008340127892 -1.855559841e-05 9.128612407e-06)
(0.008371298976 -6.917259603e-06 1.448190755e-05)
(0.00834788936 -4.371749943e-06 1.062999585e-05)
(0.008361974555 -4.668074976e-06 3.194823592e-06)
(0.008335547333 -8.792532349e-06 2.808305909e-06)
(0.008360965407 -1.652014609e-05 -7.568981305e-07)
(0.008327126765 -2.36178176e-05 -6.296149656e-06)
(0.008284282874 -1.747930813e-05 -7.550281936e-06)
(0.008300238031 -1.078117188e-05 -7.786782144e-06)
(0.008301114926 -1.329618706e-05 -1.34445372e-05)
(0.008270536296 -2.051073332e-06 -5.017942384e-06)
(0.008254526585 8.286297831e-06 -3.014943887e-06)
(0.008262091684 4.126673263e-05 -8.19268337e-06)
(0.008179183787 0.000150378723 2.877521309e-06)
(0.008215852983 0.0003821291513 7.725216647e-06)
(0.006377428796 -1.290553477e-05 3.681393758e-08)
(0.008329778279 -1.475006357e-05 2.51760428e-06)
(0.008373558433 -1.066286451e-05 9.614825865e-06)
(0.008365898054 -3.607324444e-06 1.046795554e-05)
(0.008332842427 4.556798696e-06 7.091667352e-06)
(0.008325630066 4.559638646e-07 6.512801203e-06)
(0.008319883443 -1.191660985e-05 3.894932372e-07)
(0.00831807534 -1.834726407e-05 -4.857791317e-06)
(0.008294319617 -1.581599193e-05 4.077469224e-07)
(0.008321079698 -5.300069838e-06 -8.809952091e-08)
(0.008281182807 3.183399444e-06 1.221310348e-06)
(0.008308268833 1.316204693e-05 -3.629046176e-06)
(0.008338753379 1.662500053e-05 -3.119063072e-06)
(0.008265422784 9.791224713e-06 7.193637425e-06)
(0.008265086578 9.33973869e-06 5.262135374e-06)
(0.008215230966 -6.573665352e-07 -9.427263577e-07)
(0.008204277797 1.743951016e-05 -2.581551792e-06)
(0.008212640755 5.023351713e-05 5.246910179e-06)
(0.008241907755 0.0001219914082 3.646399427e-06)
(0.008333596196 0.000306573646 -6.124505037e-06)
(0.006355979894 -6.672423089e-06 8.8733453e-07)
(0.008330428458 -9.715770853e-06 6.658106714e-06)
(0.008270995738 -5.873253704e-06 3.352991651e-06)
(0.008286247346 -3.115472553e-06 4.200795415e-06)
(0.008302845088 -5.622185801e-06 7.616847361e-06)
(0.00829924632 -6.482720241e-06 3.941983092e-06)
(0.008278790047 4.222852962e-06 1.198729836e-05)
(0.00827624677 7.767663703e-06 1.313644248e-05)
(0.008283074642 6.350537807e-06 3.499319486e-06)
(0.008282908087 2.29768992e-06 2.02971118e-06)
(0.008283635144 -5.24279281e-06 1.122276041e-05)
(0.008266724983 -1.281722729e-06 1.777511965e-05)
(0.008292905852 -5.568931564e-06 8.379959029e-06)
(0.008288180176 -6.983777612e-07 5.938119312e-06)
(0.008312822096 7.825960245e-06 5.635992897e-06)
(0.008360279953 1.887079689e-05 1.652588028e-06)
(0.00831657325 2.968397123e-05 4.968796946e-06)
(0.008341789469 5.520108457e-05 5.13130181e-06)
(0.008325267958 0.0001166138652 -5.635067382e-07)
(0.008320111109 0.0002559269779 8.972184539e-06)
(0.006334463755 1.206156594e-05 -3.73254258e-06)
(0.008305731123 1.372543979e-05 -1.374536264e-06)
(0.008342717034 8.385858071e-06 4.098342566e-06)
(0.00826523683 1.435664811e-06 -4.636871849e-06)
(0.008259159412 6.359095809e-06 8.621558258e-07)
(0.008249984961 -5.022542774e-06 4.024232033e-06)
(0.008245820426 -6.138484644e-06 -3.813049824e-07)
(0.008296746451 -4.928747082e-06 -2.892726809e-06)
(0.008282652047 1.767227106e-07 5.703722806e-06)
(0.00830051175 4.819581787e-06 6.792047242e-06)
(0.008294309674 8.364576193e-06 5.151903523e-06)
(0.008286172033 1.933594959e-06 -4.674909804e-06)
(0.008236880036 -5.330314511e-06 -1.997794711e-06)
(0.008240246068 -1.404605162e-05 2.344926361e-07)
(0.00829362426 3.254543991e-06 2.900449133e-06)
(0.008258663079 5.831371942e-06 3.029958785e-06)
(0.008271880332 2.933241839e-05 -5.736071489e-07)
(0.00825550809 5.94165669e-05 -2.540229301e-06)
(0.00824425021 9.586902047e-05 8.245475436e-07)
(0.00828172756 0.0001989925377 7.736557916e-06)
(0.006369047098 -8.320856899e-07 -1.048372776e-05)
(0.008359776227 9.883363204e-07 -1.55478728e-05)
(0.008367310946 4.346291858e-06 -1.490613047e-05)
(0.008353187884 3.251310919e-06 -1.761035474e-05)
(0.008412080298 1.631019761e-06 -1.841005113e-05)
(0.008386706899 1.247377095e-05 -1.297913412e-05)
(0.008393236977 9.043654224e-07 -1.125812831e-05)
(0.00836189127 -5.863534676e-06 -1.537535352e-05)
(0.008396206111 -7.932182554e-06 -1.458146708e-05)
(0.008426862765 -9.484437326e-06 -1.334613092e-05)
(0.008397927633 -9.060829645e-06 -1.817858961e-05)
(0.008399667264 -5.425728733e-06 -1.067646587e-05)
(0.008441113424 8.126548424e-06 -4.145573627e-06)
(0.008387303206 1.381483956e-05 -1.007109962e-05)
(0.00838958837 1.776614428e-05 -7.11571203e-06)
(0.008331671031 1.444926728e-05 -1.256071381e-05)
(0.008334948574 3.593430933e-05 -1.377791474e-05)
(0.008336379757 4.249192515e-05 -1.306488762e-05)
(0.00837910625 8.641303227e-05 -8.175890017e-06)
(0.008385961708 0.0001469915366 -5.391024963e-06)
(0.006352492838 -7.373785287e-06 -1.322464307e-05)
(0.008332740327 -7.447367448e-06 -1.778564106e-05)
(0.008321132605 -1.129867031e-05 -1.069341534e-05)
(0.008299753406 -9.589793508e-06 -1.105449107e-05)
(0.008308025973 1.680106766e-07 -1.019845416e-05)
(0.008325365003 -3.857950453e-06 -2.333811326e-05)
(0.008346689958 3.13863326e-06 -2.445624165e-05)
(0.008338642003 2.756771325e-06 -1.709544353e-05)
(0.008331223558 2.594136107e-06 -1.822154258e-05)
(0.008302736934 -4.415257088e-06 -2.091605379e-05)
(0.008298969673 -2.889284754e-06 -1.878294036e-05)
(0.008271938978 3.721064476e-06 -2.124236916e-05)
(0.008292019447 9.612899556e-06 -2.049201379e-05)
(0.008309168719 8.421612786e-06 -1.237100161e-05)
(0.008301463856 1.238091278e-05 -1.987355197e-05)
(0.008340900918 1.270213084e-05 -1.415805611e-05)
(0.008376462988 1.712223126e-05 -9.674240354e-07)
(0.008357014452 4.692660067e-05 -1.401191024e-05)
(0.008379565285 6.284356236e-05 -1.248879206e-05)
(0.008365530952 0.0001070725183 -1.63741709e-05)
(0.006368906021 -6.832868003e-06 -1.014492364e-05)
(0.008389526413 -2.740717148e-06 -1.481494283e-05)
(0.008382793527 -4.514934473e-07 -2.324183828e-05)
(0.008376862309 -4.478345623e-07 -1.793346996e-05)
(0.008317327133 -4.696451186e-06 -1.523033126e-05)
(0.00831224079 -7.23000808e-07 -5.762711973e-06)
(0.00832607899 -3.914542616e-06 -1.344521353e-06)
(0.0083464853 4.862543043e-06 -4.4597068e-06)
(0.008303025818 7.811218924e-06 -4.995075092e-06)
(0.008299774976 1.573530778e-05 6.994851769e-06)
(0.008358963318 7.925492349e-06 5.067349906e-06)
(0.008382571782 1.159990049e-05 -8.570688059e-06)
(0.008322523648 -1.088783585e-05 -3.348134112e-06)
(0.008306095097 -7.589152186e-06 6.700869629e-08)
(0.008288339151 -6.308053074e-06 4.364144251e-06)
(0.008319459892 5.781717732e-06 -1.384316793e-06)
(0.00832958816 2.485294981e-05 1.703862358e-06)
(0.008336228552 4.266056356e-05 -8.473374967e-06)
(0.00832139449 5.34681938e-05 -1.55102414e-05)
(0.008385988195 9.270163484e-05 -5.51115397e-06)
(0.006346742089 2.575184195e-06 2.512144782e-06)
(0.008256579826 -4.835534065e-06 4.990705548e-06)
(0.008303057144 -7.890362821e-06 7.025807213e-06)
(0.008293086238 -5.158747814e-06 3.089194612e-06)
(0.008307467703 -1.002057433e-05 -5.983995754e-06)
(0.008312217058 -2.623905242e-06 -7.24088523e-06)
(0.008284024758 -5.903237098e-06 -4.226286531e-06)
(0.00828676753 -3.128751309e-06 -1.28655931e-05)
(0.008330968107 6.714570723e-06 -1.566544843e-05)
(0.008333091909 3.7352936e-06 -2.095836784e-05)
(0.008298485095 4.419232528e-06 -1.232610906e-05)
(0.008298986934 4.240011949e-06 -7.294085001e-06)
(0.008347162769 6.828327768e-06 -2.658536307e-06)
(0.008329089483 9.034332693e-06 -1.298343257e-05)
(0.008346985823 9.166628394e-06 -1.498624677e-05)
(0.008367766266 8.540483157e-06 -1.075173762e-05)
(0.008370473878 1.268039662e-05 -5.713399123e-06)
(0.008334644489 3.172713822e-05 4.532144328e-07)
(0.008355885024 5.115129133e-05 3.428558826e-06)
(0.008316634331 7.77246193e-05 1.617555662e-07)
(0.006364413597 1.709879495e-05 -3.822670082e-06)
(0.008344223588 2.497336735e-05 -8.710690854e-06)
(0.008321185507 1.68528332e-05 -1.254638389e-05)
(0.00831157251 9.304507795e-06 -8.057176595e-06)
(0.008280195721 9.717773122e-06 -4.09163685e-06)
(0.008267406258 8.889332263e-07 -4.058815757e-06)
(0.008241848284 -4.986246626e-06 -1.233467511e-07)
(0.008260411528 -6.34633622e-06 -6.86564129e-06)
(0.008261723412 -1.299576499e-05 -3.50425243e-06)
(0.008272200207 -1.419269405e-05 -1.272602133e-05)
(0.008322492483 -1.184171568e-05 -1.283119893e-05)
(0.008306168938 -9.971812106e-06 -1.238600605e-05)
(0.008331121034 -3.1545659e-07 -1.017038458e-05)
(0.0083411766 1.087914813e-05 -1.419563631e-05)
(0.00831619351 1.785801747e-05 -1.498305905e-05)
(0.008248960776 1.554427197e-05 -1.019857674e-05)
(0.008259938641 1.807249123e-05 -1.312207274e-05)
(0.008320715051 1.275463586e-05 -1.087882338e-05)
(0.008367478234 1.746312286e-05 -1.518218479e-05)
(0.008400392471 4.30777743e-05 -1.012199734e-05)
(0.006365546954 2.041767761e-06 6.06689973e-06)
(0.008388033579 -5.495547856e-07 1.260801716e-05)
(0.008383702777 4.898503567e-06 2.01309327e-05)
(0.008360898088 5.719179706e-06 1.765537834e-05)
(0.008403119158 -3.406384796e-06 1.302829412e-05)
(0.008406915737 -3.23816527e-06 1.024631925e-05)
(0.008422046334 6.356082428e-06 5.939112702e-06)
(0.008431086896 -2.791036438e-06 6.271375854e-06)
(0.008414876186 1.259675567e-06 7.328920222e-06)
(0.00835917616 5.875770683e-07 6.706156126e-06)
(0.008315361819 6.437637879e-06 2.602599773e-06)
(0.008283259113 9.926132466e-06 -1.565595295e-06)
(0.008244576729 3.550145082e-06 -2.69450819e-06)
(0.008316487484 -1.616281993e-06 -3.400453029e-06)
(0.008332208737 -7.911111575e-06 2.834732922e-06)
(0.008402621019 -4.639197285e-06 -9.698370698e-06)
(0.00843053716 -1.000922154e-06 -1.299368248e-06)
(0.008374734831 1.430413665e-05 2.667788843e-06)
(0.008357664336 1.822225622e-05 -3.864012085e-06)
(0.008368553918 2.496024519e-05 1.228788721e-05)
(0.006356072436 3.653108998e-06 1.082596287e-05)
(0.008341058279 3.751213334e-07 4.543206603e-07)
(0.008332841556 -2.975266504e-06 2.66100795e-06)
(0.008322775597 4.497980143e-06 5.735825698e-06)
(0.008280697314 4.884998549e-06 1.542159982e-06)
(0.00827936641 8.428995061e-06 7.177412808e-06)
(0.008312594738 2.421110016e-06 4.719580462e-06)
(0.008283744701 7.235580926e-06 -1.927715814e-06)
(0.008282433465 1.145503181e-05 3.073039137e-06)
(0.008294981279 6.103685805e-06 6.166052957e-06)
(0.008339849712 -3.363376752e-07 9.924680219e-06)
(0.008360630877 -1.15389626e-05 7.540075957e-06)
(0.008376181187 -1.589720644e-05 1.412024972e-05)
(0.00835772098 -1.678917806e-05 1.419620032e-05)
(0.008309062666 -7.463109226e-06 1.296746054e-05)
(0.008314317727 -2.464849836e-06 1.68794178e-05)
(0.008350090573 -5.63656533e-06 1.152242353e-05)
(0.008379588658 4.449815209e-06 9.419265156e-06)
(0.008400915142 5.959120275e-06 4.249453477e-06)
(0.008392981577 2.963043311e-05 1.58648206e-06)
(0.006368040983 -8.339230973e-06 -1.451350359e-06)
(0.008350155966 -4.959415961e-06 -1.943132753e-06)
(0.008383579834 3.403640416e-06 -9.202464386e-06)
(0.008387380435 -1.375436919e-06 -2.155632739e-05)
(0.008421029621 -1.445228926e-06 -1.443686468e-05)
(0.008420144574 4.698049152e-06 -9.679184004e-06)
(0.008391915317 1.715709086e-05 -2.192217626e-06)
(0.008415522059 1.191124572e-05 2.475635426e-06)
(0.008415474902 -3.044598803e-06 4.323428264e-06)
(0.008397019814 -5.862837479e-06 1.148186379e-05)
(0.00837381428 -7.499654396e-06 5.691426042e-06)
(0.008401033308 3.399702848e-06 9.718945514e-06)
(0.008384803966 7.253586251e-06 8.650293227e-06)
(0.008392556182 -4.129130141e-07 8.653250119e-06)
(0.008396417729 -1.009490626e-05 5.963489654e-06)
(0.008352986344 -4.871222093e-06 -4.667497228e-06)
(0.00831695418 -7.315725828e-06 -1.191108478e-05)
(0.008266768072 -5.97795586e-06 6.392785029e-07)
(0.008273816506 7.795789743e-06 -4.464766527e-06)
(0.008306044948 1.084420662e-05 -5.353225986e-06)
(0.006330348279 -4.874560252e-06 -7.035522191e-06)
(0.008351686813 -6.948432602e-06 -1.526709225e-06)
(0.008326265645 -1.258906668e-05 7.785516046e-06)
(0.008304163324 -1.40973516e-05 1.005644433e-05)
(0.008323557143 -1.089015631e-05 4.514964547e-06)
(0.008351805679 -1.114637953e-05 -2.733787635e-06)
(0.008370278485 -1.362554575e-05 1.485713135e-06)
(0.008364658846 -1.243447083e-05 -1.17747333e-05)
(0.00837420352 -2.592062382e-07 -5.800999941e-06)
(0.008390542063 2.734338145e-06 -5.924854431e-06)
(0.008394049549 3.95027767e-06 -5.412478939e-08)
(0.008380744658 -1.273178593e-05 -4.10621928e-06)
(0.008422285253 -3.404977566e-06 -5.041964825e-06)
(0.008369791749 9.322209461e-06 -1.178087425e-05)
(0.008343145478 1.431888619e-05 -4.902614818e-06)
(0.008315226619 2.284088039e-05 -1.603087109e-06)
(0.00830336391 2.488733721e-05 4.846047323e-06)
(0.008296739044 1.932604097e-05 3.201107574e-06)
(0.008285570407 2.845839052e-05 5.825275214e-06)
(0.008267265723 1.85615997e-05 1.584643174e-06)
(0.00637592837 -1.32370754e-05 5.068501797e-06)
(0.008365860428 -1.900248279e-05 1.040763841e-06)
(0.008353206064 -1.107895906e-05 3.053666461e-06)
(0.008337085823 -2.483848754e-06 7.044569625e-06)
(0.008273431357 -1.993389876e-06 7.81490779e-06)
(0.008288183139 -6.079739661e-06 1.037796486e-05)
(0.008307762569 2.266875633e-06 5.343490341e-06)
(0.008287437917 -8.326237993e-07 8.225055796e-06)
(0.008303725599 -7.234517109e-06 6.855660412e-06)
(0.008289137914 -5.402446232e-06 -2.317397718e-06)
(0.008275780258 1.309663406e-06 -3.540579373e-06)
(0.008261574503 1.594531831e-05 -6.287092498e-06)
(0.008171890825 2.463642779e-05 6.071944377e-07)
(0.008201129176 1.851329507e-05 8.983937641e-06)
(0.008237864726 1.248839404e-05 1.027536631e-05)
(0.008288965271 9.969505295e-06 7.829488605e-06)
(0.008309320011 8.823677007e-06 3.798565519e-06)
(0.008319196126 1.352942045e-05 3.816422215e-06)
(0.008347766758 1.265836121e-05 -4.396591434e-06)
(0.008291873883 1.231516237e-05 -8.452895405e-07)
(0.006342927325 5.352428363e-06 1.545358341e-06)
(0.008270359432 1.081135747e-05 6.757042672e-06)
(0.008259441943 4.282586473e-07 -1.787405526e-06)
(0.008273653045 2.971457755e-06 -1.271192196e-05)
(0.008287435124 1.290523484e-06 -1.420049377e-05)
(0.00830111702 -3.649801099e-06 -1.901649838e-05)
(0.008241806653 1.329462702e-06 -2.040568854e-05)
(0.00825161244 2.11857721e-06 -1.638534659e-05)
(0.008229356336 6.261918336e-06 -1.402922937e-05)
(0.008225740609 1.593253685e-05 -1.302026846e-05)
(0.008243313197 1.106336461e-05 -6.92686621e-06)
(0.008270047541 1.09651369e-05 -4.59282132e-06)
(0.008298553514 6.729860478e-07 -1.163810986e-05)
(0.008351135974 -3.273515633e-06 -2.119418014e-05)
(0.008301357303 1.489063232e-06 -1.642786935e-05)
(0.008298998317 -4.039123154e-06 -1.07577114e-05)
(0.008310026061 6.253482454e-06 -1.474713738e-05)
(0.008332932285 5.146031874e-07 -1.367622206e-05)
(0.008300025922 1.596785239e-05 -1.092506926e-05)
(0.008308203277 1.564045457e-05 -9.140466172e-06)
(0.006346299964 6.530229628e-06 -5.880688e-07)
(0.00835305588 -5.975972045e-07 -1.991554513e-06)
(0.008344107793 8.352657624e-06 6.990465806e-06)
(0.008356116812 1.321781796e-05 5.960286985e-06)
(0.008344263342 1.637615914e-05 1.394683038e-05)
(0.008309560551 5.849286643e-06 8.990635138e-06)
(0.008341658903 8.85198801e-07 1.271062634e-05)
(0.008342674987 4.206900589e-06 7.175331614e-06)
(0.008342234646 -3.428245162e-06 6.091668973e-06)
(0.008338772855 -1.115405752e-05 -4.442085555e-06)
(0.008341334286 -6.295441579e-06 -1.310802235e-05)
(0.008327719989 -3.348989153e-06 -8.627315519e-06)
(0.008327003256 6.306947674e-06 -3.760885467e-06)
(0.008316367496 4.315989066e-06 2.64792129e-06)
(0.008342355238 3.658023885e-06 -1.608824952e-06)
(0.008324243394 1.297276701e-05 2.030894453e-06)
(0.008353078154 9.337184074e-06 9.843000135e-06)
(0.008312575426 9.130681e-06 3.533811734e-06)
(0.008335581408 6.537357757e-06 1.15136752e-05)
(0.008327164543 8.979643448e-06 1.15334136e-05)
(0.006374421033 1.110289404e-05 -2.739273186e-06)
(0.008383584081 1.015492207e-05 -7.101789731e-06)
(0.00835861155 1.243277941e-05 -9.894190304e-06)
(0.008291853601 2.263566605e-06 -2.331868502e-06)
(0.008307763592 -3.735633204e-06 -1.102259664e-05)
(0.008331146029 9.29664912e-06 -1.045372203e-05)
(0.008302563843 1.091774549e-05 -6.997898216e-06)
(0.008334646479 1.12535119e-05 5.846775986e-06)
(0.008303614349 1.101248432e-05 4.823003647e-06)
(0.008306552262 1.049479391e-05 8.479934012e-06)
(0.008297960442 1.683199024e-06 1.298003097e-05)
(0.008305771154 -3.29013598e-07 8.058465624e-06)
(0.008262920356 -1.772357985e-06 1.142936714e-05)
(0.008284385489 -4.069732483e-06 8.033770611e-06)
(0.008271839794 -2.869612936e-06 6.400111612e-06)
(0.008264928179 -6.996621914e-06 8.146604871e-07)
(0.008297451606 -2.539785862e-06 2.332972263e-07)
(0.008281546269 1.314860382e-06 2.58649913e-06)
(0.008290314859 6.800157971e-06 5.367183452e-06)
(0.008277997992 1.116056066e-05 7.856504452e-06)
(0.006350801175 -2.433894933e-07 -9.188070532e-06)
(0.008346683563 -1.379494716e-06 -1.74702989e-05)
(0.008430865983 -5.127515542e-06 -1.603028003e-05)
(0.008428985637 6.999110476e-06 -1.414098008e-05)
(0.008414604854 1.269006635e-05 -1.189398305e-05)
(0.008412810803 9.648062499e-06 -1.771736862e-06)
(0.008387486268 1.629801126e-06 -4.635691117e-06)
(0.008360302908 1.200646186e-05 -5.883189897e-06)
(0.008370349481 8.248604436e-06 -5.772914025e-06)
(0.008363648714 1.127272032e-05 -8.282190296e-06)
(0.008384482641 9.223012364e-06 -4.531321798e-06)
(0.008405890896 6.210496958e-06 -4.383286751e-06)
(0.008409118665 8.077530324e-06 -8.182848067e-06)
(0.008366712146 1.333074415e-05 -1.114678777e-05)
(0.008358714399 9.093344987e-06 -7.253703205e-06)
(0.008357879224 1.555129144e-05 -4.859699736e-06)
(0.008369383384 1.294158562e-05 -1.953021524e-06)
(0.008393168921 -3.080206261e-06 -7.917297317e-06)
(0.008404427812 3.819144626e-06 -1.189038997e-05)
(0.008398604374 -7.803440471e-06 -2.168103781e-05)
(0.006350866417 -1.362173639e-05 2.196144652e-06)
(0.008307457839 -6.561802999e-06 7.66213091e-06)
(0.008252828278 6.513600048e-06 7.251644511e-06)
(0.008256757412 1.758103634e-06 6.585638613e-06)
(0.008275290199 4.830458647e-06 -1.184400992e-06)
(0.008301222332 8.522386036e-06 -3.253774373e-06)
(0.0082974855 1.068974973e-05 -1.543755551e-06)
(0.008242012384 4.942923857e-06 -9.383346333e-06)
(0.008284067739 1.654465826e-06 -3.6204064e-06)
(0.008309087113 3.395496148e-06 -1.069498188e-05)
(0.008325024386 7.56380231e-06 -1.044676424e-05)
(0.008315858085 1.127938184e-05 -1.567805731e-05)
(0.008320112859 2.576775152e-06 -1.065768779e-05)
(0.008379742754 4.992200697e-06 -7.080894095e-06)
(0.008403746262 8.164404461e-06 -1.524524109e-06)
(0.00841459607 -1.766476347e-06 -5.713613336e-06)
(0.0083993099 -3.570409239e-06 -8.699120231e-06)
(0.008397369315 -7.260036358e-06 -6.532131465e-06)
(0.008393887205 -2.799910308e-06 -2.209836539e-06)
(0.008372889979 -1.211020536e-06 -3.410358431e-06)
(0.006345949059 1.446035954e-05 1.553271803e-06)
(0.008349989751 1.085397891e-05 -3.184061118e-06)
(0.008333783517 -5.880875547e-06 -1.007800858e-05)
(0.008281121388 1.584956459e-06 -4.448369603e-06)
(0.008308594098 -1.1862376e-06 -8.201285171e-06)
(0.008277650689 2.571881429e-06 -5.105748926e-06)
(0.008326570131 3.584107182e-06 -1.07668026e-05)
(0.008371211191 5.252718977e-06 1.572883984e-06)
(0.008416848499 1.213162468e-05 3.650020678e-06)
(0.008383172039 1.04999175e-05 -1.688772851e-07)
(0.008356807866 5.37251013e-06 1.146565534e-05)
(0.008335221476 -1.067957785e-05 8.883084528e-06)
(0.008343714908 -9.675973684e-06 7.697533759e-06)
(0.008354360966 -1.521175595e-05 3.481277977e-07)
(0.008319326533 -2.061235019e-05 -1.195565541e-05)
(0.00834699176 -1.693731345e-05 -4.98655296e-06)
(0.008319446295 -6.951964368e-06 7.570705431e-07)
(0.008315503052 9.996000052e-06 -4.225492822e-06)
(0.008355573762 9.323028019e-06 -6.537546408e-06)
(0.008345703288 1.145357559e-05 -4.975847892e-06)
(0.007800617618 0.00176814569 -4.717094947e-05)
(0.008071501298 0.002291286108 -1.732910851e-05)
(0.007973255011 0.002290883415 -2.539454309e-05)
(0.007643557467 0.002233142052 7.255309801e-06)
(0.007286768453 0.002144298405 2.784086454e-05)
(0.006973606747 0.002000012518 9.151947448e-06)
(0.006596124232 0.001901022172 -7.067294523e-05)
(0.006270592017 0.001838405403 -6.667699981e-05)
(0.005920759216 0.001690145497 -7.123466203e-05)
(0.005709921547 0.00165378113 -4.805996316e-05)
(0.008367835434 0.001297193381 -3.115226184e-05)
(0.00892793643 0.00210538012 -5.660191435e-05)
(0.009424989696 0.002591828947 1.86174513e-05)
(0.009751389135 0.002838575937 -8.962215915e-06)
(0.009864285622 0.002966681747 -8.417238887e-05)
(0.009764987703 0.003053316941 -4.975111514e-05)
(0.009551840727 0.002937748107 -4.567278265e-05)
(0.009260573771 0.002928309436 -3.522419603e-05)
(0.009016921052 0.002793535579 1.044148292e-05)
(0.008728999003 0.00263530756 2.153299974e-05)
(0.008411345823 0.0009173438517 -8.631840177e-07)
(0.00893015718 0.001525238131 -6.020230148e-05)
(0.009438759336 0.002094177548 3.644487349e-06)
(0.009921239689 0.002570291618 -3.473008378e-05)
(0.0102548377 0.002901341712 -9.187879786e-06)
(0.01060922935 0.003184281544 1.417182914e-05)
(0.01078375472 0.003367152942 -1.733403473e-05)
(0.01086424298 0.003460614489 -2.816803906e-06)
(0.01077076984 0.003418666307 1.534778743e-06)
(0.01049618715 0.003381040377 -2.494204227e-05)
(0.008446484599 0.000641260245 1.732639559e-05)
(0.008660960755 0.001065419831 -9.778129614e-07)
(0.009056495831 0.001515307412 5.341474748e-05)
(0.009566187733 0.002034424288 -4.0924808e-06)
(0.01002797068 0.00246106295 1.600172959e-05)
(0.01049658604 0.002820042366 -6.274039431e-06)
(0.0109196079 0.003148409194 2.493259228e-06)
(0.01126368372 0.003406740505 -2.714138175e-05)
(0.01146911511 0.00361426808 3.569979655e-06)
(0.01154041082 0.003711500295 -1.572419608e-05)
(0.008415579255 0.0004721594965 -3.954306456e-06)
(0.008644184621 0.0007643121386 1.052058059e-05)
(0.008965677671 0.001116285233 1.12191288e-05)
(0.009289773122 0.001485922914 2.157723724e-05)
(0.009788847246 0.001919321624 1.969476626e-05)
(0.01015604025 0.002344056738 3.864098428e-05)
(0.01053620646 0.002698962206 1.82484206e-05)
(0.01093012171 0.002993416981 4.823169976e-06)
(0.01133519876 0.003347723676 -3.678861918e-06)
(0.01171744824 0.003643795575 1.88009366e-05)
(0.008385950449 0.0003441401423 9.80276421e-06)
(0.008523671797 0.0005425215264 1.878957591e-05)
(0.008740128857 0.0007816084061 1.892530298e-05)
(0.009019373396 0.001120835039 5.833227916e-07)
(0.009353497943 0.001436102399 -6.715032013e-06)
(0.009804782099 0.001804990498 -1.112238842e-05)
(0.01028847756 0.002235519896 -1.746118218e-05)
(0.01071289515 0.002550204503 -1.60050699e-06)
(0.01110044906 0.002903039568 2.002566243e-05)
(0.01154671146 0.003211210606 -1.430786177e-05)
(0.008472371433 0.0002541982463 -8.735196021e-06)
(0.008578783835 0.0004039919782 1.396649266e-06)
(0.008684014009 0.0005826360308 -2.074710963e-05)
(0.008912386858 0.0008283936836 -1.140502997e-05)
(0.009161110871 0.001057389031 4.713230766e-06)
(0.009491113687 0.001376705211 -4.232062807e-05)
(0.009876644083 0.001691088348 -3.107918209e-05)
(0.01026480188 0.002070246557 -2.162245649e-05)
(0.01074528309 0.002422520528 -2.782206527e-05)
(0.01117334475 0.002718146026 -5.527962023e-06)
(0.008372992087 0.0001823653854 -1.132422001e-05)
(0.008437628592 0.0003002085555 -1.091899094e-05)
(0.008578661225 0.0004106806209 3.714549175e-06)
(0.008694520054 0.0005793402805 9.868301037e-06)
(0.008898870002 0.0007649921127 1.896066327e-05)
(0.009090096585 0.001018275614 2.058807583e-05)
(0.009463433749 0.001249211536 7.562857997e-06)
(0.009805667649 0.001550150221 9.608079273e-06)
(0.01019951 0.001896757714 -2.948757127e-06)
(0.01056276297 0.002232042808 2.846158758e-06)
(0.008383816517 0.0001482240694 -1.082907728e-05)
(0.008423079027 0.0002142915971 1.056983851e-05)
(0.008486213592 0.0003038756036 5.106071471e-06)
(0.008593416586 0.0004132849744 -3.544970381e-06)
(0.008774055182 0.0005662879064 1.427285561e-05)
(0.008978925424 0.0007302464251 3.709867034e-05)
(0.009158416266 0.0009503900886 5.276525786e-06)
(0.009401757193 0.001178548381 -3.137630278e-06)
(0.009766353412 0.001435001738 -1.102651914e-05)
(0.01013806866 0.001744864907 -3.705439647e-06)
(0.008405335821 0.0001000765726 7.778357922e-06)
(0.008482513425 0.0001618726612 -6.91302314e-06)
(0.008546776093 0.0002284583471 3.809186782e-06)
(0.00856868738 0.0003098598588 3.957988061e-06)
(0.008666906879 0.0004020726424 -1.491593826e-06)
(0.008802674927 0.000525738294 8.019324045e-06)
(0.009025618593 0.0007184174503 -7.004634708e-06)
(0.009198632654 0.0008726387653 1.397346651e-05)
(0.009383914448 0.001086576619 2.280671412e-06)
(0.009652132912 0.001327050301 2.651234648e-06)
(0.008425877096 7.379682168e-05 -2.028806174e-05)
(0.00843280486 0.0001089705295 -9.544660253e-06)
(0.008521376897 0.0001590961636 -2.492748821e-05)
(0.008609183154 0.0002318269586 -7.561353248e-06)
(0.008685171418 0.000315907353 -9.986844103e-06)
(0.008727327639 0.0004057725305 -9.393846413e-06)
(0.008806368566 0.0005338988096 1.91299114e-05)
(0.008990822732 0.0006719547063 1.389809392e-05)
(0.009129546228 0.0008523567579 1.755440334e-05)
(0.00937973463 0.001025829527 -1.504374726e-06)
(0.008360248976 3.707344582e-05 1.564384963e-05)
(0.008363322821 5.374750383e-05 4.778678944e-06)
(0.008349187836 8.981762503e-05 5.156193106e-06)
(0.008387770187 0.0001616762963 1.144043859e-05)
(0.00843904803 0.0001999517282 8.364097889e-06)
(0.008531973368 0.0002846607908 6.805999454e-06)
(0.00860252112 0.0003912983952 9.16007459e-06)
(0.008786181643 0.0004997416836 -1.168188425e-07)
(0.008997476133 0.0006107784105 2.01512513e-05)
(0.009148969893 0.0007623354382 1.207172598e-05)
(0.008379623491 4.553196062e-05 8.621708018e-06)
(0.008409426902 7.373104434e-05 9.513603378e-06)
(0.008378667668 0.0001021535484 1.336385605e-05)
(0.008416250348 0.0001217501038 -9.973198484e-07)
(0.008436321977 0.0001548699355 -3.156352925e-06)
(0.008517711109 0.0002115831255 -6.404243137e-06)
(0.008630104585 0.0002616564921 -4.099346975e-06)
(0.008649352337 0.0003494047802 -5.715951017e-06)
(0.008723214612 0.0004413728406 -1.902671322e-05)
(0.008901174096 0.0005614371623 -2.201531053e-05)
(0.008332770127 3.548715809e-05 6.323475205e-08)
(0.008328140047 4.61467358e-05 3.23988634e-06)
(0.00836876722 6.537515583e-05 -3.825262417e-07)
(0.00838754809 9.509210642e-05 5.505772199e-06)
(0.008396078721 0.0001201058301 -6.943527933e-06)
(0.008396040422 0.0001468753433 -1.63271288e-05)
(0.008418783952 0.0001887261846 -9.216546952e-06)
(0.008536906025 0.0002563933606 -1.188635751e-05)
(0.008647506179 0.0003161990517 -3.148563402e-05)
(0.008751735352 0.0003973866263 -1.333270326e-05)
(0.008264127543 2.79504774e-05 -1.835810416e-06)
(0.008263073534 3.341659552e-05 1.774678078e-06)
(0.008311446352 4.30591772e-05 7.5270708e-06)
(0.008338230515 4.661103456e-05 2.265590517e-06)
(0.008326041752 8.754788861e-05 5.909207246e-06)
(0.008443091517 0.0001113970987 4.705733524e-06)
(0.008458642031 0.0001358819511 1.102920245e-06)
(0.008485526225 0.0001794137899 -2.439942579e-07)