/*--------------------------------*- C++ -*----------------------------------*\
| =========                 |                                                 |
| \\      /  F ield         | OpenFOAM: The Open Source CFD Toolbox           |
|  \\    /   O peration     | Version:  2406                                  |
|   \\  /    A nd           | Website:  www.openfoam.com                      |
|    \\/     M anipulation  |                                                 |
\*---------------------------------------------------------------------------*/
FoamFile
{
    version     2.0;
    format      ascii;
    arch        "LSB;label=32;scalar=64";
    class       volVectorField;
    location    "0.011";
    object      momentum;
}
// * * * * * * * * * * * * * * * * * * * * * * * * * * * * * * * * * * * * * //

dimensions      [1 -2 -1 0 0 0 0];

internalField   nonuniform List<vector> 
654
(
(0.006898230073 -0.0002040071883 0.0002164525966)
(0.006444603652 2.533902138e-05 -0.0003635754586)
(0.007491000706 -0.0002555005685 -0.0002061088496)
(0.01382822187 -0.0004127217524 -0.001071122838)
(0.006575900205 -2.168795696e-05 0.0001944593054)
(0.007226465891 -0.0004121715914 0.0008812441827)
(0.01371426351 -0.0003269625282 -0.0004561152663)
(0.006969204604 0.000409421487 -0.001355604053)
(0.007960355277 -0.0005058436022 0.0001600810013)
(0.007071540472 0.0005625895241 3.459231127e-05)
(0.008818926209 -3.365188957e-05 -0.0004616010338)
(0.007975917283 0.001003159673 -0.0007281438498)
(0.003934696962 0.0003318689298 8.72042344e-05)
(0.008307353685 0.0006982682534 -0.0003341127918)
(0.008898967904 -0.0001850921617 9.406572178e-05)
(0.003438369491 -0.0003883228847 -0.0003890285024)
(0.01141546589 -4.172130417e-05 -0.0006819434702)
(0.006616567805 -0.0001386084368 -0.0002699834374)
(0.01076239822 0.0002662421855 0.0004833380326)
(0.007518450073 0.0002730072126 -0.0003292976492)
(0.005138335182 -0.0006780988927 -0.0001434572534)
(0.01041762308 0.0004752321479 -0.0006243961123)
(0.006683645694 0.0003757962368 0.0001517365826)
(0.00873710395 -0.0004199378151 0.0003790692054)
(0.005856106982 -0.0002097686029 -0.0001767683553)
(0.006662354256 0.000301284395 5.249444826e-05)
(0.009720714172 -8.023927785e-06 -0.0005598909372)
(0.01120253193 0.0002534778524 0.0009187263664)
(0.005670307208 -5.925655078e-05 -0.0002283028753)
(0.009467044334 8.586049742e-05 0.0008040961851)
(0.01463072695 -0.0008641767393 0.0001800851705)
(0.004812635133 0.0001030180043 -0.000489679748)
(0.01321692944 -0.0006003412974 -0.001339854061)
(0.01022585426 -0.0008591987316 0.0005293850161)
(0.01213768617 -0.001062693634 -0.0003044154729)
(0.01051973705 -0.0007038324531 -0.000135406098)
(0.01051777187 0.0006183721507 5.241322008e-05)
(0.005766951362 -0.0007972511247 -0.0001901683703)
(0.009552785823 0.0006249313918 -0.0001072232117)
(0.006035611495 0.0006586447663 0.0009144307269)
(0.004625306283 -0.0004231509365 0.000876984198)
(0.006190537428 0.0002570371445 0.0004774927024)
(0.00507926082 0.0006621209771 0.0002685287336)
(0.01093187134 0.0004285523588 -0.0002820162207)
(0.008352753322 0.0002482615697 -0.0006213415865)
(0.006682173095 -0.0008622734703 -0.0005994378556)
(0.01128403411 -8.035291365e-05 -0.0002041250763)
(0.008989694347 0.0001379449648 -0.0001437607204)
(0.007833362172 0.0003472657103 5.951157628e-05)
(0.005956807586 0.0008750858021 -4.721809924e-05)
(0.006459766928 0.0001896067865 -0.0002804858467)
(0.009312268421 -6.379748362e-05 -0.0004811010529)
(0.01396059955 1.747896458e-06 0.0001856522574)
(0.00984477782 0.000316932216 0.0002358080152)
(0.008246028105 0.0001483704442 0.0003701773055)
(0.008617876751 0.0003685637987 9.291927591e-05)
(0.01140117351 0.0005375572519 0.0001478843256)
(0.008050373703 -2.196582828e-05 -0.0002635875474)
(0.006557481506 -0.001207327149 0.0002104289887)
(0.008761169269 0.0004143541315 -0.001090255823)
(0.006589574364 0.0003911375404 0.0002787210647)
(0.01083621827 0.00106115749 6.314465278e-05)
(0.008063390419 -0.0004285476012 0.0003250123475)
(0.01097603003 -0.0003181092588 0.0002272635133)
(0.005957085622 -0.0002758044518 -0.000125902651)
(0.007016201898 -0.0001506593186 0.0001842985154)
(0.003328155162 0.0001592132416 -0.0001487896654)
(0.004701199875 -0.0004191223026 0.000198663142)
(0.008897705041 -0.0008829340148 -0.0005887950984)
(0.009658938678 -0.000375507536 0.001088382209)
(0.006454523746 0.0002642894359 0.0001068019155)
(0.004813813114 -9.121282759e-05 0.0001004323983)
(0.008004226997 4.382991567e-05 0.001103948218)
(0.01057793438 0.0009126638412 0.0002113205024)
(0.005670313735 0.0005664728603 -0.0005262844471)
(0.007648833904 -0.0005020486279 0.000519931657)
(0.01020993631 0.0009454944827 -0.0007723810927)
(0.01030674194 0.0001757527835 -0.0002217844878)
(0.008136043277 8.499592965e-06 0.000281481893)
(0.01172375525 -2.9638349e-05 -7.140203682e-05)
(0.008902573667 0.0004770984492 -0.0005983862268)
(0.007001193438 -0.0003478342942 -0.0002571471717)
(0.009663778621 0.000663473281 -0.0002050096047)
(0.006428553638 -0.0001213042288 -0.0005335097256)
(0.007917827081 0.0001759176135 -5.165857325e-06)
(0.007223066907 0.0006913959215 -0.0002377858297)
(0.006215084286 -0.000428784322 -0.0001052522695)
(0.01001547379 0.0002922102783 -0.0005291203819)
(0.007262054645 0.0002946019387 8.815742765e-05)
(0.008388041125 0.0002581872412 -3.744570111e-05)
(0.007773565442 0.0002853954265 -0.0006241580383)
(0.00702652671 -0.0002519655038 -0.0004659360424)
(0.007901329274 0.0002604147057 -0.001150659472)
(0.005798265934 -0.000240705969 0.0005492842178)
(0.004260670371 3.179256687e-05 -0.000156664264)
(0.009439761497 -0.0005741362609 -0.0002220246973)
(0.01140010818 -0.0005277961414 8.005029472e-05)
(0.01483083859 0.0008409099042 -7.699267696e-05)
(0.01026233806 -0.0001400077007 0.0002929074988)
(0.004465949413 2.139220943e-06 0.0002476934737)
(0.004025350091 -7.900563635e-05 0.0004734036563)
(0.01136948259 0.0005240891358 -0.0006582096901)
(0.01314064592 0.0002511905093 -0.0002467416303)
(0.006588602613 -0.0001967916545 0.0001922536789)
(0.007696533404 -0.0003466757878 0.0001976167357)
(0.003843080295 -8.974342134e-05 -0.0005872718446)
(0.01223013163 0.0002270488125 0.0003353075882)
(0.005180461012 0.0002458571972 -0.000213739256)
(0.0068567836 0.000362785598 0.0001784732638)
(0.01035789632 -0.0005187735204 0.0007084251997)
(0.002913010077 -6.109851002e-05 -8.246061584e-05)
(0.009334985834 0.0005083170147 -0.001403084664)
(0.00175344704 -0.0002083217009 -0.0001616898572)
(0.01230834903 -0.0004990788304 0.0002973090289)
(0.008588259782 -0.000878126264 -8.685979831e-05)
(0.006854528493 5.946059926e-05 5.803090675e-05)
(0.009157382975 0.0005078376695 -0.001081272463)
(0.006058709445 -0.0001353409562 0.0003620282768)
(0.009071315058 -0.0002352781523 0.0001975134367)
(0.009144349027 0.00070320245 -0.0006719877406)
(0.009036259825 0.000205332644 -0.0003497745305)
(0.0049005184 -0.0001633863051 9.601598194e-05)
(0.005631614842 -0.0007315018239 -0.0005239160094)
(0.005120831942 -0.000607018148 -0.0002767294923)
(0.009261999919 -8.421078934e-05 0.0002254959619)
(0.008457185283 0.0009298385809 0.0005477753843)
(0.009688733767 0.0007342789782 0.000962675558)
(0.01029476517 0.0002008558408 0.0002203434096)
(0.01056955299 0.0003345234239 -0.0004165403722)
(0.006638962186 0.0007059371817 -0.0001410020205)
(0.0100740224 0.0006488739719 0.0001699010267)
(0.01232643911 0.0005584177804 0.0003517490886)
(0.007378064438 4.405392768e-05 -5.467407138e-05)
(0.01084089422 -0.0004774099477 -0.0007029338924)
(0.008627587163 0.0001390648613 -0.0003283406385)
(0.007000129829 0.0004573848806 -0.0002409946978)
(0.006062798861 -0.0001664982208 -0.000460950868)
(0.009132780155 -0.0003162813133 0.000104784873)
(0.01093636033 -9.653420434e-05 0.0006688788812)
(0.01051037646 -7.522456267e-06 0.000280536687)
(0.007446759825 -0.0005812668594 0.0002576647957)
(0.005630982435 0.001155757386 -0.000467044376)
(0.01063971661 0.000397190105 -0.0005051749538)
(0.009466273119 -0.0002245078444 0.0002193586368)
(0.00762689108 -0.0004947342688 -5.904208668e-05)
(0.01062604017 -0.0004339947035 0.0002334422326)
(0.009075247816 -0.0001826657139 -0.0004574811679)
(0.01124779361 -0.0006075538372 -0.001168900212)
(0.005403416238 -0.0003183896739 0.0004554731189)
(0.007754639626 0.001030655161 0.0003685154372)
(0.01173835135 3.247972139e-05 3.47662942e-05)
(0.00889033692 -0.0008025392391 -0.0008712671434)
(0.00746064757 1.829852156e-05 -9.412239285e-05)
(0.006532144263 -0.001057649077 0.0002193328451)
(0.007293728563 -0.0003936724008 -0.0004451445145)
(0.003096332918 -9.231249869e-05 -0.0002092001218)
(0.005247282034 -7.776531778e-05 -0.0006302178769)
(0.005561668905 -0.0003958110284 -0.0003707455615)
(0.01358650626 0.001383002958 0.001106178194)
(0.005043196906 -0.0003916090069 -0.0004462211537)
(0.005461966277 0.0001119298671 -2.728088684e-05)
(0.007256430802 -0.0006738500911 1.15218356e-05)
(0.009602601711 -0.0007051541223 -0.0002173073519)
(0.01199212739 0.00104746729 0.000708187017)
(0.01008840149 0.0008422097668 9.970652924e-05)
(0.007166402207 -0.0002589335734 -0.000434771612)
(0.007376955177 8.940585389e-06 0.0003520475908)
(0.01280026058 -0.000375714297 8.05993521e-05)
(0.00985891336 0.0002593502303 0.000221586159)
(0.008057697848 0.0006197557917 4.523774428e-05)
(0.01158346481 -0.000845414371 0.0001223398368)
(0.008807151202 -0.001200908958 1.986825976e-05)
(0.01018026353 -0.0001336807752 -8.914856553e-05)
(0.008215014445 0.0009188474639 -0.0004457190307)
(0.008875853928 0.0002009369926 8.427037442e-05)
(0.008517024389 -0.0002504575511 0.0001097333417)
(0.01108937505 -0.0003533773891 -0.0001065177428)
(0.007930842479 -1.778515805e-05 0.0008025173839)
(0.006298492454 -0.0004995417598 0.0003165037789)
(0.009952708356 0.0009305609219 -0.0002393731462)
(0.006356084425 -0.0001693568664 0.0001449578486)
(0.007713271825 -0.0003732589561 4.198816687e-05)
(0.00535017784 -0.0003481109883 -0.0002505894573)
(0.01056878401 0.00114119611 0.001251947985)
(0.007653992603 -9.574411674e-06 0.0003420948748)
(0.005903320059 0.000504096393 -0.0001538109647)
(0.009973188089 -2.543426596e-05 0.0004685868623)
(0.005389293758 0.0003236015323 -0.0002625271935)
(0.00652323683 1.759982519e-05 4.320427388e-05)
(0.007927015946 -0.0002153398413 0.0001296132363)
(0.01270813835 6.709417684e-05 -1.549301623e-05)
(0.009301572942 0.0002731201691 -1.3182815e-05)
(0.007598510444 0.0003321492353 -0.0001290320783)
(0.004228221874 -0.0002055548077 -0.0005817078114)
(0.005126389801 1.657460875e-05 0.0004915951346)
(0.007979672064 -0.0004574529733 0.0006764896367)
(0.008575796655 -5.449953899e-05 0.0002963298663)
(0.01225652267 0.0001752781328 0.0002434649355)
(0.008197121821 -4.975237325e-05 -0.000607595176)
(0.003954377324 0.0002921493732 0.0001136720212)
(0.006610439732 0.0001502152063 0.0008818907358)
(0.0113386385 0.0002761747156 -0.0003366948056)
(0.003612981676 0.0003573170047 -9.196974728e-05)
(0.009335539983 -0.0002927429508 0.0002723393294)
(0.009580748398 -0.0004690996131 0.0001630920382)
(0.006619465322 0.0004504092716 -0.0003137146164)
(0.007465842614 0.0002638282833 0.0005879317541)
(0.01210895976 -0.001178393107 0.0004314496789)
(0.01426549848 -0.0009856963678 -0.00062425188)
(0.006948983957 9.046153793e-05 0.0003845632345)
(0.00493811518 -0.0004330642468 0.0001870374555)
(0.006776566557 -2.160357388e-05 -0.0001872043798)
(0.005862709356 0.0002472192665 -0.0001113326863)
(0.00621127474 0.0002738471318 -0.0002992594002)
(0.008063869297 -6.445328642e-05 -0.0004591665175)
(0.007537299786 0.0004508080251 -0.0004786423339)
(0.005378937675 0.0001919028715 9.558875759e-05)
(0.01047858479 0.0005831135885 -0.0003110058266)
(0.01404018261 0.0001453557183 0.0001438797006)
(0.006709112351 0.0003306114549 -0.000208578022)
(0.007771650213 -1.671314054e-05 -0.0002791391442)
(0.005055606741 3.931365031e-05 -0.0002422090612)
(0.01082540746 0.0002820716226 0.0001046472692)
(0.007681230485 -0.0009075252871 0.0004179713262)
(0.009495372256 0.0005804743246 -0.0005293193477)
(0.009127362162 7.587452196e-05 -0.0005511398322)
(0.005109099903 0.0001101095236 -0.0001575625555)
(0.01035732964 0.0007306721937 0.0008368490705)
(0.01155768025 4.074564647e-05 -0.0001922315419)
(0.00983604107 -0.001011621573 0.0005336004658)
(0.01009688052 3.144897769e-05 -0.0004091534885)
(0.01236324442 5.422770078e-05 0.0006739628866)
(0.009371290116 -0.0008699353149 0.0001755384761)
(0.009543760667 0.0004966529607 0.0005392964473)
(0.008343258175 -0.0004393657202 0.0002163719884)
(0.008481232213 -0.001078577079 -0.0002849729699)
(0.01009315953 -6.817718178e-05 -0.0003335221687)
(0.008505059794 -0.0002864077892 -0.0002970954931)
(0.007760113578 -0.0001324612137 -0.001025657676)
(0.009122418134 -0.0006532242112 0.0002301598896)
(0.005453183618 -8.673889611e-05 5.671783717e-05)
(0.01146311381 -0.0003351924504 -0.001693775784)
(0.0080766438 0.0001203781613 0.0001088809871)
(0.008110089933 0.0008323824945 -1.236279093e-05)
(0.007008457469 -0.0001283659499 -0.0002370689303)
(0.006553931098 0.0002604967686 -0.0002486432437)
(0.008672389399 -2.490627466e-05 0.0003847953726)
(0.008063964396 -0.0006561947079 -0.0004731398393)
(0.005822801002 0.0001063124534 -0.0003674424648)
(0.005686127569 -0.0002622483017 0.0002160870889)
(0.00918701398 -0.000115697822 -0.0006099958228)
(0.01155771782 -0.0004062755337 -0.0004002389924)
(0.01263043865 -0.0002724873207 -0.000524566447)
(0.007391788004 -0.0006373622948 0.0007523344343)
(0.01365612108 0.0002322064352 -0.0001259062193)
(0.009946945266 -0.0008092741327 -0.0006402636306)
(0.006780185901 0.0001190140281 -0.0002642370765)
(0.007652467706 0.0003311346583 -0.0005952307387)
(0.01108377326 0.0004188961685 0.0007199108729)
(0.01331084947 0.000177304331 -0.0003291884069)
(0.008031321918 0.000142700584 -0.0002960154712)
(0.008484159172 0.0003716069066 0.0001648165767)
(0.008334300714 0.0001117269752 -0.0003117425991)
(0.01439844534 -0.001554110121 0.001455474332)
(0.003042699001 9.570285209e-05 -0.0003787555429)
(0.006990013198 -0.000874470667 -0.0006302169681)
(0.005869037013 9.249777002e-05 -0.0001660430036)
(0.01323452978 0.0005964430132 9.30178908e-05)
(0.01000180567 -6.121294408e-06 -0.0005198800276)
(0.003002484457 0.00040301717 -0.000139580766)
(0.00914338798 -0.0001044968921 0.0006907528273)
(0.01396924601 -0.0004059151252 0.0002992752179)
(0.007861757986 -0.0003989623265 -8.039086181e-05)
(0.007545995386 -0.0004643523907 0.0004398681547)
(0.009078769688 -0.0001794240161 1.424576884e-05)
(0.01082208235 0.0002442821098 0.0003722031188)
(0.006408625557 0.0003159296915 -0.0004703463009)
(0.003991709983 0.0004656482393 -5.674360751e-05)
(0.01590010669 -0.0002340403707 -0.0003993383509)
(0.007550880586 -0.000410189855 0.0001970000263)
(0.005368986901 -0.000144800758 -3.801339542e-05)
(0.007344031688 -0.0001482191175 -3.420803943e-05)
(0.006573643215 0.0001073196719 0.000123234148)
(0.007686441003 0.0001296588599 -0.0006878030237)
(0.006982752134 0.0002632620059 0.0004268054412)
(0.008620632571 0.000283104073 -0.000225495661)
(0.008508868193 4.621265167e-05 0.0007825158189)
(0.007930971453 -7.505898486e-05 -0.0004570081164)
(0.009237115462 0.0009584946574 0.0001928692844)
(0.006290571469 6.433170818e-05 -0.0002665395396)
(0.005512812584 -0.0002158264495 -0.0004675063222)
(0.001998577849 0.0001942029578 -0.0001841480431)
(0.008956198745 -0.0001306702469 0.0001138935954)
(0.005847652467 0.0005607741916 5.496461853e-05)
(0.01103118355 -0.0007565305708 0.0002898747914)
(0.004234944142 4.565850993e-05 0.0004153308887)
(0.009581663811 0.0002336621558 -0.0007326238927)
(0.006357927219 0.0004466351624 0.0001455951547)
(0.00794287966 0.0002293769364 -0.0001929436674)
(0.005555428699 0.0001241608471 -0.0002353333241)
(0.003124418652 -0.0002566772561 -0.0001718532929)
(0.01081204612 -0.0006593681959 -0.0001437479712)
(0.01310720083 -0.0006726568377 -0.0008487205767)
(0.008703539756 0.0003731905432 -0.0007151323039)
(0.01356264323 -0.0006274713573 -0.0004527613489)
(0.007043093124 -0.0002865652557 0.001008744029)
(0.007659887589 0.0003895007875 0.0001202080013)
(0.00759170725 5.278257062e-05 -0.0001846236818)
(0.002208295784 -0.0004645572567 0.000174073632)
(0.01221571968 0.0002236441774 -0.0001660486167)
(0.008917898908 0.0002759469129 4.401179239e-05)
(0.009110863035 -4.18175315e-05 -0.0003415734574)
(0.01178900528 -0.0003687264801 -0.0005115743386)
(0.002940416233 -9.976418938e-05 -4.722404964e-05)
(0.007665194204 -0.0001306751067 0.001042163946)
(0.009964786822 -0.0003890573644 -0.0009224274104)
(0.007890097914 -0.0002623187177 -4.295946741e-05)
(0.01139752127 0.000668776167 0.0005809867455)
(0.008427144596 0.0005189996425 -0.0001929958982)
(0.01295967657 0.0005350686408 -1.045798049e-05)
(0.00688363658 0.0002247901543 7.048298834e-05)
(0.007072447614 -0.000586546469 -0.000438059641)
(0.005925976323 -0.0001333105521 -0.0005110474995)
(0.007448874776 0.0003765817934 -0.0003594887969)
(0.004572396604 -0.0005517163265 -0.0005557021972)
(0.01012148192 0.0005928464646 0.0001050039926)
(0.006480930954 -0.0004245243776 0.0007680756308)
(0.01275728609 -0.0003233072624 0.00108295627)
(0.007407790408 9.108982016e-05 -3.396970019e-05)
(0.007067979799 0.0003642236381 0.0004768100907)
(0.008314180898 7.384216644e-05 0.0006195850209)
(0.01218341368 -0.0005047845371 3.412343376e-05)
(0.00554015033 -6.904332056e-05 -0.000327354779)
(0.007338042969 0.0002121580554 -4.086609637e-05)
(0.006092324095 -0.0003057769979 0.0001769089259)
(0.00899491485 0.0002165479395 0.0001322863504)
(0.006794195772 -0.0001201603249 -0.0002791500063)
(0.01151737468 -8.527087115e-05 0.0004302709994)
(0.009481650064 0.0002829391367 0.0001789577565)
(0.009470296921 -0.0001350227644 -0.0004805945957)
(0.007387465063 0.0004780461541 -0.0001370458186)
(0.006509892 -5.498449253e-05 -0.000262770994)
(0.009885519887 -0.0002420382148 0.0006353660012)
(0.006796971038 0.0007912186204 0.0004415748261)
(0.008653664527 0.0002268477819 -0.0001410548752)
(0.007457850725 0.0002126207992 -9.485145084e-05)
(0.01220565991 3.496869958e-06 -0.0001836261094)
(0.009955316567 0.0004796414348 0.0003837580537)
(0.003916789167 0.0001377146235 -1.284536195e-06)
(0.01045779133 0.0005553264619 -0.0001461783704)
(0.004252346635 -0.0005463634116 3.906881203e-05)
(0.01022997044 0.0004747361743 -0.0005935619119)
(0.009565340927 -1.657826653e-05 0.0002126950581)
(0.00574432385 0.0004479282572 0.0002630181037)
(0.007594631356 -0.0007447129733 -6.651435251e-05)
(0.008795351482 0.0001884876341 0.0001603599346)
(0.006730112789 -0.0005019956178 0.0003405718338)
(0.00712367686 0.0003724459588 4.759732688e-05)
(0.01300907206 4.861031125e-05 -0.0004210506405)
(0.003085846406 7.352655854e-05 -0.0002858767265)
(0.007361103897 -0.000494201257 -0.0007357151441)
(0.008343825717 0.0005602985285 0.0006336972814)
(0.01157254715 0.0001060084059 -0.0009463878593)
(0.007355800848 -0.0003642390272 0.0002037397991)
(0.005229483531 -8.195177856e-05 0.0003801318451)
(0.01255484405 -0.0003415348202 0.0001833180143)
(0.003009811792 0.000245309143 0.0003664227142)
(0.01015198775 0.0005778466202 -0.0002016129822)
(0.007301161839 -0.0005959605236 0.000134375991)
(0.01066410827 -0.0001289152731 9.650350918e-05)
(0.01059366751 0.0003257251 -0.0005263626062)
(0.007481894646 0.0002051639466 -0.00067004469)
(0.01060702218 0.0004821104508 -0.000709355944)
(0.006947259749 0.0007777138739 -9.779491857e-05)
(0.008625273068 -0.0002969128039 0.001141828762)
(0.004822110917 0.0001425996085 0.0001236590324)
(0.006934477855 -0.0003153575923 -0.0001057922071)
(0.005397472723 4.637789634e-05 0.0005317508083)
(0.005155108288 0.0001512244924 0.0001932600147)
(0.005892400205 0.0001407565779 0.0001145047365)
(0.005825809647 -0.0006767744301 0.0003326509103)
(0.006208859599 0.0004027071993 -0.0002702722322)
(0.008767386824 -0.0002238024799 -0.000451988692)
(0.009634888385 -6.21842903e-05 -4.941525115e-05)
(0.002356535125 0.0003056832418 -0.0002031282055)
(0.005933973325 0.0008441218649 -0.0003103443462)
(0.009968593604 2.126021163e-05 0.0007003124797)
(0.01054945531 0.0001785044587 0.0001176955265)
(0.007600645098 0.0002219383952 -0.0005486151664)
(0.007650496204 -0.0003489854719 -5.722170476e-05)
(0.008957809208 5.868945144e-05 -0.0003168768083)
(0.007359579616 -8.368387873e-05 -0.0001446896897)
(0.008611753963 0.0002900414013 -1.95995454e-05)
(0.007813380904 -4.408302084e-05 -0.0005163796984)
(0.007730016308 -0.0005198898423 0.0001859063571)
(0.01087365562 -0.0004743943582 0.0004025020881)
(0.004465040584 0.0001140298469 6.663095671e-05)
(0.007458142923 0.000345544413 3.926574983e-05)
(0.01450476328 0.0005733233543 -4.672901251e-05)
(0.01050816667 -0.0005150778234 0.0005176098543)
(0.007933443631 -0.0007424848701 -3.871037361e-05)
(0.009374071214 -0.0005151724963 -0.0004122878683)
(0.01147970628 -8.506719711e-05 0.0004784357342)
(0.006462118656 0.000935185446 -0.0002865880278)
(0.006703986849 0.0004850017817 -0.0001543070482)
(0.009095839042 -0.0009072065648 -0.0004035381076)
(0.01064986574 -0.0003798346086 0.001399884938)
(0.006806686149 -0.0001472994561 -0.0009846574233)
(0.008158719746 0.0001004996031 -0.000231560194)
(0.007000257506 0.0001623396396 1.71893111e-05)
(0.006818115523 0.0005442803544 -0.0003357324656)
(0.009759686961 -0.0004044349672 -4.754833488e-05)
(0.01237110312 -0.0007557427947 0.0002258394514)
(0.009493503584 -0.0007875340548 -0.0005268225278)
(0.01091676526 0.0003962844743 0.0009508066817)
(0.00993474817 0.0007492903607 -2.613773014e-05)
(0.008915702778 -0.0006527047124 -0.0005006256434)
(0.006643634647 0.0003507867002 -0.0004244494972)
(0.004999784343 -0.000348496018 9.893911513e-05)
(0.01672779852 -0.0002110678248 0.001465788675)
(0.005545551996 0.0002533896387 0.000253951572)
(0.005841953543 0.0001265657035 0.0001541203113)
(0.01027434732 0.0004315761454 -0.001041078239)
(0.009918822669 -0.0002108703132 0.0001888035432)
(0.009202373344 0.0003543782164 -0.0008572970303)
(0.004396656124 3.342393775e-05 -0.0004580697307)
(0.008375973259 0.000256301501 0.0008069287197)
(0.008332290978 0.0004936969597 -4.322861792e-05)
(0.009962561942 -0.0004683655591 0.0005948655777)
(0.009950075768 8.886377416e-05 0.0001029907389)
(0.004683712924 -4.522687348e-05 8.71908968e-05)
(0.005254452097 0.0003470499306 0.0005637016334)
(0.008543821876 -0.0004323839072 -0.0003183504839)
(0.01209081317 -0.0002297086359 -0.0001436853937)
(0.008005496544 0.0005007053799 -0.0001187505668)
(0.008552802831 0.001024357921 -0.0004894305275)
(0.0051719765 -0.0004055912461 -6.733714225e-05)
(0.005130571722 5.547671841e-05 0.0002039956279)
(0.008428710612 -0.0005012877798 7.167949572e-05)
(0.009225401579 -0.000652750788 -0.0003188870757)
(0.008197029815 0.003757502558 0.001543255583)
(0.007872873335 0.002830982957 -0.0001234606065)
(0.009950988072 0.002107516206 -0.002739108836)
(0.006649994034 0.002892485814 0.002341121659)
(0.005881054507 0.0003683473807 -0.0005714600723)
(0.006281417907 0.0007317030753 -0.003072635712)
(0.008193593427 0.002035867411 -0.0004339718544)
(0.007040328644 0.001652959102 0.001043939183)
(0.006216203409 0.002215313377 -0.0009915838939)
(0.005927870631 0.001343138559 0.002066193372)
(0.01310653059 0.002138636852 0.0004000286502)
(0.007410813478 0.00164742564 0.001413707292)
(0.008229060423 0.00341113927 -0.001977050043)
(0.01205892776 0.003367296316 0.0007564350039)
(0.0121928175 0.004988009451 -0.000555401292)
(0.009333886095 0.003203101128 -0.0006098808432)
(0.00448829923 0.002175161351 -0.002040240845)
(0.01239793392 0.001807883399 9.65473972e-05)
(0.0124288784 0.002652249017 -0.0008628247896)
(0.01030196854 0.002941930058 -0.001756148202)
(0.004315490694 -0.0002893870633 -0.00101667157)
(0.008887502414 -2.428733538e-05 0.0008126754868)
(0.01022097248 0.002125436407 0.001246062647)
(0.006857593275 0.002766103339 0.0001173192728)
(0.005071847934 0.002460375307 -0.0003992806659)
(0.008215222833 0.001767852586 0.000394200787)
(0.006846119301 0.002648086678 0.001189921269)
(0.007959662546 0.004995647393 0.000120540147)
(0.01292886825 0.004103852452 0.001923743816)
(0.01219918692 0.0007649030827 -0.001947042522)
(0.009296784321 0.001087394624 -0.001176562912)
(0.002908859134 0.001393390882 0.0004893015743)
(0.004485474607 0.001699570081 0.001606846379)
(0.01495998072 0.002026476986 -0.001199274221)
(0.005530382174 0.001787650794 -0.0009894418359)
(0.009400172983 0.002195703646 -0.00091792432)
(0.01177341817 0.003850783136 0.0001227379391)
(0.01050389469 0.005365913143 0.002126185311)
(0.009149395674 0.005257406961 -0.001751478735)
(0.0148554104 0.004518505346 0.001870772847)
(0.007485218761 0.0005146506757 0.000272552249)
(0.0034150541 0.001427265451 -0.000118676282)
(0.006129635661 0.0006993772806 -0.002187287223)
(0.0151807303 0.00263119411 0.0002337055305)
(0.00369517917 0.002132260677 0.0003315251537)
(0.006048227663 0.002675826244 8.423630312e-05)
(0.01151300854 0.003654652956 -0.001298959051)
(0.009334399933 0.001951123775 -0.0006713114003)
(0.005757211538 0.002639992336 0.001089990627)
(0.01050019934 0.004084009886 -0.0002843730643)
(0.008724848912 3.091574475e-05 0.0003327134912)
(0.00719239217 0.00188433407 0.0002906697781)
(0.003846086005 0.0001310282041 0.0003758209466)
(0.004286813877 0.0001726952158 0.0004739360041)
(0.009990934891 0.002138116342 0.0002795320463)
(0.009162359075 0.001935838729 -0.000855200825)
(0.01024634858 0.002608447819 -0.001145575767)
(0.01227791842 0.0006818423965 -0.0004063901748)
(0.01664486382 0.002209444594 -4.343124338e-05)
(0.006735013725 0.002581415272 -0.001481505623)
(0.006463520712 0.0001099089864 0.0007393499786)
(0.003537222806 -0.001102538526 -0.0002244262431)
(0.01057490792 0.0006908930511 -0.0004227121225)
(0.008225130848 0.002658647556 -0.001521482391)
(0.01015722555 0.0002860971024 0.0007125888266)
(0.006629793074 0.0004581307643 0.00128659252)
(0.006694902453 0.001198173506 0.0004169828046)
(0.01013063398 0.002492310138 0.0008616629515)
(0.01371482158 0.002712705793 -0.0001418438457)
(0.008442578546 0.004317204604 -0.002280088681)
(0.009985004996 0.0003985314164 0.0007739696788)
(0.007157504422 -0.0002086401395 -0.000455012991)
(0.008068624601 0.0004563196996 -0.001627031619)
(0.01164579179 0.0004757491601 1.031909176e-05)
(0.007745362593 0.002014249239 -0.000476979679)
(0.01404082958 0.0002599458351 0.0003944366278)
(0.007490249549 -0.0007422611447 0.0007890028505)
(0.008943672458 0.0005851374638 -0.0002275642814)
(0.01323805798 0.0008420127784 0.0002524413488)
(0.009839883234 0.00477019023 0.0005166440234)
(0.008464724907 -0.0001062019805 0.0002921977731)
(0.01239564192 0.0005112677195 -4.228453206e-05)
(0.008722367847 0.0005389755068 0.001487363674)
(0.002396067166 0.0001921173559 -0.0002218276767)
(0.008634121118 -0.0008714845676 0.0004204542592)
(0.005144379211 0.001378948994 -0.0008290096492)
(0.01071355045 0.001480365029 0.0003482276263)
(0.009092369356 0.0003902802909 -0.0002844716267)
(0.01036353655 0.001198884288 0.001310507542)
(0.01125059655 0.0003268371401 -0.000984881368)
(0.006648926843 0.0003955042888 0.001135609022)
(0.008983774503 -1.237442296e-05 -7.84913011e-05)
(0.009178047584 0.0005123430814 -0.0004100449899)
(0.01318117401 0.002743325195 -9.191988205e-05)
(0.009782383942 8.486331183e-05 -1.090497099e-05)
(0.01219742571 0.0008251810891 0.000313640831)
(0.00538482443 2.790367111e-05 0.0004408367064)
(0.009289155503 0.0008684121922 0.0002795609993)
(0.006445167232 0.002061549462 -0.0006383897096)
(0.01055344766 0.0003438739243 -0.0002600865093)
(0.009795259476 -0.001354991502 -0.0001751542018)
(0.01022696846 0.0003848618096 -0.0008283147748)
(0.01128033979 -0.0003393730361 -0.000808843035)
(0.009279593541 0.0009304401678 7.995869219e-06)
(0.007781489858 -4.710990867e-05 0.0004058928437)
(0.005187795501 0.001472613987 -0.0004990642258)
(0.007947050367 -0.0001922271302 0.0001778849398)
(0.008345032641 -3.607258695e-05 7.809369683e-05)
(0.004925255716 0.002091705112 0.0004300086009)
(0.01021176739 0.002354673416 0.0003042067938)
(0.01010069378 -0.0009014309709 9.047469278e-05)
(0.009848721541 -8.22576623e-05 -2.255262315e-05)
(0.007539361649 0.0006472369133 -0.0005748953297)
(0.007664465082 9.092659914e-05 -0.0004461883524)
(0.00796302329 0.0001526880539 -0.0002077120651)
(0.0130494239 0.0001761622451 0.0005316675674)
(0.007060182522 0.001410707892 -0.0002903635435)
(0.00737242571 0.0003355999233 -0.0001032614796)
(0.01151398711 0.000239607814 0.0007857396004)
(0.008163947062 8.871978462e-05 0.0002501804452)
(0.003506381917 -0.0005252357405 -0.0003956449915)
(0.007297997353 0.000245771799 0.0003343607969)
(0.006354209278 0.0006783379676 0.0004588568628)
(0.008330236456 0.0004247650659 -0.0001173790484)
(0.005917520141 0.000589068739 -0.0008455032835)
(0.01515981846 -0.0004903778002 -0.0007527517059)
(0.01284046893 0.0002183172667 -0.0005819197599)
(0.006841132843 -0.0001966443671 -0.0001814226734)
(0.008044097116 -4.019913721e-05 -0.0008685661659)
(0.009378627455 0.001220639813 0.00118705899)
(0.00581919741 0.0003764964232 0.0003834968717)
(0.009036796314 -0.0005084793999 -0.0002279923771)
(0.009348959633 -0.0008658449664 -0.0002240306845)
(0.005414025319 0.0004000285384 0.0002599043783)
(0.002430048166 -0.0002452959778 0.0002138187999)
(0.003944245803 0.0007447339815 -0.000595254797)
(0.004981246333 0.001096800127 -0.0005902874597)
(0.006073534294 -0.0009194732715 0.0003010949428)
(0.01402527214 0.00105581319 -8.088794429e-05)
(0.008794418417 0.0003003163033 0.0002794655407)
(0.005777512245 -0.0005848370843 -8.498320114e-05)
(0.009052538224 0.0003912590486 -0.0001423547978)
(0.007496510443 -8.004441137e-05 0.0001382893388)
(0.007125700741 1.43998406e-05 7.774997255e-05)
(0.006389832215 9.455387859e-05 -0.0001085040362)
(0.007465954377 -9.805886501e-05 5.355248564e-05)
(0.007777146098 -0.001976781841 -9.00633483e-05)
(0.01277298512 -0.0005641385162 -0.0006090702495)
(0.01624957608 -0.0002528699058 0.0004631574827)
(0.008297256369 -0.0002414326575 -0.0002004244173)
(0.00730885085 0.0009263320708 -0.000523300217)