/*--------------------------------*- C++ -*----------------------------------*\
| =========                 |                                                 |
| \\      /  F ield         | OpenFOAM: The Open Source CFD Toolbox           |
|  \\    /   O peration     | Version:  2406                                  |
|   \\  /    A nd           | Website:  www.openfoam.com                      |
|    \\/     M anipulation  |                                                 |
\*---------------------------------------------------------------------------*/
FoamFile
{
    version     2.0;
    format      ascii;
    arch        "LSB;label=32;scalar=64";
    class       volScalarField;
    location    "0.011";
    object      overallT;
}
// * * * * * * * * * * * * * * * * * * * * * * * * * * * * * * * * * * * * * //

dimensions      [1 2 -2 0 0 0 0];

internalField   nonuniform List<scalar> 
654
(
293.616252
303.0216731
298.2501052
298.8256764
299.5080969
299.4083497
299.6521523
299.4217851
299.1334891
298.8960968
297.4888167
299.3107788
299.0348539
303.5939992
309.4636979
320.2815555
340.1685833
395.8507509
555.7314136
967.6089973
295.1003237
303.5309183
301.0555999
301.6217825
301.0125189
301.2444102
301.4205695
301.0943334
302.4503568
302.0461497
301.3530348
301.4687742
305.979698
308.538695
312.0642456
326.3093195
357.6303876
427.9524032
592.3144563
862.8241219
294.9921352
304.6657679
299.0086866
299.0915134
299.0955287
299.5200887
298.3724905
299.6397954
299.1227202
299.7747767
300.7081425
300.0110295
301.41992
307.6141417
314.2351019
323.4081196
361.9791033
422.3228028
550.6266123
717.9071483
292.0307055
302.2525585
299.3454029
299.1320512
297.9333724
297.8257797
297.8921511
298.7758144
300.1128491
298.6881671
300.6581277
301.2654268
302.4548447
304.4568165
313.068684
327.778429
349.0616023
402.4663464
482.5669301
612.9698941
293.4888572
303.6956118
298.4315954
299.0171793
300.9615595
300.7751519
301.4017068
301.7344272
301.2230567
301.004893
301.3831164
302.3094954
303.7649477
305.3419304
309.2927627
322.6145703
341.5839507
381.0337845
438.9645482
522.6613097
293.951554
303.8458695
300.2475057
300.2420954
299.3930222
297.9819437
298.3419329
299.1221019
298.4929999
301.1294868
300.6301385
300.732429
301.8057056
302.3995136
309.678135
321.1042819
336.3611863
373.1264802
401.4033647
462.9410928
294.0858548
303.3335554
298.7733747
299.4261513
300.5728889
301.7135765
299.9800343
298.3372314
299.2967459
300.4196743
300.6678756
300.5529856
302.3716761
303.1166828
310.6967252
317.6108025
332.1472695
346.443086
372.4930931
414.7027157
293.0906041
302.9825664
299.5185832
301.4977912
299.8116832
299.9678417
300.8331201
300.7755975
301.1838158
300.9080496
300.2802136
301.039768
301.3353043
302.8991819
309.1002365
310.7140984
321.2552478
338.3292749
353.3718435
379.1464322
297.1657664
306.465013
300.7451461
300.4369875
300.0291295
300.4955057
300.3118464
301.2610862
300.9853293
300.3090738
301.2979499
300.8480913
302.0958998
304.0038657
306.3843339
308.7447801
318.6424848
327.8064938
340.5991819
358.999938
295.8561524
304.7313015
301.4438223
301.266298
301.2229566
301.9543355
300.944317
299.9140982
301.0556882
301.4149103
302.5565381
302.0068804
304.1586041
305.2590574
304.077634
308.5841647
312.8299867
320.6241013
330.3255224
346.7139562
295.5977436
304.1516654
301.0923012
301.2142094
300.9572471
300.4800456
300.28491
301.3995597
300.7847117
300.6037603
299.7144164
299.9793061
299.9397581
300.0836133
303.6829863
303.4623884
307.7161651
316.3327846
320.5709571
333.9506541
294.8252479
305.2437882
300.6338594
301.2315706
301.4528077
300.9106166
300.4431155
298.4692173
300.6354967
299.8896018
299.266848
300.2424155
299.530703
301.8931954
301.5993977
305.2888048
307.841516
312.9775343
315.2441426
325.4633337
293.3439646
303.6670691
298.7740089
299.3460122
297.9354091
298.5209732
300.7009735
302.9470061
302.3644133
301.6784388
301.0800705
300.7136869
302.2279517
301.8574779
301.4867733
303.8304114
305.1764904
307.9731243
313.2851156
316.6501852
292.5043253
301.3066016
298.1383517
299.0664211
299.9720105
300.9168205
299.8817099
299.4295647
298.50019
298.4266773
300.7362706
300.5299931
300.366906
299.9652286
302.0216909
303.9482174
304.5761477
304.6516737
308.1425155
311.1582841
295.2778073
305.4329516
300.973389
299.398795
299.4621627
298.584891
296.97178
297.5069751
297.664899
298.8078534
299.5809617
299.9415736
299.2135488
298.8843099
299.5460053
301.8270669
302.7518241
304.0643715
303.8583256
306.839441
294.3673794
302.899173
299.0934123
298.1265935
297.1478998
298.4404509
299.3203521
300.1820789
299.091262
299.3485076
300.6449187
299.6227724
299.669617
300.7839707
300.8878115
301.3562051
302.806631
303.4925534
305.5077927
308.3150603
295.2891224
304.7865898
299.6225037
300.6966352
301.5374767
300.2287504
300.0027333
299.0262025
299.8384521
299.6152957
300.1767487
300.4544999
300.9551658
300.1296999
300.5287154
301.8705139
303.2718153
305.212568
305.0499151
307.666019
294.4311083
303.4655776
300.7752876
300.2927864
300.9635695
301.2876228
301.0869917
300.4539164
299.2891468
298.7316012
299.1057985
298.4668298
299.9573395
300.4489053
302.0478465
300.3874618
299.5033121
301.3601108
302.3051714
304.1460017
292.336918
303.0548769
298.5590365
298.7540283
298.7852276
299.5098962
300.5601692
300.3765382
300.8606843
301.5990077
300.9278738
300.9808302
300.5918467
299.2237551
299.8571261
300.6593544
300.4867373
300.3173181
300.5951111
300.6464638
293.1290715
302.1278144
298.7787761
298.8250759
299.4422518
297.7188576
297.0623775
297.0995262
297.2903757
295.9087175
297.4078564
298.245937
300.1922037
300.0732981
300.6886017
299.7950509
300.1656408
300.7295746
301.6158574
301.9257385
295.0032603
304.2009619
298.7711138
298.3387455
298.8293724
300.5413827
300.7379177
300.9539291
301.083207
302.4064456
301.6920842
301.6576007
300.5511044
299.3413564
299.2296102
300.6959408
301.6566685
301.476641
300.7454767
301.9497246
294.0837304
304.0223715
299.1255599
300.0408331
299.7134353
299.8023832
299.7312251
301.043396
301.2750607
300.7072668
300.9537824
300.4893211
301.3758535
301.9972361
301.985996
300.5216221
299.476595
300.851079
300.6376712
300.8853026
1055.536235
993.2358999
961.618865
936.6382662
917.783534
902.9902773
891.7836581
868.058524
860.8037708
849.2360758
1013.070188
1010.119861
999.8390989
981.1553296
972.0369543
966.2654535
953.0737001
948.3343206
934.6341489
926.8153721
870.8097826
929.8550725
938.9066763
950.6291426
947.7862755
945.9678602
942.9116133
938.6782718
936.1044291
929.2347843
734.5684307
815.5388235
860.4632123
885.9951014
897.7333976
899.9096897
905.0340977
898.6403828
909.3247613
914.043828
614.9148276
699.4603965
753.7690404
805.2146684
829.3566492
851.3149009
868.1965746
861.3559964
872.2816044
878.7668086
539.096024
609.0993795
660.3059708
718.643924
752.2157015
784.6895691
813.1627601
824.2598757
841.0059657
843.4402992
466.0296698
528.167531
568.1426928
631.9940932
666.4822056
708.2934794
736.8811614
764.5275166
782.5039344
797.3727688
416.1241876
467.3327985
499.9879391
556.4923626
596.319827
639.7508327
668.9291085
704.8291749
730.9567709
747.0026486
391.5553606
428.0677727
451.4516035
495.9608596
530.6266481
568.5514558
608.8592674
640.123905
667.3023686
691.2495458
361.7309228
382.9956378
416.1580069
446.9169146
475.765111
506.0714999
544.9048503
574.0992192
605.6148973
635.4522621
346.7688831
363.5409017
384.9576727
410.517764
433.5899665
463.5991143
497.2440406
524.2550261
548.4676087
575.4387794
335.453536
346.7617666
359.238233
382.25837
393.5657973
417.8433317
445.8028637
467.6120565
496.1765599
521.5887082
324.5808673
333.2954601
344.0928136
354.8423319
366.8392065
386.9948521
406.9167993
426.9627274
446.2481412
479.0932136
320.2832832
325.5831643
333.0858109
341.1814112
352.8054969
359.6050126
376.6309783
398.7964133
417.7288312
436.2489343
315.5252468
318.2728519
324.0635779
327.4871325
341.5669906
349.3913313
359.3425527
375.5468284
392.3110758
407.7425479
308.0702696
313.659571
318.3299288
323.2315875
328.6220468
340.6000949
346.3349544
355.0679795
370.3939254
381.421211
308.2878815
310.8971439
314.7798808
315.9833058
318.2940506
326.6410121
334.2450421
341.9696568
349.2141532
360.4143525
307.6977247
307.8985062
309.8426779
311.3716413
312.1742679
317.0188459
323.5988447
329.364877
338.6824432
346.7588966
301.5228559
306.9533446
309.4656842
310.9609032
313.7324045
315.644308
318.0664875
323.4209328
327.3704016
335.9492377
302.8057865
303.2407674
306.3030298
306.6758628
308.6362424
311.211785
314.3377093
318.0999928
322.6856961
325.5183704
302.0976883
302.5045799
304.1806635
303.9019907
305.4349436
308.1560303
311.0925164
313.948198
318.4339349
321.6708348
299.5777976
300.0299469
302.1719443
304.3323538
)
;

boundaryField
{
    flow
    {
        type            calculated;
        value           nonuniform List<scalar> 
42
(
293.616252
295.1003237
294.9921352
292.0307055
293.4888572
293.951554
294.0858548
293.0906041
297.1657664
295.8561524
295.5977436
294.8252479
293.3439646
292.5043253
295.2778073
294.3673794
295.2891224
294.4311083
292.336918
293.1290715
295.0032603
294.0837304
293.616252
303.0216731
298.2501052
298.8256764
299.5080969
299.4083497
299.6521523
299.4217851
299.1334891
298.8960968
297.4888167
299.3107788
299.0348539
303.5939992
309.4636979
320.2815555
340.1685833
395.8507509
555.7314136
967.6089973
)
;
    }
    obstacle
    {
        type            calculated;
        value           nonuniform List<scalar> 10(934.0231278 880.6882556 823.810034 805.3240008 780.1327918 777.6570118 772.3362716 749.3049468 745.2875714 738.6173739);
    }
    frontAndBack
    {
        type            empty;
    }
    procBoundary0to1
    {
        type            processor;
        value           nonuniform List<scalar> 
21
(
840.8061095
916.1461395
929.2720151
908.6059898
877.4108415
848.0563294
813.112725
764.1319014
713.9871644
659.4870656
601.6548985
555.1771887
502.4816286
458.956347
420.002524
393.8782796
374.4812465
357.5118959
341.9254496
334.2495221
322.9066724
)
;
    }
    procBoundary0to2
    {
        type            processor;
        value           nonuniform List<scalar> 
31
(
292.9923639
303.7108044
299.9497269
300.2090211
299.4197532
298.3409828
298.5221853
299.5008949
298.673537
299.5004088
300.4576794
301.6420348
301.2666564
300.378614
299.7985424
299.6657645
298.7200401
298.5915002
298.9574926
299.9319156
306.2772287
307.0681241
307.216428
307.2156775
310.4272458
313.5232218
300.2888875
301.8667341
301.9443162
306.2772287
302.9460592
)
;
    }
}


// ************************************************************************* //
