/*--------------------------------*- C++ -*----------------------------------*\
| =========                 |                                                 |
| \\      /  F ield         | OpenFOAM: The Open Source CFD Toolbox           |
|  \\    /   O peration     | Version:  2406                                  |
|   \\  /    A nd           | Website:  www.openfoam.com                      |
|    \\/     M anipulation  |                                                 |
\*---------------------------------------------------------------------------*/
FoamFile
{
    version     2.0;
    format      ascii;
    arch        "LSB;label=32;scalar=64";
    class       volScalarField;
    location    "0.011";
    object      p;
}
// * * * * * * * * * * * * * * * * * * * * * * * * * * * * * * * * * * * * * //

dimensions      [1 -1 -2 0 0 0 0];

internalField   nonuniform List<scalar> 
654
(
0.3060043426
0.4127578876
0.4040738631
0.4067317449
0.409533915
0.409082901
0.4084218913
0.4091296457
0.4066729414
0.4042163181
0.4029717871
0.4051187132
0.4052515509
0.415915678
0.4297762261
0.455841006
0.5003717247
0.6345070182
1.037744314
2.496590037
0.3100569257
0.4189742622
0.4159160514
0.4154127244
0.4121410261
0.4146502344
0.4149350486
0.415156514
0.4163614409
0.4144829233
0.4143081609
0.418023806
0.4284489629
0.4365871863
0.444965094
0.4788649096
0.5521405763
0.7271410257
1.165970907
2.07573187
0.3130695263
0.4270867239
0.4142901139
0.4139537528
0.4139777225
0.4141161727
0.4133815872
0.4150918674
0.4160478012
0.4156261777
0.4187955079
0.4146157805
0.414494155
0.4298055997
0.4431083381
0.4636356209
0.553941182
0.6990383757
1.023995033
1.527217729
0.3088404609
0.4179045337
0.4149099194
0.4145098672
0.4091381834
0.4101380335
0.4091892553
0.4107292182
0.4120534713
0.4140328146
0.4161646586
0.4178038947
0.421869542
0.4221486577
0.4422916884
0.4720509506
0.5216375272
0.6490294217
0.8503414707
1.215372475
0.3115907645
0.421524649
0.4092555814
0.408902883
0.4143895725
0.4154650943
0.4157457638
0.4152478902
0.4134121459
0.41164078
0.4112383201
0.414227597
0.4190238785
0.422096693
0.4316211102
0.4657979788
0.5091626702
0.6018803656
0.737439459
0.9543877954
0.3090333808
0.4189285119
0.4164088968
0.4141053691
0.4109901298
0.4064037298
0.4077309367
0.4125262595
0.4109934486
0.4163534845
0.4149603181
0.4140564831
0.4130467349
0.4142241796
0.4355587714
0.4567491189
0.4934124924
0.5740678056
0.6474017568
0.7962076647
0.3128037961
0.4214629488
0.4138576003
0.4151330574
0.4209088568
0.4209803334
0.4176546829
0.41343226
0.4156938234
0.42072044
0.4198752758
0.4214261292
0.4249304695
0.4234823415
0.4398659356
0.4522319699
0.4870327021
0.5221137418
0.5870287991
0.6891635251
0.3086136287
0.419180584
0.4125014804
0.4157507426
0.4137801173
0.4148556851
0.4177011554
0.4174418889
0.416586608
0.414481497
0.4137548706
0.4131656284
0.4155227036
0.4211122436
0.4365144107
0.4404330678
0.4639629731
0.4999302066
0.535210933
0.5969450406
0.3157582879
0.4292663227
0.4177225503
0.4172256287
0.4134339132
0.4143330232
0.4158252116
0.4186502739
0.4144818984
0.4123295747
0.4183535223
0.4186279857
0.4181409169
0.4219406706
0.4251047232
0.4326385275
0.4565747278
0.4773664611
0.507492938
0.5502803914
0.310450262
0.4146165217
0.4123260607
0.4113236162
0.4121987804
0.4142855914
0.411690935
0.4103083809
0.4169597149
0.417253663
0.4188244831
0.4183551272
0.4236876061
0.4254522692
0.4250139819
0.4349468967
0.4450313218
0.4593592316
0.4818492537
0.5167966972
0.3135846624
0.4220260636
0.4148448733
0.4146845088
0.4127132828
0.4113299456
0.4092581438
0.413488586
0.4118327478
0.412706893
0.4136334324
0.4129562712
0.4150918982
0.4169136596
0.4241037492
0.419668063
0.4280908906
0.4497236614
0.4629147423
0.4952194344
0.3121094829
0.4257489617
0.4182146157
0.4173765492
0.4194714881
0.4176694427
0.418318293
0.415184066
0.4202376582
0.4153692605
0.4118155821
0.4099634387
0.4060811328
0.4145965213
0.4155169916
0.4291221467
0.4384994886
0.4472748187
0.4502302764
0.4710751468
0.311961323
0.4245569879
0.4146085213
0.415848805
0.4121101754
0.4124214979
0.4168432298
0.417280865
0.4152458335
0.4137884807
0.4171531936
0.4182219928
0.4228984826
0.4213697716
0.4169523916
0.4237992648
0.4264673322
0.4333504842
0.4481446561
0.4542885501
0.3116829186
0.4202577846
0.4164408931
0.4174634188
0.4187138105
0.4212404908
0.4174723985
0.4180517712
0.4168542662
0.4152834817
0.4181455815
0.4189266127
0.4166728517
0.4147407466
0.4187023437
0.4205278708
0.4215805639
0.4198575516
0.4286111933
0.4377977625
0.3110693546
0.4246328212
0.4144037246
0.4100657882
0.4130863665
0.4128075373
0.4127761332
0.4122393253
0.4145020746
0.4158525043
0.4165692472
0.417341128
0.4190547697
0.4153960269
0.4164284888
0.4199196399
0.4215222026
0.4232062149
0.4212327929
0.4245214169
0.3121018472
0.4215446893
0.4155825089
0.4146477155
0.4097464012
0.4110848702
0.4120754914
0.4123636618
0.4131082378
0.4128524976
0.4159258688
0.4112107617
0.4065456595
0.4110374873
0.4144093583
0.4164421083
0.4194394641
0.4211546721
0.4278375334
0.4283991632
0.311866988
0.4191258781
0.4087998615
0.4119762211
0.4135109245
0.4135069648
0.4105224871
0.4092034157
0.4092249501
0.4082098938
0.4101707111
0.4120471237
0.4144437387
0.4155298851
0.4131174029
0.4171971092
0.4205012011
0.4250123013
0.4233264934
0.4293197594
0.3074411235
0.4178008473
0.4132798493
0.4135128845
0.4135309503
0.412359831
0.4131605909
0.4115918253
0.4084712348
0.4083528483
0.4109360444
0.4097250338
0.4141708405
0.4135357904
0.4173389643
0.4142506817
0.4134458453
0.4157169039
0.4169930675
0.4219185794
0.3101129809
0.4231115937
0.4132238499
0.4098513668
0.4113627189
0.414092538
0.4154968975
0.4177873721
0.4164237005
0.4174904195
0.4154894184
0.4157512156
0.4133808875
0.4124231584
0.4128456061
0.4131744536
0.4135316601
0.4131908798
0.4143247702
0.4119219003
0.3094474701
0.4187756665
0.4168416667
0.4174461139
0.4166653936
0.4139975437
0.4121116773
0.4106397956
0.4110030516
0.4096311235
0.4133331159
0.4139401866
0.4175278865
0.4148863552
0.4160183836
0.4137466477
0.4150915679
0.4160294583
0.4204184631
0.4217404902
0.3111467002
0.4194012065
0.4063055373
0.4071608447
0.4096153402
0.413300631
0.4120755478
0.407935135
0.4099397625
0.4136630711
0.4136980515
0.4148654693
0.4127381096
0.4138621159
0.4153635566
0.4187705719
0.4203018932
0.4204074206
0.4186879389
0.4194903495
0.3099602067
0.4218914801
0.4122311584
0.4104980754
0.4105295665
0.4094348391
0.4119044136
0.4165140206
0.419448183
0.4169356758
0.4155284203
0.4144553253
0.4185098686
0.4193161719
0.4174984255
0.4152152
0.4113879251
0.4147048527
0.4166838428
0.4178568048
4.678768411
4.82467099
4.777325999
4.67589939
4.520206846
4.4514455
4.372594146
4.241701339
4.087376364
4.00302335
3.076673574
3.571135243
3.843420147
3.956307025
4.051328655
4.114531881
4.045359399
4.064419952
4.006549303
3.921595874
2.175940029
2.66576525
2.937930186
3.212731714
3.375278759
3.527653225
3.610184737
3.684768567
3.714597877
3.697881071
1.625242105
1.986778789
2.286285588
2.580970932
2.777630572
2.94303191
3.130551728
3.205244194
3.344601935
3.440643421
1.22415348
1.531288852
1.777718518
2.055623886
2.27045874
2.457089844
2.646500768
2.734547196
2.922003252
3.077061362
1.000330905
1.219327935
1.400322042
1.637167007
1.820564544
2.043579343
2.258215356
2.415820962
2.593875277
2.699403722
0.8202535844
0.9850344107
1.11526232
1.335367275
1.479102689
1.679230667
1.843312827
2.026240076
2.204567233
2.357853458
0.6873370222
0.8176294685
0.913870586
1.083587367
1.215221272
1.376764581
1.523697244
1.694776417
1.870441897
2.014155284
0.6261932506
0.7175185812
0.7829589178
0.9062390703
1.007913825
1.135571985
1.282279145
1.406700519
1.550073624
1.700603723
0.5585279245
0.6115392542
0.6970499387
0.7741906325
0.8536455172
0.9417787328
1.071535549
1.173273018
1.292016672
1.418011484
0.5248335491
0.5603223218
0.6199000621
0.6865231685
0.7489853233
0.8251729996
0.9200117746
1.011787697
1.090701623
1.193222284
0.4952602252
0.5207559884
0.5469661911
0.6070539024
0.6334164497
0.7005962998
0.7740501684
0.8448584647
0.9384059873
1.015147173
0.4727679811
0.4949660854
0.5191754255
0.5416779363
0.5712797347
0.6242793171
0.6777997244
0.7281017216
0.7782822877
0.8826446515
0.4588494846
0.470182186
0.489477388
0.5084050514
0.5343829865
0.5499695752
0.5899625093
0.6466943029
0.7019108832
0.7576942238
0.4442390695
0.4495974839
0.4631439028
0.471663114
0.5003433201
0.5273463567
0.5508920984
0.5892024255
0.6284887508
0.6685178877
0.4317447864
0.4444082689
0.4560055941
0.4657305314
0.4803834912
0.5019074038
0.5158185199
0.5409645932
0.5807564681
0.6068435857
0.4285768042
0.4367576189
0.4423142001
0.4464467609
0.4514133902
0.4689384358
0.4898347377
0.5087064208
0.5238199607
0.5584784174
0.4298004934
0.4259877373
0.4317811662
0.4370802538
0.4422647117
0.4538567599
0.4667400717
0.4788946256
0.4986443469
0.5174399622
0.4167493815
0.4320617435
0.4379466421
0.4431479807
0.4475268881
0.4499890722
0.4559488401
0.4656086549
0.47480687
0.4958546605
0.4215952591
0.4245014901
0.4299965404
0.4280632236
0.4333164681
0.4403585456
0.4482333458
0.458237209
0.4644440139
0.4696731631
0.4185922999
0.4197807099
0.4234775614
0.4232808031
0.4246526861
0.4320765164
0.4365956744
0.444606704
0.459092435
0.4658857372
0.4131762927
0.4139393746
0.4193925774
0.4238363778
)
;

boundaryField
{
    flow
    {
        type            calculated;
        value           nonuniform List<scalar> 
42
(
0.3060043426
0.3100569257
0.3130695263
0.3088404609
0.3115907645
0.3090333808
0.3128037961
0.3086136287
0.3157582879
0.310450262
0.3135846624
0.3121094829
0.311961323
0.3116829186
0.3110693546
0.3121018472
0.311866988
0.3074411235
0.3101129809
0.3094474701
0.3111467002
0.3099602067
0.3060043426
0.4127578876
0.4040738631
0.4067317449
0.409533915
0.409082901
0.4084218913
0.4091296457
0.4066729414
0.4042163181
0.4029717871
0.4051187132
0.4052515509
0.415915678
0.4297762261
0.455841006
0.5003717247
0.6345070182
1.037744314
2.496590037
)
;
    }
    obstacle
    {
        type            calculated;
        value           nonuniform List<scalar> 10(3.693254671 3.70642754 3.650515547 3.563051374 3.513110136 3.445606681 3.456821472 3.456492616 3.320835721 3.299143815);
    }
    frontAndBack
    {
        type            empty;
    }
    procBoundary0to1
    {
        type            processor;
        value           nonuniform List<scalar> 
21
(
3.932430142
3.898637416
3.691301595
3.418169995
3.137736335
2.846334795
2.506480233
2.144089905
1.854600764
1.551445092
1.307050769
1.124837704
0.9521211982
0.814616417
0.7143861605
0.6373658045
0.5945973517
0.5448358654
0.5130263338
0.4909907482
0.4661124039
)
;
    }
    procBoundary0to2
    {
        type            processor;
        value           nonuniform List<scalar> 
31
(
0.3072253602
0.4188127808
0.4138580667
0.4147844369
0.413694333
0.4133701581
0.4149498657
0.4158683776
0.4112767473
0.4157927746
0.4186619618
0.4209626655
0.4183799433
0.4145466143
0.4123465373
0.4132221998
0.4130440694
0.4136265954
0.4116647303
0.4119812474
0.4281905652
0.4291987579
0.4284961943
0.4287221902
0.4361601999
0.4467034528
0.4145516853
0.4176509209
0.4161626414
0.4281905652
0.4155324498
)
;
    }
}


// ************************************************************************* //
