/*--------------------------------*- C++ -*----------------------------------*\
| =========                 |                                                 |
| \\      /  F ield         | OpenFOAM: The Open Source CFD Toolbox           |
|  \\    /   O peration     | Version:  2406                                  |
|   \\  /    A nd           | Website:  www.openfoam.com                      |
|    \\/     M anipulation  |                                                 |
\*---------------------------------------------------------------------------*/
FoamFile
{
    version     2.0;
    format      ascii;
    arch        "LSB;label=32;scalar=64";
    class       volScalarField;
    location    "0.011";
    object      rhoMMean;
}
// * * * * * * * * * * * * * * * * * * * * * * * * * * * * * * * * * * * * * //

dimensions      [1 -3 0 0 0 0 0];

internalField   nonuniform List<scalar> 
654
(
3.666860594e-06
4.715161475e-06
4.737584403e-06
4.735495772e-06
4.746738118e-06
4.742398207e-06
4.728907611e-06
4.745645481e-06
4.723843417e-06
4.711554331e-06
4.730329482e-06
4.73030411e-06
4.732067749e-06
4.737492911e-06
4.752935166e-06
4.784649388e-06
4.78539469e-06
4.870022511e-06
5.152640393e-06
6.536148975e-06
3.700340273e-06
4.757784757e-06
4.802292481e-06
4.782772331e-06
4.773087313e-06
4.791145867e-06
4.790351942e-06
4.788456178e-06
4.785685221e-06
4.782608472e-06
4.78810551e-06
4.803049408e-06
4.81755126e-06
4.83611211e-06
4.838657859e-06
4.882582929e-06
4.933832561e-06
5.076088116e-06
5.39140084e-06
6.239420164e-06
3.725943863e-06
4.808904801e-06
4.808763285e-06
4.792543577e-06
4.803648345e-06
4.802049778e-06
4.815798338e-06
4.798967575e-06
4.813380473e-06
4.801643518e-06
4.820254507e-06
4.801175797e-06
4.777527312e-06
4.798142218e-06
4.806007589e-06
4.80535609e-06
4.85638131e-06
4.96495239e-06
5.189046102e-06
5.703781171e-06
3.733051701e-06
4.778938957e-06
4.828728207e-06
4.822450989e-06
4.793398661e-06
4.785794284e-06
4.782534778e-06
4.784883911e-06
4.772335839e-06
4.790420068e-06
4.770564513e-06
4.786726091e-06
4.80440497e-06
4.768551392e-06
4.785246205e-06
4.77960178e-06
4.813245318e-06
4.908320652e-06
5.081439586e-06
5.459668952e-06
3.723353542e-06
4.775535814e-06
4.757852694e-06
4.764831247e-06
4.77831567e-06
4.782331194e-06
4.770003899e-06
4.767526087e-06
4.76923686e-06
4.764192282e-06
4.766405048e-06
4.764660003e-06
4.782466652e-06
4.782787895e-06
4.800121863e-06
4.849838327e-06
4.863106632e-06
4.946942952e-06
5.05394326e-06
5.233861929e-06
3.70328005e-06
4.751196294e-06
4.801436791e-06
4.761982545e-06
4.755340914e-06
4.75114252e-06
4.751105219e-06
4.778990308e-06
4.77495032e-06
4.785142784e-06
4.780829155e-06
4.77126403e-06
4.743031303e-06
4.742250518e-06
4.787332413e-06
4.786761688e-06
4.823320842e-06
4.875423135e-06
4.932979598e-06
5.070252945e-06
3.727707502e-06
4.789087152e-06
4.818968889e-06
4.812030061e-06
4.848474889e-06
4.835796623e-06
4.833293135e-06
4.818222376e-06
4.836721158e-06
4.857685521e-06
4.844001755e-06
4.85116064e-06
4.875137148e-06
4.846167412e-06
4.857715741e-06
4.839130427e-06
4.862962086e-06
4.889167643e-06
4.957314461e-06
5.044262294e-06
3.714210544e-06
4.77023437e-06
4.792099108e-06
4.782466046e-06
4.786514024e-06
4.79026117e-06
4.806153158e-06
4.806583578e-06
4.805904282e-06
4.788648856e-06
4.787545199e-06
4.76702167e-06
4.782152376e-06
4.795465064e-06
4.802035122e-06
4.822068284e-06
4.853207426e-06
4.877720198e-06
4.920786738e-06
4.961936799e-06
3.734333266e-06
4.813623176e-06
4.830950781e-06
4.82785877e-06
4.795849586e-06
4.78962372e-06
4.801386955e-06
4.807271356e-06
4.778436056e-06
4.774799904e-06
4.813773592e-06
4.828304868e-06
4.798459826e-06
4.790439988e-06
4.781612477e-06
4.810610614e-06
4.834611585e-06
4.854320058e-06
4.871384738e-06
4.937789237e-06
3.71474802e-06
4.730667615e-06
4.785039478e-06
4.776649771e-06
4.787089899e-06
4.794938191e-06
4.776739332e-06
4.781183155e-06
4.807575218e-06
4.809060065e-06
4.79244633e-06
4.791256748e-06
4.815945611e-06
4.809980549e-06
4.81786493e-06
4.831067228e-06
4.843074795e-06
4.827043108e-06
4.861101805e-06
4.865478411e-06
3.734122601e-06
4.794419119e-06
4.801321252e-06
4.795778317e-06
4.778240159e-06
4.767854109e-06
4.752235762e-06
4.760284306e-06
4.761330439e-06
4.772896869e-06
4.799125262e-06
4.789815678e-06
4.807662658e-06
4.813940784e-06
4.801056813e-06
4.764561846e-06
4.774172262e-06
4.819972874e-06
4.856617954e-06
4.89345378e-06
3.725857635e-06
4.808542508e-06
4.832254083e-06
4.824705715e-06
4.846605217e-06
4.847468594e-06
4.861027619e-06
4.868155073e-06
4.863326008e-06
4.825216796e-06
4.797498293e-06
4.774232209e-06
4.748118749e-06
4.790273099e-06
4.801379078e-06
4.851146894e-06
4.873303867e-06
4.854976935e-06
4.851293977e-06
4.866177019e-06
3.72615665e-06
4.788609623e-06
4.807474941e-06
4.798517236e-06
4.776582554e-06
4.772850063e-06
4.791989628e-06
4.773377125e-06
4.768146041e-06
4.775046356e-06
4.805755078e-06
4.82222972e-06
4.83264902e-06
4.827658822e-06
4.795311202e-06
4.80269359e-06
4.818420696e-06
4.833523001e-06
4.85349258e-06
4.858633195e-06
3.739303849e-06
4.793139069e-06
4.832528521e-06
4.836909671e-06
4.852690968e-06
4.85233727e-06
4.832189479e-06
4.842965619e-06
4.845687346e-06
4.837136809e-06
4.824148812e-06
4.840106806e-06
4.828500348e-06
4.830147843e-06
4.832148429e-06
4.811903995e-06
4.793864148e-06
4.771074988e-06
4.785232648e-06
4.807795578e-06
3.701419466e-06
4.78330424e-06
4.795551178e-06
4.780094873e-06
4.79155758e-06
4.812609988e-06
4.824183083e-06
4.824383941e-06
4.82857283e-06
4.837765058e-06
4.838895904e-06
4.832365267e-06
4.85595604e-06
4.823034249e-06
4.809927683e-06
4.797307546e-06
4.791234519e-06
4.789630687e-06
4.778895181e-06
4.768738995e-06
3.739324677e-06
4.801710433e-06
4.821163971e-06
4.816146582e-06
4.779448637e-06
4.783320221e-06
4.791541826e-06
4.778466995e-06
4.786024566e-06
4.77617993e-06
4.767830251e-06
4.753353165e-06
4.699514424e-06
4.72032625e-06
4.745769313e-06
4.771379266e-06
4.788910152e-06
4.791661303e-06
4.815521477e-06
4.786961939e-06
3.715746438e-06
4.735409847e-06
4.752736543e-06
4.761406859e-06
4.769305593e-06
4.778222664e-06
4.746556157e-06
4.750811165e-06
4.742057954e-06
4.739211183e-06
4.752790734e-06
4.768125933e-06
4.786611575e-06
4.813379867e-06
4.784714902e-06
4.79016059e-06
4.798863965e-06
4.811180241e-06
4.791387359e-06
4.797955903e-06
3.703671957e-06
4.775153299e-06
4.796168103e-06
4.805947946e-06
4.797283386e-06
4.77675501e-06
4.797570471e-06
4.795487596e-06
4.795409358e-06
4.797033601e-06
4.806806968e-06
4.797398318e-06
4.806767849e-06
4.796970928e-06
4.807067166e-06
4.793801891e-06
4.807083639e-06
4.788582433e-06
4.803016159e-06
4.799315819e-06
3.735266588e-06
4.81186499e-06
4.818451635e-06
4.784896446e-06
4.790342437e-06
4.810664805e-06
4.79316232e-06
4.810206475e-06
4.79121672e-06
4.788786018e-06
4.78415781e-06
4.787981375e-06
4.763257029e-06
4.775016023e-06
4.770573715e-06
4.767176631e-06
4.784367869e-06
4.776909667e-06
4.779676685e-06
4.774855004e-06
3.710650509e-06
4.777365459e-06
4.851098573e-06
4.851565991e-06
4.839632723e-06
4.838790477e-06
4.824444191e-06
4.812817928e-06
4.816322673e-06
4.815064359e-06
4.826986607e-06
4.838631275e-06
4.839601595e-06
4.817041997e-06
4.816627444e-06
4.809018825e-06
4.820827049e-06
4.828260183e-06
4.844111727e-06
4.84150675e-06
3.713481716e-06
4.755191406e-06
4.748172826e-06
4.7501722e-06
4.761142419e-06
4.776259379e-06
4.768712525e-06
4.738904481e-06
4.760663981e-06
4.774979934e-06
4.781375114e-06
4.776588613e-06
4.780372454e-06
4.81404784e-06
4.832725743e-06
4.840321221e-06
4.837189485e-06
4.839653248e-06
4.836571045e-06
4.826460454e-06
3.715829637e-06
4.779802335e-06
4.795270265e-06
4.761325592e-06
4.778657742e-06
4.764031755e-06
4.797510221e-06
4.82187288e-06
4.851252321e-06
4.832836737e-06
4.820712117e-06
4.810926518e-06
4.819234238e-06
4.820990606e-06
4.799608661e-06
4.809279327e-06
4.790855146e-06
4.788329922e-06
4.808596585e-06
4.803528452e-06
1.165826123e-05
1.337262652e-05
1.404467646e-05
1.448778973e-05
1.453353473e-05
1.473709604e-05
1.487649387e-05
1.509221165e-05
1.469984153e-05
1.473308142e-05
7.940874647e-06
9.511434302e-06
1.06521837e-05
1.14495328e-05
1.210090557e-05
1.25230044e-05
1.273224658e-05
1.300845369e-05
1.316516026e-05
1.310360609e-05
6.600109105e-06
7.680226272e-06
8.575426653e-06
9.445687028e-06
1.014265272e-05
1.082830361e-05
1.133690208e-05
1.181506099e-05
1.209064743e-05
1.227074437e-05
5.945625581e-06
6.542822483e-06
7.235831956e-06
8.037831947e-06
8.721462759e-06
9.411625077e-06
1.007548029e-05
1.05838891e-05
1.103721748e-05
1.143778385e-05
5.549096289e-06
5.997101763e-06
6.477491038e-06
7.04540764e-06
7.657094526e-06
8.206453644e-06
8.796810041e-06
9.281283051e-06
9.929078405e-06
1.053708538e-05
5.303534388e-06
5.586108696e-06
5.894449475e-06
6.323276864e-06
6.760825224e-06
7.335827617e-06
7.956010686e-06
8.473738493e-06
9.006546257e-06
9.505033375e-06
5.200077565e-06
5.399314089e-06
5.592351084e-06
5.944383711e-06
6.25477305e-06
6.657974738e-06
7.106048539e-06
7.587835029e-06
8.135021284e-06
8.634246045e-06
5.041143983e-06
5.186320568e-06
5.342505913e-06
5.568986923e-06
5.806665374e-06
6.089400834e-06
6.468763722e-06
6.873803096e-06
7.327222093e-06
7.777159554e-06
4.994431485e-06
5.082657763e-06
5.18021107e-06
5.340193464e-06
5.53315435e-06
5.762411356e-06
6.005559692e-06
6.280819497e-06
6.653138143e-06
7.074401522e-06
4.945755129e-06
5.03223286e-06
5.129507896e-06
5.206412543e-06
5.336611411e-06
5.489798401e-06
5.72734683e-06
5.927836029e-06
6.146477289e-06
6.438154303e-06
4.933108704e-06
4.966040755e-06
5.056697263e-06
5.158170289e-06
5.253725322e-06
5.341820071e-06
5.464738356e-06
5.666146499e-06
5.817041442e-06
6.061649645e-06
4.875288769e-06
4.891651364e-06
4.904678047e-06
4.969540932e-06
5.022291862e-06
5.12955154e-06
5.233645534e-06
5.407493183e-06
5.599812745e-06
5.751112542e-06
4.869299209e-06
4.906188896e-06
4.910733804e-06
4.947763397e-06
4.987307235e-06
5.06722296e-06
5.169822822e-06
5.208585848e-06
5.290612085e-06
5.483421476e-06
4.835913302e-06
4.843071511e-06
4.878441763e-06
4.898247962e-06
4.921851449e-06
4.932094386e-06
4.974130943e-06
5.076504551e-06
5.182412744e-06
5.284778406e-06
4.781003441e-06
4.787975293e-06
4.813892188e-06
4.839071772e-06
4.850063335e-06
4.929142025e-06
4.962192404e-06
5.002713823e-06
5.057089651e-06
5.123639697e-06
4.828311306e-06
4.8449285e-06
4.835598695e-06
4.840991471e-06
4.892310752e-06
4.899311679e-06
4.918467632e-06
4.949691114e-06
5.015592844e-06
5.055683072e-06
4.787363465e-06
4.808020679e-06
4.805453204e-06
4.819025923e-06
4.806222863e-06
4.831877028e-06
4.878352649e-06
4.91525767e-06
4.917229377e-06
5.013493079e-06
4.82359425e-06
4.779295407e-06
4.800460985e-06
4.800270652e-06
4.842896773e-06
4.857214901e-06
4.859669709e-06
4.882604127e-06
4.906714606e-06
4.921684005e-06
4.79752161e-06
4.840189839e-06
4.856362933e-06
4.875456155e-06
4.86581323e-06
4.846514077e-06
4.847373218e-06
4.853472949e-06
4.86565067e-06
4.912521889e-06
4.821684657e-06
4.829246366e-06
4.833415073e-06
4.813126493e-06
4.830986312e-06
4.851906683e-06
4.877273168e-06
4.899285054e-06
4.874776056e-06
4.883425149e-06
4.82056979e-06
4.82560652e-06
4.818574385e-06
4.815189351e-06
4.797121822e-06
4.804787863e-06
4.80270647e-06
4.821596667e-06
4.876920584e-06
4.885220043e-06
4.805594597e-06
4.777552724e-06
4.796179656e-06
4.812853425e-06
)
;

boundaryField
{
    flow
    {
        type            calculated;
        value           nonuniform List<scalar> 
42
(
3.666860594e-06
3.700340273e-06
3.725943863e-06
3.733051701e-06
3.723353542e-06
3.70328005e-06
3.727707502e-06
3.714210544e-06
3.734333266e-06
3.71474802e-06
3.734122601e-06
3.725857635e-06
3.72615665e-06
3.739303849e-06
3.701419466e-06
3.739324677e-06
3.715746438e-06
3.703671957e-06
3.735266588e-06
3.710650509e-06
3.713481716e-06
3.715829637e-06
3.666860594e-06
4.715161475e-06
4.737584403e-06
4.735495772e-06
4.746738118e-06
4.742398207e-06
4.728907611e-06
4.745645481e-06
4.723843417e-06
4.711554331e-06
4.730329482e-06
4.73030411e-06
4.732067749e-06
4.737492911e-06
4.752935166e-06
4.784649388e-06
4.78539469e-06
4.870022511e-06
5.152640393e-06
6.536148975e-06
)
;
    }
    obstacle
    {
        type            calculated;
        value           nonuniform List<scalar> 10(6.723841867e-24 6.903885917e-24 7.144345064e-24 6.943522547e-24 7.09541581e-24 6.799155578e-24 6.83036684e-24 6.926642456e-24 6.693154165e-24 6.546665885e-24);
    }
    frontAndBack
    {
        type            empty;
    }
    procBoundary0to1
    {
        type            processor;
        value           nonuniform List<scalar> 
21
(
1.470665866e-05
1.325162343e-05
1.238338336e-05
1.157522386e-05
1.087404568e-05
1.009890147e-05
9.128274293e-06
8.225966189e-06
7.536477222e-06
6.791993777e-06
6.350183282e-06
5.96096379e-06
5.627089777e-06
5.36274703e-06
5.248645264e-06
5.097953321e-06
5.071447748e-06
4.966901802e-06
4.941745893e-06
4.907335311e-06
4.859388305e-06
)
;
    }
    procBoundary0to2
    {
        type            processor;
        value           nonuniform List<scalar> 
31
(
3.706502557e-06
4.783641465e-06
4.825607491e-06
4.812086978e-06
4.802892933e-06
4.806651402e-06
4.810550478e-06
4.797657608e-06
4.772669428e-06
4.810559377e-06
4.816079667e-06
4.837223454e-06
4.825453137e-06
4.798149489e-06
4.797484546e-06
4.794452785e-06
4.798343265e-06
4.805651658e-06
4.7732347e-06
4.76089699e-06
4.827490622e-06
4.83301797e-06
4.830594717e-06
4.824520655e-06
4.831586961e-06
4.86086363e-06
4.769160531e-06
4.783340941e-06
4.784433707e-06
4.827490622e-06
4.756688961e-06
)
;
    }
}


// ************************************************************************* //
