/*--------------------------------*- C++ -*----------------------------------*\
| =========                 |                                                 |
| \\      /  F ield         | OpenFOAM: The Open Source CFD Toolbox           |
|  \\    /   O peration     | Version:  2406                                  |
|   \\  /    A nd           | Website:  www.openfoam.com                      |
|    \\/     M anipulation  |                                                 |
\*---------------------------------------------------------------------------*/
FoamFile
{
    version     2.0;
    format      ascii;
    arch        "LSB;label=32;scalar=64";
    class       volScalarField;
    location    "0.011";
    object      rhoM;
}
// * * * * * * * * * * * * * * * * * * * * * * * * * * * * * * * * * * * * * //

dimensions      [1 -3 0 0 0 0 0];

internalField   nonuniform List<scalar> 
654
(
3.942947953e-06
3.52763771e-06
4.080829287e-06
7.885895906e-06
4.01188862e-06
4.149769955e-06
7.470585662e-06
4.149769955e-06
4.565080198e-06
4.149769955e-06
4.634020865e-06
4.634020865e-06
1.937003643e-06
4.911449774e-06
5.464641352e-06
2.00594431e-06
6.433143174e-06
3.596578377e-06
6.433143174e-06
6.986334752e-06
3.043386799e-06
5.879951596e-06
4.634020865e-06
5.118271776e-06
3.458697042e-06
3.52763771e-06
5.602522687e-06
5.811010928e-06
3.389756375e-06
5.464641352e-06
8.02377724e-06
2.421254554e-06
7.53952633e-06
6.155714265e-06
6.502083841e-06
6.086773598e-06
6.086773598e-06
4.980390442e-06
5.948892263e-06
4.911449774e-06
2.490195221e-06
3.52763771e-06
2.974446132e-06
5.948892263e-06
4.911449774e-06
3.874007286e-06
6.571024508e-06
5.464641352e-06
4.01188862e-06
3.389756375e-06
3.52763771e-06
5.602522687e-06
7.332704328e-06
5.464641352e-06
4.565080198e-06
4.496139531e-06
6.986334752e-06
4.427198864e-06
4.496139531e-06
6.708905843e-06
4.01188862e-06
6.571024508e-06
4.358258196e-06
6.502083841e-06
3.52763771e-06
3.942947953e-06
1.937003643e-06
2.559135888e-06
5.049331109e-06
6.01783293e-06
3.942947953e-06
2.421254554e-06
4.496139531e-06
6.502083841e-06
3.52763771e-06
4.496139531e-06
7.193156754e-06
6.01783293e-06
4.496139531e-06
6.917394084e-06
4.980390442e-06
4.01188862e-06
5.53358202e-06
3.942947953e-06
4.427198864e-06
4.01188862e-06
3.52763771e-06
5.464641352e-06
4.080829287e-06
4.427198864e-06
4.634020865e-06
4.01188862e-06
4.01188862e-06
3.458697042e-06
2.559135888e-06
5.325093778e-06
6.502083841e-06
7.954836573e-06
6.01783293e-06
2.559135888e-06
2.490195221e-06
6.571024508e-06
7.470585662e-06
3.942947953e-06
4.496139531e-06
2.421254554e-06
6.639965176e-06
2.905505464e-06
3.52763771e-06
6.364202506e-06
1.590634067e-06
5.53358202e-06
1.037442489e-06
6.917394084e-06
4.911449774e-06
3.458697042e-06
5.53358202e-06
3.458697042e-06
5.464641352e-06
5.118271776e-06
5.395700685e-06
2.490195221e-06
3.043386799e-06
2.974446132e-06
5.53358202e-06
5.53358202e-06
6.433143174e-06
6.086773598e-06
6.502083841e-06
4.080829287e-06
5.464641352e-06
7.332704328e-06
4.565080198e-06
6.433143174e-06
4.427198864e-06
3.874007286e-06
3.458697042e-06
4.980390442e-06
6.433143174e-06
5.811010928e-06
4.080829287e-06
3.458697042e-06
6.01783293e-06
5.53358202e-06
4.358258196e-06
6.433143174e-06
4.842509107e-06
6.571024508e-06
2.974446132e-06
4.565080198e-06
6.295261839e-06
5.118271776e-06
4.496139531e-06
3.942947953e-06
4.496139531e-06
2.00594431e-06
2.974446132e-06
3.596578377e-06
7.677407664e-06
2.974446132e-06
2.974446132e-06
4.01188862e-06
5.53358202e-06
6.77784651e-06
5.464641352e-06
4.427198864e-06
4.149769955e-06
7.470585662e-06
5.53358202e-06
4.496139531e-06
6.986334752e-06
4.980390442e-06
6.01783293e-06
4.427198864e-06
5.325093778e-06
4.911449774e-06
6.155714265e-06
4.565080198e-06
3.52763771e-06
5.53358202e-06
3.942947953e-06
4.496139531e-06
3.043386799e-06
6.01783293e-06
4.427198864e-06
3.52763771e-06
6.086773598e-06
2.974446132e-06
3.942947953e-06
4.634020865e-06
6.917394084e-06
5.740404021e-06
4.427198864e-06
2.421254554e-06
2.974446132e-06
4.565080198e-06
4.911449774e-06
7.124216086e-06
5.464641352e-06
2.421254554e-06
4.01188862e-06
6.01783293e-06
2.00594431e-06
4.980390442e-06
5.464641352e-06
3.52763771e-06
4.358258196e-06
6.571024508e-06
7.954836573e-06
3.596578377e-06
2.905505464e-06
3.874007286e-06
3.389756375e-06
3.458697042e-06
4.427198864e-06
4.427198864e-06
2.974446132e-06
5.53358202e-06
8.02377724e-06
3.942947953e-06
4.496139531e-06
2.974446132e-06
5.948892263e-06
4.496139531e-06
5.464641352e-06
5.395700685e-06
2.905505464e-06
5.948892263e-06
6.986334752e-06
5.53358202e-06
6.155714265e-06
6.986334752e-06
4.911449774e-06
5.948892263e-06
4.980390442e-06
5.049331109e-06
5.464641352e-06
4.7719022e-06
4.565080198e-06
5.326760018e-06
3.043386799e-06
6.502083841e-06
4.980390442e-06
4.496139531e-06
3.942947953e-06
4.01188862e-06
4.842509107e-06
4.565080198e-06
3.389756375e-06
3.389756375e-06
5.049331109e-06
5.879951596e-06
7.055275419e-06
4.565080198e-06
7.816955239e-06
5.602522687e-06
4.01188862e-06
4.496139531e-06
5.948892263e-06
7.470585662e-06
4.980390442e-06
5.049331109e-06
4.980390442e-06
8.301206149e-06
2.00594431e-06
4.149769955e-06
3.389756375e-06
7.124216086e-06
5.671463354e-06
2.074884977e-06
5.118271776e-06
8.439087484e-06
4.496139531e-06
4.496139531e-06
5.948892263e-06
6.086773598e-06
3.874007286e-06
2.559135888e-06
8.370146817e-06
4.496139531e-06
2.974446132e-06
3.942947953e-06
3.596578377e-06
4.565080198e-06
4.01188862e-06
4.980390442e-06
4.427198864e-06
4.496139531e-06
5.53358202e-06
4.01188862e-06
2.974446132e-06
1.452752732e-06
5.464641352e-06
3.52763771e-06
6.433143174e-06
2.490195221e-06
5.464641352e-06
3.52763771e-06
4.565080198e-06
3.389756375e-06
1.937003643e-06
6.01783293e-06
6.986334752e-06
4.980390442e-06
7.470585662e-06
4.01188862e-06
4.427198864e-06
4.496139531e-06
1.452752732e-06
6.986334752e-06
4.980390442e-06
5.395700685e-06
6.502083841e-06
1.521693399e-06
3.942947953e-06
5.671463354e-06
5.049331109e-06
7.055275419e-06
4.496139531e-06
7.193156754e-06
4.01188862e-06
4.496139531e-06
3.52763771e-06
4.080829287e-06
2.559135888e-06
6.086773598e-06
3.52763771e-06
7.055275419e-06
4.702961533e-06
3.942947953e-06
4.702961533e-06
7.055275419e-06
3.458697042e-06
4.427198864e-06
3.874007286e-06
4.911449774e-06
3.942947953e-06
5.879951596e-06
5.53358202e-06
5.602522687e-06
4.496139531e-06
3.52763771e-06
5.948892263e-06
4.01188862e-06
5.395700685e-06
4.01188862e-06
6.917394084e-06
5.879951596e-06
2.074884977e-06
5.879951596e-06
2.421254554e-06
5.879951596e-06
5.602522687e-06
3.458697042e-06
4.358258196e-06
4.980390442e-06
3.596578377e-06
3.942947953e-06
7.055275419e-06
1.521693399e-06
4.496139531e-06
4.980390442e-06
7.124216086e-06
4.496139531e-06
2.974446132e-06
6.986334752e-06
2.074884977e-06
5.53358202e-06
4.427198864e-06
6.364202506e-06
5.464641352e-06
4.496139531e-06
5.948892263e-06
4.634020865e-06
4.980390442e-06
2.905505464e-06
4.358258196e-06
3.043386799e-06
3.043386799e-06
3.458697042e-06
3.458697042e-06
3.458697042e-06
5.049331109e-06
5.53358202e-06
1.452752732e-06
3.389756375e-06
5.948892263e-06
6.086773598e-06
4.496139531e-06
4.218710622e-06
5.53358202e-06
4.634020865e-06
4.980390442e-06
4.565080198e-06
4.496139531e-06
6.01783293e-06
2.421254554e-06
4.427198864e-06
7.954836573e-06
6.155714265e-06
4.565080198e-06
5.53358202e-06
6.848453417e-06
3.942947953e-06
3.874007286e-06
5.464641352e-06
6.01783293e-06
4.01188862e-06
4.427198864e-06
4.01188862e-06
3.596578377e-06
6.01783293e-06
7.055275419e-06
5.395700685e-06
6.086773598e-06
6.01783293e-06
5.395700685e-06
3.52763771e-06
2.490195221e-06
8.992279062e-06
3.52763771e-06
3.52763771e-06
5.879951596e-06
6.086773598e-06
5.464641352e-06
2.559135888e-06
4.911449774e-06
4.842509107e-06
5.602522687e-06
5.53358202e-06
2.421254554e-06
2.974446132e-06
4.496139531e-06
7.055275419e-06
4.911449774e-06
5.049331109e-06
3.043386799e-06
2.490195221e-06
4.911449774e-06
5.811010928e-06
1.45773735e-05
1.181141141e-05
1.527193026e-05
1.601580308e-05
1.42737604e-05
1.106753729e-05
1.397031378e-05
1.253941167e-05
1.563935691e-05
1.405234402e-05
9.996104366e-06
9.505868014e-06
9.008843152e-06
1.19054772e-05
1.348791279e-05
1.264861405e-05
9.409730694e-06
1.428848443e-05
1.321722989e-05
1.116851564e-05
3.401777319e-06
6.919997477e-06
1.02046679e-05
8.575520008e-06
6.137648213e-06
8.840049875e-06
8.396267777e-06
1.07159243e-05
1.336359667e-05
1.294304221e-05
7.913861312e-06
3.425168305e-06
4.644707946e-06
1.126808007e-05
6.208776332e-06
7.330604163e-06
1.252226055e-05
1.217436298e-05
1.402578475e-05
1.242524925e-05
6.039173707e-06
3.494829175e-06
4.644707946e-06
9.495446029e-06
3.710696357e-06
5.606265324e-06
8.830858115e-06
7.873461556e-06
6.902232903e-06
8.726982678e-06
5.414835221e-06
5.452068205e-06
1.970790395e-06
2.551295621e-06
7.70762432e-06
6.252675974e-06
6.876073407e-06
8.383827277e-06
1.358314683e-05
5.769438403e-06
3.956930656e-06
2.585870533e-06
6.475211972e-06
6.306753278e-06
6.137648213e-06
3.665302084e-06
4.704865347e-06
7.070705648e-06
9.618862266e-06
7.691396763e-06
5.969988558e-06
4.543109566e-06
5.489816774e-06
6.732253727e-06
6.066520078e-06
7.618859602e-06
4.125992768e-06
5.686681584e-06
8.224840278e-06
7.470249063e-06
4.581269141e-06
7.198640969e-06
5.419673585e-06
1.559030263e-06
5.13841622e-06
3.162153511e-06
7.310663743e-06
5.831998623e-06
7.416285416e-06
7.396533163e-06
3.956930658e-06
5.521729082e-06
5.700246329e-06
9.14228491e-06
5.495775959e-06
7.762121695e-06
3.547120189e-06
5.831998623e-06
5.433258737e-06
5.916870199e-06
5.969988558e-06
7.059319223e-06
6.755784708e-06
5.528091704e-06
4.068056097e-06
3.593671038e-06
4.777006467e-06
5.248974367e-06
3.671551012e-06
7.543964963e-06
6.941924935e-06
6.150360586e-06
4.644707946e-06
4.535826341e-06
4.567672093e-06
7.762121695e-06
5.067314574e-06
4.300901451e-06
7.26991867e-06
5.177929567e-06
1.943872754e-06
4.053799817e-06
4.011723991e-06
4.535826344e-06
4.709928328e-06
9.199936345e-06
7.889536311e-06
4.811267116e-06
4.626472637e-06
5.325361345e-06
3.540147604e-06
5.171741035e-06
5.630103102e-06
2.976796071e-06
1.49884799e-06
2.659004935e-06
3.256812085e-06
3.645218647e-06
7.930337899e-06
5.028716055e-06
3.470962486e-06
5.171741081e-06
4.644707943e-06
4.039693677e-06
3.639568255e-06
4.168450672e-06
4.63272423e-06
8.01877864e-06
9.399312121e-06
4.80756839e-06
4.164486096e-06
3.564490058e-06
6.052657595e-06
5.102591264e-06
5.067288093e-06
3.090522482e-06
4.198133897e-06
4.883925635e-06
4.699656027e-06
4.881284291e-06
7.358707965e-06
6.011038811e-06
3.096471941e-06
4.465194106e-06
6.066520087e-06
5.174747783e-06
4.198133897e-06
5.39429144e-06
5.800944489e-06
3.180473627e-06
3.19254972e-06
3.494829185e-06
4.011724001e-06
3.614193194e-06
4.567672065e-06
8.9116809e-06
4.198133868e-06
5.759340096e-06
4.992389624e-06
6.508379054e-06
6.455956781e-06
7.757611621e-06
7.53075035e-06
4.039693677e-06
6.137648213e-06
4.599968169e-06
5.139455687e-06
5.248974363e-06
6.461363744e-06
5.843154341e-06
4.164486096e-06
3.005519426e-06
8.446002362e-06
5.66935613e-06
4.638800223e-06
4.74323029e-06
6.659650055e-06
3.207511433e-06
1.005973142e-05
1.627094764e-06
5.484020362e-06
6.570009439e-06
4.574564758e-06
4.465194137e-06
4.0680561e-06
1.581076752e-06
4.198133897e-06
4.082925888e-06
3.891101195e-06
6.878740208e-06
4.442898838e-06
2.446548777e-06
5.419673585e-06
5.102591264e-06
)
;

boundaryField
{
    flow
    {
        type            zeroGradient;
    }
    obstacle
    {
        type            calculated;
        value           nonuniform List<scalar> 10(6.990943197e-24 3.526926467e-24 8.243355018e-23 8.886777219e-24 6.872168117e-24 5.705786276e-24 1e-300 1.497189933e-24 1.647932967e-23 7.194643676e-24);
    }
    frontAndBack
    {
        type            empty;
    }
    procBoundary0to1
    {
        type            processor;
        value           nonuniform List<scalar> 
21
(
1.653872131e-05
1.221929781e-05
1.192047823e-05
1.281514224e-05
1.192047823e-05
1.065453315e-05
7.972335793e-06
1.199473444e-05
3.799630003e-06
8.046592009e-06
1.042996977e-05
5.438650908e-06
3.129529336e-06
7.376491332e-06
3.725373801e-06
4.469730644e-06
1.564764668e-06
5.885982922e-06
4.172705811e-06
6.63033975e-06
6.929159375e-06
)
;
    }
    procBoundary0to2
    {
        type            processor;
        value           nonuniform List<scalar> 
31
(
2.974446132e-06
5.049331109e-06
5.118271776e-06
4.01188862e-06
4.427198864e-06
4.496139531e-06
2.974446132e-06
4.427198864e-06
5.53358202e-06
3.942947953e-06
6.155714265e-06
5.118271776e-06
5.879951596e-06
6.502083841e-06
5.326760018e-06
4.702961533e-06
5.602522687e-06
3.458697042e-06
5.049331109e-06
3.942947953e-06
5.351800601e-06
2.155856365e-06
2.750080633e-06
4.300901418e-06
4.185603542e-06
7.543964963e-06
4.37371369e-06
8.177260506e-06
6.052657554e-06
5.351800601e-06
4.110325872e-06
)
;
    }
}


// ************************************************************************* //
