/*--------------------------------*- C++ -*----------------------------------*\
| =========                 |                                                 |
| \\      /  F ield         | OpenFOAM: The Open Source CFD Toolbox           |
|  \\    /   O peration     | Version:  2406                                  |
|   \\  /    A nd           | Website:  www.openfoam.com                      |
|    \\/     M anipulation  |                                                 |
\*---------------------------------------------------------------------------*/
FoamFile
{
    version     2.0;
    format      ascii;
    arch        "LSB;label=32;scalar=64";
    class       volScalarField;
    location    "0.011";
    object      rhoN;
}
// * * * * * * * * * * * * * * * * * * * * * * * * * * * * * * * * * * * * * //

dimensions      [0 -3 0 0 0 0 0];

internalField   nonuniform List<scalar> 
654
(
8.331198464e+19
7.289798656e+19
8.331198464e+19
1.666239693e+20
8.331198464e+19
8.331198464e+19
1.562099712e+20
8.331198464e+19
9.372598272e+19
8.331198464e+19
9.372598272e+19
9.372598272e+19
4.165599232e+19
1.041399808e+20
1.145539789e+20
4.165599232e+19
1.35381975e+20
7.289798656e+19
1.35381975e+20
1.457959731e+20
6.248398848e+19
1.24967977e+20
9.372598272e+19
1.041399808e+20
7.289798656e+19
7.289798656e+19
1.145539789e+20
1.24967977e+20
7.289798656e+19
1.145539789e+20
1.666239693e+20
5.20699904e+19
1.562099712e+20
1.24967977e+20
1.35381975e+20
1.24967977e+20
1.24967977e+20
1.041399808e+20
1.24967977e+20
1.041399808e+20
5.20699904e+19
7.289798656e+19
6.248398848e+19
1.24967977e+20
1.041399808e+20
8.331198464e+19
1.35381975e+20
1.145539789e+20
8.331198464e+19
7.289798656e+19
7.289798656e+19
1.145539789e+20
1.562099712e+20
1.145539789e+20
9.372598272e+19
9.372598272e+19
1.457959731e+20
9.372598272e+19
9.372598272e+19
1.35381975e+20
8.331198464e+19
1.35381975e+20
9.372598272e+19
1.35381975e+20
7.289798656e+19
8.331198464e+19
4.165599232e+19
5.20699904e+19
1.041399808e+20
1.24967977e+20
8.331198464e+19
5.20699904e+19
9.372598272e+19
1.35381975e+20
7.289798656e+19
9.372598272e+19
1.457959731e+20
1.24967977e+20
9.372598272e+19
1.457959731e+20
1.041399808e+20
8.331198464e+19
1.145539789e+20
8.331198464e+19
9.372598272e+19
8.331198464e+19
7.289798656e+19
1.145539789e+20
8.331198464e+19
9.372598272e+19
9.372598272e+19
8.331198464e+19
8.331198464e+19
7.289798656e+19
5.20699904e+19
1.041399808e+20
1.35381975e+20
1.666239693e+20
1.24967977e+20
5.20699904e+19
5.20699904e+19
1.35381975e+20
1.562099712e+20
8.331198464e+19
9.372598272e+19
5.20699904e+19
1.35381975e+20
6.248398848e+19
7.289798656e+19
1.35381975e+20
3.124199424e+19
1.145539789e+20
2.082799616e+19
1.457959731e+20
1.041399808e+20
7.289798656e+19
1.145539789e+20
7.289798656e+19
1.145539789e+20
1.041399808e+20
1.145539789e+20
5.20699904e+19
6.248398848e+19
6.248398848e+19
1.145539789e+20
1.145539789e+20
1.35381975e+20
1.24967977e+20
1.35381975e+20
8.331198464e+19
1.145539789e+20
1.562099712e+20
9.372598272e+19
1.35381975e+20
9.372598272e+19
8.331198464e+19
7.289798656e+19
1.041399808e+20
1.35381975e+20
1.24967977e+20
8.331198464e+19
7.289798656e+19
1.24967977e+20
1.145539789e+20
9.372598272e+19
1.35381975e+20
1.041399808e+20
1.35381975e+20
6.248398848e+19
9.372598272e+19
1.35381975e+20
1.041399808e+20
9.372598272e+19
8.331198464e+19
9.372598272e+19
4.165599232e+19
6.248398848e+19
7.289798656e+19
1.562099712e+20
6.248398848e+19
6.248398848e+19
8.331198464e+19
1.145539789e+20
1.35381975e+20
1.145539789e+20
9.372598272e+19
8.331198464e+19
1.562099712e+20
1.145539789e+20
9.372598272e+19
1.457959731e+20
1.041399808e+20
1.24967977e+20
9.372598272e+19
1.041399808e+20
1.041399808e+20
1.24967977e+20
9.372598272e+19
7.289798656e+19
1.145539789e+20
8.331198464e+19
9.372598272e+19
6.248398848e+19
1.24967977e+20
9.372598272e+19
7.289798656e+19
1.24967977e+20
6.248398848e+19
8.331198464e+19
9.372598272e+19
1.457959731e+20
1.145539789e+20
9.372598272e+19
5.20699904e+19
6.248398848e+19
9.372598272e+19
1.041399808e+20
1.457959731e+20
1.145539789e+20
5.20699904e+19
8.331198464e+19
1.24967977e+20
4.165599232e+19
1.041399808e+20
1.145539789e+20
7.289798656e+19
9.372598272e+19
1.35381975e+20
1.666239693e+20
7.289798656e+19
6.248398848e+19
8.331198464e+19
7.289798656e+19
7.289798656e+19
9.372598272e+19
9.372598272e+19
6.248398848e+19
1.145539789e+20
1.666239693e+20
8.331198464e+19
9.372598272e+19
6.248398848e+19
1.24967977e+20
9.372598272e+19
1.145539789e+20
1.145539789e+20
6.248398848e+19
1.24967977e+20
1.457959731e+20
1.145539789e+20
1.24967977e+20
1.457959731e+20
1.041399808e+20
1.24967977e+20
1.041399808e+20
1.041399808e+20
1.145539789e+20
9.372598272e+19
9.372598272e+19
1.145539789e+20
6.248398848e+19
1.35381975e+20
1.041399808e+20
9.372598272e+19
8.331198464e+19
8.331198464e+19
1.041399808e+20
9.372598272e+19
7.289798656e+19
7.289798656e+19
1.041399808e+20
1.24967977e+20
1.457959731e+20
9.372598272e+19
1.666239693e+20
1.145539789e+20
8.331198464e+19
9.372598272e+19
1.24967977e+20
1.562099712e+20
1.041399808e+20
1.041399808e+20
1.041399808e+20
1.770379674e+20
4.165599232e+19
8.331198464e+19
7.289798656e+19
1.457959731e+20
1.145539789e+20
4.165599232e+19
1.041399808e+20
1.770379674e+20
9.372598272e+19
9.372598272e+19
1.24967977e+20
1.24967977e+20
8.331198464e+19
5.20699904e+19
1.770379674e+20
9.372598272e+19
6.248398848e+19
8.331198464e+19
7.289798656e+19
9.372598272e+19
8.331198464e+19
1.041399808e+20
9.372598272e+19
9.372598272e+19
1.145539789e+20
8.331198464e+19
6.248398848e+19
3.124199424e+19
1.145539789e+20
7.289798656e+19
1.35381975e+20
5.20699904e+19
1.145539789e+20
7.289798656e+19
9.372598272e+19
7.289798656e+19
4.165599232e+19
1.24967977e+20
1.457959731e+20
1.041399808e+20
1.562099712e+20
8.331198464e+19
9.372598272e+19
9.372598272e+19
3.124199424e+19
1.457959731e+20
1.041399808e+20
1.145539789e+20
1.35381975e+20
3.124199424e+19
8.331198464e+19
1.145539789e+20
1.041399808e+20
1.457959731e+20
9.372598272e+19
1.457959731e+20
8.331198464e+19
9.372598272e+19
7.289798656e+19
8.331198464e+19
5.20699904e+19
1.24967977e+20
7.289798656e+19
1.457959731e+20
9.372598272e+19
8.331198464e+19
9.372598272e+19
1.457959731e+20
7.289798656e+19
9.372598272e+19
8.331198464e+19
1.041399808e+20
8.331198464e+19
1.24967977e+20
1.145539789e+20
1.145539789e+20
9.372598272e+19
7.289798656e+19
1.24967977e+20
8.331198464e+19
1.145539789e+20
8.331198464e+19
1.457959731e+20
1.24967977e+20
4.165599232e+19
1.24967977e+20
5.20699904e+19
1.24967977e+20
1.145539789e+20
7.289798656e+19
9.372598272e+19
1.041399808e+20
7.289798656e+19
8.331198464e+19
1.457959731e+20
3.124199424e+19
9.372598272e+19
1.041399808e+20
1.457959731e+20
9.372598272e+19
6.248398848e+19
1.457959731e+20
4.165599232e+19
1.145539789e+20
9.372598272e+19
1.35381975e+20
1.145539789e+20
9.372598272e+19
1.24967977e+20
9.372598272e+19
1.041399808e+20
6.248398848e+19
9.372598272e+19
6.248398848e+19
6.248398848e+19
7.289798656e+19
7.289798656e+19
7.289798656e+19
1.041399808e+20
1.145539789e+20
3.124199424e+19
7.289798656e+19
1.24967977e+20
1.24967977e+20
9.372598272e+19
8.331198464e+19
1.145539789e+20
9.372598272e+19
1.041399808e+20
9.372598272e+19
9.372598272e+19
1.24967977e+20
5.20699904e+19
9.372598272e+19
1.666239693e+20
1.24967977e+20
9.372598272e+19
1.145539789e+20
1.457959731e+20
8.331198464e+19
8.331198464e+19
1.145539789e+20
1.24967977e+20
8.331198464e+19
9.372598272e+19
8.331198464e+19
7.289798656e+19
1.24967977e+20
1.457959731e+20
1.145539789e+20
1.24967977e+20
1.24967977e+20
1.145539789e+20
7.289798656e+19
5.20699904e+19
1.874519654e+20
7.289798656e+19
7.289798656e+19
1.24967977e+20
1.24967977e+20
1.145539789e+20
5.20699904e+19
1.041399808e+20
1.041399808e+20
1.145539789e+20
1.145539789e+20
5.20699904e+19
6.248398848e+19
9.372598272e+19
1.457959731e+20
1.041399808e+20
1.041399808e+20
6.248398848e+19
5.20699904e+19
1.041399808e+20
1.24967977e+20
3.030769347e+20
2.420241812e+20
3.178694185e+20
3.3075512e+20
3.008440407e+20
2.272283867e+20
2.942311676e+20
2.634145718e+20
3.205918926e+20
2.895186412e+20
2.090185757e+20
1.999330192e+20
1.907216512e+20
2.453989601e+20
2.793551807e+20
2.59689585e+20
1.961541118e+20
2.963413935e+20
2.763723212e+20
2.338419794e+20
7.315650148e+19
1.473190668e+20
2.119129457e+20
1.813818401e+20
1.289331604e+20
1.839467892e+20
1.743592104e+20
2.195121433e+20
2.763723212e+20
2.672479765e+20
1.672148605e+20
7.365953343e+19
9.536082561e+19
2.347294399e+20
1.289331602e+20
1.514855911e+20
2.615388158e+20
2.524389648e+20
2.984821069e+20
2.561126441e+20
1.254111454e+20
7.365953338e+19
9.536082561e+19
1.920513602e+20
7.521101025e+19
1.190243931e+20
1.852566612e+20
1.646341075e+20
1.437136071e+20
1.781653178e+20
1.149602166e+20
1.157506953e+20
4.238258913e+19
5.334759998e+19
1.611664503e+20
1.298447923e+20
1.416668584e+20
1.756097144e+20
2.76372321e+20
1.22488656e+20
8.360743026e+19
5.261395242e+19
1.377434148e+20
1.280342401e+20
1.289331604e+20
7.574279562e+19
9.807705592e+19
1.426828931e+20
1.989880713e+20
1.55894653e+20
1.254111454e+20
9.470511441e+19
1.165521202e+20
1.387037599e+20
1.289331602e+20
1.623059905e+20
8.717960526e+19
1.207316788e+20
1.768782856e+20
1.55894653e+20
9.405835905e+19
1.473190668e+20
1.165521201e+20
3.200856001e+19
1.074443004e+20
6.49223962e+19
1.525643091e+20
1.207316788e+20
1.547684999e+20
1.55894653e+20
8.360743032e+19
1.157506954e+20
1.165521202e+20
1.920513601e+20
1.181887303e+20
1.623059906e+20
7.628215461e+19
1.207316788e+20
1.105489285e+20
1.224886559e+20
1.254111454e+20
1.473190668e+20
1.377434147e+20
1.1736472e+20
8.595544022e+19
7.574279557e+19
9.807705585e+19
1.097560716e+20
7.738424993e+19
1.55894653e+20
1.46313003e+20
1.262734859e+20
9.536082561e+19
9.602567996e+19
9.669987025e+19
1.623059906e+20
1.08974507e+20
8.780485788e+19
1.547685006e+20
1.11353324e+20
4.180371513e+19
8.418232409e+19
8.476517861e+19
9.602568003e+19
9.669986985e+19
1.947671883e+20
1.634617595e+20
9.878046365e+19
9.94940352e+19
1.113533235e+20
7.315650124e+19
1.052279042e+20
1.165521193e+20
6.40171198e+19
3.223329011e+19
5.410199672e+19
6.538470358e+19
7.682925005e+19
1.65823392e+20
1.002179905e+20
7.315650187e+19
1.052279051e+20
9.536082555e+19
8.535616032e+19
7.521101076e+19
8.656319536e+19
9.807705606e+19
1.646341084e+20
1.989880718e+20
1.002179912e+20
8.360743015e+19
7.365953358e+19
1.271477683e+20
1.066952004e+20
1.074443004e+20
6.492239652e+19
8.717960539e+19
9.878046365e+19
9.94940352e+19
1.002179912e+20
1.567639315e+20
1.262734853e+20
6.357388327e+19
9.60256797e+19
1.289331604e+20
1.082039934e+20
8.717960539e+19
1.097560723e+20
1.216038217e+20
6.681199412e+19
6.270557261e+19
7.365953358e+19
8.476517884e+19
7.468663977e+19
9.669986965e+19
1.839467889e+20
8.717960478e+19
1.207316786e+20
9.949403591e+19
1.336239882e+20
1.358620749e+20
1.578418577e+20
1.589347092e+20
8.535616032e+19
1.289331604e+20
9.73835941e+19
1.089745067e+20
1.097560715e+20
1.326587136e+20
1.224886568e+20
8.360743015e+19
6.313674307e+19
1.801260038e+20
1.173647196e+20
9.669987032e+19
9.738359478e+19
1.416668588e+20
6.58536429e+19
2.100429647e+20
3.340599706e+19
1.149602165e+20
1.367962757e+20
9.536082555e+19
9.602568036e+19
8.595544028e+19
3.246119803e+19
8.717960539e+19
8.780485781e+19
7.738425015e+19
1.447593206e+20
9.405835892e+19
5.26139522e+19
1.165521201e+20
1.066952004e+20
)
;

boundaryField
{
    flow
    {
        type            zeroGradient;
    }
    obstacle
    {
        type            calculated;
        value           nonuniform List<scalar> 10(150.3428644 75.84788101 1572.555044 191.1134886 147.7885617 107.4131453 1e-300 32.19763297 354.3941866 142.4326679);
    }
    frontAndBack
    {
        type            empty;
    }
    procBoundary0to1
    {
        type            processor;
        value           nonuniform List<scalar> 
21
(
3.365085317e+20
2.579898745e+20
2.467729232e+20
2.692068253e+20
2.467729232e+20
2.243390214e+20
1.682542658e+20
2.467729232e+20
7.851865745e+19
1.682542658e+20
2.131220701e+20
1.12169511e+20
6.730170614e+19
1.570373143e+20
7.851865773e+19
8.973560819e+19
3.365085307e+19
1.233864621e+20
8.973560883e+19
1.346034123e+20
1.458203644e+20
)
;
    }
    procBoundary0to2
    {
        type            processor;
        value           nonuniform List<scalar> 
31
(
6.248398848e+19
1.041399808e+20
1.041399808e+20
8.331198464e+19
9.372598272e+19
9.372598272e+19
6.248398848e+19
9.372598272e+19
1.145539789e+20
8.331198464e+19
1.24967977e+20
1.041399808e+20
1.24967977e+20
1.35381975e+20
1.145539789e+20
9.372598272e+19
1.145539789e+20
7.289798656e+19
1.041399808e+20
8.331198464e+19
1.074443004e+20
4.328159738e+19
5.448725299e+19
8.78048572e+19
8.843914303e+19
1.55894653e+20
9.405835892e+19
1.683646482e+20
1.271477674e+20
1.074443004e+20
8.535615974e+19
)
;
    }
}


// ************************************************************************* //
