/*--------------------------------*- C++ -*----------------------------------*\
| =========                 |                                                 |
| \\      /  F ield         | OpenFOAM: The Open Source CFD Toolbox           |
|  \\    /   O peration     | Version:  2406                                  |
|   \\  /    A nd           | Website:  www.openfoam.com                      |
|    \\/     M anipulation  |                                                 |
\*---------------------------------------------------------------------------*/
FoamFile
{
    version     2.0;
    format      ascii;
    arch        "LSB;label=32;scalar=64";
    class       volScalarField;
    location    "0.011";
    object      rhoNMean;
}
// * * * * * * * * * * * * * * * * * * * * * * * * * * * * * * * * * * * * * //

dimensions      [0 -3 0 0 0 0 0];

internalField   nonuniform List<scalar> 
654
(
7.642549173e+19
9.829299424e+19
9.875310361e+19
9.87038738e+19
9.89310883e+19
9.883452214e+19
9.857890582e+19
9.891783412e+19
9.849938075e+19
9.82324037e+19
9.8612988e+19
9.861109454e+19
9.866600472e+19
9.880801378e+19
9.911854027e+19
9.975474088e+19
9.979071651e+19
1.015535224e+20
1.074213369e+20
1.362965134e+20
7.712796323e+19
9.918859807e+19
1.001107103e+20
9.96960438e+19
9.948776384e+19
9.985509395e+19
9.982858559e+19
9.980965105e+19
9.972633907e+19
9.969036344e+19
9.98115445e+19
1.001410055e+20
1.004496386e+20
1.00822649e+20
1.008302229e+20
1.01714466e+20
1.027823741e+20
1.057569907e+20
1.12357572e+20
1.299780568e+20
7.764676968e+19
1.002299979e+20
1.002072764e+20
9.989485649e+19
1.001239644e+20
1.000823085e+20
1.003833677e+20
1.000122506e+20
1.003133099e+20
1.000501197e+20
1.004231302e+20
1.000255048e+20
9.950480492e+19
9.994597975e+19
1.001410055e+20
1.00142899e+20
1.01218381e+20
1.034640176e+20
1.081578906e+20
1.188843086e+20
7.780771329e+19
9.963166636e+19
1.00659812e+20
1.005196964e+20
9.991189758e+19
9.978124924e+19
9.969983071e+19
9.973201943e+19
9.949155074e+19
9.986266777e+19
9.946693584e+19
9.98077576e+19
1.001523663e+20
9.941959949e+19
9.972444561e+19
9.962219908e+19
1.00330351e+20
1.022881826e+20
1.05908467e+20
1.137947037e+20
7.759564642e+19
9.95142722e+19
9.914315517e+19
9.927948387e+19
9.957486273e+19
9.968089616e+19
9.941013221e+19
9.93571155e+19
9.939498458e+19
9.928137733e+19
9.932303332e+19
9.930599223e+19
9.966574853e+19
9.971497834e+19
1.000974561e+20
1.011407493e+20
1.014171937e+20
1.031686388e+20
1.053896606e+20
1.091254457e+20
7.716961922e+19
9.906173664e+19
1.000898823e+20
9.925865588e+19
9.911285991e+19
9.903901519e+19
9.904090865e+19
9.963924017e+19
9.953699365e+19
9.978314269e+19
9.969415034e+19
9.945178821e+19
9.887428468e+19
9.885156323e+19
9.975852779e+19
9.971687179e+19
1.0047236e+20
1.015421616e+20
1.027785872e+20
1.056377031e+20
7.770167985e+19
9.983615941e+19
1.004572124e+20
1.003341379e+20
1.010801588e+20
1.008093949e+20
1.007525912e+20
1.004136629e+20
1.007904603e+20
1.012221679e+20
1.009343628e+20
1.011009868e+20
1.016349409e+20
1.009949534e+20
1.012543566e+20
1.00885133e+20
1.013755377e+20
1.018962376e+20
1.032803526e+20
1.051283639e+20
7.7406301e+19
9.944042748e+19
9.985888086e+19
9.966196162e+19
9.973580634e+19
9.980965105e+19
1.001107103e+20
1.001372186e+20
1.00122071e+20
9.976042124e+19
9.975663433e+19
9.933818095e+19
9.966006817e+19
9.990053685e+19
1.000690543e+20
1.004780404e+20
1.011237083e+20
1.016406213e+20
1.025646269e+20
1.034185747e+20
7.782664783e+19
1.003417117e+20
1.006844269e+20
1.006314102e+20
9.995355357e+19
9.982101177e+19
1.000917757e+20
1.00205383e+20
9.962219908e+19
9.953699365e+19
1.003417117e+20
1.005992214e+20
9.997248811e+19
9.983047905e+19
9.965438781e+19
1.003152033e+20
1.008453705e+20
1.012619304e+20
1.016065391e+20
1.029906541e+20
7.739683373e+19
9.861109454e+19
9.976420815e+19
9.958243655e+19
9.980965105e+19
9.997627502e+19
9.959379727e+19
9.971308489e+19
1.002243175e+20
1.002602931e+20
9.991379103e+19
9.992136485e+19
1.004420648e+20
1.002943753e+20
1.00451532e+20
1.007071483e+20
1.009381498e+20
1.006257298e+20
1.013433489e+20
1.014342348e+20
7.784179546e+19
9.99440863e+19
1.000728412e+20
9.997816847e+19
9.957296928e+19
9.937036968e+19
9.905605628e+19
9.922078679e+19
9.925676242e+19
9.94726162e+19
1.000576935e+20
9.984562668e+19
1.002224241e+20
1.0036822e+20
1.000652674e+20
9.931924641e+19
9.953131328e+19
1.004647862e+20
1.012089137e+20
1.019700823e+20
7.765623695e+19
1.002375717e+20
1.006825334e+20
1.005102291e+20
1.00989273e+20
1.009798057e+20
1.012713977e+20
1.013982591e+20
1.012997995e+20
1.005708196e+20
9.999520956e+19
9.95142722e+19
9.894244903e+19
9.980586414e+19
1.000425459e+20
1.01093413e+20
1.015364813e+20
1.011369624e+20
1.01072585e+20
1.014134068e+20
7.764487623e+19
9.982858559e+19
1.002243175e+20
1.00017931e+20
9.955403473e+19
9.94934442e+19
9.987970885e+19
9.949723111e+19
9.939309113e+19
9.951048529e+19
1.001296448e+20
1.004685731e+20
1.00722296e+20
1.006351971e+20
9.995734048e+19
1.001107103e+20
1.004780404e+20
1.007790996e+20
1.011824053e+20
1.012695042e+20
7.79478289e+19
9.993461903e+19
1.007525912e+20
1.008718789e+20
1.011861923e+20
1.011691512e+20
1.007488043e+20
1.009608712e+20
1.010498635e+20
1.008813461e+20
1.006333036e+20
1.009551908e+20
1.007241894e+20
1.007582716e+20
1.00805608e+20
1.004079826e+20
1.000008899e+20
9.952373947e+19
9.979639687e+19
1.002697604e+20
7.713553705e+19
9.973012597e+19
9.99687012e+19
9.964870744e+19
9.992136485e+19
1.003549659e+20
1.006124756e+20
1.006143691e+20
1.007071483e+20
1.008908134e+20
1.009078545e+20
1.007506978e+20
1.012240613e+20
1.005613524e+20
1.002773342e+20
9.997816847e+19
9.986077431e+19
9.986456122e+19
9.967142889e+19
9.949533765e+19
7.792132054e+19
1.000766281e+20
1.004666797e+20
1.003663266e+20
9.9605158e+19
9.967332235e+19
9.982290523e+19
9.958054309e+19
9.973201943e+19
9.954456746e+19
9.937794349e+19
9.9067417e+19
9.795595939e+19
9.837441277e+19
9.890836685e+19
9.946693584e+19
9.982669214e+19
9.986456122e+19
1.002981622e+20
9.971497834e+19
7.744795699e+19
9.871523452e+19
9.905226937e+19
9.926433624e+19
9.943285366e+19
9.962030563e+19
9.896895739e+19
9.900493302e+19
9.882316141e+19
9.873606252e+19
9.899925265e+19
9.934575477e+19
9.971876525e+19
1.00309523e+20
9.969415034e+19
9.98077576e+19
9.999142265e+19
1.002716539e+20
9.987592195e+19
1.000349721e+20
7.719044722e+19
9.955214128e+19
9.998574229e+19
1.001599401e+20
9.998384884e+19
9.953510019e+19
9.997627502e+19
9.996302084e+19
9.99440863e+19
9.99895292e+19
1.002015961e+20
9.999710302e+19
1.001921288e+20
9.99895292e+19
1.001826615e+20
9.992515176e+19
1.002072764e+20
9.981533141e+19
1.000898823e+20
9.999520956e+19
7.786262346e+19
1.003208837e+20
1.004363844e+20
9.973201943e+19
9.984752013e+19
1.002621866e+20
9.99232583e+19
1.002962688e+20
9.990621721e+19
9.983426595e+19
9.973769979e+19
9.981911832e+19
9.93116726e+19
9.955592819e+19
9.944610784e+19
9.936658277e+19
9.971876525e+19
9.956160855e+19
9.962030563e+19
9.948965729e+19
7.732677592e+19
9.959001036e+19
1.011047737e+20
1.011274952e+20
1.008908134e+20
1.008756658e+20
1.005992214e+20
1.003227771e+20
1.003701135e+20
1.003398182e+20
1.005859673e+20
1.008207556e+20
1.008529443e+20
1.004004088e+20
1.003947284e+20
1.002375717e+20
1.004761469e+20
1.006333036e+20
1.009949534e+20
1.009305759e+20
7.739494027e+19
9.911854027e+19
9.896706393e+19
9.900682647e+19
9.925676242e+19
9.957107582e+19
9.940823876e+19
9.877771851e+19
9.924350824e+19
9.956539546e+19
9.973769979e+19
9.959190382e+19
9.966006817e+19
1.003322444e+20
1.007317632e+20
1.00885133e+20
1.008188621e+20
1.008624116e+20
1.007923538e+20
1.005878607e+20
7.741955518e+19
9.962219908e+19
9.993651248e+19
9.922646716e+19
9.959758418e+19
9.929652496e+19
9.999142265e+19
1.005102291e+20
1.011256017e+20
1.007204025e+20
1.004628927e+20
1.002527193e+20
1.004704666e+20
1.004799338e+20
1.000236114e+20
1.002205306e+20
9.983994632e+19
9.980397069e+19
1.002621866e+20
1.001580466e+20
2.429194885e+20
2.785229583e+20
2.925824247e+20
3.016544892e+20
3.026315231e+20
3.070278484e+20
3.100265269e+20
3.142076861e+20
3.059532045e+20
3.067196928e+20
1.654439032e+20
1.98308683e+20
2.220500905e+20
2.386131454e+20
2.521424698e+20
2.60942784e+20
2.652459304e+20
2.709997143e+20
2.741914923e+20
2.72926996e+20
1.375646255e+20
1.60147305e+20
1.786349073e+20
1.968157857e+20
2.113741953e+20
2.256879553e+20
2.362824877e+20
2.462527135e+20
2.51938998e+20
2.556328125e+20
1.239347142e+20
1.364385015e+20
1.508955028e+20
1.675948802e+20
1.817215217e+20
1.962289262e+20
2.099582098e+20
2.206176863e+20
2.299739309e+20
2.383912688e+20
1.156936818e+20
1.249763127e+20
1.350097378e+20
1.467873765e+20
1.595313436e+20
1.710036244e+20
1.833050268e+20
1.934700208e+20
2.069616641e+20
2.196434185e+20
1.104739179e+20
1.163858892e+20
1.228228168e+20
1.318597479e+20
1.410020855e+20
1.530378265e+20
1.659186394e+20
1.767631509e+20
1.877784098e+20
1.981825962e+20
1.083913328e+20
1.125728126e+20
1.166176206e+20
1.239371444e+20
1.304451948e+20
1.388631035e+20
1.481577764e+20
1.581984105e+20
1.696242659e+20
1.799955614e+20
1.051116414e+20
1.080862774e+20
1.113872238e+20
1.161154162e+20
1.210662839e+20
1.26942958e+20
1.348569426e+20
1.432735804e+20
1.527364096e+20
1.621628328e+20
1.041292541e+20
1.059817193e+20
1.079831312e+20
1.113218919e+20
1.153834574e+20
1.201851268e+20
1.253127571e+20
1.310687052e+20
1.387750849e+20
1.47644384e+20
1.03137366e+20
1.049332668e+20
1.069717286e+20
1.085710956e+20
1.112829921e+20
1.144168703e+20
1.193449169e+20
1.235853367e+20
1.281784676e+20
1.341665826e+20
1.027953355e+20
1.034983407e+20
1.053650431e+20
1.074847445e+20
1.094896491e+20
1.113950278e+20
1.139239305e+20
1.180536306e+20
1.212500647e+20
1.264346128e+20
1.016552342e+20
1.019677531e+20
1.022576288e+20
1.036146186e+20
1.046683303e+20
1.069606315e+20
1.09136978e+20
1.127554065e+20
1.167979585e+20
1.199498006e+20
1.014861192e+20
1.022681311e+20
1.024040417e+20
1.031509795e+20
1.040060822e+20
1.056798895e+20
1.078411715e+20
1.086605056e+20
1.1034793e+20
1.143679617e+20
1.008514624e+20
1.009728704e+20
1.017625223e+20
1.022140013e+20
1.026815875e+20
1.028724876e+20
1.037060839e+20
1.058447642e+20
1.080545422e+20
1.101871498e+20
9.973796433e+19
9.985936872e+19
1.003754564e+20
1.008541232e+20
1.010621096e+20
1.027347741e+20
1.034445459e+20
1.043001977e+20
1.054355383e+20
1.068627477e+20
1.005892393e+20
1.009422595e+20
1.007761652e+20
1.008929214e+20
1.020154329e+20
1.021288318e+20
1.024974583e+20
1.031746976e+20
1.045511462e+20
1.05330121e+20
9.978546789e+19
1.002286223e+20
1.001596898e+20
1.004583803e+20
1.001752051e+20
1.006808649e+20
1.016494385e+20
1.02390442e+20
1.024406674e+20
1.044230976e+20
1.005113324e+20
9.959725557e+19
1.000441023e+20
1.000218999e+20
1.008882438e+20
1.012100808e+20
1.012908126e+20
1.01749865e+20
1.022557491e+20
1.025847555e+20
9.998498629e+19
1.008523375e+20
1.011865051e+20
1.0159129e+20
1.013746742e+20
1.009956401e+20
1.010054983e+20
1.011611733e+20
1.014155766e+20
1.024511322e+20
1.005265337e+20
1.006916258e+20
1.007588262e+20
1.003478052e+20
1.007280548e+20
1.011628652e+20
1.017068978e+20
1.021370046e+20
1.01648735e+20
1.017870607e+20
1.004771294e+20
1.005825707e+20
1.004660011e+20
1.003982437e+20
1.000345507e+20
1.001949306e+20
1.001554971e+20
1.005066287e+20
1.016628049e+20
1.018639958e+20
1.00203505e+20
9.962977989e+19
9.998823369e+19
1.003264669e+20
)
;

boundaryField
{
    flow
    {
        type            calculated;
        value           nonuniform List<scalar> 
42
(
7.642549173e+19
7.712796323e+19
7.764676968e+19
7.780771329e+19
7.759564642e+19
7.716961922e+19
7.770167985e+19
7.7406301e+19
7.782664783e+19
7.739683373e+19
7.784179546e+19
7.765623695e+19
7.764487623e+19
7.79478289e+19
7.713553705e+19
7.792132054e+19
7.744795699e+19
7.719044722e+19
7.786262346e+19
7.732677592e+19
7.739494027e+19
7.741955518e+19
7.642549173e+19
9.829299424e+19
9.875310361e+19
9.87038738e+19
9.89310883e+19
9.883452214e+19
9.857890582e+19
9.891783412e+19
9.849938075e+19
9.82324037e+19
9.8612988e+19
9.861109454e+19
9.866600472e+19
9.880801378e+19
9.911854027e+19
9.975474088e+19
9.979071651e+19
1.015535224e+20
1.074213369e+20
1.362965134e+20
)
;
    }
    obstacle
    {
        type            calculated;
        value           nonuniform List<scalar> 10(140.048366 143.7616054 148.934707 144.6035307 147.6759348 141.7566212 142.5582578 144.1925411 139.4707979 136.3834967);
    }
    frontAndBack
    {
        type            empty;
    }
    procBoundary0to1
    {
        type            processor;
        value           nonuniform List<scalar> 
21
(
3.062166455e+20
2.760614024e+20
2.579450065e+20
2.4126642e+20
2.266028058e+20
2.105462505e+20
1.902700816e+20
1.715336944e+20
1.571902733e+20
1.415538434e+20
1.324436397e+20
1.243715143e+20
1.173395049e+20
1.118289228e+20
1.094427722e+20
1.062000528e+20
1.056759153e+20
1.035243009e+20
1.030817412e+20
1.022618833e+20
1.01305384e+20
)
;
    }
    procBoundary0to2
    {
        type            processor;
        value           nonuniform List<scalar> 
31
(
7.725482466e+19
9.972255216e+19
1.005840738e+20
1.002981622e+20
1.001031365e+20
1.001694073e+20
1.002527193e+20
9.997248811e+19
9.946125548e+19
1.002299979e+20
1.003398182e+20
1.007961407e+20
1.005594589e+20
9.999142265e+19
9.998763574e+19
9.991947139e+19
1.000273983e+20
1.001883419e+20
9.946882929e+19
9.921131952e+19
1.00622564e+20
1.007300485e+20
1.006627232e+20
1.005345659e+20
1.006658546e+20
1.01256614e+20
9.938643242e+19
9.962978056e+19
9.966843779e+19
1.00622564e+20
9.908880189e+19
)
;
    }
}


// ************************************************************************* //
