/*--------------------------------*- C++ -*----------------------------------*\
| =========                 |                                                 |
| \\      /  F ield         | OpenFOAM: The Open Source CFD Toolbox           |
|  \\    /   O peration     | Version:  2406                                  |
|   \\  /    A nd           | Website:  www.openfoam.com                      |
|    \\/     M anipulation  |                                                 |
\*---------------------------------------------------------------------------*/
FoamFile
{
    version     2.0;
    format      ascii;
    arch        "LSB;label=32;scalar=64";
    class       volScalarField;
    location    "0.011";
    object      translationalT;
}
// * * * * * * * * * * * * * * * * * * * * * * * * * * * * * * * * * * * * * //

dimensions      [1 2 -2 0 0 0 0];

internalField   nonuniform List<scalar> 
654
(
290.005177
304.1509792
296.3646559
298.4628454
299.8288985
299.791326
300.0830197
299.5730589
299.0392395
298.0406305
295.9762926
297.5588887
297.4908042
304.8804136
314.0536847
330.9758059
363.1775731
452.5409054
699.7069897
1326.718819
291.1695642
305.9440389
300.9134095
301.7993314
300.0492747
300.7655521
301.0520612
301.2698853
302.3966872
301.1409845
300.6485508
302.3468651
308.9350049
313.6384392
319.6330059
340.9939654
389.0876283
497.9961289
751.6259593
1156.691692
292.0342617
308.6275939
299.4482051
300.1408441
299.4713886
299.6962303
298.2673872
300.6127709
300.4007921
300.8857939
302.05405
300.2281972
301.7107336
311.4749627
320.4899219
335.3304861
396.3881564
489.359566
685.7345698
930.4495353
287.4934422
303.8058214
298.5479585
298.6758497
296.5986759
297.7128023
297.2666597
298.2891032
299.9741144
300.2949314
303.0420253
303.1967827
305.0937841
307.5458041
321.2355124
343.2014824
376.5762261
459.5738668
581.5393154
773.5773577
290.8463541
306.7990476
298.9842271
298.3163555
301.4223871
301.8832459
302.9099812
302.7086718
301.2556245
300.3080692
299.8886331
302.1203486
304.5153871
306.5970368
312.3172989
333.5706533
363.6313926
422.5507514
506.8095258
633.4542427
290.0517156
306.3023893
301.3326731
302.175239
300.3431885
297.2129817
298.1778998
299.873159
299.0658212
302.2187663
301.4763817
301.5528208
302.5744425
303.5067174
316.2373307
331.7611098
355.6967852
409.4804672
456.2339848
545.9134661
291.5801866
305.7651174
298.3913404
299.6780937
301.6050101
302.4664455
300.2462096
298.2139495
298.7242955
301.0470531
301.2989783
301.9134544
302.8246591
303.7050654
314.6465793
324.6762286
347.9696412
371.1277068
411.6784168
474.8088235
288.7720723
305.3195254
299.1956119
302.1481958
300.4933864
301.0515804
302.2049243
301.937396
301.3643549
300.9284694
300.4123162
301.2481473
301.9882052
305.3138102
315.9476963
317.4864281
332.3125465
356.2529508
377.9582022
418.073079
293.8615984
309.8572881
300.4983012
300.2989557
299.5878953
300.6380765
300.9045993
302.6054394
301.3462886
300.0380743
301.980102
301.4047144
302.9413588
306.1291153
308.9697116
312.3739698
327.9233226
341.4460582
361.7635005
386.9925673
290.5261569
304.53501
299.3521818
299.1694891
299.1235236
300.1368224
299.4024955
298.0400573
301.3265452
301.4307754
303.6148618
303.251628
305.524844
307.2491353
306.4524202
312.8184363
319.338765
330.643362
344.3755753
369.0214195
291.7819155
305.8430203
300.2519939
300.4201359
300.2087811
299.8125619
299.2489943
301.8403264
300.522626
300.5069944
299.4205122
299.5652418
299.9823872
300.8612842
306.9765172
306.0475502
311.5248207
324.2263269
331.2826192
351.755837
291.1032306
307.6376344
300.8579377
300.7697702
300.8455581
299.5812129
299.182685
296.5695661
300.4711538
299.1429461
298.2908854
298.384431
297.2669032
300.8749266
300.8295233
307.4499825
312.7975804
320.3177058
322.6396412
336.4427877
291.0076154
308.0331651
299.6273953
301.1438471
299.8270935
300.2363231
302.2817218
303.7623037
302.5976068
301.1798793
301.7514043
301.5039704
304.1073471
303.270298
302.1260547
306.6168792
307.4192196
311.4477624
320.796503
324.9148118
289.6178876
304.590398
299.3736328
299.7538143
299.7177303
301.577132
300.1264485
299.911681
298.7892182
298.160557
300.9554308
300.5562053
299.6248479
298.1346123
300.8410539
303.3492642
305.3466209
305.556612
311.0749571
316.2423024
292.0916374
308.3923485
300.2451516
298.0562757
299.4324798
297.9374892
297.1523341
296.760308
298.1143027
298.5410807
299.0051275
300.0264378
299.8495717
299.1903873
300.7835325
304.2127511
305.7327259
306.9425109
306.1032156
309.0389913
290.1058175
305.0895701
299.6067641
299.2317349
297.9543443
298.7232057
298.9943507
299.9316521
300.0168488
300.3957301
303.1393604
300.6422652
300.6040787
302.6325811
303.4680164
303.2440582
304.325968
305.4545703
308.9600374
311.1749421
291.6593091
307.522359
298.9253268
300.6043836
301.2128441
300.6431837
300.4376519
299.36348
299.9299009
299.4498674
300.0883477
300.4097169
301.0267524
300.0381656
300.1374696
302.7564435
304.5936856
307.0009538
306.9948222
310.8461013
288.4793988
303.9730726
299.3798442
299.027681
299.5674148
300.0657988
299.3217951
298.2248106
296.0198124
295.7995224
297.0407274
296.7710164
299.4072538
299.5539025
301.7260251
300.2650732
298.8379691
301.6593798
301.755406
305.6088017
288.4744247
305.4780287
297.9961905
297.6515699
298.403594
299.1414783
301.174086
301.7080758
301.8973678
302.8888509
301.7289785
301.6728325
301.4855488
300.0490948
300.6881266
301.1684748
300.3642739
300.5904822
301.237775
299.8840381
289.8500878
304.5664517
298.6179192
298.9837432
299.124655
297.2540313
296.7130881
296.4680468
296.5903619
295.689593
297.6317159
297.3747199
299.8563901
299.3023135
300.1359486
298.9650038
299.2246321
299.4323757
301.5077709
302.6487955
291.1850226
306.4722669
297.3571993
297.863487
298.9045391
300.6417367
300.2416016
299.1221157
299.1812276
300.9225488
300.4280855
301.7169138
299.964454
298.766259
298.6608908
300.6528928
301.950642
301.8960482
300.8702632
302.0597128
289.982422
306.7333753
298.7672763
299.6401453
298.5465377
298.6531826
298.3665281
300.148215
300.4232925
299.8251143
299.5790619
299.4318306
301.7058194
302.2586057
302.3212774
300.0771653
298.4445168
300.9592529
301.0134433
302.1746557
1395.036574
1254.651489
1182.641313
1122.720798
1081.833804
1050.121848
1021.543152
977.7767013
967.6226501
945.2852158
1346.936298
1304.310439
1253.670223
1200.914323
1163.771925
1142.066895
1104.650224
1086.290907
1058.358785
1040.71723
1145.662121
1205.642838
1191.218818
1182.308835
1156.575749
1132.123766
1106.660207
1083.791134
1067.90547
1047.738117
949.8204114
1054.700074
1097.414224
1115.420877
1107.094062
1086.296415
1079.951933
1052.294255
1053.373118
1045.359628
766.3772995
887.4539289
953.7055399
1014.311501
1030.822748
1040.715743
1045.71672
1023.736405
1022.6033
1014.692301
655.8436724
758.8162056
825.7817382
899.2845782
935.18374
967.1840319
985.7949324
989.8956447
1000.506318
986.5491616
548.112849
633.7738094
692.6745902
780.3970986
821.2712951
875.8704861
901.1373625
927.6949402
941.3513935
948.7928802
473.6257674
547.9013603
594.2452547
675.912461
727.0236749
785.5384971
818.3550664
856.7669419
886.9886189
899.6177805
435.5640504
490.3640175
525.1694582
589.6286886
632.6977018
684.3532695
741.1458761
777.3543645
809.0162176
834.2622571
392.2340193
422.1118541
471.9666182
516.4759396
555.6037556
596.1770003
650.3079453
687.6200649
730.0783089
765.5116299
369.7980215
392.1217566
426.1294344
462.6203922
495.4691819
536.5319705
584.9177872
620.7638948
651.5389491
683.552342
352.874364
369.9029766
387.4192248
424.3484552
438.3191492
474.4170446
513.7047578
542.7039562
581.9315734
612.979403
337.4098937
350.5512545
367.2090978
380.3506762
397.8382022
427.8612928
455.2324308
485.329555
510.8452494
558.9821189
329.5372027
337.2701232
348.3863844
360.2598552
376.9436668
387.2182569
412.0373466
442.5334036
470.4953671
498.0574377
322.6061584
326.1004954
334.1987496
338.7307774
358.588328
371.7875841
385.7228338
409.1624752
431.7445775
453.1094275
310.8794256
318.8787008
327.7394683
334.3415987
341.0661352
355.9521667
364.5022703
379.7624662
402.3292985
417.2925059
311.084066
315.6204477
319.8558616
321.8843839
326.3853072
337.3535585
349.0285874
359.8522348
370.3616817
387.3702154
309.7193095
309.789097
312.5997354
316.5063953
317.5105271
324.796574
333.7501242
340.8964859
353.1990834
365.336902
301.8954554
310.2960507
313.4837315
315.9429744
319.7466957
322.7124673
326.9546382
333.3677543
339.1007363
350.553284
303.76058
305.3530545
309.099473
308.970092
311.5811315
315.2838392
319.2053466
324.9553092
330.938881
334.2101033
301.7452339
302.2846882
305.3006228
305.36472
307.4682333
312.3426688
315.7337738
320.4038338
327.0803482
331.2646621
298.6543771
300.9289509
303.8003333
305.9842791
)
;

boundaryField
{
    flow
    {
        type            calculated;
        value           nonuniform List<scalar> 
42
(
290.005177
291.1695642
292.0342617
287.4934422
290.8463541
290.0517156
291.5801866
288.7720723
293.8615984
290.5261569
291.7819155
291.1032306
291.0076154
289.6178876
292.0916374
290.1058175
291.6593091
288.4793988
288.4744247
289.8500878
291.1850226
289.982422
290.005177
304.1509792
296.3646559
298.4628454
299.8288985
299.791326
300.0830197
299.5730589
299.0392395
298.0406305
295.9762926
297.5588887
297.4908042
304.8804136
314.0536847
330.9758059
363.1775731
452.5409054
699.7069897
1326.718819
)
;
    }
    obstacle
    {
        type            calculated;
        value           nonuniform List<scalar> 10(1202.418207 1084.145765 984.5404868 952.9590223 900.7010994 885.7388396 874.1611973 830.6001638 819.536908 819.4299712);
    }
    frontAndBack
    {
        type            empty;
    }
    procBoundary0to1
    {
        type            processor;
        value           nonuniform List<scalar> 
21
(
930.1406492
1022.877344
1036.498811
1026.155507
1002.922944
979.1627264
954.1357804
905.3363403
854.5572599
793.8366522
714.7888224
655.0664329
587.7117664
527.612917
472.7835421
434.6907805
407.5335383
381.1884955
360.4743066
347.7570353
333.2533592
)
;
    }
    procBoundary0to2
    {
        type            processor;
        value           nonuniform List<scalar> 
31
(
288.0367179
304.1886073
298.0153308
299.5338304
299.3286517
298.8962177
299.7891215
301.2949135
299.4998588
300.4661967
302.2084455
302.4935226
301.3452371
300.2804291
298.6980967
299.5366169
299.084441
299.0251169
299.7595695
300.7686906
308.2180843
308.6141368
308.3150301
308.8708749
313.819735
319.5304945
302.1120072
303.6271984
302.4278925
308.2180843
303.7363501
)
;
    }
}


// ************************************************************************* //
