/*--------------------------------*- C++ -*----------------------------------*\
| =========                 |                                                 |
| \\      /  F ield         | OpenFOAM: The Open Source CFD Toolbox           |
|  \\    /   O peration     | Version:  2406                                  |
|   \\  /    A nd           | Website:  www.openfoam.com                      |
|    \\/     M anipulation  |                                                 |
\*---------------------------------------------------------------------------*/
FoamFile
{
    version     2.0;
    format      ascii;
    arch        "LSB;label=32;scalar=64";
    class       volVectorField;
    location    "0.011";
    object      UMean;
}
// * * * * * * * * * * * * * * * * * * * * * * * * * * * * * * * * * * * * * //

dimensions      [0 1 -1 0 0 0 0];

internalField   nonuniform List<vector> 
654
(
(1706.752799 -8.622526096 -2.416096886)
(1744.091609 -7.502864003 -3.384702642)
(1737.321097 -8.912928215 -2.598525381)
(1738.572978 -8.620225364 -1.978438471)
(1736.476381 -8.54576267 -2.273501535)
(1737.366696 -9.232249809 -1.976962337)
(1738.404928 -7.608981451 -0.7068061857)
(1737.583596 -7.89312313 -2.645942855)
(1736.971597 -6.4287069 -0.5020941849)
(1735.110299 -4.61129859 -0.3455293764)
(1735.988883 -4.807048663 -0.2255144215)
(1734.185507 -4.424219479 -1.45609119)
(1734.143943 -5.088755089 -1.446375229)
(1732.643708 -6.32674853 -2.111316529)
(1728.4713 -5.202453626 -2.533855831)
(1723.384638 -8.130531641 -2.008463008)
(1710.858412 -9.013902867 -0.07461984996)
(1672.574454 -15.26434425 -0.6339490539)
(1565.267969 -20.67610152 -2.131102319)
(1187.14702 10.14910904 2.909075313)
(1710.65281 -2.534699474 1.806917434)
(1746.576417 -3.651726837 1.450294928)
(1735.918775 -1.919937455 2.155813213)
(1735.193702 -2.685522889 0.06101169529)
(1735.570646 -0.4551505785 -0.6514027311)
(1734.674874 -1.7411538 -2.231632271)
(1733.332802 -1.94786454 -4.341125233)
(1733.264999 -1.695786236 -2.612909185)
(1735.676229 -1.35202051 -1.636015379)
(1737.927332 -2.356241389 -0.6606633402)
(1739.810721 -3.014546402 -0.6825208718)
(1738.772871 -2.564499645 -0.3548261703)
(1737.129741 -3.163748464 0.6042564365)
(1733.590501 -3.633852404 -0.3467786761)
(1731.079235 -2.294339392 -0.8121691214)
(1723.406224 -2.536337118 -1.605400558)
(1704.42967 -1.95546211 -0.5679179123)
(1659.550661 1.543024828 -0.9141488283)
(1546.338985 15.00013958 -1.874737743)
(1307.267833 68.35399384 1.178169004)
(1709.869744 0.7848578626 3.540443651)
(1746.137401 -1.080922714 2.949747178)
(1738.265911 -2.702967489 0.8591648008)
(1737.03867 -3.80880104 0.6259636593)
(1737.01712 -5.461251204 1.68835389)
(1736.784973 -3.864099555 1.900982462)
(1738.29932 -1.436368203 3.007166524)
(1739.517767 -0.9109771789 2.215058902)
(1737.235318 -0.969812173 0.6637380132)
(1735.977963 -1.831150588 0.5848634739)
(1734.548538 -3.427235235 -0.1570245159)
(1734.393223 -4.919173677 -1.311376613)
(1734.010574 -3.658651639 -1.580374416)
(1729.885788 -2.246947129 -1.622874394)
(1727.237166 -2.766576376 -2.797444022)
(1721.107893 -0.4268306643 -1.044239447)
(1699.727855 1.706270019 -0.6208210794)
(1664.082762 8.311606917 -1.650103108)
(1576.240339 28.98003217 0.5545376265)
(1440.422193 66.99575945 1.354402705)
(1708.368731 -3.457100465 0.009861620071)
(1743.018346 -3.086472479 0.5268123954)
(1734.112602 -2.208213851 1.991171475)
(1734.781353 -0.7480271861 2.170671213)
(1738.399623 0.9506404574 1.479465376)
(1739.654814 0.09527443879 1.360861085)
(1739.63888 -2.491693297 0.08144075376)
(1738.406928 -3.834421987 -1.015237027)
(1737.999985 -3.314098686 0.08543969582)
(1737.025058 -1.106389369 -0.01839077151)
(1735.891588 0.6673003657 0.2560096074)
(1735.689211 2.749697117 -0.7581478671)
(1735.64748 3.460366191 -0.6492090263)
(1733.319431 2.053291222 1.508558225)
(1727.20195 1.951778088 1.09965823)
(1718.81076 -0.1375358378 -0.1972395193)
(1704.521015 3.623233184 -0.5363432822)
(1673.207872 10.2343593 1.068982764)
(1621.96315 24.00725348 0.7175918094)
(1526.392217 56.15242402 -1.121772234)
(1707.05785 -1.792046609 0.2383159482)
(1744.396604 -2.034488114 1.39421145)
(1738.388359 -1.2344337 0.7047279238)
(1739.043193 -0.6538474066 0.8816252239)
(1737.609162 -1.176604098 1.594044405)
(1735.397651 -1.355556522 0.8242806556)
(1735.593979 0.8852933985 2.513058399)
(1735.962556 1.629286041 2.755400231)
(1736.771497 1.331562678 0.7337273422)
(1738.575523 0.4822832043 0.4260346896)
(1737.92094 -1.099946974 2.354554492)
(1735.00837 -0.269006126 3.73061659)
(1734.022724 -1.164447548 1.752225293)
(1732.918197 -0.1460189698 1.241560245)
(1731.79397 1.630366992 1.174135378)
(1723.826525 3.891015662 0.3407511583)
(1710.135903 6.103911239 1.021733086)
(1686.251398 11.15862566 1.037267229)
(1647.281643 23.07383743 -0.1114984299)
(1589.669583 48.89830518 1.714257017)
(1710.500872 3.25699536 -1.007901787)
(1748.134703 2.888838714 -0.2893031943)
(1737.545947 1.746530973 0.8535658688)
(1735.671383 0.3014846856 -0.973727183)
(1736.81752 1.337253401 0.1813026324)
(1736.421277 -1.057123156 0.8470030137)
(1735.558369 -1.292011934 -0.08025605934)
(1736.087733 -1.031336488 -0.6053008319)
(1734.604863 0.0370103768 1.19450935)
(1734.642439 1.007197069 1.419403255)
(1734.910285 1.749607844 1.077617157)
(1736.68277 0.4052584277 -0.9798053041)
(1736.627804 -1.123820226 -0.4212063095)
(1737.623526 -2.961895742 0.04944754293)
(1732.410358 0.6798241087 0.6058591473)
(1725.31319 1.218229008 0.6329871806)
(1714.976176 6.081374088 -0.1189236975)
(1693.290585 12.18695593 -0.5210274536)
(1671.251633 19.43430305 0.1671500008)
(1633.395345 39.24706318 1.52587218)
(1708.569434 -0.2232164647 -2.812379393)
(1745.58866 0.2063725902 -3.246521165)
(1736.328069 0.9019132428 -3.0932199)
(1735.896862 0.6756630524 -3.659651856)
(1734.995125 0.3363985167 -3.797080846)
(1734.29686 2.579465581 -2.683970219)
(1736.546231 0.1871116436 -2.329287299)
(1735.472259 -1.216949783 -3.191084247)
(1735.929328 -1.6399917 -3.014742136)
(1734.748519 -1.952460135 -2.74742588)
(1733.675597 -1.870525674 -3.752804092)
(1731.475803 -1.118439305 -2.2008065)
(1731.461735 1.666937396 -0.8503501546)
(1730.708515 2.850673199 -2.078157596)
(1727.064492 3.65730422 -1.464826764)
(1721.728967 2.985922264 -2.595655149)
(1713.965362 7.389387105 -2.833235073)
(1705.071367 8.6910346 -2.672211013)
(1690.251106 17.43142037 -1.649257896)
(1662.475347 29.14034363 -1.068743981)
(1710.321147 -1.985290064 -3.560552885)
(1746.8199 -1.561216257 -3.728462729)
(1736.427486 -2.357770585 -2.231467901)
(1735.454748 -2.005198451 -2.311462531)
(1735.715373 0.03510084286 -2.130664219)
(1737.977264 -0.8053737188 -4.871991825)
(1736.667493 0.6530447858 -5.08852732)
(1734.837618 0.5735407031 -3.556672478)
(1733.539219 0.5397810597 -3.791490947)
(1733.837077 -0.9220256529 -4.36784037)
(1733.449885 -0.6035002561 -3.923292539)
(1735.242579 0.780584762 -4.456109208)
(1733.951325 2.010161701 -4.285102643)
(1732.713847 1.756161848 -2.579729274)
(1728.738679 2.578263688 -4.138568642)
(1729.735131 2.634166521 -2.936096148)
(1725.964347 3.528023791 -0.1993370467)
(1713.30337 9.620601175 -2.872635099)
(1702.891373 12.77103961 -2.537966533)
(1685.94065 21.57877511 -3.299955554)
(1705.50017 -1.829742424 -2.716662633)
(1742.871452 -0.5693667841 -3.07771138)
(1735.22644 -0.09345850698 -4.811027752)
(1735.109229 -0.09276049354 -3.714580482)
(1734.276062 -0.9792740789 -3.175731638)
(1735.468437 -0.1509514839 -1.203165908)
(1734.098723 -0.8152941333 -0.2800277015)
(1736.220962 1.011497518 -0.9277002418)
(1737.603207 1.634681061 -1.045336808)
(1738.245611 3.295490511 1.464951811)
(1736.4679 1.64641984 1.052677241)
(1736.131419 2.402478884 -1.775092562)
(1734.415614 -2.269027198 -0.6977518272)
(1733.889814 -1.584228632 0.01398800454)
(1733.377431 -1.319231348 0.9126930031)
(1729.3979 1.201867745 -0.2877632185)
(1722.907417 5.140630094 0.3524300408)
(1717.280371 8.788164573 -1.745532817)
(1708.219518 10.97597432 -3.183949171)
(1698.328501 18.77391488 -1.116117701)
(1708.5256 0.6932325372 0.6762624997)
(1745.330786 -1.022167368 1.054968549)
(1735.211837 -1.648965042 1.468286154)
(1736.172136 -1.079992895 0.6467283055)
(1735.389951 -2.093249665 -1.250027862)
(1733.53998 -0.547223997 -1.510110233)
(1734.242583 -1.23582986 -0.8847639023)
(1733.204368 -0.6543885075 -2.690880622)
(1732.88357 1.396664726 -3.258492632)
(1732.79015 0.7767200971 -4.358100659)
(1731.57601 0.9221245736 -2.571986874)
(1732.11067 0.8849477646 -1.522374063)
(1733.234435 1.417858157 -0.5520278927)
(1731.626438 1.878247241 -2.699269246)
(1732.50723 1.902632915 -3.110557683)
(1732.074068 1.767825359 -2.225540882)
(1728.338758 2.618253312 -1.179704912)
(1726.65632 6.572789492 0.09389069511)
(1718.92821 10.5225715 0.7053048802)
(1709.314815 15.97471261 0.03324556243)
(1704.393315 4.579066297 -1.023713062)
(1740.403452 5.208841098 -1.816839671)
(1733.103258 3.510040739 -2.613110689)
(1733.1019 1.940145516 -1.680056096)
(1732.896515 2.033755692 -0.8563062369)
(1733.988933 0.1864430425 -0.8512877417)
(1734.309638 -1.049242267 -0.02595552016)
(1735.276928 -1.333184283 -1.442275471)
(1735.171192 -2.729439839 -0.7359817755)
(1733.161313 -2.973601659 -2.666309723)
(1734.168631 -2.467473766 -2.673653683)
(1734.131227 -2.081878046 -2.585904529)
(1732.883862 -0.06561537538 -2.115453039)
(1732.712755 2.259925625 -2.94885977)
(1732.158946 3.719601363 -3.120783534)
(1731.31571 3.262476691 -2.140506738)
(1730.129997 3.785471122 -2.748554519)
(1726.299145 2.646204904 -2.25703)
(1722.902298 3.595737409 -3.126081758)
(1716.659204 8.803143187 -2.068477152)
(1708.478309 0.5479994032 1.628323013)
(1744.402501 -0.1142871847 2.62200389)
(1734.946597 1.013709851 4.165950786)
(1732.934314 1.185394518 3.659368962)
(1733.815482 -0.7028393368 2.68812778)
(1734.289882 -0.6680116038 2.113746392)
(1732.565004 1.307559415 1.221781312)
(1731.885441 -0.5733252938 1.288244881)
(1730.27187 0.2590152429 1.506976956)
(1732.393904 0.1217721593 1.389814471)
(1733.270407 1.341873928 0.5424910265)
(1734.992927 2.079105505 -0.3279260886)
(1736.388065 0.7476950914 -0.5674896379)
(1736.119698 -0.3374091539 -0.709866214)
(1735.378232 -1.647674855 0.5903997321)
(1732.089587 -0.9563093814 -1.999191307)
(1729.942846 -0.2053888248 -0.2666298435)
(1724.979324 2.946283131 0.5494956782)
(1722.770126 3.756164088 -0.7964910194)
(1719.738901 5.12933358 2.525162394)
(1705.798503 0.9803959795 2.905396602)
(1741.853886 0.07833616915 0.09487527613)
(1733.309411 -0.6188834141 0.5535146793)
(1734.447369 0.9373687582 1.195332936)
(1733.602889 1.022697398 0.3228584379)
(1734.679762 1.76602972 1.503800185)
(1734.685461 0.5052410802 0.9848895403)
(1735.405455 1.515820086 -0.4038473733)
(1737.034351 2.40240792 0.6444935013)
(1737.15199 1.278246398 1.291307455)
(1735.388004 -0.06998643704 2.065165631)
(1733.768684 -2.392868708 1.56360779)
(1733.248401 -3.289542934 2.921844658)
(1731.216163 -3.477706002 2.940597263)
(1732.747327 -1.556334701 2.704195826)
(1731.178051 -0.5132223804 3.514573121)
(1732.951749 -1.169795185 2.391327836)
(1733.639967 0.9206152963 1.948737009)
(1730.900996 1.227800429 0.8755454772)
(1727.436759 6.098512056 0.3265284693)
(1703.001746 -2.230156016 -0.3881338393)
(1742.105924 -1.034690605 -0.4053987846)
(1734.822629 0.7043187436 -1.904275235)
(1734.037021 -0.2843627465 -4.4566322)
(1735.331938 -0.2978201035 -2.975022473)
(1735.276034 0.96820334 -1.994746751)
(1736.669341 3.550583215 -0.4536696328)
(1737.679497 2.459494173 0.5111817057)
(1736.693745 -0.6283110292 0.8922218781)
(1735.948381 -1.212047066 2.373690107)
(1735.811768 -1.554606769 1.179778291)
(1735.712381 0.7024024436 2.008002282)
(1736.523426 1.502244119 1.791507218)
(1737.536087 -0.0854866202 1.791508335)
(1737.615856 -2.089113447 1.234127995)
(1735.900457 -1.012327365 -0.9699896824)
(1734.916536 -1.526060314 -2.484652132)
(1732.684582 -1.25295785 0.1339904538)
(1729.031191 1.629134948 -0.9330301901)
(1727.62024 2.255546528 -1.113447088)
(1710.248821 -1.316943485 -1.900763276)
(1746.007863 -1.452642829 -0.3191746015)
(1736.247896 -2.625155318 1.623487219)
(1737.238181 -2.949178201 2.10381689)
(1737.129734 -2.272780015 0.9422749224)
(1735.400479 -2.316077879 -0.5680467857)
(1735.066506 -2.824425506 0.3079719633)
(1733.829427 -2.577421487 -2.440670859)
(1734.302001 -0.05368174972 -1.201390172)
(1734.383949 0.5652068905 -1.224709005)
(1734.703477 0.8163592994 -0.01118535932)
(1734.294532 -2.634690307 -0.8497328023)
(1734.423702 -0.7011961266 -1.038305286)
(1735.378875 1.932851599 -2.442627119)
(1734.567758 2.976944173 -1.019269964)
(1733.311142 4.761187431 -0.3341639228)
(1733.032244 5.194347534 1.011440226)
(1732.22939 4.034975186 0.668341211)
(1733.783666 5.955014589 1.218958565)
(1733.637704 3.892349679 0.3322981559)
(1705.101568 -3.539964177 1.355459136)
(1742.266749 -3.957440386 0.2167485641)
(1732.611899 -2.29798429 0.6333878041)
(1731.069784 -0.5157336289 1.462698343)
(1731.043052 -0.4170752794 1.635106554)
(1732.725963 -1.271029197 2.169615327)
(1733.8391 0.4730994145 1.115192256)
(1734.329844 -0.1742449618 1.721275004)
(1734.994354 -1.511592138 1.432433185)
(1735.516257 -1.131122845 -0.4851989985)
(1735.753964 0.274687507 -0.7425976149)
(1738.0519 3.354541048 -1.322664713)
(1738.879826 5.242334753 0.1292036545)
(1737.407277 3.922037185 1.903245065)
(1735.833367 2.63147937 2.16516346)
(1737.226242 2.089438869 1.640927742)
(1735.117124 1.84252298 0.7932004147)
(1736.182004 2.823534384 0.7964716145)
(1733.512517 2.628658448 -0.9130042208)
(1732.178778 2.572646812 -0.1765816297)
(1707.039872 1.440471908 0.4158944552)
(1746.492849 2.283088016 1.426918237)
(1737.828695 0.09010780283 -0.3760792356)
(1737.648827 0.6240713811 -2.669782762)
(1737.660748 0.2705893886 -2.977476173)
(1737.281329 -0.7638407325 -3.979826751)
(1736.376097 0.2800899554 -4.299051325)
(1736.884956 0.4459401008 -3.448957666)
(1735.397672 1.320506497 -2.95846856)
(1735.67716 3.361854164 -2.747349285)
(1734.415349 2.327761778 -1.457431349)
(1734.444026 2.299674348 -0.963234064)
(1733.70105 0.1405975892 -2.431387983)
(1734.983775 -0.6800867007 -4.403180452)
(1734.974282 0.3112125305 -3.433406103)
(1732.509414 -0.8432124724 -2.245793477)
(1731.665269 1.303117258 -3.073047598)
(1731.993371 0.1069598647 -2.842591916)
(1732.280298 3.332615627 -2.280147364)
(1731.613096 3.259816239 -1.905075069)
(1713.515678 1.763177113 -0.158779937)
(1749.274915 -0.1251472292 -0.4170660895)
(1739.744649 1.741527287 1.457510591)
(1738.703146 2.750304021 1.240189668)
(1739.372614 3.413631805 2.907235046)
(1739.582737 1.22453143 1.882163753)
(1738.725664 0.1845098069 2.649388146)
(1739.692747 0.8772623232 1.49626737)
(1739.629304 -0.7149014623 1.270312609)
(1738.318625 -2.325198955 -0.9260067627)
(1735.317091 -1.309693029 -2.726970822)
(1735.882542 -0.6980844472 -1.798332126)
(1732.349786 1.312097416 -0.7824146257)
(1733.670606 0.8997321708 0.5519986112)
(1735.435547 0.7609679164 -0.3346791081)
(1736.459617 2.706154176 0.4236500589)
(1737.660249 1.942380199 2.047603261)
(1735.9157 1.906760743 0.7379661483)
(1735.488937 1.361094267 2.397176029)
(1735.07326 1.871025743 2.403137037)
(1706.550492 2.972450232 -0.7333541318)
(1742.273339 2.110392143 -1.475891311)
(1734.709027 2.580243686 -2.053396205)
(1732.922268 0.4730649096 -0.4873393873)
(1734.273427 -0.7798259213 -2.301003902)
(1731.807633 1.932508187 -2.173030642)
(1732.168303 2.277775038 -1.459975221)
(1732.700357 2.339507036 1.215493766)
(1733.090952 2.298473429 1.006634416)
(1734.584137 2.191535365 1.770789921)
(1734.466289 0.3518276552 2.713127679)
(1734.712503 -0.0687165576 1.683061189)
(1734.720656 -0.3720895123 2.399485703)
(1734.944019 -0.8522971364 1.682459404)
(1733.929772 -0.6015236548 1.341581117)
(1733.715534 -1.46766576 0.1708895118)
(1734.283783 -0.5308508733 0.048762393)
(1733.661896 0.2752533486 0.5414586647)
(1734.492813 1.422723422 1.122917679)
(1733.664789 2.337361167 1.64539121)
(1711.506152 -0.06559213612 -2.476134712)
(1747.131057 -0.2887563717 -3.656889774)
(1737.929225 -1.056980283 -3.304463884)
(1737.374211 1.442649752 -2.914724876)
(1738.68666 2.62211351 -2.457621007)
(1738.618534 1.993899621 -0.3661528372)
(1738.539392 0.3378215316 -0.9608756851)
(1737.091042 2.494684412 -1.222400262)
(1737.912937 1.712635343 -1.198614465)
(1736.975477 2.34113596 -1.720058067)
(1737.00143 1.910718449 -0.938747539)
(1737.245601 1.283523502 -0.9058939402)
(1737.56424 1.669048612 -1.690810268)
(1736.898319 2.767412898 -2.314031677)
(1735.387363 1.887907066 -1.505971406)
(1737.959348 3.23377637 -1.010538722)
(1736.088704 2.684515641 -0.405121674)
(1738.342302 -0.6379536612 -1.639782658)
(1734.978111 0.7884096903 -2.454606879)
(1734.708802 -1.611779323 -4.478159161)
(1710.218847 -3.668184587 0.5913977287)
(1747.029116 -1.379924053 1.611319136)
(1738.106126 1.371811913 1.527249486)
(1738.201704 0.3701136633 1.386399974)
(1738.089196 1.014558739 -0.2487640334)
(1738.017489 1.784322282 -0.6812390439)
(1739.984421 2.241642723 -0.3237258574)
(1739.223151 1.043052013 -1.980066568)
(1740.107635 0.3475283768 -0.7604834986)
(1740.130268 0.711101658 -2.239796193)
(1741.13601 1.58193033 -2.184886982)
(1740.961753 2.361388587 -3.282270796)
(1740.473768 0.5390322985 -2.229468079)
(1740.685393 1.037006873 -1.470881539)
(1738.924721 1.689399502 -0.3154584368)
(1738.437531 -0.3649502309 -1.180420281)
(1736.40291 -0.7381164723 -1.798383185)
(1735.117969 -1.500114985 -1.349710636)
(1735.503754 -0.5789039967 -0.4569014945)
(1734.788891 -0.2509127646 -0.7065961617)
(1707.814857 3.891556112 0.4180148055)
(1746.932021 2.270800788 -0.6661491197)
(1737.917376 -1.226390844 -2.101656012)
(1739.247029 0.3328813432 -0.934271248)
(1738.687838 -0.2482365685 -1.716231966)
(1737.530545 0.5398539643 -1.071728567)
(1735.602374 0.7470765077 -2.244247975)
(1736.091224 1.089352438 0.3261977292)
(1734.984689 2.500720202 0.7523873087)
(1734.62761 2.172619947 -0.03494371821)
(1733.521452 1.114464004 2.378415276)
(1732.560546 -2.219858858 1.846439453)
(1731.336245 -2.0077824 1.597252464)
(1732.913762 -3.155317485 0.07221084341)
(1733.334345 -4.294589757 -2.49096463)
(1735.601364 -3.521798652 -1.036860748)
(1736.52637 -1.451090495 0.1580240938)
(1736.618651 2.087575463 -0.8824564913)
(1737.632512 1.938825155 -1.359553935)
(1737.411024 2.384408816 -1.035873513)
(669.1064355 151.664614 -4.046139345)
(603.5838424 171.3415165 -1.29586424)
(567.7065635 163.1140041 -1.808125887)
(527.5861679 154.1395957 0.5007879003)
(501.3762024 147.5414236 1.915629271)
(473.2008755 135.7127966 0.6210143047)
(443.392394 127.7869764 -4.75064527)
(415.4852955 121.8115307 -4.417974075)
(402.7770779 114.9771237 -4.845947618)
(387.5578626 112.2495072 -3.262044224)
(1053.767476 163.3564864 -3.923026521)
(938.6530093 221.3525377 -5.950933639)
(884.7941382 243.3143306 1.747759129)
(851.6844578 247.9206782 -0.78275822)
(815.1692092 245.1619617 -6.955875194)
(779.7639758 243.8166468 -3.9727779)
(750.2085879 230.7328945 -3.587173903)
(711.8888988 225.1081878 -2.707792708)
(684.9078079 212.1915362 0.7931147603)
(666.1524274 201.1131548 1.643288084)
(1274.425269 138.989195 -0.1307832952)
(1162.746625 198.592864 -7.838610394)
(1100.675187 244.2068054 0.4249919563)
(1050.346011 272.112723 -3.676819238)
(1011.060715 286.0535398 -0.9058655603)
(979.7683678 294.0702125 1.308776486)
(951.2082445 297.0082055 -1.52899219)
(919.5249173 292.8985716 -0.2384079022)
(890.8348294 282.7529566 0.1269393349)
(855.3830832 275.5366972 -2.032642969)
(1420.62168 107.8541251 2.914141726)
(1323.734639 162.8379547 -0.1494481875)
(1251.617766 209.4171646 7.381977333)
(1190.145277 253.106099 -0.509152322)
(1149.803761 282.1846538 1.834752957)
(1115.278812 299.6339466 -0.6666265793)
(1083.780384 312.4822941 0.2474581019)
(1064.229189 321.8798376 -2.564405341)
(1039.131025 327.4618885 0.3234492445)
(1008.972627 324.4947048 -1.374758982)
(1516.56753 85.08763804 -0.7126036837)
(1441.393687 127.4469183 1.754277483)
(1384.128148 172.3329646 1.73201765)
(1318.557221 210.9065919 3.062595998)
(1278.402299 250.6592569 2.572093918)
(1237.567492 285.6357739 4.708609341)
(1197.73036 306.8114684 2.074436133)
(1177.652018 322.5218933 0.5196662951)
(1141.616401 337.1635855 -0.3705139358)
(1112.019863 345.806781 1.784263478)
(1581.200354 64.88883019 1.848345555)
(1525.869306 97.1197583 3.363625187)
(1482.772716 132.6007474 3.210698991)
(1426.37648 177.2554109 0.09225007922)
(1383.484653 212.4152528 -0.9932266832)
(1336.561137 246.0513785 -1.516173635)
(1293.170404 280.9850294 -2.194715778)
(1264.246608 300.953883 -0.188878497)
(1232.486765 322.3255047 2.223456346)
(1214.799675 337.84317 -1.505293164)
(1629.277896 48.88354897 -1.679820332)
(1588.865492 74.82283333 0.2586716095)
(1552.837774 104.1844516 -3.709908286)
(1499.29535 139.3573706 -1.918622774)
(1464.659197 169.0531411 0.7535414521)
(1425.525638 206.7753732 -6.356381594)
(1389.892572 237.9787217 -4.37362367)
(1352.797187 272.8375813 -2.849621322)
(1320.867238 297.7890829 -3.420035953)
(1294.073008 314.8098875 -0.6402367959)
(1660.930954 36.1753971 -2.246359169)
(1626.900706 57.88468946 -2.105344395)
(1605.737338 76.87041016 0.6952821831)
(1561.239086 104.0297434 1.772010093)
(1532.526748 131.7437916 3.265327352)
(1492.773564 167.2209864 3.380969063)
(1462.943177 193.1144171 1.169134988)
(1426.527282 225.515657 1.39778215)
(1392.002299 258.8645041 -0.4024386171)
(1358.177481 286.9997449 0.3659637864)
(1678.632802 29.6778662 -2.168230221)
(1657.219396 42.16132722 2.079588869)
(1638.19842 58.66085368 0.9856879192)
(1609.195742 77.39138612 -0.6638280812)
(1585.723915 102.3444984 2.579515175)
(1558.188902 126.725841 6.438046168)
(1524.989632 158.2517096 0.8786068337)
(1496.899759 187.6424535 -0.4995574668)
(1467.931854 215.6879517 -1.657341078)
(1433.06379 246.6448789 -0.5237813595)
(1699.505051 20.23484179 1.572734137)
(1685.63611 32.16716429 -1.373748658)
(1666.198058 44.53806324 0.7426027718)
(1645.794932 59.51504155 0.7602140684)
(1624.046836 75.34231208 -0.2795020494)
(1603.460507 95.76641173 1.460768403)
(1575.881269 125.4363446 -1.223015633)
(1551.769079 147.2103414 2.357262657)
(1526.714247 176.7803847 0.3710534188)
(1499.208074 206.1227859 0.4118004202)
(1708.025832 14.95949636 -4.112632209)
(1698.094171 21.94314039 -1.921985889)
(1685.166513 31.46246558 -4.929598691)
(1669.038181 44.94364194 -1.465898337)
(1653.145318 60.13016168 -1.900907164)
(1633.774167 75.96147476 -1.75854789)
(1611.489515 97.69887866 3.500608841)
(1586.761432 118.5911283 2.452829965)
(1569.448373 146.5275375 3.01775456)
(1547.389767 169.2327315 -0.2481790954)
(1714.82129 7.604358957 3.208804723)
(1709.713591 10.98759904 0.9769050548)
(1702.290702 18.31264441 1.051280646)
(1687.83602 32.53344695 2.302111754)
(1680.318122 39.81284515 1.665394628)
(1663.298108 55.49428417 1.326821536)
(1643.695788 74.76593374 1.750228312)
(1624.816037 92.41651661 -0.02160314188)
(1606.745894 109.0712205 3.598558062)
(1590.817399 132.5544289 2.099024475)
(1720.909546 9.350824148 1.770626049)
(1714.044665 15.02817073 1.939102546)
(1706.194635 20.80209446 2.721356234)
(1701.021183 24.60709901 -0.2015698344)
(1691.558506 31.05281631 -0.6328771773)
(1680.942634 41.75524291 -1.263856591)
(1669.323086 50.61227457 -0.7929376143)
(1660.595138 67.08246545 -1.09740939)
(1648.810094 83.42566672 -3.596316062)
(1623.288331 102.3881102 -4.014885712)
(1723.101637 7.338253579 0.01307607232)
(1719.598819 9.528402729 0.6689734672)
(1715.45908 13.40082736 -0.0784115626)
(1712.356776 19.4134938 1.124028886)
(1705.878125 24.40257114 -1.410755283)
(1702.327605 29.77950781 -3.310384499)
(1692.513536 37.94153929 -1.852895924)
(1681.650423 50.5058861 -2.341445258)
(1668.625524 61.0138689 -6.075477885)
(1656.026929 75.19456744 -2.522850012)
(1728.534113 5.846152956 -0.3839801495)
(1725.797029 6.979274845 0.3706531403)
(1726.55432 8.944773899 1.563614328)
(1723.105361 9.632226334 0.4681870044)
(1716.687222 18.05087533 1.218377336)
(1712.892725 22.59969345 0.9546759864)
(1704.617907 27.38345071 0.2222647078)
(1696.184616 35.86329266 -0.04877237966)
(1687.594907 49.29068699 -0.8050333138)
(1677.999505 60.51095533 -0.008407948845)
(1733.319824 3.185146192 -1.325752631)
(1731.473948 5.77804315 -3.522754867)
(1727.831969 8.635793338 -5.210379466)
(1726.894778 10.98761049 -1.620612207)
(1723.011991 10.47910132 -2.324900614)
(1716.457639 17.53899853 -1.48627559)
(1712.361198 23.3971925 -1.708879401)
(1704.528709 29.14330661 0.03705528231)
(1692.940112 33.60222046 -0.06359344812)
(1685.273405 42.25191208 -0.7382229504)
(1730.710922 2.547589866 0.09541921665)
(1729.645573 0.2079493623 0.7425765409)
(1728.29289 2.097283277 -0.3665897984)
(1725.239805 4.718550583 1.500091431)
(1723.463219 7.670868276 0.891551531)
(1719.305752 13.18031081 2.285575276)
(1713.220441 14.80174787 2.916088741)
(1709.42937 19.69864785 3.471901)
(1707.654517 26.93648614 4.661406069)
(1704.136024 35.02285039 2.675471125)
(1732.41783 4.806156022 2.017021839)
(1731.211533 7.44225097 2.316836297)
(1728.687084 5.714482427 3.860938826)
(1727.198817 6.309623326 1.851016558)
(1725.683717 5.002612394 1.866303822)
(1723.521542 4.076530594 -1.037897603)
(1721.534428 11.46059951 -1.676885867)
(1719.328716 13.93145212 -0.8920448373)
(1713.196553 17.65684539 -2.473301434)
(1706.613642 23.78333635 -1.926721028)
(1733.580848 2.883724513 1.043804763)
(1732.310797 2.774173997 -1.971188649)
(1730.642729 4.63925849 -2.83129803)
(1729.766394 4.179773214 -3.27919805)
(1731.102772 6.45825209 -4.220576135)
(1728.039722 9.267098443 -0.5916211827)
(1725.287106 10.34916226 -3.852840009)
(1723.898841 13.29714707 -3.860745652)
(1720.390139 17.42412994 -2.847714583)
(1716.050898 18.65560557 -4.019004704)
(1734.280498 -1.992797159 -4.8513033)
(1732.100111 -1.57171081 -3.80911028)
(1730.712836 -0.4238809467 -4.046156586)
(1730.506875 3.827436718 -2.070174206)
(1729.160669 7.030004924 -1.3558477)
(1728.849884 7.248342363 -2.525030195)
(1727.165688 8.518398619 -1.744060805)
(1724.881924 11.47942339 -2.069098482)
(1724.93149 14.8668171 -2.380899487)
(1723.240992 14.28051196 -2.496153192)
(1735.814591 -0.1485788768 0.7350394106)
(1736.27951 2.983261344 1.137788416)
(1736.613011 4.755804399 0.4718980965)
(1736.66493 4.689018525 -0.8799106651)
(1736.953587 3.953567389 -0.671152169)
(1734.186213 6.212816422 -0.1431539086)
(1733.527053 6.169438643 0.08325659963)
(1730.282043 7.182437137 -1.150364616)
(1726.598968 8.703668841 0.1690280846)
(1724.293142 11.38193656 2.26076201)
(1738.142681 1.594627698 -2.706469495)
(1738.065937 3.908747661 -3.025132213)
(1734.500004 2.161926525 -2.8836261)
(1734.954203 3.433162544 -1.687049891)
)
;

boundaryField
{
    flow
    {
        type            calculated;
        value           nonuniform List<vector> 
42
(
(1706.752799 -8.622526096 -2.416096886)
(1710.65281 -2.534699474 1.806917434)
(1709.869744 0.7848578626 3.540443651)
(1708.368731 -3.457100465 0.009861620071)
(1707.05785 -1.792046609 0.2383159482)
(1710.500872 3.25699536 -1.007901787)
(1708.569434 -0.2232164647 -2.812379393)
(1710.321147 -1.985290064 -3.560552885)
(1705.50017 -1.829742424 -2.716662633)
(1708.5256 0.6932325372 0.6762624997)
(1704.393315 4.579066297 -1.023713062)
(1708.478309 0.5479994032 1.628323013)
(1705.798503 0.9803959795 2.905396602)
(1703.001746 -2.230156016 -0.3881338393)
(1710.248821 -1.316943485 -1.900763276)
(1705.101568 -3.539964177 1.355459136)
(1707.039872 1.440471908 0.4158944552)
(1713.515678 1.763177113 -0.158779937)
(1706.550492 2.972450232 -0.7333541318)
(1711.506152 -0.06559213612 -2.476134712)
(1710.218847 -3.668184587 0.5913977287)
(1707.814857 3.891556112 0.4180148055)
(1706.752799 -8.622526096 -2.416096886)
(1744.091609 -7.502864003 -3.384702642)
(1737.321097 -8.912928215 -2.598525381)
(1738.572978 -8.620225364 -1.978438471)
(1736.476381 -8.54576267 -2.273501535)
(1737.366696 -9.232249809 -1.976962337)
(1738.404928 -7.608981451 -0.7068061857)
(1737.583596 -7.89312313 -2.645942855)
(1736.971597 -6.4287069 -0.5020941849)
(1735.110299 -4.61129859 -0.3455293764)
(1735.988883 -4.807048663 -0.2255144215)
(1734.185507 -4.424219479 -1.45609119)
(1734.143943 -5.088755089 -1.446375229)
(1732.643708 -6.32674853 -2.111316529)
(1728.4713 -5.202453626 -2.533855831)
(1723.384638 -8.130531641 -2.008463008)
(1710.858412 -9.013902867 -0.07461984996)
(1672.574454 -15.26434425 -0.6339490539)
(1565.267969 -20.67610152 -2.131102319)
(1187.14702 10.14910904 2.909075313)
)
;
    }
    obstacle
    {
        type            calculated;
        value           nonuniform List<vector> 10((424.4624876 113.7343807 2.739488001) (346.2703391 92.78285776 -4.641734223) (308.5715537 82.68149861 -7.214188256) (274.5029031 73.55283121 9.067569656) (261.0914807 69.95925137 1.786059838) (249.1337346 66.75518311 10.46217787) (222.898807 59.72555515 3.31785934) (212.9589632 57.06218232 -5.059057832) (209.9380137 56.25272134 -16.5333582) (205.4996603 55.06346785 -5.275306611));
    }
    frontAndBack
    {
        type            empty;
    }
    procBoundary0to1
    {
        type            processor;
        value           nonuniform List<vector> 
21
(
(372.0735808 104.0329781 -1.726775866)
(635.7354366 197.1556615 -5.893402903)
(834.2149753 267.127602 -5.611458419)
(989.5656737 317.5397818 0.7426000046)
(1097.747476 346.3197715 2.634965731)
(1185.573823 352.2808428 -0.1316718445)
(1267.322131 336.5318517 -1.940597208)
(1337.484567 310.6080449 -1.761110027)
(1406.354388 274.2183569 0.6534068553)
(1468.358182 236.2952952 2.457078545)
(1524.235958 195.0096037 -2.765036614)
(1567.442778 156.9041575 3.011111021)
(1609.264788 118.8710856 -3.646851518)
(1639.404594 96.12848916 -3.171881015)
(1667.792556 69.34105706 -1.784547311)
(1677.097722 53.24220167 2.054713752)
(1694.269914 43.88390931 3.381274619)
(1701.462852 32.83566662 -3.513983917)
(1710.510795 23.57494424 -0.4941463885)
(1720.25107 15.87006874 -3.838195474)
(1724.495231 13.88598872 1.928604809)
)
;
    }
    procBoundary0to2
    {
        type            processor;
        value           nonuniform List<vector> 
31
(
(1709.989094 1.435722588 -0.1893280858)
(1743.603264 2.112875281 -0.9025518891)