/*--------------------------------*- C++ -*----------------------------------*\
| =========                 |                                                 |
| \\      /  F ield         | OpenFOAM: The Open Source CFD Toolbox           |
|  \\    /   O peration     | Version:  2406                                  |
|   \\  /    A nd           | Website:  www.openfoam.com                      |
|    \\/     M anipulation  |                                                 |
\*---------------------------------------------------------------------------*/
FoamFile
{
    version     2.0;
    format      ascii;
    arch        "LSB;label=32;scalar=64";
    class       volScalarField;
    location    "0.001";
    object      dsmcSigmaTcRMax;
}
// * * * * * * * * * * * * * * * * * * * * * * * * * * * * * * * * * * * * * //

dimensions      [0 3 -1 0 0 0 0];

internalField   nonuniform List<scalar> 
546
(
5.59533443e-16
5.640759853e-16
5.429777404e-16
5.800329944e-16
5.434908285e-16
5.950918012e-16
5.350160056e-16
5.912450245e-16
6.233426551e-16
5.136551431e-16
5.502069542e-16
5.515554647e-16
5.771182808e-16
5.772175745e-16
5.561605908e-16
5.570193897e-16
5.080092165e-16
7.249864719e-16
6.674069471e-16
5.281024211e-16
5.681360122e-16
5.528525526e-16
5.334244859e-16
5.434582923e-16
5.504760297e-16
4.982962367e-16
5.821940199e-16
5.390560162e-16
6.446257897e-16
5.748453808e-16
5.510188785e-16
5.856768912e-16
5.353191052e-16
5.847059896e-16
5.592788875e-16
5.856757162e-16
5.566486e-16
5.682051085e-16
6.680235802e-16
6.115717702e-16
5.105392187e-16
5.930147804e-16
6.338217434e-16
6.493361007e-16
5.375959717e-16
6.248064259e-16
5.458174851e-16
5.495570871e-16
5.432661781e-16
5.591064144e-16
5.516341341e-16
5.579192434e-16
5.490714423e-16
5.489523342e-16
5.635268799e-16
6.132909789e-16
5.79394153e-16
5.335253683e-16
5.665175848e-16
5.568630805e-16
5.643040688e-16
5.715844435e-16
6.000033464e-16
5.684323927e-16
5.756614184e-16
5.528316016e-16
5.555229397e-16
5.881983159e-16
6.13250059e-16
5.55545509e-16
5.383335419e-16
5.802524248e-16
5.590437412e-16
5.414755129e-16
5.729458015e-16
5.807520202e-16
5.567855893e-16
5.614561769e-16
5.659960423e-16
5.266905112e-16
5.333228864e-16
5.783946688e-16
5.999807023e-16
5.933106904e-16
6.027255681e-16
5.502920866e-16
5.544034872e-16
5.883950237e-16
5.701119116e-16
5.358272929e-16
5.486739365e-16
5.993433114e-16
5.125368402e-16
5.981926187e-16
5.496113532e-16
5.776383443e-16
5.914575845e-16
6.81747623e-16
5.362148489e-16
5.676319922e-16
5.682991869e-16
5.435503916e-16
5.784324732e-16
5.99040522e-16
6.225286293e-16
5.504789698e-16
5.747607861e-16
5.629348408e-16
5.538343399e-16
5.310784285e-16
6.08550518e-16
5.228871529e-16
5.240893144e-16
7.107946559e-16
5.567226805e-16
5.632673128e-16
5.593158569e-16
5.835545923e-16
5.479243985e-16
5.331769204e-16
5.100288911e-16
5.333929242e-16
5.066174909e-16
5.541456174e-16
5.569243029e-16
5.501494418e-16
5.733037479e-16
5.657960471e-16
6.14127054e-16
6.323754651e-16
5.618478543e-16
5.308238658e-16
5.594439473e-16
5.461622821e-16
5.533670634e-16
5.539975206e-16
5.996820419e-16
5.524140809e-16
5.878504954e-16
6.027716145e-16
5.376477171e-16
5.547310149e-16
5.314582313e-16
5.568697125e-16
5.617709126e-16
5.366946663e-16
5.624845322e-16
5.508688065e-16
5.321743431e-16
5.60903046e-16
5.456945106e-16
5.709522783e-16
5.412392198e-16
5.232147878e-16
5.566128659e-16
5.234469553e-16
5.326467804e-16
5.980209513e-16
5.489398802e-16
5.652039478e-16
5.598061143e-16
5.854593182e-16
6.174566729e-16
5.742442112e-16
6.038108305e-16
5.445099415e-16
5.587919191e-16
5.88173507e-16
5.916014635e-16
5.599874977e-16
5.501977315e-16
5.800192339e-16
5.419345668e-16
6.268195274e-16
5.882675345e-16
5.425211159e-16
5.562758615e-16
5.806072789e-16
5.67057916e-16
5.687149978e-16
5.231114268e-16
5.391265252e-16
5.528328322e-16
5.201119125e-16
5.300229716e-16
6.027748328e-16
5.888256871e-16
5.442608472e-16
5.636779465e-16
5.417798615e-16
6.478639704e-16
5.578475874e-16
5.629444085e-16
5.664128154e-16
5.315690693e-16
5.681796476e-16
5.425075171e-16
5.653896395e-16
5.548085585e-16
5.770917929e-16
6.340793993e-16
6.138135621e-16
5.206014567e-16
6.142929935e-16
5.530205669e-16
5.709794693e-16
5.907329944e-16
5.530638951e-16
5.279462357e-16
5.965380472e-16
5.3584452e-16
5.469886449e-16
5.87709958e-16
5.84390533e-16
5.584676354e-16
5.766580694e-16
5.586388581e-16
5.405130369e-16
5.621178547e-16
5.92182448e-16
5.576451168e-16
5.982786795e-16
5.30829081e-16
5.741603328e-16
5.491330591e-16
5.541543019e-16
5.616779002e-16
5.724172641e-16
5.497638223e-16
6.021150193e-16
5.490088389e-16
5.451212116e-16
5.367778317e-16
5.26481503e-16
5.868339627e-16
5.302028589e-16
5.713444142e-16
5.488944107e-16
5.523311892e-16
5.833486516e-16
5.588023961e-16
5.699550225e-16
5.460559406e-16
5.759769412e-16
6.133431861e-16
5.537853044e-16
5.170508754e-16
5.325353977e-16
5.595854598e-16
6.25846442e-16
5.482413897e-16
5.751494434e-16
5.803155956e-16
5.536102485e-16
5.35513066e-16
5.74214249e-16
5.354571468e-16
5.411559483e-16
5.798320071e-16
5.496731502e-16
5.996016312e-16
5.753605644e-16
5.753605644e-16
5.996912119e-16
6.166998594e-16
5.503684287e-16
6.441612624e-16
5.856665849e-16
5.506138467e-16
5.402843155e-16
5.319350712e-16
5.770540788e-16
5.949811666e-16
5.413869724e-16
5.53930556e-16
5.63049519e-16
5.709479311e-16
5.386187766e-16
5.868512052e-16
5.67805397e-16
5.503800975e-16
5.735004211e-16
5.567836351e-16
5.759987231e-16
5.419017508e-16
5.980687008e-16
5.420913341e-16
5.246048863e-16
6.067084526e-16
5.824264581e-16
5.72028298e-16
5.732837891e-16
5.732837891e-16
5.615469848e-16
5.819538454e-16
5.533068809e-16
5.421845487e-16
6.201717658e-16
5.585904447e-16
5.37161556e-16
6.041943292e-16
5.330181674e-16
5.061934741e-16
5.446994585e-16
6.070161908e-16
5.476331226e-16
5.769377094e-16
5.703878678e-16
5.318164807e-16
6.371584236e-16
5.389196689e-16
5.351165583e-16
5.276965807e-16
5.325679441e-16
5.278890054e-16
5.391135835e-16
5.563685237e-16
5.448369506e-16
5.490780438e-16
5.636352465e-16
5.540755745e-16
5.453000637e-16
5.985524787e-16
6.022700362e-16
5.475951081e-16
5.14895525e-16
5.593760715e-16
5.609403485e-16
5.619878673e-16
5.36358313e-16
6.508073523e-16
5.824600002e-16
5.375109017e-16
5.684613955e-16
5.819234638e-16
5.591940001e-16
5.593121499e-16
6.006340312e-16
5.620659693e-16
5.436560526e-16
5.489052913e-16
5.542561435e-16
5.261834965e-16
5.568927761e-16
5.914744007e-16
5.76608167e-16
5.247767856e-16
5.686545271e-16
5.30197603e-16
5.644656277e-16
5.236911217e-16
5.768824813e-16
5.531179513e-16
6.006489375e-16
5.894237162e-16
5.661510694e-16
5.450767657e-16
5.685787988e-16
5.514307282e-16
5.386135686e-16
5.65417063e-16
6.350716858e-16
5.571999017e-16
6.340300513e-16
5.381622936e-16
5.684741297e-16
5.547098868e-16
5.629280335e-16
5.708845103e-16
5.203898038e-16
6.118308373e-16
6.597859251e-16
6.801209875e-16
5.550227701e-16
5.539032906e-16
6.573788838e-16
5.380950398e-16
5.963214587e-16
5.897103379e-16
5.535266851e-16
5.827372213e-16
5.226087676e-16
5.850474269e-16
6.306841687e-16
6.061672244e-16
6.355903735e-16
5.638545685e-16
6.325981117e-16
5.842584478e-16
5.316960453e-16
5.722710503e-16
5.665975578e-16
5.922236717e-16
6.457319294e-16
6.993905055e-16
6.128112124e-16
5.51576548e-16
5.216730058e-16
5.610940569e-16
5.584592282e-16
5.745633828e-16
6.110662488e-16
5.495444002e-16
6.620925029e-16
5.958519193e-16
5.629496397e-16
5.582624771e-16
5.732094699e-16
5.695746846e-16
6.270377703e-16
5.205378512e-16
5.155726237e-16
5.433342761e-16
5.478737089e-16
6.765524491e-16
5.40807467e-16
5.848512038e-16
5.366895232e-16
5.45342332e-16
5.243341356e-16
6.809855213e-16
5.342442912e-16
5.924421541e-16
5.338307271e-16
5.150522179e-16
5.391508398e-16
6.278521683e-16
5.899587039e-16
5.629368368e-16
5.86644684e-16
5.406126588e-16
6.459117453e-16
5.88287722e-16
5.498815218e-16
6.229317448e-16
5.55551495e-16
5.185002563e-16
5.487875095e-16
5.576227043e-16
5.485516073e-16
5.815101921e-16
6.282508959e-16
6.292105318e-16
5.43982574e-16
5.699114015e-16
5.959201386e-16
5.870958043e-16
5.515310694e-16
5.247788296e-16
5.201900836e-16
5.754666439e-16
5.393256345e-16
5.816991035e-16
5.662965491e-16
5.62447357e-16
5.578265024e-16
5.891036015e-16
5.531866686e-16
6.189740952e-16
5.544613535e-16
5.062001545e-16
5.960163507e-16
5.665777e-16
5.841346265e-16
5.695391359e-16
5.470847521e-16
5.649727859e-16
6.032873522e-16
5.648078051e-16
5.678713561e-16
6.0944548e-16
5.265371025e-16
5.430217304e-16
5.849203468e-16
5.79255213e-16
6.586513849e-16
5.20202249e-16
5.590764538e-16
5.961017158e-16
5.598312958e-16
5.607536056e-16
5.67285936e-16
5.891371878e-16
5.341585439e-16
5.850294183e-16
5.53859775e-16
5.300872888e-16
5.659723927e-16
5.27302899e-16
6.234916998e-16
6.256873684e-16
5.667841985e-16
5.617422241e-16
5.403595453e-16
5.426775239e-16
5.75415477e-16
5.101768856e-16
5.732534459e-16
5.577934614e-16
5.448037906e-16
5.611063835e-16
5.519374826e-16
5.764739662e-16
5.825694748e-16
5.628349771e-16
5.805987508e-16
6.289762116e-16
5.359324424e-16
5.81840636e-16
6.067546021e-16
5.520002563e-16
5.439109988e-16
5.366084114e-16
5.697085145e-16
5.841743381e-16
5.828242594e-16
5.134984803e-16
5.636149955e-16
5.805480594e-16
5.592549395e-16
5.329805389e-16
5.455071267e-16
5.354272196e-16
5.883318559e-16
5.538918386e-16
5.755887171e-16
5.393435442e-16
6.172253356e-16
5.383973322e-16
5.831460113e-16
6.011185369e-16
5.662713222e-16
6.023727029e-16
5.617329682e-16
6.324685498e-16
5.536519629e-16
5.828862811e-16
5.791747208e-16
5.752959756e-16
5.69568519e-16
5.491165899e-16
5.710992652e-16
5.545301768e-16
5.483799989e-16
5.448277611e-16
5.439965563e-16
)
;

boundaryField
{
    flow
    {
        type            zeroGradient;
    }
    obstacle
    {
        type            zeroGradient;
    }
    frontAndBack
    {
        type            empty;
    }
    procBoundary2to0
    {
        type            processor;
        value           nonuniform List<scalar> 
31
(
5.568132691e-16
5.690188334e-16
6.251922248e-16
5.702295921e-16
5.356140947e-16
5.853279503e-16
5.538888484e-16
6.033673745e-16
5.428470256e-16
5.944463972e-16
5.47849632e-16
5.596489665e-16
5.80744519e-16
6.374126035e-16
5.451877247e-16
5.696614685e-16
5.721152807e-16
6.584704632e-16
5.422857912e-16
5.642060269e-16
7.726103798e-16
5.899846228e-16
5.739609456e-16
5.529360012e-16
6.403593342e-16
5.806647261e-16
5.282223899e-16
5.53536612e-16
6.110465274e-16
6.005756405e-16
6.005756405e-16
)
;
    }
    procBoundary2to3
    {
        type            processor;
        value           nonuniform List<scalar> 
19
(
6.847267215e-16
7.914683143e-16
7.301721549e-16
5.677315819e-16
6.062148316e-16
5.530617898e-16
7.099477119e-16
5.348542473e-16
5.560299498e-16
5.769286731e-16
5.609803996e-16
6.30590047e-16
5.454744416e-16
5.517344144e-16
5.397851151e-16
5.592456921e-16
5.725863478e-16
5.325122497e-16
5.537571617e-16
)
;
    }
}


// ************************************************************************* //
