/*--------------------------------*- C++ -*----------------------------------*\
| =========                 |                                                 |
| \\      /  F ield         | OpenFOAM: The Open Source CFD Toolbox           |
|  \\    /   O peration     | Version:  2406                                  |
|   \\  /    A nd           | Website:  www.openfoam.com                      |
|    \\/     M anipulation  |                                                 |
\*---------------------------------------------------------------------------*/
FoamFile
{
    version     2.0;
    format      ascii;
    arch        "LSB;label=32;scalar=64";
    class       volScalarField;
    location    "0.001";
    object      dsmcRhoNMean;
}
// * * * * * * * * * * * * * * * * * * * * * * * * * * * * * * * * * * * * * //

dimensions      [0 -3 0 0 0 0 0];

internalField   nonuniform List<scalar> 
546
(
7.42
9.574
9.646
9.654
9.618
9.59
9.472
9.444
9.356
9.404
9.33
9.434
9.412
9.416
9.462
9.32
9.216
9.228
9.294
9.268
7.458
9.43
9.42
9.45
9.39
9.45
9.572
9.568
9.484
9.476
9.446
9.314
9.326
9.196
9.182
9.328
9.39
9.424
9.642
9.734
7.434
9.748
9.662
9.722
9.762
9.698
9.662
9.602
9.716
9.672
9.462
9.572
9.402
9.462
9.426
9.474
9.456
9.468
9.53
9.406
7.374
9.498
9.708
9.806
9.554
9.546
9.592
9.55
9.576
9.478
9.556
9.438
9.668
9.716
9.792
9.71
9.724
9.652
9.92
9.854
7.492
9.692
9.566
9.522
9.432
9.48
9.474
9.694
9.646
9.654
9.672
9.712
9.794
9.794
9.794
9.776
9.76
9.892
9.58
9.526
7.414
9.454
9.46
9.502
9.658
9.72
9.728
9.53
9.626
9.694
9.774
9.732
9.722
9.668
9.678
9.878
9.764
9.652
9.73
9.852
7.462
9.66
9.822
9.814
9.69
9.762
9.798
9.82
9.56
9.454
9.348
9.336
9.43
9.444
9.352
9.356
9.458
9.376
9.28
9.404
7.352
9.458
9.43
9.492
9.622
9.54
9.574
9.548
9.706
9.68
9.91
9.74
9.75
9.638
9.592
9.582
9.552
9.712
9.838
9.828
7.628
9.868
9.92
9.8
9.75
9.552
9.508
9.672
9.758
9.818
9.664
9.744
9.71
9.78
9.784
9.746
9.724
9.576
9.366
9.24
7.392
9.486
9.648
9.586
9.678
9.704
9.704
9.772
9.716
9.686
9.768
9.776
9.732
9.772
9.694
9.814
9.792
9.828
9.832
9.844
7.55
9.746
9.712
9.766
9.82
9.848
9.984
9.56
9.716
9.568
9.358
9.482
9.406
9.55
9.512
9.58
9.56
9.922
10.02
10.046
7.428
9.44
9.434
9.4
9.264
9.248
9.268
9.268
9.278
9.476
9.514
9.526
9.546
9.664
9.828
9.662
9.732
9.504
9.404
9.402
7.3
9.484
9.478
9.612
9.688
9.566
9.532
9.752
9.806
9.824
9.724
9.774
9.808
9.7
9.514
9.424
9.28
9.29
9.352
9.286
7.434
9.554
9.66
9.646
9.72
9.596
9.668
9.6
9.588
9.526
9.45
9.432
9.45
9.448
9.456
9.582
9.754
9.61
9.426
9.596
7.52
9.654
9.526
9.41
9.352
9.442
9.48
9.502
9.406
9.32
9.314
9.406
9.5
9.452
9.516
9.59
9.778
9.89
9.934
9.838
7.434
9.628
9.63
9.87
9.976
9.846
9.768
9.714
9.812
9.898
9.71
9.698
9.692
9.73
10.056
9.792
9.588
9.44
9.294
9.534
7.414
9.76
9.83
9.69
9.684
9.724
9.944
9.972
9.98
9.98
9.992
10.126
10.002
9.808
9.458
9.554
9.718
9.57
9.688
9.522
7.294
9.126
9.148
9.31
9.322
9.348
9.396
9.428
9.316
9.416
9.5
9.524
9.612
9.662
9.834
9.668
9.664
9.72
9.75
9.71
9.066
9.002
8.94
9.1
8.986
8.95
9.276
9.178
9.284
9.17
9.32
9.218
9.044
9.03
8.798
8.83
9.698
9.51
9.492
9.342
9.128
9.094
9.162
9.142
9.154
9.138
9.436
9.472
9.542
9.428
9.448
9.322
9.226
9.308
8.984
9.11
9.85
9.638
9.528
9.344
9.364
9.348
9.18
9.116
8.982
8.97
9.634
9.52
9.38
9.55
9.432
9.278
9.206
9.408
9.254
9.148
9.576
9.586
9.282
9.31
9.448
9.298
9.136
8.998
8.902
9.054
9.424
9.508
9.532
9.39
9.236
9.316
9.284
9.166
8.84
8.766
9.822
9.66
9.494
9.31
9.196
9.106
8.942
9.048
9.022
9.062
9.168
9.188
9.174
9.108
9.18
9.078
9.158
9.076
9.132
8.948
9.87
9.926
9.912
10.022
9.732
9.578
9.628
9.438
9.256
9.002
10.006
9.698
9.58
9.35
9.42
9.378
9.254
9.164
9.21
9.098
9.36
9.374
9.312
9.154
9.046
8.874
8.79
9.042
9.006
9.048
9.318
9.226
9.23
9.284
9.296
9.276
9.338
9.126
8.944
8.854
9.642
9.67
9.684
9.578
9.466
9.382
9.208
9.042
8.954
8.774
9.586
9.378
9.216
9.114
9.064
8.774
8.82
8.852
8.962
8.976
9.57
9.586
9.626
9.44
9.396
9.29
9.254
9.074
9.126
8.978
9.424
9.246
9.29
9.384
9.426
9.526
9.412
9.454
9.41
9.164
9.772
9.71
9.516
9.592
9.43
9.312
9.376
9.1
9.02
8.94
)
;

boundaryField
{
    flow
    {
        type            calculated;
        value           nonuniform List<scalar> 
48
(
7.42
7.458
7.434
7.374
7.492
7.414
7.462
7.352
7.628
7.392
7.55
7.428
7.3
7.434
7.52
7.434
7.414
7.294
7.294
9.126
9.148
9.31
9.322
9.348
9.396
9.428
9.316
9.416
9.5
9.524
9.612
9.662
9.834
9.668
9.664
9.72
9.75
9.71
9.772
9.71
9.516
9.592
9.43
9.312
9.376
9.1
9.02
8.94
)
;
    }
    obstacle
    {
        type            calculated;
        value           nonuniform List<scalar> 0();
    }
    frontAndBack
    {
        type            empty;
    }
    procBoundary2to0
    {
        type            processor;
        value           nonuniform List<scalar> 
31
(
7.446
9.654
9.586
9.41
9.584
9.506
9.594
9.576
9.706
9.648
9.572
9.776
9.652
9.66
9.618
9.57
9.588
9.68
9.482
9.382
9.378
9.31
9.24
9.124
9.054
8.94
9.39
9.378
9.138
9.172
9.172
)
;
    }
    procBoundary2to3
    {
        type            processor;
        value           nonuniform List<scalar> 
19
(
8.798
9.01
9.068
9
8.914
8.898
9.104
8.748
9.03
8.836
8.868
9.208
9.134
8.748
8.81
8.85
9.138
8.982
8.874
)
;
    }
}


// ************************************************************************* //
