/*--------------------------------*- C++ -*----------------------------------*\
| =========                 |                                                 |
| \\      /  F ield         | OpenFOAM: The Open Source CFD Toolbox           |
|  \\    /   O peration     | Version:  2406                                  |
|   \\  /    A nd           | Website:  www.openfoam.com                      |
|    \\/     M anipulation  |                                                 |
\*---------------------------------------------------------------------------*/
FoamFile
{
    version     2.0;
    format      ascii;
    arch        "LSB;label=32;scalar=64";
    class       volScalarField;
    location    "0.001";
    object      iDofMean;
}
// * * * * * * * * * * * * * * * * * * * * * * * * * * * * * * * * * * * * * //

dimensions      [0 -3 0 0 0 0 0];

internalField   nonuniform List<scalar> 
546
(
1.545437315e+20
1.994072352e+20
2.00906851e+20
2.010734749e+20
2.003236671e+20
1.997404832e+20
1.972827796e+20
1.966995957e+20
1.948667321e+20
1.958664759e+20
1.943252042e+20
1.964913158e+20
1.960330999e+20
1.961164118e+20
1.970744997e+20
1.941169242e+20
1.919508126e+20
1.922007486e+20
1.935753963e+20
1.930338684e+20
1.553351954e+20
1.964080038e+20
1.961997238e+20
1.968245637e+20
1.955748839e+20
1.968245637e+20
1.993655792e+20
1.992822673e+20
1.975327156e+20
1.973660916e+20
1.967412517e+20
1.939919562e+20
1.942418922e+20
1.915342527e+20
1.912426607e+20
1.942835482e+20
1.955748839e+20
1.962830358e+20
2.00823539e+20
2.027397146e+20
1.548353234e+20
2.030313066e+20
2.012400989e+20
2.024897787e+20
2.033228985e+20
2.019899068e+20
2.012400989e+20
1.999904191e+20
2.023648107e+20
2.014483789e+20
1.970744997e+20
1.993655792e+20
1.958248199e+20
1.970744997e+20
1.963246918e+20
1.973244356e+20
1.969495317e+20
1.971994676e+20
1.984908034e+20
1.959081319e+20
1.535856437e+20
1.978243075e+20
2.021981867e+20
2.042393303e+20
1.989906753e+20
1.988240513e+20
1.997821392e+20
1.989073633e+20
1.994488912e+20
1.974077476e+20
1.990323313e+20
1.965746278e+20
2.013650669e+20
2.023648107e+20
2.039477384e+20
2.022398427e+20
2.025314347e+20
2.010318189e+20
2.066137219e+20
2.052390742e+20
1.560433472e+20
2.018649388e+20
1.992406113e+20
1.983241794e+20
1.964496598e+20
1.974494036e+20
1.973244356e+20
2.019065948e+20
2.00906851e+20
2.010734749e+20
2.014483789e+20
2.022814987e+20
2.039893944e+20
2.039893944e+20
2.039893944e+20
2.036144905e+20
2.032812425e+20
2.06030538e+20
1.995322032e+20
1.984074914e+20
1.544187635e+20
1.969078757e+20
1.970328437e+20
1.979076195e+20
2.011567869e+20
2.024481227e+20
2.026147466e+20
1.984908034e+20
2.00490291e+20
2.019065948e+20
2.035728345e+20
2.026980586e+20
2.024897787e+20
2.013650669e+20
2.015733468e+20
2.057389461e+20
2.033645545e+20
2.010318189e+20
2.026564026e+20
2.051974182e+20
1.554185073e+20
2.011984429e+20
2.045725783e+20
2.044059543e+20
2.018232828e+20
2.033228985e+20
2.040727064e+20
2.045309223e+20
1.991156433e+20
1.969078757e+20
1.947001081e+20
1.944501721e+20
1.964080038e+20
1.966995957e+20
1.947834201e+20
1.948667321e+20
1.969911877e+20
1.95283292e+20
1.932838044e+20
1.958664759e+20
1.531274278e+20
1.969911877e+20
1.964080038e+20
1.976993395e+20
2.00406979e+20
1.986990834e+20
1.994072352e+20
1.988657073e+20
2.021565307e+20
2.016150028e+20
2.064054419e+20
2.028646826e+20
2.030729626e+20
2.00740227e+20
1.997821392e+20
1.995738592e+20
1.989490193e+20
2.022814987e+20
2.049058262e+20
2.046975463e+20
1.588759547e+20
2.055306661e+20
2.066137219e+20
2.041143624e+20
2.030729626e+20
1.989490193e+20
1.980325875e+20
2.014483789e+20
2.032395865e+20
2.044892663e+20
2.012817549e+20
2.029479946e+20
2.022398427e+20
2.036978024e+20
2.037811144e+20
2.029896506e+20
2.025314347e+20
1.994488912e+20
1.95075012e+20
1.924506845e+20
1.539605476e+20
1.975743716e+20
2.009485069e+20
1.996571712e+20
2.015733468e+20
2.021148747e+20
2.021148747e+20
2.035311785e+20
2.023648107e+20
2.017399708e+20
2.034478665e+20
2.036144905e+20
2.026980586e+20
2.035311785e+20
2.019065948e+20
2.044059543e+20
2.039477384e+20
2.046975463e+20
2.047808582e+20
2.050307942e+20
1.57251371e+20
2.029896506e+20
2.022814987e+20
2.034062105e+20
2.045309223e+20
2.051141062e+20
2.079467137e+20
1.991156433e+20
2.023648107e+20
1.992822673e+20
1.949083881e+20
1.974910596e+20
1.959081319e+20
1.989073633e+20
1.981158995e+20
1.995322032e+20
1.991156433e+20
2.066553779e+20
2.086965215e+20
2.092380494e+20
1.547103555e+20
1.966162837e+20
1.964913158e+20
1.957831639e+20
1.929505564e+20
1.926173085e+20
1.930338684e+20
1.930338684e+20
1.932421484e+20
1.973660916e+20
1.981575555e+20
1.984074914e+20
1.988240513e+20
2.012817549e+20
2.046975463e+20
2.012400989e+20
2.026980586e+20
1.979492755e+20
1.958664759e+20
1.958248199e+20
1.52044372e+20
1.975327156e+20
1.974077476e+20
2.001986991e+20
2.017816268e+20
1.992406113e+20
1.985324594e+20
2.031146185e+20
2.042393303e+20
2.046142343e+20
2.025314347e+20
2.035728345e+20
2.042809863e+20
2.020315627e+20
1.981575555e+20
1.962830358e+20
1.932838044e+20
1.934920843e+20
1.947834201e+20
1.934087723e+20
1.548353234e+20
1.989906753e+20
2.011984429e+20
2.00906851e+20
2.024481227e+20
1.998654511e+20
2.013650669e+20
1.999487631e+20
1.996988272e+20
1.984074914e+20
1.968245637e+20
1.964496598e+20
1.968245637e+20
1.967829077e+20
1.969495317e+20
1.995738592e+20
2.031562745e+20
2.001570431e+20
1.963246918e+20
1.998654511e+20
1.566265311e+20
2.010734749e+20
1.984074914e+20
1.959914439e+20
1.947834201e+20
1.966579397e+20
1.974494036e+20
1.979076195e+20
1.959081319e+20
1.941169242e+20
1.939919562e+20
1.959081319e+20
1.978659635e+20
1.968662197e+20
1.981992115e+20
1.997404832e+20
2.036561464e+20
2.05988882e+20
2.069053138e+20
2.049058262e+20
1.548353234e+20
2.00531947e+20
2.00573603e+20
2.055723221e+20
2.077800897e+20
2.050724502e+20
2.034478665e+20
2.023231547e+20
2.043642983e+20
2.06155506e+20
2.022398427e+20
2.019899068e+20
2.018649388e+20
2.026564026e+20
2.094463294e+20
2.039477384e+20
1.996988272e+20
1.966162837e+20
1.935753963e+20
1.985741154e+20
1.544187635e+20
2.032812425e+20
2.047392022e+20
2.018232828e+20
2.016983148e+20
2.025314347e+20
2.071135938e+20
2.076967777e+20
2.078634017e+20
2.078634017e+20
2.081133376e+20
2.109042891e+20
2.083216176e+20
2.042809863e+20
1.969911877e+20
1.989906753e+20
2.024064667e+20
1.993239232e+20
2.017816268e+20
1.983241794e+20
1.51919404e+20
1.900762929e+20
1.905345089e+20
1.939086442e+20
1.941585802e+20
1.947001081e+20
1.956998519e+20
1.963663478e+20
1.940336122e+20
1.961164118e+20
1.978659635e+20
1.983658354e+20
2.001986991e+20
2.012400989e+20
2.048225142e+20
2.013650669e+20
2.012817549e+20
2.024481227e+20
2.030729626e+20
2.022398427e+20
1.948180054e+20
1.948104698e+20
1.948464167e+20
1.997560501e+20
1.986785348e+20
1.993224491e+20
1.938856305e+20
1.931563426e+20
1.967399787e+20
1.956789962e+20
2.002761759e+20
1.994848823e+20
1.971130878e+20
1.982194651e+20
1.945218937e+20
1.966499694e+20
2.027062158e+20
2.001434755e+20
2.01147768e+20
1.993493111e+20
1.961503134e+20
1.968014246e+20
1.996848861e+20
2.006780011e+20
2.023929788e+20
2.035093341e+20
1.972299277e+20
1.993437434e+20
2.022073327e+20
2.011844685e+20
2.030267499e+20
2.017355254e+20
2.010797598e+20
2.043219041e+20
1.986343138e+20
2.02885754e+20
2.058832967e+20
2.028373085e+20
2.019106546e+20
1.993919905e+20
2.012216857e+20
2.022981861e+20
2.00077193e+20
2.001072681e+20
1.985900943e+20
1.997678624e+20
2.013684955e+20
2.0035393e+20
1.98774343e+20
2.037878328e+20
2.026829282e+20
2.007833302e+20
2.006438618e+20
2.065170256e+20
2.046039574e+20
2.037320407e+20
2.001561878e+20
2.017429397e+20
1.966975962e+20
1.986664618e+20
2.030267499e+20
2.012161476e+20
1.991182187e+20
1.975170263e+20
1.968213128e+20
2.016385997e+20
1.969791068e+20
2.001013844e+20
2.019954198e+20
2.003735863e+20
1.984711116e+20
2.016056806e+20
2.023438641e+20
2.012048303e+20
1.954505047e+20
1.952246468e+20
2.052980447e+20
2.033003127e+20
2.01190152e+20
1.986664631e+20
1.976115572e+20
1.970611129e+20
1.948900065e+20
1.98614587e+20
1.994744871e+20
2.018167636e+20
1.916282299e+20
1.933667971e+20
1.94408935e+20
1.943559744e+20
1.972677341e+20
1.964551719e+20
1.995977079e+20
1.992292224e+20
2.019065635e+20
1.992779078e+20
2.063013339e+20
2.088984372e+20
2.100481132e+20
2.138598597e+20
2.091295876e+20
2.072755713e+20
2.098413087e+20
2.071755591e+20
2.046481755e+20
2.004805237e+20
2.091439879e+20
2.041000448e+20
2.030126019e+20
1.995200247e+20
2.024250619e+20
2.029474101e+20
2.016900171e+20
2.011609293e+20
2.036311268e+20
2.026185075e+20
1.956413866e+20
1.972812752e+20
1.973333337e+20
1.953375716e+20
1.943882282e+20
1.920404476e+20
1.915771815e+20
1.984828797e+20
1.991207305e+20
2.015049743e+20
1.947635085e+20
1.941665305e+20
1.955956502e+20
1.981116481e+20
1.997604432e+20
2.0074005e+20
2.035207902e+20
2.003267831e+20
1.977499224e+20
1.971844639e+20
2.015357104e+20
2.035107671e+20
2.052164952e+20
2.043853245e+20
2.034135494e+20
2.030339733e+20
2.006874502e+20
1.984828783e+20
1.979710203e+20
1.954028135e+20
2.003652064e+20
1.973654588e+20
1.95298972e+20
1.9448401e+20
1.947750263e+20
1.898763677e+20
1.922310299e+20
1.943121503e+20
1.981479e+20
1.999014864e+20
2.00030778e+20
2.017429397e+20
2.039874015e+20
2.014405384e+20
2.019093292e+20
2.010430198e+20
2.016900157e+20
1.991853186e+20
2.017739048e+20
1.999460277e+20
1.969791054e+20
1.945874421e+20
1.968671265e+20
2.002455507e+20
2.02553995e+20
2.061502497e+20
2.051336129e+20
2.0752678e+20
2.080530825e+20
2.040883714e+20
2.042529519e+20
2.043525904e+20
2.016563591e+20
2.046840724e+20
2.026399505e+20
2.015191174e+20
2.043489936e+20
1.997560501e+20
1.994302675e+20
1.990997425e+20
)
;

boundaryField
{
    flow
    {
        type            calculated;
        value           nonuniform List<scalar> 
48
(
1.545437315e+20
1.553351954e+20
1.548353234e+20
1.535856437e+20
1.560433472e+20
1.544187635e+20
1.554185073e+20
1.531274278e+20
1.588759547e+20
1.539605476e+20
1.57251371e+20
1.547103555e+20
1.52044372e+20
1.548353234e+20
1.566265311e+20
1.548353234e+20
1.544187635e+20
1.51919404e+20
1.51919404e+20
1.900762929e+20
1.905345089e+20
1.939086442e+20
1.941585802e+20
1.947001081e+20
1.956998519e+20
1.963663478e+20
1.940336122e+20
1.961164118e+20
1.978659635e+20
1.983658354e+20
2.001986991e+20
2.012400989e+20
2.048225142e+20
2.013650669e+20
2.012817549e+20
2.024481227e+20
2.030729626e+20
2.022398427e+20
2.042529519e+20
2.043525904e+20
2.016563591e+20
2.046840724e+20
2.026399505e+20
2.015191174e+20
2.043489936e+20
1.997560501e+20
1.994302675e+20
1.990997425e+20
)
;
    }
    obstacle
    {
        type            calculated;
        value           nonuniform List<scalar> 0();
    }
    frontAndBack
    {
        type            empty;
    }
    procBoundary2to0
    {
        type            processor;
        value           nonuniform List<scalar> 
31
(
1.550852594e+20
2.010734749e+20
1.996571712e+20
1.959914439e+20
1.996155152e+20
1.979909315e+20
1.998237952e+20
1.994488912e+20
2.021565307e+20
2.009485069e+20
1.993655792e+20
2.036144905e+20
2.010318189e+20
2.011984429e+20
2.003236671e+20
1.993239232e+20
1.996988272e+20
2.016150028e+20
1.974910596e+20
1.9540826e+20
2.015225297e+20
2.014758358e+20
2.013848884e+20
2.002828807e+20
2.001820002e+20
1.990997425e+20
1.962684423e+20
1.973654575e+20
1.936460497e+20
1.957216756e+20
1.957216756e+20
)
;
    }
    procBoundary2to3
    {
        type            processor;
        value           nonuniform List<scalar> 
19
(
1.973734702e+20
2.021294574e+20
2.034306252e+20
2.019051184e+20
1.999758028e+20
1.996168618e+20
2.042382457e+20
1.962517751e+20
2.025781369e+20
1.982259585e+20
1.989438434e+20
2.065713715e+20
2.049112613e+20
1.962517751e+20
1.976426799e+20
1.985400331e+20
2.050009969e+20
2.015013096e+20
1.990784468e+20
)
;
    }
}


// ************************************************************************* //
