/*--------------------------------*- C++ -*----------------------------------*\
| =========                 |                                                 |
| \\      /  F ield         | OpenFOAM: The Open Source CFD Toolbox           |
|  \\    /   O peration     | Version:  2406                                  |
|   \\  /    A nd           | Website:  www.openfoam.com                      |
|    \\/     M anipulation  |                                                 |
\*---------------------------------------------------------------------------*/
FoamFile
{
    version     2.0;
    format      ascii;
    arch        "LSB;label=32;scalar=64";
    class       volScalarField;
    location    "0.001";
    object      iDof;
}
// * * * * * * * * * * * * * * * * * * * * * * * * * * * * * * * * * * * * * //

dimensions      [0 -3 0 0 0 0 0];

internalField   nonuniform List<scalar> 
546
(
1.874519654e+20
1.24967977e+20
1.041399808e+20
1.874519654e+20
1.874519654e+20
2.499359539e+20
2.499359539e+20
1.666239693e+20
1.874519654e+20
2.707639501e+20
2.499359539e+20
2.915919462e+20
2.291079578e+20
1.457959731e+20
1.874519654e+20
2.915919462e+20
2.082799616e+20
8.331198464e+19
1.24967977e+20
1.874519654e+20
2.082799616e+20
1.24967977e+20
2.707639501e+20
1.874519654e+20
2.915919462e+20
2.082799616e+20
1.666239693e+20
1.666239693e+20
1.666239693e+20
1.874519654e+20
2.915919462e+20
2.499359539e+20
2.082799616e+20
2.082799616e+20
2.291079578e+20
1.041399808e+20
2.499359539e+20
1.874519654e+20
1.457959731e+20
3.332479385e+20
8.331198464e+19
2.499359539e+20
1.24967977e+20
1.666239693e+20
2.499359539e+20
2.291079578e+20
1.874519654e+20
1.666239693e+20
3.332479385e+20
2.707639501e+20
1.041399808e+20
1.24967977e+20
1.666239693e+20
1.457959731e+20
1.874519654e+20
1.874519654e+20
1.24967977e+20
2.499359539e+20
1.457959731e+20
2.499359539e+20
2.291079578e+20
1.874519654e+20
1.457959731e+20
2.291079578e+20
2.499359539e+20
1.874519654e+20
1.457959731e+20
1.457959731e+20
2.499359539e+20
1.24967977e+20
1.666239693e+20
1.24967977e+20
1.666239693e+20
3.332479385e+20
2.082799616e+20
1.041399808e+20
3.124199424e+20
1.457959731e+20
1.457959731e+20
2.082799616e+20
8.331198464e+19
2.291079578e+20
2.291079578e+20
3.332479385e+20
2.499359539e+20
1.24967977e+20
1.666239693e+20
1.874519654e+20
1.457959731e+20
1.24967977e+20
1.24967977e+20
1.874519654e+20
1.041399808e+20
4.373879193e+20
1.457959731e+20
2.499359539e+20
1.041399808e+20
2.082799616e+20
2.915919462e+20
2.082799616e+20
1.666239693e+20
2.707639501e+20
1.874519654e+20
1.457959731e+20
6.248398848e+19
2.499359539e+20
2.291079578e+20
2.082799616e+20
2.915919462e+20
2.291079578e+20
3.540759347e+20
8.331198464e+19
1.666239693e+20
1.041399808e+20
1.457959731e+20
1.24967977e+20
2.082799616e+20
1.874519654e+20
2.291079578e+20
2.707639501e+20
1.666239693e+20
1.666239693e+20
1.457959731e+20
2.707639501e+20
1.457959731e+20
2.499359539e+20
1.041399808e+20
1.874519654e+20
2.915919462e+20
1.874519654e+20
3.332479385e+20
1.874519654e+20
1.041399808e+20
2.915919462e+20
2.499359539e+20
1.666239693e+20
1.666239693e+20
2.291079578e+20
2.082799616e+20
1.24967977e+20
1.666239693e+20
2.291079578e+20
1.874519654e+20
1.457959731e+20
2.291079578e+20
1.874519654e+20
1.457959731e+20
1.457959731e+20
1.874519654e+20
2.499359539e+20
2.082799616e+20
2.082799616e+20
1.666239693e+20
1.874519654e+20
2.082799616e+20
2.082799616e+20
2.915919462e+20
1.666239693e+20
1.666239693e+20
3.124199424e+20
1.457959731e+20
2.499359539e+20
2.499359539e+20
1.666239693e+20
1.457959731e+20
2.499359539e+20
1.24967977e+20
2.082799616e+20
2.499359539e+20
1.666239693e+20
1.874519654e+20
2.707639501e+20
1.874519654e+20
1.666239693e+20
2.707639501e+20
2.082799616e+20
2.082799616e+20
2.707639501e+20
2.082799616e+20
2.082799616e+20
1.874519654e+20
1.874519654e+20
1.666239693e+20
1.457959731e+20
1.874519654e+20
2.082799616e+20
3.124199424e+20
2.915919462e+20
2.499359539e+20
2.915919462e+20
2.499359539e+20
3.749039309e+20
1.041399808e+20
1.666239693e+20
1.24967977e+20
2.082799616e+20
1.24967977e+20
2.915919462e+20
1.041399808e+20
1.457959731e+20
1.457959731e+20
1.666239693e+20
1.457959731e+20
2.082799616e+20
2.291079578e+20
2.291079578e+20
2.082799616e+20
1.666239693e+20
1.874519654e+20
1.457959731e+20
2.082799616e+20
1.24967977e+20
1.24967977e+20
1.874519654e+20
1.041399808e+20
2.915919462e+20
1.457959731e+20
2.707639501e+20
2.291079578e+20
1.666239693e+20
1.457959731e+20
2.082799616e+20
2.082799616e+20
1.457959731e+20
2.499359539e+20
8.331198464e+19
2.291079578e+20
1.874519654e+20
2.291079578e+20
1.041399808e+20
3.124199424e+20
2.291079578e+20
3.124199424e+20
1.666239693e+20
2.082799616e+20
3.124199424e+20
2.082799616e+20
2.707639501e+20
1.041399808e+20
3.124199424e+20
2.499359539e+20
2.291079578e+20
2.915919462e+20
1.457959731e+20
2.291079578e+20
2.707639501e+20
1.041399808e+20
1.457959731e+20
1.874519654e+20
2.915919462e+20
1.874519654e+20
1.457959731e+20
2.291079578e+20
1.666239693e+20
2.082799616e+20
2.082799616e+20
1.457959731e+20
2.291079578e+20
2.499359539e+20
8.331198464e+19
1.041399808e+20
1.666239693e+20
2.291079578e+20
2.291079578e+20
1.041399808e+20
2.082799616e+20
2.499359539e+20
1.041399808e+20
2.707639501e+20
2.082799616e+20
6.248398848e+19
2.499359539e+20
1.666239693e+20
2.915919462e+20
2.915919462e+20
2.499359539e+20
2.915919462e+20
2.499359539e+20
2.499359539e+20
1.874519654e+20
2.082799616e+20
1.457959731e+20
2.082799616e+20
1.874519654e+20
2.082799616e+20
1.457959731e+20
1.874519654e+20
2.499359539e+20
2.707639501e+20
2.291079578e+20
1.041399808e+20
8.331198464e+19
1.457959731e+20
1.457959731e+20
1.457959731e+20
6.248398848e+19
2.291079578e+20
2.082799616e+20
2.499359539e+20
2.082799616e+20
1.041399808e+20
2.291079578e+20
1.457959731e+20
2.707639501e+20
1.874519654e+20
2.082799616e+20
1.874519654e+20
1.874519654e+20
1.457959731e+20
1.874519654e+20
6.248398848e+19
1.666239693e+20
8.331198464e+19
2.082799616e+20
2.291079578e+20
1.874519654e+20
1.666239693e+20
2.707639501e+20
1.457959731e+20
2.291079578e+20
1.457959731e+20
2.915919462e+20
1.457959731e+20
3.124199424e+20
1.457959731e+20
2.915919462e+20
1.041399808e+20
2.291079578e+20
3.332479385e+20
2.291079578e+20
1.874519654e+20
2.082799616e+20
1.666239693e+20
2.291079578e+20
2.499359539e+20
1.457959731e+20
2.915919462e+20
1.24967977e+20
2.707639501e+20
1.874519654e+20
1.24967977e+20
1.874519654e+20
1.24967977e+20
1.874519654e+20
1.874519654e+20
1.666239693e+20
2.707639501e+20
1.666239693e+20
1.874519654e+20
1.874519654e+20
3.332479385e+20
8.331198464e+19
1.457959731e+20
2.499359539e+20
2.291079578e+20
1.874519654e+20
1.874519654e+20
1.041399808e+20
2.499359539e+20
1.457959731e+20
2.148886007e+20
1.514855908e+20
1.743592096e+20
2.634145716e+20
1.989880718e+20
1.336239882e+20
2.71724148e+20
2.735925533e+20
1.695303565e+20
2.133903993e+20
2.363774608e+20
4.328159738e+20
1.525643094e+20
2.414633573e+20
1.547684992e+20
2.672479765e+20
2.299204345e+20
1.683646482e+20
2.754868294e+20
2.133903993e+20
1.074442996e+20
2.380487872e+20
2.833337175e+20
2.19512143e+20
1.326587145e+20
2.449773118e+20
2.299204329e+20
2.946381343e+20
1.059564728e+20
1.493732795e+20
8.595544028e+19
1.947671882e+20
2.179490135e+20
2.195121445e+20
1.547684992e+20
1.558946518e+20
1.463130028e+20
2.525469706e+20
2.119129457e+20
2.133904008e+20
1.504220205e+20
2.164079869e+20
1.307694072e+20
1.53658499e+20
1.989880704e+20
2.227066471e+20
8.360743015e+19
2.315013897e+20
1.059564728e+20
2.347294409e+20
3.00844041e+20
2.596895843e+20
1.743592108e+20
8.780485781e+19
1.768782861e+20
2.227066471e+20
8.360743015e+19
2.315013913e+20
2.966781239e+20
6.40171198e+19
2.148886007e+20
3.895343791e+20
2.179490135e+20
2.414633573e+20
2.210978576e+20
1.113533243e+20
1.881167191e+20
1.473190672e+20
1.271477674e+20
1.920513607e+20
1.719108806e+20
2.596895843e+20
1.743592108e+20
1.317072858e+20
1.326587136e+20
1.781653177e+20
2.299204329e+20
1.683646482e+20
2.754868312e+20
2.77407521e+20
2.363774608e+20
2.81330383e+20
1.307694072e+20
3.073170002e+20
1.989880718e+20
2.004359824e+20
1.672148603e+20
4.209116176e+19
1.695303554e+20
1.707123183e+20
1.933997393e+20
1.731263907e+20
2.397439165e+20
1.097560723e+20
1.547685003e+20
2.449773118e+20
1.672148603e+20
1.473190672e+20
2.331042418e+20
1.707123206e+20
4.297772044e+19
4.328159768e+19
2.179490119e+20
1.756097132e+20
1.989880704e+20
2.227066471e+20
2.508222921e+20
1.894102292e+20
3.178694185e+20
2.56068481e+20
1.289331604e+20
2.164079869e+20
1.961541121e+20
2.195121445e+20
1.768782861e+20
2.004359824e+20
3.344297206e+20
2.104558088e+20
2.119129442e+20
2.133903993e+20
2.363774608e+20
1.731263895e+20
2.397439131e+20
2.634145716e+20
1.989880718e+20
1.113533235e+20
1.881167178e+20
2.735925533e+20
2.542955365e+20
2.56068481e+20
2.148886007e+20
1.947671896e+20
2.833337195e+20
2.195121445e+20
2.432076416e+20
2.004359809e+20
1.045092877e+20
2.315013897e+20
1.695303554e+20
1.280342396e+20
1.719108806e+20
2.164079869e+20
1.525643084e+20
1.317072849e+20
1.768782848e+20
1.781653189e+20
2.71724148e+20
2.104558102e+20
1.907216524e+20
1.280342396e+20
2.79355179e+20
2.596895843e+20
1.525643094e+20
3.073170023e+20
2.432076433e+20
3.563306353e+20
2.926260075e+20
8.418232409e+19
2.966781239e+20
3.200856012e+20
2.793551809e+20
2.164079869e+20
2.397439131e+20
6.58536429e+19
1.768782861e+20
1.113533235e+20
1.881167178e+20
1.052279051e+20
1.48339062e+20
1.707123195e+20
1.933997406e+20
1.731263907e+20
1.74359212e+20
1.756097144e+20
3.31646784e+20
2.227066471e+20
1.254111452e+20
2.315013897e+20
8.476517826e+19
1.493732806e+20
1.719108806e+20
1.082039934e+20
1.307694072e+20
1.317072858e+20
1.547685003e+20
2.895186412e+20
)
;

boundaryField
{
    flow
    {
        type            zeroGradient;
    }
    obstacle
    {
        type            calculated;
        value           nonuniform List<scalar> 0();
    }
    frontAndBack
    {
        type            empty;
    }
    procBoundary2to0
    {
        type            processor;
        value           nonuniform List<scalar> 
31
(
1.666239693e+20
1.874519654e+20
2.915919462e+20
1.457959731e+20
2.915919462e+20
1.874519654e+20
1.24967977e+20
2.082799616e+20
3.540759347e+20
3.124199424e+20
2.707639501e+20
2.499359539e+20
1.874519654e+20
2.707639501e+20
1.457959731e+20
2.082799616e+20
1.666239693e+20
1.874519654e+20
2.499359539e+20
2.082799616e+20
1.933997406e+20
2.164079869e+20
6.538470404e+19
1.317072867e+20
2.432076433e+20
2.227066471e+20
1.881167178e+20
3.156837132e+20
1.695303565e+20
2.77407521e+20
2.77407521e+20
)
;
    }
    procBoundary2to3
    {
        type            processor;
        value           nonuniform List<scalar> 
19
(
3.813763348e+20
1.570373143e+20
2.243390221e+20
2.019051184e+20
2.916407266e+20
8.973560883e+19
1.794712177e+20
3.365085307e+20
3.140746309e+20
2.243390205e+20
2.019051184e+20
2.692068265e+20
1.570373143e+20
2.243390205e+20
1.121695118e+20
2.692068246e+20
2.019051184e+20
1.12169511e+20
1.121695102e+20
)
;
    }
}


// ************************************************************************* //
