/*--------------------------------*- C++ -*----------------------------------*\
| =========                 |                                                 |
| \\      /  F ield         | OpenFOAM: The Open Source CFD Toolbox           |
|  \\    /   O peration     | Version:  2406                                  |
|   \\  /    A nd           | Website:  www.openfoam.com                      |
|    \\/     M anipulation  |                                                 |
\*---------------------------------------------------------------------------*/
FoamFile
{
    version     2.0;
    format      ascii;
    arch        "LSB;label=32;scalar=64";
    class       volScalarField;
    location    "0.001";
    object      internalEMean;
}
// * * * * * * * * * * * * * * * * * * * * * * * * * * * * * * * * * * * * * //

dimensions      [1 -1 -2 0 0 0 0];

internalField   nonuniform List<scalar> 
546
(
0.311920595
0.4082289388
0.4108300228
0.4080401512
0.4063801379
0.4038397771
0.4029017119
0.3990791022
0.3933599503
0.3933567043
0.3893193222
0.4015151765
0.4052705001
0.4087300977
0.4105240397
0.4059726779
0.3883508053
0.3858816281
0.3874503433
0.3881044241
0.3192517504
0.3993887447
0.4010854778
0.4036066495
0.4000210667
0.4025607936
0.4047548318
0.4065173278
0.4044588973
0.4066627028
0.4048353409
0.3957535789
0.3948616362
0.3876417021
0.3825487246
0.3956591838
0.4071048692
0.4119040301
0.4201359067
0.4276925924
0.3161951573
0.4196226749
0.4140751038
0.4166209337
0.4233371259
0.4179168455
0.4177900775
0.4179040671
0.4206562671
0.4152875622
0.4057938237
0.4139268573
0.4027395977
0.4053003088
0.4080581825
0.4103175456
0.4037055454
0.4034479638
0.411981751
0.4013587207
0.3124848309
0.3965642149
0.409552455
0.4188768353
0.406451707
0.3990353874
0.4062528623
0.4056809795
0.4048378051
0.40455882
0.4065044543
0.4080545671
0.4119602227
0.4201397995
0.4249524531
0.4215993078
0.4322868786
0.4228735923
0.4302788041
0.428760133
0.319920365
0.4108647463
0.4018709833
0.3966287913
0.3927853158
0.4030019875
0.403271258
0.4057867106
0.4042802566
0.4086812677
0.4120440334
0.4104278653
0.418882797
0.4217669853
0.4159116845
0.4148956059
0.4185576166
0.4399564792
0.4296832874
0.4276478509
0.3166343697
0.4076999819
0.4084379471
0.4170193255
0.4217346938
0.410902814
0.4083776332
0.4069692811
0.4115205298
0.4200094822
0.4213770228
0.4190727405
0.411737305
0.4157754431
0.4156657367
0.4253601628
0.4139335317
0.4015332996
0.4070267278
0.4125846305
0.3216289752
0.4156964953
0.4202617237
0.4128570014
0.4156185143
0.4213490902
0.4363579189
0.4392661913
0.4172558501
0.4123474122
0.4134221506
0.4061667532
0.4070176973
0.4097672237
0.3957018384
0.3992756796
0.4115866734
0.4153732577
0.4116615403
0.4202808698
0.3211055699
0.4145904038
0.4044507765
0.4120467877
0.4142428685
0.409608455
0.4030964207
0.3952793129
0.4015451173
0.4061991463
0.4138856224
0.4029911514
0.4086456088
0.4107428341
0.4071719756
0.4104190454
0.4072834419
0.4056781326
0.4157816331
0.4153960896
0.3324362662
0.4316126003
0.4383705351
0.4302410542
0.4247270836
0.4132418183
0.4107330426
0.4183706996
0.4226590579
0.4283418781
0.4163668966
0.4222968481
0.4154287477
0.413787159
0.418796627
0.4122820029
0.4103443687
0.4001498326
0.3866444707
0.383228423
0.3118535145
0.4045384829
0.4058483632
0.4026053647
0.4073811218
0.4084344134
0.4133310187
0.4154607616
0.4228653188
0.418420599
0.429415043
0.4279765285
0.420249782
0.4220613743
0.4168465911
0.4147417983
0.4171755163
0.4252908511
0.4170014947
0.4156517386
0.3207485801
0.4161405582
0.418972751
0.4175216528
0.4240256832
0.4287238953
0.437225995
0.4157659976
0.4176728631
0.4120105697
0.3996494908
0.4062057906
0.3981680943
0.4132650357
0.4085102697
0.4116113165
0.4142134748
0.4226295351
0.4368658893
0.4376222275
0.315333832
0.4012642509
0.405256031
0.4040912691
0.3954116681
0.3962975902
0.3881707175
0.3940953892
0.3901593434
0.3979097484
0.3978215326
0.397482647
0.4044503216
0.4121016984
0.4167161743
0.403311436
0.4044742659
0.4052442629
0.4029460893
0.4093376592
0.3160961826
0.4102787409
0.4051901702
0.4142375851
0.4174938899
0.4103147602
0.4037943971
0.4117440961
0.4153336652
0.4139787031
0.4095467075
0.4085070846
0.4065921801
0.4110342315
0.3992207256
0.4005203234
0.3963881007
0.3876756491
0.3859649094
0.389803046
0.317007235
0.4093455036
0.4077987087
0.4075859482
0.4109186679
0.4069902419
0.4143456531
0.4123539818
0.409082256
0.4125782092
0.40508761
0.4097775713
0.4171244119
0.409481675
0.4120922212
0.4104300361
0.4166672675
0.4084788242
0.3940627086
0.4059745634
0.335859675
0.4270698911
0.4197465346
0.4133379855
0.4079977131
0.4156404904
0.4167293882
0.4205779056
0.4140914136
0.4052390032
0.4025633843
0.4046979602
0.4099337577
0.4063510703
0.4083678328
0.4079369499
0.4171180202
0.4256174533
0.4389135971
0.425463572
0.3209984621
0.4136749824
0.4119523979
0.4322347541
0.4431639938
0.4302795975
0.4325445317
0.4223383443
0.4320810162
0.4360825964
0.4314397421
0.4224315199
0.4250652695
0.4262013379
0.435352726
0.4311684385
0.422731733
0.4100201373
0.401801332
0.4118709758
0.3162360102
0.4151099003
0.4246174521
0.4131291046
0.4189311848
0.4229218462
0.4286818585
0.425549532
0.4298034593
0.4325010954
0.43105188
0.4369021819
0.4298230478
0.4238939531
0.4134850125
0.4120279104
0.4189722707
0.4201013316
0.4232450021
0.4189729
0.3065895994
0.3832256017
0.3826679721
0.3970068698
0.3903609996
0.3940037293
0.3994097987
0.4067130933
0.3964701064
0.4000215368
0.4083521152
0.4104344471
0.4141565113
0.4092887597
0.4096187231
0.3958785029
0.4044460038
0.399724794
0.4026352885
0.4064167284
0.4194517985
0.4099906063
0.4108833371
0.4172446006
0.4120546367
0.4143082734
0.3884389493
0.3884364036
0.3882125117
0.3886446654
0.4008484045
0.4123151785
0.4091202626
0.4167077764
0.4039731494
0.4136149571
0.4163378246
0.4118616755
0.4158570605
0.4043785436
0.3992721079
0.4044347793
0.3996080355
0.4047021661
0.4097416333
0.4139525565
0.4195488072
0.4184696901
0.4213593907
0.4201682601
0.4154063922
0.4101764033
0.4216903115
0.4466178341
0.4235710147
0.4371811706
0.4270575224
0.4226319824
0.4227099817
0.4282272127
0.4333452643
0.4470587268
0.4380749536
0.41899193
0.413133806
0.4139891529
0.4351443262
0.4349278184
0.4247540978
0.4321036963
0.4289493834
0.4123817205
0.4082662124
0.4328517675
0.4335083189
0.4293022102
0.4024630988
0.4134715268
0.4020201736
0.40871216
0.4162785199
0.4143264041
0.4154594092
0.3969357983
0.3900700186
0.4070464422
0.4212646324
0.4174711807
0.4137121312
0.4040703083
0.4016545666
0.4177666811
0.4163431045
0.4238334406
0.4091528054
0.4055508766
0.4194454053
0.4156067058
0.4163521418
0.4185351779
0.4111045342
0.4051946791
0.4019628415
0.4155318568
0.4137594504
0.4210498842
0.3827136555
0.3865747316
0.3936049788
0.3883422282
0.3953884729
0.4005142283
0.4148816716
0.4084832271
0.4213884019
0.4180750454
0.4223761925
0.4309453082
0.4369212218
0.4568394091
0.4423962668
0.4433009833
0.4439139403
0.4370029215
0.4243725433
0.4190237329
0.433504718
0.4185721729
0.4160936126
0.4029894671
0.4091235933
0.4063345534
0.4015409146
0.4073921692
0.4152997508
0.4123037561
0.4059614923
0.4074029357
0.4042644803
0.3976933014
0.4017305528
0.3927779592
0.3935290006
0.4071650887
0.4120997181
0.4198917232
0.393051788
0.3830974188
0.3864647361
0.3969539129
0.4037946076
0.4114439918
0.422202527
0.416951045
0.4060236667
0.4020204509
0.4062390044
0.420719416
0.4272168651
0.4295122883
0.4249631194
0.4185575054
0.4096905522
0.4034776498
0.4141529952
0.4180189454
0.4164837748
0.4136913769
0.4075549331
0.3956120666
0.3976547844
0.3922752791
0.3975999404
0.4040656039
0.4044156828
0.4093622451
0.4123049456
0.4099427518
0.4110602367
0.411862427
0.4131900704
0.4115355692
0.4115593516
0.4166356284
0.421617178
0.4177477204
0.4164974824
0.408826655
0.4036745103
0.4155529525
0.4196149036
0.4297149031
0.4347730677
0.4363443002
0.4385870744
0.4249833674
0.4119636566
0.415711358
0.414576291
0.421411106
0.4165604375
0.404062205
0.4067269998
0.3973298803
0.4107386396
0.4131618794
)
;

boundaryField
{
    flow
    {
        type            calculated;
        value           nonuniform List<scalar> 
48
(
0.311920595
0.3192517504
0.3161951573
0.3124848309
0.319920365
0.3166343697
0.3216289752
0.3211055699
0.3324362662
0.3118535145
0.3207485801
0.315333832
0.3160961826
0.317007235
0.335859675
0.3209984621
0.3162360102
0.3065895994
0.3065895994
0.3832256017
0.3826679721
0.3970068698
0.3903609996
0.3940037293
0.3994097987
0.4067130933
0.3964701064
0.4000215368
0.4083521152
0.4104344471
0.4141565113
0.4092887597
0.4096187231
0.3958785029
0.4044460038
0.399724794
0.4026352885
0.4064167284
0.4119636566
0.415711358
0.414576291
0.421411106
0.4165604375
0.404062205
0.4067269998
0.3973298803
0.4107386396
0.4131618794
)
;
    }
    obstacle
    {
        type            calculated;
        value           nonuniform List<scalar> 0();
    }
    frontAndBack
    {
        type            empty;
    }
    procBoundary2to0
    {
        type            processor;
        value           nonuniform List<scalar> 
31
(
0.3043738359
0.3948334461
0.3980609584
0.3962644593
0.4024565702
0.4052888172
0.4118224802
0.4059044044
0.4108606308
0.4177750217
0.4121551286
0.4243193633
0.4058165762
0.4135584505
0.4152454683
0.4074878517
0.4074128525
0.4217472635
0.412416265
0.4117772991
0.4169118342
0.4151678771
0.420290305
0.4175634212
0.4208911909
0.4179761205
0.4190855471
0.4186887502
0.410756233
0.4143375215
0.4143375215
)
;
    }
    procBoundary2to3
    {
        type            processor;
        value           nonuniform List<scalar> 
19
(
0.4172090968
0.425864372
0.4221316704
0.4318302828
0.4213938192
0.4175281169
0.41660441
0.4123159974
0.4206456088
0.4142606286
0.410296132
0.4187208932
0.4237358818
0.3982158303
0.4207630645
0.4065473811
0.4270679892
0.4232224832
0.4156797052
)
;
    }
}


// ************************************************************************* //
