/*--------------------------------*- C++ -*----------------------------------*\
| =========                 |                                                 |
| \\      /  F ield         | OpenFOAM: The Open Source CFD Toolbox           |
|  \\    /   O peration     | Version:  2406                                  |
|   \\  /    A nd           | Website:  www.openfoam.com                      |
|    \\/     M anipulation  |                                                 |
\*---------------------------------------------------------------------------*/
FoamFile
{
    version     2.0;
    format      ascii;
    arch        "LSB;label=32;scalar=64";
    class       volScalarField;
    location    "0.001";
    object      internalT;
}
// * * * * * * * * * * * * * * * * * * * * * * * * * * * * * * * * * * * * * //

dimensions      [1 2 -2 0 0 0 0];

internalField   nonuniform List<scalar> 
546
(
292.3742056
296.5577475
296.2196234
293.9642481
293.8641518
292.8797842
295.8396179
293.9015778
292.4144546
290.9195088
290.2172512
296.0090595
299.4759721
301.9041471
301.7550588
302.9561712
293.0762686
290.8341671
289.9427752
291.2470116
297.7212389
294.5662857
296.1317304
297.0471662
296.2894453
296.2774353
294.0954202
295.4995372
296.6072468
298.4751645
298.0776312
295.5204415
294.4750059
293.1773661
289.7666364
295.0065257
301.5363087
303.9902631
303.0550897
305.5901109
295.8227479
299.393479
298.0650092
298.0467432
301.6105046
299.7137081
300.7391706
302.7009651
301.1194212
298.6287015
298.2781209
300.7598265
297.922288
297.9153635
301.0880819
301.2212576
296.931424
296.3658701
300.6657702
296.7745389
294.7302526
290.3890702
293.412543
297.0936465
295.8847788
290.7293593
294.5684118
295.4474079
294.0328366
296.8683366
295.8612428
300.7025974
296.358612
300.7497169
301.8337819
301.9809651
309.1904083
304.7138268
301.6735196
302.6221752
296.9908214
294.8386289
292.1831605
289.7043183
289.634546
295.6635317
296.0484551
291.1345273
291.4970638
294.4261275
296.2963157
293.9186028
297.4618911
299.5100442
295.3520103
295.1729474
298.266406
309.3317651
311.9477535
312.229998
297.0327816
299.9328289
300.2851516
305.2390301
303.7043679
294.0165384
291.9693718
297.0076516
297.3339896
301.3387548
299.8454239
299.4926864
294.5530406
299.1032299
298.7153354
299.4930173
294.8504179
289.3364602
290.9437269
291.264498
299.7773607
299.2940934
297.5903315
292.5853049
298.3115152
300.1941099
309.7450225
311.1108807
303.5592363
303.351806
307.5912292
302.5815462
300.1929646
301.7728388
294.2811736
296.8120674
302.6640954
308.1199675
308.5256159
310.832135
303.7674602
304.8729165
298.2997506
301.917101
299.4253717
298.6203825
292.8292318
287.9324318
287.735185
291.8519225
290.472883
287.7633382
291.5017258
296.4025823
295.2348483
297.8998255
296.5523363
290.5171896
293.9391216
293.9653655
303.1074571
304.2032737
307.3467272
305.3406901
302.9732247
300.8907657
300.4480425
300.8457516
301.2508469
303.4355204
299.6526907
301.425142
297.5611483
294.2639523
297.7046655
294.2164017
293.4961692
290.6279721
287.115448
288.4593698
293.4185686
296.6030623
292.5670505
292.1063798
292.7616536
292.7321678
296.2416515
295.6960098
302.7007322
300.4467439
305.7528493
304.4792269
300.3338657
300.3938659
299.0695164
293.921031
296.3100056
300.9676394
294.9814128
293.6681896
295.4722507
296.9699787
300.0378289
297.3453783
300.3167699
302.7809586
304.5792493
302.4753487
298.9838037
299.492603
297.0264555
297.9511518
294.415311
300.9706881
298.6964402
298.8276
301.3458674
296.2507994
303.234998
302.9738237
295.2552189
295.6360458
298.7669299
298.9857728
296.8587427
298.0386036
291.2967604
295.7428394
292.4735207
292.0508244
290.8198516
290.2060791
294.6745742
296.5830948
294.8995562
290.3169637
289.0598046
296.557804
298.0116446
302.803133
301.1586214
300.8751905
297.3316261
299.7330608
299.7194336
298.3222686
294.6287779
293.6517528
294.5806087
293.0816011
292.9256472
290.6873733
288.3217956
294.7169861
291.842705
295.5889469
297.0787187
290.2362929
287.0398757
291.9546916
296.5825035
297.9913769
293.6078274
293.8805574
294.0278824
294.9800649
298.0746583
298.7430902
296.743713
301.2275009
298.1371263
302.1644039
306.995994
301.4348741
303.0999485
297.9078031
297.1019777
295.6276623
290.7614408
294.2439172
310.6268069
307.6738381
306.4611674
305.5023847
303.4255447
306.1630403
305.7346774
307.8437477
306.1894061
302.4086682
300.6055166
299.2436549
300.1158883
299.0037289
298.4667808
295.8512079
296.6933614
299.310565
307.2937936
300.7838218
300.3165765
298.8285483
297.5223924
304.5800408
308.9633295
303.9413805
307.9811133
302.3857516
306.271479
306.4221919
309.0294203
302.951457
305.0289964
304.6497864
301.1028825
306.2488508
306.6448916
302.0870457
300.6821268
300.4588153
296.659083
295.8095448
300.4299543
296.5247335
300.8754957
302.4921291
299.8284908
296.8019548
299.528585
301.4085585
300.0378382
300.0856307
298.883375
300.5907927
304.0600568
299.9440894
299.8522385
305.3100004
303.848165
306.0248299
292.3415656
292.0605911
290.9342615
296.5836805
291.2434938
293.1436819
295.6477761
300.0319395
295.9919345
295.4716611
298.9579548
299.7252465
299.6743977
294.6196398
289.7000065
284.7896403
291.073412
286.0182413
287.2143464
291.1060659
311.8885036
304.865311
305.4727709
302.5778843
300.434813
301.1021035
290.217466
291.3113122
285.8401996
287.7099606
289.9327451
299.4096077
300.6643432
304.5311368
300.8364185
304.68337
297.5261901
298.0961337
299.4851274
293.8459864
294.8671313
297.691652
289.8914563
292.1340374
293.2655507
294.6541989
308.1456729
304.0939615
301.857642
302.5346975
296.3918866
294.5334926
303.7887337
316.6412798
308.9003193
312.144936
300.4772948
301.8289676
303.2701491
311.1092699
311.9648549
320.1245541
317.1737496
303.3117213
301.3557972
300.1993434
313.0316124
314.4602238
309.5448972
307.1539672
306.5739689
297.5213606
294.7568863
303.6195501
306.9232617
305.2461446
291.2751566
296.8886954
296.0705379
298.0158758
297.0141484
298.2814045
302.2483921
291.1133542
287.0891935
292.4264747
309.7998719
302.2197245
296.6901528
292.1210588
293.1580372
300.1770142
298.0627715
305.1428623
303.2460381
300.9241878
295.9627314
296.1357901
299.7785005
305.1784091
301.3604979
297.8579534
298.773955
303.0676501
300.4740479
302.2196605
289.3082837
289.5996
293.2856138
289.443047
290.3449964
295.3254545
301.1030106
297.0076168
302.3281172
303.9075498
296.5813197
298.8363094
301.3219388
309.4430136
306.4378247
309.8110989
306.4461685
305.5569872
300.3902268
302.7699937
300.258176
297.0801614
296.9029072
292.5860417
292.7767886
290.0324825
288.3977047
293.3698253
295.4363332
294.7708798
300.5872164
299.1470236
296.7642148
294.9231678
299.3720833
296.278951
297.5632966
297.1624154
299.8004214
301.854699
292.3402306
285.8125231
286.2180891
290.252838
292.8177643
296.9088174
300.5096666
301.5035625
297.4277087
295.3397145
291.9953982
299.468786
301.5661011
304.4193702
302.6340303
298.6295767
295.7209769
294.4712037
303.043926
309.8928464
301.107919
303.634921
302.2961355
294.6673569
295.7463128
299.2722325
299.6189076
301.2300704
295.6547857
296.6457706
298.5850909
294.3548972
291.909696
296.177252
296.4421051
296.5273639
295.5932231
303.0019892
302.6911314
302.6548979
306.2940908
304.3482386
297.032878
300.6144797
300.0934317
301.9555032
307.0239133
304.5801233
305.3711975
301.6477371
292.1709018
294.6850758
297.8097681
298.2416725
297.7826213
290.454678
288.3214135
288.1361062
298.3464585
300.6048231
)
;

boundaryField
{
    flow
    {
        type            calculated;
        value           nonuniform List<scalar> 
48
(
292.3742056
297.7212389
295.8227479
294.7302526
296.9908214
297.0327816
299.7773607
303.7674602
303.1074571
293.4185686
295.4722507
295.2552189
301.1586214
296.5825035
310.6268069
300.3165765
296.659083
292.3415656
292.3415656
292.0605911
290.9342615
296.5836805
291.2434938
293.1436819
295.6477761
300.0319395
295.9919345
295.4716611
298.9579548
299.7252465
299.6743977
294.6196398
289.7000065
284.7896403
291.073412
286.0182413
287.2143464
291.1060659
292.1709018
294.6850758
297.8097681
298.2416725
297.7826213
290.454678
288.3214135
288.1361062
298.3464585
300.6048231
)
;
    }
    obstacle
    {
        type            calculated;
        value           nonuniform List<scalar> 0();
    }
    frontAndBack
    {
        type            empty;
    }
    procBoundary2to0
    {
        type            processor;
        value           nonuniform List<scalar> 
31
(
284.3041474
284.4497454
288.8092303
292.8831647
292.059358
296.5280082
298.5446172
294.8075054
294.4104026
301.1647132
299.4724861
301.8773767
292.4228994
297.7547392
300.2749051
296.1431131
295.5327463
303.0231619
302.5065226
305.2571756
299.6863864
298.5019522
302.3214012
302.0125682
304.5728661
304.1075279
309.3133086
307.3028193
307.271244
306.6632522
306.6632522
)
;
    }
    procBoundary2to3
    {
        type            processor;
        value           nonuniform List<scalar> 
19
(
306.2043744
305.2025068
300.5924034
309.8219367
305.2510108
302.9946089
295.4834696
304.3427707
300.7947039
302.7328377
298.7537171
293.6303191
299.554476
293.9350156
308.3921211
296.6261782
301.7779094
304.2546724
302.4690736
)
;
    }
}


// ************************************************************************* //
