/*--------------------------------*- C++ -*----------------------------------*\
| =========                 |                                                 |
| \\      /  F ield         | OpenFOAM: The Open Source CFD Toolbox           |
|  \\    /   O peration     | Version:  2406                                  |
|   \\  /    A nd           | Website:  www.openfoam.com                      |
|    \\/     M anipulation  |                                                 |
\*---------------------------------------------------------------------------*/
FoamFile
{
    version     2.0;
    format      ascii;
    arch        "LSB;label=32;scalar=64";
    class       volScalarField;
    location    "0.001";
    object      internalE;
}
// * * * * * * * * * * * * * * * * * * * * * * * * * * * * * * * * * * * * * //

dimensions      [1 -1 -2 0 0 0 0];

internalField   nonuniform List<scalar> 
546
(
0.2758817914
0.4158439318
0.2656579964
0.2113620845
0.3748747081
0.7341806161
0.4316168041
0.1366738316
0.2939683174
0.3540337743
0.2304061461
0.5150404243
0.251711199
0.4094312642
0.3717543416
0.5168162156
0.3379192141
0.2448191331
0.2431282856
0.3486619383
0.6052895937
0.3321586441
0.508715586
0.3406151303
0.56779613
0.4181438526
0.2618115005
0.5268277263
0.3564906749
0.4126368076
0.5747986232
0.5080420728
0.6678024444
0.6194739086
0.555066837
0.4705422198
0.4469468523
0.3046295074
0.2397087055
1.011450878
0.1390028184
0.6138777915
0.1755768788
0.5889538708
0.4131895841
0.5200949911
0.2330434687
0.3470029849
0.774914385
0.4854468404
0.2655139126
0.3115469853
0.3878102718
0.335109826
0.5098613106
0.4296788946
0.2116478599
0.2338831743
0.5145153676
0.3309504116
0.4793817432
0.5254121353
0.22195155
0.4803155988
0.5326834645
0.2327654766
0.1591055956
0.5279179439
0.6574717375
0.3517858774
0.2179969903
0.3131582198
0.2570406622
0.7667741008
0.4822546045
0.277603798
0.4519794263
0.2458484485
0.5590244002
0.2954158738
0.1876922738
0.5052969364
0.4239350766
0.683074876
0.4058927774
0.4001896971
0.3484421666
0.2895019224
0.2687822735
0.2512621891
0.4550030538
0.1840660466
0.1578943084
0.6507196657
0.2710959419
0.4731684713
0.1534126784
0.4672828501
0.5992989945
0.2813551431
0.4681219923
0.4804972914
0.5264727359
0.3086322968
0.07154899167
0.6353901553
0.2633118954
0.5666147352
0.5481842445
0.3572788504
0.5122861834
0.09815741822
0.379812301
0.2700154237
0.1188992129
0.3776246698
0.2427573827
0.4455278801
0.5468132831
0.5236802757
0.2103628073
0.2519497289
0.4688754871
0.3176061291
0.243058178
0.4257332603
0.2418876886
0.4182610124
0.407924375
0.6785000274
0.5830036653
0.3028616434
0.2860811046
0.5911416715
0.5632364371
0.3701727293
0.284960655
0.267475812
0.4392010691
0.3788344671
0.3864104502
0.5686286712
0.4887928014
0.5337366907
0.349653112
0.6099049943
0.3405339904
0.3483209709
0.4645895717
0.3237944657
0.5700135599
0.39785513
0.1558476276
0.3243658574
0.5279101058
0.4574774137
0.5564933325
0.3382771511
0.3725976393
0.4439591323
0.1960998647
0.6459488888
0.3785948406
0.1761094082
0.2822018337
0.7281060464
0.2070786973
0.4583715294
0.5817920116
0.6797733432
0.3732563933
0.226099325
0.4470766734
0.3740841514
0.5895565741
0.5138909828
0.4229418355
0.4890592562
0.4152757113
0.482398049
0.4341198722
0.2437573461
0.1499534363
0.2087501976
0.4187805574
0.4877807274
0.5870983173
0.564183361
0.2857540791
0.486548628
0.9073162043
0.7926868929
0.216415792
0.5720398879
0.3088782654
0.4599676032
0.1517695925
0.5092471711
0.07515433112
0.2402343787
0.5322754069
0.248637531
0.2417830328
0.6736841997
0.6045997552
0.4724587697
0.4976251848
0.5833925334
0.2241159515
0.5133041183
0.330240508
0.2241509412
0.3006973914
0.4386912094
0.28504705
0.4229149431
0.1409189302
0.5651640425
0.472285393
0.2292210963
0.1132038577
0.3061970211
0.2157656349
0.2562074786
0.5082589647
0.1115997288
0.407091383
0.171428815
0.4440105957
0.2662481079
0.5546357867
0.6932867393
0.6092252226
0.3363554701
0.2887947403
0.6722535291
0.5446897082
0.8144382293
0.1700009161
0.5528210322
0.2796894886
0.620958889
0.6082430934
0.3630944896
0.4529559877
0.5095783395
0.1737499506
0.5348289262
0.4168953716
0.7506117275
0.3642362561
0.4259270815
0.4149302215
0.4881805419
0.3565602408
0.5086607505
0.2267943451
0.4915773663
0.7455122383
0.3626899053
0.1769353666
0.4163202352
0.3741621861
0.414376956
0.1303330229
0.2423075238
0.4877722988
0.2323920254
0.4940988368
0.3193649282
0.2073283486
0.5810691307
0.2919593687
0.8119658459
0.4758888164
0.3538301381
0.4843989264
0.6038695904
0.6143574571
0.3138391834
0.6501537495
0.6549924459
0.4171961713
0.3647800721
0.3057193288
0.3568749412
0.389401387
0.3923157471
0.6545429381
0.3560260941
0.09874063251
0.176838374
0.1724147977
0.423717801
0.2019255773
0.0337556464
0.3755779832
0.3430489037
0.5723596824
0.5625482281
0.1637432958
0.848934882
0.4557873602
0.6887556091
0.501754539
0.3908284868
0.6351956534
0.3840051973
0.3161312477
0.5824215801
0.05976945271
0.4635023494
0.09048308156
0.5579567587
0.3046691483
0.4045592432
0.5108644283
0.4486597833
0.2530356727
0.2739917268
0.3624922455
0.6532213182
0.375655214
0.6798765341
0.2285037411
0.6980707915
0.1924338131
0.5672982649
0.5119197419
0.5835799763
0.4374354001
0.3302806664
0.3473487811
0.4210274981
0.7532442914
0.369994298
0.7839771148
0.4851007006
0.6521583129
0.8552374172
0.1596447542
0.243273689
0.1481541803
0.2649956278
0.5404255503
0.3446613081
0.7921409331
0.3557477516
0.2175007626
0.5458119628
0.5629101239
0.04750595821
0.2856427816
0.3356220677
0.5006420764
0.2327415504
0.5801912079
0.3258741516
0.5601747397
0.321846186
0.4894007691
0.2438897356
0.3762706796
0.4651889455
0.5468573932
0.3010050809
0.4669756979
0.3653645418
0.3447757641
0.5234073281
0.4449718399
0.6376716053
0.2058237789
0.471532096
0.2173916576
0.4602518384
0.4767217877
0.1568618492
0.3307902431
0.3290367277
0.1790427896
0.4309693971
0.5724531784
0.5358656732
0.3465129985
0.3390433135
0.3347131621
0.628110474
0.3524175403
0.4916131749
0.09409786693
0.2852123322
0.5427023395
0.5967677438
0.4452799727
0.2368730909
0.2320808589
0.4850347365
0.6752804227
0.5077917871
0.5016450983
0.3488400813
0.58796463
0.4182139068
0.2525669419
0.4947377761
0.1688706238
0.5067790763
0.3669144037
0.2169066553
0.4491680425
0.5653611532
0.4533025683
0.1295063413
0.2712418421
0.460918962
0.1583510763
0.5156857915
0.7235732595
0.1368119581
0.5183303155
0.8949978825
0.5887539818
0.8748982007
0.2969916934
0.2494429756
0.471034232
0.3085632678
0.3156740628
0.4690667079
0.2837044285
0.3845941678
0.2411310655
0.4424273323
0.3462402886
0.3231896677
0.3629640079
0.27724502
0.4076504892
0.4622051044
0.4771788977
0.4642099827
0.1780639161
0.9074856943
0.5149895657
0.5284975025
0.3697192912
0.02332286694
0.2831650745
0.2730896843
0.3094760087
0.3736423572
0.4378804571
0.1878393181
0.2340923074
0.7809411619
0.4496371163
0.2392111828
0.7369464319
0.3749121053
0.09120171663
0.1405660756
0.4869622974
0.2399284166
0.2148374386
0.4039032506
0.7279907316
0.4065617198
0.4497767099
0.6073772583
0.3344742916
0.3556180144
0.3220434062
0.4380241601
0.3988772574
0.5705524734
0.804689155
0.5526925469
0.1724500967
0.3442184722
0.4148451803
0.3084815421
0.6508467606
0.3663243264
0.4440284914
0.2058312662
0.1838558533
0.5367305853
0.3063760372
0.7193446576
0.3572246343
0.6026317298
0.547226244
0.3092646221
1.040314932
0.4969463799
0.3485262345
0.8402951863
0.3374911047
0.1836329323
0.2240949548
0.3071183372
0.3526587025
0.3120542627
0.4491428696
0.2501008848
0.3392201464
0.6819016547
0.5134428351
0.3665822031
0.5080532823
0.4372598534
0.6967107587
0.9936063717
0.4326391746
0.5108276263
0.8359712413
0.2524812032
0.4649298164
0.7231351895
0.7698584972
0.4074805857
0.6505514698
0.03141204591
0.3565402184
0.1050941138
0.4654641235
0.3783092572
0.391426917
0.3076444134
0.5831072754
0.4201060686
0.4309619941
0.4723592505
0.7880344
0.5195188668
0.2729506629
0.7048762879
0.1409752923
0.2471338412
0.3518847807
0.05942719096
0.2851674534
0.1559291774
0.1491402457
0.5735947719
)
;

boundaryField
{
    flow
    {
        type            zeroGradient;
    }
    obstacle
    {
        type            calculated;
        value           nonuniform List<scalar> 0();
    }
    frontAndBack
    {
        type            empty;
    }
    procBoundary2to0
    {
        type            processor;
        value           nonuniform List<scalar> 
31
(
0.2519073734
0.2978955398
0.450144976
0.1060972515
0.4833382565
0.4200262659
0.1346532644
0.3030698068
0.3801197857
0.6878538627
0.6475355878
0.7405545215
0.3068340632
0.4270144456
0.4339549271
0.5124524831
0.5846291606
0.4770097751
0.5984516438
0.4311299922
0.4770971057
0.6886716402
0.2538819046
0.1951819129
0.5156125644
0.8651353871
0.326903775
0.6873989143
0.6592221123
0.6991225053
0.6991225053
)
;
    }
    procBoundary2to3
    {
        type            processor;
        value           nonuniform List<scalar> 
19
(
0.698761631
0.3820947111
0.4376504251
0.2980477274
0.6601460607
0.1304588442
0.526557334
0.8287632221
0.6005718114
0.7404445928
0.2274884306
0.5225446878
0.3513206093
0.304196184
0.3155772756
0.4252769347
0.3456784255
0.1544025028
0.2696976482
)
;
    }
}


// ************************************************************************* //
