/*--------------------------------*- C++ -*----------------------------------*\
| =========                 |                                                 |
| \\      /  F ield         | OpenFOAM: The Open Source CFD Toolbox           |
|  \\    /   O peration     | Version:  2406                                  |
|   \\  /    A nd           | Website:  www.openfoam.com                      |
|    \\/     M anipulation  |                                                 |
\*---------------------------------------------------------------------------*/
FoamFile
{
    version     2.0;
    format      ascii;
    arch        "LSB;label=32;scalar=64";
    class       volScalarField;
    location    "0.001";
    object      linearKEMean;
}
// * * * * * * * * * * * * * * * * * * * * * * * * * * * * * * * * * * * * * //

dimensions      [1 -1 -2 0 0 0 0];

internalField   nonuniform List<scalar> 
546
(
5.829425998
7.833240006
7.836691127
7.838531964
7.871914964
7.826734795
7.734079169
7.718272179
7.687865764
7.741073014
7.654519497
7.735531322
7.730094093
7.687257329
7.671943512
7.547183377
7.445602205
7.472938569
7.570866648
7.542560394
5.909190249
7.846365335
7.739322524
7.738837577
7.646056244
7.664250377
7.744164444
7.741305197
7.688129434
7.669315534
7.685176255
7.617791308
7.629871901
7.524070051
7.525230495
7.611391196
7.68639141
7.671740844
7.798872743
7.912644207
5.880029793
8.025882274
7.960252021
7.936563358
8.05558647
8.021851781
7.960747289
7.880820186
7.956875558
7.941414935
7.732364992
7.798508225
7.626942051
7.714677933
7.650241178
7.705454521
7.661988769
7.673147376
7.754501347
7.620048372
5.866068102
7.882858822
7.895322247
8.002494849
7.789173114
7.79853253
7.861207094
7.862996254
7.859237721
7.738782921
7.829564953
7.734151527
7.943649396
7.977006464
8.031518705
8.022654835
8.014309073
7.890772783
8.075368008
7.987697392
5.944773632
8.009846639
7.827917392
7.721217605
7.670852484
7.679774027
7.665582058
7.87205342
7.805250872
7.842918899
7.870204225
7.883089034
7.95761857
7.918172526
7.929029299
7.908922748
7.8884814
8.032186254
7.755150398
7.723171195
5.879736581
7.813929861
7.737932153
7.784023786
7.905737004
7.950477921
7.973035214
7.803582381
7.845972971
7.891425032
7.973980002
7.911987516
7.925242441
7.936415097
7.900354194
8.061926458
7.985905173
7.919900301
7.984820009
8.169260671
5.869582262
7.931449701
7.981586203
8.028293604
7.904229796
7.954695762
8.004445473
8.017279968
7.873565766
7.762287391
7.714686547
7.661152702
7.749210966
7.777376282
7.68187932
7.709045464
7.77360528
7.685448932
7.603424304
7.703546305
5.869672998
7.84947829
7.72357055
7.730149442
7.859913573
7.789475559
7.837902378
7.795624145
7.950784981
7.931933854
8.058533458
7.913224219
7.896692424
7.790859079
7.75150342
7.762580035
7.774796275
7.972389942
7.988023695
7.998933096
5.945305655
8.08476699
8.059087695
7.954148234
7.938077319
7.791404541
7.738958163
7.865280895
7.902369532
7.977682606
7.88348468
7.951343373
7.908192648
8.027247556
8.037986366
7.984084175
7.920088193
7.778551737
7.645516062
7.545861789
5.890353874
7.852500394
7.834968304
7.834826876
7.883732659
7.881756207
7.90921145
7.979882059
7.953491094
7.918599648
7.937772949
7.942516595
7.947129808
7.969258983
7.914283577
7.970196252
7.924409756
7.953951126
7.93420499
7.983802037
5.964919218
8.080813001
8.037256272
8.055193494
8.118806445
8.082262315
8.190337112
7.881903941
7.993838247
7.864845471
7.727239238
7.820814268
7.704245077
7.778485563
7.726860508
7.774523811
7.823989201
8.136683383
8.243171064
8.26125935
5.864743406
7.788227626
7.667794023
7.669414148
7.583652695
7.56791578
7.584446384
7.60198559
7.644221069
7.786240239
7.822890493
7.839910755
7.881194551
8.008976443
8.117027357
7.98796359
7.932978986
7.762271519
7.641900587
7.688319009
5.88020063
7.956397027
7.818726749
7.92839022
7.958060302
7.900121243
7.875036002
8.034571551
8.065597182
8.072116213
7.947075865
8.013776122
8.042573283
7.942820939
7.810854871
7.765490985
7.67847355
7.647339936
7.672301315
7.598826031
5.821660178
7.857955837
7.876245771
7.857198839
7.945580269
7.745841322
7.837437266
7.742975455
7.785739893
7.732742201
7.68253236
7.6856327
7.701448612
7.70101406
7.67945975
7.800565699
7.956903219
7.847875051
7.731872963
7.833564816
5.911649847
7.932295717
7.746249145
7.644688358
7.625713106
7.704964352
7.733099891
7.738504862
7.662484354
7.537783542
7.536298701
7.580927399
7.636190558
7.629704886
7.657640949
7.692401507
7.868975625
7.965931549
7.980761994
7.963917131
5.881624712
8.017236923
7.94436888
8.193075397
8.234785081
8.12616033
8.063925642
7.996932444
8.103710616
8.155558131
8.042045894
8.014082017
8.026906927
7.984040456
8.270874646
8.075874353
7.893161743
7.782002319
7.663045255
7.796128908
5.881280135
8.046464339
7.995586364
7.880023594
7.898783574
7.931546803
8.073023345
8.137702558
8.114483039
8.179541737
8.158543482
8.299053181
8.157756346
7.996792357
7.712918681
7.797051328
7.945489277
7.82408381
7.952847675
7.866686118
5.805992371
7.568996024
7.443753443
7.552848796
7.562741437
7.580968195
7.578899603
7.617825241
7.522271889
7.613957724
7.66421023
7.681364195
7.779673941
7.853161905
8.033173267
7.900111632
7.872522956
7.908130555
7.900824719
7.874624768
7.647589723
7.616186002
7.620988244
7.807266568
7.730389863
7.711201105
7.600741334
7.611935441
7.72177462
7.657889817
7.769801162
7.727584851
7.641610708
7.72912309
7.529961697
7.669797797
7.944404139
7.813923157
7.85334472
7.733967398
7.622619087
7.65418588
7.78020796
7.796537617
7.883459835
7.954212943
7.617601793
7.685780503
7.814783762
7.829646129
7.909027963
7.890484901
7.852700598
7.981951209
7.769647971
7.912223912
8.058026648
7.929105997
7.87545523
7.805119945
7.883499727
7.873950355
7.802207286
7.807714575
7.743495661
7.725718438
7.868013234
7.852221522
7.814354171
7.997514376
7.997199674
7.874153229
7.839906848
8.084082357
8.005201187
7.98761725
7.957652331
7.964979212
7.748190849
7.819459153
7.944994821
7.930844512
7.878451883
7.828608469
7.78612014
7.932506471
7.721717063
7.853223997
7.940559925
7.862276944
7.825765692
7.947803169
7.985749325
7.920081763
7.66213331
7.663080121
7.992081283
7.970102806
7.902901155
7.820760672
7.778081859
7.729498401
7.652500502
7.789471576
7.864385548
7.941553303
7.526993254
7.519298435
7.610001176
7.594643709
7.695263455
7.662714331
7.729163422
7.756442445
7.897650191
7.825046528
8.095844922
8.175801124
8.202047725
8.28944622
8.115475833
8.076875676
8.200429918
8.151032042
7.987873244
7.851820163
8.254320378
8.0791637
8.00242955
7.921374459
8.057312647
8.053158463
7.948631608
7.923628885
7.970217341
7.898301412
7.684097374
7.763502005
7.742690877
7.694975667
7.593507845
7.543075956
7.508333711
7.802233909
7.80170664
7.873290115
7.640307192
7.552869128
7.654314018
7.688288687
7.796865124
7.827460711
7.916486928
7.786612597
7.730133565
7.721408119
7.903959525
7.947587981
7.985289242
7.983550305
7.964816659
7.894902801
7.841068762
7.770983617
7.755639299
7.641300052
7.828308974
7.717788078
7.64458958
7.622654169
7.687381868
7.544867865
7.647402952
7.688622049
7.812671673
7.906724283
7.83071328
7.891800795
7.969982567
7.84063871
7.894201836
7.820284403
7.851599104
7.796823091
7.857454452
7.742491715
7.771310169
7.660625364
7.768419194
7.894237822
7.95666523
8.086560818
8.000178566
8.037807461
8.103460594
7.966333532
7.98380076
7.957898292
7.882493938
8.018529328
7.980915531
7.907069827
8.060572132
7.902437826
7.854710972
7.897617101
)
;

boundaryField
{
    flow
    {
        type            calculated;
        value           nonuniform List<scalar> 
48
(
5.829425998
5.909190249
5.880029793
5.866068102
5.944773632
5.879736581
5.869582262
5.869672998
5.945305655
5.890353874
5.964919218
5.864743406
5.88020063
5.821660178
5.911649847
5.881624712
5.881280135
5.805992371
5.805992371
7.568996024
7.443753443
7.552848796
7.562741437
7.580968195
7.578899603
7.617825241
7.522271889
7.613957724
7.66421023
7.681364195
7.779673941
7.853161905
8.033173267
7.900111632
7.872522956
7.908130555
7.900824719
7.874624768
7.98380076
7.957898292
7.882493938
8.018529328
7.980915531
7.907069827
8.060572132
7.902437826
7.854710972
7.897617101
)
;
    }
    obstacle
    {
        type            calculated;
        value           nonuniform List<scalar> 0();
    }
    frontAndBack
    {
        type            empty;
    }
    procBoundary2to0
    {
        type            processor;
        value           nonuniform List<scalar> 
31
(
5.918735349
8.000522223
7.853927736
7.726124969
7.843206836
7.746946201
7.831161929
7.85213212
7.876177269
7.820689803
7.746584164
7.901214428
7.806818734
7.868597621
7.85852981
7.85340676
7.863154301
7.914863828
7.749411739
7.681489336
7.921604397
7.928000398
7.910800611
7.809051936
7.819917975
7.779626598
7.669685307
7.658895
7.515498818
7.667751342
7.667751342
)
;
    }
    procBoundary2to3
    {
        type            processor;
        value           nonuniform List<scalar> 
19
(
7.636379798
7.902324341
7.961488169
7.895803629
7.770500725
7.841118672
8.054587088
7.668608804
7.984646977
7.768852722
7.781438707
8.040718197
7.997188715
7.695531564
7.797272433
7.830904364
7.975966491
7.898103954
7.81610776
)
;
    }
}


// ************************************************************************* //
