/*--------------------------------*- C++ -*----------------------------------*\
| =========                 |                                                 |
| \\      /  F ield         | OpenFOAM: The Open Source CFD Toolbox           |
|  \\    /   O peration     | Version:  2406                                  |
|   \\  /    A nd           | Website:  www.openfoam.com                      |
|    \\/     M anipulation  |                                                 |
\*---------------------------------------------------------------------------*/
FoamFile
{
    version     2.0;
    format      ascii;
    arch        "LSB;label=32;scalar=64";
    class       volScalarField;
    location    "0.001";
    object      linearKE;
}
// * * * * * * * * * * * * * * * * * * * * * * * * * * * * * * * * * * * * * //

dimensions      [1 -1 -2 0 0 0 0];

internalField   nonuniform List<scalar> 
546
(
6.716525647
3.887776076
4.595558572
6.748891826
7.507034021
8.142203142
10.47671474
6.567427516
6.446902335
9.42229438
10.66262598
11.00783467
9.291473393
6.303142174
5.953846655
9.994771038
8.037129073
3.239253605
4.987358319
8.101571809
7.259961299
4.684374679
10.048633
8.423558489
13.15362092
7.962722581
7.352851527
6.361941386
8.166506755
7.753326199
11.23919674
9.158759444
7.693241334
7.059996253
8.889833186
3.507844926
10.49041491
7.345295105
5.963909654
11.80460776
3.146352332
10.42663067
4.953110909
8.014098997
10.34043929
8.767183692
6.940583948
6.955002226
12.60506099
10.49524683
3.190813134
5.622011321
7.129657222
6.620148625
7.213658588
5.655168533
5.091315468
8.529866632
5.209334893
8.38270855
9.097485061
6.864018097
7.601595372
9.169237603
10.23648569
6.74195594
5.974260161
5.097516175
10.24974309
5.397060049
6.668038221
4.865543423
5.82710676
12.94047227
7.965668232
4.148855197
15.0465003
6.609826628
6.116753248
6.567705977
2.458448198
9.47693659
9.016663962
12.48629421
9.044981001
4.074619618
5.087654108
8.175413771
6.326172345
4.905092085
4.696850647
8.252061289
4.319862101
16.90451937
5.458990128
9.561251429
3.609824525
8.55731553
11.96104313
9.66305392
7.148849684
11.81271148
7.40608746
5.612293269
2.218292563
9.365612819
8.914238815
9.898578092
11.24393478
8.634856884
13.19166829
3.756795369
6.784885864
4.269188022
5.976157012
5.249015308
7.726284346
7.58035289
8.08857351
9.830616279
7.265854644
6.239395035
6.420314087
10.27417453
6.451229317
9.334468885
4.295022239
7.219654327
10.91608206
7.502306152
15.08013706
7.563615631
5.000020686
10.44662058
10.10400169
5.801203594
8.111335857
11.03695557
8.120507962
5.19334344
6.771753433
9.816597641
6.919998103
4.64700307
8.62712337
9.44436052
5.333888262
6.140961533
7.154564616
10.66202044
7.89859798
8.56543933
7.044471205
7.87452809
6.434716474
9.428349692
11.0300761
5.609289147
6.541813089
12.02795903
4.917641377
10.02971867
9.573359592
6.108417474
5.260368077
10.11052659
4.758179412
8.443925325
9.534498225
5.672155274
6.034876895
12.87900577
6.905552918
7.142209705
11.22715259
8.436600942
8.519598864
11.31626429
8.31029793
7.238181569
7.305176815
7.780386655
7.091352902
6.157742144
8.425953199
7.43799386
12.44843279
14.17954258
9.371310095
12.49759637
11.03258379
12.00860352
3.238193814
5.654606522
4.952076719
9.303379895
4.782170871
11.38464059
3.394725803
4.660766952
6.122562446
6.772007657
6.656018916
8.144045219
9.51483991
8.635746687
9.245167809
6.741422577
6.335340637
6.416724209
8.952988464
4.28783591
6.674514079
7.288651702
4.198117659
10.45826805
5.20224026
10.69518981
8.0728294
7.175144955
6.53288809
7.350121644
6.686129326
6.809318987
8.48947821
3.199072281
8.89463056
7.479439789
8.310388923
5.501566118
11.49484735
9.276597663
10.89172294
6.092303615
8.363963241
13.84349631
7.63885416
9.068928386
3.846895334
12.8384807
9.583184749
8.86019108
10.2236643
5.866214368
8.886574029
9.71997388
4.539148102
5.419108097
7.895880928
11.2651149
6.756127341
5.113496365
8.446536997
6.722133259
8.425360186
8.228001835
7.632080067
9.269489162
10.15805269
3.955053521
4.818549125
6.500480726
8.402352325
8.566574877
3.590480367
8.350676777
8.605810412
5.032722349
11.32817039
7.126099048
2.261606709
10.92658501
6.483741243
11.55421028
11.6571245
9.068557596
11.04715192
11.42818268
10.3706594
7.172480261
7.59794745
4.535594511
7.30459707
8.399323428
8.375588191
5.71842017
6.83165425
9.113457015
11.37632694
9.109950086
3.608941107
3.6323944
5.505658167
5.32403869
5.319328584
1.821357736
9.573063169
7.737477486
8.802023196
9.391385139
3.372543325
11.29393724
5.863166098
11.78439734
6.167953067
7.471694471
6.671548072
8.065271837
5.062157908
8.173869729
2.370461313
6.844058636
4.191213871
8.514328729
8.522086029
6.907328161
6.926985551
10.78258358
6.246505442
10.00301091
6.974826901
10.53765928
5.996857033
11.56344064
4.695659707
12.39827075
4.105623159
10.39177036
12.70649564
8.420084489
8.277436388
7.282411666
7.568782617
8.703757808
10.62205823
5.483421163
11.40520998
5.477165342
10.5363
7.521218702
4.949404447
6.63724014
6.187627974
6.72084159
7.368883295
5.551716193
10.36611781
7.196537307
7.370917953
7.647157495
11.46926555
2.550167005
5.6645956
7.982276868
8.827295612
6.913285221
6.783754938
3.782946378
10.3296602
5.999354829
7.766317449
7.187937696
6.814549373
11.5184516
7.653282869
5.006561841
11.11418667
12.08329112
6.047032556
9.208707434
9.53661114
15.83386359
5.159396514
9.37845956
5.807460971
9.836476371
9.194065643
6.884507538
12.69528895
7.241657922
4.877572997
9.873084481
11.5913534
7.978976983
5.279839535
9.30045333
8.559268941
10.06330321
4.269395971
6.227379025
3.867403215
8.762401595
8.680824351
9.744168383
7.240957942
5.867700014
6.626939347
11.5302287
8.565698321
8.707397768
5.370971233
7.627367686
4.999993781
5.426938792
8.069019529
8.748085573
3.920689436
8.472638466
3.816362213
9.330455039
13.39798574
11.08715946
5.575889863
3.421158243
8.283376273
8.870563873
3.002784134
9.054400933
11.70167117
2.166054928
8.382369162
17.45367851
9.158660392
9.743489742
9.717178493
4.140022289
8.40128007
5.456751054
5.868901467
7.148797014
7.634920559
11.04560291
7.929214955
6.525928757
5.776398078
6.634574691
10.05409949
4.913603318
11.47048266
9.189143894
10.13055753
13.2861012
4.2749035
12.83041458
7.019178916
6.557559759
6.405146195
1.57415289
6.621706219
7.350307285
6.620762648
6.332450405
10.99805784
3.718657971
5.782680024
9.790943631
5.739770824
5.725190601
8.061355659
5.509497363
1.537888756
1.562190199
7.015279714
6.876314846
9.156200647
9.80287315
10.35980255
6.703077085
11.49390775
12.20474132
4.599703134
8.213940778
6.672075959
8.220641279
7.338963322
8.646182309
14.14876295
7.535845958
8.401042736
10.73925881
9.318531836
6.685909161
9.574535551
9.724042734
9.225676581
4.264099516
7.985161345
11.12157932
8.594841185
9.286655099
7.535074834
8.383045661
10.5311646
9.58717915
10.0157674
8.036220994
4.920010036
8.363441196
7.990556014
5.623244307
8.361639376
8.697805111
6.788511917
3.946205366
8.059803979
7.353019837
10.26469628
9.432863765
7.769736032
4.756615402
10.44532016
9.149393076
5.367065132
12.4351054
8.915847357
12.26027602
10.10742437
3.352142208
12.61665087
10.09893562
10.71966675
8.377253367
10.10670892
2.158258551
7.542949749
4.391903537
8.12389286
3.378789579
6.307996279
6.800558882
7.020952244
7.024780724
6.846479614
6.731754395
11.77408776
8.84320245
5.127503261
9.035426911
2.767036738
5.393124297
7.739388254
3.35560999
5.056662228
3.994801864
6.061667338
14.24690088
)
;

boundaryField
{
    flow
    {
        type            zeroGradient;
    }
    obstacle
    {
        type            calculated;
        value           nonuniform List<scalar> 0();
    }
    frontAndBack
    {
        type            empty;
    }
    procBoundary2to0
    {
        type            processor;
        value           nonuniform List<scalar> 
31
(
5.836685939
6.491778883
11.3792843
6.121146596
11.6240799
7.496189772
5.866221596
9.111585398
14.05384036
12.99929843
11.83752367
9.623195202
6.760705586
10.13413861
5.73738057
8.737642633
7.540398012
7.680808656
9.321395692
10.24540879
6.4079689
8.53629051
2.827722633
4.384272964
11.29691414
9.338762923
6.567973086
10.96188994
6.001656545
11.96433565
11.96433565
)
;
    }
    procBoundary2to3
    {
        type            processor;
        value           nonuniform List<scalar> 
19
(
13.95785687
6.667925341
10.4514233
6.993272508
12.81710065
3.852610817
7.600263483
13.88699453
12.06771463
9.602637028
6.925279857
10.72871691
7.096370141
8.074838142
3.650617204
9.670341314
7.925990264
4.255219089
3.763384527
)
;
    }
}


// ************************************************************************* //
