/*--------------------------------*- C++ -*----------------------------------*\
| =========                 |                                                 |
| \\      /  F ield         | OpenFOAM: The Open Source CFD Toolbox           |
|  \\    /   O peration     | Version:  2406                                  |
|   \\  /    A nd           | Website:  www.openfoam.com                      |
|    \\/     M anipulation  |                                                 |
\*---------------------------------------------------------------------------*/
FoamFile
{
    version     2.0;
    format      ascii;
    arch        "LSB;label=32;scalar=64";
    class       volVectorField;
    location    "0.001";
    object      momentum;
}
// * * * * * * * * * * * * * * * * * * * * * * * * * * * * * * * * * * * * * //

dimensions      [1 -2 -1 0 0 0 0];

internalField   nonuniform List<vector> 
546
(
(0.007375935855 3.768468661e-05 0.0007808761345)
(0.004543540934 0.0002255341161 0.0003237094669)
(0.004667780263 -6.17967988e-05 -0.0003653424637)
(0.007311330716 0.0002969143575 -0.0001791608333)
(0.007915605843 -0.001167252395 0.0001690173574)
(0.009603630052 -0.0007004558408 -0.0001853864909)
(0.01065590524 -0.0001092478126 0.0002957870481)
(0.006856835291 -6.083783146e-05 -0.0002286262523)
(0.007122638119 -0.0002437425413 0.0005277797419)
(0.01062603837 -0.0004153591733 0.0009912368633)
(0.01086375583 0.0002025598904 0.0003213290114)
(0.01206486327 -0.0007389636982 -0.0006924222174)
(0.009617127527 0.0005878785815 -0.000436349242)
(0.006412148521 0.0001165113944 2.172931597e-05)
(0.006920117733 0.0001029603419 -5.320751298e-05)
(0.01136337443 9.732018e-05 -0.001106256238)
(0.008596024904 -7.932382658e-06 0.0002937278297)
(0.003325141433 0.0003387038361 0.0001085398007)
(0.005252451243 -5.356148812e-05 0.0004618246688)
(0.008105970432 -2.080763711e-06 -0.001106203758)
(0.008169513505 0.0004683902799 0.0001175167753)
(0.005153725841 0.0002703428554 0.000256568994)
(0.01104701916 0.000174451891 -0.0003357620328)
(0.008432357898 0.0004164003329 -0.0002290823654)
(0.01309129218 0.0005124563386 -0.0003848609427)
(0.008586712233 -0.0004980910064 -0.0006805763314)
(0.00723680004 -0.0004820193521 -0.0004589048152)
(0.006795167468 0.0004387202081 -0.000255587697)
(0.007663246013 5.82018402e-05 0.0004514087793)
(0.007845034085 7.560031067e-05 0.0001531626218)
(0.01206062145 0.0001781633339 -0.0007163846623)
(0.01009955436 -7.213363153e-05 -0.0005941774247)
(0.008502791576 -0.0004367457725 -8.585013444e-05)
(0.008262007547 -0.0002288145148 -0.0005216490167)
(0.009552113865 -0.000130368712 0.00013125903)
(0.004162145505 0.0002469386781 -0.0001808045606)
(0.01089337213 0.0005738749591 0.0002680136253)
(0.00786278848 0.0001549213193 0.0001401725499)
(0.00606209298 -0.0004941960548 0.0002267413874)
(0.01297268354 -0.0007780528332 0.000612342023)
(0.003411338585 -6.113509225e-05 -0.0004080621132)
(0.0106902557 -0.000994136172 0.0002532744911)
(0.005410611432 2.600397737e-05 0.0003780090965)
(0.007708856943 -8.798405269e-05 -9.413124354e-06)
(0.01064989842 -0.0003054532984 3.400456188e-05)
(0.009307957921 0.0003294830455 0.001063637873)
(0.007604131415 -6.001533497e-05 -4.185049213e-05)
(0.007352802516 0.0005564659611 0.0001831112839)
(0.01359996614 0.0008490767201 0.000658776096)
(0.01102786241 -0.000352051703 -0.0005816705495)
(0.003771619879 -0.0005182043902 -0.0004300370266)
(0.005644624817 0.0002044657977 -3.253478684e-05)
(0.007203150458 -0.0004865499893 -0.000402024678)
(0.006755237608 -0.000187190023 0.0002010885247)
(0.007772416785 -0.0002201040717 0.0006160237285)
(0.00675748515 5.863638647e-05 0.0001031795638)
(0.00530798496 -0.0003289192572 -7.885988551e-06)
(0.00949945385 0.0001699146605 -0.0002477037926)
(0.005806182786 -0.0002489971549 0.0006450211228)
(0.009622341978 1.060429855e-05 -0.0003557591529)
(0.009518032224 -0.0005721853062 0.0009705536729)
(0.007511266496 -0.0001517151596 0.0004721178548)
(0.007110154361 -0.0001582915169 0.0005079469781)
(0.009757789108 0.0003286110073 -0.0004347774706)
(0.01064350337 -2.547420914e-05 -0.0003283863163)
(0.007652085624 -0.0002311099752 -0.0002589464233)
(0.006230481119 -0.0002212958719 -0.0004679100747)
(0.00593990144 0.0006408215723 -9.868797001e-06)
(0.01088177785 -2.90881662e-05 -0.0002293560345)
(0.005405825758 -2.761543714e-05 -0.0002903954967)
(0.006992974418 -7.366976056e-06 0.0006196221942)
(0.005196074576 -0.000273631745 -2.582521354e-05)
(0.006496182359 0.0006573889423 8.632243988e-05)
(0.01393931866 0.0001537443516 -0.0005515129205)
(0.008562264916 5.618509747e-05 0.000224391205)
(0.004238783431 0.0006453860542 -2.000884758e-05)
(0.01474685763 -0.0001103114017 0.001209352905)
(0.006551692683 0.0004124370008 -0.0006056894626)
(0.00635235298 0.000204288516 -0.0001415692048)
(0.007767500598 0.0008606531708 -0.0002815243464)
(0.003097133481 -9.92333222e-06 1.232713228e-05)
(0.009822664307 0.0001648876262 0.0001984285464)
(0.009376887992 -0.000492143754 0.0003076891921)
(0.01356467284 -0.0003788333417 0.000184267505)
(0.01004768309 -0.0002322710041 -4.586538768e-05)
(0.004728156497 0.0003564188803 0.0001565713001)
(0.006071967624 0.0007345742355 -0.0003006974762)
(0.008324278493 -0.0004998111653 -0.0003912567809)
(0.006247394453 -0.0009239176293 -0.0004672860599)
(0.005228837925 2.296798253e-05 -5.948172274e-05)
(0.004966827464 -0.0002817065845 0.0001365840559)
(0.008367997683 -9.102968417e-05 -0.0005172105056)
(0.004427057209 -0.0005358727504 0.000149475545)
(0.01815184649 0.0004883111084 -0.0001855929194)
(0.005875667299 0.0003402809843 -1.715628115e-05)
(0.01026663585 0.0002404904789 -0.0009417216194)
(0.004019697658 0.0004797969602 0.0003400440245)
(0.008921545045 -0.0002546586987 -0.0004481664652)
(0.01269393687 0.0001381721038 -0.0004784407756)
(0.009559297168 -0.0004671952374 4.960663792e-05)
(0.007374998056 0.0007488448637 0.0005041335763)
(0.01177842403 -3.828506866e-05 6.76256393e-05)
(0.007916208525 0.0004007297633 -0.0004916396407)
(0.006193241512 0.0003359888082 0.000191080921)
(0.002398096609 0.0004249660915 5.700627067e-05)
(0.01023606739 -0.0006155261179 0.0002057803598)
(0.009603029782 0.0005677954812 8.761501237e-05)
(0.009617155545 -0.0004500890647 -0.001386206543)
(0.01165703479 -0.001280791759 -0.0002662168149)
(0.009375218996 5.196884169e-05 0.0004058658149)
(0.01409609281 0.0003238937938 0.000219573456)
(0.003918064657 -0.0001855561267 -0.0001218877684)
(0.006984274243 -0.0001111544721 8.136607161e-05)
(0.004494476583 -0.0003496153723 2.018283904e-05)
(0.006203172615 -8.866770962e-05 8.72280806e-05)
(0.005477856253 0.0001449541198 0.0005717500162)
(0.008450334479 0.0004881834738 0.0003913085366)
(0.007874663449 -8.312110273e-05 0.0002342089993)
(0.009014309344 -0.0009819551307 -0.0002026170204)
(0.01089522784 -0.0002524236896 -0.0005804346613)
(0.007412536826 0.0004369304956 -9.591148274e-05)
(0.006805165737 -0.0004643331171 0.0001291828289)
(0.006395723322 0.0001802620426 -0.0006974073328)
(0.0112081214 0.0002636807545 -2.304968253e-05)
(0.00639832984 -0.0005950528454 -0.0002536706592)
(0.01032745713 -0.0001328624087 -0.0007685268362)
(0.00448236447 -0.000574131098 0.0005068473417)
(0.007639090449 -0.0002693943146 0.0002275858625)
(0.0119016828 0.0007219638315 1.635739361e-05)
(0.007710884634 0.0002154368067 0.0001336508849)
(0.01488661293 0.000117071461 0.0004333706636)
(0.0079738882 -0.0004365794687 -0.0004917551473)
(0.004867389708 5.652842404e-05 0.0002020340558)
(0.01137671336 5.765407812e-05 0.0006243493865)
(0.01076023117 8.661715295e-05 -7.502906562e-05)
(0.006678037623 -0.0002411991474 0.0003622378569)
(0.007994584588 0.0002551997674 0.0002404433755)
(0.0106891719 0.0002959679886 -6.236248177e-05)
(0.00858200987 0.001004992774 0.0001979888439)
(0.005364993905 0.0002095413071 -0.0003408324174)
(0.007088466384 -0.0002991259269 0.0005677445595)
(0.01006834144 0.0004801964023 0.0001810525717)
(0.007575703177 -8.702632325e-05 0.0001734873605)
(0.005547144266 -0.0001071148675 0.0002262176671)
(0.009273560823 0.0001545297969 -4.963942607e-05)
(0.009134127486 5.948939638e-05 0.0005821677758)
(0.005740466555 -0.0003367963533 0.0003539092199)
(0.006288447238 -0.0005580951255 0.0002502703547)
(0.007649793986 -0.0006424720739 -0.0003736690574)
(0.01091694183 -0.0003203117945 0.0003319997853)
(0.008473837811 0.0001168987105 0.0001496940141)
(0.009114273061 0.0001699453852 -0.0003249592052)
(0.007267527828 8.317740996e-05 0.000571224828)
(0.008184405317 0.0007583869077 -0.0002248088454)
(0.00767574135 -0.0001277497238 -0.0002801543191)
(0.009328417092 -0.0008976587174 -0.0001515587798)
(0.01222245528 -0.0002127835817 0.0009958715611)
(0.006293641333 0.0005723477485 0.0003943168432)
(0.006951087175 -0.000177336093 -0.0005387926271)
(0.01277517667 0.0005911094126 -8.750162639e-05)
(0.005670469439 -0.0006178558008 0.0002191128448)
(0.01043147954 -0.0003517611244 -0.0006085354699)
(0.01039487492 0.0005585925226 -0.000645359153)
(0.006632985424 -7.872729977e-05 -0.0002522251514)
(0.005896675112 -0.0001180854206 0.0001043169149)
(0.01037568936 -5.618673186e-07 0.001297312881)
(0.005121781846 0.0005827310774 0.0004357447201)
(0.008961820642 0.0005920166506 -4.432110501e-05)
(0.01023693277 0.0008930635238 -0.0005176834725)
(0.006414709255 -0.0002420017643 0.0005367333003)
(0.007008453786 -0.0003133824085 -0.0002741438914)
(0.01262628277 0.001367387988 -0.0003805485757)
(0.007508646288 -8.556858926e-05 9.590023065e-05)
(0.007258964634 -5.189231326e-05 0.0001166689062)
(0.0116189736 -0.001051715128 0.0003350783507)
(0.00882521264 2.362842906e-05 0.0001921520942)
(0.008976088781 8.66789842e-05 -0.0004026097657)
(0.01172646109 -0.0003984661671 -0.0004838516067)
(0.008794283315 0.0005911284658 1.161822748e-06)
(0.008168356721 0.0001274540471 0.0001161903691)
(0.007763188428 0.0006773388093 -0.0003069041251)
(0.007956252749 -0.001387304262 -0.0002071749839)
(0.007357175209 9.323707206e-05 -0.000393488812)
(0.006349294346 0.0001639745527 0.00048234799)
(0.008196063741 0.0003408163042 0.001475269737)
(0.008118133604 0.000312981594 -0.0005418209515)
(0.01326670851 -0.00046078582 0.00055326714)
(0.01368454218 -0.0001828730808 -9.365504868e-05)
(0.01001077506 0.0001792739211 -6.16687698e-05)
(0.01263222591 -0.0004044949277 0.0004148258251)
(0.01127255439 0.00048238504 -0.0006048593104)
(0.01402838928 0.0001132717751 -7.820422284e-06)
(0.003886604939 4.998930287e-05 1.141437485e-05)
(0.006478449917 0.0002564789334 0.0001857781582)
(0.005010901719 -0.0001246445403 -0.001249570754)
(0.009218545381 -0.0003670104416 -0.000749651772)
(0.005170629794 -2.026943671e-05 -0.0001549929265)
(0.0120166422 -0.0005551663245 -0.0006151844561)
(0.004015088389 -9.791279628e-05 0.0004952111279)
(0.005600102445 0.0003118844977 -0.0004305124768)
(0.006137461892 -7.193221162e-06 0.0001004282628)
(0.007079030368 -0.0006777108759 -0.0003186968439)
(0.0067327463 0.0005617735794 -0.0002931428574)
(0.008550935173 -0.0005902730444 -0.0009458772288)
(0.009990608672 -0.0002612589604 0.000273318149)
(0.009280992019 0.000222463784 0.0003760517399)
(0.009247876933 -0.0002803809601 0.0003930308823)
(0.006885126216 -0.0001032921767 -7.158173794e-05)
(0.006916815923 0.0001063600405 0.001008322311)
(0.006637506403 -4.191142766e-05 -0.0006367498293)
(0.009052368016 0.0001525068664 -0.0006582258013)
(0.004904736287 0.0005512919665 0.0002692944683)
(0.006365124601 -9.419149405e-05 -0.0001909461317)
(0.00770911808 -0.0006447053802 0.0002715815875)
(0.004329290943 0.0004127019994 0.0001813002874)
(0.01189374321 0.0002873999503 0.0007909890992)
(0.005686582931 -0.0001205941315 0.0002757891509)
(0.01138417652 0.0004803222139 7.243405086e-05)
(0.009016753668 -1.94157527e-05 -0.001237118236)
(0.007325225994 0.0003386640574 -0.0001432556321)
(0.006511543412 -0.000210806859 0.0001023791697)
(0.008272177994 0.0003385591655 2.497624143e-05)
(0.007895949308 0.0001931729361 -0.0001020602477)
(0.006721853733 -0.0001552117957 0.0002884632424)
(0.009688750961 0.0004129288456 -6.259476746e-05)
(0.003398419829 0.0001315514656 0.0002901375753)
(0.009646121998 0.0002191878857 -0.0001163994656)
(0.007903563464 -3.63409368e-05 -0.0001561541635)
(0.009130320696 0.000246601543 0.0004175278197)
(0.00511087197 -0.0003907832359 0.000345856292)
(0.01246817581 -0.0004493370647 -0.0009054160369)
(0.009789383976 -0.0003717281124 0.0002809314387)
(0.01209309742 -0.0008081308782 -0.000992026989)
(0.006922221611 -0.0007263752666 -0.0002866841112)
(0.008832231124 8.690194116e-05 0.0002491215821)
(0.01381746011 -0.0001847532161 -0.0006514612034)
(0.008383441237 -5.088268356e-05 0.0001066965258)
(0.0103341847 -0.0003566617768 -3.099828599e-05)
(0.004194044101 4.923439264e-05 0.0002379292622)
(0.01329851351 -0.0002091676454 -0.0004013958963)
(0.01014904008 -0.001495333705 -0.0003828198614)
(0.0093796512 -0.0004176114155 -4.998255812e-05)
(0.0113872054 2.626421216e-05 -0.0001918554302)
(0.006192879308 9.50075489e-05 -6.92409246e-05)
(0.0095153107 -0.0009702368329 0.0003310546332)
(0.01070462486 0.0005974424377 -0.0005125298454)
(0.004748342867 -0.0003728486712 -0.0003135068878)
(0.005852157973 0.0001463574061 0.0006965513511)
(0.008065162512 -2.439556225e-05 9.824030062e-05)
(0.01208005254 6.252401551e-05 -0.0002349224884)
(0.007490775615 -0.000971006786 0.0004003721655)
(0.00588886315 6.116984541e-05 -0.0002798533772)
(0.009044837789 -0.0002169666718 0.0002523696566)
(0.007075635874 -0.0007100005438 -0.0005306229629)
(0.009038242627 -4.363770002e-05 0.0005512242012)
(0.008765355082 -0.001087131208 -0.0007487912447)
(0.007070459318 0.0007177525683 0.0004936534956)
(0.009781071652 -0.0002924793685 0.000211737962)
(0.01061641324 -6.245984445e-05 -0.0007960309214)
(0.003968410433 0.0002579473553 -0.0002003661647)
(0.004891419316 -2.778759449e-05 -0.0001399952307)
(0.006808516365 -1.616061558e-05 -0.0001375546157)
(0.009152653441 8.185344952e-05 0.0001744720945)
(0.009284110331 0.0004748247363 6.706588816e-05)
(0.00416707732 -0.000422535241 -0.0001414662596)
(0.0089145816 -0.0005731502764 0.0001679007097)
(0.009761527219 -0.0004542308675 -0.001097672364)
(0.004928595594 -0.000207351568 0.0001750536052)
(0.01152988688 -0.0003240153956 0.0006982111588)
(0.007887685055 0.0001160978959 0.0001008540863)
(0.002421693549 0.0002865233625 0.0001486230864)
(0.01104265953 -0.0004636470181 -0.0004091843176)
(0.00701722584 -0.0001239757722 0.0002982548032)
(0.01233969718 0.001016153752 0.0005645779087)
(0.01236819378 0.0004109527761 -0.0004195656167)
(0.009753912466 0.0006757437377 0.0001646013892)
(0.01174892111 0.0002391115101 0.0006159036939)
(0.01116192495 -0.0004117114946 0.0004115540752)
(0.01071413503 0.0001116532382 -1.625281099e-05)
(0.007798688057 -0.0003757511136 -0.0004962255086)
(0.008284833883 -0.0008472090243 -0.0002554088166)
(0.005478208505 0.0001744887243 0.0006219306251)
(0.007968569071 0.0001335245527 0.0003749658276)
(0.008474317803 2.377033987e-05 -0.0001742190978)
(0.008782780542 0.0004530064858 0.0009498990864)
(0.005899377339 0.0003246884371 0.0005419135638)
(0.007291755804 0.0001963371563 0.000289095821)
(0.00998250172 -0.0004091754665 -0.0009306601724)
(0.01148894359 -2.083184176e-05 0.0006109176923)
(0.0096328293 9.766158155e-05 9.769124119e-06)
(0.004094455173 6.660942829e-05 8.68162473e-05)
(0.003608886159 -0.0002342339219 0.0002997323069)
(0.006066068022 0.0004461190898 0.0001027512516)
(0.005949115728 0.0001349970583 0.0004329674971)
(0.00596956214 0.0002005187949 -0.0002939531281)
(0.002226801455 9.847571521e-05 0.0003074373876)
(0.009937498872 -0.0004830279639 -0.0003846218279)
(0.008392351547 0.0004923203487 -0.000519734715)
(0.009559613926 -0.0004205990386 -0.001236843711)
(0.009534885242 -0.0001888172485 0.0001698570311)
(0.003938833652 4.419552736e-05 0.0004996837133)
(0.01067974999 0.0004013280797 -0.0001599067941)
(0.006318632789 0.0002040477117 0.000299748926)
(0.01200827667 -0.0003821687658 0.0006949587834)
(0.007133995035 8.546765779e-05 0.0004523948416)
(0.008440605727 -0.0002691120512 4.072277671e-05)
(0.007344162863 -0.0003694353777 -0.0005451938216)
(0.008161601354 0.0005898106019 -0.0003127766694)
(0.005716209369 0.0002167166478 -0.0007792586887)
(0.008528180266 0.0004073176798 0.0005618119041)
(0.002517566457 -0.0004799127623 -8.044564668e-05)
(0.007145762531 -0.0008346545064 -9.285502112e-05)
(0.003880014757 -0.0003434499095 -8.317964868e-05)
(0.008827409379 -0.0004939100809 0.000874432654)
(0.00928995885 0.0003994444329 -6.06260969e-05)
(0.007682903412 -0.0001984706864 -0.0001746178905)
(0.007201128429 -0.0007695643532 -0.0005224840307)
(0.0111587514 0.0004247230643 0.00037334542)
(0.00640621261 0.0003944435876 -0.0001104743197)
(0.01016878584 0.0001397173565 -0.0002091961156)
(0.00686343059 -0.0003972508439 0.0003015693126)
(0.0115546244 0.0002427130646 0.0001475711453)
(0.006177477696 1.103243432e-05 -6.348987095e-05)
(0.01261499329 -0.0001393573396 -0.001106400585)
(0.005613899787 0.0004652431142 0.000318527931)
(0.01265310498 5.050724139e-05 -0.001162669303)
(0.004323315851 0.0001170136708 -0.0001558097575)
(0.0103396891 -0.0003200669035 -0.0003832583154)
(0.01365157095 1.015593564e-05 -1.559899412e-05)
(0.009287692547 -0.0005523279128 -7.161130286e-05)
(0.008408850335 -0.0001793289502 0.0003378305354)
(0.008066809663 9.413124957e-05 -0.0001885062743)
(0.007553189245 0.0001704645647 -4.562218913e-05)
(0.009283112083 -0.0003262948277 -0.001394825924)
(0.0110101685 0.000295559576 0.0001508293688)
(0.005968265406 -0.0003834687415 -0.000143208124)
(0.0120718077 -0.0002806592602 0.0001989448201)
(0.005492497503 -0.0001365153564 0.0001296014733)
(0.01144385798 0.0004931215093 -6.185688684e-05)
(0.007804711701 8.073536313e-05 0.0002779926102)
(0.005262608282 -0.0004697455298 -0.0002485128549)
(0.007275643364 0.0001412761838 0.001091340518)
(0.005893765073 0.0003601438113 0.0002598745202)
(0.007411527621 0.0001615270937 -0.0002513340889)
(0.007759778861 -0.0005222177048 -0.0003652014757)
(0.006356488714 0.0003320818005 -0.0001494642563)
(0.01125420369 -0.00036341541 -0.0006799180144)
(0.00744807111 -0.0004671917588 -0.0004249778645)
(0.007826582894 -0.0001107971354 1.38759747e-05)
(0.007971570719 0.0002176688095 0.0002999635756)
(0.01292112882 0.0008731565157 0.0003736206733)
(0.00301003988 7.399174785e-05 0.0001969770655)
(0.005827764814 -0.0003685797628 0.0001106682728)
(0.009173453497 9.235084909e-05 -0.0002154645187)
(0.009475778317 0.0003021820236 0.0004229278785)
(0.007635583708 0.0005081194478 -0.0002916332177)
(0.007353106505 -0.000372594252 0.0004321442285)
(0.004000591008 0.0003372396933 -0.0003566358715)
(0.01065037839 0.0004734735505 -9.652189128e-05)
(0.006071052665 -0.0006104846222 -0.0004197797384)
(0.008687948632 -8.241569235e-05 -0.0003147464565)
(0.007101282696 0.0003549875643 0.0002201190867)
(0.007136064876 -0.0005327464969 -6.910092492e-05)
(0.01168541162 0.0002737366057 0.0002182645659)
(0.008288752218 -0.000698322737 0.0004023813053)
(0.00537802227 0.0001358560384 0.0003407363296)
(0.01167229308 7.188131361e-05 0.000501810815)
(0.01198809073 0.0003947770159 -0.0008619606263)
(0.006726667982 -5.355343895e-05 -0.0007121036565)
(0.009553962566 -7.067450635e-05 0.0003383908834)
(0.009932689687 3.647263623e-05 0.0006664701273)
(0.01713072899 -0.0005022062147 0.0001899450546)
(0.0059215147 0.0001513195267 -0.0001025642625)
(0.009938368741 -0.0005761869488 -6.298676733e-05)
(0.006348356232 0.0004154876465 -0.001048537432)
(0.01097855503 -0.0006949422728 -0.0002288892021)
(0.009783504964 0.0002461122824 2.427738102e-05)
(0.007203966975 -0.0001073904963 0.0004967424844)
(0.0125820116 -0.00115430584 -0.0003464595317)
(0.008186645221 0.0001746152568 -0.0003309640011)
(0.004860291194 4.075351376e-05 -7.974401372e-05)
(0.01030288385 0.000511310536 2.218229318e-05)
(0.01219621441 -6.059698469e-05 -0.0005094920586)
(0.008866227619 -0.0003352993479 -3.548891568e-05)
(0.005623852178 -0.0001259278076 -0.0002066811981)
(0.01007741775 2.186918583e-05 -0.0001808557552)
(0.008897152402 -0.0004370515545 -0.0009429426972)
(0.01129422211 -0.0003719095647 -0.0001545875308)
(0.00439177113 -0.0005129045223 -9.28088624e-05)
(0.006650595455 -0.0003149017375 0.0002958480473)
(0.003892669084 -0.0002055588279 0.0002104029522)
(0.008703113359 0.000785394008 -0.001481618795)
(0.009024597023 4.152768245e-05 -0.0001510300713)
(0.00972302171 -0.0005205830524 0.0004600617304)
(0.007064478675 0.0004525307864 5.824218234e-05)
(0.006329628239 0.0004980750334 0.0001521950493)
(0.006708420856 -0.0001217351491 -0.0001693143183)
(0.01144126539 -0.0004132801261 0.0002045339445)
(0.008980839752 0.0007184189247 0.0001858416461)
(0.008968310996 0.0007630845816 0.0001335736317)
(0.006038274107 -0.0004514750385 -0.0001073932275)
(0.008618091487 0.0001594307876 0.0003874102305)
(0.00553553948 -3.826559484e-05 -0.0003817858654)
(0.006049432236 0.0005974449887 -0.0001011326774)
(0.00843457838 -0.0003500395278 0.00153800763)
(0.009327512734 -0.0004866512098 -9.717234101e-05)
(0.0037698993 0.0002443823771 -0.000234269837)
(0.009293949199 0.0004601390589 0.000328535747)
(0.004172844508 -4.335330683e-05 -0.0002038450368)
(0.01009180317 0.0004010169456 0.0004174788728)
(0.01344209177 -0.0002043175875 -0.0001387675064)
(0.01130160978 3.314515698e-05 -0.0006500154966)
(0.006441662926 -0.0006996131421 -0.0007236706983)
(0.003665397835 0.0002855931495 0.0003566199059)
(0.008002782099 0.00067388851 0.0001459438313)
(0.009379069373 -0.0002987366886 0.0001760332581)
(0.003224541211 -7.977682159e-06 0.0006086049041)
(0.009518799487 0.0001024841678 1.582163946e-05)
(0.01232958888 0.0009964025051 6.004421164e-05)
(0.002582582471 2.212659744e-05 -0.00012115973)
(0.008882031739 0.0001414560379 0.0004097402486)
(0.01747448938 -0.0002579526805 0.0006395956277)
(0.009484053294 0.0003704008898 -0.0004320793305)
(0.01024767016 -0.0008419277468 7.38576067e-05)
(0.009916385646 -0.0001057534652 -0.0001434084758)
(0.004567516677 -0.0002726244036 0.0002563474971)
(0.008301310959 -0.0003946103911 -0.0006519659643)
(0.005988881866 -7.490513388e-05 0.0004054753029)
(0.005875397383 0.0001401069606 0.0004058855915)
(0.007581364582 2.127359158e-05 0.0009157519642)
(0.007650342756 -0.0003974222527 -0.0004451414259)
(0.01136334091 0.0004818448771 0.00116994893)
(0.007970033797 -6.269848391e-05 0.0005167854288)
(0.00610240025 -0.0002751574075 3.036219015e-06)
(0.005797214175 -0.0005210310991 0.0003396421746)
(0.007186333681 0.0005294391247 -0.000695434145)
(0.0101136229 -1.976269505e-05 0.0001960821152)
(0.005966034763 -0.0005705801481 1.951875751e-07)
(0.0119089755 -8.918728914e-05 -0.0004613637873)
(0.01038123348 0.0003024313257 4.149446802e-05)
(0.01030190573 -0.0009680088191 -0.0002544016225)
(0.01273369807 0.0007371152315 0.001127036066)
(0.005055229833 0.0001100838415 -0.0007791528071)
(0.0132316246 -0.0005210688519 0.0001750813552)
(0.007849424126 0.0003332134053 0.0002111186066)
(0.007489971563 0.0007005213239 0.000122405329)
(0.006815622363 0.0004184113864 -2.57362235e-05)
(0.001731877999 6.017622639e-05 0.0001693162355)
(0.006939723132 -0.0006827739486 0.0006024844076)
(0.007469617957 0.0006584198459 0.0003872696991)
(0.007479449718 -3.089692965e-05 -0.0005186677843)
(0.006968698241 -0.0002904430199 -0.0001773988762)
(0.01103180572 -0.0003528746406 0.0007753335375)
(0.004217527853 0.0001081211497 0.0001549467677)
(0.006636491603 -0.0003879261401 -0.00041298899)
(0.01024593844 -0.0004510223239 0.0001150898114)
(0.006489284544 -0.0003837645303 -0.0002466324294)
(0.006081750871 -4.420886357e-05 0.0001062777108)
(0.009053598604 -2.568997219e-07 -5.840528653e-05)
(0.006392697946 -6.905215478e-05 7.611240633e-07)
(0.001831810147 -0.0002157521577 6.240076129e-05)
(0.001561679147 -0.0001212831342 0.0002397981151)
(0.008105824062 0.0002408643717 -0.0001461636172)
(0.00744022301 -6.846342279e-05 -0.0005802736883)
(0.009083608485 -0.000248411431 0.0006400115824)
(0.009980795275 2.671142573e-05 -7.425718935e-05)
(0.01078908025 -0.0004355990457 -0.0003610575529)
(0.007501161796 0.0003411370518 0.0007711491276)
(0.01249784244 -0.0006458106243 0.0004270785528)
(0.01165590736 -3.925240465e-05 -0.0004473617909)
(0.005130931529 -0.0002796688228 -0.0003113155661)
(0.009034833026 -0.0001656516078 -0.0005414518084)
(0.007346660388 -0.0006647326533 0.0007497464709)
(0.008759016446 -0.000954392273 0.0006290790613)
(0.007813878982 -7.936131967e-06 -0.0001105876535)
(0.008712363693 0.0002988298481 0.0001515898959)
(0.01459140929 0.001516572689 -0.0008515596743)
(0.008442121329 -0.0002139171461 0.0003061585431)
(0.008784354049 -0.0003670278517 -0.0005693670271)
(0.01019489106 -0.0004907833333 0.000256141384)
(0.009948671593 -0.0001637420189 -0.0004423866455)
(0.007265951455 0.0002595673332 -0.0003425583353)
(0.009999086778 -0.0009526745216 -0.0008943693134)
(0.01072077213 -5.021460497e-05 0.0004936395916)
(0.009147889502 0.0003879999679 0.0003062116051)
(0.00469653649 -0.0001327541819 0.0001467955258)
(0.008255164756 -9.167787246e-05 0.0003987023457)
(0.01175611533 -0.000347974827 -0.0001130728126)
(0.01000154413 -0.0006870767669 0.0001833984314)
(0.01000408032 0.0001074614453 0.0001822071416)
(0.008595481064 8.557312777e-05 0.0001093659692)
(0.008586767717 8.209441089e-05 -0.0004676856545)
(0.01143402563 0.001157377706 -0.00011387621)
(0.009551500283 0.0005465807134 -0.0001619365593)
(0.01032907911 0.0003178494135 -0.0004802218977)
(0.008514946819 -8.03954819e-05 0.0002323799117)
(0.004722541861 -0.0001883592197 0.0004099001912)
(0.009263308888 0.0001952727152 -0.0003067191282)
(0.008111022282 0.000587018054 0.000513395658)
(0.005578439305 -0.000150518191 0.0008634787957)
(0.008188914231 -0.0003748335162 -0.0002245546971)
(0.009004971353 -0.0005701301473 -0.0007284019808)
(0.00683501756 -0.0002899000421 0.000163685899)
(0.004786375143 -0.0001718090353 -0.0006287659784)
(0.007897415101 0.000556830171 -8.9917507e-05)
(0.007791611053 0.0002294242328 -0.0001166878641)
(0.01124576237 -0.001037732346 0.000333874228)
(0.009139761167 0.0003134962564 0.0004734691271)
(0.008192999817 -0.0006474773313 -0.0004465509097)
(0.005266433627 0.0001518960379 0.0005736230456)
(0.01121385098 0.0003964796654 3.845086275e-05)
(0.01030969121 0.000320907271 0.0003210054906)
(0.005981608567 -0.0001387711432 -0.0005753980295)
(0.01307931387 -0.0005061524238 -7.830909037e-05)
(0.009630231658 -0.0004203114581 0.0004199885364)
(0.0135545425 0.0006866111368 2.738728607e-05)
(0.01178951221 0.0005372716433 -0.0003721375252)
(0.003651262926 -5.454204001e-05 9.006103399e-06)
(0.01312111335 4.286294435e-05 0.0003372363986)
(0.01215221619 -0.0002323281375 0.0001173647019)
(0.01154550959 0.0003838975929 0.0001569955591)
(0.009053754851 0.000100515139 -5.155033193e-05)
(0.01042848518 -0.0006885601912 -0.0004203976958)
(0.002579284886 -0.0005228733773 -0.0004657826946)
(0.007675996041 -0.0006620903689 0.0001773614165)
(0.004586799718 -0.0007237127718 3.44446352e-05)
(0.00805930334 -0.0009814359902 -0.0003806075848)
(0.004055463594 2.196852531e-05 0.0002344325714)
(0.00641842346 -0.0001792999097 -0.0005041482546)
(0.007134979597 -0.0005731276947 8.443116899e-05)
(0.007610914265 -0.0002326468536 -0.0004651909072)
(0.007377010876 -0.0005330006892 -0.0003781169495)
(0.007075603277 0.000218662993 0.0005548906634)
(0.00735329964 -1.766011644e-05 -0.0001352814079)
(0.01302517876 -0.0001091232441 -0.0008714431123)
(0.009352906118 0.0006521048781 6.513215877e-05)
(0.005449472499 -0.0002827277223 4.404473027e-06)
(0.009756252956 -0.0002144232523 0.0003233306936)
(0.003268619012 -0.0002913949813 0.0003304227809)
(0.006043866428 -0.0002838228911 1.488071748e-05)
(0.007485574171 0.000148404734 -0.0006881612166)
(0.003991201605 -0.0007183230438 0.0006548768609)
(0.00550696815 0.0003869900427 -0.000865449608)
(0.004726110085 -0.0001524743092 -0.0002503414123)
(0.006365780432 0.0002350868859 0.0002473482782)
(0.01388891083 5.002521551e-05 -3.210804583e-05)
)
;

boundaryField
{
    flow
    {
        type            zeroGradient;
    }
    obstacle
    {
        type            calculated;
        value           nonuniform List<vector> 0();
    }
    frontAndBack
    {
        type            empty;
    }
    procBoundary2to0
    {
        type            processor;
        value           nonuniform List<vector> 
31
(
(0.006622807364 -7.155557498e-05 0.0005400473271)
(0.007210873506 -0.0005376806851 0.0004309535722)
(0.01223104822 -0.0005552652287 -0.0001341234212)
(0.006474278421 5.14857772e-05 -0.0002329887817)
(0.0119675224 0.000202417517 -0.0005764690129)
(0.007983045634 0.0001101336779 0.0003486526939)
(0.005779090792 -0.000133019622 3.722644475e-05)
(0.009351860802 -0.000150144493 0.0003177111278)
(0.01464855193 0.0003436052474 -0.0004993075729)
(0.01341964291 0.0004435422912 3.888871583e-05)
(0.01172762258 -0.0001817174856 -0.0006883558316)
(0.01039215579 -0.0007912581633 -0.0002728269532)
(0.007628062197 -0.0003139895891 0.0003900929714)
(0.01123614514 0.0001395760757 -0.0001750672332)
(0.006046015525 0.0005344899717 -9.122159439e-05)
(0.008979078127 4.68626469e-06 0.0005488298991)
(0.007566969365 -0.0006045641727 -0.000295430521)
(0.007904045248 -0.0002744750904 -0.0001084161888)
(0.01011129602 0.0004649285407 0.0008941812382)
(0.00976574569 0.0004397229204 0.0004676799426)
(0.007156242014 -0.0002747900439 0.0001774692121)
(0.009140826602 0.001302005751 -0.0004204008111)
(0.00281895229 -0.0004957289833 -2.4409053e-05)
(0.005035531363 -0.0002864749529 0.0003695279578)
(0.01087056055 -0.0002465008663 0.0003667801875)
(0.009560346713 0.0003426849506 0.0006133883556)
(0.007282218739 7.189280685e-05 0.0001174490692)
(0.01227951097 0.0006656676355 -0.0001328931065)
(0.006725422381 -3.244047656e-05 0.0001886486708)
(0.01216608313 0.0006128748016 0.0004010243815)
(0.01216608313 0.0006128748016 0.0004010243815)
)
;
    }
    procBoundary2to3
    {
        type            processor;
        value           nonuniform List<vector> 
19
(
(0.0147698802 0.0001378426215 0.0002960694742)
(0.006821788519 -0.0001538313852 0.0002229825943)