/*--------------------------------*- C++ -*----------------------------------*\
| =========                 |                                                 |
| \\      /  F ield         | OpenFOAM: The Open Source CFD Toolbox           |
|  \\    /   O peration     | Version:  2406                                  |
|   \\  /    A nd           | Website:  www.openfoam.com                      |
|    \\/     M anipulation  |                                                 |
\*---------------------------------------------------------------------------*/
FoamFile
{
    version     2.0;
    format      ascii;
    arch        "LSB;label=32;scalar=64";
    class       volVectorField;
    location    "0.001";
    object      momentumMean;
}
// * * * * * * * * * * * * * * * * * * * * * * * * * * * * * * * * * * * * * //

dimensions      [1 -2 -1 0 0 0 0];

internalField   nonuniform List<vector> 
546
(
(0.006310468376 -5.400637932e-05 2.600398301e-06)
(0.008311161111 -3.488721508e-05 -1.468872164e-05)
(0.00834434308 -2.563119858e-07 1.598758637e-07)
(0.008347724819 6.103893847e-06 -4.018957598e-06)
(0.008354928745 -2.244678384e-05 6.621886942e-06)
(0.00832052994 -2.510816815e-05 1.94224229e-05)
(0.00821449956 -1.6069632e-05 9.755500963e-06)
(0.008187702034 -2.655867725e-05 -5.169506337e-06)
(0.008128486781 -4.694440305e-05 6.57216998e-06)
(0.008189932606 -4.098913955e-05 -5.170171433e-06)
(0.008108165973 -4.972122694e-05 -3.044318568e-05)
(0.008199313873 -4.008230221e-05 -2.410860837e-05)
(0.008183234704 -5.831183054e-06 -3.100644721e-05)
(0.008158760162 4.914231017e-05 -1.791233391e-05)
(0.008173239703 3.580632506e-05 2.119845577e-05)
(0.008048771474 5.42206528e-05 2.198827461e-05)
(0.007941630011 4.542127545e-05 -2.360120125e-06)
(0.007956659725 3.675307283e-05 -1.812628872e-05)
(0.008026636207 2.343945024e-05 1.199257516e-05)
(0.00799433741 -3.082187556e-06 -1.845198271e-05)
(0.006363122223 2.602761031e-05 2.382210491e-05)
(0.008245631605 1.297199827e-05 3.593859849e-05)
(0.008195252535 2.050721765e-05 3.474467991e-05)
(0.008205444456 -3.191307917e-06 2.651353684e-05)
(0.008124168369 3.501434474e-06 1.718909239e-05)
(0.008154121329 -9.339530461e-06 5.60463434e-06)
(0.008242581048 -4.90246136e-05 7.552142649e-07)
(0.008240862843 -2.0639401e-05 3.175135134e-06)
(0.00818946067 -9.560087367e-06 -3.492991921e-05)
(0.008167126854 1.370916637e-05 -2.121064556e-05)
(0.008170906521 2.359832224e-05 -3.358054329e-05)
(0.008079746978 1.721020354e-05 -2.677624832e-05)
(0.008089627121 1.221607681e-05 -4.195195416e-05)
(0.007978687254 -1.28044574e-05 -2.381829068e-05)
(0.007965674214 -1.194932257e-05 -4.720389335e-05)
(0.008075252437 8.218545681e-06 -3.301337148e-05)
(0.008143113166 -6.15106941e-06 -1.832988958e-05)
(0.00815331854 -1.21442455e-06 9.649815143e-08)
(0.008311641269 8.026208506e-07 2.930595065e-05)
(0.008419758422 2.979051477e-05 3.540321048e-05)
(0.006344090234 2.476073069e-05 -1.041093771e-05)
(0.008474328836 4.948379239e-05 -1.94551863e-05)
(0.00841467975 4.157499291e-05 -3.087597295e-05)
(0.008424283465 -7.822933175e-06 -1.768046295e-05)
(0.008504127817 -2.458363562e-05 1.144785746e-06)
(0.008469327053 -1.450771801e-05 -1.399594878e-05)
(0.008422280312 4.482682764e-06 -1.065312645e-05)
(0.008354523226 2.931092136e-05 -5.754493954e-06)
(0.008440654337 1.131937384e-05 -3.339748159e-06)
(0.008413617356 -4.704697357e-06 -1.506271748e-06)
(0.008213180418 3.834047068e-05 -1.327978759e-05)
(0.008289094262 3.248434796e-05 -6.535479084e-06)
(0.008130237186 1.585628879e-05 -5.987377215e-06)
(0.008196881376 1.101857945e-05 1.373120947e-05)
(0.00815705864 1.870838254e-05 9.411133507e-06)
(0.008199250585 -1.186930439e-05 2.267267669e-06)
(0.008162469664 -1.922178873e-05 -1.419966969e-05)
(0.008175590256 7.623224896e-06 -1.182829024e-05)
(0.008250714299 -7.623560373e-06 -2.705503534e-05)
(0.008119509593 -4.774580758e-05 -3.127789651e-05)
(0.006309834241 6.953408692e-06 -1.099894168e-05)
(0.008298733292 -5.192312165e-05 -6.381141598e-06)
(0.008393026333 -5.748804471e-05 -9.304475541e-06)
(0.0084980236 -2.744460059e-05 -4.606097031e-06)
(0.008283096861 1.037483246e-05 -1.275800469e-05)
(0.008276754318 1.802570656e-05 7.591622652e-06)
(0.008332348247 2.558848067e-05 1.714313982e-05)
(0.008315797998 4.079597279e-05 4.359848012e-06)
(0.008327788848 4.704272815e-05 -7.445321508e-06)
(0.008213225695 6.511375327e-05 2.610510447e-05)
(0.008298851884 9.429285575e-06 6.902698898e-06)
(0.008195962166 3.064123481e-05 3.04104644e-05)
(0.008404238989 2.685995358e-05 1.121797196e-05)
(0.008441564325 2.295016099e-05 7.657911864e-06)
(0.008495966434 1.461706623e-05 2.170506785e-05)
(0.008469212987 2.022741927e-06 2.039088055e-05)
(0.008481406053 8.843695332e-07 2.022206614e-05)
(0.008375937751 -2.440261314e-05 1.396071936e-05)
(0.008584682833 -3.144152936e-05 1.337991726e-05)
(0.008510530473 -2.221560128e-05 2.639683927e-05)
(0.006403388704 -2.427478606e-05 8.991500818e-06)
(0.0084378235 1.190886971e-05 1.755775391e-05)
(0.008295319463 4.779391649e-05 2.783970449e-05)
(0.008220185048 4.065745337e-05 2.560883344e-05)
(0.008155879212 1.075793034e-05 2.615850191e-05)
(0.008178540642 2.327422492e-05 7.023851982e-06)
(0.008165724063 1.547025398e-05 2.573622075e-05)
(0.008380114595 1.001616315e-05 6.345288203e-05)
(0.008318712571 -4.021595834e-06 6.987047952e-05)
(0.008344119222 -2.217278181e-05 7.264467278e-05)
(0.008365263086 -3.012992099e-06 5.608858164e-05)
(0.008398529176 -2.512506565e-05 2.463897868e-05)
(0.008467198972 4.842925585e-06 3.903276772e-05)
(0.00844936726 -1.94479145e-05 4.880477251e-05)
(0.00845681925 6.288170718e-06 2.63599678e-05)
(0.008432754209 1.025591383e-05 2.874723844e-05)
(0.008410203805 5.1075888e-06 5.598055575e-05)
(0.008549034343 -4.524561294e-06 4.259443257e-05)
(0.008272529076 -1.907467678e-05 5.109766913e-05)
(0.008224606586 -6.092848387e-06 4.45444813e-05)
(0.006334795107 1.318102638e-05 1.914828061e-05)
(0.008242346449 2.076717932e-05 3.197534365e-05)
(0.008214145408 8.319966365e-06 1.861366241e-05)
(0.008248592913 4.486307225e-05 1.228343935e-05)
(0.008381797659 3.196426533e-05 2.743551173e-05)
(0.008432480797 -8.599956555e-07 -2.589110276e-07)
(0.0084520539 -2.431831159e-05 -1.923635193e-05)
(0.008267312235 -4.946983328e-05 -5.531152999e-05)
(0.008336953339 -2.346775617e-05 -3.93078733e-05)
(0.008390150432 -3.669442062e-05 -4.198957404e-05)
(0.008470511166 -4.75760301e-05 -1.931504161e-05)
(0.008418629048 -1.059311697e-05 2.101503947e-06)
(0.008425985781 1.078078736e-05 -4.244313783e-06)
(0.008405534055 1.860319627e-05 -1.045844768e-05)
(0.008384054371 -2.915581911e-05 1.174193421e-05)
(0.008549222529 -2.843393704e-05 -1.354311131e-05)
(0.008461449274 -7.356124017e-06 -3.0830411e-05)
(0.008384731262 -1.643233137e-05 -3.459268011e-05)
(0.008456326709 1.844475002e-05 -3.773236633e-05)
(0.008609219571 1.951288215e-05 -1.597686159e-05)
(0.006357431678 9.324516208e-06 -9.454268562e-06)
(0.008404443388 2.332630346e-05 -1.023585634e-05)
(0.008504066025 2.301738805e-06 -2.110465597e-05)
(0.008523584883 -1.257912072e-06 -2.1949291e-05)
(0.008403318469 -1.696964983e-05 -3.861247587e-05)
(0.008452688864 -1.151370961e-05 -3.587353537e-05)
(0.008490623724 1.331814963e-05 -1.381142604e-05)
(0.008509704038 -6.519805735e-06 1.467202878e-05)
(0.008324611049 1.006174316e-05 1.919611512e-05)
(0.008222262461 -2.645406619e-06 1.574731201e-05)
(0.008153692915 7.985376448e-06 2.101267691e-05)
(0.008118013108 1.001096481e-06 3.424745439e-06)
(0.008194862008 -4.441191203e-05 -1.875942022e-05)
(0.008223006302 -6.143736204e-05 -3.019158737e-05)
(0.008124337128 5.523829233e-06 -2.648906275e-05)
(0.008147383989 2.024973598e-05 -1.511650466e-05)
(0.008221287888 1.707678389e-05 4.818354084e-06)
(0.008132955027 -5.666622286e-06 9.740155731e-06)
(0.008044289178 1.870069977e-06 -2.936219177e-06)
(0.00814980058 -1.903109422e-05 -1.52955136e-05)
(0.00630757995 1.855131952e-06 -2.244702319e-05)
(0.008265074899 -1.044736932e-05 -5.316813038e-05)
(0.008184933886 -1.201012545e-05 -6.504532678e-05)
(0.008216544929 -1.844162914e-05 -6.091647506e-05)
(0.008345309801 -8.876761597e-06 -2.704429851e-05)
(0.008275402444 5.410358382e-06 -2.747645019e-05)
(0.008314469511 7.159718003e-06 -3.376236807e-05)
(0.00827418064 3.904704512e-05 -2.64011896e-05)
(0.00843245111 1.461274022e-05 -5.810374046e-05)
(0.008406417656 2.074205817e-05 -5.397003355e-05)
(0.008563294945 1.790644279e-05 -5.902789136e-05)
(0.008412449548 8.191099138e-06 -4.518124333e-05)
(0.008411032969 8.985382798e-06 -6.540749367e-05)
(0.00830679622 1.73018318e-05 -6.069610592e-05)
(0.008273439535 -2.219655633e-05 -6.25160842e-05)
(0.008271158252 -1.60864003e-05 -6.353438063e-05)
(0.008265914703 -1.635211623e-05 -7.430571648e-05)
(0.008437576718 1.436987186e-05 -8.014334287e-05)
(0.008495396136 -2.25068284e-05 -7.631513938e-05)
(0.008499076929 -2.640545233e-05 -7.469358603e-05)
(0.006457052564 -1.761755885e-06 -7.554638026e-05)
(0.008557598268 -3.472275059e-06 -8.391581408e-05)
(0.008580262129 -2.188868848e-05 -6.82017651e-05)
(0.008467524547 -2.144028872e-05 -6.098667941e-05)
(0.008439724439 -2.647045162e-05 -7.141820629e-05)
(0.008274109714 -2.842480147e-06 -4.54364681e-05)
(0.008228456077 7.940623902e-06 -3.906474078e-05)
(0.008360179196 -8.926397787e-06 -5.052312562e-05)
(0.008413931546 -1.818649093e-05 -5.455376355e-05)
(0.008479615427 -2.045416783e-05 -4.825859229e-05)
(0.008368452635 7.188572295e-06 -6.130078638e-05)
(0.008447987038 1.301005507e-05 -4.754223808e-05)
(0.008407490857 5.711213332e-05 -3.320630774e-06)
(0.008504955747 3.782813196e-05 5.143711665e-06)
(0.008506747588 1.423360484e-06 6.915738631e-06)
(0.008460014557 -1.748539097e-05 -3.5817144e-06)
(0.008413049703 -2.957368264e-05 -2.370279619e-05)
(0.008268661625 -3.832834451e-05 -2.547410356e-05)
(0.008109138953 -7.108086446e-06 5.699713522e-06)
(0.008000958754 -9.799852453e-06 -4.299083942e-06)
(0.006331631042 -7.424440031e-06 -7.264786169e-06)
(0.008277093944 -6.130416239e-06 1.074280917e-05)
(0.008332287313 2.03014817e-05 5.180426476e-06)
(0.008307775517 -2.104198298e-05 -5.302419847e-06)
(0.008369730928 1.96420729e-06 -2.309250853e-05)
(0.00838267278 -4.183151267e-06 -3.550027911e-05)
(0.008399840416 -3.4980724e-05 -3.196727536e-05)
(0.0084646514 -1.65976553e-05 -4.409052516e-05)
(0.008427571629 -1.647973573e-05 -3.485089909e-05)
(0.008390952497 2.916022372e-05 -4.166401327e-05)
(0.008437602502 2.267026386e-06 -4.457443587e-05)
(0.008439355171 -1.434733877e-05 -7.410241954e-05)
(0.008428503671 -3.305836454e-05 -6.287026878e-05)
(0.008456089918 -2.805826396e-05 -7.181391025e-05)
(0.008396915376 -4.433602495e-06 -7.42911585e-05)
(0.008484889642 3.273647225e-05 -6.126641148e-05)
(0.008452886379 3.881311165e-05 -3.053109333e-05)
(0.008480229001 5.354815798e-05 -9.057326065e-06)
(0.008482481704 5.087958834e-05 -3.186281757e-05)
(0.008512317732 2.116451769e-05 -2.777269493e-05)
(0.006439362412 -1.378618945e-05 1.038973724e-05)
(0.008507207636 -1.367078362e-05 4.448177576e-06)
(0.008482124038 6.321491119e-06 2.565967283e-05)
(0.008518607626 4.009593152e-06 2.700739522e-05)
(0.00857450269 1.999308443e-05 3.65932635e-05)
(0.008560237133 1.749521615e-06 3.95309374e-05)
(0.008677983621 1.119270363e-05 2.579676933e-05)
(0.008337856472 6.013161811e-06 1.136439072e-05)
(0.008460769762 6.63235357e-06 1.31682605e-05)
(0.008336038044 -2.098115687e-05 1.289078306e-05)
(0.008168706814 -2.623634514e-05 3.806131515e-05)
(0.008266820845 5.178238786e-06 4.778614375e-05)
(0.008162068458 -1.346127645e-06 3.443627814e-05)
(0.008268312804 4.902816092e-06 2.234734531e-05)
(0.008225992894 1.052449208e-06 8.591541714e-06)
(0.008273615431 7.39946232e-06 8.447516165e-06)
(0.008298309891 -6.370261173e-06 1.083124791e-05)
(0.00862339713 -5.268613094e-05 -2.530794005e-05)
(0.008713176245 -1.42009989e-05 -1.240399619e-05)
(0.008739950558 -1.979830122e-05 2.014510707e-05)
(0.006334420648 -9.165027126e-06 9.733092087e-06)
(0.008229102879 -6.902515698e-06 1.040109762e-05)
(0.008168075914 -1.944415179e-05 -1.132925039e-05)
(0.008141228291 1.072776212e-05 2.194795186e-05)
(0.008042521385 -1.290806365e-05 1.200935673e-05)
(0.008030336662 -6.795166598e-06 -1.820966311e-06)
(0.008046010551 -7.336466977e-06 -1.181092543e-05)
(0.008051736639 -2.811827253e-06 4.105550941e-06)
(0.008084816911 -5.96723433e-06 6.661241664e-06)
(0.00824404209 1.757524376e-05 -1.728404729e-05)
(0.008282021764 2.451832215e-05 -3.36532207e-05)
(0.008298021442 -3.0026312e-06 -1.691855738e-05)
(0.00832765961 -4.140383986e-05 3.321776628e-06)
(0.008438692495 -3.999092826e-05 3.783967385e-05)
(0.008565378661 -2.477926135e-05 7.517829141e-05)
(0.008428418999 -2.850957287e-05 6.992069346e-05)
(0.008422463806 -2.46694503e-05 7.350905174e-05)
(0.008224046522 5.108971862e-07 5.93048824e-05)
(0.008124677667 -2.626387203e-05 5.082007942e-05)
(0.008151175315 -1.238617557e-05 1.302619532e-05)
(0.006283470591 -2.826482427e-05 -5.557007449e-05)
(0.008330447044 -5.234796215e-05 -8.704489838e-05)
(0.008261542509 -5.020633611e-05 -7.054442783e-05)
(0.008376149139 -4.226237931e-05 -6.489644019e-05)
(0.0084217787 -2.34963181e-05 -6.051095238e-05)
(0.008346042374 -1.044581412e-05 -4.388217958e-05)
(0.008312050185 -1.622312834e-05 -7.565750589e-06)
(0.008494881439 -1.420715948e-05 -1.243250296e-05)
(0.008534732738 9.540685715e-08 -7.203393952e-06)
(0.008545308284 -3.079012672e-05 2.565687447e-05)
(0.008435558987 -2.716361991e-05 1.499355514e-05)
(0.008490993487 -3.270533878e-05 3.753890046e-05)
(0.008522865753 -1.097774435e-05 5.82247699e-06)
(0.008429910795 8.271144893e-06 -3.673312517e-05)
(0.008285185285 2.669134352e-05 -4.801246835e-05)
(0.008219001118 1.730471143e-05 -6.225967223e-05)
(0.008109867221 4.412827507e-06 -4.080112903e-05)
(0.008099224298 -9.267166971e-06 -4.093211289e-05)
(0.008138708311 2.559196302e-05 -3.084454304e-05)
(0.008073472334 -2.290633385e-06 -2.565504998e-05)
(0.006318942433 5.192933442e-07 -3.615230943e-05)
(0.008311086864 -1.003950076e-05 -2.857071023e-05)
(0.008371218854 -2.256557906e-05 -1.247204645e-05)
(0.008349495735 -5.440351096e-05 -2.690404261e-05)
(0.008433663452 -5.769562389e-05 -2.335969398e-05)
(0.008271329453 -3.924619304e-05 -2.082936974e-05)
(0.008344837398 -1.236530991e-05 -1.868489676e-05)
(0.008257080063 3.720745237e-06 -5.30025129e-06)
(0.008286835656 -1.636567764e-05 -6.014605608e-06)
(0.00821896338 1.38965143e-06 -1.175901788e-05)
(0.008159465451 -1.147288615e-05 -2.15536609e-05)
(0.008158922965 2.286340084e-06 -3.949110363e-05)
(0.00817828169 4.473942538e-06 -2.697095851e-05)
(0.008178014708 1.371383951e-05 -6.085495791e-06)
(0.008177807002 1.319729385e-05 -1.805521577e-05)
(0.008288480342 1.204064728e-05 -1.720139596e-05)
(0.008452766161 1.165071376e-05 -1.708576471e-05)
(0.008335178299 2.547532583e-05 -1.989610542e-05)
(0.008197982613 4.841520126e-06 -1.881554294e-05)
(0.008320697097 -6.427943342e-06 -1.930067714e-05)
(0.006386094297 -1.765291847e-05 -3.002412923e-06)
(0.008377625872 -8.884147117e-06 -2.013446591e-05)
(0.008239593816 -7.544239127e-06 -3.64269813e-05)
(0.008136019628 1.927843246e-05 -3.63840701e-05)
(0.008104148339 1.774279532e-05 -2.623489455e-05)
(0.008178771515 1.352005508e-05 -4.297031476e-05)
(0.008202609586 -2.048355027e-05 -4.512610984e-05)
(0.008219691935 -4.843016984e-05 -5.892229977e-05)
(0.00813653095 -4.026610601e-05 -5.93004667e-05)
(0.008039028115 -4.00330054e-05 -4.465958348e-05)
(0.008032824938 2.009793211e-06 -4.493928301e-05)
(0.008104343939 4.065009842e-06 -3.582048169e-05)
(0.008173808729 5.763830582e-06 -2.322982602e-05)
(0.008146481185 2.433840973e-05 -4.544196775e-05)
(0.008179605866 -2.070055948e-05 -6.33513448e-05)
(0.008232189204 -3.072777575e-05 -6.616125225e-05)
(0.008408357987 -2.13385467e-05 -5.213882113e-05)
(0.008497929199 -2.804586167e-05 -5.926648753e-05)
(0.008524962097 -1.664038846e-05 -5.123760244e-05)
(0.00847256408 -1.534004622e-05 -1.694410855e-05)
(0.006340872122 -8.007697861e-07 9.954954314e-07)
(0.008423749959 3.357028153e-06 -2.496239679e-05)
(0.008387380785 2.321253951e-05 -2.394979148e-05)
(0.008621597315 5.012209039e-06 -3.118550687e-05)
(0.008688096084 -1.023894957e-05 -5.014481124e-05)
(0.00858465073 -6.103027061e-06 -6.635217938e-05)
(0.008527396255 8.973703259e-06 -5.100331674e-05)
(0.008470766194 3.856531145e-05 -5.245216278e-05)
(0.00856556196 2.178490613e-05 -7.806331783e-05)
(0.008621586826 -3.437043145e-06 -5.990453051e-05)
(0.00848439738 -2.434891656e-05 -3.87562048e-05)
(0.008462184811 -2.060689105e-05 -3.623462503e-05)
(0.008456590809 -3.665041391e-05 -4.547862573e-05)
(0.008450414646 -3.50514432e-05 -2.525260527e-05)
(0.008742761276 -4.98391438e-05 6.770203495e-07)
(0.008522737362 -4.385811927e-05 -1.19963296e-05)
(0.008340492768 -5.182470212e-05 -4.873232603e-06)
(0.008224721057 -5.658531551e-05 7.272403474e-06)
(0.008099547464 -3.586191084e-05 6.894670694e-06)
(0.008270460064 -7.853146908e-06 1.417779568e-05)
(0.006340827768 -2.431164078e-05 -5.580575189e-08)
(0.008505354441 -3.919284924e-05 -1.272509405e-05)
(0.008513892042 -4.026640494e-05 -6.11693271e-06)
(0.008390253693 -4.511673709e-05 -1.549126069e-06)
(0.00839622424 -6.412232906e-06 8.554974696e-06)
(0.008428751453 -2.150574931e-05 1.671826175e-05)
(0.008591077454 -8.323290434e-06 3.635533088e-05)
(0.008640115073 8.122893736e-06 2.885643182e-05)
(0.008641386287 1.716883718e-05 4.722846988e-05)
(0.008676377085 4.811828116e-06 2.19045914e-05)
(0.008661531763 -2.316994873e-06 3.329607696e-06)
(0.008791527992 -2.753087174e-06 -6.622761062e-07)
(0.008669411225 9.110515564e-06 3.999751866e-06)
(0.00850213734 2.636389395e-05 -1.386963856e-05)
(0.008202943094 2.183977788e-06 6.419894455e-06)
(0.008285590527 2.942511702e-05 1.473257082e-05)
(0.008435529446 5.859395224e-05 -1.775160402e-05)
(0.008299657525 3.524755277e-05 8.156133329e-07)
(0.008416209383 1.841243052e-05 -2.791733315e-05)
(0.00830138314 6.657874235e-06 -2.163907092e-05)
(0.006237603053 -3.471426768e-06 1.121005532e-05)
(0.007965572263 -2.283624757e-05 1.253981859e-05)
(0.00791625592 -2.450713698e-05 4.708385415e-05)
(0.008044619098 -1.793086791e-05 4.947787381e-05)
(0.008068543588 -1.578521446e-05 4.258804448e-05)
(0.008087911286 4.610660059e-07 5.507750456e-05)
(0.008097569367 -4.334117609e-06 3.796340149e-05)
(0.008133839898 -2.403982898e-05 7.297307619e-05)
(0.008031539413 -3.173083813e-05 6.019967861e-05)
(0.008124821947 2.180902399e-05 5.467938786e-05)
(0.008189929593 5.142746235e-05 3.182196241e-05)
(0.008208790223 7.969537909e-05 3.654401128e-05)
(0.008295997026 4.148636854e-05 8.813390491e-07)
(0.008350351809 4.092207198e-05 1.606593073e-05)
(0.008524136555 7.880324134e-05 -4.763739735e-06)
(0.008381714223 4.682586145e-05 -1.553808073e-05)
(0.008368252022 2.822671971e-05 -2.17881689e-05)
(0.008405806574 4.309644689e-05 -1.239436193e-05)
(0.008423276198 4.10775335e-05 -1.256094629e-06)
(0.008396798719 2.616586126e-05 2.550050789e-06)
(0.008090758166 2.214251998e-05 1.145801721e-05)
(0.008065054824 3.993756861e-05 -1.636199696e-06)
(0.008086388411 -4.046739247e-06 -8.607953178e-06)
(0.008292056692 -2.862371647e-05 -1.2788976e-05)
(0.008231974889 1.127763202e-06 -1.760698973e-05)
(0.008215605255 4.274920177e-05 -2.86205815e-05)
(0.008063060857 2.240352587e-06 7.980501383e-06)
(0.008057101793 4.687668185e-06 3.387091947e-05)
(0.008189846634 -9.104088571e-06 2.823864792e-05)
(0.008141352175 -6.394429958e-06 1.06684667e-05)
(0.008292352692 -4.14346238e-05 1.471475722e-06)
(0.008250410378 -2.410995354e-05 1.401378962e-05)
(0.008157348676 2.658298411e-06 7.934524499e-06)
(0.008211591801 6.590763679e-05 1.097565193e-05)
(0.008042281726 2.866532124e-05 1.162936675e-05)
(0.008140410979 5.030167811e-05 1.882683715e-05)
(0.008440670771 1.667605013e-05 2.832257996e-05)
(0.008318895032 -1.547979585e-05 6.203317772e-06)
(0.00836640949 -3.171183005e-05 9.61015267e-06)
(0.008260916712 -1.488500813e-05 -1.289999024e-05)
(0.008125813088 -8.424676962e-06 2.378005759e-05)
(0.008163343058 4.990992823e-06 2.079679323e-05)
(0.008283057251 1.593249084e-05 -6.452453799e-07)
(0.008300546216 4.726543862e-06 3.922947697e-05)
(0.008391017837 5.04359273e-06 2.335106076e-05)
(0.008443537758 2.970466787e-05 3.916752661e-05)
(0.008138234161 -3.011659541e-05 -2.386666023e-05)
(0.00821876289 9.32768801e-06 -1.724651926e-05)
(0.008350169567 -1.027570778e-05 -1.0884611e-06)
(0.008345925778 -3.174530162e-05 7.544320507e-07)
(0.008429991439 -3.297672459e-05 -2.393023045e-05)
(0.008388597789 -1.668236862e-05 -3.131923093e-05)
(0.008351179092 -1.375819595e-05 1.907842728e-06)
(0.008482953053 -2.573792186e-05 -1.203021435e-05)
(0.008252954881 -2.740233547e-06 -2.267496175e-05)
(0.008423020494 -3.667626901e-05 -1.767422461e-05)
(0.008560194384 -3.166016446e-05 -1.472767493e-05)
(0.008424447918 2.032164734e-06 -3.088387508e-05)
(0.008373056171 1.729889757e-05 -2.256382337e-05)
(0.008288560098 3.965450621e-05 -1.942239468e-05)
(0.008370070178 6.686074743e-06 8.257911861e-06)
(0.008387210802 1.581315863e-06 2.014109961e-05)
(0.008297957786 -1.354519883e-05 1.769740557e-06)
(0.008296711948 -2.748236734e-05 2.347155164e-05)
(0.008219957061 -3.012834799e-05 5.530542018e-06)
(0.008232769159 -3.411234319e-05 7.7681716e-06)
(0.00836721154 -5.292498004e-06 7.675967676e-05)
(0.008343739377 -5.487095925e-07 3.993730002e-05)
(0.008292443522 -1.447032152e-05 4.853243002e-05)
(0.008491301288 -1.541332492e-05 3.46801868e-05)
(0.008475263005 -1.689535541e-06 1.784557496e-05)
(0.00836532145 1.779127079e-05 -1.186829143e-06)
(0.008339384215 -3.705673086e-07 1.998318442e-05)
(0.008584663979 7.928026856e-06 -1.741912878e-05)
(0.008504731549 -2.340190204e-05 -2.650500386e-06)
(0.008478207334 2.697480909e-05 -2.808249665e-05)
(0.008397542759 3.212377108e-05 -2.579745429e-05)
(0.008430865552 2.855136671e-05 -2.492238973e-05)
(0.008198107277 3.253637313e-05 -2.961506045e-05)
(0.008272442449 3.294279745e-05 -1.670304296e-05)
(0.008416126132 -2.322645892e-05 8.846943276e-07)
(0.008381672576 -4.58402883e-05 1.026372188e-06)
(0.008323814831 -3.028844919e-05 -1.394174961e-05)
(0.008262907558 -6.255283063e-06 5.363299701e-06)
(0.008230588823 4.902092431e-06 -1.05062832e-05)
(0.008402868004 -1.543150797e-05 -3.467735833e-05)
(0.008180465878 -1.187493098e-05 1.506405849e-05)
(0.008316477423 -2.045083172e-05 1.106109295e-05)
(0.008397606861 -4.11737864e-05 -2.893047143e-06)
(0.008325396576 -2.530943789e-05 -4.899924076e-05)
(0.008269036829 1.017725097e-05 -0.0001074974343)
(0.00840477197 2.005821195e-05 -8.777361786e-05)
(0.008443030524 2.277378127e-05 -6.90980571e-05)
(0.008371160549 1.508799094e-05 -5.575600144e-05)
(0.008115766706 3.445684567e-05 -4.21330843e-05)
(0.008113792434 2.115699904e-05 -5.173968615e-07)
(0.008508783883 -3.590957426e-05 -8.839515145e-05)
(0.008457625012 -2.20458417e-05 -6.968123429e-05)
(0.008384529064 1.324194818e-05 -2.991387066e-05)
(0.008278522898 -1.019984137e-05 2.46718044e-05)
(0.008229440779 -9.435672777e-07 5.4880435e-05)
(0.008183011513 2.214401643e-05 5.350393479e-05)
(0.00810214801 1.996698134e-06 2.222917162e-05)
(0.008255117307 2.63971234e-05 1.888365197e-05)
(0.008316090036 3.484067843e-06 -2.182600187e-05)
(0.008406618846 -7.664968359e-05 -4.008750333e-05)
(0.007978797704 2.223850292e-06 -2.605860213e-06)
(0.008003794967 -1.026177869e-06 -1.039549614e-05)
(0.008080124453 -5.568936509e-07 -2.961826105e-05)
(0.008077392889 1.254532158e-05 -5.49128093e-05)
(0.008195015514 -9.229444315e-06 -6.156964888e-05)
(0.008168410755 -3.338451229e-05 -6.407020826e-05)
(0.008264613961 -5.376598337e-05 -4.959230855e-05)
(0.008273804913 -6.987626297e-05 -3.513750864e-05)
(0.008401384793 -3.459189056e-05 -1.023459603e-05)
(0.008308057008 1.294900398e-06 -4.080853051e-05)
(0.008601389405 2.533893311e-05 -2.529110678e-05)
(0.008697021919 9.210462476e-06 -6.029023436e-05)
(0.008728234291 3.853697965e-06 -4.277165649e-05)
(0.008846596819 -7.470777376e-06 -8.641710584e-06)
(0.008665230315 3.674379338e-06 -2.149091516e-05)
(0.008599168319 -8.48184899e-08 5.747108499e-06)
(0.008713382886 1.091406965e-05 -2.497906956e-05)
(0.008629953673 2.876087488e-05 -4.220745899e-05)
(0.008492099731 4.39576461e-05 -4.856158616e-05)
(0.008338051352 4.845726481e-06 -2.084414214e-05)
(0.008739424594 -2.597567439e-05 3.322891278e-05)
(0.008541308575 -2.024337539e-05 4.370582984e-05)
(0.008479912202 -1.850361884e-05 3.574410323e-05)
(0.008365365812 1.45502067e-05 4.743059156e-05)
(0.008500214987 1.949283287e-05 2.543659219e-05)
(0.008508319652 2.351944501e-05 -2.612494034e-06)
(0.008425372414 4.284320024e-05 -5.164174564e-06)
(0.0083993561 6.622805616e-05 1.212364692e-05)
(0.008471782925 6.737392456e-05 1.17897519e-05)
(0.008397572572 0.0001039350442 1.019479474e-05)
(0.00814290126 8.598567115e-06 3.275256972e-05)
(0.008214405724 -4.589279177e-06 1.401519941e-05)
(0.0082042449 1.086103064e-05 -2.531634179e-06)
(0.008149687657 1.985639539e-05 -2.074421798e-05)
(0.008070610659 2.031001312e-05 -7.84778051e-06)
(0.007992672425 1.716287104e-05 9.077463669e-06)
(0.007964953696 1.114782914e-05 2.685592548e-05)
(0.008262877516 -6.190532151e-06 -9.127790474e-06)
(0.008277357005 -3.124088655e-05 -2.970464175e-05)
(0.008361700325 1.081279024e-05 -2.873275999e-05)
(0.00811683531 9.222845927e-06 -4.659109011e-05)
(0.008049787443 1.422473951e-05 -5.00671674e-05)
(0.008124544912 -1.30616399e-06 -3.701896837e-05)
(0.008192189699 -1.977094345e-05 -3.638711164e-05)
(0.008288740765 -4.244058653e-05 -5.911919121e-05)
(0.008329550407 -4.790618155e-05 -5.23557037e-05)
(0.008429013891 -2.402313525e-05 -5.945313004e-05)
(0.008299050907 -1.250141506e-05 -3.240004066e-05)
(0.008219747736 1.457293594e-05 -1.641600242e-05)
(0.008211424765 -3.129364962e-05 7.659604412e-06)
(0.008404568246 -2.971705774e-05 -2.899829238e-05)
(0.008470863611 -4.652318728e-05 -2.546919687e-05)
(0.008521541129 -5.042624344e-05 -1.982234564e-05)
(0.008499936197 -2.201620609e-05 -1.424891916e-05)
(0.008469774908 1.395067234e-05 -9.60490445e-06)
(0.008417841266 2.99700147e-05 -7.215971684e-06)
(0.00835069741 3.715380629e-05 -1.021023948e-06)
(0.00826489466 2.995615518e-05 -1.775900317e-05)
(0.008244484445 2.970895919e-05 -1.94446661e-07)
(0.008127136634 7.980311818e-06 -3.004851069e-05)
(0.008299093012 -4.981712252e-06 -1.507304608e-05)
(0.008180260065 1.486576657e-05 -2.893174642e-05)
(0.008106240773 1.225824212e-05 3.259511987e-06)
(0.008080752123 5.535924839e-06 6.029182216e-06)
(0.00813467537 -3.248819931e-06 4.452280976e-06)
(0.007960166526 -2.402145658e-05 -3.686470667e-06)
(0.008069566104 -2.847743817e-05 -9.314992565e-06)
(0.008134182635 2.104086863e-05 -4.033914218e-05)
(0.008274205783 3.134707822e-05 -3.100415775e-05)
(0.008365833409 4.456576401e-05 -2.693871982e-05)
(0.008326694748 4.562573112e-05 9.337343465e-06)
(0.008390675407 3.566923698e-05 3.807097279e-05)
(0.008475981269 6.519273676e-05 -6.41496364e-06)
(0.008347825856 3.389817526e-05 -8.475940681e-06)
(0.00838781418 3.176635952e-05 -1.651442646e-05)
(0.008336894456 2.351399355e-05 1.061627352e-05)
(0.008359158421 6.990507429e-06 -1.843775261e-06)
(0.008284523715 -5.261913936e-05 -2.925633074e-06)
(0.008368852283 -6.530023153e-05 1.738863396e-06)
(0.008259566489 -6.387486927e-05 -8.247989743e-06)
(0.008219687113 -9.600879601e-06 -2.65500647e-05)
(0.008109590094 -1.888134681e-05 -4.02563015e-05)
(0.008214812032 -5.170383892e-05 -2.534224555e-05)
(0.00835598846 -2.211918108e-05 2.715067576e-06)
(0.008433156678 1.084541132e-05 -1.003739292e-05)
(0.008570020952 1.698451511e-05 -2.678538453e-05)
(0.008497806251 1.621057264e-05 -7.200533162e-06)
(0.00856910324 -8.649379038e-06 3.431412015e-05)
(0.008623483 -2.276737209e-05 4.108223002e-05)
(0.008476953945 1.159826682e-06 3.413066913e-05)
(0.008496125671 -8.703389916e-07 -2.227256821e-07)
(0.008473202141 2.491374296e-05 -1.341712577e-05)
(0.008376701643 2.408134987e-05 -5.590586461e-06)
(0.008510071328 4.595678653e-05 -6.801567169e-06)
(0.008446370176 1.99116592e-05 -1.271368944e-05)
(0.008384981595 1.455280135e-05 4.518394551e-06)
(0.008537588625 2.956131161e-05 4.37093045e-06)
(0.008356290347 4.476601121e-05 -3.143696602e-05)
(0.008328503122 5.303123008e-05 -4.086545214e-05)
(0.008340213021 3.021443132e-05 4.977245018e-06)
)
;

boundaryField
{
    flow
    {
        type            calculated;
        value           nonuniform List<vector> 
48
(
(0.006310468376 -5.400637932e-05 2.600398301e-06)
(0.006363122223 2.602761031e-05 2.382210491e-05)
(0.006344090234 2.476073069e-05 -1.041093771e-05)
(0.006309834241 6.953408692e-06 -1.099894168e-05)
(0.006403388704 -2.427478606e-05 8.991500818e-06)
(0.006334795107 1.318102638e-05 1.914828061e-05)
(0.006357431678 9.324516208e-06 -9.454268562e-06)
(0.00630757995 1.855131952e-06 -2.244702319e-05)
(0.006457052564 -1.761755885e-06 -7.554638026e-05)
(0.006331631042 -7.424440031e-06 -7.264786169e-06)
(0.006439362412 -1.378618945e-05 1.038973724e-05)
(0.006334420648 -9.165027126e-06 9.733092087e-06)
(0.006283470591 -2.826482427e-05 -5.557007449e-05)
(0.006318942433 5.192933442e-07 -3.615230943e-05)
(0.006386094297 -1.765291847e-05 -3.002412923e-06)
(0.006340872122 -8.007697861e-07 9.954954314e-07)
(0.006340827768 -2.431164078e-05 -5.580575189e-08)
(0.006237603053 -3.471426768e-06 1.121005532e-05)
(0.006237603053 -3.471426768e-06 1.121005532e-05)
(0.007965572263 -2.283624757e-05 1.253981859e-05)
(0.00791625592 -2.450713698e-05 4.708385415e-05)
(0.008044619098 -1.793086791e-05 4.947787381e-05)
(0.008068543588 -1.578521446e-05 4.258804448e-05)
(0.008087911286 4.610660059e-07 5.507750456e-05)
(0.008097569367 -4.334117609e-06 3.796340149e-05)
(0.008133839898 -2.403982898e-05 7.297307619e-05)
(0.008031539413 -3.173083813e-05 6.019967861e-05)
(0.008124821947 2.180902399e-05 5.467938786e-05)
(0.008189929593 5.142746235e-05 3.182196241e-05)
(0.008208790223 7.969537909e-05 3.654401128e-05)
(0.008295997026 4.148636854e-05 8.813390491e-07)
(0.008350351809 4.092207198e-05 1.606593073e-05)
(0.008524136555 7.880324134e-05 -4.763739735e-06)
(0.008381714223 4.682586145e-05 -1.553808073e-05)
(0.008368252022 2.822671971e-05 -2.17881689e-05)