/*--------------------------------*- C++ -*----------------------------------*\
| =========                 |                                                 |
| \\      /  F ield         | OpenFOAM: The Open Source CFD Toolbox           |
|  \\    /   O peration     | Version:  2406                                  |
|   \\  /    A nd           | Website:  www.openfoam.com                      |
|    \\/     M anipulation  |                                                 |
\*---------------------------------------------------------------------------*/
FoamFile
{
    version     2.0;
    format      ascii;
    arch        "LSB;label=32;scalar=64";
    class       volScalarField;
    location    "0.001";
    object      overallT;
}
// * * * * * * * * * * * * * * * * * * * * * * * * * * * * * * * * * * * * * //

dimensions      [1 2 -2 0 0 0 0];

internalField   nonuniform List<scalar> 
546
(
287.9525737
296.8950311
295.7693283
296.3639731
294.9067117
294.0305503
296.3132651
299.6318851
300.0345346
296.9292285
295.7900381
296.9982149
299.1930019
299.3973005
296.2164894
296.3134538
293.9880337
294.6581565
301.1357247
303.8205036
296.2175682
304.2632081
298.3078795
298.0104019
298.9699148
302.7256875
304.2751818
303.6318665
299.9123179
302.340218
300.3016919
297.2162156
297.0175189
296.5664318
299.270642
301.5590287
304.9435199
306.0089991
304.7650489
303.7397132
291.491251
303.7941434
297.3045238
298.6677428
303.4683271
300.9608562
296.2246277
297.2090465
297.1467935
297.0648268
296.254692
300.9174815
297.4177321
299.2025422
295.385791
299.0696066
298.7401278
296.5558691
298.7346108
298.1657812
293.8312625
300.4444899
300.6703747
298.9874384
294.804605
295.4889999
297.8146332
298.694171
296.976992
297.4680112
297.7112901
299.1410894
299.860319
302.7146729
304.9046799
301.1570283
298.9206175
299.6718339
299.3775317
298.9213589
293.0841154
305.7851212
298.0639601
295.151623
292.6088929
294.9190685
296.1814282
292.675761
296.3757046
297.7156523
299.9381256
295.8147952
299.1566819
298.24659
298.3473744
300.2430364
302.6346771
306.8876614
304.0858668
307.0659846
292.1634955
301.8188361
296.0728349
301.9994726
303.1465844
298.4391762
294.3514544
299.9014388
296.4274997
298.9606443
296.6791425
296.9274217
295.9226342
297.8787835
299.6324733
303.89867
301.6574683
298.4523644
299.4172292
300.2677288
287.4280436
297.0876325
293.3682207
292.2546559
294.5625748
298.014182
305.1014238
305.3382157
299.6678124
300.1786836
300.5324232
298.5990606
301.1810786
299.9566439
299.5330146
297.6051828
301.8133755
304.9041679
305.4481124
307.3843114
293.3243815
303.4360889
299.0608174
301.9670292
299.6123395
298.1159922
296.2443769
294.9135039
294.4461345
295.7695431
297.9978467
296.4500397
296.5050624
297.0898146
293.541974
296.9356581
297.4953522
298.5224993
298.5237873
298.3020325
293.4293032
306.0260428
300.6236187
299.1049915
298.6919578
298.2917082
298.2476688
299.8571756
301.4232111
303.5515396
300.4810111
298.5651571
297.6277791
296.1130758
297.6655525
296.1203413
296.6925076
295.0560025
294.3402522
294.3035093
291.4116264
301.4074515
297.5167914
296.1909621
296.170062
294.3798888
295.147979
298.1638197
300.2402643
300.860482
302.3885581
302.056557
300.1349587
300.135136
300.4015445
296.5691628
295.7725785
297.9290045
290.038682
291.2631546
290.1485426
301.8166563
297.1505772
296.4708051
301.1775758
305.0295764
305.1753028
301.838989
301.2750073
296.7517313
297.445856
299.3343489
299.6506839
299.4443422
297.4687968
296.4652981
299.0294301
296.3863949
303.141613
301.096285
291.4304122
299.8198187
296.8498507
302.3685407
299.8098252
298.720539
295.1841518
296.9287863
294.8951486
295.197621
293.8603191
294.6743328
296.9997848
302.8589198
301.0181518
299.1805248
298.7521899
304.4318631
300.5676714
303.5605112
296.6870529
304.5752286
297.5171395
298.7917417
299.3547571
297.316236
298.0366874
297.0436049
297.3933421
297.8577059
297.539575
297.3002009
295.8348437
293.584188
292.2178801
296.4786579
298.0285535
295.2275358
294.4486011
295.8302779
287.0069642
301.9825066
297.2089036
297.4085665
297.1130873
295.2997546
298.9268224
301.8933199
297.7932531
303.4969731
301.6889564
302.3556123
304.916788
303.7278385
300.7324424
300.8213861
298.3657289
296.1206604
294.0280405
295.3609464
302.8169453
310.8705791
301.5431895
299.6828499
300.0012094
303.2203156
306.4937231
306.0399188
307.4277152
301.5595076
302.2212681
299.4994491
300.1965275
299.2214364
299.9204466
298.7473442
299.9411649
304.8912896
307.3734219
306.2291913
293.7958194
301.8049026
299.6590994
307.7766377
307.7580027
302.9596347
301.1444188
295.9975631
300.9077898
304.7649716
303.8122898
299.1628075
302.7274949
302.1304672
302.3031439
303.7867547
303.6413269
299.9404394
300.1824907
302.2078388
291.0648856
300.6280472
296.9319952
293.69397
295.6261695
296.9238975
297.2997601
296.4816089
295.3889005
297.0539887
300.7163875
303.1829698
299.8053712
300.0554973
298.0723704
298.4043787
299.5393349
303.496698
302.3852881
301.1037921
294.0909328
301.7649376
293.5985242
296.4492876
289.8270306
290.3358331
295.3413317
297.0905972
294.0307334
293.0648728
293.0642324
291.5062738
294.956694
296.7148302
295.3516216
293.3847804
294.2485547
294.5767863
290.8316806
291.0461184
309.8513437
312.2833592
303.4513264
301.5063596
299.9497439
308.6630749
297.7711641
298.1506863
295.3716146
293.6443915
295.375258
301.8459353
301.8999287
311.2533891
302.7540398
313.7086214
298.7964395
297.3555335
296.4677229
295.398015
299.3183942
294.9131771
294.981949
297.7798145
295.6386321
299.8674598
305.0044121
300.8124522
299.7116221
295.3641384
290.9906634
294.129022
299.900321
307.9899129
303.9723049
304.2507319
298.9986384
301.0542443
300.8143738
303.971873
307.4606243
310.5586999
311.1502426
307.7834195
310.5739268
309.4061963
306.7148372
308.176073
306.4308921
305.9014987
302.9660277
299.0501515
298.1073903
305.3639853
304.2513312
303.0883384
297.7868092
299.2642439
300.714388
301.8495913
305.0418979
302.0944189
298.9840471
296.1168461
292.3689759
295.6520382
307.4949761
304.900544
306.122508
304.7934774
304.9003915
307.3029418
305.3956249
311.8168713
308.5978494
305.2045611
296.8873257
296.5227591
295.8082519
302.1537343
302.0092388
303.3154202
302.2145463
304.1460108
305.1672727
304.5695054
294.6021245
295.8684226
294.9120862
292.7762489
292.4261897
290.8793556
295.190598
292.1544212
297.8185706
298.8045242
293.0718434
295.5229547
298.6949224
302.4017169
297.4158898
302.908023
301.4963938
304.1021694
297.6199395
298.0800116
299.2738539
298.1540164
296.6510971
294.2858317
294.4688897
293.1501903
292.535595
293.5136807
296.2194232
299.9336527
303.0376952
305.9449197
304.4938684
301.3124369
303.6028307
302.9208355
303.3267541
305.8093908
306.2241084
307.8273923
298.1922522
294.3208342
297.6509581
300.0110796
300.4367954
299.9368902
302.6682278
299.0298271
295.1382059
290.844676
290.5956484
293.2196536
294.3042515
297.5572784
296.9475051
295.8484026
291.790544
293.1516008
296.5999051
301.0784427
308.1610634
309.0726102
307.0380285
300.6404803
298.3942493
299.5661543
295.8918411
295.7268767
296.3220288
297.0534767
298.154663
297.9561558
297.7596293
300.0435875
299.0338986
295.7142109
299.0836451
300.5928065
299.4690498
301.1887331
301.0323082
302.2335711
300.3038814
301.77202
302.9989004
305.2086571
308.6106036
304.8282462
304.0853
297.5641896
293.8494928
296.774857
300.0292932
300.8080099
301.5634838
298.2906533
294.5028558
294.5825143
296.1803957
300.2716443
)
;

boundaryField
{
    flow
    {
        type            calculated;
        value           nonuniform List<scalar> 
48
(
287.9525737
296.2175682
291.491251
293.8312625
293.0841154
292.1634955
287.4280436
293.3243815
293.4293032
291.4116264
290.1485426
291.4304122
296.6870529
287.0069642
302.8169453
293.7958194
291.0648856
294.0909328
294.0909328
301.7649376
293.5985242
296.4492876
289.8270306
290.3358331
295.3413317
297.0905972
294.0307334
293.0648728
293.0642324
291.5062738
294.956694
296.7148302
295.3516216
293.3847804
294.2485547
294.5767863
290.8316806
291.0461184
293.8494928
296.774857
300.0292932
300.8080099
301.5634838
298.2906533
294.5028558
294.5825143
296.1803957
300.2716443
)
;
    }
    obstacle
    {
        type            calculated;
        value           nonuniform List<scalar> 0();
    }
    frontAndBack
    {
        type            empty;
    }
    procBoundary2to0
    {
        type            processor;
        value           nonuniform List<scalar> 
31
(
287.9532699
299.0213113
294.5728733
293.3862976
294.0561412
294.1584729
292.0204686
290.6690757
292.4483571
294.3499407
295.7009482
303.01048
295.4026923
300.0741061
301.0453899
298.1848029
297.4753211
305.3370736
300.0222893
301.6114044
303.231747
303.1633536
306.050298
313.3180917
321.603486
315.0803362
296.8053835
298.9772596
302.3937397
302.9705856
302.9705856
)
;
    }
    procBoundary2to3
    {
        type            processor;
        value           nonuniform List<scalar> 
19
(
320.8760327
316.7896781
303.6545789
309.874486
317.9744026
307.6227768
300.7473551
303.9643487
301.6593983
297.1106875
293.7655058
301.6126724
304.3076427
290.6268479
306.6286835
299.3160511
300.415099
296.3951469
303.3548614
)
;
    }
}


// ************************************************************************* //
