/*--------------------------------*- C++ -*----------------------------------*\
| =========                 |                                                 |
| \\      /  F ield         | OpenFOAM: The Open Source CFD Toolbox           |
|  \\    /   O peration     | Version:  2406                                  |
|   \\  /    A nd           | Website:  www.openfoam.com                      |
|    \\/     M anipulation  |                                                 |
\*---------------------------------------------------------------------------*/
FoamFile
{
    version     2.0;
    format      ascii;
    arch        "LSB;label=32;scalar=64";
    class       volScalarField;
    location    "0.001";
    object      p;
}
// * * * * * * * * * * * * * * * * * * * * * * * * * * * * * * * * * * * * * //

dimensions      [1 -1 -2 0 0 0 0];

internalField   nonuniform List<scalar> 
546
(
0.3040585355
0.4090027561
0.4097891578
0.4135917568
0.4087830375
0.4064843499
0.4039768062
0.4120474226
0.4104443445
0.4068997603
0.4017789171
0.4037513744
0.4046322771
0.4030736465
0.3979657532
0.3911368588
0.390364415
0.394337806
0.4123788954
0.4160293337
0.3165643959
0.4213014226
0.4059978288
0.4057879434
0.4060525803
0.4171631742
0.4281050068
0.4251633401
0.4119703198
0.4154393857
0.4098697026
0.399538476
0.4005437304
0.3951101232
0.40346064
0.4103060801
0.4147716754
0.4164629781
0.4240868675
0.4233763459
0.3084788341
0.4299024499
0.412314313
0.4180676945
0.4276831574
0.4208151903
0.4073373254
0.4052673101
0.411406832
0.4116628955
0.4012058521
0.4142884838
0.40160281
0.4082188888
0.3951778629
0.4054326526
0.4078040437
0.4038790453
0.4075715248
0.4044945874
0.3108962554
0.4194508639
0.4264368888
0.4233269785
0.4039786808
0.4099233203
0.4137145511
0.4131112362
0.4115938838
0.405920836
0.4107409701
0.4045229466
0.420072939
0.4247147897
0.4321583266
0.4196821275
0.4083561244
0.4112116904
0.4248208345
0.4200211695
0.3129064849
0.4362884151
0.4153518122
0.4090584638
0.3995080394
0.4013107626
0.4035731468
0.4093670265
0.4155573178
0.4162913664
0.4204848292
0.4148409362
0.4228604421
0.4188016798
0.422941753
0.4267731491
0.4287742837
0.4341628117
0.4116347449
0.4158596434
0.3079833418
0.4119727446
0.3988888571
0.4096428219
0.4204437637
0.4212042432
0.4139306658
0.4135778791
0.4094295076
0.414485085
0.4139609893
0.413090221
0.4149280872
0.4129386591
0.4177927495
0.4357888375
0.429860627
0.4226179744
0.4267839384
0.4338401943
0.2995464859
0.4105888208
0.410324172
0.4120793892
0.4069132462
0.4162495529
0.4254550206
0.4256818784
0.408340954
0.4051586807
0.3976096778
0.397257016
0.4092505939
0.4056569734
0.4074715523
0.4010538625
0.4096585458
0.4081479487
0.4048177551
0.4125111118
0.3027070075
0.4113338833
0.4061706017
0.4121603551
0.4146739725
0.4084553603
0.4109316627
0.4112522351
0.4171540818
0.4152867121
0.4317557604
0.4232662836
0.4203355998
0.412330066
0.403280774
0.4082051431
0.4094419971
0.4243091534
0.4265901059
0.4256095064
0.3147452391
0.4359229315
0.4223885164
0.4155970099
0.4147241644
0.4072925982
0.4057196068
0.4160794301
0.423062107
0.4286148405
0.4182851463
0.4156187797
0.4155837878
0.4181208166
0.4187049234
0.4167286167
0.4177925036
0.4103110224
0.4028599607
0.3961686648
0.3082984568
0.4154597025
0.4172921457
0.4119882177
0.4152858527
0.4122660499
0.4107877755
0.4212396591
0.4171366324
0.4193809277
0.42154007
0.4223010133
0.4197859059
0.4214555038
0.4199409185
0.4209696102
0.4159144414
0.4181344694
0.4053559805
0.409978346
0.3111167009
0.4274598793
0.4122531551
0.4154749125
0.426051343
0.4340304608
0.4386520612
0.4143081559
0.423007453
0.4057262293
0.4005899976
0.4093487144
0.4099686493
0.4097719745
0.4057119719
0.4061881773
0.408906729
0.4229519345
0.436641659
0.4331022952
0.3085256489
0.4107285822
0.4009220624
0.4117111801
0.4019630019
0.3978088561
0.3968043615
0.3967293004
0.3955434248
0.4050554284
0.4047534496
0.4076826015
0.4097693655
0.4266354451
0.4311262656
0.4238336927
0.427078126
0.423177345
0.4087061606
0.4110440673
0.3082739165
0.4186878034
0.405611519
0.4120693795
0.4166472635
0.4080085851
0.4115787394
0.4196705774
0.4219431909
0.4252224755
0.4202981214
0.4239955852
0.4242503815
0.4084010908
0.4000760818
0.4025295738
0.3985003536
0.3987871893
0.4025683402
0.3984271887
0.2999489391
0.4184830778
0.4161347389
0.4157410014
0.4181048813
0.4077253796
0.4163199375
0.4196010657
0.4114936986
0.4177588714
0.4131309019
0.4102097472
0.4124159489
0.4146731054
0.4067274844
0.4171201484
0.4196211564
0.4096141447
0.4014412954
0.4085432113
0.3217858866
0.4344653407
0.4085199671
0.4002151486
0.4003235574
0.4089821885
0.4184537409
0.41647057
0.4168825681
0.4033424912
0.4061696741
0.4052745214
0.4101173353
0.4068441837
0.4116827206
0.4145925534
0.4247281069
0.4388437033
0.4391031549
0.4383011773
0.3093820926
0.4205420379
0.4168832402
0.4397953297
0.4402825436
0.4279632232
0.4165415222
0.4074678413
0.4194693932
0.4321518273
0.4193002429
0.4136267816
0.4197199395
0.4203271765
0.4382450767
0.4253911207
0.4158306881
0.4051641871
0.4006885596
0.4158669312
0.306297067
0.4263795842
0.4163776253
0.4065558992
0.406749477
0.4099467053
0.4226560747
0.4247840214
0.4199031759
0.422086902
0.4326766193
0.4444180046
0.4320329132
0.4226358282
0.3999141269
0.408502788
0.41824359
0.4159428765
0.4198488139
0.4077440646
0.3096473114
0.4044481045
0.3885085125
0.3967070393
0.3871967973
0.3877138507
0.3987198058
0.4000677872
0.3920918476
0.3945908573
0.3949348774
0.391676437
0.4032898969
0.4141398614
0.4229371405
0.415791629
0.4117990959
0.419659785
0.4110869692
0.4062772394
0.4148855813
0.4266172388
0.4063516845
0.4147819404
0.4109458272
0.4316477572
0.4052892477
0.403635847
0.4097875885
0.4020052556
0.4133893738
0.4179069321
0.4119224078
0.4320385285
0.4082648922
0.4340349478
0.4193003251
0.4101562703
0.4088739147
0.4079382715
0.4093176782
0.3981435276
0.4113032277
0.4177376106
0.4152676276
0.4261591968
0.412420619
0.4109434409
0.4163667191
0.4035704872
0.4027896353
0.4092376064
0.4126944436
0.4262801258
0.4123086756
0.4187538474
0.4235549207
0.4208239892
0.417005053
0.4118533967
0.4229173429
0.4247939628
0.4242090125
0.429287199
0.4341959579
0.4351502986
0.4205094416
0.4204418739
0.4176324254
0.4291670785
0.4205358392
0.4159133742
0.4160008217
0.436996658
0.4272184508
0.4242442648
0.4174586555
0.4189854993
0.4125296141
0.4174750385
0.4350305988
0.4231538208
0.4079809971
0.4083063121
0.4020261451
0.4145295434
0.4160409855
0.4236430969
0.4356333159
0.4332850691
0.4284681484
0.434295679
0.4334143573
0.439283407
0.421187635
0.4151651982
0.4216293337
0.4165118475
0.4071619036
0.4116215565
0.4125795136
0.4175682311
0.4096776476
0.4179960659
0.4245305754
0.4265061912
0.3943853179
0.4005213923
0.3972430004
0.3957957558
0.4001120481
0.3904647171
0.4013040833
0.3973586581
0.4109126387
0.406374954
0.4140461599
0.4229817811
0.4305725348
0.4395139689
0.4206883812
0.4268385843
0.4319636413
0.433535158
0.4178497288
0.4082057641
0.4311361548
0.4210938596
0.4155054487
0.4068914386
0.4130644709
0.413614384
0.4111430037
0.4077251142
0.4171344218
0.4243392656
0.4114773624
0.4228328225
0.4218139031
0.4120528012
0.4111926938
0.4074532388
0.4062326713
0.426911566
0.4268161728
0.4337388073
0.4061652047
0.4021047036
0.4121933725
0.4191964298
0.4213056335
0.4184376224
0.4272569957
0.4112494731
0.4008146006
0.3918226047
0.4029933313
0.4060872215
0.4100709026
0.4133758165
0.4116546166
0.4120607093
0.4006152112
0.4004641672
0.3994751969
0.3982024842
0.4327432841
0.4260391284
0.4182099479
0.4089776445
0.403588725
0.3929173826
0.3893567943
0.3917624316
0.4059368463
0.4102999487
0.4113143426
0.4183017648
0.4247897963
0.4208232678
0.4192109386
0.4096546782
0.4196589724
0.4111144801
0.4141371384
0.4143748636
0.4045725641
0.4040923171
0.4110834583
0.4182198194
0.4263860059
0.4374308785
0.4385178909
0.4369367388
0.4355089734
0.4153947006
0.4159083712
0.4206247717
0.4197259007
0.4274547677
0.4253753561
0.4222303948
0.4212603144
0.412145509
0.4057685471
0.4123986583
)
;

boundaryField
{
    flow
    {
        type            calculated;
        value           nonuniform List<scalar> 
48
(
0.3040585355
0.3165643959
0.3084788341
0.3108962554
0.3129064849
0.3079833418
0.2995464859
0.3027070075
0.3147452391
0.3082984568
0.3111167009
0.3085256489
0.3082739165
0.2999489391
0.3217858866
0.3093820926
0.306297067
0.3096473114
0.3096473114
0.4044481045
0.3885085125
0.3967070393
0.3871967973
0.3877138507
0.3987198058
0.4000677872
0.3920918476
0.3945908573
0.3949348774
0.391676437
0.4032898969
0.4141398614
0.4229371405
0.415791629
0.4117990959
0.419659785
0.4110869692
0.4062772394
0.4159083712
0.4206247717
0.4197259007
0.4274547677
0.4253753561
0.4222303948
0.4212603144
0.412145509
0.4057685471
0.4123986583
)
;
    }
    obstacle
    {
        type            calculated;
        value           nonuniform List<scalar> 0();
    }
    frontAndBack
    {
        type            empty;
    }
    procBoundary2to0
    {
        type            processor;
        value           nonuniform List<scalar> 
31
(
0.31088504
0.4285438037
0.411300847
0.3973990055
0.4070425017
0.3998910913
0.396823097
0.3964077734
0.4062971189
0.402019293
0.4035040352
0.42697385
0.4127087028
0.418927488
0.4170212873
0.4121700686
0.4118761477
0.4271147625
0.4067715481
0.4035806813
0.4251321097
0.4259733013
0.4289302225
0.4436151685
0.4601157284
0.4431118122
0.3908407735
0.3997833038
0.3998892583
0.4060221555
0.4060221555
)
;
    }
    procBoundary2to3
    {
        type            processor;
        value           nonuniform List<scalar> 
19
(
0.4505264376
0.4528113077
0.4292988578
0.4319523551
0.4506678619
0.428157515
0.428973731
0.4114615364
0.4226609919
0.4014383467
0.3988784565
0.4376924701
0.4349418973
0.3907461252
0.4167530755
0.4126918196
0.4238536347
0.405001301
0.417708585
)
;
    }
}


// ************************************************************************* //
