/*--------------------------------*- C++ -*----------------------------------*\
| =========                 |                                                 |
| \\      /  F ield         | OpenFOAM: The Open Source CFD Toolbox           |
|  \\    /   O peration     | Version:  2406                                  |
|   \\  /    A nd           | Website:  www.openfoam.com                      |
|    \\/     M anipulation  |                                                 |
\*---------------------------------------------------------------------------*/
FoamFile
{
    version     2.0;
    format      ascii;
    arch        "LSB;label=32;scalar=64";
    class       volScalarField;
    location    "0.001";
    object      rhoM;
}
// * * * * * * * * * * * * * * * * * * * * * * * * * * * * * * * * * * * * * //

dimensions      [1 -3 0 0 0 0 0];

internalField   nonuniform List<scalar> 
546
(
4.496139531e-06
2.974446132e-06
2.490195221e-06
4.427198864e-06
4.496139531e-06
6.086773598e-06
5.879951596e-06
3.942947953e-06
4.358258196e-06
6.364202506e-06
6.155714265e-06
7.193156754e-06
5.53358202e-06
3.458697042e-06
4.427198864e-06
6.986334752e-06
5.049331109e-06
1.937003643e-06
2.974446132e-06
4.427198864e-06
5.049331109e-06
2.974446132e-06
6.571024508e-06
4.565080198e-06
6.986334752e-06
4.980390442e-06
3.942947953e-06
3.874007286e-06
3.874007286e-06
4.427198864e-06
6.986334752e-06
6.01783293e-06
5.049331109e-06
4.980390442e-06
5.464641352e-06
2.559135888e-06
6.01783293e-06
4.496139531e-06
3.458697042e-06
7.885895906e-06
1.937003643e-06
5.948892263e-06
3.043386799e-06
3.874007286e-06
5.879951596e-06
5.464641352e-06
4.496139531e-06
4.080829287e-06
8.02377724e-06
6.433143174e-06
2.559135888e-06
2.974446132e-06
4.01188862e-06
3.665519044e-06
4.634020865e-06
4.496139531e-06
2.974446132e-06
5.879951596e-06
3.52763771e-06
6.01783293e-06
5.53358202e-06
4.496139531e-06
3.52763771e-06
5.671463354e-06
6.086773598e-06
4.565080198e-06
3.52763771e-06
3.596578377e-06
6.01783293e-06
2.905505464e-06
3.942947953e-06
2.974446132e-06
3.942947953e-06
8.092717908e-06
4.842509107e-06
2.421254554e-06
7.746348332e-06
3.458697042e-06
3.458697042e-06
5.049331109e-06
2.00594431e-06
5.53358202e-06
5.395700685e-06
7.954836573e-06
6.086773598e-06
2.905505464e-06
3.874007286e-06
4.496139531e-06
3.458697042e-06
3.181268133e-06
3.043386799e-06
4.496139531e-06
2.490195221e-06
1.051397246e-05
3.458697042e-06
6.086773598e-06
2.421254554e-06
5.049331109e-06
7.055275419e-06
5.118271776e-06
4.01188862e-06
6.502083841e-06
4.496139531e-06
3.596578377e-06
1.521693399e-06
5.948892263e-06
5.53358202e-06
5.118271776e-06
6.848453417e-06
5.395700685e-06
8.370146817e-06
2.143825645e-06
3.874007286e-06
2.559135888e-06
3.389756375e-06
3.112327466e-06
4.911449774e-06
4.358258196e-06
5.464641352e-06
6.502083841e-06
4.01188862e-06
4.080829287e-06
3.458697042e-06
6.364202506e-06
3.52763771e-06
6.01783293e-06
2.490195221e-06
4.427198864e-06
6.986334752e-06
4.427198864e-06
7.885895906e-06
4.427198864e-06
2.490195221e-06
6.917394084e-06
6.01783293e-06
4.080829287e-06
4.080829287e-06
5.53358202e-06
4.842509107e-06
2.974446132e-06
3.942947953e-06
5.53358202e-06
4.496139531e-06
3.52763771e-06
5.464641352e-06
4.634020865e-06
3.389756375e-06
3.458697042e-06
4.496139531e-06
6.086773598e-06
4.911449774e-06
5.118271776e-06
4.080829287e-06
4.565080198e-06
4.980390442e-06
4.911449774e-06
7.193156754e-06
3.942947953e-06
4.01188862e-06
7.53952633e-06
3.52763771e-06
5.948892263e-06
6.01783293e-06
3.942947953e-06
3.52763771e-06
5.879951596e-06
3.043386799e-06
5.049331109e-06
6.01783293e-06
3.942947953e-06
4.427198864e-06
6.708905843e-06
4.427198864e-06
3.874007286e-06
6.571024508e-06
4.980390442e-06
4.980390442e-06
6.433143174e-06
4.911449774e-06
4.980390442e-06
4.496139531e-06
4.496139531e-06
4.01188862e-06
3.458697042e-06
4.427198864e-06
4.842509107e-06
7.470585662e-06
7.055275419e-06
5.879951596e-06
6.917394084e-06
6.086773598e-06
8.992279062e-06
2.490195221e-06
4.01188862e-06
2.905505464e-06
5.118271776e-06
2.974446132e-06
7.124216086e-06
2.490195221e-06
3.52763771e-06
3.458697042e-06
4.01188862e-06
3.596578377e-06
4.980390442e-06
5.464641352e-06
5.53358202e-06
4.911449774e-06
3.874007286e-06
4.496139531e-06
3.596578377e-06
4.842509107e-06
2.974446132e-06
3.112327466e-06
4.496139531e-06
2.559135888e-06
7.055275419e-06
3.596578377e-06
6.502083841e-06
5.395700685e-06
3.942947953e-06
3.458697042e-06
4.911449774e-06
5.049331109e-06
3.458697042e-06
6.01783293e-06
2.074884977e-06
5.671463354e-06
4.565080198e-06
5.464641352e-06
2.559135888e-06
7.470585662e-06
5.464641352e-06
7.332704328e-06
4.149769955e-06
5.049331109e-06
7.332704328e-06
4.980390442e-06
6.571024508e-06
2.421254554e-06
7.401644995e-06
6.01783293e-06
5.464641352e-06
6.986334752e-06
3.52763771e-06
5.395700685e-06
6.433143174e-06
2.628076555e-06
3.52763771e-06
4.496139531e-06
6.917394084e-06
4.427198864e-06
3.52763771e-06
5.395700685e-06
4.01188862e-06
5.187212443e-06
5.049331109e-06
3.596578377e-06
5.395700685e-06
5.948892263e-06
2.143825645e-06
2.559135888e-06
3.942947953e-06
5.464641352e-06
5.53358202e-06
2.628076555e-06
5.049331109e-06
6.086773598e-06
2.559135888e-06
6.295261839e-06
4.842509107e-06
1.521693399e-06
6.086773598e-06
4.01188862e-06
6.986334752e-06
7.193156754e-06
5.948892263e-06
7.055275419e-06
5.879951596e-06
5.948892263e-06
4.565080198e-06
4.980390442e-06
3.596578377e-06
4.842509107e-06
4.496139531e-06
4.980390442e-06
3.596578377e-06
4.358258196e-06
5.948892263e-06
6.502083841e-06
5.464641352e-06
2.490195221e-06
1.937003643e-06
3.52763771e-06
3.596578377e-06
3.596578377e-06
1.521693399e-06
5.464641352e-06
4.911449774e-06
5.948892263e-06
5.187212443e-06
2.490195221e-06
5.602522687e-06
3.52763771e-06
6.502083841e-06
4.427198864e-06
5.118271776e-06
4.427198864e-06
4.358258196e-06
3.52763771e-06
4.634020865e-06
1.452752732e-06
4.080829287e-06
1.937003643e-06
4.980390442e-06
5.395700685e-06
4.496139531e-06
4.01188862e-06
6.433143174e-06
3.596578377e-06
5.602522687e-06
3.52763771e-06
6.986334752e-06
3.458697042e-06
7.53952633e-06
3.52763771e-06
7.055275419e-06
2.421254554e-06
5.395700685e-06
7.885895906e-06
5.671463354e-06
4.7719022e-06
4.911449774e-06
3.942947953e-06
5.602522687e-06
6.086773598e-06
3.389756375e-06
6.986334752e-06
3.043386799e-06
6.571024508e-06
4.358258196e-06
2.974446132e-06
4.496139531e-06
2.974446132e-06
4.427198864e-06
4.427198864e-06
3.942947953e-06
6.571024508e-06
4.080829287e-06
4.634020865e-06
4.427198864e-06
8.02377724e-06
2.00594431e-06
3.389756375e-06
5.948892263e-06
5.464641352e-06
4.565080198e-06
4.358258196e-06
2.559135888e-06
6.01783293e-06
3.458697042e-06
5.13841622e-06
3.665302074e-06
4.198133868e-06
6.342364347e-06
4.772839451e-06
3.180473627e-06
6.455956738e-06
6.639670357e-06
4.081867159e-06
5.314487896e-06
5.709160344e-06
1.020623348e-05
3.547120194e-06
5.686681576e-06
3.744734387e-06
6.434663154e-06
5.622390697e-06
4.053799817e-06
6.685641523e-06
4.961326785e-06
2.640336219e-06
5.82115848e-06
6.803932302e-06
5.394291402e-06
3.303865286e-06
5.843154299e-06
5.414835214e-06
6.989658369e-06
2.463487993e-06
3.684825416e-06
2.069592113e-06
4.671599213e-06
5.139455687e-06
5.39429144e-06
3.671550997e-06
3.624550655e-06
3.540147611e-06
6.150360557e-06
5.067262357e-06
5.102591264e-06
3.63956823e-06
5.174747783e-06
3.184670963e-06
3.645218621e-06
4.919206198e-06
5.399077245e-06
2.013057899e-06
5.591389928e-06
2.463487993e-06
5.810620614e-06
7.350264587e-06
6.109413878e-06
4.125992774e-06
2.114121464e-06
4.112420151e-06
5.399077245e-06
1.943872751e-06
5.382407347e-06
7.108195936e-06
1.559030258e-06
5.13841622e-06
9.343198491e-06
5.21159681e-06
5.904657134e-06
5.433258752e-06
2.736396592e-06
4.581269166e-06
3.564490058e-06
3.096471962e-06
4.535826359e-06
4.0680561e-06
6.324307009e-06
4.270275021e-06
3.207511433e-06
3.084315091e-06
4.289775436e-06
5.484020362e-06
3.984138943e-06
6.475212011e-06
6.520357087e-06
5.638032217e-06
6.755824535e-06
3.256812085e-06
7.217778774e-06
4.772839451e-06
4.66013659e-06
3.956930651e-06
9.78619511e-07
4.011723947e-06
4.110325844e-06
4.567672065e-06
4.025188584e-06
5.862610554e-06
2.6244872e-06
3.964284586e-06
5.769438399e-06
3.956930651e-06
3.494829185e-06
5.559959993e-06
4.1103259e-06
1.141488255e-06
1.006297146e-06
5.211596774e-06
4.228242869e-06
4.772839418e-06
5.325361345e-06
5.900803441e-06
4.543109575e-06
7.600893535e-06
6.16548885e-06
3.139952234e-06
5.246378826e-06
4.560583107e-06
5.17631588e-06
4.405153714e-06
4.80756839e-06
8.052231598e-06
5.0324193e-06
4.926975953e-06
5.243855673e-06
5.56690409e-06
4.240081687e-06
5.646187103e-06
6.342364347e-06
4.772839451e-06
2.736396573e-06
4.581269135e-06
6.70933123e-06
6.12280078e-06
6.024224405e-06
5.209544347e-06
4.671599245e-06
6.80393235e-06
5.17631588e-06
5.800944448e-06
4.807568356e-06
2.499026087e-06
5.591389928e-06
4.292296685e-06
3.047428293e-06
4.28144048e-06
5.031485695e-06
3.763543538e-06
3.062194373e-06
4.185603512e-06
4.437207268e-06
6.594327035e-06
4.893097588e-06
4.574564789e-06
3.047428293e-06
6.566136038e-06
6.324307009e-06
3.691402441e-06
7.363095864e-06
5.800944489e-06
8.432119072e-06
7.218665568e-06
2.096560781e-06
7.248482306e-06
7.795151341e-06
6.708392337e-06
5.31800987e-06
5.862610472e-06
1.676414236e-06
4.258786933e-06
2.588964772e-06
4.442898838e-06
2.516209667e-06
3.519026376e-06
4.03969365e-06
4.638800223e-06
4.168450672e-06
4.198133927e-06
4.228242898e-06
7.857154509e-06
5.399077245e-06
2.984994275e-06
5.521729056e-06
2.04093358e-06
3.684825441e-06
3.996927973e-06
2.587373891e-06
3.184670963e-06
3.062194395e-06
3.671551023e-06
7.173603809e-06
)
;

boundaryField
{
    flow
    {
        type            zeroGradient;
    }
    obstacle
    {
        type            calculated;
        value           nonuniform List<scalar> 0();
    }
    frontAndBack
    {
        type            empty;
    }
    procBoundary2to0
    {
        type            processor;
        value           nonuniform List<scalar> 
31
(
4.01188862e-06
4.427198864e-06
7.124216086e-06
3.596578377e-06
6.848453417e-06
4.496139531e-06
3.043386799e-06
5.049331109e-06
8.508028151e-06
7.53952633e-06
6.433143174e-06
6.01783293e-06
4.565080198e-06
6.639965176e-06
3.458697042e-06
5.049331109e-06
4.080829287e-06
4.358258196e-06
5.948892263e-06
5.049331109e-06
4.567672097e-06
5.246378826e-06
1.520194369e-06
3.134852936e-06
5.947311271e-06
5.325361345e-06
4.37371369e-06
7.54862895e-06
4.081867159e-06
6.661621532e-06
6.661621532e-06
)
;
    }
    procBoundary2to3
    {
        type            processor;
        value           nonuniform List<scalar> 
19
(
9.089768431e-06
3.948142421e-06
5.364394696e-06
4.768550219e-06
7.077671757e-06
2.160609122e-06
4.246962027e-06
8.046591986e-06
7.599260034e-06
5.290138442e-06
4.917062651e-06
6.333314932e-06
3.725373774e-06
5.215882226e-06
2.682197367e-06
6.407571103e-06
4.917062651e-06
2.756453564e-06
2.682197329e-06
)
;
    }
}


// ************************************************************************* //
