/*--------------------------------*- C++ -*----------------------------------*\
| =========                 |                                                 |
| \\      /  F ield         | OpenFOAM: The Open Source CFD Toolbox           |
|  \\    /   O peration     | Version:  2406                                  |
|   \\  /    A nd           | Website:  www.openfoam.com                      |
|    \\/     M anipulation  |                                                 |
\*---------------------------------------------------------------------------*/
FoamFile
{
    version     2.0;
    format      ascii;
    arch        "LSB;label=32;scalar=64";
    class       volScalarField;
    location    "0.001";
    object      rhoMMean;
}
// * * * * * * * * * * * * * * * * * * * * * * * * * * * * * * * * * * * * * //

dimensions      [1 -3 0 0 0 0 0];

internalField   nonuniform List<scalar> 
546
(
3.705790808e-06
4.783889128e-06
4.820547651e-06
4.827041404e-06
4.808367439e-06
4.79646299e-06
4.733254604e-06
4.72093651e-06
4.671428363e-06
4.703358931e-06
4.661595466e-06
4.714715188e-06
4.700614634e-06
4.699380367e-06
4.721104384e-06
4.653857449e-06
4.597014932e-06
4.600068316e-06
4.633545571e-06
4.618748946e-06
3.725433274e-06
4.712226659e-06
4.709728132e-06
4.721498033e-06
4.689685351e-06
4.72329049e-06
4.783334271e-06
4.780156335e-06
4.743064173e-06
4.733261268e-06
4.721491368e-06
4.650814062e-06
4.65524626e-06
4.59215576e-06
4.584824722e-06
4.660626964e-06
4.693408147e-06
4.716628864e-06
4.822471325e-06
4.870745205e-06
3.714776422e-06
4.864977516e-06
4.822366769e-06
4.854593094e-06
4.877272282e-06
4.852760647e-06
4.825675921e-06
4.798551205e-06
4.853342164e-06
4.832724531e-06
4.730204552e-06
4.786781304e-06
4.705010174e-06
4.73006667e-06
4.714012451e-06
4.736153444e-06
4.725092945e-06
4.728835736e-06
4.765063952e-06
4.700328874e-06
3.686686537e-06
4.747361822e-06
4.854569766e-06
4.901061186e-06
4.775720805e-06
4.768124002e-06
4.794398102e-06
4.77364592e-06
4.788442545e-06
4.730920618e-06
4.773793799e-06
4.712515751e-06
4.828857189e-06
4.854307334e-06
4.888214895e-06
4.850988184e-06
4.859284392e-06
4.822487987e-06
4.954059689e-06
4.922099129e-06
3.744379669e-06
4.839789804e-06
4.775602918e-06
4.753606472e-06
4.703267704e-06
4.725270816e-06
4.722227429e-06
4.83813856e-06
4.818065787e-06
4.823042845e-06
4.833276056e-06
4.857334058e-06
4.894974413e-06
4.89676687e-06
4.902144242e-06
4.891635268e-06
4.88140539e-06
4.951117526e-06
4.794102345e-06
4.764229999e-06
3.703574709e-06
4.720539528e-06
4.725237491e-06
4.745162385e-06
4.828564764e-06
4.857898913e-06
4.858325887e-06
4.757894123e-06
4.805623142e-06
4.841861356e-06
4.879084735e-06
4.859435603e-06
4.860935635e-06
4.828029901e-06
4.832045122e-06
4.933031744e-06
4.876448327e-06
4.824694089e-06
4.868256676e-06
4.929127744e-06
3.728335447e-06
4.827740808e-06
4.908947082e-06
4.902177567e-06
4.840889522e-06
4.873549486e-06
4.893326502e-06
4.907013411e-06
4.772008006e-06
4.724675968e-06
4.669898339e-06
4.663811565e-06
4.706021999e-06
4.716386426e-06
4.667561021e-06
4.669773787e-06
4.720546193e-06
4.675736009e-06
4.624697838e-06
4.687502577e-06
3.67327539e-06
4.722752295e-06
4.708641744e-06
4.746662418e-06
4.811131731e-06
4.771147393e-06
4.786508874e-06
4.768540978e-06
4.853877027e-06
4.834530318e-06
4.947700485e-06
4.861792916e-06
4.868427882e-06
4.810606865e-06
4.789296493e-06
4.784178221e-06
4.77130527e-06
4.852783974e-06
4.911317725e-06
4.907302504e-06
3.809410505e-06
4.928051354e-06
4.957644604e-06
4.890572208e-06
4.868427882e-06
4.767306711e-06
4.74793001e-06
4.826244108e-06
4.870647313e-06
4.901770588e-06
4.825955016e-06
4.869796698e-06
4.851815472e-06
4.887505493e-06
4.882962074e-06
4.862905964e-06
4.852390325e-06
4.772586191e-06
4.669514687e-06
4.604362632e-06
3.692921189e-06
4.73837954e-06
4.815311493e-06
4.781840903e-06
4.824048004e-06
4.837327935e-06
4.837465816e-06
4.875634369e-06
4.846310216e-06
4.829576588e-06
4.872732196e-06
4.872607644e-06
4.854471875e-06
4.873290386e-06
4.840068899e-06
4.905348838e-06
4.893730148e-06
4.907854029e-06
4.910894083e-06
4.916705094e-06
3.770811646e-06
4.864009014e-06
4.848923297e-06
4.882104794e-06
4.914872647e-06
4.930499893e-06
4.998977762e-06
4.787588597e-06
4.863545383e-06
4.788291334e-06
4.681910677e-06
4.741544146e-06
4.698674298e-06
4.7715777e-06
4.753038284e-06
4.776729296e-06
4.775041396e-06
4.956269123e-06
5.00248478e-06
5.01783293e-06
3.713939136e-06
4.720929845e-06
4.720781966e-06
4.699491589e-06
4.632944058e-06
4.625196044e-06
4.631296147e-06
4.626194538e-06
4.635173487e-06
4.733812794e-06
4.753041616e-06
4.762989067e-06
4.771984679e-06
4.832021794e-06
4.910887418e-06
4.831466937e-06
4.86426145e-06
4.744889955e-06
4.695913339e-06
4.697702464e-06
3.644095784e-06
4.7354807e-06
4.733540364e-06
4.799119392e-06
4.836336106e-06
4.77891207e-06
4.759827794e-06
4.872567655e-06
4.900096017e-06
4.911294397e-06
4.862869306e-06
4.886254564e-06
4.903960027e-06
4.847386607e-06
4.760073564e-06
4.716490983e-06
4.644414869e-06
4.652980174e-06
4.685623476e-06
4.655041729e-06
3.716706761e-06
4.776823856e-06
4.831601485e-06
4.819030957e-06
4.859691371e-06
4.794956292e-06
4.827202613e-06
4.792205331e-06
4.789841353e-06
4.753061611e-06
4.713225153e-06
4.707679907e-06
4.721635914e-06
4.723838683e-06
4.730056673e-06
4.787487373e-06
4.875466495e-06
4.802425212e-06
4.713185163e-06
4.794129004e-06
3.756008356e-06
4.820009456e-06
4.758714746e-06
4.698543082e-06
4.674455088e-06
4.716520975e-06
4.734784628e-06
4.749160944e-06
4.704189551e-06
4.66116516e-06
4.657708129e-06
4.709704805e-06
4.757982017e-06
4.727430263e-06
4.75207978e-06
4.792740194e-06
4.888329449e-06
4.941324619e-06
4.962907422e-06
4.912420776e-06
3.710777863e-06
4.803420374e-06
4.80590557e-06
4.933569939e-06
4.982970197e-06
4.923740375e-06
4.88762338e-06
4.857888916e-06
4.908378895e-06
4.950851761e-06
4.855400387e-06
4.842695309e-06
4.833998788e-06
4.855571593e-06
5.019917813e-06
4.883113286e-06
4.784877625e-06
4.714725185e-06
4.64485184e-06
4.768379769e-06
3.70784903e-06
4.88347361e-06
4.917095411e-06
4.841578929e-06
4.836053678e-06
4.85501007e-06
4.960855864e-06
4.97648311e-06
4.988629997e-06
4.987802709e-06
4.995130414e-06
5.063329189e-06
5.004109364e-06
4.908923755e-06
4.729922124e-06
4.777926906e-06
4.862032021e-06
4.783606701e-06
4.836336106e-06
4.74933215e-06
3.642017566e-06
4.556741502e-06
4.567119259e-06
4.650807397e-06
4.662271543e-06
4.673069609e-06
4.696589416e-06
4.714153665e-06
4.651644683e-06
4.700621299e-06
4.742677189e-06
4.750024889e-06
4.796361766e-06
4.820987955e-06
4.910759535e-06
4.827616257e-06
4.82636866e-06
4.853900355e-06
4.870358221e-06
4.852366998e-06
4.658971816e-06
4.662004116e-06
4.663063136e-06
4.784849742e-06
4.762861747e-06
4.777845516e-06
4.648563502e-06
4.632714504e-06
4.718839753e-06
4.697581799e-06
4.808919793e-06
4.793176354e-06
4.736972731e-06
4.761621406e-06
4.675001848e-06
4.720870474e-06
4.869554694e-06
4.806729049e-06
4.834086914e-06
4.790968693e-06
4.710575133e-06
4.721617191e-06
4.788975801e-06
4.804831932e-06
4.84878347e-06
4.873273978e-06
4.731576483e-06
4.777546825e-06
4.848621175e-06
4.820922304e-06
4.864335265e-06
4.835332197e-06
4.820685203e-06
4.900306139e-06
4.762272709e-06
4.870127989e-06
4.9360882e-06
4.8625339e-06
4.835129949e-06
4.779388456e-06
4.832183203e-06
4.860304813e-06
4.804445353e-06
4.804495606e-06
4.763586472e-06
4.791444875e-06
4.837207364e-06
4.820260062e-06
4.783534233e-06
4.902498926e-06
4.875546003e-06
4.825943986e-06
4.818918944e-06
4.960352369e-06
4.910873497e-06
4.889066997e-06
4.80943632e-06
4.844334556e-06
4.713645767e-06
4.756869334e-06
4.856511171e-06
4.814517678e-06
4.767576695e-06
4.730757998e-06
4.715436699e-06
4.829189677e-06
4.714260162e-06
4.791260968e-06
4.838784176e-06
4.805318377e-06
4.760408261e-06
4.841338818e-06
4.859165409e-06
4.825654415e-06
4.684589977e-06
4.675494886e-06
4.919298574e-06
4.86953706e-06
4.820342273e-06
4.757151896e-06
4.730038915e-06
4.713758519e-06
4.663643752e-06
4.757293504e-06
4.784294974e-06
4.839818985e-06
4.589575533e-06
4.629666231e-06
4.654121508e-06
4.659899584e-06
4.732998758e-06
4.714426386e-06
4.79214307e-06
4.780593435e-06
4.846988155e-06
4.783149497e-06
4.94899008e-06
5.01515817e-06
5.041160226e-06
5.128480214e-06
5.01618418e-06
4.971731156e-06
5.026411165e-06
4.964764493e-06
4.898728557e-06
4.801674682e-06
5.019924748e-06
4.898022675e-06
4.872534279e-06
4.786038127e-06
4.857316574e-06
4.869812049e-06
4.84107782e-06
4.8244884e-06
4.886352418e-06
4.856248055e-06
4.691460384e-06
4.732380872e-06
4.733476972e-06
4.69261023e-06
4.668041834e-06
4.607915969e-06
4.597874587e-06
4.766583258e-06
4.783681206e-06
4.840236338e-06
4.685301861e-06
4.662192207e-06
4.690831251e-06
4.753434635e-06
4.794795165e-06
4.818634191e-06
4.882921886e-06
4.803205381e-06
4.738783273e-06
4.726073313e-06
4.838604444e-06
4.88919823e-06
4.926580524e-06
4.905937039e-06
4.881863728e-06
4.868959402e-06
4.815892471e-06
4.76338625e-06
4.749046635e-06
4.688483171e-06
4.796861345e-06
4.726675447e-06
4.682109762e-06
4.65807342e-06
4.671913665e-06
4.555022395e-06
4.609613789e-06
4.659005658e-06
4.751988155e-06
4.799564313e-06
4.805828692e-06
4.846006417e-06
4.898986101e-06
4.833091564e-06
4.84191164e-06
4.822812995e-06
4.837615013e-06
4.77957267e-06
4.839659204e-06
4.790427105e-06
4.715228722e-06
4.66138995e-06
4.718148493e-06
4.804177986e-06
4.859745244e-06
4.942272402e-06
4.917534369e-06
4.973366331e-06
4.990919288e-06
4.89292873e-06
4.903855863e-06
4.899436063e-06
4.837354187e-06
4.908503732e-06
4.85790279e-06
4.833022691e-06
4.906073233e-06
4.79327813e-06
4.786633305e-06
4.778122563e-06
)
;

boundaryField
{
    flow
    {
        type            calculated;
        value           nonuniform List<scalar> 
48
(
3.705790808e-06
3.725433274e-06
3.714776422e-06
3.686686537e-06
3.744379669e-06
3.703574709e-06
3.728335447e-06
3.67327539e-06
3.809410505e-06
3.692921189e-06
3.770811646e-06
3.713939136e-06
3.644095784e-06
3.716706761e-06
3.756008356e-06
3.710777863e-06
3.70784903e-06
3.642017566e-06
3.642017566e-06
4.556741502e-06
4.567119259e-06
4.650807397e-06
4.662271543e-06
4.673069609e-06
4.696589416e-06
4.714153665e-06
4.651644683e-06
4.700621299e-06
4.742677189e-06
4.750024889e-06
4.796361766e-06
4.820987955e-06
4.910759535e-06
4.827616257e-06
4.82636866e-06
4.853900355e-06
4.870358221e-06
4.852366998e-06
4.903855863e-06
4.899436063e-06
4.837354187e-06
4.908503732e-06
4.85790279e-06
4.833022691e-06
4.906073233e-06
4.79327813e-06
4.786633305e-06
4.778122563e-06
)
;
    }
    obstacle
    {
        type            calculated;
        value           nonuniform List<scalar> 0();
    }
    frontAndBack
    {
        type            empty;
    }
    procBoundary2to0
    {
        type            processor;
        value           nonuniform List<scalar> 
31
(
3.722242009e-06
4.825800472e-06
4.790113783e-06
4.701990115e-06
4.790386214e-06
4.749994897e-06
4.797986349e-06
4.784719749e-06
4.847258723e-06
4.822481322e-06
4.782920627e-06
4.88350027e-06
4.82069553e-06
4.828016571e-06
4.805471931e-06
4.776161109e-06
4.784739744e-06
4.831910573e-06
4.730237877e-06
4.684846175e-06
4.839462339e-06
4.831873132e-06
4.832396475e-06
4.803783137e-06
4.79913462e-06
4.773847041e-06
4.695108176e-06
4.725003554e-06
4.634981563e-06
4.682893743e-06
4.682893743e-06
)
;
    }
    procBoundary2to3
    {
        type            processor;
        value           nonuniform List<scalar> 
19
(
4.731059579e-06
4.853220252e-06
4.870848847e-06
4.845331146e-06
4.795128112e-06
4.792723232e-06
4.894526934e-06
4.700376283e-06
4.862166927e-06
4.758305553e-06
4.766085631e-06
4.950405746e-06
4.916263555e-06
4.707059342e-06
4.744150278e-06
4.764271177e-06
4.919835032e-06
4.830299121e-06
4.778422931e-06
)
;
    }
}


// ************************************************************************* //
