/*--------------------------------*- C++ -*----------------------------------*\
| =========                 |                                                 |
| \\      /  F ield         | OpenFOAM: The Open Source CFD Toolbox           |
|  \\    /   O peration     | Version:  2406                                  |
|   \\  /    A nd           | Website:  www.openfoam.com                      |
|    \\/     M anipulation  |                                                 |
\*---------------------------------------------------------------------------*/
FoamFile
{
    version     2.0;
    format      ascii;
    arch        "LSB;label=32;scalar=64";
    class       volScalarField;
    location    "0.001";
    object      rhoN;
}
// * * * * * * * * * * * * * * * * * * * * * * * * * * * * * * * * * * * * * //

dimensions      [0 -3 0 0 0 0 0];

internalField   nonuniform List<scalar> 
546
(
9.372598272e+19
6.248398848e+19
5.20699904e+19
9.372598272e+19
9.372598272e+19
1.24967977e+20
1.24967977e+20
8.331198464e+19
9.372598272e+19
1.35381975e+20
1.24967977e+20
1.457959731e+20
1.145539789e+20
7.289798656e+19
9.372598272e+19
1.457959731e+20
1.041399808e+20
4.165599232e+19
6.248398848e+19
9.372598272e+19
1.041399808e+20
6.248398848e+19
1.35381975e+20
9.372598272e+19
1.457959731e+20
1.041399808e+20
8.331198464e+19
8.331198464e+19
8.331198464e+19
9.372598272e+19
1.457959731e+20
1.24967977e+20
1.041399808e+20
1.041399808e+20
1.145539789e+20
5.20699904e+19
1.24967977e+20
9.372598272e+19
7.289798656e+19
1.666239693e+20
4.165599232e+19
1.24967977e+20
6.248398848e+19
8.331198464e+19
1.24967977e+20
1.145539789e+20
9.372598272e+19
8.331198464e+19
1.666239693e+20
1.35381975e+20
5.20699904e+19
6.248398848e+19
8.331198464e+19
7.289798656e+19
9.372598272e+19
9.372598272e+19
6.248398848e+19
1.24967977e+20
7.289798656e+19
1.24967977e+20
1.145539789e+20
9.372598272e+19
7.289798656e+19
1.145539789e+20
1.24967977e+20
9.372598272e+19
7.289798656e+19
7.289798656e+19
1.24967977e+20
6.248398848e+19
8.331198464e+19
6.248398848e+19
8.331198464e+19
1.666239693e+20
1.041399808e+20
5.20699904e+19
1.562099712e+20
7.289798656e+19
7.289798656e+19
1.041399808e+20
4.165599232e+19
1.145539789e+20
1.145539789e+20
1.666239693e+20
1.24967977e+20
6.248398848e+19
8.331198464e+19
9.372598272e+19
7.289798656e+19
6.248398848e+19
6.248398848e+19
9.372598272e+19
5.20699904e+19
2.186939597e+20
7.289798656e+19
1.24967977e+20
5.20699904e+19
1.041399808e+20
1.457959731e+20
1.041399808e+20
8.331198464e+19
1.35381975e+20
9.372598272e+19
7.289798656e+19
3.124199424e+19
1.24967977e+20
1.145539789e+20
1.041399808e+20
1.457959731e+20
1.145539789e+20
1.770379674e+20
4.165599232e+19
8.331198464e+19
5.20699904e+19
7.289798656e+19
6.248398848e+19
1.041399808e+20
9.372598272e+19
1.145539789e+20
1.35381975e+20
8.331198464e+19
8.331198464e+19
7.289798656e+19
1.35381975e+20
7.289798656e+19
1.24967977e+20
5.20699904e+19
9.372598272e+19
1.457959731e+20
9.372598272e+19
1.666239693e+20
9.372598272e+19
5.20699904e+19
1.457959731e+20
1.24967977e+20
8.331198464e+19
8.331198464e+19
1.145539789e+20
1.041399808e+20
6.248398848e+19
8.331198464e+19
1.145539789e+20
9.372598272e+19
7.289798656e+19
1.145539789e+20
9.372598272e+19
7.289798656e+19
7.289798656e+19
9.372598272e+19
1.24967977e+20
1.041399808e+20
1.041399808e+20
8.331198464e+19
9.372598272e+19
1.041399808e+20
1.041399808e+20
1.457959731e+20
8.331198464e+19
8.331198464e+19
1.562099712e+20
7.289798656e+19
1.24967977e+20
1.24967977e+20
8.331198464e+19
7.289798656e+19
1.24967977e+20
6.248398848e+19
1.041399808e+20
1.24967977e+20
8.331198464e+19
9.372598272e+19
1.35381975e+20
9.372598272e+19
8.331198464e+19
1.35381975e+20
1.041399808e+20
1.041399808e+20
1.35381975e+20
1.041399808e+20
1.041399808e+20
9.372598272e+19
9.372598272e+19
8.331198464e+19
7.289798656e+19
9.372598272e+19
1.041399808e+20
1.562099712e+20
1.457959731e+20
1.24967977e+20
1.457959731e+20
1.24967977e+20
1.874519654e+20
5.20699904e+19
8.331198464e+19
6.248398848e+19
1.041399808e+20
6.248398848e+19
1.457959731e+20
5.20699904e+19
7.289798656e+19
7.289798656e+19
8.331198464e+19
7.289798656e+19
1.041399808e+20
1.145539789e+20
1.145539789e+20
1.041399808e+20
8.331198464e+19
9.372598272e+19
7.289798656e+19
1.041399808e+20
6.248398848e+19
6.248398848e+19
9.372598272e+19
5.20699904e+19
1.457959731e+20
7.289798656e+19
1.35381975e+20
1.145539789e+20
8.331198464e+19
7.289798656e+19
1.041399808e+20
1.041399808e+20
7.289798656e+19
1.24967977e+20
4.165599232e+19
1.145539789e+20
9.372598272e+19
1.145539789e+20
5.20699904e+19
1.562099712e+20
1.145539789e+20
1.562099712e+20
8.331198464e+19
1.041399808e+20
1.562099712e+20
1.041399808e+20
1.35381975e+20
5.20699904e+19
1.562099712e+20
1.24967977e+20
1.145539789e+20
1.457959731e+20
7.289798656e+19
1.145539789e+20
1.35381975e+20
5.20699904e+19
7.289798656e+19
9.372598272e+19
1.457959731e+20
9.372598272e+19
7.289798656e+19
1.145539789e+20
8.331198464e+19
1.041399808e+20
1.041399808e+20
7.289798656e+19
1.145539789e+20
1.24967977e+20
4.165599232e+19
5.20699904e+19
8.331198464e+19
1.145539789e+20
1.145539789e+20
5.20699904e+19
1.041399808e+20
1.24967977e+20
5.20699904e+19
1.35381975e+20
1.041399808e+20
3.124199424e+19
1.24967977e+20
8.331198464e+19
1.457959731e+20
1.457959731e+20
1.24967977e+20
1.457959731e+20
1.24967977e+20
1.24967977e+20
9.372598272e+19
1.041399808e+20
7.289798656e+19
1.041399808e+20
9.372598272e+19
1.041399808e+20
7.289798656e+19
9.372598272e+19
1.24967977e+20
1.35381975e+20
1.145539789e+20
5.20699904e+19
4.165599232e+19
7.289798656e+19
7.289798656e+19
7.289798656e+19
3.124199424e+19
1.145539789e+20
1.041399808e+20
1.24967977e+20
1.041399808e+20
5.20699904e+19
1.145539789e+20
7.289798656e+19
1.35381975e+20
9.372598272e+19
1.041399808e+20
9.372598272e+19
9.372598272e+19
7.289798656e+19
9.372598272e+19
3.124199424e+19
8.331198464e+19
4.165599232e+19
1.041399808e+20
1.145539789e+20
9.372598272e+19
8.331198464e+19
1.35381975e+20
7.289798656e+19
1.145539789e+20
7.289798656e+19
1.457959731e+20
7.289798656e+19
1.562099712e+20
7.289798656e+19
1.457959731e+20
5.20699904e+19
1.145539789e+20
1.666239693e+20
1.145539789e+20
9.372598272e+19
1.041399808e+20
8.331198464e+19
1.145539789e+20
1.24967977e+20
7.289798656e+19
1.457959731e+20
6.248398848e+19
1.35381975e+20
9.372598272e+19
6.248398848e+19
9.372598272e+19
6.248398848e+19
9.372598272e+19
9.372598272e+19
8.331198464e+19
1.35381975e+20
8.331198464e+19
9.372598272e+19
9.372598272e+19
1.666239693e+20
4.165599232e+19
7.289798656e+19
1.24967977e+20
1.145539789e+20
9.372598272e+19
9.372598272e+19
5.20699904e+19
1.24967977e+20
7.289798656e+19
1.074443004e+20
7.574279541e+19
8.717960478e+19
1.317072858e+20
9.949403591e+19
6.681199412e+19
1.35862074e+20
1.367962766e+20
8.476517826e+19
1.066951997e+20
1.181887304e+20
2.164079869e+20
7.628215471e+19
1.207316786e+20
7.73842496e+19
1.336239882e+20
1.149602172e+20
8.418232409e+19
1.377434147e+20
1.066951997e+20
5.372214981e+19
1.190243936e+20
1.416668588e+20
1.097560715e+20
6.632935727e+19
1.224886559e+20
1.149602165e+20
1.473190672e+20
5.297823641e+19
7.468663977e+19
4.297772014e+19
9.73835941e+19
1.089745067e+20
1.097560723e+20
7.73842496e+19
7.794732592e+19
7.315650138e+19
1.262734853e+20
1.059564728e+20
1.066952004e+20
7.521101025e+19
1.082039934e+20
6.538470358e+19
7.682924951e+19
9.94940352e+19
1.113533235e+20
4.180371508e+19
1.157506948e+20
5.297823641e+19
1.173647204e+20
1.504220205e+20
1.298447921e+20
8.717960539e+19
4.390242891e+19
8.843914303e+19
1.113533235e+20
4.180371508e+19
1.157506956e+20
1.48339062e+20
3.20085599e+19
1.074443004e+20
1.947671896e+20
1.089745067e+20
1.207316786e+20
1.105489288e+20
5.567666217e+19
9.405835955e+19
7.365953358e+19
6.35738837e+19
9.602568036e+19
8.595544028e+19
1.298447921e+20
8.717960539e+19
6.58536429e+19
6.63293568e+19
8.908265883e+19
1.149602165e+20
8.418232409e+19
1.377434156e+20
1.387037605e+20
1.181887304e+20
1.406651915e+20
6.538470358e+19
1.536585001e+20
9.949403591e+19
1.002179912e+20
8.360743015e+19
2.104558088e+19
8.476517769e+19
8.535615915e+19
9.669986965e+19
8.656319536e+19
1.198719582e+20
5.487803613e+19
7.738425015e+19
1.224886559e+20
8.360743015e+19
7.365953358e+19
1.165521209e+20
8.535616032e+19
2.148886022e+19
2.164079884e+19
1.08974506e+20
8.780485658e+19
9.94940352e+19
1.113533235e+20
1.254111461e+20
9.47051146e+19
1.589347092e+20
1.280342405e+20
6.446658021e+19
1.082039934e+20
9.807705606e+19
1.097560723e+20
8.843914303e+19
1.002179912e+20
1.672148603e+20
1.052279044e+20
1.059564721e+20
1.066951997e+20
1.181887304e+20
8.656319476e+19
1.198719566e+20
1.317072858e+20
9.949403591e+19
5.567666177e+19
9.405835892e+19
1.367962766e+20
1.271477683e+20
1.280342405e+20
1.074443004e+20
9.738359478e+19
1.416668597e+20
1.097560723e+20
1.216038208e+20
1.002179905e+20
5.225464384e+19
1.157506948e+20
8.476517769e+19
6.40171198e+19
8.595544028e+19
1.082039934e+20
7.628215418e+19
6.585364244e+19
8.84391424e+19
8.908265946e+19
1.35862074e+20
1.052279051e+20
9.536082619e+19
6.40171198e+19
1.396775895e+20
1.298447921e+20
7.628215471e+19
1.536585012e+20
1.216038217e+20
1.781653177e+20
1.463130037e+20
4.209116205e+19
1.48339062e+20
1.600428006e+20
1.396775905e+20
1.082039934e+20
1.198719566e+20
3.292682145e+19
8.843914303e+19
5.567666177e+19
9.405835892e+19
5.261395256e+19
7.416953098e+19
8.535615974e+19
9.669987032e+19
8.656319536e+19
8.717960599e+19
8.78048572e+19
1.65823392e+20
1.113533235e+20
6.270557261e+19
1.157506948e+20
4.238258913e+19
7.468664028e+19
8.595544028e+19
5.410199672e+19
6.538470358e+19
6.58536429e+19
7.738425015e+19
1.447593206e+20
)
;

boundaryField
{
    flow
    {
        type            zeroGradient;
    }
    obstacle
    {
        type            calculated;
        value           nonuniform List<scalar> 0();
    }
    frontAndBack
    {
        type            empty;
    }
    procBoundary2to0
    {
        type            processor;
        value           nonuniform List<scalar> 
31
(
8.331198464e+19
9.372598272e+19
1.457959731e+20
7.289798656e+19
1.457959731e+20
9.372598272e+19
6.248398848e+19
1.041399808e+20
1.770379674e+20
1.562099712e+20
1.35381975e+20
1.24967977e+20
9.372598272e+19
1.35381975e+20
7.289798656e+19
1.041399808e+20
8.331198464e+19
9.372598272e+19
1.24967977e+20
1.041399808e+20
9.669987032e+19
1.082039934e+20
3.269235202e+19
6.585364336e+19
1.216038217e+20
1.113533235e+20
9.405835892e+19
1.578418566e+20
8.476517826e+19
1.387037605e+20
1.387037605e+20
)
;
    }
    procBoundary2to3
    {
        type            processor;
        value           nonuniform List<scalar> 
19
(
1.906881674e+20
7.851865717e+19
1.12169511e+20
1.009525592e+20
1.458203633e+20
4.486780442e+19
8.973560883e+19
1.682542654e+20
1.570373155e+20
1.121695102e+20
1.009525592e+20
1.346034132e+20
7.851865717e+19
1.121695102e+20
5.608475592e+19
1.346034123e+20
1.009525592e+20
5.608475552e+19
5.608475512e+19
)
;
    }
}


// ************************************************************************* //
