/*--------------------------------*- C++ -*----------------------------------*\
| =========                 |                                                 |
| \\      /  F ield         | OpenFOAM: The Open Source CFD Toolbox           |
|  \\    /   O peration     | Version:  2406                                  |
|   \\  /    A nd           | Website:  www.openfoam.com                      |
|    \\/     M anipulation  |                                                 |
\*---------------------------------------------------------------------------*/
FoamFile
{
    version     2.0;
    format      ascii;
    arch        "LSB;label=32;scalar=64";
    class       volScalarField;
    location    "0.001";
    object      rhoNMean;
}
// * * * * * * * * * * * * * * * * * * * * * * * * * * * * * * * * * * * * * //

dimensions      [0 -3 0 0 0 0 0];

internalField   nonuniform List<scalar> 
546
(
7.727186575e+19
9.970361761e+19
1.004534255e+20
1.005367375e+20
1.001618335e+20
9.987024158e+19
9.864138981e+19
9.834979786e+19
9.743336603e+19
9.793323794e+19
9.716260208e+19
9.824565788e+19
9.801654993e+19
9.805820592e+19
9.853724983e+19
9.70584621e+19
9.59754063e+19
9.610037428e+19
9.678769815e+19
9.65169342e+19
7.766759768e+19
9.820400189e+19
9.809986191e+19
9.841228185e+19
9.778744197e+19
9.841228185e+19
9.968278962e+19
9.964113363e+19
9.876635779e+19
9.86830458e+19
9.837062586e+19
9.699597811e+19
9.712094609e+19
9.576712634e+19
9.562133037e+19
9.714177409e+19
9.778744197e+19
9.81415179e+19
1.004117695e+20
1.013698573e+20
7.741766172e+19
1.015156533e+20
1.006200494e+20
1.012448893e+20
1.016614493e+20
1.009949534e+20
1.006200494e+20
9.999520956e+19
1.011824053e+20
1.007241894e+20
9.853724983e+19
9.968278962e+19
9.791240994e+19
9.853724983e+19
9.81623459e+19
9.866221781e+19
9.847476584e+19
9.859973382e+19
9.92454017e+19
9.795406594e+19
7.679282184e+19
9.891215376e+19
1.010990934e+20
1.021196652e+20
9.949533765e+19
9.941202567e+19
9.989106958e+19
9.945368166e+19
9.972444561e+19
9.87038738e+19
9.951616565e+19
9.828731388e+19
1.006825334e+20
1.011824053e+20
1.019738692e+20
1.011199214e+20
1.012657173e+20
1.005159095e+20
1.03306861e+20
1.026195371e+20
7.802167361e+19
1.009324694e+20
9.962030563e+19
9.916208971e+19
9.822482989e+19
9.87247018e+19
9.866221781e+19
1.009532974e+20
1.004534255e+20
1.005367375e+20
1.007241894e+20
1.011407493e+20
1.019946972e+20
1.019946972e+20
1.019946972e+20
1.018072452e+20
1.016406213e+20
1.03015269e+20
9.97661016e+19
9.920374571e+19
7.720938176e+19
9.845393785e+19
9.851642183e+19
9.895380975e+19
1.005783935e+20
1.012240613e+20
1.013073733e+20
9.92454017e+19
1.002451455e+20
1.009532974e+20
1.017864172e+20
1.013490293e+20
1.012448893e+20
1.006825334e+20
1.007866734e+20
1.02869473e+20
1.016822772e+20
1.005159095e+20
1.013282013e+20
1.025987091e+20
7.770925367e+19
1.005992214e+20
1.022862891e+20
1.022029772e+20
1.009116414e+20
1.016614493e+20
1.020363532e+20
1.022654611e+20
9.955782164e+19
9.845393785e+19
9.735005405e+19
9.722508607e+19
9.820400189e+19
9.834979786e+19
9.739171004e+19
9.743336603e+19
9.849559384e+19
9.764164599e+19
9.664190218e+19
9.793323794e+19
7.656371388e+19
9.849559384e+19
9.820400189e+19
9.884966977e+19
1.002034895e+20
9.934954168e+19
9.970361761e+19
9.943285366e+19
1.010782654e+20
1.008075014e+20
1.03202721e+20
1.014323413e+20
1.015364813e+20
1.003701135e+20
9.989106958e+19
9.97869296e+19
9.947450966e+19
1.011407493e+20
1.024529131e+20
1.023487731e+20
7.943797735e+19
1.027653331e+20
1.03306861e+20
1.020571812e+20
1.015364813e+20
9.947450966e+19
9.901629374e+19
1.007241894e+20
1.016197933e+20
1.022446331e+20
1.006408774e+20
1.014739973e+20
1.011199214e+20
1.018489012e+20
1.018905572e+20
1.014948253e+20
1.012657173e+20
9.972444561e+19
9.753750601e+19
9.622534226e+19
7.69802738e+19
9.878718578e+19
1.004742535e+20
9.982858559e+19
1.007866734e+20
1.010574374e+20
1.010574374e+20
1.017655892e+20
1.011824053e+20
1.008699854e+20
1.017239332e+20
1.018072452e+20
1.013490293e+20
1.017655892e+20
1.009532974e+20
1.022029772e+20
1.019738692e+20
1.023487731e+20
1.023904291e+20
1.025153971e+20
7.86256855e+19
1.014948253e+20
1.011407493e+20
1.017031052e+20
1.022654611e+20
1.025570531e+20
1.039733568e+20
9.955782164e+19
1.011824053e+20
9.964113363e+19
9.745419403e+19
9.874552979e+19
9.795406594e+19
9.945368166e+19
9.905794973e+19
9.97661016e+19
9.955782164e+19
1.033276889e+20
1.043482608e+20
1.046190247e+20
7.735517774e+19
9.830814187e+19
9.824565788e+19
9.789158195e+19
9.647527821e+19
9.630865424e+19
9.65169342e+19
9.65169342e+19
9.662107418e+19
9.86830458e+19
9.907877773e+19
9.920374571e+19
9.941202567e+19
1.006408774e+20
1.023487731e+20
1.006200494e+20
1.013490293e+20
9.897463775e+19
9.793323794e+19
9.791240994e+19
7.602218598e+19
9.876635779e+19
9.87038738e+19
1.000993495e+20
1.008908134e+20
9.962030563e+19
9.92662297e+19
1.015573093e+20
1.021196652e+20
1.023071171e+20
1.012657173e+20
1.017864172e+20
1.021404932e+20
1.010157814e+20
9.907877773e+19
9.81415179e+19
9.664190218e+19
9.674604216e+19
9.739171004e+19
9.670438617e+19
7.741766172e+19
9.949533765e+19
1.005992214e+20
1.004534255e+20
1.012240613e+20
9.993272557e+19
1.006825334e+20
9.997438156e+19
9.984941359e+19
9.920374571e+19
9.841228185e+19
9.822482989e+19
9.841228185e+19
9.839145386e+19
9.847476584e+19
9.97869296e+19
1.015781373e+20
1.000785215e+20
9.81623459e+19
9.993272557e+19
7.831326556e+19
1.005367375e+20
9.920374571e+19
9.799572193e+19
9.739171004e+19
9.832896987e+19
9.87247018e+19
9.895380975e+19
9.795406594e+19
9.70584621e+19
9.699597811e+19
9.795406594e+19
9.893298176e+19
9.843310985e+19
9.909960573e+19
9.987024158e+19
1.018280732e+20
1.02994441e+20
1.034526569e+20
1.024529131e+20
7.741766172e+19
1.002659735e+20
1.002868015e+20
1.02786161e+20
1.038900448e+20
1.025362251e+20
1.017239332e+20
1.011615773e+20
1.021821492e+20
1.03077753e+20
1.011199214e+20
1.009949534e+20
1.009324694e+20
1.013282013e+20
1.047231647e+20
1.019738692e+20
9.984941359e+19
9.830814187e+19
9.678769815e+19
9.928705769e+19
7.720938176e+19
1.016406213e+20
1.023696011e+20
1.009116414e+20
1.008491574e+20
1.012657173e+20
1.035567969e+20
1.038483889e+20
1.039317008e+20
1.039317008e+20
1.040566688e+20
1.054521446e+20
1.041608088e+20
1.021404932e+20
9.849559384e+19
9.949533765e+19
1.012032333e+20
9.966196162e+19
1.008908134e+20
9.916208971e+19
7.595970199e+19
9.503814647e+19
9.526725443e+19
9.695432212e+19
9.70792901e+19
9.735005405e+19
9.784992596e+19
9.81831739e+19
9.701680611e+19
9.805820592e+19
9.893298176e+19
9.918291771e+19
1.000993495e+20
1.006200494e+20
1.024112571e+20
1.006825334e+20
1.006408774e+20
1.012240613e+20
1.015364813e+20
1.011199214e+20
9.74090027e+19
9.74052349e+19
9.742320834e+19
9.987802506e+19
9.933926741e+19
9.966122457e+19
9.694281526e+19
9.657817131e+19
9.836998937e+19
9.78394981e+19
1.001380879e+20
9.974244116e+19
9.855654389e+19
9.910973256e+19
9.726094686e+19
9.832498468e+19
1.013531079e+20
1.000717378e+20
1.00573884e+20
9.967465553e+19
9.807515669e+19
9.840071232e+19
9.984244307e+19
1.003390006e+20
1.011964894e+20
1.01754667e+20
9.861496386e+19
9.967187172e+19
1.011036664e+20
1.005922342e+20
1.01513375e+20
1.008677627e+20
1.005398799e+20
1.021609521e+20
9.931715692e+19
1.01442877e+20
1.029416484e+20
1.014186543e+20
1.009553273e+20
9.969599525e+19
1.006108429e+20
1.011490931e+20
1.000385965e+20
1.000536341e+20
9.929504713e+19
9.988393121e+19
1.006842478e+20
1.00176965e+20
9.938717151e+19
1.018939164e+20
1.013414641e+20
1.003916651e+20
1.003219309e+20
1.032585128e+20
1.023019787e+20
1.018660204e+20
1.000780939e+20
1.008714698e+20
9.834879808e+19
9.933323089e+19
1.01513375e+20
1.006080738e+20
9.955910935e+19
9.875851313e+19
9.841065641e+19
1.008192998e+20
9.848955338e+19
1.000506922e+20
1.009977099e+20
1.001867932e+20
9.923555581e+19
1.008028403e+20
1.011719321e+20
1.006024151e+20
9.772525236e+19
9.761232341e+19
1.026490224e+20
1.016501563e+20
1.00595076e+20
9.933323157e+19
9.880577861e+19
9.853055643e+19
9.744500324e+19
9.930729349e+19
9.973724355e+19
1.009083818e+20
9.581411495e+19
9.668339857e+19
9.720446751e+19
9.71779872e+19
9.863386705e+19
9.822758593e+19
9.979885396e+19
9.961461119e+19
1.009532818e+20
9.96389539e+19
1.031506669e+20
1.044492186e+20
1.050240566e+20
1.069299298e+20
1.045647938e+20
1.036377856e+20
1.049206544e+20
1.035877796e+20
1.023240878e+20
1.002402618e+20
1.04571994e+20
1.020500224e+20
1.01506301e+20
9.976001237e+19
1.012125309e+20
1.014737051e+20
1.008450085e+20
1.005804646e+20
1.018155634e+20
1.013092538e+20
9.782069328e+19
9.864063759e+19
9.866666683e+19
9.766878578e+19
9.71941141e+19
9.602022378e+19
9.578859075e+19
9.924143985e+19
9.956036526e+19
1.007524871e+20
9.738175427e+19
9.708326526e+19
9.779782508e+19
9.905582405e+19
9.988022161e+19
1.00370025e+20
1.017603951e+20
1.001633916e+20
9.887496121e+19
9.859223196e+19
1.007678552e+20
1.017553836e+20
1.026082476e+20
1.021926622e+20
1.017067747e+20
1.015169867e+20
1.003437251e+20
9.924143915e+19
9.898551013e+19
9.770140677e+19
1.001826032e+20
9.868272942e+19
9.764948602e+19
9.724200498e+19
9.738751317e+19
9.493818385e+19
9.611551494e+19
9.715607517e+19
9.907394998e+19
9.995074321e+19
1.00015389e+20
1.008714698e+20
1.019937007e+20
1.007202692e+20
1.009546646e+20
1.005215099e+20
1.008450078e+20
9.959265928e+19
1.008869524e+20
9.997301387e+19
9.848955272e+19
9.729372107e+19
9.843356326e+19
1.001227754e+20
1.012769975e+20
1.030751249e+20
1.025668065e+20
1.0376339e+20
1.040265413e+20
1.020441857e+20
1.021264759e+20
1.021762952e+20
1.008281795e+20
1.023420362e+20
1.013199752e+20
1.007595587e+20
1.021744968e+20
9.987802506e+19
9.971513376e+19
9.954987124e+19
)
;

boundaryField
{
    flow
    {
        type            calculated;
        value           nonuniform List<scalar> 
48
(
7.727186575e+19
7.766759768e+19
7.741766172e+19
7.679282184e+19
7.802167361e+19
7.720938176e+19
7.770925367e+19
7.656371388e+19
7.943797735e+19
7.69802738e+19
7.86256855e+19
7.735517774e+19
7.602218598e+19
7.741766172e+19
7.831326556e+19
7.741766172e+19
7.720938176e+19
7.595970199e+19
7.595970199e+19
9.503814647e+19
9.526725443e+19
9.695432212e+19
9.70792901e+19
9.735005405e+19
9.784992596e+19
9.81831739e+19
9.701680611e+19
9.805820592e+19
9.893298176e+19
9.918291771e+19
1.000993495e+20
1.006200494e+20
1.024112571e+20
1.006825334e+20
1.006408774e+20
1.012240613e+20
1.015364813e+20
1.011199214e+20
1.021264759e+20
1.021762952e+20
1.008281795e+20
1.023420362e+20
1.013199752e+20
1.007595587e+20
1.021744968e+20
9.987802506e+19
9.971513376e+19
9.954987124e+19
)
;
    }
    obstacle
    {
        type            calculated;
        value           nonuniform List<scalar> 0();
    }
    frontAndBack
    {
        type            empty;
    }
    procBoundary2to0
    {
        type            processor;
        value           nonuniform List<scalar> 
31
(
7.75426297e+19
1.005367375e+20
9.982858559e+19
9.799572193e+19
9.98077576e+19
9.899546575e+19
9.991189758e+19
9.972444561e+19
1.010782654e+20
1.004742535e+20
9.968278962e+19
1.018072452e+20
1.005159095e+20
1.005992214e+20
1.001618335e+20
9.966196162e+19
9.984941359e+19
1.008075014e+20
9.874552979e+19
9.770412998e+19
1.007612649e+20
1.007379179e+20
1.006924442e+20
1.001414403e+20
1.000910001e+20
9.954987124e+19
9.813422114e+19
9.868272875e+19
9.682302487e+19
9.786083781e+19
9.786083781e+19
)
;
    }
    procBoundary2to3
    {
        type            processor;
        value           nonuniform List<scalar> 
19
(
9.868673511e+19
1.010647287e+20
1.017153126e+20
1.009525592e+20
9.998790142e+19
9.980843092e+19
1.021191229e+20
9.812588755e+19
1.012890685e+20
9.911297924e+19
9.947192168e+19
1.032856858e+20
1.024556306e+20
9.812588755e+19
9.882133994e+19
9.927001656e+19
1.025004985e+20
1.007506548e+20
9.953922338e+19
)
;
    }
}


// ************************************************************************* //
