/*--------------------------------*- C++ -*----------------------------------*\
| =========                 |                                                 |
| \\      /  F ield         | OpenFOAM: The Open Source CFD Toolbox           |
|  \\    /   O peration     | Version:  2406                                  |
|   \\  /    A nd           | Website:  www.openfoam.com                      |
|    \\/     M anipulation  |                                                 |
\*---------------------------------------------------------------------------*/
FoamFile
{
    version     2.0;
    format      ascii;
    arch        "LSB;label=32;scalar=64";
    class       volScalarField;
    location    "0.001";
    object      translationalT;
}
// * * * * * * * * * * * * * * * * * * * * * * * * * * * * * * * * * * * * * //

dimensions      [1 2 -2 0 0 0 0];

internalField   nonuniform List<scalar> 
546
(
285.0048192
297.1198868
295.4691315
297.9637897
295.6017516
294.7977278
296.6290299
303.45209
305.1145879
300.9357083
299.5052294
297.6576518
299.0043551
297.7260695
292.5241099
291.8849756
294.5958772
297.2074828
308.5976911
312.2028316
295.215121
310.7278231
299.7586456
298.6525589
300.7568945
307.0245223
311.0616896
309.0534194
302.1156986
304.9169204
301.7843991
298.3467317
298.7125276
298.825809
305.6066457
305.927364
307.214994
307.354823
305.9050218
302.5061148
288.6035864
306.7279196
296.7975335
299.0817425
304.7068755
301.7922883
293.2149325
293.5477674
294.4983751
296.0222437
294.9057395
301.0225849
297.0813615
300.0606613
291.5842638
297.6351725
299.9459303
296.6825351
297.4471712
299.0932761
293.2319358
307.1481031
305.5089292
300.2499664
294.0844892
298.6620937
299.9787807
300.8586798
298.9397622
297.8677943
298.944655
298.1000841
302.1947903
304.0246435
306.9519452
300.6077372
292.0740903
296.3105053
297.8468731
296.454148
290.4796447
313.0827827
301.9844932
298.7831595
294.5917909
294.4227598
296.270077
293.7032502
299.6281317
299.9086688
302.3659989
297.0789235
300.2865424
297.4042872
300.3442838
303.6230958
305.5468578
305.258259
298.8446089
303.6233091
288.9173048
303.0761742
293.2646238
299.8397676
302.7747287
301.3876014
295.9395095
301.8306303
295.8231732
297.3752372
294.5682882
295.2172453
296.8356966
297.0624858
300.2438985
306.8357718
306.195502
304.5296339
305.0662307
306.2698827
279.1951655
295.6166585
290.5534801
292.0342232
292.0632813
296.5608967
302.0056913
301.4897725
297.0735297
298.0632687
295.8265525
295.9440702
301.8398213
298.7458474
303.0342419
298.1339264
301.2462288
302.7603014
303.3964434
305.0857624
286.362329
302.4782039
299.5681953
302.0003147
299.7369847
297.779732
298.5211402
299.567552
298.9201008
298.3812902
303.0144892
302.241174
299.8406201
297.5479696
292.4133912
296.2928799
298.1240295
303.8593724
301.5802311
301.1931437
286.9772006
307.2412222
296.1415464
294.9478591
295.8377798
296.5590032
296.780753
299.198125
301.5381206
303.6288858
301.0332248
296.6585004
297.6721997
297.3458247
297.6394772
297.3896343
298.8233998
298.0080227
299.1567883
298.1996024
290.073665
304.6103776
300.8166186
298.914017
298.4423343
295.4783695
294.4188641
299.8090263
298.5999524
301.1363075
300.1456972
300.4414437
300.002354
299.9626495
301.2895633
298.3345839
295.4142937
295.903248
286.7435281
289.659798
286.5994039
305.0477747
295.2257428
295.8877563
301.7514463
306.5286549
305.5726719
301.4147492
302.8024764
294.9244836
297.7254564
300.2564802
303.1409325
298.4267782
296.6503678
294.8904301
297.4851386
296.4767918
303.0793564
299.8445924
288.8805411
302.6090006
295.5717979
304.6237194
301.7772135
299.1751625
297.7757461
297.7194176
296.5095672
297.2954854
295.8872975
297.6531685
298.5499252
307.0428031
305.0972155
305.0895655
305.2137801
309.6812358
302.2716893
304.0654301
293.7060072
307.0419206
297.6408151
298.1641957
299.1116394
296.6455476
300.308627
299.3048397
299.2684977
301.0417758
300.6155268
301.7087527
300.8435425
292.8289893
292.4679969
297.0717985
298.6617768
298.5550311
299.3877513
298.4140021
280.6232713
304.6432597
299.609621
299.7605726
299.1698905
295.512881
299.4949318
303.993473
298.4929466
305.0099546
304.0568432
302.4830846
303.5306507
305.2564814
299.154105
302.7637748
299.2082296
296.4493258
296.2057736
296.1056325
297.6103709
313.0017398
298.2645376
295.8031601
297.7183193
301.258499
306.9997536
304.8373663
308.2532546
300.9934005
303.2984357
299.6699785
300.2502869
299.3665747
300.8895571
300.6781017
302.1063671
308.6117727
307.4265075
309.8594377
289.4486481
303.7891388
301.0835708
309.9077022
306.9544514
302.3051375
296.5866225
291.7387708
297.331997
303.660158
300.3342028
296.6370411
301.1931605
300.4509211
303.1033182
302.1453572
301.6389505
298.5093686
299.8493999
303.3738545
287.3354207
303.8403821
294.6000225
291.8067943
292.1266187
293.2117431
295.6139396
296.268045
292.6291108
294.1509421
301.1687537
305.2478626
300.4200353
299.6986338
294.0805795
297.3779049
299.3307325
302.2878297
301.4100368
297.8231003
295.2571776
308.234502
295.3746993
296.3596924
288.8827218
288.4639339
295.1370354
295.1297023
292.7232661
291.4603473
289.1350842
286.0269587
291.8115583
298.1116238
299.1193651
299.1148738
296.3653165
300.282483
293.2432367
291.0061535
308.4932371
317.2287246
302.1036967
300.7920098
299.6263645
313.7037226
302.8069628
302.710269
301.7258912
297.6006788
299.0035999
303.4701537
302.7236524
315.7348906
304.032454
319.7254556
299.6432725
296.8618001
294.4561198
296.4327007
302.2859027
293.0608605
298.3756108
301.5436658
297.2206864
303.3429671
302.9102382
298.6247794
298.2809422
290.5837657
287.3898479
293.859375
297.3080458
302.2223349
300.6869619
298.9879292
298.0128674
300.5377621
299.1771902
299.2136084
304.457804
304.1814638
307.1345714
310.7645516
316.7193465
315.5440982
302.5036537
303.9866391
304.3548887
305.0665197
300.5607335
300.0693455
300.3410597
306.5269421
302.4700442
301.6498009
302.1279109
300.8479429
303.8102881
304.4054017
310.3937308
304.6364285
296.8078172
299.4525074
295.8888308
297.8024139
305.9583789
306.6877571
312.4107448
313.2417565
312.7286276
312.0535603
310.2841938
316.2662106
312.1657237
308.0581434
297.5037219
296.7807384
293.1614195
300.1372845
302.4417327
306.9537315
304.5082739
304.864918
308.2960892
306.1360687
298.1313517
300.0476377
295.9964011
294.9983835
293.813652
287.9152896
291.2489896
288.9189574
294.8122061
295.4025071
290.7321925
293.3140516
296.9435782
297.7075191
291.4012665
298.3059724
298.1965439
303.1322909
295.7730814
294.9533569
298.6176391
298.8699198
296.4832238
295.419025
295.5969571
295.2286621
295.2941886
293.6095844
296.7414832
303.3755012
304.6713477
310.4768504
309.6469708
305.5719496
306.423329
307.3487585
307.1690592
311.5740411
310.5065663
311.8091878
302.0936
299.9930415
305.2728707
306.516574
305.5161495
301.9556054
304.1072687
297.3806702
293.6118706
287.8479837
289.6624819
289.0535654
289.4630184
292.9825505
293.1564883
293.9942866
289.1702554
292.2718654
292.3038911
295.2021736
312.8631597
312.6977363
310.1992905
304.6225626
300.1595403
299.7621021
293.40713
292.0580809
296.7668575
297.3252808
297.867711
300.3569948
301.6595848
302.6211445
300.7617608
295.1721089
301.4105931
298.9866846
297.3209953
300.21129
297.5244531
300.8237928
302.4845503
302.5437135
304.9358796
307.3774264
309.668397
304.9936615
303.228035
294.8418246
294.9685535
298.1680445
301.5089765
302.5189014
304.0840588
303.5146368
298.6238173
298.8801196
294.7363538
300.0495251
)
;

boundaryField
{
    flow
    {
        type            calculated;
        value           nonuniform List<scalar> 
48
(
285.0048192
295.215121
288.6035864
293.2319358
290.4796447
288.9173048
279.1951655
286.362329
286.9772006
290.073665
286.5994039
288.8805411
293.7060072
280.6232713
297.6103709
289.4486481
287.3354207
295.2571776
295.2571776
308.234502
295.3746993
296.3596924
288.8827218
288.4639339
295.1370354
295.1297023
292.7232661
291.4603473
289.1350842
286.0269587
291.8115583
298.1116238
299.1193651
299.1148738
296.3653165
300.282483
293.2432367
291.0061535
294.9685535
298.1680445
301.5089765
302.5189014
304.0840588
303.5146368
298.6238173
298.8801196
294.7363538
300.0495251
)
;
    }
    obstacle
    {
        type            calculated;
        value           nonuniform List<scalar> 0();
    }
    frontAndBack
    {
        type            empty;
    }
    procBoundary2to0
    {
        type            processor;
        value           nonuniform List<scalar> 
31
(
290.3860182
308.7356886
298.4153019
293.7217195
295.3873301
292.5787827
287.6710362
287.9101225
291.1403268
289.8067591
293.1865896
303.7658822
297.389221
301.6203508
301.5590464
299.5459294
298.7703709
306.8796814
298.3661338
299.1808902
305.5953208
306.2709546
308.5362292
320.8551073
332.9572326
322.3955417
288.4667668
293.4268865
299.1420701
300.5088079
300.5088079
)
;
    }
    procBoundary2to3
    {
        type            processor;
        value           nonuniform List<scalar> 
19
(
330.6571382
324.5144589
305.6960292
309.909519
326.4566638
310.708222
304.2566121
303.7120675
302.2358613
293.3625873
290.4400316
306.9342413
307.4764205
288.4214029
305.4530584
301.1092997
299.5065587
291.1554633
303.9453867
)
;
    }
}


// ************************************************************************* //
