/*--------------------------------*- C++ -*----------------------------------*\
| =========                 |                                                 |
| \\      /  F ield         | OpenFOAM: The Open Source CFD Toolbox           |
|  \\    /   O peration     | Version:  2406                                  |
|   \\  /    A nd           | Website:  www.openfoam.com                      |
|    \\/     M anipulation  |                                                 |
\*---------------------------------------------------------------------------*/
FoamFile
{
    version     2.0;
    format      ascii;
    arch        "LSB;label=32;scalar=64";
    class       volVectorField;
    location    "0.001";
    object      UMean;
}
// * * * * * * * * * * * * * * * * * * * * * * * * * * * * * * * * * * * * * //

dimensions      [0 1 -1 0 0 0 0];

internalField   nonuniform List<vector> 
546
(
(1702.866865 -14.57350998 0.7017121137)
(1737.323104 -7.29264708 -3.070456118)
(1730.994834 -0.05317071925 0.03316549805)
(1729.366732 1.264520715 -0.8325923193)
(1737.581175 -4.668275484 1.377159093)
(1734.722014 -5.234725714 4.049321958)
(1735.48652 -3.395049146 2.061055612)
(1734.338519 -5.625722184 -1.095017128)
(1740.043119 -10.04926104 1.406886603)
(1741.294408 -8.714865302 -1.099250878)
(1739.354269 -10.66613937 -6.530636539)
(1739.089966 -8.501532036 -5.11348139)
(1740.886105 -1.240515019 -6.596253814)
(1736.135304 10.45718932 -3.811637388)
(1731.213512 7.584311243 4.490147653)
(1729.483888 11.65069051 4.724741755)
(1727.56237 9.880602114 -0.5134027537)
(1729.682948 7.989679784 -3.940439028)
(1732.288176 5.058642433 2.588207017)
(1730.84476 -0.6673208682 -3.995017465)
(1708.022062 6.986465304 6.394452177)
(1749.837646 2.752838352 7.626670169)
(1740.06913 4.354225356 7.377215613)
(1737.890051 -0.6759100384 5.61549251)
(1732.348284 0.7466246052 3.665297584)
(1726.364564 -1.977335605 1.186595309)
(1723.187338 -10.24904613 0.1578844844)
(1723.973499 -4.317725103 0.6642324876)
(1726.618146 -2.015593089 -7.364420539)
(1725.475606 2.89634685 -4.481190527)
(1730.577456 4.998065316 -7.112274634)
(1737.275855 3.700471209 -5.757325054)
(1737.744186 2.624152649 -9.011758308)
(1737.460067 -2.788332555 -5.186734058)
(1737.399944 -2.606276857 -10.29568112)
(1732.653675 1.763399162 -7.083461459)
(1735.01066 -1.310576284 -3.90545399)
(1728.632626 -0.2574772333 0.02045913601)
(1723.523212 0.1664335144 6.076956953)
(1728.638651 6.116212924 7.268540847)
(1707.79867 6.665469971 -2.802574511)
(1741.905036 10.17143291 -3.999029026)
(1744.927367 8.621283886 -6.402659614)
(1735.322261 -1.611449822 -3.64200719)
(1743.623756 -5.040447652 0.2347184408)
(1745.259589 -2.989580379 -2.884120977)
(1745.305829 0.9289232924 -2.207592599)
(1741.051178 6.108285627 -1.199214869)
(1739.142647 2.332284323 -0.6881336708)
(1740.967709 -0.9735082823 -0.3116816898)
(1736.326691 8.10545723 -2.807444677)
(1731.663457 6.786261142 -1.365318085)
(1727.995665 3.370085974 -1.272553511)
(1732.931467 2.329476564 2.902963199)
(1730.385468 3.968674825 1.996416769)
(1731.204591 -2.506106385 0.4787149944)
(1727.472826 -4.068023414 -3.005161985)
(1728.880154 1.612072257 -2.501311296)
(1731.501273 -1.599886266 -5.677790604)
(1727.434358 -10.15797168 -6.654405967)
(1711.519051 1.886086225 -2.983421988)
(1748.072636 -10.93725812 -1.344144777)
(1728.891897 -11.84204728 -1.916642666)
(1733.915019 -5.599726171 -0.9398162676)
(1734.418154 2.172411849 -2.67143018)
(1735.851315 3.780460942 1.59216133)
(1737.934162 5.337162273 3.575660481)
(1742.022374 8.546082695 0.9133161706)
(1739.143525 9.824223161 -1.554852426)
(1736.073453 13.76344237 5.517975586)
(1738.41859 1.975218447 1.445956652)
(1739.190403 6.502097059 6.453127376)
(1740.419868 5.562383093 2.323111146)
(1738.984317 4.727793157 1.577549862)
(1738.050928 2.990266702 4.440285117)
(1745.873761 0.4169752328 4.203448818)
(1745.402279 0.1819958376 4.161531722)
(1736.849894 -5.06017085 2.894920506)
(1732.858175 -6.346619002 2.700798557)
(1729.044916 -4.513440446 5.362923131)
(1710.133392 -6.482992699 2.40133256)
(1743.427678 2.460617132 3.627792658)
(1737.020352 10.00793351 5.829568532)
(1729.252326 8.552969963 5.387243053)
(1734.087814 2.287331069 5.561771848)
(1730.80887 4.925479581 1.486444324)
(1729.210248 3.276050172 5.450017207)
(1732.09479 2.070251405 13.11514361)
(1726.566829 -0.8346909345 14.50176951)
(1730.052892 -4.597259971 15.0620003)
(1730.764597 -0.623385063 11.60467165)
(1729.040885 -5.172604015 5.072531225)
(1729.773898 0.9893668846 7.974049388)
(1725.499188 -3.971582683 9.966733931)
(1725.126563 1.282738819 5.377232186)
(1723.913118 2.096622759 5.876815596)
(1722.90624 1.046335715 11.46812266)
(1726.687823 -0.913846474 8.602993635)
(1725.56372 -3.978779636 10.65844353)
(1726.324419 -1.278873687 9.349775579)
(1710.454252 3.559001078 5.170215837)
(1746.060254 4.399323254 6.773662937)
(1738.356098 1.760750942 3.939201458)
(1738.316256 9.454486193 2.588623603)
(1735.877651 6.6198274 5.681918557)
(1735.828791 -0.1770303728 -0.05329691545)
(1739.705013 -5.005492048 -3.959461011)
(1737.599035 -10.39742205 -11.62521245)
(1734.832943 -4.88339503 -8.179558018)
(1732.835745 -7.578577312 -8.672196693)
(1736.086095 -9.751015342 -3.958742809)
(1732.429388 -2.179906852 0.4324584414)
(1733.408219 2.217842032 -0.8731474971)
(1740.986329 3.853165091 -2.166193643)
(1735.094388 -6.033846616 2.430013362)
(1733.05646 -5.763988257 -2.7453931)
(1735.166397 -1.508500352 -6.322308561)
(1737.878321 -3.40588047 -7.169921963)
(1737.033865 3.788779278 -7.750693697)
(1746.601025 3.958688669 -3.241316196)
(1705.166224 2.500986389 -2.535788074)
(1740.864666 4.831722412 -2.120216629)
(1732.360501 0.4688864571 -4.299222545)
(1738.734423 -0.2566027147 -4.477457355)
(1735.90379 -3.505481742 -7.976318338)
(1734.400951 -2.362489526 -7.360864084)
(1735.14351 2.721696504 -2.822502451)
(1734.19213 -1.328670861 2.990011958)
(1744.467117 2.108492514 4.022649394)
(1740.280712 -0.5599128144 3.332993018)
(1746.010796 1.709967941 4.499600502)
(1740.639173 0.2146520002 0.7343232871)
(1741.356503 -9.43725126 -3.986258505)
(1743.497152 -13.02636309 -6.4014236)
(1740.595804 1.183450888 -5.675140108)
(1744.706352 4.336341953 -3.237095702)
(1741.596746 3.61754407 1.020719613)
(1739.395683 -1.21192092 2.083127814)
(1739.419408 0.4043658726 -0.6348996798)
(1738.623168 -4.059964534 -3.263041106)
(1717.154115 0.5050348137 -6.110901254)
(1750.05471 -2.212135777 -11.25786979)
(1738.279175 -2.550656028 -13.8140318)
(1731.015228 -3.885178157 -12.83353854)
(1734.583517 -1.845046466 -5.621192688)
(1734.467993 1.13397427 -5.758876832)
(1737.063428 1.495812124 -7.053652037)
(1735.159806 8.188467982 -5.536534071)
(1737.260969 3.010529549 -11.97058354)
(1738.828201 4.290397785 -11.16344919)
(1730.762598 3.619144458 -11.93036877)
(1730.318361 1.684789805 -9.293123775)
(1727.669213 1.845643607 -13.43503391)
(1726.766799 3.596600655 -12.61714117)
(1727.485352 -4.634617289 -13.05329171)
(1728.856633 -3.362416607 -13.28010323)
(1732.422102 -3.427178791 -15.5734568)
(1738.708494 2.961160426 -16.51492077)
(1729.75902 -4.582645567 -15.53862805)
(1731.924397 -5.380848707 -15.22090517)
(1695.026712 -0.462474675 -19.83151465)
(1736.507527 -0.7045939277 -17.02819392)
(1730.713437 -4.415138686 -13.75688872)
(1731.397511 -4.384004122 -12.47025436)
(1733.562588 -5.43716622 -14.66966504)
(1735.594166 -0.5962444456 -9.530846421)
(1733.061789 1.672439123 -8.2277415)
(1732.232976 -1.849553729 -10.46841488)
(1727.477069 -3.733896085 -11.20051608)
(1729.908668 -4.172812143 -9.84513482)
(1734.051106 1.489564712 -12.70231202)
(1734.772017 2.671580742 -9.762674097)
(1732.85462 11.77129131 -0.6844099478)
(1740.142443 7.739762545 1.052420641)
(1742.12854 0.2914952978 1.416299886)
(1739.703507 -3.595667097 -0.7365378699)
(1733.794922 -6.094662766 -4.884767012)
(1732.532697 -8.030938147 -5.337589001)
(1736.612795 -1.522232378 1.22062225)
(1737.690837 -2.128384151 -0.9336979481)
(1714.531862 -2.010451794 -1.96721939)
(1746.819535 -1.293779062 2.267190518)
(1730.373481 4.216026673 1.075823752)
(1737.359248 -4.400393783 -1.108865802)
(1735.001584 0.4071699303 -4.78695662)
(1732.913892 -0.8647648709 -7.338820024)
(1736.41339 -7.231208515 -6.608268993)
(1736.112834 -3.404204262 -9.043033547)
(1738.966606 -3.400470666 -7.191223329)
(1737.409552 6.037842694 -8.62684596)
(1731.595779 0.4652474823 -9.147729463)
(1731.99974 -2.944488829 -15.20795946)
(1736.234937 -6.809878683 -12.95100073)
(1735.191062 -5.757560444 -14.73622636)
(1734.875174 -0.9160205335 -15.34919441)
(1729.721967 6.673627775 -12.48971551)
(1727.289025 7.931191641 -6.238818325)
(1727.88941 10.91070714 -1.845475846)
(1727.278487 10.36055502 -6.48819075)
(1731.305329 4.304614021 -5.648639566)
(1707.686041 -3.65602707 2.755305279)
(1749.011486 -2.810599976 0.9145084976)
(1749.279896 1.303689651 5.291828981)
(1744.863739 0.821283713 5.531916327)
(1744.603229 4.067874361 7.445414383)
(1736.180371 0.3548365587 8.017632747)
(1735.951635 2.238998485 5.1604089)
(1741.55659 1.255989668 2.373719146)
(1739.630063 1.363686991 2.70754346)
(1740.921231 -4.381762806 2.692146774)
(1744.73786 -5.603768836 8.129440687)
(1743.487056 1.092099668 10.07818176)
(1737.100284 -0.2864909461 7.32893492)
(1732.82577 1.027504193 4.683428986)
(1730.680967 0.2214266212 1.80758942)
(1732.067052 1.549064613 1.768472869)
(1737.85088 -1.334074544 2.268304506)
(1739.896869 -10.63019978 -5.106248152)
(1741.769666 -2.838789028 -2.479567002)
(1741.777911 -3.945587964 4.014702632)
(1705.58009 -2.467737566 2.620692405)
(1743.110605 -1.462109357 2.203188346)
(1730.237908 -4.118841312 -2.399867326)
(1732.363626 2.28274951 4.670282188)
(1735.94183 -2.786147099 2.592165279)
(1736.215414 -1.469162936 -0.3937057573)
(1737.312902 -1.58410664 -2.550241887)
(1740.466505 -0.6078056662 0.8874574789)
(1744.231782 -1.287381011 1.437107302)
(1741.522626 3.712703591 -3.651189441)
(1742.467757 5.15844887 -7.080354731)
(1742.187799 -0.6304090053 -3.552088224)
(1745.11449 -8.676440233 0.6960996003)
(1746.410272 -8.276230937 7.83102301)
(1744.161071 -5.04578078 15.30849417)
(1744.484462 -5.900810923 14.47193873)
(1731.498994 -5.071571616 15.1120684)
(1733.242836 0.107673137 12.49868447)
(1730.1592 -5.592920936 10.82219278)
(1735.140822 -2.636645395 2.77288641)
(1724.287989 -7.756334066 -15.24934518)
(1759.155527 -11.05441358 -18.38142818)
(1745.319967 -10.6065085 -14.90310052)
(1745.351273 -8.806277955 -13.52257256)
(1741.355133 -4.858288916 -12.51173431)
(1746.431458 -2.185814253 -9.182462228)
(1746.292207 -3.408343546 -1.589500906)
(1743.409644 -2.915743913 -2.551530085)
(1741.748061 0.01947040564 -1.470051592)
(1739.929964 -6.269248842 5.224055491)
(1734.68758 -5.585924317 3.083273311)
(1737.73048 -6.693335018 7.682551117)
(1737.955796 -2.238546865 1.187301071)
(1739.063021 1.706310134 -7.577923559)
(1740.558244 5.607338449 -10.08649713)
(1742.609314 3.668980074 -13.20042219)
(1746.15478 0.950136375 -8.784988031)
(1740.653086 -1.991662682 -8.796966967)
(1736.953119 5.461805277 -6.582804444)
(1734.350153 -0.4920758004 -5.511239528)
(1700.145543 0.1397186751 -9.72697384)
(1739.877189 -2.101710481 -5.981110271)
(1732.597127 -4.670413966 -2.581348336)
(1732.608861 -11.28930514 -5.582873996)
(1735.431905 -11.87228149 -4.806826647)
(1725.006225 -8.184890673 -4.344016602)
(1728.710822 -2.561589166 -3.870750466)
(1723.023012 0.7764160716 -1.106015065)
(1730.085622 -3.416747327 -1.25570038)
(1729.193529 0.2923697489 -2.473988103)
(1731.185162 -2.43419013 -4.573017457)
(1733.109117 0.4856617546 -8.388655221)
(1732.086471 0.9475407718 -5.712206319)
(1731.222266 2.903113428 -1.288252246)
(1728.902541 2.79009212 -3.817124618)
(1731.279833 2.515024343 -3.592990357)
(1733.734848 2.389661331 -3.504436904)
(1735.618553 5.304679345 -4.142928738)
(1739.372066 1.027228924 -3.992107734)
(1735.601418 -1.340794821 -4.025898577)
(1700.234316 -4.699914588 -0.7993626847)
(1738.093244 -1.843180433 -4.177266889)
(1731.474622 -1.585352249 -7.654794046)
(1731.604773 4.103066019 -7.74369192)
(1733.709745 3.795692757 -5.612396323)
(1734.068725 2.866531317 -9.110595498)
(1732.414509 -4.326184163 -9.530762936)
(1730.767188 -10.19762657 -12.40688628)
(1729.635012 -8.559626599 -12.60588377)
(1724.6821 -8.588626241 -9.581205974)
(1724.63038 0.4314983153 -9.648368202)
(1720.775351 0.8631135093 -7.605674491)
(1717.915011 1.211402347 -4.882285375)
(1723.23667 5.148338184 -9.612403616)
(1721.268633 -4.356105208 -13.33128814)
(1717.637275 -6.411316806 -13.80447293)
(1720.088238 -4.365202248 -10.66597938)
(1719.767442 -5.675778022 -11.99404858)
(1717.735467 -3.352951616 -10.32411006)
(1724.722793 -3.12270608 -3.449238028)
(1708.77168 -0.2157956676 0.268271362)
(1753.698262 0.6988828569 -5.196796209)
(1745.223801 4.830003248 -4.983408669)
(1747.537264 1.015939594 -6.321083364)
(1743.557706 -2.054788442 -10.06323724)
(1743.522216 -1.239510331 -13.47597037)
(1744.691764 1.83600547 -10.4351978)
(1743.71344 7.938697676 -10.79731622)
(1745.089803 4.438309795 -15.90409369)
(1741.435059 -0.6942326919 -12.0998433)
(1747.41457 -5.014811265 -7.982082159)
(1747.412189 -4.255252443 -7.482326001)
(1749.39862 -7.581800394 -9.408075535)
(1740.354247 -7.218808852 -5.200748211)
(1741.614425 -9.92827884 0.1348668195)
(1745.349097 -8.981589553 -2.456696968)
(1743.094269 -10.83093575 -1.018465462)
(1744.475178 -12.00182689 1.542487248)
(1743.768745 -7.720786815 1.484368271)
(1734.438208 -1.646921447 2.973294151)
(1710.109477 -6.556804385 -0.01505070768)
(1741.660777 -8.025608894 -2.605746456)
(1731.48807 -8.18906317 -1.244013426)
(1732.958156 -9.318599935 -0.3199629897)
(1736.172673 -1.325922608 1.768999119)
(1736.093506 -4.429599321 3.443507122)
(1731.773244 -1.67779324 7.32843926)
(1736.188968 1.632255864 5.79855918)
(1732.216318 3.441593622 9.467222445)
(1739.518901 0.9647190149 4.391631482)
(1733.99512 -0.4638507267 0.6665707239)
(1736.313731 -0.5437306309 -0.1307985481)
(1732.458385 1.820606806 0.7992934557)
(1731.975839 5.370605711 -2.825392949)
(1734.265994 0.4617365213 1.357293902)
(1734.139239 6.158553196 3.083465091)
(1734.980232 12.05132998 -3.651066867)
(1735.020884 7.368405259 0.170501754)
(1740.203575 3.807103171 -5.772413773)
(1747.905364 1.401854834 -4.556234485)
(1712.677915 -0.9531603581 3.077979477)
(1748.085175 -5.011530183 2.751926697)
(1733.314913 -5.365994535 10.30931129)
(1729.725274 -3.855431193 10.63855576)
(1730.60353 -3.385734682 9.134612622)
(1730.749157 0.09866448491 11.78615111)
(1724.138231 -0.9228223346 8.08318508)
(1725.408308 -5.099500502 15.47957096)
(1726.602086 -6.821423453 12.94159007)
(1728.457034 4.639604554 11.63237461)
(1726.857905 10.84355108 6.709704486)
(1728.157307 16.77788663 7.693435746)
(1729.643724 8.649549507 0.1837515792)
(1732.08311 8.488316577 3.332497587)
(1735.808177 16.04705765 -0.9700616984)
(1736.201425 9.699582353 -3.218582403)
(1733.860924 5.848438381 -4.514402117)
(1731.763316 8.878725096 -2.553485037)
(1729.498287 8.434191415 -0.2579060046)
(1730.454173 5.392391233 0.5255271892)
(1736.597362 4.752662357 2.459344607)
(1729.954463 8.56660947 -0.3509648759)
(1734.136591 -0.8678285343 -1.845986839)
(1732.981627 -5.982155766 -2.672806188)
(1728.367382 0.236782687 -3.696724923)
(1719.520907 8.947380495 -5.99026934)
(1734.52742 0.4819451398 1.716767208)
(1739.175118 1.011862091 7.311246881)
(1735.563626 -1.929306577 5.984235404)
(1733.094286 -1.361217373 2.271055014)
(1724.369099 -8.616201888 0.3059888261)
(1721.282458 -5.030057681 2.923695809)
(1722.059454 0.5611808557 1.675020092)
(1724.536896 13.84142736 2.305024065)
(1720.273486 6.131617094 2.487564097)
(1724.345335 10.65517014 3.988001207)
(1733.355779 3.42455341 5.816256668)
(1730.676921 -3.220442779 1.290548668)
(1730.711433 -6.560045489 1.987997494)
(1724.268565 -3.106889042 -2.692564085)
(1725.015069 -1.788460374 5.048228065)
(1728.929459 1.057051561 4.404591136)
(1729.609335 3.326909865 -0.1347355691)
(1727.541428 0.9837063874 8.164588798)
(1730.540844 1.040176935 4.81585967)
(1732.62119 6.095423324 8.037210053)
(1719.983644 -6.365023479 -5.044124366)
(1720.289343 1.95240117 -3.609911089)
(1722.17405 -2.11930514 -0.2244887898)
(1731.188609 -6.584902145 0.1564912279)
(1733.020234 -6.779286951 -4.919527365)
(1734.854493 -3.450097727 -6.477162199)
(1732.3635 -2.853991782 0.3957617324)
(1731.106754 -5.252308965 -2.454992404)
(1732.986619 -0.5754045839 -4.761374061)
(1729.527543 -7.530863478 -3.629108854)
(1734.206124 -6.414019195 -2.983673372)
(1732.522198 0.4179229958 -6.351395325)
(1731.712748 3.577752356 -4.666642594)
(1734.230263 8.296983303 -4.063782398)
(1732.150837 1.383655061 1.708940144)
(1725.655308 0.3253532286 4.143999273)
(1727.141673 -2.819305421 0.3683548104)
(1726.864302 -5.720135805 4.885331065)
(1725.581578 -6.324719445 1.161003805)
(1718.22266 -7.119427246 1.621258681)
(1729.760771 -1.094122622 15.86859338)
(1730.972867 -0.1138340225 8.285299861)
(1733.539078 -3.025027273 10.1457265)
(1732.035318 -3.143973134 7.07398152)
(1738.320795 -0.3465325812 3.660220814)
(1733.406246 3.686588746 -0.2459268377)
(1730.550837 -0.07689843155 4.146818954)
(1730.656079 1.598278966 -3.511671649)
(1731.816459 -4.765323736 -0.5397207621)
(1734.115597 5.517373583 -5.743937783)
(1746.055504 6.679321429 -5.363924704)
(1740.355761 5.893764434 -5.144646689)
(1739.228547 6.902591907 -6.282835392)
(1739.051857 6.925310564 -3.511352066)
(1732.957227 -4.782539997 0.1821666411)
(1740.916357 -9.521262848 0.2131827644)
(1745.921537 -6.353007226 -2.924284286)
(1746.635013 -1.322258096 1.13370832)
(1745.456327 1.039583976 -2.228061549)
(1740.016145 -3.195465285 -7.180782005)
(1735.259743 -2.518938406 3.195423667)
(1735.759642 -4.268361055 2.308597471)
(1735.478698 -8.50911818 -0.5978872043)
(1732.537976 -5.266963789 -10.19687707)
(1737.043626 2.137894569 -22.5815578)
(1736.042918 4.143112619 -18.13002997)
(1737.547462 4.686768067 -14.2201492)
(1734.720274 3.126620691 -11.55408089)
(1732.439071 7.355359987 -8.993974821)
(1735.38687 4.525082277 -0.1106614111)
(1729.674212 -7.299734651 -17.96905598)
(1736.843751 -4.527297241 -14.30962193)
(1739.405335 2.74709708 -6.205756557)
(1740.226732 -2.144106725 5.186255335)
(1739.825174 -0.1994840412 11.60253351)
(1735.984455 4.697740952 11.35058883)
(1737.29994 0.4281412216 4.76648149)
(1735.254993 5.548769143 3.969410748)
(1738.20596 0.7282301492 -4.562010075)
(1736.969683 -15.8373038 -8.282851786)
(1738.46092 0.4845437832 -0.5677780428)
(1728.806045 -0.2216526674 -2.245409414)
(1736.122368 -0.1196560189 -6.363877908)
(1733.383465 2.692187108 -11.78411859)
(1731.463694 -1.950020439 -13.00859181)
(1732.641489 -7.08135191 -13.59024471)
(1724.617534 -11.21961148 -10.34867028)
(1730.706664 -14.61665041 -7.350030728)
(1733.320677 -7.136780502 -2.111537248)
(1736.942785 0.2707212892 -8.531728003)
(1738.009021 5.120020993 -5.110357138)
(1734.147085 1.836524824 -12.02160178)
(1731.393945 0.7644466339 -8.484486621)
(1724.993848 -1.456723447 -1.685043175)
(1727.454576 0.7325048695 -4.284315405)
(1729.612493 -0.01706015213 1.155957215)
(1733.519722 2.171344384 -4.969563519)
(1738.24029 5.792998827 -8.501402039)
(1733.531391 8.973276552 -9.91310002)
(1736.488185 1.009174257 -4.341015067)
(1740.947331 -5.174514698 6.619404562)
(1743.827896 -4.132968901 8.923157924)
(1740.349419 -3.797534871 7.335834123)
(1747.868611 3.040135976 9.91019927)
(1749.981674 4.013086769 5.236758157)
(1747.155653 4.829641221 -0.5364671178)
(1740.391856 8.849930084 -1.066740663)
(1740.98379 13.72747754 2.512939387)
(1733.764207 13.78818366 2.412791975)
(1729.230566 21.40233428 2.099315073)
(1735.685819 1.832812475 6.981316486)
(1735.787112 -0.9697611627 2.961553558)
(1733.238579 2.294514307 -0.5348360611)
(1736.706706 4.231417999 -4.420613894)
(1728.907097 4.350863562 -1.681171846)
(1734.552557 3.724649312 1.969971616)
(1732.312082 2.424561376 5.840943455)
(1733.501141 -1.298735764 -1.914954587)
(1730.33207 -6.530720841 -6.209578037)
(1727.539678 2.233938487 -5.936230792)
(1732.40392 1.968463549 -9.944095705)
(1726.609948 3.051083884 -10.73897539)
(1732.005369 -0.2784504323 -7.891771498)
(1723.425339 -4.159296377 -7.654909436)
(1728.695488 -8.851386778 -12.32986795)
(1728.612316 -9.94185897 -10.865258)
(1726.223374 -4.919827884 -12.17572827)
(1727.815125 -2.602723404 -6.745503906)
(1734.569248 3.075248455 -3.464180883)
(1737.472997 -6.621490516 1.620712144)
(1736.98188 -6.141658836 -5.993110764)
(1732.567021 -9.515504402 -5.209278838)
(1729.707063 -10.23554638 -4.023550522)
(1732.58159 -4.487665845 -2.904423569)
(1734.947016 2.857652962 -1.967466727)
(1728.878919 6.155322365 -1.482035706)
(1733.987513 7.714833027 -0.2120113673)
(1735.088071 6.288836052 -3.728230766)
(1736.029371 6.255773311 -0.04094435703)
(1733.425574 1.702109515 -6.409004702)
(1730.109006 -1.038535804 -3.142272624)
(1730.658294 3.145078764 -6.120950496)
(1731.322243 2.618102253 0.6961630873)
(1734.784189 1.188458047 1.294351048)
(1741.187007 -0.6953938288 0.9529887098)
(1747.558154 -5.273619865 -0.8093199875)
(1750.594838 -6.177836036 -2.020775057)
(1745.905292 4.516171512 -8.658315774)
(1741.209261 6.596623814 -6.524460234)
(1743.040173 9.285376984 -5.612742754)
(1732.624128 9.493832188 1.942920579)
(1731.461885 7.360542664 7.856154019)
(1730.150095 13.3073937 -1.309447201)
(1727.222782 7.013766409 -1.753730623)
(1732.335244 6.56070616 -3.41072446)
(1728.637304 4.875576468 2.201261698)
(1727.950322 1.445031779 -0.3811331113)
(1733.318915 -11.00917237 -0.612111851)
(1729.22347 -13.49273343 0.3592945955)
(1724.181645 -13.33385685 -1.721765004)
(1743.221294 -2.036142925 -5.630705586)
(1739.736469 -4.050582984 -8.636115394)
(1741.10926 -10.95850184 -5.371226781)
(1739.317004 -4.604155205 0.5651471665)
(1735.308386 2.231683097 -2.065415452)
(1734.024403 3.436580126 -5.419649576)
(1728.062402 3.296483852 -1.464256805)
(1722.998603 -1.739139742 6.899576235)
(1727.834594 -4.561759223 8.23139539)
(1732.490787 0.2370414011 6.975509151)
(1732.539844 -0.177480541 -0.04541848055)
(1729.423965 5.085022571 -2.738504105)
(1731.670107 4.978206875 -1.155711623)
(1733.740421 9.362687499 -1.385670164)
(1738.686536 4.09881796 -2.61711483)
(1734.935284 3.011117944 0.9349003387)
(1740.20815 6.025452577 0.8909223818)
(1743.335171 9.339331038 -6.55855245)
(1739.950105 11.07902501 -8.53741023)
(1745.500018 6.32349441 1.041673786)
)
;

boundaryField
{
    flow
    {
        type            calculated;
        value           nonuniform List<vector> 
48
(
(1702.866865 -14.57350998 0.7017121137)
(1708.022062 6.986465304 6.394452177)
(1707.79867 6.665469971 -2.802574511)
(1711.519051 1.886086225 -2.983421988)
(1710.133392 -6.482992699 2.40133256)
(1710.454252 3.559001078 5.170215837)
(1705.166224 2.500986389 -2.535788074)
(1717.154115 0.5050348137 -6.110901254)
(1695.026712 -0.462474675 -19.83151465)
(1714.531862 -2.010451794 -1.96721939)
(1707.686041 -3.65602707 2.755305279)
(1705.58009 -2.467737566 2.620692405)
(1724.287989 -7.756334066 -15.24934518)
(1700.145543 0.1397186751 -9.72697384)
(1700.234316 -4.699914588 -0.7993626847)
(1708.77168 -0.2157956676 0.268271362)
(1710.109477 -6.556804385 -0.01505070768)
(1712.677915 -0.9531603581 3.077979477)
(1712.677915 -0.9531603581 3.077979477)
(1748.085175 -5.011530183 2.751926697)
(1733.314913 -5.365994535 10.30931129)
(1729.725274 -3.855431193 10.63855576)
(1730.60353 -3.385734682 9.134612622)
(1730.749157 0.09866448491 11.78615111)
(1724.138231 -0.9228223346 8.08318508)
(1725.408308 -5.099500502 15.47957096)
(1726.602086 -6.821423453 12.94159007)
(1728.457034 4.639604554 11.63237461)
(1726.857905 10.84355108 6.709704486)
(1728.157307 16.77788663 7.693435746)
(1729.643724 8.649549507 0.1837515792)
(1732.08311 8.488316577 3.332497587)
(1735.808177 16.04705765 -0.9700616984)
(1736.201425 9.699582353 -3.218582403)
(1733.860924 5.848438381 -4.514402117)
(1731.763316 8.878725096 -2.553485037)
(1729.498287 8.434191415 -0.2579060046)
(1730.454173 5.392391233 0.5255271892)
(1732.539844 -0.177480541 -0.04541848055)
(1729.423965 5.085022571 -2.738504105)
(1731.670107 4.978206875 -1.155711623)
(1733.740421 9.362687499 -1.385670164)
(1738.686536 4.09881796 -2.61711483)
(1734.935284 3.011117944 0.9349003387)
(1740.20815 6.025452577 0.8909223818)
(1743.335171 9.339331038 -6.55855245)
(1739.950105 11.07902501 -8.53741023)
(1745.500018 6.32349441 1.041673786)
)
;
    }
    obstacle
    {
        type            calculated;
        value           nonuniform List<vector> 0();
    }
    frontAndBack
    {
        type            empty;
    }
    procBoundary2to0
    {
        type            processor;
        value           nonuniform List<vector> 
31
(
(1711.612967 3.07796212 2.819625334)
(1746.225708 -0.2657270513 4.044251776)
(1738.233547 -13.00778145 -2.287005062)
(1741.450542 -10.16267444 -4.047312434)
(1737.683493 -9.77140077 -3.13903691)
(1734.729317 -2.969182834 -4.231116429)
(1736.726924 -3.470413611 -1.60959026)
(1741.727455 -2.7781453 -1.344628486)
(1731.537844 -2.438759614 -7.467220031)
(1730.109233 -3.50041533 -6.989430789)
(1728.052275 3.019102609 -2.24269072)
(1724.40407 -4.019973218 -0.5430720306)
(1726.849931 -2.688862469 4.796909369)
(1731.828259 -2.876443097 -3.051123723)
(1734.994783 -9.583089523 -4.32045819)
(1740.573194 -6.280506978 -7.668910475)
(1740.262659 1.865295912 -1.558923419)
(1735.183393 5.663657445 -1.7802787)
(1737.357331 11.60301694 -3.911047835)
(1738.028554 8.993899473 -5.470396171)
(1734.963087 8.911748561 -6.055660442)
(1736.953692 6.133847384 -4.516871901)
(1734.292649 1.177021451 3.579419892)
(1724.56383 6.886114723 -0.4850061234)
(1723.659803 16.09126964 0.6812288243)
(1726.437634 13.63777686 5.85940827)
(1737.053206 0.7492728805 -3.025128295)
(1728.588697 -1.440754379 -2.53782125)
(1727.454181 4.264804754 -1.192390196)
(1736.282346 0.3841489137 -2.371983521)
(1736.282346 0.3841489137 -2.371983521)
)
;
    }
    procBoundary2to3
    {
        type            processor;
        value           nonuniform List<vector> 
19
(
(1715.289625 11.94453906 -12.11407622)
(1725.246637 12.12680421 -1.25446025)
(1733.368928 6.351551258 4.237327648)
(1729.619601 -9.614105292 -4.246471063)
(1720.174481 -6.577857706 -1.034393705)
(1733.223246 4.582597604 -2.1659154)
(1740.196971 2.187508947 -6.465797719)
(1732.140416 -1.24097937 7.113165462)
(1738.811866 -5.691113868 -10.67117161)
(1735.557105 4.861931277 -10.3281173)
(1736.160884 1.554726493 2.706587013)
(1727.122176 16.1194444 -7.175085786)
(1728.521457 10.83340896 -6.828381995)
(1738.011638 -3.191780243 7.078038926)
(1738.793777 0.1101099039 -13.01498808)
(1739.939292 8.205616513 -4.839236371)
(1727.389776 -6.26451263 0.9119741917)
(1737.409039 -4.733093077 9.126895497)
(1734.685285 5.007597537 -3.532771916)
)
;
    }
}


// ************************************************************************* //
