/*--------------------------------*- C++ -*----------------------------------*\
| =========                 |                                                 |
| \\      /  F ield         | OpenFOAM: The Open Source CFD Toolbox           |
|  \\    /   O peration     | Version:  2406                                  |
|   \\  /    A nd           | Website:  www.openfoam.com                      |
|    \\/     M anipulation  |                                                 |
\*---------------------------------------------------------------------------*/
FoamFile
{
    version     2.0;
    format      ascii;
    arch        "LSB;label=32;scalar=64";
    class       Cloud<dsmcParcel>;
    location    "0.011/lagrangian/dsmc";
    object      coordinates;
}
// * * * * * * * * * * * * * * * * * * * * * * * * * * * * * * * * * * * * * //

9421
(
(0.4044774708 0.05865119717 0.2391100674 0.2977612646) 85 110 2
(0.8645268982 0.06773655091 0.04814932616 0.01958722475) 329 589 1
(0.1299468628 0.4350265686 0.3645308133 0.07049575532) 26 1082 2
(0.06272071726 0.03346691127 0.4686396414 0.4351727301) 178 349 1
(0.4126392744 0.2936803628 0.08834837916 0.2053319836) 266 466 1
(0.2122147982 0.227911129 0.1659814719 0.3938926009) 22 1078 1
(0.5181303729 0.08890277657 0.152032037 0.2409348135) 238 469 1
(0.2454294462 0.3772852769 0.03007768195 0.347207595) 147 291 1
(0.7891681822 0.04109972228 0.1054159089 0.0643161866) 147 291 2
(0.8177781592 0.09111092039 0.05981529734 0.03129562305) 113 221 2
(0.01769755104 0.4911512245 0.09843856174 0.3927126627) 268 470 1
(0.4672297452 0.1219977328 0.2663851274 0.1443873946) 25 51 2
(0.507530416 0.246234792 0.136206749 0.110028043) 297 583 2
(0.2629422151 0.1743603348 0.1941685576 0.3685288924) 88 174 1
(0.2923439965 0.3538280017 0.09090826951 0.2629197322) 23 46 2
(0.4116495979 0.2941752011 0.2327450595 0.06143014157) 86 171 1
(0.2608229594 0.04026351089 0.3695885203 0.3293250094) 88 172 1
(0.4764459579 0.1951190714 0.261777021 0.06665794967) 51 99 1
(0.655875232 0.1572283318 0.172062384 0.01483405223) 56 109 1
(0.3701578856 0.005127056389 0.3149210572 0.3097940008) 176 348 2
(0.4757710351 0.07827609344 0.183838389 0.2621144825) 88 116 2
(0.2228785255 0.3691889074 0.01937182987 0.3885607372) 114 167 2
(0.1041863625 0.3186699786 0.4479068187 0.1292368401) 59 117 2
(0.4848676373 0.1868140649 0.07075211647 0.2575661813) 239 412 2
(0.5030869389 0.2484565306 0.1460988056 0.102357725) 178 351 2
(0.04649414643 0.4767529268 0.03219819521 0.4445547316) 268 470 1
(0.1049028189 0.4475485905 0.0633270496 0.3842215409) 178 352 1
(0.2286707739 0.385664613 0.3592414883 0.0264231247) 26 1082 2
(0.2713806086 0.3643096957 2.103149398e-05 0.3642886642) 266 524 2
(0.1547363297 0.4226318352 0.2130731639 0.2095586712) 16 33 1
(0.5337818543 0.2331090729 0.1022529142 0.1308561587) 141 279 1
(0.1325263313 0.379260583 0.05447625132 0.4337368344) 82 104 2
(0.5855251386 0.1390551667 0.2072374307 0.06818226398) 293 575 1
(0.1803824591 0.3548433311 0.05496543935 0.4098087705) 199 392 1
(0.4764327978 0.05331734132 0.2084662598 0.2617836011) 205 404 1
(0.1691652134 0.4154173933 0.01240114814 0.4030162451) 119 176 1
(0.3022996699 0.3161689737 0.348850165 0.03268119135) 106 210 2
(0.2628954147 0.08972681697 0.2788254757 0.3685522927) 179 1046 1
(0.277755255 0.3611223725 0.3296420713 0.03148030122) 80 159 1
(0.521902997 0.06039570808 0.1786527934 0.2390485015) 79 98 2
(0.6623926279 0.1470324811 0.02177120494 0.168803686) 141 278 1
(0.1776955723 0.3311776383 0.07997457553 0.4111522138) 236 465 1
(0.1011049568 0.2296993733 0.2197481483 0.4494475216) 55 51 2
(0.6172994968 0.1913502516 0.0775848202 0.1137654314) 21 43 1
(0.6331655048 0.1189225009 0.06449474676 0.1834172476) 203 342 2
(0.1446556471 0.4276721765 0.1968464173 0.2308257592) 167 327 2
(0.2326025907 0.3836987047 0.04169376263 0.342004942) 114 225 2
(0.3200942527 0.1679131296 0.1720397441 0.3399528737) 55 51 2
(0.3023070332 0.1472694839 0.3488464834 0.2015769995) 209 412 2
(0.6359494715 0.1820252642 0.09614166075 0.08588360349) 357 701 2
(0.04039723536 0.4530737829 0.02672759947 0.4798013823) 177 291 2
(0.4291975806 0.2854012097 0.2664413154 0.01895989433) 59 115 2
(0.3782555587 0.1848691278 0.1260030929 0.3108722207) 58 57 2
(0.08234468005 0.45882766 0.4394667837 0.0193608763) 234 462 1
(0.3326381863 0.1952441388 0.138436768 0.3336809069) 143 282 1
(0.9131549154 0.007689914211 0.03573262809 0.04342254231) 179 1046 1
(0.3909090207 0.1348428899 0.1697025998 0.3045454897) 387 704 2
(0.2606691262 0.1794328453 0.1902325917 0.3696654369) 110 159 2
(0.683724594 0.08900371166 0.06913399134 0.158137703) 208 352 2
(0.2550030826 0.3724984587 0.1652570022 0.2072414565) 145 287 1
(0.04536183451 0.237276974 0.4773190827 0.2400421088) 299 587 1
(0.547208493 0.1968566594 0.2263957535 0.02953909407) 58 116 2
(0.9536514642 0.02317426789 0.02221374944 0.0009605184536) 171 335 2
(0.2055549626 0.07543383274 0.321788686 0.3972225187) 204 344 2
(0.4830006038 0.2127984949 0.04570120316 0.2584996981) 28 1084 1
(0.3596017938 0.3201991031 0.04546890249 0.2747302006) 29 56 2
(0.5282539294 0.2112833463 0.02458968902 0.2358730353) 56 111 1
(0.08927099004 0.455364505 0.2359009393 0.2194635657) 26 53 1
(0.8306844112 0.08465779439 0.01276649718 0.07189129721) 55 109 2
(0.8541749903 0.009540316271 0.06337218857 0.07291250484) 51 43 2
(0.3007247063 0.3496376469 0.2337627998 0.115874847) 148 293 1
(0.2057094976 0.09621038497 0.3971452512 0.3009348662) 116 230 2
(0.7502083578 0.1248958211 0.06511366274 0.05978215837) 207 406 2
(0.08184292311 0.1195732942 0.3395052443 0.4590785384) 179 294 2
(0.04587903511 0.4770604824 0.3851263292 0.0919341532) 27 1083 2
(0.3381610384 0.1971466855 0.1337727954 0.3309194808) 89 117 2
(0.3192474301 0.3403762849 0.3001662051 0.04021007988) 81 161 1
(0.4192740482 0.1845513274 0.2903629759 0.1058116485) 86 168 1
(0.08704268203 0.1749963146 0.456478659 0.2814823444) 82 163 2
(0.05803394204 0.470983029 0.3126564013 0.1583266277) 89 117 1
(0.6581024419 0.170948779 0.004050194878 0.1668985842) 82 160 2
(0.2724571243 0.2147128188 0.3637714378 0.149058619) 57 111 1
(0.2904539965 0.1216807798 0.233092222 0.3547730018) 50 41 2
(0.3240378274 0.1001193246 0.2378617617 0.3379810863) 76 92 2
(0.6987991133 0.1506004433 0.1395937884 0.01100665496) 237 468 1
(0.1448199002 0.4275900499 0.2515056496 0.1760844003) 298 588 1
(0.05396522283 0.4730173886 0.3187192734 0.1542981152) 83 164 2
(0.2770713458 0.3614643271 0.2584270602 0.1030372669) 145 284 2
(0.0573813046 0.4713093477 0.1423006629 0.3290086848) 205 346 1
(0.6112174384 0.1287893992 0.06560188159 0.1943912808) 143 224 2
(0.08702057689 0.07892168997 0.4564897116 0.3775680216) 326 643 2
(0.09412339637 0.03356472767 0.4193735741 0.4529383018) 88 116 2
(0.02178366642 0.4891081668 0.1354926938 0.353615473) 207 409 1
(0.4120810193 0.2939594904 0.1912915466 0.1026679438) 238 411 1
(0.3777979511 0.09498018116 0.2161208433 0.3111010244) 118 233 1
(0.4985165139 0.250741743 0.1095120626 0.1412296805) 234 459 2
(0.1318973449 0.3868774945 0.04717383303 0.4340513276) 296 583 1
(0.634188943 0.1829055285 0.08856126433 0.09434426419) 86 170 2
(0.1226500109 0.0686867318 0.4386749946 0.3699882628) 25 51 2
(0.5782627924 0.1834883405 0.02738026336 0.2108686038) 109 215 1
(0.3860228526 0.2478250437 0.05916352999 0.3069885737) 58 115 1
(0.3372618647 0.3313690677 0.08992076956 0.2414482981) 52 103 2
(0.643443439 0.00870656325 0.1782782805 0.1695717172) 113 221 1
(0.1834647205 0.1757580376 0.4082676397 0.2325096021) 140 277 2
(0.03467298496 0.4708808447 0.01178266283 0.4826635075) 145 228 2
(0.4869790584 0.171162236 0.2565104708 0.08534823483) 50 100 2
(0.1612637457 0.4062629576 0.01310516957 0.4193681271) 47 35 2
(0.4526491802 0.1441778271 0.1294975828 0.2736754099) 80 100 2
(0.4681458097 0.2659270952 0.05236870605 0.2135583891) 145 228 1
(0.1286701422 0.3282908369 0.1073740919 0.4356649289) 82 104 2
(0.3100185887 0.1910584649 0.1539322408 0.3449907057) 89 1043 1
(0.3960043158 0.3019978421 0.2642001751 0.03779766701) 142 278 2
(0.5098126936 0.2450936532 0.2338098103 0.01128384293) 116 227 2
(0.9094204522 0.01335323585 0.04528977391 0.03193653806) 85 166 1
(0.07134198777 0.1236286528 0.3407003534 0.4643290061) 58 57 2
(0.4207830709 0.2896084646 0.186193296 0.1034151685) 262 514 2
(0.3576441503 0.04395923195 0.2772186929 0.3211779248) 177 349 1
(0.6258867143 0.09712559001 0.1870566429 0.08993105284) 53 103 1
(0.1019709514 0.02132042348 0.4276941008 0.4490145243) 76 92 2
(0.21508369 0.3209958563 0.0714622987 0.392458155) 108 155 2
(0.1136767723 0.4431616139 0.30850294 0.1346586739) 85 169 1
(0.5158593408 0.2420703296 0.005919591606 0.236150738) 22 45 1
(0.3889255423 0.1961343747 0.3055372289 0.1094028542) 256 505 2
(0.2993172669 0.2099616485 0.140379718 0.3503413665) 148 292 1
(0.09134946742 0.008535303775 0.4543252663 0.4457899625) 115 225 1
(0.09827974516 0.4508601274 0.1704448685 0.2804152589) 26 1082 2
(0.3005094099 0.2909045905 0.349745295 0.05884070448) 175 346 2
(0.2398597936 0.1337286351 0.2463414681 0.3800701032) 143 282 1
(0.5136788404 0.1799693061 0.2431605798 0.06319127366) 282 553 1
(0.008856773968 0.1895902436 0.3059813694 0.495571613) 88 116 2
(0.8032786764 0.03951989166 0.09836066178 0.05884077011) 229 452 2
(0.2733679348 0.1921986766 0.1711173561 0.3633160326) 52 103 1
(0.05307526833 0.08547682769 0.3879855381 0.4734623658) 88 116 2
(0.3195006061 0.3402496969 0.2757540689 0.06449562805) 208 352 1
(0.2534380333 0.3732809833 0.1409727258 0.2323082575) 294 579 2
(0.6225948227 0.02933496133 0.1887025887 0.1593676273) 25 48 1
(0.2030180618 0.1287820754 0.2697088937 0.3984909691) 117 231 1
(0.8063715853 0.09681420737 0.06184756543 0.03496664194) 52 45 1
(0.4495702652 0.2090084499 0.2752148674 0.06620641752) 53 106 2
(0.8264731972 0.02169808959 0.08676340139 0.0650653118) 268 526 1
(0.2919767819 0.1220745406 0.3540116091 0.2319370685) 118 231 1
(0.3045662191 0.1032058245 0.3477168904 0.2445110659) 52 101 1
(0.1620574179 0.3522127009 0.06675859017 0.418971291) 268 470 2
(0.07101879748 0.1336453287 0.3308452725 0.4644906013) 112 221 1
(0.4236298011 0.2881850994 0.1948331548 0.0933519446) 267 526 2
(0.1322061731 0.2384301188 0.1954667947 0.4338969135) 23 1079 1
(0.1460625719 0.1364769758 0.426968714 0.2904917382) 56 109 1
(0.1888231776 0.4055884112 0.3908532929 0.01473511831) 177 349 2
(0.8036948435 0.09815257824 0.01777716693 0.08037541132) 350 631 1
(0.2431089584 0.3784455208 0.0431044469 0.3353410739) 24 46 2
(0.2904425263 0.3547787369 0.2693343448 0.08544439209) 148 290 2
(0.4490170348 0.2754914826 0.02513974285 0.2503517397) 176 345 2
(0.1390491239 0.2750335424 0.430475438 0.1554418956) 359 707 2
(0.5875569623 0.2062215188 0.08109380469 0.1251277141) 57 113 2
(0.6630335698 0.1684832151 0.010834759 0.1576484561) 110 217 2
(0.09366326152 0.4531683692 0.1028528411 0.3503155282) 52 103 2
(0.2401996815 0.3799001592 0.05574321791 0.3241569413) 87 173 1
(0.09477421702 0.4526128915 0.07195791603 0.3806549755) 498 2205 1
(0.4090981225 0.2816777372 0.2954509388 0.01377320161) 117 229 1
(0.4893733338 0.09776253702 0.2553133331 0.1575507961) 24 46 1
(0.5349542691 0.2325228655 0.2029166008 0.02960626464) 239 471 1
(0.1709365671 0.4145317164 0.2658311343 0.1487005821) 350 631 1
(0.2703216478 0.1717700556 0.3648391761 0.1930691205) 144 285 2
(0.09445329078 0.2888348787 0.4527733546 0.1639384759) 57 111 1
(0.2248350356 0.291079575 0.09650290715 0.3875824822) 201 338 2
(0.4064828498 0.04177959249 0.2549789826 0.2967585751) 24 48 1
(0.02682380564 0.4865880972 0.07565218544 0.4109359117) 25 51 1
(0.6707756222 0.1253352991 0.03927688978 0.1646121889) 175 287 2
(0.1805991806 0.0515548199 0.4097004097 0.3581455898) 117 229 1
(0.05955006083 0.2115868022 0.4702249696 0.2586381674) 83 162 1
(0.1424831305 0.4228417263 0.005916708451 0.4287584347) 56 53 2
(0.6035737914 0.1982131043 0.08887127744 0.1093418269) 55 110 1
(0.009486386969 0.4952568065 0.1551280373 0.3401287692) 55 109 2
(0.02026128056 0.01193546237 0.4779338973 0.4898693597) 84 108 2
(0.3989823817 0.3005088092 0.1597136758 0.1407951334) 148 234 1
(0.1660936776 0.4169531612 0.04572134864 0.3712318126) 83 164 2
(0.3879158949 0.238557888 0.3060420525 0.06748416457) 118 231 1
(0.8187549565 0.03655818214 0.05406433959 0.09062252174) 146 230 2
(0.3541050262 0.1870977074 0.1358497795 0.3229474869) 142 222 2
(0.5813082746 0.0652746703 0.2093458627 0.1440711924) 82 163 2
(0.8424863584 0.0349029424 0.0787568208 0.0438538784) 21 40 1
(0.1378761389 0.07314507513 0.4310619306 0.3579168554) 206 407 2
(0.03783431494 0.07705524015 0.4810828425 0.4040276024) 88 175 2
(0.4229244625 0.2885377688 0.2789162807 0.009621488043) 117 173 1
(0.2750660048 0.2280780106 0.3624669976 0.134388987) 29 56 1
(0.08176289776 0.1731766537 0.4591185511 0.2859418974) 88 172 1
(0.5566405983 0.03472999022 0.1869497106 0.2216797008) 57 55 2
(0.5551827162 0.2224086419 0.09037775541 0.1320308865) 204 402 2
(0.121862897 0.4390685515 0.153698228 0.2853703235) 85 168 2
(0.1693961261 0.4153019369 0.1014964176 0.3138055193) 50 41 1
(0.1562830121 0.421858494 0.07901842451 0.3428400694) 238 467 2
(0.8390593763 0.004271880318 0.08047031185 0.07619843153) 117 232 2
(0.2926694105 0.002570253896 0.3510950409 0.3536652948) 55 51 2
(0.2446008435 0.04966595703 0.3280336212 0.3776995782) 27 1083 1
(0.8335368394 0.008689415274 0.07454216501 0.08323158029) 145 286 1
(0.09114072761 0.4544296362 0.2847192876 0.1697103486) 18 37 1
(0.4015405636 0.2992297182 0.006510950603 0.2927187676) 145 284 2
(0.4594598254 0.2702700873 0.1000369676 0.1702331198) 329 646 2
(0.3474522022 0.3262738989 0.07753919454 0.2487347044) 80 158 2
(0.9194924533 0.04025377334 0.008979155469 0.03127461787) 85 169 1
(0.7321591187 0.05582519937 0.1339204407 0.07809524128) 299 587 1
(0.436208204 0.0367120108 0.2451838872 0.281895898) 114 225 1
(0.4215763767 0.02736856384 0.2892118116 0.2618432478) 83 165 2
(0.8894341874 0.005099947002 0.05528290632 0.05018295932) 28 54 1
(0.1776946507 0.4111526746 0.006217260716 0.4049354139) 57 113 2
(0.3043355735 0.3478322132 0.1824192471 0.1654129662) 85 169 1
(0.1462551052 0.4268724474 0.1321126382 0.2947598092) 51 99 2
(0.744458067 0.09442560472 0.03334536177 0.1277709665) 326 584 2
(0.3157830757 0.2666083442 0.07550011797 0.3421084621) 356 701 1
(0.1987156133 0.1468722171 0.4006421934 0.2537699763) 177 347 1
(0.5662164394 0.01437273767 0.2025190426 0.2168917803) 69 78 2
(0.2314279267 0.3842860367 0.0003646814048 0.3839213553) 56 111 2
(0.7914081415 0.003738917126 0.1042959293 0.1005570121) 113 221 1
(0.4439392165 0.2780303917 0.183681483 0.09434890874) 25 48 2
(0.03493742222 0.4825312889 0.2769650841 0.2055662048) 141 220 1
(0.2591760088 0.1401261415 0.2302858541 0.3704119956) 113 165 2
(0.353606333 0.2719413899 0.3231968335 0.0512554436) 86 168 1
(0.004023968753 0.2005817001 0.2974063156 0.4979880156) 73 144 1
(0.4086885595 0.1803780584 0.1152776619 0.2956557203) 88 174 1
(0.1831486463 0.4084256769 0.2709398466 0.1374858302) 112 219 2
(0.6282229169 0.1289132492 0.0569752924 0.1858885416) 359 648 2
(0.1206820705 0.4370026963 0.4396589648 0.002656268461) 88 175 2
(0.4694362149 0.10625425 0.2652818926 0.1590276425) 23 47 2
(0.285776551 0.3571117245 0.1677432796 0.1893684449) 231 453 2
(0.6520638449 0.1739680775 0.03101751998 0.1429505575) 118 175 1
(0.8041363861 0.025497414 0.09793180693 0.07243439292) 176 348 2
(0.2832285454 0.3583857273 0.1993013691 0.1590843582) 177 350 1
(0.5774831396 0.2112584302 0.02423890989 0.1870195203) 52 101 2
(0.0676961026 0.4661519487 0.4584942148 0.007657733884) 20 38 2
(0.3244609563 0.3377695218 0.06101939138 0.2767501305) 264 520 2
(0.08516439383 0.251822811 0.4574178031 0.2055949921) 353 696 2
(0.2642868882 0.1729996171 0.3678565559 0.1948569388) 167 327 1
(0.564668816 0.217665592 0.1545558886 0.06310970337) 141 220 1
(0.4545259859 0.2727370071 0.01701347345 0.2557235336) 26 52 2
(0.4815158628 0.2592420686 0.2523180759 0.006923992707) 207 409 1
(0.3629842235 0.2258843256 0.3185078883 0.09262356263) 237 468 2
(0.2518074895 0.3740962552 0.1451739711 0.2289222842) 141 220 1
(0.1001423272 0.3336440132 0.1162848231 0.4499288364) 204 344 2
(0.4441753488 0.2779123256 0.1101007766 0.167811549) 47 35 1
(0.294212163 0.05956042946 0.3528939185 0.293333489) 51 102 2
(0.6423020144 0.1266825707 0.05216642208 0.1788489928) 359 648 2
(0.2493665102 0.3753167449 0.2217286834 0.1535880614) 87 114 1
(0.549763222 0.1011268171 0.1239915719 0.225118389) 324 580 2
(0.4891257626 0.2453344396 0.01010267907 0.2554371187) 12 24 1
(0.2473996816 0.1861370921 0.1901630671 0.3763001592) 149 235 2
(0.7937854559 0.1031072721 0.042734336 0.06037293606) 234 461 2
(0.03255403714 0.4837229814 0.3509491688 0.1327738127) 57 114 1
(0.160666441 0.04636922696 0.3732975526 0.4196667795) 117 173 2
(0.5450402226 0.2274798887 0.1642133071 0.06326658161) 207 408 2
(0.2721409242 0.0419359473 0.3639295379 0.3219935906) 78 152 1
(0.2035862233 0.3982068883 0.3546141892 0.04359269911) 173 341 2
(0.3725606884 0.3116750056 0.002044650205 0.3137196558) 205 346 2
(0.6265456839 0.1867271581 0.1718655411 0.01486161694) 28 54 2
(0.3369976411 0.3315011795 0.05545113809 0.2760500414) 84 108 1
(0.6446722884 0.1776638558 0.03924723036 0.1384166254) 48 93 2
(0.2613168078 0.3693415961 0.1947816653 0.1745599308) 112 222 1
(0.1201694035 0.4399152983 0.1511420809 0.2887732174) 57 113 2
(0.1788377653 0.157927653 0.2526534644 0.4105811173) 85 168 1
(0.3162029508 0.3418985246 0.159294411 0.1826041136) 52 101 2
(0.6180288194 0.1909855903 0.1886790005 0.002306589837) 29 56 2
(0.4132471947 0.08480934809 0.2933764027 0.2085670546) 26 50 1
(0.3718019028 0.2746679754 0.3140990486 0.03943107317) 59 117 2
(0.01021470447 0.4948926478 0.2076708997 0.287221748) 57 114 1
(0.862193865 0.06890306749 0.01532365794 0.05357940955) 116 227 2
(0.8017291978 0.0591301957 0.04000520541 0.09913540111) 169 275 2
(0.325932755 0.3370336225 0.1493343222 0.1876993002) 140 276 2
(0.5282101506 0.2358949247 0.1538396299 0.08205529476) 56 109 2
(0.3916338212 0.3041830894 0.2364779336 0.06770515579) 27 54 2
(0.7051617615 0.01937240659 0.1474191193 0.1280467127) 57 111 1
(0.1846546344 0.4076726828 0.3987936607 0.008879022138) 173 341 2
(0.09930279368 0.1674025515 0.2829460517 0.4503486032) 419 1054 1
(0.2651113669 0.3674443166 0.2069679869 0.1604763297) 296 525 1
(0.5529238765 0.09353972757 0.2235380617 0.1299983342) 86 168 1
(0.6942450864 0.1528774568 0.09944479191 0.05343266489) 48 93 2
(0.3283006171 0.3121330673 0.02371662417 0.3358496915) 174 285 2
(0.0610526593 0.4694736703 0.3523928468 0.1170808235) 14 1070 2
(0.02604496613 0.2737830611 0.2131944559 0.4869775169) 21 1077 1
(0.541981485 0.2290092575 0.08480813118 0.1442011263) 199 334 1
(0.6655736402 0.1672131799 0.06016763498 0.1070455449) 444 872 2
(0.9745491943 0.003672795198 0.009052607675 0.01272540287) 234 403 2
(0.0688504245 0.4655747877 0.2798798438 0.185694944) 137 212 1
(0.3064994903 0.3467502548 0.09009999659 0.2566502583) 173 341 2
(0.6868987 0.15655065 0.1027624405 0.05378820946) 24 49 1
(0.5689931045 0.2155034478 0.2095931712 0.005910276599) 118 231 2
(0.1695950127 0.4152024936 0.3242441928 0.09095830083) 118 233 2
(0.3439579828 0.3280210086 0.0993834675 0.2286375411) 43 83 2
(0.2738979995 0.2905900497 0.07246095056 0.3630510003) 50 41 2
(0.1937114171 0.09216330793 0.3109809835 0.4031442914) 112 163 2
(0.4690577863 0.1645382055 0.1009329014 0.2654711068) 54 107 1
(0.04865313652 0.1686940802 0.4756734317 0.3069793515) 20 41 2
(0.1189879084 0.4344538469 0.006052198899 0.4405060458) 141 278 1
(0.4190216144 0.2544338903 0.03605530251 0.2904891928) 106 151 2
(0.4609620852 0.2695189574 0.235355188 0.03416376936) 112 163 1
(0.1570892647 0.2544605621 0.4214553676 0.1669948056) 29 58 2
(0.8144550709 0.09277246455 0.03936611765 0.0534063469) 207 350 1
(0.0805353519 0.4597323241 0.3367310063 0.1230013177) 29 56 2
(0.1116730423 0.1756482667 0.4441634788 0.2685152121) 22 45 2
(0.270047901 0.3649760495 0.2581011999 0.1068748496) 114 167 1
(0.3707830653 0.3146084673 0.03168742439 0.282921043) 149 1045 2
(0.1444733246 0.4277633377 0.3889589246 0.03880441308) 200 392 2
(0.5454650538 0.2272674731 0.1949689931 0.03229848) 83 165 1
(0.1180201784 0.3566054502 0.4409899108 0.08438446058) 11 23 2
(0.517250002 0.241374999 0.2022505116 0.0391244874) 141 278 2
(0.04763964644 0.200518406 0.4761801768 0.2756617708) 113 224 2
(0.4736944003 0.1443489631 0.2631527998 0.1188038367) 86 171 2
(0.06967510647 0.4651624468 0.1932049623 0.2719574845) 80 100 1
(0.3042108297 0.1397953939 0.3478945851 0.2080991913) 141 279 2
(0.1220988666 0.0378309261 0.4389505667 0.4011196406) 169 331 1
(0.2272274764 0.3863862618 0.340615566 0.04577069585) 146 230 1
(0.048868402 0.2242253222 0.475565799 0.2513404768) 178 349 1
(0.2955554817 0.1365059369 0.3522222592 0.2157163223) 202 399 2
(0.4291284993 0.0947133591 0.1907223913 0.2854357504) 267 526 1
(0.2795253974 0.2073545804 0.1528827209 0.3602373013) 117 231 1
(0.2104219723 0.3947890139 0.2024544098 0.192334604) 21 42 2
(0.4786810664 0.0199378463 0.2407216205 0.2606594668) 267 526 1
(0.02042699003 0.1738586941 0.489786505 0.3159278109) 359 705 1
(0.3753580966 0.01157202237 0.3007489293 0.3123209517) 325 582 2
(0.8762336504 0.06188317482 0.01213958141 0.04974359341) 88 116 1
(0.04675067026 0.005006532277 0.4716181326 0.4766246649) 59 58 2
(0.03413360601 0.482933197 0.2126844264 0.2702487706) 56 109 2
(0.5518184442 0.2240907779 0.02711731492 0.196973463) 58 57 1
(0.1863408533 0.4068295734 0.1723056338 0.2345239395) 202 399 1
(0.5875893593 0.02071315918 0.1854921612 0.2062053203) 58 57 2
(0.05728246498 0.07753349737 0.4713587675 0.3938252701) 87 173 2
(0.1287623657 0.4302853285 0.4356188172 0.005333488715) 57 114 2
(0.5937835209 0.2031082395 0.1086472984 0.0944609411) 297 583 2
(0.3453247896 0.3273376052 0.1422963239 0.1850412813) 115 169 1
(0.3496129938 0.3251935031 0.2184417824 0.1067517207) 168 331 2
(0.5943815408 0.1616602688 0.0411489608 0.2028092296) 116 229 1
(0.5773955781 0.05563233327 0.1556698777 0.2113022109) 109 215 1
(0.481130618 0.1397243145 0.1197103765 0.259434691) 51 43 2
(0.284823344 0.1182043209 0.2393840071 0.357588328) 86 170 1
(0.01341188538 0.4932940573 0.4905895179 0.002704539452) 17 1073 2
(0.6692693217 0.01658823892 0.1653653391 0.1487771002) 171 335 1
(0.6498556191 0.1561705712 0.01890161919 0.1750721904) 84 108 2
(0.4883946604 0.2558026698 0.1644819417 0.09132072814) 47 93 2
(0.292978779 0.3535106105 0.1066764648 0.2468341456) 112 222 1
(0.4279979318 0.1106387282 0.1753623058 0.2860010341) 266 466 2
(0.1375867036 0.4312066482 0.4083301893 0.02287645893) 83 106 1
(0.7818901839 0.1081738082 0.0008810999015 0.1090549081) 117 173 2
(0.5880966501 0.1019274501 0.205951675 0.1040242249) 171 335 1
(0.3698135187 0.3150932406 0.2788150354 0.03627820518) 445 818 1
(0.1608813687 0.392537045 0.4195593156 0.02702227068) 266 525 2
(0.5279346741 0.236032663 0.09333910369 0.1426935593) 209 1047 2
(0.09462747576 0.1958939572 0.2567923049 0.4526862621) 141 278 1
(0.4278142885 0.2860928557 0.2475607305 0.03853212522) 56 112 1
(0.4592845209 0.2703577396 0.1027145354 0.1676432041) 173 342 1
(0.09489218183 0.1613492886 0.4525539091 0.2912046205) 88 175 2
(0.6788332877 0.1185601665 0.04202318964 0.1605833561) 85 168 1
(0.3558981123 0.09788918577 0.3220509439 0.2241617581) 168 329 1
(0.1561316948 0.4219341526 0.2650440522 0.1568901005) 83 106 1
(0.5428278867 0.2285860566 0.05880133278 0.1697847239) 51 43 1
(0.7192388728 0.1403805636 0.1203794334 0.0200011302) 197 386 2
(0.05329859322 0.4733507034 0.2881917447 0.1851589587) 114 167 1
(0.9112309188 0.01994636494 0.04438454058 0.02443817565) 56 112 2
(0.3971534568 0.3014232716 0.09039530348 0.2110279681) 20 1076 2
(0.2840572573 0.1653036517 0.3579713714 0.1926677197) 111 217 1
(0.02574272078 0.3205140875 0.1666145521 0.4871286396) 167 329 1
(0.6922145674 0.1538927163 0.143714336 0.01017838032) 88 116 1
(0.7766465351 0.04079548501 0.07088124743 0.1116767324) 117 231 1
(0.2279983985 0.3222728476 0.3860008007 0.06372795308) 261 515 2
(0.477426973 0.2612865135 0.2042698527 0.05701666075) 235 461 2
(0.2146068846 0.3612148592 0.3926965577 0.03148169854) 117 229 1
(0.06035430379 0.4698228481 0.1151686305 0.3546542176) 51 102 1
(0.1305096205 0.4347451898 0.0460602557 0.3886849341) 149 235 1
(0.6845895913 0.1577052044 0.09830857571 0.05939662865) 111 219 2
(0.6719387853 0.1640306074 0.08079921238 0.08323139498) 179 353 1
(0.357735149 0.2307901781 0.3211324255 0.09034224743) 169 334 2
(0.4380233998 0.2809883001 0.06266638108 0.218321919) 77 153 1
(0.3844836363 0.004158356337 0.3077581818 0.3035998255) 264 521 2
(0.6162016262 0.09354008576 0.1918991869 0.09835910112) 176 345 1
(0.5619488514 0.06062540848 0.1584001658 0.2190255743) 328 646 1
(0.05514363434 0.2016706174 0.2707575654 0.4724281828) 52 103 1
(0.7942229083 0.07033898195 0.03254956388 0.1028885458) 171 337 1
(0.3965549203 0.3017225398 0.08647914951 0.2152433903) 197 330 1
(0.1897186594 0.2459941175 0.4051406703 0.1591465528) 55 110 2
(0.3601604308 0.2185779523 0.1013418323 0.3199197846) 83 164 1
(0.1495274544 0.4252362728 0.05693204114 0.3683042317) 76 92 1
(0.3322195976 0.3338902012 0.1459716816 0.1879185196) 10 21 1
(0.1919816448 0.4040091776 0.08013546981 0.3238737078) 84 164 2
(0.009142415194 0.4954287924 0.02999704027 0.4654317521) 89 174 2
(0.3357349252 0.3321325374 0.1740233073 0.1581092301) 52 104 1
(0.8824908104 0.05875459481 0.01855489102 0.04019970378) 20 40 2
(9.04865504e-06 0.2224258833 0.2775695924 0.4999954757) 144 284 1
(0.2652072262 0.3673963869 0.3353123622 0.03208402468) 236 465 2
(0.0328331973 0.4835834014 0.4372780488 0.04630535254) 269 528 2
(0.2306185712 0.3846907144 0.3633871895 0.02130352492) 134 262 2
(0.06724530486 0.1436152059 0.3227621417 0.4663773476) 18 36 1
(0.2662288609 0.3668855695 0.1016369439 0.2652486256) 58 115 2
(0.05892416462 0.270456855 0.4705379177 0.2000810627) 84 164 1
(0.8691105916 0.0654447042 0.02096394945 0.04448075475) 26 52 2
(0.02386452203 0.3975924934 0.0904752456 0.488067739) 165 267 2
(0.5807108201 0.1414527642 0.06819182579 0.20964459) 136 268 1
(0.1254270556 0.4372864722 0.4337486327 0.00353783954) 111 161 1
(0.4647817282 0.2676091359 0.09300623005 0.1746029058) 263 516 2
(0.4416888522 0.2791555739 0.1130039273 0.1661516466) 78 96 1
(0.5503298864 0.2248350568 0.2089786224 0.01585643438) 23 47 1
(0.06379392074 0.4681030396 0.3041108647 0.163992175) 13 24 2
(0.5456188167 0.2271905916 0.04522724926 0.1819633424) 265 523 1
(0.1559477309 0.1851511187 0.4220261346 0.2368750159) 85 169 2
(0.6503431989 0.1748284005 0.07232909633 0.1024993042) 22 1078 2
(0.2235627348 0.3141977148 0.3882186326 0.07402091776) 83 162 1
(0.3133245838 0.3433377081 0.07250632749 0.2708313806) 148 290 2
(0.4798408162 0.1343787806 0.2600795919 0.1257008113) 84 167 2
(0.468841291 0.2655793545 0.2240593687 0.0415199858) 79 154 2
(0.02574558406 0.03816192342 0.487127208 0.4489652846) 177 350 2
(0.7878330534 0.01470097451 0.1060834733 0.0913824988) 25 48 1
(0.06620436625 0.1850534216 0.2818443953 0.4668978169) 18 1074 1
(0.8097028917 0.09514855417 0.08292747163 0.01222108253) 237 468 1
(0.2340680989 0.3829659505 0.3695117636 0.01345418694) 156 249 1
(0.8142407565 0.07907789748 0.01380172427 0.09287962176) 115 169 2
(0.3156115576 0.1726684829 0.1695257383 0.3421942212) 114 225 1
(0.67980129 0.02267427894 0.1374250761 0.160099355) 357 645 2
(0.4632365654 0.01704891671 0.2513328006 0.2683817173) 116 171 2
(0.2589439241 0.370528038 0.07097339275 0.2995546452) 229 449 2
(0.9280976199 0.002824403082 0.03312678695 0.03595119003) 267 468 2
(0.3673103301 0.1261412218 0.1902036131 0.316344835) 233 401 2
(0.2884941427 0.06595311091 0.3557529286 0.2897998177) 286 561 1
(0.2483465997 0.3511693223 0.02465737787 0.3758267001) 86 170 1
(0.0527863868 0.1423858319 0.4736068066 0.3312209747) 114 223 1
(0.1214184084 0.4392907958 0.2961130402 0.1431777556) 44 87 2
(0.2929574664 0.283345173 0.3535212668 0.07017609375) 51 102 2
(0.4144266676 0.2927866662 0.2333107671 0.05947589914) 109 216 1
(0.03357714688 0.4832114266 0.4376557709 0.04555565562) 147 232 1
(0.01954461289 0.4902276936 0.04570894302 0.4445187505) 234 403 1
(0.6663057954 0.1657718373 0.001075265036 0.1668471023) 81 160 1
(0.06893328307 0.3109629337 0.4655333585 0.1545704247) 139 272 1
(0.2675301326 0.3662349337 0.1250502733 0.2411846604) 28 56 2
(0.665176975 0.1437161972 0.1674115125 0.02369531529) 385 756 1
(0.4083774202 0.09090155815 0.2049097318 0.2958112899) 442 870 1
(0.7120977365 0.01902264795 0.1249284838 0.1439511318) 172 339 1
(0.4172884226 0.08768165545 0.2913557887 0.2036741333) 234 459 1
(0.4853434453 0.145743054 0.2573282774 0.1115852234) 287 563 1
(0.1362560371 0.231851204 0.2000207774 0.4318719814) 49 39 2
(0.5999369266 0.1560297531 0.2000315367 0.04400178364) 57 111 1
(0.4912282355 0.2543858822 0.1937813385 0.06060454369) 47 35 1
(0.4525472889 0.112763281 0.2737263555 0.1609630746) 264 518 1
(0.3635162324 0.3182418838 0.1596467425 0.1585951413) 314 618 2
(0.07978922196 0.460105389 0.2851063583 0.1749990307) 265 523 1
(0.09418853377 0.3078965609 0.1450091722 0.4529057331) 326 584 2
(0.7024991781 0.148750411 0.06816366635 0.0805867446) 147 290 2
(0.3138824532 0.3430587734 0.2385807695 0.1044780039) 357 645 1
(0.4879669671 0.2560165165 0.1322793462 0.1237371703) 80 156 2
(0.5045720136 0.1095807672 0.1381332261 0.2477139932) 79 98 2
(0.0261287896 0.4869356052 0.2117669771 0.2751686281) 81 102 1
(0.2148053282 0.3925973359 0.1415194625 0.2510778734) 289 511 1
(0.9077895109 0.01891820908 0.02718703548 0.04610524456) 56 111 1
(0.3619143573 0.3190428213 0.01304031611 0.3060025052) 115 169 1
(0.3898359393 0.1979061721 0.1071758583 0.3050820304) 203 400 1
(0.1143502705 0.2272713716 0.4428248647 0.2155534931) 17 35 2
(0.2450231469 0.334942161 0.04254626552 0.3774884265) 44 29 2
(0.5286633843 0.1862395706 0.2356683078 0.04942873726) 109 213 1
(0.3729219544 0.3135390228 0.2886767507 0.02486227208) 389 707 1
(0.4777010846 0.2611494577 0.1851858079 0.07596364979) 169 334 1