/*--------------------------------*- C++ -*----------------------------------*\
| =========                 |                                                 |
| \\      /  F ield         | OpenFOAM: The Open Source CFD Toolbox           |
|  \\    /   O peration     | Version:  2406                                  |
|   \\  /    A nd           | Website:  www.openfoam.com                      |
|    \\/     M anipulation  |                                                 |
\*---------------------------------------------------------------------------*/
FoamFile
{
    version     2.0;
    format      ascii;
    arch        "LSB;label=32;scalar=64";
    class       scalarField;
    location    "0.011/lagrangian/dsmc";
    object      Ei;
}
// * * * * * * * * * * * * * * * * * * * * * * * * * * * * * * * * * * * * * //


9421
(
1.224844217e-21
3.243521958e-20
3.585233705e-21
1.675551154e-20
1.268024496e-20
3.045591527e-21
6.905527525e-22
2.381942662e-20
1.235112735e-21
4.155776825e-20
4.539740226e-21
1.013346018e-20
9.556289596e-21
1.335526128e-21
1.47099277e-20
1.125259918e-20
5.450255049e-21
1.169811913e-20
1.102541624e-20
1.628587987e-21
4.862810688e-21
4.854718065e-21
4.085705165e-21
2.164350206e-20
1.332555503e-21
1.633280109e-20
1.292262521e-20
1.698356072e-20
1.57051568e-20
2.235231575e-20
1.377106416e-21
3.140373148e-20
3.151762063e-21
2.896389522e-21
1.807637944e-20
9.165325935e-21
7.943784992e-21
2.014776986e-22
5.317633727e-21
2.972307435e-22
1.113239458e-20
6.734891418e-22
1.954103245e-20
1.52134388e-20
2.681895804e-20
7.236830376e-21
2.117414871e-21
1.247167173e-20
1.639884349e-21
5.473456262e-22
5.757537094e-21
1.241067337e-21
2.399882904e-21
3.283273607e-20
4.376905717e-21
1.742265615e-20
4.552213399e-20
3.447145533e-20
1.975901456e-20
8.477403257e-21
2.239870709e-21
4.452424073e-21
9.722331271e-21
2.95986129e-21
1.126889284e-20
1.627817848e-21
1.791308728e-20
1.20064937e-20
1.559002047e-20
1.411752821e-20
4.315691013e-21
1.078205809e-20
1.443022187e-20
1.639294997e-23
1.330282212e-21
3.752947496e-21
1.310762821e-20
1.215249468e-20
1.65568575e-21
6.253246036e-21
1.886960387e-20
4.529659977e-21
6.158123834e-21
1.895181713e-21
3.754083245e-20
2.475077692e-20
2.139153202e-21
2.030941532e-21
1.717999982e-20
7.193312899e-21
1.091023333e-20
1.896867283e-20
1.18443562e-20
8.986917215e-21
6.645981825e-21
9.681138509e-21
1.616673424e-21
1.119504461e-20
1.113437865e-20
1.918199974e-21
1.277212832e-20
5.358826295e-21
8.67881136e-21
2.675358418e-22
4.433376863e-22
1.742240331e-20
3.164606339e-20
1.283660691e-20
4.83575833e-21
1.558677364e-20
1.867944809e-20
2.431113495e-20
1.536546955e-20
9.057805154e-21
2.527164058e-20
4.334142237e-21
4.998469784e-21
8.084708252e-21
4.99710117e-21
3.120824613e-21
3.701982946e-21
1.09506463e-21
1.87027091e-20
1.741112893e-21
1.571496076e-20
7.96996339e-21
2.682651988e-21
1.793938816e-21
2.021020833e-20
5.187699813e-21
2.268670896e-21
5.342867106e-22
1.646961166e-20
2.744458609e-22
6.36128442e-21
5.984087007e-21
7.66834016e-22
4.694352868e-20
2.180714776e-20
4.983343952e-21
3.158526849e-21
5.599887068e-20
2.975655726e-21
4.348890368e-20
3.554481495e-21
6.992858001e-21
1.652335131e-20
4.488747709e-21
7.069165655e-21
8.109109769e-21
2.324528744e-21
1.269064422e-20
2.201433983e-21
3.806883952e-21
5.148107747e-21
2.883738929e-21
1.061010153e-20
3.70632414e-21
5.81149632e-22
3.878707942e-20
1.751837272e-20
8.668889623e-21
1.905079303e-20
1.42149675e-21
1.578563719e-20
2.043721124e-21
3.031618048e-21
9.961292697e-21
5.182606745e-22
1.131087672e-20
2.672492976e-20
8.730422968e-21
1.211879703e-20
7.340954987e-21
1.750071025e-20
6.008458333e-21
1.195824221e-21
9.898925229e-21
1.484059337e-20
1.726557986e-20
8.124092845e-21
5.005216328e-21
1.047680322e-21
1.915489627e-20
9.531097863e-21
7.576905763e-21
4.731442264e-21
7.348613099e-22
1.210633345e-20
6.091500027e-21
3.914376658e-21
5.488832189e-21
1.126618879e-21
1.011006494e-21
7.760241964e-21
5.807511254e-21
3.473709781e-21
1.948619285e-20
2.836189141e-21
2.627474894e-21
1.404936772e-21
9.67360607e-22
1.683747834e-20
2.800997153e-21
3.565464267e-21
4.126710121e-23
3.108318858e-21
1.012218756e-20
4.959402706e-20
1.808651035e-21
4.255220945e-21
3.054883817e-21
4.620298064e-21
3.900258903e-21
3.791073403e-22
1.023486749e-20
3.131713603e-21
1.293340432e-21
2.424947078e-21
9.688897854e-21
1.04555876e-19
1.817912012e-20
3.135056004e-21
1.165519966e-21
1.259259458e-20
9.697702108e-21
3.941528823e-21
3.467275545e-21
9.656632148e-21
3.210762475e-21
1.72191789e-21
1.404074635e-20
5.125278125e-21
1.011737957e-20
6.533494166e-21
9.713796334e-22
3.380436972e-20
6.124560492e-21
1.979431191e-20
1.626025408e-20
3.035548484e-20
2.367482621e-21
5.030127729e-20
1.831891875e-20
3.042208355e-21
1.494651816e-21
7.267866827e-22
1.197029171e-21
1.219678819e-20
7.636727459e-21
1.964865002e-21
1.022748399e-20
2.564455831e-21
3.756287638e-20
2.676059372e-21
8.384301047e-21
9.05590264e-21
1.043340819e-20
8.125621653e-21
9.119778028e-21
5.68551667e-21
3.331690473e-20
2.893366289e-20
7.084559605e-21
3.833384413e-21
1.364826268e-20
2.330870479e-22
3.820725077e-21
6.54660349e-22
3.12355066e-20
8.519876708e-21
6.103140325e-21
1.296103113e-20
8.805661375e-21
8.29341305e-21
1.137757547e-21
3.419906574e-21
3.017199954e-21
5.682371483e-21
1.937515775e-20
4.834236595e-21
5.216603562e-20
1.40170299e-20
1.1075021e-20
7.507530905e-21
3.36780119e-20
5.54375852e-21
1.530961917e-20
3.418044442e-22
3.74289546e-21
1.208108064e-20
1.004069563e-20
2.025693978e-20
5.885235515e-21
4.385616564e-20
1.260112174e-20
7.751889405e-21
7.855346727e-21
1.637466104e-20
7.64961787e-21
6.574178552e-21
4.613523414e-21
2.008664381e-21
3.740137803e-21
1.770645025e-20
2.505559572e-21
4.125251615e-21
1.515491294e-20
4.143771524e-21
2.553220122e-20
2.296862049e-22
6.233247998e-22
1.880638113e-20
3.845456853e-20
1.102800535e-20
3.970392839e-21
1.397337239e-20
6.634963719e-21
8.713479077e-21
2.217025089e-21
5.761375987e-21
9.342618517e-21
5.046048538e-21
4.437701333e-21
8.052091062e-21
4.327618932e-21
1.509522879e-20
1.218643244e-20
1.73115698e-20
2.543372032e-20
2.800879126e-20
1.612408303e-20
6.532856394e-21
3.326828914e-21
8.717864874e-21
2.097982435e-20
2.461489929e-20
6.330160645e-21
6.079570268e-21
1.040719948e-20
2.716840948e-20
4.211487502e-21
5.170352659e-22
7.329472413e-21
1.307542047e-20
2.382652812e-20
3.968797625e-21
7.453210892e-21
8.766523603e-21
5.534640354e-21
1.48723013e-21
4.609080487e-21
6.214322923e-21
8.865742034e-21
3.871798403e-21
4.672652299e-21
4.835593687e-20
2.895110901e-20
1.275712957e-20
2.737476431e-21
6.804430656e-22
8.293709152e-21
7.372443872e-21
6.878921358e-21
8.431254982e-22
5.079787731e-22
1.238309784e-20
8.024284325e-22
2.845630102e-20
3.432217486e-20
4.957123265e-22
1.625635286e-21
2.88807761e-21
1.151243463e-20
8.015177244e-21
7.05799164e-21
1.409352496e-21
2.133815645e-21
1.059478154e-20
1.85478724e-20
3.790583833e-21
3.919292344e-22
8.684344507e-21
3.346646179e-21
1.056757294e-20
4.636550899e-21
9.743736383e-21
2.521341188e-21
8.347648637e-21
1.587640268e-20
8.169773238e-21
6.241986169e-21
1.718119439e-20
2.615385438e-21
1.77883923e-20
1.017249466e-20
8.378252474e-21
6.843413868e-22
1.092084873e-21
3.803512876e-21
5.357218568e-21
2.160537092e-21
1.787040943e-20
3.274480298e-20
1.114675672e-20
1.102717437e-21
1.637538151e-20
1.399209344e-21
4.271543295e-20
9.502084827e-22
2.596741651e-20
4.020968211e-21
9.470880096e-21
1.669906053e-21
3.907926133e-20
2.51393705e-21
9.471432662e-22
1.067177021e-21
1.621576575e-20
1.409143014e-20
6.453053609e-21
1.878631991e-20
6.106157498e-21
1.135328218e-20
1.767969591e-20
9.444784024e-21
2.671030132e-20
5.160771299e-21
3.40265105e-21
2.121002391e-21
1.511467189e-21
3.920512269e-21
7.57255585e-22
1.134520606e-20
6.907948018e-21
9.604200154e-22
6.614766497e-22
9.928990436e-21
2.456827529e-20
4.221164458e-21
2.027774006e-20
3.740156811e-21
5.953111894e-21
1.675984497e-20
1.606293953e-21
1.742746334e-20
1.26181223e-20
2.394934656e-20
1.270634869e-20
1.463718226e-21
6.391255007e-21
7.429984384e-21
1.411853682e-20
1.260100032e-20
9.013320999e-21
1.1900239e-20
6.447094951e-21
1.198736033e-20
1.701028459e-21
1.575836515e-20
1.106564874e-20
4.009766911e-21
9.233405103e-21
1.038246022e-20
1.832784675e-20
7.339002505e-21
8.78929818e-21
8.235704209e-21
7.574550262e-21
1.340989627e-21
2.574411816e-21
1.318716699e-21
7.214215694e-23
8.52842239e-21
1.886094289e-20
2.481748835e-21
7.835357765e-21
1.071343608e-20
5.343075428e-21
1.91758705e-20
9.895294953e-22
1.234101167e-22
2.364248356e-20
1.373691835e-21
8.211731843e-23
7.010117052e-21
2.787412541e-21
8.952736312e-21
7.839877789e-21
4.676381862e-23
9.227196015e-21
6.624959381e-22
3.577777817e-20
1.146084176e-20
3.398666112e-21
3.545027569e-20
5.839897978e-20
2.751316346e-22
1.270902628e-20
3.082105993e-20
1.107728297e-20
9.566346302e-21
2.695647477e-20
2.006323766e-20
4.402487196e-21
1.790860219e-21
9.207947704e-21
6.303194396e-21
6.051399065e-21
4.735453812e-22
1.765395495e-21
1.131647792e-20
9.389725436e-21
7.525552862e-21
4.473898151e-21
1.303665194e-20
2.124015099e-20
5.466258041e-21
5.375467106e-21
5.413612137e-21
1.688069006e-22
1.660178326e-20
1.454973527e-20
5.473562755e-20
9.172141576e-21
2.809994405e-21
2.032585952e-20
1.773733902e-21
5.769678304e-21
1.340578127e-20
1.248084969e-20
1.273574362e-21
1.334846896e-20
1.827037304e-20
1.05652394e-20
1.782142913e-21
1.392598402e-20
2.472733782e-20
2.012747892e-21
4.409568367e-20
9.286987597e-21
1.871246008e-20
7.610912877e-22
1.748941061e-21
7.942563517e-21
1.587817453e-21
3.978338508e-21
6.429016244e-21
8.954931623e-21
2.897392037e-20
9.443618626e-21
2.344749639e-21
5.357232902e-21
4.046993311e-21
3.170074817e-22
4.823323332e-21
7.574796221e-22
2.447375674e-20
4.320580083e-21
1.622245027e-20
4.047689211e-20
1.216639767e-20
1.10498546e-20
3.058319962e-20
1.995897774e-20
2.860159927e-21
1.596722016e-21
1.956049116e-21
1.137252059e-20
1.265887664e-20
7.021047886e-21
2.012529785e-20
1.181250002e-20
3.685861451e-21
8.345000552e-21
9.955433855e-21
2.210679658e-21
1.675479373e-20
9.798153536e-21
2.441614915e-20
2.673684979e-21
2.475451411e-20
1.604251065e-20
7.858285162e-21
4.987063763e-21
2.098373781e-20
1.348202882e-21
1.665799766e-20
2.420477643e-21
1.090841167e-21
2.579558967e-20
2.997310447e-22
2.60070839e-21
1.744455519e-20
1.652698962e-21
8.010655306e-21
2.764995393e-20
1.377125857e-20
1.866191667e-21
1.876588072e-20
1.266198788e-20
6.655496994e-21
8.435434245e-21
1.292410297e-21
1.002340015e-20
1.606635308e-20
6.636674353e-21
6.497787418e-21
1.915130409e-20
4.309982628e-21
3.402183987e-21
6.260354547e-21
1.855600112e-21
2.463907913e-20
1.312899202e-20
7.621986466e-20
5.171864246e-21
3.995657562e-20
9.553481523e-21
2.766863907e-20
3.441654053e-20
2.276905191e-21
7.645244236e-21
1.660435628e-20
1.794629802e-20
2.938169628e-21
6.988564277e-21
1.610958082e-21
1.065552634e-20
4.272232045e-21
9.745286961e-21
9.272667112e-21
3.016557758e-20
4.542249517e-21
7.978826221e-21
3.348862087e-21
1.26947589e-20
4.15329249e-20
5.983094884e-21
4.276583106e-21
1.603884075e-21
5.593350878e-22
4.62009096e-21
7.322142184e-21
4.596762291e-21
3.429110565e-22
1.749904317e-20
1.900477322e-20
9.713416652e-21
8.903511297e-22
1.371234257e-21
6.107289393e-21
4.053833039e-20
7.037705338e-22
4.80926144e-21
2.040682414e-22
5.663663868e-21
1.049617458e-20
9.39762507e-21
8.977980181e-21
2.183306778e-22
9.878780911e-21
1.716262441e-20
8.40077209e-21
2.155185886e-22
1.855270591e-20
6.46239739e-21
5.977344666e-21
1.653046755e-20
7.079556464e-21
2.924762432e-22
1.200413567e-20
1.679376418e-20
2.920719672e-20
2.983161127e-21
2.006361788e-20
1.04226097e-20
4.997798862e-21
9.724847097e-22
4.066033595e-20
1.601297429e-20
3.387192936e-20
9.127539263e-21
3.86022169e-21
2.125989252e-21
5.073610376e-21
9.738802086e-21
4.147499613e-20
2.068742559e-20
3.012088873e-21
2.694881788e-20
2.513986103e-21
2.483877153e-20
1.71609563e-21
1.871804267e-20
5.131219999e-21
8.120232166e-21
5.73167862e-21
6.464452519e-21
5.625096125e-21
3.302607616e-21
1.904361049e-20
1.448913323e-21
8.285013407e-21
1.367047292e-20
2.069229813e-21
4.185687504e-22
7.456501813e-21
1.21527368e-20
3.786990584e-20
7.100177362e-21
1.460682304e-21
4.771503735e-22
3.662499852e-20
1.668818759e-21
4.205856184e-21
5.870152296e-21
8.604158272e-21
1.368431693e-21
6.211959292e-20
5.528544414e-21
6.996616862e-21
8.02008728e-21
2.626553681e-22
1.206399371e-21
1.14702874e-21
1.146110148e-20
7.859942458e-21
3.1207347e-21
1.203769647e-21
9.12928249e-21
6.670748778e-22
8.282464248e-21
5.751914102e-22
1.075291744e-20
1.118381464e-20
1.075776403e-20
7.366889137e-21
3.127018126e-20
8.143850818e-22
2.407153438e-21
1.927849542e-20
3.871688697e-21
1.654748982e-20
1.617391869e-20
1.104100304e-20
1.028222007e-20
2.809980067e-20
1.176237015e-20
3.12189112e-20
3.053441378e-20
7.940721713e-21
2.17031597e-20
5.163194142e-21
2.13720279e-21
5.372617649e-21
4.450969418e-21
3.562944831e-21
4.277473655e-21
1.149424441e-20
4.878827429e-22
1.882393992e-20
1.354159072e-20
2.22015569e-20
6.386072661e-21
1.538004559e-20
2.569950822e-21
6.611193561e-21
6.23087839e-21
1.974287019e-20
2.868057052e-21
1.505063222e-20
2.807234574e-21
3.377961534e-20
1.632947304e-20
3.174603985e-21
2.472321473e-20
9.734190164e-22
2.038004361e-21
2.843047828e-22
1.220600154e-20
1.50486004e-20
9.259359461e-21
4.939345354e-21
8.405768282e-21
1.024096471e-20
2.4727537e-21
2.594307854e-20
1.2986789e-20
2.069751717e-21
8.837261472e-22
6.861984848e-21
5.635525607e-21
1.093752658e-20
2.235981287e-21
5.659585165e-21
6.571718752e-21
2.417674242e-20
1.699779323e-20
8.491260529e-21
1.755325158e-21
2.555623999e-20
4.983899067e-21
1.204704961e-21
1.431873923e-21
9.166269517e-22
1.67044541e-20
1.09713709e-20
6.917197252e-21
1.631235888e-21
2.133741783e-20
2.526183468e-20
1.27141688e-20
1.309451284e-20
1.091522221e-20
1.287648382e-22
1.045605531e-20
4.524246242e-21
2.68377594e-21
1.250923955e-20
1.59196642e-21
1.964614358e-21
4.897610053e-20
1.605403385e-21
9.098018898e-21
1.977668899e-21
1.437558991e-21
5.293659476e-21
1.114208833e-20
3.220844777e-20
1.873546389e-20
3.452947005e-21
1.143340326e-21
1.160828917e-20
3.562832681e-21
1.686777599e-20
4.624537521e-21
2.398591362e-20
9.516609741e-21
4.04153657e-22
5.701014135e-21
2.088245243e-20
3.195741264e-21
4.695034319e-22
4.32925059e-21
1.334390662e-21
8.189064928e-22
2.041833156e-20
1.681976167e-21
3.224911571e-21
3.343763169e-20
8.151051566e-21
7.088362005e-24
1.542531454e-20
2.505790065e-21
9.363471228e-22
5.972421999e-22
1.66485621e-20
7.619723481e-21
1.665874881e-21
2.402444999e-20
9.659880497e-21
4.742769178e-21
1.555478304e-20
6.144171952e-23
4.753456654e-20
1.586738118e-20
8.834303973e-21
8.431522771e-21
1.031302397e-22
7.83108309e-21
1.058712021e-20
1.220414312e-21
3.090036412e-20
3.251199562e-21
3.135939119e-21
1.067579168e-20
4.823595023e-21
2.981074062e-21
9.105120758e-21
7.850185389e-21
1.719893114e-21
2.349413419e-21
2.014207378e-20
1.975004386e-21
1.368066544e-20
1.15726892e-20
1.217687555e-21
5.335590609e-21
7.647255534e-21
2.956853118e-20
1.651055812e-22
6.517688405e-21
1.186465696e-20
6.855264783e-21
9.544490342e-22
7.178324116e-21
1.29621244e-21
2.150120403e-20
1.273755868e-21
9.888347693e-21
2.621931989e-20
5.744147586e-21
6.517184894e-21
1.748724689e-21
1.54495661e-20
3.077154339e-21
7.484595489e-21
1.865309183e-20
1.324767187e-20
5.594848199e-20
1.4613073e-20
1.282702622e-21
2.83567655e-21
2.146357227e-21
2.084661271e-21
1.733744711e-22
4.74979223e-21
7.030700943e-21
1.338589793e-20
1.138549084e-20
6.659274404e-22
1.987169169e-20
3.563872077e-21
7.214120708e-21
4.256409141e-20
4.319414759e-21
5.697578163e-22
5.355702111e-21
1.310734989e-20
2.305550216e-21
4.010501412e-20
4.874765548e-20
1.357089597e-20
9.502002565e-21
5.089848179e-21
7.540853311e-22
6.341579244e-21
3.728190809e-22
2.200278508e-21
1.126627586e-21
9.896936409e-23
2.783450291e-21
1.239542247e-20
3.142489801e-21
4.821386554e-21
2.179811767e-20
2.022632429e-20
5.461897701e-21
2.392435595e-21
1.159008412e-20
1.094868968e-20
1.060743006e-20
1.27945039e-20
2.27740374e-21
2.087869951e-20
2.337521721e-21
4.34675758e-21
4.45795578e-21
6.480738923e-22
1.680187184e-21
1.425829658e-20
8.930947516e-21
8.800745453e-22
3.345088161e-20
1.51268448e-20
3.799261238e-21
2.65579316e-21
3.360106865e-22
3.739241237e-21
2.560724165e-21
1.593644045e-21
5.295572197e-21
7.39494433e-21
6.53700417e-21
3.365681239e-21
1.554504715e-20
4.114685383e-22
5.633978989e-20
1.353305627e-20
1.270907535e-20
5.157944673e-20
1.443096521e-20
9.555784113e-21
1.435964522e-20
3.937046171e-21
9.367382211e-22
1.088955827e-20
3.990929131e-21
4.627690156e-21
8.353392949e-21
2.667315779e-21
1.397742709e-20
1.571810932e-20
1.94896442e-21
4.957058781e-21
6.386462522e-21
9.493828729e-21
3.609501117e-21
9.893017704e-21
3.510819007e-20
8.578742819e-21
1.712268427e-21
1.099719202e-20
9.651968572e-21
4.511536509e-21
1.270117253e-20
2.246110073e-21
4.625074854e-22
7.331464814e-21
2.345389244e-21
1.590521961e-20
7.185767745e-21
9.356684154e-21
5.675403964e-21
2.062757843e-21
2.535741404e-20
7.863473238e-21
2.371283736e-21
2.72406678e-20
3.879918465e-21
2.347018964e-20
1.889236475e-20
5.690876892e-21
3.100756031e-21
9.745258273e-21
2.730642361e-21
5.595499983e-20
9.886494441e-21
3.069123467e-20
5.543822743e-21
2.009178884e-20
2.190211772e-21
2.119219224e-20
1.324116887e-21
4.64404675e-21
2.094624474e-21
1.80710122e-21
8.18914594e-21
1.324905576e-20
1.147454322e-20
3.484383193e-21
2.518308539e-20
8.465769184e-22
8.203295571e-22
1.992630201e-20
1.412775441e-21
5.234085384e-21
3.136238429e-22
5.376950523e-21
1.742313317e-20
6.46659117e-21
1.834378291e-20
7.704516402e-21
3.926076669e-21
1.033564774e-21
2.40104978e-22
2.994472283e-20
2.506509736e-21
6.696097594e-21
1.262825464e-20
1.249845787e-20
2.454271476e-20
2.804960685e-20
4.926560058e-21
3.591378049e-20
5.980509013e-21
2.678816474e-21
6.853452956e-21
2.0972631e-21
5.502769224e-21
1.672407838e-20
4.468024067e-21
1.42721589e-20
2.903465598e-20
3.810753742e-21
5.143500762e-21
1.457913169e-20
1.902683314e-20
4.940944735e-21
2.271962352e-21
3.504319556e-20
3.125217925e-20
9.233355652e-21
2.354800025e-21
1.548421197e-20
5.331695853e-21
2.231905637e-21
6.658559704e-22
1.459835883e-20
8.441720438e-21
5.20174513e-20
2.731722408e-20
5.018857529e-21
6.627852221e-22
2.913319628e-21
9.616788364e-21
1.080463138e-21
6.230967222e-21
2.026387388e-20
5.807706453e-20
4.694220015e-21
1.86647285e-20
5.015106974e-21
3.808206811e-21
8.401533971e-21
1.342068959e-21
1.417690888e-20
2.649166583e-22
1.413640866e-20
2.218199401e-20
5.933025045e-21
4.049059294e-21
2.087960136e-20
9.728754344e-21
9.868417609e-21
9.810556674e-21
1.706641131e-20
2.707929561e-21
2.75022109e-21
1.375198626e-20
8.023210932e-22
5.225162003e-21
2.050983397e-21
4.258019376e-21
2.737435732e-20
7.335953252e-21
1.425664769e-20
2.766758255e-22
2.73027197e-21
6.390991505e-21
9.272197679e-22
4.308589197e-21
1.126517668e-20
4.07959816e-21
2.892595216e-21
8.485763071e-21
2.81869693e-20
2.699321113e-22
4.849411658e-21
2.846514456e-20
2.712448233e-21
4.701050639e-21
1.114855098e-22
1.19468906e-20
6.912972122e-21
3.944471097e-22
6.812005563e-21
1.131054975e-20
8.017301146e-21
1.683405834e-20
2.099959144e-20
2.021444215e-21
1.296445105e-20
2.857930946e-21
3.304621124e-21
2.034807136e-20
3.635091359e-20
1.950261877e-20
7.523575827e-21
2.79381101e-20
5.777166832e-22
7.849255268e-21
5.650878525e-21
1.577206971e-20
1.032932802e-20
3.402008793e-21
2.551742167e-20
1.181460408e-20
2.150612991e-21
1.618053681e-21
2.717697175e-21
7.573142163e-21
6.015759266e-21
5.736613136e-21
1.935752904e-22
1.839151952e-21
7.595999155e-21
3.590245045e-21
2.630548341e-20
7.396966846e-21
1.73968505e-20
2.921249835e-20
8.934596342e-21
7.235308039e-21
3.655343771e-21
6.834276482e-21
5.023940762e-21
2.21445288e-21
5.281208e-20
2.42676455e-20
1.526166719e-21
1.000007826e-20
1.598370539e-20
3.369129342e-21
1.184266812e-20
8.247389654e-21
3.335857915e-20
1.258609906e-20
8.960572585e-22
3.305628539e-21
1.807501732e-20
3.760592521e-20
4.684822705e-21
2.898759035e-21
1.251840913e-20
6.723159638e-21
1.009474317e-20
8.865555292e-21
4.405971845e-21
1.17813995e-21
2.743912705e-20
6.691880669e-21
1.66129919e-20
9.721538263e-20
2.069687828e-21
2.380134633e-21
5.322233107e-21
1.563932465e-20
1.6441479e-21
7.933784965e-22
8.084664495e-21
8.124177859e-21
3.11548792e-21
5.912302749e-21
4.813074265e-21
4.658578336e-20
2.986549933e-20
1.326578091e-22
1.94322322e-20
2.850377228e-20
2.317288985e-21
1.560659646e-21
3.339193603e-21
2.716552946e-22
2.726660788e-20
7.585543179e-21
1.7909928e-21
4.447596144e-21
6.88633346e-21
1.942111581e-21
1.431776946e-20
9.478045827e-21
3.207962692e-21
2.034083842e-20
3.434617199e-21
6.596471957e-21
2.847015254e-20
1.548474638e-21
1.249524957e-20
1.534939093e-20
1.721486513e-20
4.036622782e-20
6.102401071e-21
2.596336802e-20
3.236988221e-20
2.474654146e-20
4.391269897e-21
1.065441134e-20
1.375961695e-20
5.203054193e-21
1.115351559e-20
5.570242568e-21
3.348584006e-20
3.706345976e-20
1.309874115e-20
8.56746794e-21
1.11757497e-20
9.974697174e-21
5.538842466e-22
2.063290249e-20
1.683652173e-21
3.669038511e-21
1.22359121e-20
3.099643631e-21
5.916873009e-20
2.544730996e-20
9.75502192e-21
4.490777348e-21
1.22268023e-20
2.207228575e-20
3.957636686e-21
2.053240384e-21
3.321537585e-20
1.221274157e-20
2.822831395e-20
2.768256043e-20
6.880841013e-21
1.236290747e-20
6.934810533e-21
2.341544801e-20
1.106868898e-21
1.558702314e-20
8.714401321e-21
1.920591517e-20
8.220773297e-21
1.147255881e-20
2.546699498e-21
2.566282632e-21
8.394245631e-22
9.200084523e-21
5.835372613e-21
1.073149744e-20
9.421483314e-21
3.715530959e-21
2.100746401e-20
5.229655015e-21
6.900729489e-22
7.149824514e-21
5.065349267e-20
4.002743131e-21
4.540788996e-20
5.215024192e-21
2.110486803e-21
1.157356694e-20
1.049209475e-21
3.636542456e-21
2.304061488e-20
3.596100957e-21
5.35545311e-21
9.147692503e-21
8.224412171e-21
3.642349688e-22
1.682578089e-21
4.649572742e-21
1.67357797e-21
9.032303326e-21
1.52718175e-21
8.592290311e-22
6.599772386e-22
4.20722835e-21
9.04629802e-21
1.355409049e-21
1.58735583e-21
1.966294173e-20
1.101960939e-21
4.5090932e-21
6.955579203e-21
3.086796768e-20
1.237920302e-20
1.374902946e-20
1.567459035e-20
3.753104506e-21
2.274852086e-21
8.580047402e-21
1.391129656e-20
5.587258591e-21
1.149943445e-20
1.43962071e-20
1.562128198e-20
1.715990894e-20
3.02318818e-20
2.627096806e-20
5.018158718e-21
5.827463542e-21
6.814028382e-21
2.614271754e-20
3.616886442e-21
4.125308424e-22
2.729707492e-21
1.72318421e-20
2.872240753e-21
2.397355647e-20
8.648673865e-21
1.311672857e-20
4.735161796e-21
2.211702145e-20
9.544034677e-21
9.339657165e-21
2.148147164e-20
6.163700958e-21
3.385758013e-20
2.252368404e-21
8.19946725e-21
4.329909697e-21
4.236376687e-20
3.656360905e-21
1.668705307e-20
1.405416961e-20
1.280671927e-20
7.910491243e-21
7.751780443e-21
4.18211714e-20
5.40060919e-21
1.826015895e-21
1.621624254e-20
3.788488361e-21
2.090757449e-20
8.596565365e-21
2.628423452e-21
1.935647626e-20
4.152012847e-21
6.967307832e-21
5.418246836e-21
7.329373752e-21
1.726234343e-21
6.104977279e-21
9.662097554e-21
4.878948523e-21
1.243975726e-20
2.09069107e-20
1.128471818e-21
6.900565371e-21
9.619481964e-21
3.25337116e-21
4.521047082e-23
1.746336349e-20
2.455763257e-21
2.844540992e-21
6.101638423e-21
1.88014668e-20
5.312430217e-20
1.605147954e-20
9.687393105e-21
3.033521901e-21
9.741855355e-22
6.983015164e-21
7.315288317e-21
9.607359414e-22
1.9239715e-20
5.336802249e-22
2.889300588e-20
1.66408836e-21
1.811096803e-20
5.745463837e-22
2.349917123e-20
1.033230653e-21
4.549125352e-21
1.349883139e-20
1.082538598e-20
1.704125424e-20
2.447252884e-20
1.709522088e-20
1.076036841e-20
6.459177836e-21
2.572429319e-21
1.225241492e-20
1.045748927e-20
6.842116214e-21
3.222112422e-20
5.571512211e-22
1.434936667e-20
7.449708977e-21
3.983661422e-21
7.928939316e-22
7.550466587e-21
7.629663451e-21
6.372059226e-21
4.629560887e-21
3.463182282e-20
2.72858558e-20
7.2131294e-21
1.564700769e-20
9.355340747e-21
1.589707776e-20
3.099808607e-21
8.988197227e-21
1.604241346e-20
1.97084202e-21
1.721794724e-21
1.038481452e-20
1.202669104e-20
6.02835819e-21
5.625104312e-21
2.6121806e-21
4.786148888e-21
2.076559546e-20
7.86201057e-21
9.022660557e-21
6.706497182e-21
6.491947961e-22
4.324550804e-20
4.777725795e-21
2.146253646e-21
4.095558101e-21
5.243456776e-21
1.740703421e-20
1.748957803e-20
6.613738155e-21
1.362404109e-20
1.978824788e-21
7.511165121e-21
3.350733511e-20
1.285414954e-20
4.176604457e-21
1.04598667e-21
4.039472277e-21
4.48542103e-20
2.650349148e-20
9.872547312e-21
2.093825041e-20
1.470181767e-20
1.224410922e-20
1.775584746e-21
3.458116445e-21
2.938818186e-20
7.158387815e-21
3.328754298e-20
3.530161157e-21
9.264089453e-21
1.656755158e-20
6.96204163e-21
6.36124336e-21
1.929984015e-20
1.259887828e-21
1.445154836e-20
4.696540523e-21
5.009443823e-21
1.994649067e-20
3.411246293e-21
3.332256642e-20
1.415755977e-20
3.176543035e-21
5.780095804e-21
3.238481105e-20
2.294470938e-21
2.604805722e-21
8.654781201e-21
3.901995231e-21
2.906221994e-21
3.401095054e-21
1.866245137e-20
4.626817124e-21
2.124053456e-20
2.297625474e-21
1.200458123e-20
4.496265577e-21
8.529359845e-21
1.949524187e-20
3.836793547e-22
8.398216974e-21
1.876901207e-21
5.853048011e-20
4.413253014e-21
6.869181037e-21
5.466949876e-21
1.336829156e-20
1.958711472e-21
1.051353312e-20
1.20767152e-20
2.305476247e-21
1.749082393e-20
1.897064423e-20
4.793992906e-21
3.923990865e-20
1.524516836e-20
2.19346851e-20
6.460995076e-21
1.818649122e-21
1.24335772e-20
2.465980874e-20
1.880127327e-20
5.838874006e-21
1.193222568e-20
1.123633031e-20
4.320506438e-21
1.480414741e-20
9.318498365e-21
1.103564727e-20
3.343041613e-20
4.007434671e-21
8.675110046e-21
3.1534454e-20
4.694059609e-21
1.436584999e-20
1.508632058e-20
1.899464372e-20
4.452355474e-21
1.747829431e-20
1.029413731e-21
1.141945555e-20
2.933433467e-20
3.066836288e-20
1.840173693e-20
8.341953411e-22
3.262377533e-20
2.158042214e-20
9.667992945e-21
9.589129958e-21
7.978587353e-21
1.922319246e-20
2.324452098e-20
9.370069353e-21
7.027621945e-21
9.85448666e-21
1.131874071e-20
3.190548115e-21
7.790400629e-21
4.075811052e-20
3.171433942e-20
2.954685241e-21
9.747223604e-21
1.261511283e-20
1.157909872e-21
1.071032994e-20
4.420053538e-20
4.132981799e-21
2.837656314e-20
3.400392488e-20
1.712561858e-21
6.012630211e-21
9.601479985e-21
3.308250399e-20
1.2285801e-20
6.471820085e-21
7.362202888e-21
1.333529895e-20
8.627209795e-21
1.399641819e-20
2.894919664e-20
6.476778203e-22
1.019693297e-20
5.551047244e-21
1.736931887e-22
1.250712464e-21
6.671461068e-21
2.41799126e-22
8.410574272e-21
2.584906458e-21
2.742217606e-20
1.878851989e-20
3.883326764e-21
7.94621567e-22
8.061137013e-21
5.93662062e-21
3.096260572e-21
6.603159035e-20
6.882605705e-22
6.597901979e-21
3.718671391e-22
5.577054504e-21
8.275065207e-21
2.983317448e-21
1.533129725e-21
6.172760006e-22
2.820952816e-20
1.806007079e-20
1.573509564e-20
5.144994132e-21
1.843231056e-20
1.538097535e-21
3.371629954e-20
4.330531677e-20
1.243267667e-20
2.063465795e-20
1.157078219e-20
1.039938766e-20
9.921083438e-21
2.627625559e-20
4.420297707e-20
5.577237724e-21
3.191986425e-21
2.06856242e-21
8.463544117e-21
7.123597131e-21
1.85793947e-20
4.036223906e-20
1.142231808e-20
6.782563338e-21
1.709650132e-20
1.25517214e-20
2.77178565e-21
8.055805106e-21
3.422060563e-21
5.762835633e-21
2.609121666e-20
2.100961406e-20
1.038842818e-20
1.035237028e-22
1.261846835e-20
3.521636249e-20
9.614904329e-21
2.337884999e-20
8.751458739e-21
5.090428828e-21
8.530456609e-21
7.772102309e-22
2.327542084e-21
2.17244479e-21
8.967491246e-21
4.229369093e-20
1.043091675e-20
2.579190993e-20
1.468125513e-20
1.130540021e-20
1.458944954e-20
1.238339828e-20
3.908685658e-20
2.668772329e-21
1.417243852e-20
8.847251216e-21
7.789875924e-21
3.409005583e-21
1.106247542e-20
1.418039843e-20
9.663149809e-21
1.573195452e-20
1.93005339e-20
2.212290956e-21
3.092493138e-21
1.474769656e-20
1.155232621e-20
1.384160702e-20
5.616871922e-22
2.244005039e-21
1.429840052e-20
3.71579482e-20
7.095131301e-21
7.260242395e-21
1.026779004e-20
8.907540106e-21
1.20561818e-20
4.116375762e-20
2.991800753e-21
1.563251587e-20
1.229618666e-21
2.318980907e-20
4.872123784e-20
8.659976737e-21
1.495990064e-20
6.082854448e-21
3.251232294e-20
1.088999614e-20
1.869133107e-20
1.650693515e-21
5.625297922e-21
1.780876304e-21
1.494341097e-20
9.818146346e-22
1.372051389e-20
2.110155477e-21
6.443650116e-21
8.83710963e-22
7.283465995e-22
1.300171561e-20
1.261253759e-21
1.791626014e-20
4.075136941e-21
3.915939693e-20
4.793967184e-22
3.28010446e-21
2.303641275e-20
8.774115738e-21
2.888414847e-20
5.260875461e-21
5.395808018e-21
9.319355626e-21
1.889009999e-20
1.052869001e-20
1.866761067e-20
8.587571181e-21
1.161010482e-20
2.201027923e-20
1.04414628e-20
5.25061915e-21
1.252236284e-21
3.081485179e-20
1.234944531e-20
1.121222673e-20
1.530789418e-20
1.795457848e-20
5.816873742e-21
2.775851777e-20
6.565391916e-22
4.796541958e-21
2.202526405e-20
1.634408866e-20
1.157510987e-20
3.240004924e-22
5.519617788e-21
2.720410022e-20
1.379226153e-20
2.684836783e-21
5.82919649e-21
3.169237176e-20
3.401786093e-21
1.398904345e-21
1.324916245e-20
7.852789937e-22
1.978195361e-21
3.960837581e-21
3.020286866e-21
3.780565083e-20
6.357546819e-21
4.126503079e-20
1.238302722e-20
1.791983931e-20
4.761128004e-21
2.869657813e-21
9.049827684e-21
1.280932973e-20
2.199891718e-20
7.190575641e-21
2.33899518e-21
2.453706406e-20
3.136905848e-20
3.37574272e-21
4.656130099e-21
1.098469454e-21
1.790042975e-21
1.402153669e-20
4.081270773e-20
5.768989425e-21
6.047924537e-21
2.285204236e-21
1.039737535e-20
1.070696373e-20
2.845500528e-20
1.256214255e-21
5.216411371e-21
5.569303455e-21
2.882858057e-20
1.986649347e-22
1.700069855e-21
5.350207992e-20
3.961349279e-21
1.459410588e-21
1.458978372e-20
1.733494306e-20
3.596077237e-21
1.266200886e-21
8.885508915e-22
6.852724963e-21
1.87138643e-20
1.701706378e-21
1.175275182e-21
9.531129842e-21
1.194899498e-20
1.795624397e-21
2.24212626e-21
1.516117293e-21
1.06262468e-20
6.977763581e-21
1.212029888e-21
6.838874146e-21