/*--------------------------------*- C++ -*----------------------------------*\
| =========                 |                                                 |
| \\      /  F ield         | OpenFOAM: The Open Source CFD Toolbox           |
|  \\    /   O peration     | Version:  2406                                  |
|   \\  /    A nd           | Website:  www.openfoam.com                      |
|    \\/     M anipulation  |                                                 |
\*---------------------------------------------------------------------------*/
FoamFile
{
    version     2.0;
    format      ascii;
    arch        "LSB;label=32;scalar=64";
    class       labelField;
    location    "0.011/lagrangian/dsmc";
    object      origId;
}
// * * * * * * * * * * * * * * * * * * * * * * * * * * * * * * * * * * * * * //


9421
(
521979
524614
521547
527894
525337
526688
526876
528323
526270
527930
532074
525027
528436
530668
532097
527702
529852
530943
532522
528606
527678
530545
530751
531448
533029
531912
529026
533641
528794
532727
532424
531588
532690
533233
533327
533545
527807
527797
533442
534345
530674
534639
528200
530349
532813
532607
535052
532293
532488
533647
534835
535602
531498
531677
534758
534954
527700
528440
530552
531649
531997
534465
536001
538204
533713
533099
534762
536392
535786
536400
530963
532273
534653
535564
535139
529464
531860
533820
535864
537302
536396
529118
534748
536702
535573
536132
537208
538676
534045
534343
534647
536689
536831
536889
538037
536186
538612
529847
532811
534331
536974
538232
538644
533520
537308
535882
537727
538419
536074
536384
538027
538121
535050
535245
537313
538219
537315
539266
536690
537228
538535
538627
538729
538570
535144
536264
536784
539030
539766
535053
535983
538436
540069
538009
539187
528507
538440
538575
539809
537514
537522
538305
538545
541687
535554
535849
537211
538635
530969
536200
539078
539173
539272
538356
538316
539368
540038
540041
537806
538546
539006
538620
540291
533639
536683
537610
540070
536292
537524
537927
539165
539856
540077
540189
540590
535556
538520
538864
539450
534733
540382
540690
543525
538320
538415
539122
539873
540708
540726
541175
539654
540278
540394
540444
540592
533939
537406
539290
539917
540582
541017
535264
535865
538728
539674
542713
538430
538433
541300
534952
539645
540408
540490
540680
541895
538946
539138
539436
539821
540559
540617
540867
540914
542301
539442
539965
540697
540819
541098
540288
540796
540895
541079
541313
543416
541107
534251
538757
540481
540823
541185
541593
534330
538756
540808
541621
541730
542338
538318
541073
541138
537926
539446
539779
540270
541715
541937
544242
538424
540280
540910
541947
542515
537502
540870
541714
542032
542421
535247
534125
534549
537630
537950
538961
539875
540373
540466
541311
541535
542137
543060
534959
538764
541196
542213
539351
540696
540815
540979
541123
542332
536686
540358
541197
541296
541386
541423
542218
542336
534536
539264
539565
540834
542031
542425
542550
542636
542743
543111
540083
540378
542265
539252
541215
541316
541378
542318
542594
542631
542714
542747
542841
543030
543279
538259
539064
539260
539544
540279
542205
542210
543441
539949
540977
541510
541764
542138
542623
543263
543526
538948
531673
539457
542238
542523
542868
542929
540922
541207
541303
541833
542915
543458
543665
538841
540593
540791
541819
542111
542551
544749
538957
540589
541796
535450
539146
541608
543241
543341
543358
543563
544578
541403
542240
542815
543234
543316
543773
540899
542622
539353
540469
542533
542948
543128
543143
543412
543880
538213
541226
541398
542739
543156
543790
544158
544747
540471
541604
543457
543535
543642
543660
543666
538849
540383
541782
542638
543141
543364
543434
535757
539745
540888
542404
542416
542464
543445
543653
543678
544487
545201
541784
541810
543558
544267
544980
535975
542763
543546
544477
545003
545913
540062
540371
542297
542342
543182
543455
543536
544520
545004
541325
542135
542730
543761
543801
466654
545048
540496
541595
543449
543765
543988
544049
544184
545582
545818
547201
540804
542419
543647
543978
544092
544269
544873
538619
538941
544459
544485
544688
545576
546360
535484
538533
539744
541496
542712
542923
543314
543940
543999
544153
544671
534479
545920
539055
539854
541706
543378
543539
543544
544683
544883
546388
531986
545053
543020
544548
544568
545157
545358
545594
541835
541594
543954
544050
544281
544585
537525
543753
543963
544171
544665
545592
543138
543426
544279
544454
544875
544965
545089
546422
539552
539155
543850
541905
544065
544483
544785
544977
545162
545614
546533
548333
539963
544766
544895
545090
545092
545094
545206
545680
545946
546319
543127
540248
540671
542589
543139
544007
544162
544167
544351
544384
544569
545730
545785
545862
546008
546487
542514
544372
544469
544767
545074
545107
545504
545849
546398
547721
541695
542545
542726
544263
544666
544781
544894
544947
545079
545181
545733
545800
545825
545974
546134
546483
545297
545378
548950
542003
543844
544061
545399
545907
547130
548230
541110
544250
545061
545188
545245
546349
546725
543528
542115
544383
544669
544888
545489
545704
545710
545810
545859
545910
546006
546026
535687
547029
539886
535646
544753
542936
543431
545299
545384
545401
546135
546136
546148
546305
546443
539053
540883
544491
544498
545190
545505
545820
545923
545996
546415
546527
547223
542824
543224
543654
544276
544677
545072
545204
545207
545459
545496
546324
546529
546872
547269
543835
545804
546259
546829
547054
547113
549662
544776
547316
540783
544041
545586
545711
546605
546836
548061
541277
539049
543126
544973
545192
545689
545802
545901
546100
534651
541910
542831
543764
544271
544283
544783
544788
544975
545184
545278
546318
546666
546738
546755
546927
547017
547323
540366
537190
542027
544251
544692
545488
546038
546219
546325
546736
546830
547894
548125
543858
544244
545314
545598
545701
545930
546316
546724
547311
547435
538439
540686
541709
543962
544363
544471
546202
546511
546748
547056
547718
547869
547964
548059
548157
548531
545060
545296
545490
545499
545821
546184
546217
546294
546428
546491
546503
546630
547562
547834
547882
548271
543136
545163
541839
542011
543255
546412
546923
547542
547957
548121
543026
546018
543851
543853
544396
545921
546320
546534
546632
546916
546950
547314
547850
548152
544054
543534
538522
540064
543116
545380
545388
546080
546314
546416
546444
546949
547012
547141
547545
547683
547719
547747
547931
548366
548537
548543
548565
549302
537718
541281
543876
543957
544787
545063
545185
546394
546504
547561
547745
548062
548249
548388
548638
549140
542505
541395
544159
546119
546129
546651
547247
548292
548353
548362
548380
548382
538140
539979
542098
543023
545097
545998
546099
546513
546657
546662
546815
546919
547198
547217
547240
547250
547257
547480
547519
547752
547961
548051
548241
548254
548283
549661
549970
545904
538671
543233
546214
546932
547019
547736
547943
548068
548409
548996
549180
550178
543110
544674
544865
545172
547137
547322
547533
547875
548389
549056
550381
543017
544559
544856
545531
545808
547086
547333
547356
547729
547733
547828
547859
548255
548265
548887
541523
542147
543949
544770
545301
546002
546130
546403
546720
547622
547749
547845
547958
548145
548236
548450
548532
548553
549809
542002
540039
542309
545894
546101
546727
546948
547200
547362
547550
548134
548361
548474
548533
548682
548773
549194
549414
549504
543237
544723
544958
544968
546088
546185
546514
546552
546819
547032
547041
547207
547262
547447
547751
547942
548043
548549
548552
547646
534231
545506
546111
547313
547663
547941
548019
548251
548431
548798
548847
548968
548969
548972
542737
545495
545593
546621
547033
547416
547452
548136
548147
548657
549097
549471
549591
549784
550124
545595
546908
547445
547862
548371
548788
549300
549382
549501
541596
545604
545896
546221
546293
546718
547259
547626
547755
547848
548133
548171
548500
548545
548581
548592
548597
548640
549077
549230
472007
544768
545284
547487
548060
548069
548566
548745
548854
548880
549195
549609
549716
543956
544478
544974
545170
546116
546598
546917
547040
547129
547235
547741
547746
547754
548591
548651
548776
548886
548948
548955
549093
549175
550724
551393
552021
544248
548041
544959
546003
546924
547513
547722
548158
548243
548264
548357
548443
548660
548693
548790
548794
548867
548902
549001
549119
549122
549196
549216
549283
549505
550375
551128
545178
534063
542206
547527
547867
548156
548546
548666
548855
548856
548985
549260
549293
549572
550752
543330
545596
547310
547954
548142
548144
548563
549423
549740
550130
550195
550597
550684
546638
547015
547827
547855
548052
548053
548279
548372
548377
548768
549015
549063
549341
549593
549611
549833
550078
550185
550792
542913
541911
545796
547521
547723
548040
548578
548716
548983
549003
549271
549354
549377
549500
549687
549796
549913
549923
550014
550029
553556
539839
540795
542509
544658
545282
545706
546710
547864
547960
548384
548885
548945
549090
549125
549470
549502
549521
549683
549802
549817
549988
550072
550139
551500
546501
543239
546296
546606
546825
547860
548055
548337
548348
549212
549415
549818
549979
549993
550089
550101
550109
550433
550623
550830
551911
544954
545927
547108
547354
547647
548785
548951
549279
549477
549570
549596
549691
549842
550004
550107
550112
551127
551291
551597
545064
548946
548979
549308
549373
549765
549919
550061
550197
550276
550416
551008
552023
552025
542637
544185
544748
546295
546407
547619
548155
548883
549098
549486
549602
549983
550216
550514
550688
551195
551749
551813
552324
545789
546001
546602
547849
548370
548868
549060
549188
549251
549360
549693
549715
550200
550378
550611
550970
551006
552926
552927
551496
548354
546000
546733
547009
547564
547714
548016
548042
548369
548759
548892
549289
549810
549908
550212
550298
550616
550966
551331
551438
553035
544448
538513
544365
546206
547140
547643
547920
547925
548770
548874
548964
549057
549099
549366
549456
549595
549631
549704
549907
550020
550090
550100
550427
550534
550619
550817
550933
550944
551160
552323
543868
551095
544347
545587
547434
547938
548344
548990
549869
549893
550102
550319
550405
550492
550508
550604
550686
550710
550852
550927
551120
551357
551447
551501
553134
547437
547631
548028
548338
548637
549378
549461
549696
549706
549780
549890
550013
550191
550198
550213
550404
550420
550546
550699
550727
550755
551334
551344
551442
552226
552381
552505
552820
548687
549459
540803
542912
545698
546094
546609
546942
547624
547634
547753
548038
548659
548882
549085
549172
549309
549388
549583
549607
549676
549984
550009
550116
550138
550307
550315
550423
550467
550523
550535
550537
550613
550707
550819
550850
550996
551004
551107
551164
551354
551431
551541
551636
551756
552195
552929
554160
542516
542909
544953
545078
545491
546396
546590
546920
547016
547738
548462
548860
549398
549815
550081
550155
550209
550211
550284
550634
550668
550734
550815
550836
550904
551005
551046
551332
551451
472874
548454
544745
547003
548024
549173
549395
549580
549800
549901
549990
550074
550122
550188
550210
550314
550439
550449
550533
550638
550825
550968
551009
551034
551134
551152
551327
551746
552053
552054
552055
544554
546216
548787
549660
549685
550082
550106
550311
550434
550458
550840
550923
540482
551041
551108
551130
551561
551634
551769
551821
552526
545688
553243
546728
544567
545492
547835
547945
548126
548557
548681
548905
548962
549075
549606
549764
550274
550522
550526
550695
551093
551123
551428
551448
551502
551534
551656
552633
553759
554975
544772
542939
544661
545203
546307
546925
548343
548463
548981
549094
549108
549198
549204
549288
549480
549684
549767
549977
550127
550184
550199
550287
550295
550379
550431
550506
550687
550742
550818
550856
551129
551444
551662
551738
551762
552042
552127
552372
553345
545197
548356
543435
545267
546814
547209
547529
548439
548539
549495
549601
549605
550521
550791
550827
550991
551031
551455
552126
552399
552525
552741
546405
543346
543659
547744
549469
549897
550180
550183
550377
550716
550898
550922
551013
551023
551030
551118
551299
551329
551345
551402
551413
551643
551652
551705
551937
552257
552274
552422
552751
552774
553654
548484
545793
547131
549066
549371
549512
549766
549782
549788
550002
550208
550282
550393
550411
550713
550761
550917
551213
551290
551297
551395
551531
551553
551624
551657
551742
551860
551931
551958
551985
552016
552097
552190
552247
552253
552465
552527
552635
552693
552860
552924
545899
548153
549364
549673
549900
550700
550945
551111
551171
551302
551342
551461
551612
551676
551707
551841
551918
551947
551959
552343
552348
552436
553045
553758
545897
546607
547979
548656
548861
549154
550503
550802
550925
550954
551223
551265
551360
551768
551771
551849
551882
551941
552066
552187
552310
552340
552753
552958
549694
543025
544901
546811
547312
549073
549074
549156
549896
549968
550223
550624
550633
550805
550839
551010
551199
551310
551440
551527
551630
551838
551910
552052
552134
552252
552264
552365
552451
552476
552543
552562
552624
552699
552921
543861
546190
545160
548947
549084
549385
549498
550135
550275
550510
550891
550899
550908
551153
551210
551523
551585
551648
551926
551928
552064
552263
552366
552402
552439
552460
552477
552593
552665
553388
547438
549272
548866
550428
545280
546913
547110
549390
549496
550294
550331
550541
550606
550703
550720
550788
550861
550907
551109
551135
551419
551454
551517
551538
551745
551764
552084
552176
552181
552270
552282
552679
552779
552848
552952
553155
553235
553598
554465
551292
547637
548771
549906
550108
550186
550614
550714
550721
550808
550928
550989
551201
551335
551453
551607
551616
551737
551916
551921
552165
552333
552352
552357
552464
552467
552496
552683
552825
552891
552918
553700
553762
554294
547731
549070
549263
549528
549867
550557
550593
550730
551318
551328
551366
551408
551627
551641
551709
551833
551945
551966
552041
552129
552161
552178
552408
552457
552674
552879
553052
553060
553194
553291
553348
553523
553643
553652
553683
549577
549663
549785
549879
550326
550417
550796
550798
551011
551301
551304
551323
551391
551421
551943
551957
552284
552286
552416
552444
552549
552555
552966
552986
553025
553100
553670
553781
555081
473245
539254
550809
548865
549171
549487
549590
550291
550504
550600
550821
550890
550916
550926
551309
551321
551330
551436
551513
551626
551642
551809
551863
551933
552175
552325
552374
552407
552453
552481
552551
552835
552961
553087
553284
553288
553387
553389
553401
554669
554671
548994
549170
549675
549772
550104
550206
550588
551350
551758
551851
552454
552572
552746
552856
552864
553062
553068
553151
553381
553620
553727
553802
553933
554284
552159
545407
547458
548135
548242
549169
549467
549997
550829
550949
551049
551102
551275
551542
552038
552198
552260
552363
552576
552634
552735
552970
552974
552982
553005
553109
553133
553191
553414
554324
554869
555593
548664
549381
549877
550329
550407
550525
550712
551116
551226
551715
551723
551747
551750
552065
552087
552148
552183
552371
552380
552456
552484
552553
552641
552822
552962
553058
553078
553090
553318
553554
553775
553786
553800
553865
539034
548149
473347
546004
546086
546617
548131
548435
549076
550187
550499
550518
551110
551533
551620
551735
551871
551972
552073
552239
552258
552339
552346
552500
552552
552755
552870
553274
553373
553459
553595
553619
553709
554158
554206
554317
555076
555191
550383
550422
548244
548971
549479
549873
550131
550207
550414
550698
551113
551340
551874
551954
552072
552171
552188
552249
552299
552367
552455
552557
552639
552640
552839
552861
552865
552895
552897
553053
553063
553153
553169
553260
553308
553402
553449
553607
553609
553882
553917
554127
554364
554498
555082
549876
545690
547615
548351
549870
550388
550625
551025
551400
551829
551998
552024
552057
552067
552071
552164
552166
552167
552251
552386
552443
552458
552510
552547
552740
552742
552754
552770
472785
552847
553066
553131
553175
553236
553256
553285
553323
553359
553418
553797
553813
553823
553896
553999
554013
554095
554135
554223
554258
548747
547204
547428
548368
548555
549082
549383
550181
550189
550196
550372
550919
551119
551194
551286
551522
551680
551963
552184
552230
552262
552273
552364
552475
552568
552681
552793
552846
552854
552863
552869
552875
553055
553107
553167
553177
553187
553372
553400
553482
553500
553510
553604
553682
553688
553803
553912
553961
554001
554405
554773
555391
544455
547013
548559
549462
550609
550787
550892
551124
551289
551632
551836
552014
552076
552170
552349
552369
552461
552563
552648
552678
552688
552704
552823
552898
552951
552990
553059
553092
553296
553495
553711
553749
554183
554200
554221
554365
554532
555495
556616
548556
548760
549080
549584
549790
550789
551319
551326
551424
551547
551635
551692
551741
551924
552157
552337
552376
552469
552560
552569
552578
552638
552662
552668
552698
552761
552766
552773
552784
552828
552834
552842
552857
552968
553071
553173
553234
553271
553293
553354
553390
553391
553411
553560
553574
553576
553613
553815
553901
553983
554023
554180
554519
555193
542932
549883
547421
547843
549376
549682
550409
550494
550948
551596
551608
551718
551917
552109
552191
552347
552423
552450
552452
552459
552480
552642
552658
552663
552664
552682
552689
552884
552892
552950
553007
553050
553065
553162
553190
553195
553289
553367
553377
553385
553594
553610
553627
553841
553908
554000
473920
554478
546821
548554
548864
549158
549184
549792
550079
550489
551296
552151
552160
552163
552225
552281
552288
552322
552334
552584
552646
552738
552743
552764
552858
552907
553032
553096
553263
553277
553286
553290
553294
553298
553306
553362
553486
553492
553582
553601
553612
553684
553726
553804
553809
553962
553988
554085
554101
554314
554327
554484
554707
555340
555348
547466
548032
541587
546186
546201
547774
548222
548246
548442
548650
548757
549264
549777
550285
551106
551202
551647
552154
552345
552671
552676
552700
552838
552880
552883
552901
553174
553257
553287
553351
553450
553476
553477
553573
553581
553615
553630
553666
553694
553699
553720
553736
553765
553796
553798
553805
553905
554008
554012
554195
554644
555163
555473
555996
550694
551828
545989
549273
549778
550599
551209
551411
551609
551727
551826
552132
552169
552362
552498
552548
552567
552666
552867
552945
552971
553061
553070
553206
553224
553237
553238
553279
553297
553491
553583
553600
553605
553614
553634
553650
553714
553893
553899
553975
553986
554025
554100
554116
554181
554209
554593
554629
554867
555139
555317
547349
553452
547847
549153
549262
550373
551599
551726
551748
551946
552046
552794
552824
552866
552964
553001
553054
553088
553176
553197
553255
553365
553393
553422
553493
553496
553563
553586
473841
553791
553878
553972
553989
554056
554096
554188
554215
554224
554306
554321
554410
474449
554587
554643
554740
554749
554904
554944
554998
555258
555443
555456
555700
547831
474209
546496
546807
549361
549566
549899
551140
551216
551521
551598
551844
552393
552448
552559
552673
552757
553042
553069
553146
553239
553363
553472
553485
553575
553665
553828
553846
553946
553987
554006
554106
554107
554124
554201
554296
554338
554439
554489
554500
554521
554748
554787
554816
554827
554896
555318
555335
556101
475076
553188
553221
547216
548567
549489
549874
550095
550718
551414
551719
551725
552240
552368
552473
552558
552942
552980
553036
553184
553244
553392
553504
553506
553597
553697
553705
553766
553770
553810
553892
553904
553992
554014
554016
554092
554139
554230
554304
554407
554488
474893
554621
554913
555020
555114
555130
555145
555342
555843
556418
556826
546493
543335
474110
475670
547935
549472
550003
550912
551515
551516
551823
551907
552044
552272
552421
552449
552534
552554
552654
552685
552747
552969
553199
553299
553303
553304
553375
553397
553564
553596
553701
553767
553788
553915
553956
554002
554061
554093
554099
554189
554190
554285
554305
554311
554413
554487
554533
554582
554590
554635
554730
554750
555156
555188
555192
555248
555561
555795
475859
549065
549351
549671
550283
550813
550816
551012
551406
551528
551734
552027
552144
552206
552433
552669
552932
553073
553302
553309
553398
553533
553549
553592
553677
553808
553825
553918
553937
553984
554034
554084
554175
554207
554227
554347
554394
554434
554450
554594
554602
554624
554694
554708
554727
554732
554810
554821
554884
554888
554908
554952
555014
555017
555038
555045
555048
555070
555172
555190
555236
555243
555306
555475
476648
552255
474469
552039
554546
548774
550286
550910
551203
551550
551713
551720
551733
552542
552595
552923
552944
553047
553156
553171
553179
553311
553357
553364
553376
553384
553474
553480
553481
553536
553591
553625
553679
553715
553722
553814
553816
553891
553911
553922
553924
553977
554015
554255
554381
554386
554414
554591
554607
554715
554721
554742
554801
554806
554820
554849
554895
554926
554971
555019
555028
555041
555056
555343
555438
555701
555709
475422
546641
549768
549971
550790
551625
551739
551811
552431
552566
552799
553157
553172
553211
553404
553466
553524
553561
553616
553636
553673
553706
553967
554024
554173
554298
554315
554325
554393
554395
554401
554437
554502
554651
554704
554737
554753
554811
554858
555001
555022
555061
555063
555231
555246
555307
555402
555414
555444
555624
555726
555746
473722
549155
475581
552667
546817
547929
549078
550376
551193
551224
551830
551934
551944
552330
552435
552938
553270
553292
553403
553443
553566
553914
553943
553954
554022
554065
554082
554117
554163
554273
554286
554290
554331
554345
554403
554435
554579
554592
554633
554798
554817
554838
554846
554890
554916
554928
555149
555171
555590
555768
555994
556016
556306
556419
557029
557934
551927
545484
550804
547212
548441
549981
551938
551970
552040
552048
552061
552650
552737
552763
552819
553015
553044
553141
553143
553170
553379
553470
553475
553623
553773
553777
553795
553827
553834
553903
553944
553957
554087
554098
554119
554208
554217
554218
554253
554268
554283
554291
554292
554406
554512
554527
554530
554535
554595
554608
554612
554616
554682
554713
554714
554733
554819
554958
554983
555008
555116
555225
555244
555334
555429
555510
555664
556267
556729
474566
551824
546612
549861
551092
552029
552128
552388
552539
552657
552732
552888
553093
553272
553275
553455
553487
553555
553653
553793
553794
553859
553950
553974
554115
554297
554299
554310
554390
554404
554421
554425
554466
554597
554625
554724
554728
554738
554889
554914
554922
555040
555121
555184
555230
555256
555272
555326
555350
555545
555653
555971
556204
556290
556416
477255
475415
553264
544366
545828
549995
550389
550498
550799
550905
551953
552331
552661
553023
553057
553160
553205
553317
553471
553488
553494
553562
553617
553710
553718
553724
553875
553881
553909
554126
554187
554212
554280
554379
554412
554416
554426
554441
554476
554589
554641
554702
554705
554711
554800
554814
554857
554886
554917
554937
554964
555037
555039
555083
555104
555110
555165
555217
555235
555260
555262
555264
555310
555431
555652
555686
555697
555737
555844
475416
476652
475759
546936
541385
546404
550998
551305
552062
552242
552570
552649
552652
552826
553043
553049
553149
553374
553454
553478
553584
553669
553887
553968
553991
554042
554090
554186
554196
554319
554341
554358
554420
554431
554440
554463
554499
554510
554567
554627
554688
554794
554847
554898
554988
555042
555137
555141
555152
555159
555189
555208
555252
555365
555372
555447
555452
555535
555546
555626
555660
555725
555796
555912
556240
557030
557436
477160
476741
547654
549565
550392
550395
551225
551732
552068
552229
552868
553147
553164
553245
553295
553410
553552
553608
553782
553792
554005
554007
554103
554141
554167
554192
554211
554239
554301
554417
554632
554640
554709
554718
554803
554815
554833
554906
554931
554934
555016
555021
555025
555033
555035
555128
555196
555270
555286
555363
555418
555433
555436
555479
555526
555618
555680
555734
555745
555833
555868
555940
476034
553223
548021
548328
550193
550524
550612
552049
552227
552844
552928
553361
553689
553826
553906
553907
553978
553985
554077
554083
554113
554137
554172
554276
554300
554375
554513
554526
554574
554598
554617
554706
554736
554856
554924
554980
554990
555006
555029
555075
555098
555099
555124
555127
555132
555157
555214
555229
555245
555293
555294
555314
555347
555358
555359
555368
555428
555430
555434
555451
555513
555514
555523
555614
555750
555764
555826
555899
555938
555945
556293
475247
556396
476214
476392
475954
550412
546411
549274
551197
552442
552954
553150
553259
553394
553448
553780
553876
553913
553995
554091
554197
554303
554316
554387
554449
554493
554615
554657
554679
554697
554719
554731
554746
554799
554881
554901
555003
555118
555140
555174
555224
555241
555251
555381
555423
555453
555467
555570
555594
555610
555616
555640
555707
555818
555857
555930
555933
555962
555973
556034
556062
556080
476123
556137
556150
556164
556182
556349
556382
556458
556575
556784
475325
557008
557634
557932
554551
553579
550424
551401
551422
552651
552653
553664
553890
553916
554031
554038
554205
554272
554302
554309
554337
554384
554497
554509
554585
554604
554637
554716
554739
554752
554907
554925
554932
554978
555002
555012
555018
555030
555111
555150
555153
555213
555261
555323
555329
555355
555457
555543
555551
555633
555643
555646
555662
555741
555752
555813
555860
555915
555947
556023
556063
556098
556130
556161
556163
556243
556461
556481
556550
556664
556669
556795
554663
557148
557304
476133
549589
549475
549781
550084
552564
552756
552843
552935
553680
554067
554171
554343
554522
554561
554578
554603
554620
554626
554674
554691
554696
554743
554839
555011
555064
555129
555133
555154
555173
555221
555257
555315
555333
555437
555464
555493
555537
555565
555621
555632
555663
555824
555856
555861
555951
556026
556061
556084
556253
556359
556400
556484
556621
556680
556851
557225
558152
477461
476992
554374
549256
476311
545699
550010
550617
550692
551316
551615
551706
551716
552354
552561
552643
552845
552850
552919
553140
553273
553366
553692
553769
553863
554264
554307
554322
554402
554543
554544
554623
554636
554648
554836
554891
554892
555000
555010
555084
555108
555122
555199
555220
555366
555412
555415
555469
555508
555605
555619
555623
555627
555648
555656
555665
555683
555736
555828
555919
555922
555928
556040
556050
556184
556232
556256
556281
556339
556827
557031
553631
476825
549081
555311
551019
475668
547764
548141
550896
552019
552427
553473
553538
553668
553761
553768
553885
553894
553980
553993
554177
554279
554400
554490
554507
554528
554613
554692
554695
554710
554788
554828
554876
554954
554970
555015
555050
555100
555106
555138
555223
555250
555266
555296
555425
555442
555463
555487
555507
555521
555650
555716
555720
555765
555827
555831
555869
555878
555909
555923
555935
555946
555963
555993
556037
556069
556104
556252
556282
556338
556385
556413
556473
556534
556558
556613
556628
556648
556857
557058
557081
557331
476828
555684
546299
476139
554060
545783
549878
550088
550301
550906
551211
551218
551840
552432
553994
554323
554382
554501
554605
554683
554808
554885
554911
554930
555112
555126
555200
555238
555341
555356
555476
555522
555585
555639
555670
555682
555714
555748
555777
555837
555842
555848
555941
555953
556044
556070
556117
556132
556190
556241
556287
556304
556322
556332
556346
556389
556545
556548
556556
556588
556683
556698
556838
556858
557009
557154
554354
557120
552731
549278
549478
549481
550591
550936
552020
552141
552351
553163
553490
553667
553703
553929
554003
554011
554159
554185
554214
554216
554529
554539
554818
554920
554956
554993
555088
555142
555219
555276
555328
555607
555620
555631
555637
555647
555667
555753
555847
555851
555855
555918
555983
556017
556028
556047
556114
556151
556159
556174
556242
556312
556393
556470
556508
556554
556568
556702
556721
556990
557510
558049
476321
555579
476395
548535
549579
550077
551814
552036
552538
552672
553261
553463
553464
553580
553776
554257
554289
554496
554516
554606
554658
554720
555032
555052
555194
555233
555269
555339
555460
555461
555484
555553
555645
555669
555673
555676
555721
555739
555785
555806
555807
555846
555854
555926
555931
555944
555956
555966
556056
556153
556168
556177
556228
556250
556276
556305
556334
556368
556371
556432
556527
556530
556574
556665
556666
556725
556745
556792
556898
556908
556918
475679
556973
556992
557005
557010
557059
557083
557097
557183
558034
549692
554157
551731
551016
553360
553801
553884
553902
554086
554193
554269
554288
554380
554422
554473
554481
554659
554792
554899
554905
554935
555051
555095
555131
555148
555183
555216
555226
555234
555239
555312
555413
555420
555468
555515
555524
555541
555547
555668
555747
555774
555808
555812
555965
556022
556025
556072
556087
556125
556128
556145
556148
556154
556210
556224
556261
556268
556330
556335
556355
556369
556386
556401
544970
556453
556583
556782
556789
556796
476650
476819
556994
557043
557193
557308
557519
557603
557733
476479
477631
475873
553690
475001
549866
549868
551221
552533
553064
553139
553551
553565
554182
554467
554650
554805
554943
554957
554994
555211
555271
555304
555332
555403
555422
555516
555530
555566
555568
555677
555719
555819
555821
555889
555916
555936
555943
555952
555992
556018
556043
556115
556191
556233
556259
556272
556348
556361
556451
556460
556538
556663
556675
556677
556687
556731
556740
556772
556856
556891
556916
556934
557174
557411
557579
557796
557933
558091
556092
558361
476299
477444
554511
478667
477275
547218
548239
549269
550800
552632
552956
553165
553276
553378
553395
553578
553976
554263
554619
554675
554712
554877
554927
555080
555274
555362
555427
555441
555550
555641
555657
555713
555755
555852
555901
556014
556033
556039
556041
556045
556058
556091
556143
556155
556203
556244
556300
556376
556395
556468
556476
556478
556500
556523
556594
556627
556690
556692
556704
556797
556909
556978
557014
557075
476904
557204
557206
557298
557437
557483
557591
557614
556197
476401
549363
550705
550900
552949
553048
554073
554371
554475