/*--------------------------------*- C++ -*----------------------------------*\
| =========                 |                                                 |
| \\      /  F ield         | OpenFOAM: The Open Source CFD Toolbox           |
|  \\    /   O peration     | Version:  2406                                  |
|   \\  /    A nd           | Website:  www.openfoam.com                      |
|    \\/     M anipulation  |                                                 |
\*---------------------------------------------------------------------------*/
FoamFile
{
    version     2.0;
    format      ascii;
    arch        "LSB;label=32;scalar=64";
    class       Cloud<dsmcParcel>;
    location    "0.011/lagrangian/dsmc";
    object      positions;
}
// * * * * * * * * * * * * * * * * * * * * * * * * * * * * * * * * * * * * * //

9421
(
(0.2723297138 0.08547232733 -4.33680869e-19) 85
(0.3008356353 0.1378269407 -1.355252716e-20) 329
(0.2775920751 0.07474682244 0) 26
(0.2897985986 0.1106439444 2.168404345e-19) 178
(0.2765629975 0.120446873 0) 266
(0.2489136012 0.06731598201 0) 22
(0.295202889 0.1213558285 0) 238
(0.2855193839 0.103756133 4.33680869e-19) 147
(0.28623551 0.1024054039 0) 147
(0.2545711568 0.08814571589 -1.084202172e-19) 113
(0.2903774259 0.1222940939 -2.168404345e-19) 268
(0.2716075694 0.07712880999 1.084202172e-19) 25
(0.2838707458 0.1284836844 0) 297
(0.2961766503 0.09422000317 2.168404345e-19) 88
(0.2579645328 0.07049177191 0) 23
(0.2763541156 0.08983497935 2.168404345e-19) 86
(0.290552208 0.09356855371 0) 88
(0.2380326381 0.07303333548 1.626303259e-19) 51
(0.2768151132 0.08272491797 -2.710505431e-19) 56
(0.2804885018 0.1078398921 4.33680869e-19) 176
(0.2947680623 0.09135037761 2.168404345e-19) 88
(0.2630363545 0.08833390128 2.168404345e-19) 114
(0.3019741689 0.09158237995 1.084202172e-19) 59
(0.3015262652 0.1204842743 2.168404345e-19) 239
(0.2952602926 0.1089225614 0) 178
(0.2899822207 0.1222890701 2.168404345e-19) 268
(0.2928868335 0.1114166622 2.168404345e-19) 178
(0.2779273409 0.07511490607 3.794707604e-19) 26
(0.2809044794 0.1209794963 0) 266
(0.2003055666 0.05935431191 1.084202172e-19) 16
(0.2392478964 0.09202043665 -1.084202172e-19) 141
(0.2480643736 0.07853226571 -2.168404345e-19) 82
(0.2536875729 0.123477744 -2.710505431e-19) 293
(0.2279117674 0.1002231688 0) 199
(0.272502076 0.1110819159 0) 205
(0.2979180163 0.09680370815 4.33680869e-19) 119
(0.2021774367 0.07782678024 -3.252606517e-19) 106
(0.3037968146 0.1129812136 0) 179
(0.2298966126 0.07865519041 0) 80
(0.2261485121 0.07413069861 -6.505213035e-19) 79
(0.2413126402 0.09126305282 1.084202172e-19) 141
(0.2812619581 0.1179319467 -2.168404345e-19) 236
(0.2721839047 0.07889571175 2.168404345e-19) 55
(0.2394354078 0.06823400331 5.421010862e-20) 21
(0.2557579054 0.1050836364 1.084202172e-19) 203
(0.2062903689 0.08771992376 -2.168404345e-19) 167
(0.2658124704 0.08928808836 0) 114
(0.2718191188 0.07942321294 -2.168404345e-19) 55
(0.3025242299 0.1185465325 2.168404345e-19) 209
(0.2843592772 0.1399986246 2.710505431e-19) 357
(0.2859534299 0.1046561938 -4.33680869e-19) 177
(0.2988127059 0.08684622732 -1.490777987e-19) 59
(0.2943279284 0.08544009811 4.33680869e-19) 58
(0.259540798 0.1153987093 -1.76182853e-19) 234
(0.2578107864 0.0958566882 -2.168404345e-19) 143
(0.3013154823 0.1110809065 0) 179
(0.2870408655 0.1449304425 0) 387
(0.2338581507 0.08123704731 0) 110
(0.2938927969 0.1138282376 1.084202172e-19) 208
(0.2692492885 0.09990176396 -4.33680869e-19) 145
(0.2973525605 0.1333249332 0) 299
(0.2935918833 0.08821996886 4.878909776e-19) 58
(0.2398481659 0.09654894038 -4.743384505e-20) 171
(0.2653408688 0.1060230317 -2.168404345e-19) 204
(0.2937154146 0.08003747195 -2.168404345e-19) 28
(0.2985479573 0.08249523749 0) 29
(0.279924315 0.08358076971 0) 56
(0.2763319215 0.07944023559 0) 26
(0.2711503587 0.08077289755 -1.084202172e-19) 55
(0.2405081972 0.0728493374 -5.421010862e-20) 51
(0.2915869663 0.1050319501 0) 148
(0.2804219408 0.09704516525 4.33680869e-19) 116
(0.2847939406 0.1122945054 -1.084202172e-19) 207
(0.3035765462 0.1088996087 2.168404345e-19) 179
(0.2850491955 0.07650683906 -1.626303259e-19) 27
(0.3020073499 0.09280369612 0) 89
(0.2377409773 0.08048428977 4.065758147e-19) 81
(0.2759150232 0.08865965552 1.084202172e-19) 86
(0.2497944124 0.08415808289 4.33680869e-19) 82
(0.2997832081 0.09146945803 1.084202172e-19) 89
(0.2463437184 0.08060836457 1.084202172e-19) 82
(0.2829764806 0.08506636658 2.168404345e-19) 57
(0.2341845786 0.06954394039 0) 50
(0.2037407981 0.06785856191 -2.168404345e-19) 76
(0.2846822404 0.1190725982 4.743384505e-20) 237
(0.2914526788 0.1331701055 0) 298
(0.2588740904 0.08289033408 -2.168404345e-19) 83
(0.2677540629 0.09594672061 -2.710505431e-19) 145
(0.2680026268 0.1062026158 0) 205
(0.2557664647 0.0934486665 1.084202172e-19) 143
(0.2810065679 0.1368439611 0) 326
(0.2965650754 0.09075163248 -2.168404345e-19) 88
(0.2847174193 0.1153782466 -2.168404345e-19) 207
(0.292585257 0.118318736 -5.421010862e-20) 238
(0.2957383773 0.09974977757 -2.168404345e-19) 118
(0.2609765323 0.112435585 1.084202172e-19) 234
(0.2814367127 0.1290153985 -2.168404345e-19) 296
(0.2795200934 0.0884367097 5.421010862e-20) 86
(0.2733286116 0.07855841177 -6.505213035e-19) 25
(0.2263936918 0.08176750507 1.084202172e-19) 109
(0.2957069923 0.08783910586 -2.168404345e-19) 58
(0.2501731608 0.07436578117 -2.168404345e-19) 52
(0.2539079174 0.08931756022 0) 113
(0.2341807226 0.0918597862 -1.084202172e-19) 140
(0.2705995863 0.09535485592 0) 145
(0.2330576976 0.07287813752 0) 50
(0.209649004 0.06276245671 -2.168404345e-19) 47
(0.2333943029 0.07575601308 0) 80
(0.2688800173 0.09617296359 1.084202172e-19) 145
(0.2484674766 0.07862361408 2.168404345e-19) 82
(0.3036169967 0.09585950565 2.168404345e-19) 89
(0.2453465789 0.09054466878 3.252606517e-19) 142
(0.2762594548 0.09247251606 -6.09863722e-20) 116
(0.2701597095 0.08679722651 -2.710505431e-20) 85
(0.2959657189 0.08501861397 0) 58
(0.2454408485 0.1144481526 -1.626303259e-19) 262
(0.2881953005 0.109395138 0) 177
(0.2538411246 0.07723890208 -5.421010862e-20) 53
(0.2051884914 0.06754451215 -2.168404345e-19) 76
(0.2177133895 0.07711103716 0) 108
(0.2681585598 0.08864060959 5.421010862e-19) 85
(0.2476020301 0.07067955276 2.168404345e-19) 22
(0.202761599 0.1084101674 2.168404345e-19) 256
(0.2960378483 0.1049226434 0) 148
(0.2670475209 0.09409108851 2.168404345e-19) 115
(0.2759926706 0.07422901077 0) 26
(0.2709566537 0.1058575806 -5.421010862e-20) 175
(0.2581647914 0.09656288824 0) 143
(0.169594495 0.1063030372 2.168404345e-19) 282
(0.2957015262 0.09029584626 4.33680869e-19) 88
(0.225234023 0.1058735016 4.878909776e-19) 229
(0.2504169512 0.07682794598 2.168404345e-19) 52
(0.296326139 0.09057721353 0) 88
(0.2928766722 0.1125888489 1.084202172e-19) 208
(0.2657329697 0.1242149564 1.084202172e-19) 294
(0.2690685384 0.07585602762 1.084202172e-19) 25
(0.2887853231 0.09835872875 0) 117
(0.2473790795 0.07448294617 -5.421010862e-20) 52
(0.2557719762 0.07880568196 -1.084202172e-19) 53
(0.2927040228 0.1258752563 -4.33680869e-19) 268
(0.2906707216 0.09860969227 1.084202172e-19) 118
(0.2449987072 0.07586987968 0) 52
(0.2938777514 0.1234439253 0) 268
(0.2511890243 0.08959067335 0) 112
(0.2879435122 0.1239898911 -1.626303259e-19) 267
(0.2567587169 0.0691810312 2.168404345e-19) 23
(0.2748756585 0.08378561577 0) 56
(0.288839488 0.1079206583 -2.032879073e-19) 177
(0.2317931561 0.1299171255 1.084202172e-19) 350
(0.2600048721 0.07229876903 2.168404345e-19) 24
(0.2906648851 0.1013739523 -1.084202172e-19) 148
(0.276028173 0.1048994648 4.33680869e-19) 176
(0.3021736454 0.1462957709 -6.505213035e-19) 359
(0.2873179985 0.08465387761 0) 57
(0.233690226 0.08245520584 1.084202172e-19) 110
(0.2511026232 0.07397236911 2.168404345e-19) 52
(0.2853238429 0.09254750837 0) 87
(0.2242411682 0.1617649638 2.168404345e-19) 498
(0.28349629 0.09564316068 1.016439537e-19) 117
(0.2609417485 0.07370334212 -3.252606517e-19) 24
(0.2994406135 0.1227211083 -1.084202172e-19) 239
(0.2312759693 0.1279363555 1.084202172e-19) 350
(0.2643596599 0.09870489856 0) 144
(0.282299319 0.08497522207 0) 57
(0.2407641153 0.1004980475 2.168404345e-19) 201
(0.2651490046 0.07536519023 0) 24
(0.2699333775 0.07794393332 0) 25
(0.2708054674 0.1028995171 0) 175
(0.2826270349 0.09736302214 0) 117
(0.2516865524 0.08347837786 0) 83
(0.278174266 0.08057473875 0) 56
(0.2698293613 0.08196897826 5.421010862e-20) 55
(0.2742838028 0.08006214718 -2.168404345e-19) 55
(0.2665317419 0.08290425657 4.33680869e-19) 84
(0.2922948045 0.1015922915 0) 148
(0.2584462533 0.08153234759 0) 83
(0.2910356878 0.09778451775 -1.626303259e-19) 118
(0.2785372623 0.09947807947 0) 146
(0.2486832103 0.0910051997 0) 142
(0.2487445967 0.08245435634 1.084202172e-19) 82
(0.2394252384 0.06736138764 0) 21
(0.2808565336 0.1141970087 -2.168404345e-19) 206
(0.2964484688 0.09587093991 0) 88
(0.2856742301 0.0944864178 2.032879073e-20) 117
(0.2982263756 0.08340103297 0) 29
(0.2898710378 0.09315621834 2.168404345e-19) 88
(0.2871713268 0.08407830488 0) 57
(0.2645816182 0.1073697342 1.084202172e-19) 204
(0.2738550079 0.08592714426 0) 85
(0.2300178781 0.0680956533 0) 50
(0.290154523 0.1189798021 2.168404345e-19) 238
(0.2863257632 0.09670524016 -2.710505431e-19) 117
(0.2731836764 0.07970170849 0) 55
(0.2882481968 0.07791902665 0) 27
(0.2711394747 0.0986503858 5.421010862e-20) 145
(0.2149999504 0.06339335121 -1.084202172e-19) 18
(0.2682275813 0.09749863539 0) 145
(0.2989278262 0.137270753 -3.252606517e-19) 329
(0.2348943122 0.07628408845 -2.168404345e-19) 80
(0.270436339 0.0869134384 0) 85
(0.2999651986 0.1329665154 4.33680869e-19) 299
(0.2650355831 0.09245300986 0) 114
(0.2572628855 0.08504290401 -2.168404345e-19) 83
(0.2929435355 0.08154184207 -2.710505431e-19) 28
(0.2888819523 0.08350140382 0) 57
(0.2691182311 0.08833623672 0) 85
(0.2367764274 0.07153310735 4.33680869e-19) 51
(0.2783798109 0.1330419597 -1.084202172e-19) 326
(0.2807350507 0.1402698535 2.168404345e-19) 356
(0.2826959534 0.1080067762 2.168404345e-19) 177
(0.1501303736 0.05505747204 1.084202172e-19) 69
(0.2810569288 0.08158056949 -2.168404345e-19) 56
(0.2544708346 0.08905383792 5.421010862e-20) 113
(0.2683888786 0.07371619624 -2.710505431e-19) 25
(0.2384633933 0.0876093944 3.252606517e-19) 141
(0.2570233273 0.0869543249 2.168404345e-19) 113
(0.2756652068 0.08828798175 -5.421010862e-20) 86
(0.182864648 0.06655223826 0) 73
(0.2956205032 0.09364566634 0) 88
(0.24453678 0.08445064161 3.252606517e-19) 112
(0.3014204385 0.1427774091 -2.168404345e-19) 359
(0.293389534 0.09488349951 1.829591166e-19) 88
(0.2564791627 0.07314626968 -1.084202172e-19) 23
(0.2373072366 0.1069212124 2.168404345e-19) 231
(0.2922768981 0.0967462391 -1.084202172e-19) 118
(0.2786773261 0.1062042333 5.421010862e-20) 176
(0.2842296801 0.1089442063 1.084202172e-19) 177
(0.2460370062 0.07456101443 0) 52
(0.2288575529 0.06156906821 2.710505431e-20) 20
(0.2654619712 0.11818393 -2.168404345e-19) 264
(0.2568361571 0.1379267754 -3.252606517e-19) 353
(0.2067455279 0.09022304471 3.252606517e-19) 167
(0.2395459978 0.08943109505 0) 141
(0.2802056424 0.07645740781 0) 26
(0.2838245422 0.1138968652 1.151964808e-19) 207
(0.2864536852 0.1203902343 1.626303259e-19) 237
(0.238284227 0.08820510215 -2.168404345e-19) 141
(0.2637755248 0.1053640319 -2.168404345e-19) 204
(0.2082689144 0.06326426705 1.084202172e-19) 47
(0.2422635827 0.07580184504 2.168404345e-19) 51
(0.3013837116 0.1428088779 1.084202172e-19) 359
(0.284578212 0.08813634228 -1.084202172e-19) 87
(0.2638317108 0.1295976684 3.252606517e-19) 324
(0.1733939347 0.04969391458 -2.168404345e-19) 12
(0.3024375802 0.1036124587 0) 149
(0.2636711942 0.1133085802 1.084202172e-19) 234
(0.2830755784 0.08696645759 0) 57
(0.288593595 0.09447752065 0) 117
(0.287480234 0.1129109237 0) 207
(0.2143953978 0.07456137708 0) 78
(0.2583031968 0.1006941749 1.355252716e-19) 173
(0.2705234572 0.1076731166 -2.168404345e-19) 205
(0.2919434698 0.08004256509 -5.421010862e-20) 28
(0.2607845954 0.08235018685 0) 84
(0.2158127448 0.06667008332 0) 48
(0.2461643136 0.08860038776 0) 112
(0.2891014573 0.0842039129 0) 57
(0.273637609 0.08891904142 -2.168404345e-19) 85
(0.2450429786 0.07351233948 -1.084202172e-19) 52
(0.2995310368 0.08196637684 3.896351557e-20) 29
(0.2758920956 0.07793199192 0) 26
(0.3012882671 0.0906740089 -2.439454888e-19) 59
(0.2841674885 0.08730679756 4.33680869e-19) 57
(0.2776000008 0.09403744139 0) 116
(0.2250905044 0.09267659062 -2.710505431e-19) 169
(0.2349764186 0.08851781141 0) 140
(0.2763294434 0.08164456457 0) 56
(0.2880656026 0.07959564672 -5.421010862e-20) 27
(0.2846225744 0.0853729906 2.168404345e-19) 57
(0.2583754321 0.1009109757 -1.016439537e-19) 173
(0.3044210694 0.1568340979 -2.168404345e-19) 419
(0.2769056459 0.1257496052 6.505213035e-19) 296
(0.2764234606 0.08892433098 -3.252606517e-19) 86
(0.2160013514 0.06635328027 -2.710505431e-20) 48
(0.2630688665 0.1001200141 -2.168404345e-19) 174
(0.1857975275 0.04997507018 3.252606517e-19) 14
(0.2416543985 0.06482783122 0) 21
(0.2236882567 0.09757090506 0) 199
(0.2616120765 0.1530911138 -5.421010862e-20) 444
(0.2629534767 0.1134244648 4.133520783e-19) 234
(0.2081346385 0.08040242447 0) 137
(0.2579105211 0.09937525629 -4.33680869e-19) 173
(0.2621030707 0.07400348964 -2.710505431e-20) 24
(0.2917245316 0.09641230507 2.134523027e-19) 118
(0.2965328498 0.09825224662 2.168404345e-19) 118
(0.1765687104 0.05615856635 1.084202172e-19) 43
(0.2329606586 0.06917499305 0) 50
(0.2500186002 0.08503360441 0) 112
(0.2649102406 0.08014731682 -2.168404345e-19) 54
(0.2347489173 0.06868368596 0) 20
(0.2433860015 0.09166389148 2.168404345e-19) 141
(0.202202532 0.0739044433 0) 106
(0.2473871141 0.0851619012 -1.626303259e-19) 112
(0.3022615719 0.08603525331 -1.084202172e-19) 29
(0.2853383176 0.1122624688 1.626303259e-19) 207
(0.2974863637 0.08060969799 2.168404345e-19) 29
(0.2496954662 0.07240690954 4.33680869e-19) 22
(0.2620740884 0.08823075346 5.421010862e-20) 114
(0.3033851249 0.1043522245 0) 149
(0.2291496554 0.09785132192 -2.710505431e-20) 200
(0.2537812827 0.08382131731 -1.897353802e-19) 83
(0.1644724121 0.05009067687 1.626303259e-19) 11
(0.241866432 0.09103749768 -8.131516294e-20) 141
(0.257370276 0.09192802382 2.168404345e-19) 113
(0.2790325614 0.09032396937 1.084202172e-19) 86
(0.230337304 0.07383980587 -2.168404345e-19) 80
(0.2416140423 0.09325152508 1.084202172e-19) 141
(0.2214445364 0.09484182635 2.168404345e-19) 169
(0.2777799207 0.09762824653 0) 146
(0.2897459024 0.1096096006 2.168404345e-19) 178
(0.2492921183 0.1067448538 0) 202
(0.2879225303 0.1255650067 0) 267
(0.2884933862 0.0976377587 0) 117
(0.2430371347 0.06692923726 -2.168404345e-19) 21
(0.2877334475 0.1258031198 4.33680869e-19) 267
(0.2972577061 0.1447411302 0) 359
(0.2727995678 0.1308898298 2.168404345e-19) 325
(0.2929858224 0.09200495218 -1.084202172e-19) 88
(0.3045834538 0.08720075363 4.33680869e-19) 59
(0.2744498528 0.08082661306 2.168404345e-19) 56
(0.2918658306 0.08527719471 5.421010862e-19) 58
(0.246335997 0.1064103459 -2.168404345e-19) 202
(0.2947800092 0.08613751822 -1.084202172e-19) 58
(0.2887506162 0.09390772094 2.168404345e-19) 87
(0.285789894 0.08738868738 -3.489775743e-19) 57
(0.2841988696 0.1287053698 -1.084202172e-19) 297
(0.2690980176 0.09017884938 0) 115
(0.2196461 0.09136895588 -2.168404345e-19) 168
(0.2796719885 0.0948617203 1.084202172e-19) 116
(0.2263970006 0.08253403249 0) 109
(0.2409395463 0.0718630126 0) 51
(0.2808531853 0.09064425505 -2.168404345e-19) 86
(0.2095293201 0.05618409366 -2.693564772e-19) 17
(0.2387662344 0.09731075922 2.168404345e-19) 171
(0.26303036 0.08381959747 0) 84
(0.2114966196 0.06524082423 -1.084202172e-19) 47
(0.2468354995 0.08866977679 2.168404345e-19) 112
(0.2794637997 0.1211119748 0) 266
(0.2550949112 0.0803331688 -2.710505431e-20) 83
(0.2857521769 0.09550830628 1.084202172e-19) 117
(0.238457413 0.09697455792 5.421010862e-20) 171
(0.2702314527 0.1531171378 1.084202172e-19) 445
(0.2783349846 0.1248457789 1.626303259e-19) 266
(0.3027854484 0.1159184561 -5.421010862e-19) 209
(0.2434789488 0.09315698212 0) 141
(0.2762411272 0.08411187997 -8.131516294e-20) 56
(0.2544847441 0.1016309936 -1.084202172e-19) 173
(0.2955884235 0.09549987223 -2.168404345e-19) 88
(0.2717297768 0.08724711565 0) 85
(0.2147140636 0.0922325787 0) 168
(0.2540736234 0.08012688647 -2.168404345e-19) 83
(0.2387332542 0.07146838227 1.084202172e-19) 51
(0.208476476 0.09479673487 9.486769009e-20) 197
(0.2614787877 0.0874612433 1.084202172e-19) 114
(0.2783109791 0.08327627374 -2.710505431e-19) 56
(0.2307998009 0.06302279844 2.168404345e-19) 20
(0.2373006955 0.08541101889 0) 111
(0.2132617834 0.09154759256 -4.33680869e-19) 167
(0.293288387 0.09157271308 -1.355252716e-19) 88
(0.28659647 0.09671800171 -5.421010862e-20) 117
(0.2405143528 0.1167736613 -3.252606517e-19) 261
(0.2685162761 0.1135412491 -8.131516294e-20) 235
(0.2827564069 0.09556162534 -4.607859233e-19) 117
(0.239152083 0.07569876911 0) 51
(0.2980274494 0.1022284365 -2.168404345e-19) 149
(0.2412279477 0.08488265563 2.168404345e-19) 111
(0.3003703383 0.1115690059 0) 179
(0.2254764735 0.09528162998 5.421010862e-20) 169
(0.2090701533 0.07298350062 -1.084202172e-19) 77
(0.2652012591 0.1214685815 -2.168404345e-19) 264
(0.2766641849 0.1057457515 -3.252606517e-19) 176
(0.295035684 0.1379254173 -1.084202172e-19) 328
(0.2512495968 0.07762214755 0) 52
(0.2408096416 0.09709355068 -5.421010862e-20) 171
(0.2079077369 0.09356116589 -1.084202172e-19) 197
(0.2717216156 0.08362765157 -2.168404345e-19) 55
(0.2577057725 0.08407048458 4.33680869e-19) 83
(0.1991227333 0.06614663642 -2.168404345e-19) 76
(0.1550960272 0.0469468985 0) 10
(0.2598103658 0.08355303873 -2.168404345e-19) 84
(0.2972147786 0.09324579431 0) 89
(0.2463220793 0.07672118204 1.084202172e-19) 52
(0.232852897 0.06512494958 -8.131516294e-20) 20
(0.2666999655 0.09875844046 0) 144
(0.2809280355 0.1172304477 -2.168404345e-19) 236
(0.2973049004 0.1240752203 2.168404345e-19) 269
(0.1837574606 0.07516819461 -8.131516294e-20) 134
(0.2207234348 0.06409631879 -4.33680869e-19) 18
(0.2961641089 0.08616972211 -2.168404345e-19) 58
(0.2593041683 0.08504118698 -1.084202172e-19) 84
(0.2786236911 0.07722418307 0) 26
(0.1949992966 0.08329262702 0) 165
(0.2035244298 0.08256656532 0) 136
(0.2400023517 0.08235482052 3.896351557e-20) 111
(0.2532282165 0.1166428019 -4.33680869e-19) 263
(0.2159015562 0.07129318005 0) 78
(0.2536745021 0.07217936149 1.355252716e-20) 23
(0.1755027266 0.04826419177 5.421010862e-19) 13
(0.2701622591 0.1220503331 -2.168404345e-19) 265
(0.2723140989 0.08955035458 0) 85
(0.2468653464 0.06804672898 5.421010862e-20) 22
(0.2523105225 0.08256147211 1.084202172e-19) 83
(0.2907519318 0.1024890784 2.168404345e-19) 148
(0.2638451301 0.0865179025 0) 84
(0.2227637501 0.07336000804 -4.065758147e-19) 79
(0.2891709661 0.1107887519 4.33680869e-19) 177
(0.2696971544 0.07563392976 -1.084202172e-19) 25
(0.2193172993 0.05896600496 0) 18
(0.2851133942 0.1188552727 -2.032879073e-20) 237
(0.1256263395 0.06773298115 -2.168404345e-19) 156
(0.2706105291 0.09188731865 -2.168404345e-19) 115
(0.2654957374 0.09213325032 2.168404345e-19) 114
(0.2867932344 0.1401120044 3.252606517e-19) 357
(0.2800424922 0.09321498659 2.168404345e-19) 116
(0.2219651761 0.1041465145 2.168404345e-19) 229
(0.2859970406 0.1238982604 -1.626303259e-19) 267
(0.2567172953 0.1103128064 0) 233
(0.1992176415 0.1137412973 -2.168404345e-19) 286
(0.2809923714 0.08947431049 0) 86
(0.259280818 0.09155442431 0) 114
(0.1900367661 0.0593695677 1.084202172e-19) 44
(0.2405631302 0.07537268834 -1.626303259e-19) 51
(0.223009931 0.0825377137 -1.626303259e-19) 109
(0.2854026711 0.09891985261 -8.131516294e-20) 147
(0.2595026567 0.1099212433 2.168404345e-19) 234
(0.2412977095 0.07937086412 -1.084202172e-19) 81
(0.2212422631 0.08729296593 0) 139
(0.2961591435 0.08078490652 0) 28
(0.2692305337 0.1434817035 1.084202172e-19) 385
(0.2499018159 0.1526292912 0) 442
(0.2487429561 0.09946256025 1.084202172e-19) 172
(0.2606675121 0.1141736682 1.084202172e-19) 234
(0.207586578 0.1143453779 -2.710505431e-19) 287
(0.2263134215 0.067032861 -4.33680869e-19) 49
(0.2842222784 0.08479814745 1.626303259e-19) 57
(0.2090855816 0.06362104638 -1.626303259e-19) 47
(0.2608016492 0.1197096237 -2.168404345e-19) 264
(0.1891131177 0.1151340425 2.168404345e-19) 314
(0.2683370349 0.122996117 2.168404345e-19) 265
(0.2792344283 0.1313809463 0) 326
(0.2868794017 0.1015232421 5.421010862e-20) 147
(0.2849520562 0.1387323425 -5.421010862e-20) 357
(0.2304564928 0.07585168489 0) 80
(0.2258398467 0.07400018436 0) 79
(0.2379330713 0.07564325285 2.168404345e-19) 81
(0.2228756251 0.1144262875 0) 289
(0.278476102 0.08322184864 5.421010862e-20) 56
(0.2681761985 0.08999755419 2.168404345e-19) 115
(0.2575925427 0.1071734998 4.33680869e-19) 203
(0.2111919096 0.06232542635 0) 17
(0.1870129317 0.05712284474 -2.168404345e-19) 44
(0.2229913488 0.08106974294 3.523657061e-19) 109
(0.3007983452 0.1474415842 -2.032879073e-19) 389
(0.223376301 0.09444374976 1.626303259e-19) 169
(0.3001002861 0.09255980852 1.084202172e-19) 89
(0.2531205708 0.07187067822 0) 23
(0.245940279 0.07958972305 1.626303259e-19) 82
(0.217205009 0.08725832022 1.456896669e-19) 138
(0.1733387814 0.08904854586 0) 192
(0.2562008262 0.07127376771 2.710505431e-20) 23
(0.2617421964 0.08016196173 0) 54
(0.231372396 0.0961704569 -1.084202172e-19) 170
(0.2046950335 0.06331894005 -1.084202172e-19) 46
(0.2764297457 0.07449529969 2.168404345e-19) 26
(0.3001983973 0.09857413942 -2.168404345e-19) 119
(0.2715497023 0.07666115228 2.168404345e-19) 25
(0.1930804522 0.07248874143 -2.032879073e-20) 105
(0.1708167078 0.05823724145 -2.168404345e-19) 42
(0.2350857168 0.1084923295 0) 230
(0.2531897875 0.08545806687 4.33680869e-19) 113
(0.2767520815 0.1583791155 -2.168404345e-19) 446
(0.2819465266 0.1073436588 1.084202172e-19) 177
(0.2515368385 0.08753488724 -4.33680869e-19) 113
(0.1633666823 0.07162956562 0) 131
(0.1506523758 0.06628044935 4.33680869e-19) 99
(0.2935562099 0.08702588337 2.168404345e-19) 58
(0.2606742722 0.113093233 5.421010862e-20) 234
(0.295233505 0.1195528518 4.33680869e-19) 238
(0.2205464369 0.08116255859 -2.168404345e-19) 108
(0.2848741937 0.09647769655 -5.421010862e-20) 117
(0.2892127359 0.0859312039 0) 57
(0.2819965749 0.0895727446 -4.33680869e-19) 87
(0.2111642029 0.08596077486 -1.084202172e-19) 137
(0.2669111153 0.08401000207 -1.084202172e-19) 85
(0.2758893 0.09859528087 0) 146
(0.2127437947 0.07443507563 -2.168404345e-19) 77
(0.2183811346 0.07883786204 0) 108
(0.299494548 0.1228576834 -1.626303259e-19) 239
(0.2806029902 0.08231528849 -2.168404345e-19) 56
(0.2966093358 0.09645441591 -2.168404345e-19) 118
(0.2046551693 0.06583777969 6.505213035e-19) 46
(0.2956760785 0.08421350517 -2.168404345e-19) 28
(0.2385175325 0.07181877937 0) 51
(0.1394550877 0.04338727165 -1.084202172e-19) 8
(0.1679826825 0.05297464528 2.168404345e-19) 42
(0.2776298613 0.1619550342 -4.065758147e-20) 476
(0.1720079003 0.05103481102 1.084202172e-19) 12
(0.2899920159 0.1064071461 1.084202172e-19) 178
(0.2967611313 0.1297776501 0) 298
(0.2334710084 0.1073491908 -1.084202172e-19) 230
(0.2463347781 0.07192738647 0) 52
(0.1793187213 0.08016121533 0) 163
(0.2839948276 0.1055013858 -1.084202172e-19) 177
(0.2949924098 0.0883882024 2.168404345e-19) 58
(0.2256570276 0.1282367563 2.168404345e-19) 349
(0.2002477383 0.1112629962 5.421010862e-20) 286
(0.248034734 0.1141257063 0) 262
(0.2423856754 0.09823310074 0) 171
(0.2455508125 0.09551417393 2.168404345e-19) 172
(0.3046641028 0.09704076458 -4.33680869e-19) 89
(0.1922709089 0.06802283545 1.084202172e-19) 75
(0.1885043677 0.05444290112 0) 14
(0.2054047645 0.06506588473 0) 46
(0.1762557862 0.08815075755 -2.168404345e-19) 193
(0.1955225293 0.08418321736 0) 165
(0.28483377 0.1045728144 -1.084202172e-19) 177
(0.2285301705 0.07697717414 0) 79
(0.2733613582 0.0746893287 -2.168404345e-19) 25
(0.2905756023 0.1196606591 1.084202172e-19) 238
(0.2929693707 0.116399588 -2.168404345e-19) 208
(0.1963431456 0.104993239 -4.33680869e-19) 255
(0.2023004825 0.07908464284 -2.168404345e-19) 136
(0.2523102744 0.1205503647 -4.912791094e-20) 293
(0.2713915545 0.09396712452 -2.168404345e-19) 115
(0.2276440208 0.07733330805 -2.168404345e-19) 79
(0.2620735616 0.1029093553 -2.168404345e-19) 174
(0.2741439713 0.09919828826 0) 145
(0.1869438892 0.07415789001 -1.084202172e-19) 104
(0.1693398679 0.08370818263 2.168404345e-19) 192
(0.1864630618 0.08163862599 1.626303259e-19) 164
(0.2241649126 0.07924612655 -7.047314121e-19) 109
(0.2620284386 0.07453413003 0) 24
(0.2865968063 0.09287111371 -1.626303259e-19) 87
(0.2464161965 0.09601410209 2.168404345e-19) 172
(0.2395873414 0.09501351483 1.897353802e-19) 171
(0.2983309514 0.1095459201 -1.084202172e-19) 179
(0.2137598491 0.06466188583 0) 48
(0.2224541041 0.0677864675 -1.084202172e-19) 49
(0.284911885 0.1518351358 1.43995601e-20) 417
(0.2988460015 0.0870878425 -1.897353802e-19) 59
(0.2868845182 0.0872589733 0) 57
(0.2483836647 0.09888454277 -1.084202172e-19) 172
(0.1979438217 0.0675622698 0) 75
(0.199293226 0.1237204393 -2.168404345e-19) 346
(0.2238704908 0.07188659626 0) 49
(0.278280975 0.1224047434 6.776263578e-21) 266
(0.1517777059 0.05070604861 2.168404345e-19) 39
(0.2413142152 0.06700174494 -1.626303259e-19) 21
(0.2355652152 0.1200200066 -2.168404345e-19) 290
(0.1986040384 0.1358480461 -2.168404345e-19) 406
(0.2905604062 0.1308350387 1.084202172e-19) 298
(0.2447183789 0.07059971095 2.168404345e-19) 22
(0.1843094538 0.06708425937 5.421010862e-19) 74
(0.2691275033 0.08685519924 -5.421010862e-20) 85
(0.266561688 0.09133467747 3.252606517e-19) 114
(0.1779162626 0.06569789241 0) 73
(0.2039760692 0.06753281012 -4.33680869e-19) 76
(0.2999146219 0.1193867501 0) 239
(0.2329172417 0.08484420604 0) 110
(0.2023769968 0.06357616017 -5.421010862e-20) 46
(0.2740047529 0.1504741284 -4.33680869e-19) 415
(0.2318616399 0.1374111306 2.710505431e-19) 380
(0.2267842035 0.0990244649 0) 199
(0.2719049025 0.113932483 -2.168404345e-19) 235
(0.2716318451 0.1342952662 -2.168404345e-19) 325
(0.2547301827 0.1172362469 1.355252716e-20) 263
(0.2745356483 0.1249168106 -2.168404345e-19) 296
(0.292228996 0.1198237713 4.33680869e-19) 238
(0.249840156 0.08761550226 0) 112
(0.2795116715 0.1227323876 2.168404345e-19) 266
(0.2940746983 0.1103227021 -2.168404345e-19) 178
(0.1890212531 0.0618032012 0) 44
(0.2129791348 0.06301912881 -2.168404345e-19) 17
(0.210925137 0.06036781503 -1.084202172e-19) 17
(0.2778363435 0.1075498668 0) 176
(0.1657813365 0.0560352965 -2.168404345e-19) 41
(0.252323987 0.08863274382 0) 113
(0.2429016406 0.08603807782 0) 111
(0.2180274643 0.1277763042 2.710505431e-20) 348
(0.2871119853 0.0968295551 -2.168404345e-19) 117
(0.2248868091 0.06049044887 0) 19
(0.2858289725 0.1362302859 -1.084202172e-19) 327
(0.2539187156 0.07857353453 -1.084202172e-19) 53
(0.267756613 0.07199328788 -2.168404345e-19) 25
(0.2959952579 0.09557377001 0) 88
(0.2678651823 0.08022546076 0) 55
(0.2738338219 0.1409101049 0) 355
(0.2481300042 0.06711127428 0) 22
(0.1555045758 0.05068517966 5.421010862e-20) 40
(0.2745483671 0.1412240778 2.168404345e-19) 356
(0.2384841401 0.1115781239 -2.168404345e-19) 261
(0.2121107264 0.0791852564 -4.33680869e-19) 107
(0.2240667275 0.07003562508 1.626303259e-19) 49
(0.2347925761 0.09522900348 -2.710505431e-20) 170
(0.2056632337 0.07083607769 0) 76
(0.2403563544 0.07333098168 0) 51
(0.3010009401 0.09334592737 -1.084202172e-19) 89
(0.1593207004 0.04655182066 -2.168404345e-19) 10
(0.2674490527 0.1265584852 -2.168404345e-19) 295
(0.301133254 0.09889408667 -1.084202172e-19) 119
(0.2567206044 0.08654044649 -2.168404345e-19) 113
(0.288152629 0.1632824013 5.421010862e-20) 477
(0.2651655977 0.1028469074 2.168404345e-19) 174
(0.270504791 0.1098840376 0) 205
(0.2566802928 0.1113956328 -1.084202172e-19) 233
(0.3017370107 0.08341956009 0) 29
(0.2777623816 0.09331039371 0) 116
(0.2250620368 0.08096143116 -1.626303259e-19) 109
(0.3002076658 0.1229765524 0) 239
(0.2016212041 0.09554164754 1.084202172e-19) 196
(0.1780895889 0.05997010791 -2.168404345e-19) 43
(0.2984001 0.1096852144 0) 179
(0.2846165599 0.08767748655 0) 87
(0.3016943481 0.126882017 -5.421010862e-20) 269
(0.2914894423 0.1389652318 0) 328
(0.247834451 0.1292869106 3.117081246e-19) 322
(0.1605155832 0.06298237454 3.252606517e-19) 101
(0.2866966187 0.0770289383 0) 27
(0.2392045815 0.1059443865 -2.710505431e-19) 231
(0.2597829852 0.07292957225 -4.33680869e-19) 24
(0.2362917964 0.06689863932 -5.421010862e-20) 21
(0.2261732017 0.08614022829 0) 139
(0.2746330299 0.0964724995 -1.067261514e-19) 146
(0.3012222698 0.1131999561 2.439454888e-19) 179
(0.2809872018 0.126878862 4.33680869e-19) 296
(0.2783728171 0.08173622104 0) 56
(0.2506358018 0.1217312682 0) 292
(0.2176820986 0.06310550503 1.084202172e-19) 18
(0.2848147654 0.1150113704 2.168404345e-19) 207
(0.2120570994 0.09229746168 2.168404345e-19) 167
(0.2818844649 0.1086792223 0) 176
(0.2584508138 0.09810157431 -4.33680869e-19) 173
(0.2908689129 0.08490767616 -5.421010862e-20) 58
(0.2495887854 0.0810767552 2.168404345e-19) 82
(0.2181188223 0.1006365939 3.252606517e-19) 198
(0.2169818716 0.1033116785 -2.439454888e-19) 228
(0.2598304577 0.1105147047 -2.642742795e-19) 234
(0.2969086918 0.09708407915 2.168404345e-19) 118
(0.2391384719 0.06986518625 -2.168404345e-19) 21
(0.2144454087 0.06649435049 0) 48
(0.1650551451 0.07062704423 2.168404345e-19) 131
(0.2343087247 0.08519124758 0) 110
(0.2593597269 0.08445603499 -5.421010862e-20) 84
(0.2867230897 0.09691871526 0) 117
(0.2425279192 0.06944429263 2.168404345e-19) 21
(0.256479692 0.07124493142 5.421010862e-20) 23
(0.2702868415 0.1613258806 -3.252606517e-19) 475
(0.2515915693 0.1123572751 -2.168404345e-19) 233
(0.1255538806 0.03758847783 5.421010862e-20) 6
(0.2403588516 0.09206165821 0) 141
(0.2684854966 0.09619177706 0) 145
(0.303728039 0.1120631037 2.168404345e-19) 179
(0.2975866895 0.1387216716 1.084202172e-19) 329
(0.2485495851 0.1133142915 4.33680869e-19) 262
(0.2959823848 0.1227023695 0) 238
(0.2989397972 0.1401198206 -2.168404345e-19) 329
(0.2805985698 0.09795946876 -2.168404345e-19) 146
(0.2527438932 0.09123019154 0) 143
(0.1855410193 0.07917680832 -5.421010862e-20) 134