/*--------------------------------*- C++ -*----------------------------------*\
| =========                 |                                                 |
| \\      /  F ield         | OpenFOAM: The Open Source CFD Toolbox           |
|  \\    /   O peration     | Version:  2406                                  |
|   \\  /    A nd           | Website:  www.openfoam.com                      |
|    \\/     M anipulation  |                                                 |
\*---------------------------------------------------------------------------*/
FoamFile
{
    version     2.0;
    format      ascii;
    arch        "LSB;label=32;scalar=64";
    class       vectorField;
    location    "0.011/lagrangian/dsmc";
    object      U;
}
// * * * * * * * * * * * * * * * * * * * * * * * * * * * * * * * * * * * * * //


9421
(
(1076.044845 725.2334352 -295.2302009)
(469.1312037 1074.787775 374.8563231)
(289.4298053 -149.4023687 431.6402424)
(1101.261538 409.0658573 312.592872)
(994.2049058 968.6696011 233.3155925)
(250.2406107 69.81029713 55.27819862)
(854.3685312 561.9724765 317.3519518)
(1630.257953 334.8065022 180.7758728)
(824.9593354 301.4813541 -1143.930019)
(341.8942675 577.0332836 -261.7185017)
(1329.174464 290.9635291 -416.8257147)
(224.3456989 481.1516975 503.3027049)
(591.470036 689.6235578 -919.2700108)
(405.3164463 445.6931956 872.6129253)
(261.3170818 -205.6115153 -1163.503897)
(79.08391087 -435.7441022 -971.4725113)
(844.3229187 -464.8333637 755.7579497)
(409.0911622 614.1778083 181.3878062)
(-103.6228202 -616.9184912 756.0008955)
(657.6517852 -563.7572634 -842.4930755)
(681.7386816 -251.6333605 1180.318694)
(18.34616887 278.2983601 305.3756058)
(1215.544247 -755.7050423 224.3474293)
(1708.810835 946.5556979 -429.9650684)
(235.8780229 281.7115967 351.6806775)
(1214.806628 299.2778585 -256.0111236)
(123.1723866 86.47029465 -389.876888)
(625.9940368 350.402155 -365.4901856)
(233.6980833 1109.427091 -211.7343416)
(1202.145998 685.7119092 232.9416852)
(20.02667821 -264.9754087 -61.74687712)
(267.6958291 243.9072699 -655.5545649)
(-290.9627818 -103.7344525 -597.5475545)
(394.149283 334.4739283 -644.9600664)
(142.1084783 -292.2288998 242.3288542)
(669.5308512 262.0945664 -172.9048381)
(903.1152003 -207.9986374 252.412933)
(919.8045685 -47.30855495 345.3456369)
(541.1605528 -0.23458933 75.93234139)
(655.9574438 706.7334229 -688.8085185)
(868.0019659 -795.6615274 881.5939675)
(1480.966016 199.2052882 -329.3168767)
(-302.7412228 335.3114505 -239.9449476)
(410.8903354 -67.36617811 1266.403336)
(1214.121899 325.1676201 -76.87453323)
(112.0261926 1050.719471 -15.53652116)
(453.3636042 -251.2490297 698.3919132)
(153.1439968 82.79714557 -385.0400812)
(459.6190906 722.8287244 596.3814415)
(894.1618524 101.3980403 -307.5853929)
(397.8068744 714.2017036 653.6733604)
(786.6485901 -725.2423215 -73.49862536)
(-205.9926603 480.8949555 116.7469807)
(622.7820556 791.6170196 106.9280177)
(639.7967714 159.5513116 39.51116028)
(197.281678 84.15931504 -268.4949337)
(869.3198119 807.7202006 376.4914258)
(153.4947516 10.24817848 -189.4647839)
(965.5705185 1385.302833 840.3869318)
(397.0303704 370.3935183 -675.7738346)
(1379.446809 213.9088389 355.9492561)
(647.0446006 -414.6428138 -303.822718)
(1617.930432 -130.5549529 -406.0460084)
(903.4932396 489.4453974 898.8819256)
(435.6111022 362.2879865 -95.38070197)
(-106.862396 103.3025106 194.314014)
(289.984505 871.713088 -226.49883)
(-96.39397508 240.1266123 116.3515912)
(100.6246977 -731.4811869 -209.8379248)
(-495.7600668 205.8678086 844.675792)
(534.0281672 185.7364459 544.7250986)
(839.4254111 390.6995389 -152.146208)
(134.473731 701.5612411 616.5758008)
(1130.100721 664.3683159 -379.9565966)
(-111.3194244 607.7190993 -953.9028355)
(538.3894235 480.7650723 -189.5954473)
(-82.3597524 521.4560954 -123.6788589)
(790.7814646 323.5188557 -20.56168001)
(696.9838184 16.02575798 -112.7967364)
(255.1235176 434.2201645 430.5728873)
(-34.04023243 657.6619778 -29.31609166)
(-303.9721825 558.2340203 -378.8059915)
(-627.4261234 233.4240631 271.454541)
(206.9872154 486.4891964 -231.8625488)
(875.9593727 440.0928622 -85.09722524)
(1732.111908 1030.70535 949.4494272)
(77.77005769 465.2050191 -233.155338)
(-70.82570566 1212.577942 -408.7665631)
(1149.176949 63.56380125 95.70760703)
(106.6050414 -414.1097591 -458.3739918)
(1101.277937 120.8615453 556.7162198)
(411.4815659 230.0021863 -358.8264256)
(25.37181324 596.2536231 62.84570014)
(1164.981441 771.2506706 -703.6568099)
(-100.802768 554.1764869 -632.2578732)
(804.8251919 662.0363687 17.64889251)
(712.2866728 672.3090214 336.8894019)
(290.6413219 484.18935 -43.26505369)
(-264.3592493 405.8567864 -282.1204925)
(1366.438504 -42.67354356 15.55381393)
(920.5883408 219.9739825 -23.29731829)
(-284.2060558 206.2574891 -255.8026601)
(-140.6375684 -72.15400334 44.64911088)
(465.6534185 1658.42226 996.1898033)
(800.272126 1192.956879 -710.8876469)
(130.2202066 186.3597165 505.7513975)
(863.7192108 -548.8253473 547.0328226)
(481.0941484 -102.1992196 -435.9226087)
(1323.983991 553.6187602 -221.5469631)
(801.2945989 267.3728221 -163.7946516)
(633.8586883 -62.18229215 378.3688766)
(174.172178 402.5653904 208.5882624)
(1120.725322 867.8441327 -729.7881123)
(-59.24354908 129.8231856 910.1597456)
(600.2303869 391.6973416 -68.90717395)
(953.3785039 -74.8126063 -416.3360658)
(372.6649657 632.7094696 15.27910507)
(279.6882135 274.4928483 317.819324)
(603.1314292 251.194921 56.69512231)
(773.3024038 71.17438007 -290.1196739)
(609.9496129 323.4377034 -686.7815699)
(309.3149945 -246.0197787 151.9270372)
(230.3297572 720.8795182 -86.64113319)
(827.4568622 495.9491598 283.2667074)
(501.7628096 514.5061964 -183.9859685)
(-289.5593022 160.5613398 348.3453659)
(1298.328244 -213.1872828 -144.0875886)
(174.741674 321.715919 -275.1963516)
(2084.03139 170.4573371 -477.4065572)
(598.7723349 1003.781828 62.23079636)
(64.33388475 1159.656329 -1024.707594)
(119.7143341 227.7482967 575.811117)
(563.5537044 251.480253 -720.8785767)
(642.6281941 1187.814233 113.5411629)
(2161.355806 969.4812511 897.2999425)
(684.4696909 465.2457833 147.4071529)
(604.3561139 116.9405736 -423.1367824)
(145.6756476 -317.3227697 -636.2526385)
(292.032848 444.0229521 0.03409651672)
(1425.844911 -81.97033884 -302.8305046)
(789.071037 -780.5990094 230.0435258)
(1060.913193 -295.6720872 -409.6529132)
(1391.287728 301.7179213 342.4460719)
(929.2585988 338.4712449 296.3233156)
(1189.048922 501.9667562 -264.0152034)
(-420.2966716 80.49637292 -469.0079532)
(685.8199834 -305.0453325 -271.1943858)
(713.485312 578.9022855 -393.1463431)
(1035.403968 1110.158792 978.8853558)
(-136.3558765 123.8760215 -1042.636552)
(662.5140971 -456.9668447 574.1894176)
(1826.630607 560.0799733 -520.8376379)
(2064.716926 444.2580242 -613.4873464)
(372.469349 -38.15440524 96.83559587)
(115.3920507 33.69633591 -443.1546901)
(992.67443 -413.1160189 -384.1009366)
(146.3169536 -278.3502983 612.4532709)
(499.925772 735.7827734 -143.5161984)
(82.03500323 -30.79489168 -105.2175785)
(910.9446706 -77.83305266 -177.2295151)
(988.5730479 10.28888788 188.6637109)
(37.47622987 1442.674838 884.0719013)
(1820.391475 -335.6182786 -184.0269175)
(335.0367457 539.7343932 -624.6591782)
(-340.7763553 377.1976011 960.9855478)
(7.334264734 331.4389022 398.0230662)
(-195.2100829 -135.0059338 -618.8059084)
(1070.443613 136.1113779 -82.15853622)
(311.8289442 754.3544061 -1261.413934)
(-286.1893558 542.2878123 40.84841195)
(213.2423692 751.4067874 327.2510747)
(-705.1330778 622.4029048 19.82641246)
(152.5792816 -152.3273909 53.39775554)
(449.2466323 941.1906955 77.27269261)
(551.0046451 419.7039284 410.3519933)
(42.03711628 -132.7759003 238.2538284)
(294.2392103 -15.71567892 -315.0855895)
(1057.102567 -259.1034779 -298.5241601)
(-39.90353063 211.9673852 797.6879073)
(548.7117709 250.795636 1042.498793)
(-57.74795872 -309.8611309 823.6670696)
(1103.452236 684.6957693 495.9505884)
(1042.215325 -754.5317101 -459.6809813)
(853.9316639 407.5399622 -736.3947535)
(648.1558946 373.4221265 31.23202726)
(922.3857913 195.411858 -701.6921752)
(-95.49636175 445.4934116 276.8685036)
(-174.2326497 368.250154 -310.8522802)
(848.4430074 -702.8728525 104.0801809)
(-96.82933634 -50.54962961 -160.1429802)
(919.6078314 324.0161645 -111.0252048)
(-428.7514706 869.610016 1251.066986)
(235.3244624 90.96777773 -203.3490395)
(804.6316873 110.549188 653.3961789)
(799.5288438 -210.5382865 -1038.772274)
(17.14327412 -56.70351187 755.7998153)
(300.6220873 452.3454834 -887.7346325)
(1168.925384 800.684992 633.1925463)
(41.26384655 369.6308172 -421.1050312)
(90.36725249 -143.9331014 178.8924797)
(1525.254303 412.5904158 -7.304019644)
(343.7396569 395.003139 -203.8884603)
(-391.3194247 798.3215115 344.1183032)
(772.8095947 -494.4738265 101.8711294)
(200.7074363 241.5437701 -143.6606725)
(774.8214679 82.42483909 264.4674587)
(-81.25647855 487.2992355 43.54174892)
(855.8449653 909.8279706 -421.6119671)
(1411.758389 -248.5412671 1157.148542)
(592.5057501 550.8162528 393.3169993)
(839.990872 48.8469308 12.56209385)
(9.351873469 818.1429491 -405.8398987)
(4.648871599 1290.833649 -252.1881013)
(671.3773652 -328.5235519 -247.2426666)
(-346.286357 277.1354106 -14.39678657)
(700.9023688 342.1951087 483.7540782)
(516.5121408 390.6661433 -412.8686692)
(-508.7066734 116.2962281 115.5378093)
(668.3076241 313.5014431 425.6118198)
(218.1811166 369.1074363 819.8697051)
(1806.584083 772.9974401 -552.4169297)
(12.82497387 472.1499173 -247.4043731)
(-385.6534462 540.9696455 327.795123)
(1906.023742 52.89878453 -380.6537844)
(1329.961798 -902.0732866 -291.4580897)
(1157.875353 1141.791803 385.6644991)
(726.654987 371.2761401 275.4516824)
(356.7352889 356.919306 386.0622258)
(205.7015229 -297.3565151 -38.01169686)
(1049.707609 67.45375401 -372.3711789)
(1446.387752 998.6321026 -39.05699228)
(393.8757434 252.8588831 -51.79841251)
(583.4494398 438.5522107 52.36269443)
(223.810634 499.7463692 219.5260161)
(967.1693804 228.661172 -193.4341028)
(815.9941792 700.0813194 388.8171606)
(454.696671 543.191431 -448.8414635)
(-14.92058504 424.7136886 -169.533955)
(-399.0327945 -69.59659503 -106.9775597)
(658.7230576 -35.50286252 726.3143127)
(564.8572525 -393.3123565 -86.48471992)
(-87.69762377 147.8368918 -111.0093255)
(1109.651884 713.2422545 -527.833325)
(143.4549201 -338.0579002 -1355.270193)
(-179.9488715 -51.48830964 -86.72096716)
(-203.689884 601.8838464 -777.4111464)
(1291.288767 81.18141277 707.5789903)
(-246.5502153 586.8812624 -824.2863831)
(216.0792982 50.64208958 -1143.022711)
(739.5754484 333.5859088 -757.5043208)
(398.0109478 580.9193222 28.24842444)
(1299.687975 828.0615595 -577.6432449)
(439.3257155 -356.5355509 -1017.775789)
(295.1512527 492.3250426 -91.12601575)
(-305.8946122 -270.2899179 -140.4541539)
(-238.0787706 -948.5919247 201.8178581)
(567.9284877 -301.3675112 -931.0556416)
(696.5382717 672.359842 -585.4149634)
(446.3160826 111.6282169 -528.653535)
(812.1071194 556.3770319 136.3602862)
(-105.3799522 -198.9893428 725.7635457)
(558.9001643 -58.081903 -692.238589)
(800.514644 -13.06187674 -42.26004264)
(726.6074062 595.9349002 880.3213485)
(1308.830972 501.1333228 -555.9636909)
(1024.745523 -592.61465 566.5513544)
(592.3494843 73.43188385 523.9575952)
(-690.0018865 260.0616358 -439.2360156)
(-25.34487204 -581.7865189 -536.0570253)
(123.5322097 278.2688318 -595.446578)
(1995.01083 -25.58574619 -77.12722899)
(526.78905 425.6128161 379.8117559)
(-200.1546847 625.719914 -144.8882591)
(-115.4611121 157.4381997 243.8362566)
(704.2746452 735.2055679 -478.2810894)
(343.071784 363.2254211 -851.3756482)
(560.6727102 434.7116529 -968.3828731)
(294.6131627 128.3593919 -76.87176979)
(1612.225172 631.7788007 -736.6009294)
(679.6527053 838.48803 -587.7321102)
(519.202929 79.62827468 -539.0267084)
(1025.899732 -148.2902905 919.5103391)
(872.6665925 379.8497043 -531.6545535)
(252.4364165 859.1295874 505.5220166)
(-79.68265502 733.3248288 -111.3822004)
(417.023874 -374.5024453 214.790013)
(1151.595649 -214.4885536 1058.586054)
(397.4584108 580.3728008 -772.8565418)
(-150.0543389 532.0103087 139.1880785)
(-268.0081818 358.3135313 301.1559502)
(381.9924466 1294.249628 255.3951812)
(1557.023327 -70.24075067 -257.6266945)
(434.2448381 1076.320439 -139.7234362)
(342.4023224 -7.076993544 -781.6741755)
(1026.180256 -19.3426264 -355.2391956)
(493.7768024 -149.2769595 949.0785158)
(-181.0138005 304.3950249 710.4368129)
(135.1288214 254.6502923 -1077.349689)
(392.5563158 278.1351795 -41.5528897)
(485.7284868 434.0994369 -560.9358799)
(447.6908192 652.6790421 262.3730813)
(-606.8336117 -38.1391128 436.8204907)
(-411.3160796 579.12231 -651.909164)
(332.606983 -460.8760806 408.5414384)
(99.95678084 762.5675493 378.8728332)
(229.1982733 -433.0476924 -408.0091393)
(406.1699141 498.7414955 -334.6997293)
(697.4435656 680.4722769 908.0753156)
(-19.90592761 -213.3915881 -174.2605342)
(996.7982286 469.5626199 -1235.894813)
(992.4404479 1022.942031 799.0647427)
(354.7541941 1133.181691 8.206852583)
(857.9596479 -164.6746273 -607.0387067)
(239.2343856 262.0534142 -435.7865557)
(1961.35713 1100.297343 375.2484545)
(1241.931493 53.13942024 651.1240934)
(1520.941397 337.0188724 325.6896216)
(1284.504502 -305.5315419 1009.285992)
(1049.483548 192.1855916 -416.4397764)
(409.4647919 514.5552333 223.4977643)
(720.2360461 -19.11311073 -15.95606427)
(224.0713113 -617.40499 241.6445303)
(20.77946308 239.7339466 289.6168636)
(614.1792223 -355.3633419 -829.4851654)
(885.8884893 -417.7916494 456.903834)
(1244.64263 -277.8632222 248.7637608)
(1085.687859 -777.8215129 953.0432885)
(113.1026835 -203.2869422 -599.4620504)
(712.3633278 -771.827095 758.501972)
(935.4770169 365.638981 482.9754118)
(346.6096966 207.0140058 -1253.327944)
(351.8065271 -251.0230093 166.2246147)
(-142.4598317 131.0977859 494.5845062)
(331.0452264 643.2215786 -73.44554006)
(-40.81094671 448.6526262 534.4719565)
(-55.26799637 -453.93544 -96.2946169)
(65.43837154 496.8882263 573.9282796)
(493.6454988 397.2995065 -716.7889245)
(402.687734 236.4504825 -161.6991188)
(737.5720491 1366.798172 -282.6598488)
(64.56255233 711.1764861 297.6444119)
(1176.660751 753.901017 132.238883)
(639.6865743 474.3009585 324.5303633)
(401.9713703 1055.59338 -576.6725819)
(225.1760624 534.2316069 -69.2093302)
(-30.84541933 -94.22772222 -173.9136723)
(516.3439051 235.2093653 202.6414412)
(752.6868687 -421.8535644 231.1747256)
(481.8774048 -594.0233039 -140.3145455)
(514.5358577 34.26534276 -429.6097222)
(118.1752445 -945.0737478 1034.881962)
(419.2104255 218.1776075 -266.2165372)
(1560.990309 746.6284573 616.4832975)
(-291.8411524 174.0131251 773.985514)
(740.9366392 302.686919 -483.2899913)
(783.1631537 -217.7034282 -401.0256067)
(779.9814333 226.3119647 -404.4427387)
(628.4337589 -198.7295277 579.5905067)
(121.6286736 28.20452114 -554.7186082)
(212.4678293 121.2452315 -728.0387282)
(1110.938712 1323.423703 -325.4547303)
(410.7276128 312.3280591 769.5478434)
(339.8630896 806.1735965 -364.7725293)
(463.2252236 299.1048398 -801.9763751)
(1785.015915 300.5057056 292.6046151)
(371.9657422 437.5291694 303.1729422)
(109.8831071 92.08206699 -171.3540053)
(986.4448484 418.5800245 -287.8718618)
(433.7768026 -123.8002193 425.3129476)
(802.4149151 249.82129 -428.8569842)
(1875.462162 -81.49661259 -505.0800332)
(1551.809174 414.7955569 -624.9853175)
(1330.01917 -517.0312467 -189.962008)
(386.4071221 318.9579618 -163.6979726)
(673.4294944 -250.7996769 -1154.163123)
(87.03165693 194.0618459 -559.9926256)
(201.2482146 -85.57344896 88.1130429)
(-355.4276036 961.5465834 -164.8412433)
(-484.6119113 311.5671055 -357.5198584)
(82.19419055 -366.1245472 295.8495557)
(169.8203961 549.7090877 237.9622716)
(-28.40616987 698.2067909 -494.1934644)
(-203.6192102 -308.9912448 -589.2861313)
(1652.234071 0.3738066736 134.2064752)
(912.5853588 235.9297153 -133.6927747)
(897.5042021 -32.31504309 -265.4090907)
(-655.9845004 432.6138762 479.6122818)
(-197.6105603 126.1723261 -288.9621013)
(562.7526755 476.9606544 4.842485871)
(723.2488398 752.1284359 -106.9369619)
(816.9108114 298.7964252 -147.7125704)
(489.1401613 144.719679 -158.3967952)
(187.0582397 429.8810937 -313.9753476)
(406.3589147 174.6125516 241.8421195)
(723.5092727 31.13790014 -121.428209)
(-617.3691663 290.0922258 -191.2890091)
(-174.1391838 -25.95579131 -343.3863562)
(88.25169655 300.4475168 -181.4247081)
(1290.561359 456.6347757 -242.0604793)
(1216.460055 639.9184851 -73.04670795)
(145.6609835 265.9583018 -87.72724935)
(96.16431429 -278.154171 -226.5188285)
(936.9865851 261.6335596 -543.3272414)
(-280.299104 412.5754608 46.16166813)
(-148.9181451 482.7009103 -405.0931718)
(1027.99405 147.0034549 -164.343659)
(626.1058218 -13.20652459 -8.94168599)
(194.0514804 -216.014691 153.9466858)
(771.0606697 1490.80931 22.98716871)
(85.30298965 536.8792414 493.5710943)
(122.0718916 934.54645 -173.8399606)
(316.8043648 -153.2650429 368.6125094)
(1840.991631 742.2938113 459.1303533)
(898.9218649 58.8941582 203.0139178)
(1009.910051 -230.737967 -90.19787226)
(704.933126 334.6023487 99.56655179)
(737.2906086 485.6372058 827.2741236)
(547.9927974 166.1709355 -913.2508919)
(418.42417 87.93520527 -48.25430848)
(-378.1790896 -261.9967466 42.66811376)
(-451.6034599 320.9692546 345.8030433)
(486.3808037 854.0980137 -5.147705141)
(199.768731 194.8618366 -317.4808965)
(548.1487017 -414.2302819 -77.06313511)
(685.0819435 463.9994509 137.0489495)
(678.6805407 170.8828105 -17.25660212)
(1485.959622 414.1587903 71.32036577)
(-325.6770883 182.168869 -145.3587921)
(-24.60586807 1450.314986 300.2691191)
(1060.813833 1024.441539 587.322151)
(78.0956483 -0.6089091755 -57.73259779)
(588.3558733 -407.5518794 -25.96315312)
(49.34251648 1347.180649 567.5058615)
(547.3587767 -335.0860436 -31.35305778)
(930.7721858 -227.506043 -505.5897378)
(318.4025086 215.9335663 538.0536799)
(1008.608565 822.1343074 -429.5634591)
(776.6443122 532.9110383 248.8596929)
(272.9735532 1161.014388 447.6135309)
(786.1966987 708.3721983 331.443353)
(133.6088378 152.8336802 451.4389542)
(1432.759066 159.883044 328.2139674)
(1550.712608 42.31885397 737.7174329)
(1235.130535 157.9542062 -602.9864847)
(-109.7091765 124.3161697 -148.1718306)
(93.27841902 154.9548434 1091.980116)
(-240.0426415 282.9627882 1030.923841)
(1540.348673 448.6726956 -17.25406049)
(1236.513414 556.6822932 -337.0541438)
(349.0381682 -251.9740755 -492.5356906)
(-372.4686071 370.4010511 -156.5193616)
(-196.1756826 896.0659208 43.57186139)
(1231.364667 910.4549264 -1380.928421)
(714.6300697 751.2359539 -502.9067773)
(1005.41727 -175.9058035 15.33257051)
(482.7659192 -382.3281037 1087.035372)
(471.101188 -654.7690824 -78.16724421)
(997.6337039 371.0236467 -260.9232685)
(527.4097827 15.35377914 804.5396903)
(455.096582 -561.5950658 389.0534192)
(852.5654529 94.3242676 675.3310274)
(1051.70335 535.2056868 796.9737839)
(925.6794589 324.3679785 -466.531574)
(71.28246055 -223.1665166 261.2295081)
(808.5708341 217.2001328 249.4735466)
(543.3437131 369.579388 175.2897562)
(770.5718063 -307.7858338 -480.4733241)
(-639.7697809 569.8913007 -48.86028314)
(1048.81414 460.1283219 -918.225209)
(1272.667499 534.8636082 862.1455053)
(1122.33546 1061.849522 -1533.449308)
(1674.031426 578.6958141 -381.0475011)
(-288.7457156 92.86859186 -77.15049742)
(588.2502842 200.8891473 -573.2674143)
(1571.547825 162.263912 -1165.291015)
(1391.527402 508.8770917 1027.496494)
(875.3901557 873.7592298 184.0857501)
(177.4564821 765.3024334 153.0802486)
(370.1859916 597.907053 -313.4578634)
(258.6114914 791.0390502 -238.7063802)
(250.5483835 -3.103060906 408.3409718)
(757.4014376 220.9016419 544.6253476)
(-295.7896157 329.359524 328.3131396)
(147.4986329 -287.4286011 -212.2936149)
(295.5187217 419.5981371 -407.3749997)
(-285.7030833 1096.065447 259.8166525)
(1502.6863 -363.8668605 235.900131)
(543.6522915 347.9161355 -1024.444203)
(139.4962378 898.0604271 -214.3768368)
(1257.533527 760.4853785 -283.6153499)
(522.1618706 401.5637647 404.0552825)
(1467.570899 -276.6251465 622.3724797)
(819.0892636 -231.3680437 -159.0048318)
(-322.9515051 -158.930713 166.6885276)
(893.4652769 469.0096174 2.239654749)
(533.354857 123.6364704 -346.4693907)
(282.8148715 435.4838686 -931.4553771)
(268.8381806 220.3874983 524.5178086)
(1359.707828 -704.6755104 -32.42561181)
(208.6898188 833.3168859 182.280121)
(-165.08413 518.5388054 -87.9207763)
(758.0449698 160.0257861 24.21420297)
(1175.525187 369.4910827 -55.52080709)
(166.7882025 -444.2540822 201.9402414)
(1668.461259 904.8946402 486.0182099)
(2242.694354 481.4945586 -191.6216792)
(774.2091609 1154.265523 65.52027697)
(36.62487039 583.7346424 -767.4602728)
(1069.801732 1122.584073 -141.5147994)
(5.93977439 634.0984544 88.72683128)
(-394.5525592 600.9694319 -327.5961311)
(1309.298347 28.69919591 -213.1271888)
(-500.0139769 215.745348 369.5403569)
(228.9269667 955.1291089 -510.3547472)
(1437.843263 54.2473975 625.9300063)
(-224.2387838 -103.4148309 35.03498145)
(-592.4621874 1245.971723 6.035131772)
(1424.960397 -311.0891865 -840.0676136)
(457.2562056 -529.4507509 -42.22325907)
(690.8450381 213.2102053 8.706911072)
(184.9948495 -270.7664675 -644.5548755)
(1527.939638 -316.4357382 889.5107214)
(-277.6447706 363.6672216 379.2470148)
(1328.73159 17.86937823 -9.599430077)
(530.0862914 233.8055374 574.5515378)
(-719.6053805 1020.373924 -28.48973093)
(458.2642197 733.2389897 295.6878313)
(835.6501315 427.3233783 644.8390459)
(-117.3700869 396.0394117 328.3552892)
(358.0130026 -33.20228826 140.8457372)
(1374.9288 737.5447898 326.5215124)
(1173.74916 257.2910494 485.3454519)
(732.3965639 -233.5009635 329.6683709)
(600.3614172 869.1147268 -695.7381952)
(688.7204246 -41.02155239 74.1609763)
(871.0075066 -572.7684295 304.5808436)
(88.77099286 863.3855293 177.9112281)
(-13.58580535 151.4132597 484.7869659)
(783.0889429 644.6269959 -346.3305322)
(249.4575941 491.9587688 7.784830716)
(-97.9227451 83.15520065 122.2490121)
(742.5966814 381.2623631 -490.0109437)
(1009.786336 -530.4372785 302.932724)
(1095.469448 1262.951316 26.91524689)
(380.5381001 451.0029829 115.4211882)
(752.9915078 373.278507 -1253.084648)
(253.5326681 -621.7876852 -35.7142735)
(646.7899882 -298.0048516 121.7173558)
(1386.358652 996.9580987 859.4915346)
(1067.253755 744.3349211 61.64070369)
(1005.730486 1194.854047 -24.34683101)
(-154.3045005 256.3110705 209.2478548)
(32.18271201 425.1037617 204.9844269)
(-701.7718317 398.6883068 -779.4769402)
(1436.028537 -271.0733208 980.467817)
(-254.0928739 17.90398015 30.8220583)
(484.8143827 85.26199052 -140.5426179)
(911.0793518 574.9953635 144.8382821)
(57.9886039 90.0512317 41.15497709)
(655.7811509 -188.9608485 -668.9721736)
(1717.126533 1318.351547 -518.5727972)
(1445.247437 100.5880587 -389.4539515)
(609.7697001 498.4520952 72.36548132)
(578.0346396 1074.230953 247.1282803)
(-65.47926831 732.7419774 -324.3436602)
(497.8395887 955.158957 282.0157802)
(904.6483523 641.8122882 252.2752957)
(-326.251147 67.99765917 -393.0932877)
(230.7935891 396.1195539 312.47054)
(883.8196868 144.8527994 -859.6316338)
(1579.624089 1673.251316 -596.4150198)
(271.9402602 -99.62587655 451.1567058)
(29.15777576 59.67784145 560.1878065)
(257.8073521 320.1254478 -342.5158598)
(1342.80119 641.838503 -1249.710442)
(757.2647476 639.2494916 408.8787751)
(-811.0816472 608.2596212 -177.126144)
(-206.6356902 336.6524923 -551.8551121)
(1692.760202 254.1737177 -62.42677519)
(-18.72832585 -162.7105829 -535.1293404)
(20.94626129 -248.8911677 -295.9803086)
(565.8993803 -148.06246 -267.888632)
(15.50827347 245.0762406 -698.445221)
(-379.9764911 505.8331922 17.78487417)
(1199.830964 835.3213917 330.7533731)
(210.8919106 46.75848007 537.7455687)
(1216.103387 149.0175313 -666.0559685)
(436.5264186 -249.1643415 667.068428)
(-119.3278373 -791.4383025 -324.9427814)
(715.3190757 453.6054223 -77.61242146)
(952.2932331 193.2574527 -441.8469628)
(1621.831356 229.7051969 -960.845664)
(1.807777459 -579.1645977 756.4692701)
(942.8039887 605.3393895 -400.6625257)
(74.09631382 38.69871203 -821.7470013)
(613.7372386 279.7523101 -415.6415393)
(1429.196548 322.4353121 284.6077949)
(-98.4610891 -353.0237453 -555.1163568)
(1437.903866 129.144795 898.5766051)
(1308.093313 310.8282551 -78.30377493)
(546.235998 -1018.694805 -620.9430382)
(2104.688064 298.4555032 -7.410821562)
(208.2760111 594.3903455 272.3582267)
(77.18239746 -288.1282385 460.3828463)
(741.8034746 269.831943 424.1034763)
(626.9158425 -301.9926076 -875.3006009)
(-154.1303894 -109.0608992 226.7064751)
(501.4446796 314.0638907 435.091772)
(719.3392971 -104.4760832 -201.9551166)
(1094.382011 388.508246 -1585.054629)
(555.8842472 187.359618 -400.8348507)
(1324.737843 -72.82311689 284.2658629)
(1170.237386 -89.22189961 -866.1718834)
(833.3325041 694.085811 -264.1517569)
(1025.366921 428.1057234 525.6974157)
(977.6149327 -150.9860901 47.14823146)
(367.6221915 491.7802846 -528.733985)
(52.91587829 -408.8963945 165.5759611)
(1017.303511 659.6347898 1029.333702)
(-318.0230679 100.772023 263.4114042)
(461.8461738 -121.7394561 274.7806643)
(843.9533868 -142.8481448 -836.8384879)
(518.529782 -354.1869282 -289.8371935)
(416.1844173 346.2930033 89.88484092)
(429.5950144 212.0180314 387.9669618)
(-64.47816127 666.0344353 494.454838)
(1339.975986 1306.465133 -287.0032161)
(815.9945694 394.4612816 -813.710457)
(507.7943332 1068.512062 44.43313094)
(1226.238727 1259.450308 -409.3416408)
(482.8416469 434.16804 15.66273227)
(503.0249696 604.8634389 -740.5390273)
(490.2434557 -76.97842068 455.4673709)
(547.832838 53.37978554 16.70868515)
(575.5343158 619.7114946 -790.508877)
(1943.755347 915.7417414 504.0107664)
(719.7460157 234.0071589 -649.8651338)
(561.4946553 96.68125567 252.7835397)
(149.9690649 156.6419816 -228.9666921)
(288.6104819 65.6170081 -344.0651494)
(1026.779209 -135.7847672 390.7428986)
(55.95439587 -119.0630173 -42.59999801)
(499.5891432 381.5627307 624.9548907)
(1032.737987 -441.1248597 -976.354367)
(355.9048474 74.17832347 -144.455178)
(1080.521574 -105.6538804 -937.8211176)
(1105.497534 577.3212811 -490.7039092)
(782.6518795 485.8915144 -583.9679357)
(-164.3317938 -400.8366773 -164.544419)
(-82.41529828 1020.765087 435.790877)
(943.1864086 463.0293142 374.8940183)
(187.7617559 544.4444094 -251.1614272)
(1203.745488 -221.0297521 -185.4564775)
(1656.122792 -608.0384073 -277.9916441)
(339.9667603 557.3983228 856.3488269)
(-65.70380149 569.0100475 -300.0794838)
(687.4247082 204.7640372 -611.0172018)
(-455.3849739 -268.1713847 -688.268575)
(1028.749522 -207.4696962 15.73140379)
(78.11384128 539.4210424 -251.4128809)
(1247.479327 -85.1916713 -691.8947733)
(93.18406559 462.7590969 228.502178)
(-314.4881523 -166.7050099 48.3970538)
(-266.5005536 456.5225677 115.0742763)
(275.8396104 1062.092708 -108.387573)
(724.119801 823.9982946 -601.3329677)
(231.9696017 196.3416714 -39.8847752)
(-155.3380993 -164.6963928 -94.23918478)
(499.8307341 507.0422124 -430.2179507)
(-293.2029132 662.6533665 1060.335516)
(886.6939291 356.3293293 -223.8193516)
(790.8363967 572.8781038 194.7678232)
(1493.564855 -551.4864555 -483.2541442)
(1765.08697 -404.3709327 -152.7200817)
(1364.321167 913.2088394 1196.973092)
(981.8317976 507.4615869 328.2398021)
(1578.142624 10.3627808 349.5742983)
(955.5470663 -134.0973368 -346.7044236)
(237.024971 738.9879133 -1078.261632)
(841.3269394 844.3839374 329.1923974)
(986.1226949 560.4828142 -294.2564856)
(-208.0374786 464.2419218 371.83115)
(1565.535294 -112.2144305 677.3914308)
(606.3431311 260.4026853 52.20395212)
(365.6959977 -764.3001777 -463.9941307)
(580.2198519 811.7496216 81.31003115)
(378.6070592 1022.406379 -755.8570392)
(404.6276493 293.7989059 -4.190171341)
(1164.792165 -360.3296667 -15.81441205)
(806.5480815 -815.6936232 615.3334157)
(1300.747058 -398.5964149 496.5681229)
(367.1406905 612.3007246 -363.8308805)
(1345.606346 45.70357545 -722.1049011)
(348.7711446 392.1063662 -95.41018433)
(576.7750285 1023.820397 10.14114575)
(418.2865685 140.0464547 -197.2492204)
(-292.0429082 259.6769672 -250.5574204)
(889.3205949 319.7661452 -187.6563827)
(1212.255806 586.8868645 -139.93555)
(-200.9343918 357.438252 -307.6314137)
(1038.985989 334.5235413 -30.09547769)
(958.0980191 252.0039053 430.5882629)
(1092.063028 660.0023349 276.024066)
(202.9321132 -543.015738 -285.1735397)
(382.3538453 130.7954327 -409.0412506)
(1731.350785 -274.6414861 619.0606286)
(213.522176 144.1037639 171.1684975)
(68.27382435 252.6936801 -508.7319042)
(828.7196345 -346.0490335 -626.8918082)
(754.1120174 -123.8958487 -895.6876948)
(-205.8864329 -45.5580683 -326.5027539)
(496.9938136 639.2477861 -511.7803574)
(1232.462682 1191.67443 342.7014023)
(247.2820528 205.5000019 -880.2458504)
(853.2081618 163.5191664 -4.70472792)
(269.6393831 606.8506851 -477.9065403)
(976.2304075 743.1865715 331.3638531)
(759.1276388 -216.1834627 -315.213293)
(-15.78960928 193.1641842 -277.7998341)
(1808.257916 -518.056538 233.3855787)
(715.7417805 -25.96729132 -120.7795169)
(873.029674 -294.4869028 -76.78689434)
(879.1828432 194.965965 -80.93048985)
(1058.223145 -66.96951299 109.5154839)
(1748.843099 -189.5220056 144.1802433)
(77.24383096 310.7456548 214.8214585)
(1132.700394 72.2417728 -439.0206899)
(203.7408645 877.9644921 742.728665)
(1677.934172 1174.841675 482.0250367)
(483.7911145 236.525164 -499.0798966)
(-349.9620591 639.3723929 -15.29824819)
(1144.425697 247.123143 -46.30025205)
(-16.45582078 229.0298729 340.7655138)
(1359.929951 -205.6284161 746.0977434)
(1209.056057 227.1945208 -430.2222218)
(-564.1026756 69.13535018 399.1244304)
(472.286896 45.4342998 225.8221487)
(1138.394342 568.6665597 88.35736611)
(-441.5129704 756.9723663 328.2438357)
(1119.452336 92.86929811 -89.77395934)
(1085.307202 28.63802415 -589.8350557)
(809.3797449 222.7906619 374.0842807)
(1294.324975 449.1025772 837.8508739)
(382.7274109 -51.97903679 -13.42994028)
(736.0086104 5.1411887 -912.2932053)
(1047.21845 767.17261 -1139.041723)
(1650.440724 956.6413838 409.7649054)
(1453.809145 -158.6279722 -214.254422)
(94.77397243 -193.9804108 138.7429346)
(-6.467718241 -454.4687924 -1147.097613)
(848.3070948 -94.52171116 103.4864325)
(83.05822672 254.7639176 1196.384058)
(366.122201 121.0053518 165.8490867)
(1117.657775 -386.7993053 -455.1523267)