/*--------------------------------*- C++ -*----------------------------------*\
| =========                 |                                                 |
| \\      /  F ield         | OpenFOAM: The Open Source CFD Toolbox           |
|  \\    /   O peration     | Version:  2406                                  |
|   \\  /    A nd           | Website:  www.openfoam.com                      |
|    \\/     M anipulation  |                                                 |
\*---------------------------------------------------------------------------*/
FoamFile
{
    version     2.0;
    format      ascii;
    arch        "LSB;label=32;scalar=64";
    class       Cloud<dsmcParcel>;
    location    "0.01/lagrangian/dsmc";
    object      coordinates;
}
// * * * * * * * * * * * * * * * * * * * * * * * * * * * * * * * * * * * * * //

5144
(
(0.2013028342 0.3993485829 0.1218748476 0.2774737354) 481 930 2
(0.1013156986 0.4493421507 0.3490296803 0.1003124704) 432 819 1
(0.9190650688 0.04046746561 0.0358525965 0.00461486911) 395 765 2
(0.4905214415 0.2547392793 0.174294777 0.08044450226) 365 708 2
(0.5245573733 0.2377213134 0.02249103741 0.2152302759) 395 748 1
(0.6802023536 0.01869394366 0.1598988232 0.1412048796) 471 912 2
(0.01766003748 0.4911699813 0.2843603928 0.2068095885) 525 1012 2
(0.6862421258 0.1568789371 0.03563243535 0.1212465017) 465 898 2
(0.1177937155 0.4411031422 0.2504381855 0.1906649567) 453 877 2
(0.2529899653 0.2135675406 0.3735050173 0.1599374767) 463 894 1
(0.7343193703 0.1328403148 0.08905120081 0.04378911401) 475 919 1
(0.2398260938 0.3800869531 0.07115229261 0.3089346605) 535 1033 1
(0.2719392717 0.1165067806 0.3640303642 0.2475235836) 545 1042 1
(0.3107818404 0.3446090798 0.205612953 0.1389961268) 362 704 2
(0.07628028728 0.2103694173 0.4618598564 0.2514904391) 475 917 1
(0.153879168 0.423060416 0.2771088325 0.1459515835) 465 881 1
(0.5053627064 0.2168044196 0.2473186468 0.03051422718) 485 938 2
(0.2150444717 0.3924777642 0.3319277095 0.06055005463) 542 1039 2
(0.2830283001 0.125849528 0.35848585 0.232636322) 455 881 2
(0.05173415425 0.4741329229 0.3175773669 0.156555556) 470 891 1
(0.77677229 0.111613855 0.006991482836 0.1046223722) 394 763 2
(0.4928159845 0.01975166796 0.2535920077 0.2338403398) 484 937 2
(0.1098752246 0.1408366019 0.3042257858 0.4450623877) 462 876 2
(0.05393290267 0.4730335487 0.3213322965 0.1517012522) 411 798 1
(0.2059215399 0.3518304853 0.04520874481 0.3970392301) 513 991 1
(0.7831611819 0.06688565319 0.04153375587 0.1084194091) 531 1007 2
(0.1306609219 0.4346695391 0.1550866117 0.2795829274) 399 756 1
(0.1603200171 0.09891004516 0.4198399915 0.3209299463) 392 759 1
(0.4887396859 0.2556301571 0.07560247808 0.180027679) 442 838 1
(0.453198784 0.273400608 0.0458247311 0.2275758769) 424 822 2
(0.5124596806 0.2437701597 0.2071585439 0.03661161576) 459 888 2
(0.7718078559 0.1140960721 0.04798296792 0.06611310414) 522 1008 2
(0.1411611701 0.429419415 0.1938206921 0.2355987229) 495 955 2
(0.006699511762 0.4966502441 0.172152533 0.3244977111) 455 879 2
(0.5263299661 0.2368350169 0.1509660322 0.0858689847) 433 840 1
(0.2554702902 0.3537046111 0.3722648549 0.01856024383) 425 822 1
(0.3425049714 0.1281546336 0.3287475143 0.2005928807) 474 918 2
(0.4013370754 0.2993314623 0.04211300454 0.2572184577) 525 1014 1
(0.3854243902 0.1365368692 0.1707509357 0.3072878049) 384 746 1
(0.3048035594 0.3475982203 0.1480072327 0.1995909876) 373 723 2
(0.110482292 0.444758854 0.362608937 0.082149917) 414 785 1
(0.06547217664 0.3077296215 0.1595342901 0.4672639117) 424 822 1
(0.7462308857 0.1268845571 0.1113563367 0.0155282204) 485 919 1
(0.03772521795 0.08385993768 0.3972774533 0.481137391) 462 876 2
(0.5645433806 0.1142287732 0.1034995365 0.2177283097) 491 949 1
(0.1429807994 0.3037262225 0.4285096003 0.1247833778) 440 853 2
(0.08755968284 0.02705551159 0.4562201586 0.429164647) 365 708 1
(0.05709913014 0.2890571849 0.4714504349 0.18239325) 433 840 2
(0.03527925189 0.4823603741 0.2435164405 0.2388439336) 404 782 2
(0.8680087455 0.03817238961 0.06599562723 0.02782323762) 515 993 1
(0.8231019409 0.07327227994 0.08844902957 0.01517674963) 492 952 2
(0.7881875413 0.1059062294 0.09249729889 0.01340893046) 384 744 2
(0.01974466173 0.4901276691 0.03619491822 0.4539327509) 415 805 1
(0.1536650132 0.2046632914 0.218504202 0.4231674934) 465 2224 1
(0.1890050687 0.4054974656 0.02264518711 0.3828522785) 484 937 1
(0.2706974214 0.1793190798 0.3646512893 0.1853322095) 465 900 2
(0.104746749 0.2078453173 0.4476266255 0.2397813082) 545 1042 1
(0.06742368927 0.1524763014 0.4662881554 0.313811854) 508 982 2
(0.2692434436 0.3653782782 0.03774704542 0.3276312328) 425 822 2
(0.8208160948 0.0895919526 0.03126927435 0.05832267825) 533 1029 2
(0.09873495489 0.3608557232 0.08977679938 0.4506325226) 414 803 1
(0.7457489995 0.1271255003 0.09962025223 0.02750524803) 464 898 2
(0.3057906898 0.3471046551 0.2511025921 0.09600206296) 395 767 1
(0.215849758 0.03269094994 0.359384171 0.392075121) 444 842 2
(0.2209872258 0.3801755376 0.009330849475 0.3895063871) 402 780 1
(0.1356977929 0.246794572 0.1853565315 0.4321511035) 372 723 1
(0.5939952553 0.06919128588 0.1338110865 0.2030023724) 432 837 1
(0.4585162983 0.2707418509 0.2688504687 0.001891382129) 434 842 1
(0.2300851111 0.05969372848 0.3849574444 0.325263716) 483 932 1
(0.3725548231 0.1409547157 0.3137225884 0.1727678727) 525 1012 1
(0.4726273615 0.2636863192 0.03170364986 0.2319826694) 494 956 1
(0.4083697442 0.2958151279 0.128281926 0.1675332019) 499 964 2
(0.2866884936 0.2887865114 0.3566557532 0.06786924175) 514 991 1
(0.1983461995 0.1721578374 0.4008269002 0.2286690629) 513 992 2
(0.08266018521 0.4586699074 0.1943925349 0.2642773725) 475 2225 2
(0.4745331346 0.17358814 0.08914529264 0.2627334327) 401 778 1
(0.5527383983 0.04113021036 0.1825005905 0.2236308009) 423 802 2
(0.4121790048 0.2939104976 0.04484573463 0.249064763) 383 745 1
(0.6367882603 0.1816058698 0.07130333021 0.1103025396) 435 824 1
(0.4798008126 0.2600995937 0.03107464008 0.2290249536) 444 860 2
(0.08906788289 0.4554660586 0.1909546151 0.2645114435) 425 824 1
(0.6024309174 0.1207396486 0.1987845413 0.07804489266) 372 724 2
(0.1160430586 0.4419784707 0.3317548662 0.1102236045) 383 726 1
(0.1762803628 0.4118598186 0.1140326188 0.2978271998) 405 2218 2
(0.1881708832 0.2885571453 0.4059145584 0.1173574131) 485 938 2
(0.3518453901 0.09543692813 0.2286403768 0.324077305) 405 2218 1
(0.5068036989 0.2465981505 0.242608798 0.003989352493) 421 798 1
(0.3101752667 0.3449123666 0.01693041293 0.3279819537) 413 802 1
(0.6918072599 0.04605420455 0.1080421655 0.1540963701) 523 992 2
(0.1557318579 0.2135819039 0.422134071 0.2085521671) 445 862 2
(0.4822024334 0.2150745625 0.2588987833 0.04382422076) 425 824 2
(0.5033281088 0.2483359456 0.001045264079 0.2472906815) 364 706 2
(0.3746848398 0.177937764 0.3126575801 0.1347198161) 424 823 2
(0.3714264075 0.3142867962 0.02618612938 0.2881006669) 433 821 1
(0.008257260006 0.49587137 0.1585579756 0.3373133944) 413 783 1
(0.4961316214 0.2519341893 0.190798246 0.06113594329) 433 839 2
(0.005601933999 0.03897571732 0.4582233157 0.497199033) 521 1006 1
(0.6953898651 0.1523050675 0.02693103794 0.1253740295) 432 838 1
(0.5230111925 0.2184467142 0.02004768958 0.2384944038) 413 783 2
(0.6169773182 0.1306369678 0.1915113409 0.06087437311) 425 822 1
(0.09097422706 0.4545128865 0.1664960867 0.2880167997) 534 1013 1
(0.2271080003 0.2227310221 0.1637149778 0.3864459999) 432 837 1
(0.07664690182 0.2586770552 0.2029994939 0.4616765491) 465 2224 1
(0.02293674872 0.1243961004 0.4885316256 0.3641355253) 515 995 2
(0.3238360828 0.06753069799 0.3380819586 0.2705512606) 444 861 2
(0.1234196847 0.4382901577 0.2460060401 0.1922841175) 461 890 2
(0.268766345 0.3656168275 0.1704946627 0.1951221648) 545 1033 1
(0.3755777246 0.1865673174 0.1256438203 0.3122111377) 495 2227 1
(0.02371191528 0.4881440424 0.1894001456 0.2987438968) 522 990 1
(0.04623989521 0.2050109894 0.4768800524 0.271869063) 473 916 2
(0.5175216136 0.2412391932 0.0252409414 0.2159982518) 505 2228 2
(0.05349337323 0.2787507874 0.4732533134 0.194502526) 510 983 1
(0.1493370045 0.08554832718 0.3397831706 0.4253314977) 514 993 1
(0.3607693384 0.3196153308 0.1337781609 0.1858371699) 512 989 2
(0.01738200518 0.4913089974 0.2776726067 0.2136363908) 410 795 2
(0.5435744895 0.2254817751 0.2282127552 0.002730980116) 420 812 1
(0.1664430256 0.4167784872 0.01720110031 0.3995773869) 413 783 1
(0.1320898264 0.2034068529 0.2305482338 0.4339550868) 429 831 1
(0.1097408792 0.3829643226 0.06216523782 0.4451295604) 388 735 2
(0.5969592979 0.1517647703 0.04975558077 0.201520351) 429 813 2
(0.2417709508 0.3791145246 0.1649161757 0.2141983489) 402 762 1
(0.2618161406 0.1645555801 0.3690919297 0.2045363496) 452 873 1
(0.1708102924 0.4145948538 0.2091519429 0.2054429109) 394 766 1
(0.1596167408 0.1339888548 0.4201916296 0.2862027748) 411 795 1
(0.03849371754 0.4807531412 0.3308873478 0.1498657934) 394 766 1
(0.0610645723 0.4694677138 0.265713343 0.2037543708) 435 824 1
(0.5419309623 0.2290345189 0.2124943976 0.01654012131) 464 880 1
(0.4880859171 0.174308965 0.08164807648 0.2559570415) 414 803 1
(0.6849261651 0.1033290851 0.05420783234 0.1575369174) 373 725 1
(0.4061336273 0.1868740168 0.2969331864 0.1100591696) 441 855 2
(0.203852207 0.3980738965 0.1063442015 0.291729695) 503 973 1
(0.6510652575 0.1744673712 0.1063890499 0.06807832129) 515 976 1
(0.5912135234 0.2043932383 0.1056234379 0.09876980036) 493 935 1
(0.3471144489 0.3264427755 0.1012069307 0.2252358448) 435 843 1
(0.5759474672 0.2120262664 0.1998780154 0.01214825099) 494 953 2
(0.3813854631 0.1445581082 0.3093072684 0.1647491602) 485 936 1
(0.08201243356 0.1017872085 0.3572065747 0.4589937832) 541 1026 2
(0.73886002 0.13056999 0.1292571269 0.001312863104) 482 914 1
(0.3198453664 0.3400773168 0.2275841953 0.1124931215) 509 984 1
(0.9361642482 0.03191787589 0.007701090015 0.02421678587) 505 2228 2
(0.544133197 0.2279334015 0.07763757436 0.1502958272) 465 2224 2
(0.2436145458 0.3296028496 0.04858987745 0.3781927271) 514 993 1
(0.02955462416 0.4852226879 0.3177592469 0.167463441) 545 2232 2
(0.08928786819 0.2334752584 0.2218808075 0.4553560659) 385 729 2
(0.9783124264 0.01084378679 0.00560080483 0.005242981957) 374 725 2
(0.6580914174 0.1709542913 0.003401182373 0.1675531089) 388 751 2
(0.5281724907 0.1719674836 0.2359137546 0.06394627103) 384 744 1
(0.1082592669 0.364085809 0.08178455759 0.4458703666) 404 766 2
(0.8222077598 0.06193287163 0.08889612009 0.02696324847) 395 767 2
(0.2710555353 0.3644722323 0.2982532571 0.06621897521) 423 820 2
(0.0269375479 0.4018511598 0.486531226 0.08468006621) 373 723 1
(0.1875815911 0.3799328862 0.02627631824 0.4062092045) 383 744 1
(0.1269115652 0.4365442174 0.31320362 0.1233405974) 375 710 1
(0.1598357038 0.04157868237 0.4200821481 0.3785034657) 375 729 2
(0.1392219699 0.430389015 0.1013947986 0.3289942165) 414 804 1
(0.1973093944 0.4013453028 0.3027753584 0.09856994436) 475 2225 2
(0.18907585 0.171501608 0.405462075 0.233960467) 472 914 2
(0.6622142106 0.002779585999 0.1688928947 0.1661133087) 443 856 1
(0.7664623697 0.001768409755 0.1150004054 0.1167688152) 534 1013 2
(0.5766725671 0.1259452387 0.08571847778 0.2116637164) 474 899 2
(0.06944318944 0.4652784053 0.204732895 0.2605455103) 465 881 1
(0.03413805051 0.4829309747 0.1502572001 0.3326737747) 463 897 1
(0.4886435791 0.2556782104 0.144691267 0.1109869434) 502 968 2
(0.5351465435 0.2324267282 0.1402594178 0.09216731043) 494 953 2
(0.04609750272 0.2634419984 0.4769512486 0.2135092502) 531 1026 2
(0.8426036788 0.07767563369 0.001022526933 0.07869816062) 484 936 1
(0.5963928537 0.2018035731 0.1145590995 0.08724447364) 521 1007 1
(0.5809457334 0.1170587092 0.2095271333 0.09246842408) 529 1019 1
(0.2266910363 0.3863802876 0.0002741942213 0.3866544819) 542 1028 2
(0.152561916 0.1704655933 0.423719042 0.2532534487) 370 720 2
(0.2684182297 0.1454192077 0.2203716775 0.3657908852) 404 784 1
(0.4270037636 0.0328303245 0.2536677937 0.2864981182) 393 745 2
(0.02779418431 0.4861029078 0.301845028 0.1842578799) 399 772 2
(0.1564622189 0.4217688906 0.3902233791 0.03154551149) 452 876 1
(0.1593292856 0.1889110352 0.4203353572 0.231424322) 380 739 2
(0.0907026675 0.04926931085 0.4546486662 0.4053793554) 473 913 1
(0.435271519 0.2823642405 0.2064328519 0.07593138861) 511 987 2
(0.0797167845 0.1040685423 0.3560730655 0.4601416078) 384 728 2
(0.3071802924 0.3464098538 0.2309487628 0.115461091) 393 761 2
(0.1986545218 0.4006727391 0.2531645518 0.1475081873) 413 802 1
(0.2500988226 0.3749505887 0.008796787233 0.3661538015) 394 766 1
(0.06000364103 0.3674385015 0.4699981795 0.102559678) 441 855 2
(0.266315917 0.280969983 0.08587205851 0.3668420415) 403 764 2
(0.2326784335 0.3179548231 0.06570596015 0.3836607832) 433 821 2
(0.3157702702 0.127619353 0.3421148649 0.2144955119) 438 849 2
(0.5521486659 0.002802831604 0.2239256671 0.2211228354) 382 743 2
(0.1948368702 0.3717296463 0.4025815649 0.03085191863) 498 963 2
(0.06798321204 0.3223952194 0.1436131746 0.466008394) 444 842 2
(0.4386684056 0.2806657972 0.1245249188 0.1561408784) 422 818 2
(0.511807094 0.2059718116 0.03812464136 0.244096453) 505 957 2
(0.1598401574 0.4200799213 0.009315891853 0.4107640295) 454 877 2
(0.1754968695 0.01917636765 0.4122515652 0.3930751976) 490 948 2
(0.1096049768 0.4451975116 0.003437017294 0.4417604943) 533 1029 2
(0.204497028 0.397751486 0.06050913189 0.3372423541) 482 932 2
(0.03438066101 0.4502574236 0.03255224589 0.4828096695) 491 949 1
(0.1126625895 0.1416940059 0.4436687053 0.3019746993) 474 918 2
(0.1209935487 0.4395032257 0.1863904306 0.253112795) 404 766 1
(0.03291082094 0.2918791182 0.4835445895 0.1916654713) 390 755 1
(0.5976831876 0.2011584062 0.1731642597 0.02799414651) 403 764 1
(0.5085498219 0.174077273 0.07164781605 0.245725089) 435 2221 1
(0.1869960688 0.4065019656 0.1327582586 0.273743707) 413 801 2
(0.2709220921 0.331061687 0.364538954 0.03347726694) 424 823 2
(0.1582639088 0.1163508177 0.3045172279 0.4208680456) 410 795 1
(0.1956879058 0.4021560471 0.3780339673 0.02412207977) 415 805 1
(0.1660609717 0.4169695141 0.4115025323 0.00546698185) 415 803 2
(0.2905975205 0.08312348561 0.2715777541 0.3547012397) 415 786 2
(0.1852437868 0.3348421748 0.07253593183 0.4073781066) 414 803 1
(0.4594447321 0.1859618288 0.2702776339 0.08431580516) 362 702 1
(0.4689297592 0.04851483287 0.2170202875 0.2655351204) 501 950 2
(0.05285039548 0.04263562864 0.4309391736 0.4735748023) 441 836 2
(0.08054578137 0.2265594967 0.4597271093 0.2331676126) 365 710 2
(0.3715655101 0.3064136893 0.007803555658 0.314217245) 503 972 1
(0.8429784075 0.003726015598 0.07851079627 0.07478478068) 501 969 2
(0.6508324675 0.1745837663 0.0759696699 0.09861409636) 492 949 2
(0.2776904127 0.1809397113 0.3611547937 0.1802150824) 474 915 1
(0.1293463562 0.4353268219 0.3380985431 0.09722827886) 384 747 1
(0.2700495337 0.2995007965 0.3649752331 0.0654744366) 437 847 2
(0.4633082186 0.1887020929 0.07964379783 0.2683458907) 535 1014 2
(0.7398404875 0.01132810401 0.1187516522 0.1300797562) 485 919 2
(0.2282098696 0.3858950652 0.1634181188 0.2224769464) 475 919 1
(0.1448182068 0.4275908966 0.1955969542 0.2319939424) 449 870 1
(0.4128982834 0.1776668984 0.2935508583 0.1158839598) 432 835 1
(0.2939772157 0.2649891973 0.3530113921 0.08802219479) 485 938 2
(0.114339841 0.4428300795 0.06439511613 0.3784349634) 465 881 1
(0.2676806693 0.3661596653 0.2964015386 0.06975812674) 465 898 2
(0.2559603006 0.3720198497 0.01972446495 0.3522953848) 442 857 1
(0.04227396076 0.4788630196 0.06053209045 0.4183309292) 404 785 1
(0.00485208654 0.4975739567 0.09436215088 0.4032118059) 381 722 1
(0.2111418448 0.3944290776 0.001959992452 0.3924690851) 374 709 1
(0.2304725065 0.3161711383 0.3847637467 0.06859260845) 405 784 1
(0.05121654241 0.1278089539 0.4743917288 0.3465827749) 399 775 2
(0.2050298959 0.3376012054 0.397485052 0.05988384665) 429 832 2
(0.01439449134 0.4928027543 0.2233029436 0.2694998108) 413 783 1
(0.08038891933 0.4598055403 0.08524598604 0.3745595543) 395 767 1
(0.5125389244 0.09604310331 0.2437305378 0.1476874345) 399 775 2
(0.1391619025 0.01076312044 0.4196559283 0.4304190487) 414 803 1
(0.301804853 0.3461604077 0.3490975735 0.002937165807) 370 720 2
(0.5433035071 0.1916433027 0.2283482464 0.0367049437) 371 722 2
(0.3934068614 0.1055109113 0.197785658 0.3032965693) 394 765 1
(0.6885337846 0.1557331077 0.09658635798 0.05914674972) 401 778 2
(0.7437999868 0.01542775019 0.1126722564 0.1281000066) 432 837 1
(0.5837234834 0.2081382583 0.09895845353 0.1091798048) 393 761 2
(0.8949418795 0.01646231812 0.05252906024 0.03606674212) 385 748 2
(0.5412246092 0.1517324054 0.07765528999 0.2293876954) 524 994 2
(0.1030316725 0.05112314839 0.4484841638 0.3973610154) 451 871 1
(0.5448440159 0.227577992 0.03793541213 0.1896425799) 402 780 2
(0.4982530916 0.01441347016 0.2508734542 0.2364599841) 392 759 1
(0.1593367766 0.4203316117 0.3646752826 0.05565632912) 445 2222 2
(0.1687309638 0.2913347149 0.4156345181 0.1242998032) 475 919 2
(0.3749969382 0.108964277 0.2035372539 0.3125015309) 441 836 2
(0.03450825277 0.4827458736 0.1067997712 0.3759461024) 473 897 1
(0.4637658383 0.2681170809 0.1667106637 0.1014064172) 512 990 1
(0.1709646191 0.4145176904 0.2808801491 0.1336375413) 451 855 1
(0.02356384767 0.4032887408 0.08492933536 0.4882180762) 425 2220 1
(0.1044325964 0.26314775 0.4477837018 0.1846359518) 505 976 2
(0.6510238053 0.04037680951 0.1744880974 0.1341112879) 513 989 1
(0.5995957057 0.2002021471 0.03173806046 0.1684640867) 462 894 2
(0.14069325 0.1564691485 0.2731842265 0.429653375) 543 1041 1
(0.5300645208 0.2349677396 0.03797384385 0.1969938958) 514 993 2
(0.307167323 0.09744266314 0.3464163385 0.2489736754) 494 956 2
(0.5292350891 0.2353824555 0.08943664009 0.1459458154) 483 934 2
(0.8270855654 0.02972709939 0.05673011789 0.08645721728) 510 985 1
(0.7030307569 0.1006791475 0.04780547405 0.1484846215) 522 1008 1
(0.6904683852 0.1199417145 0.1547658074 0.03482409294) 533 1027 1
(0.5296286706 0.2351856647 0.05982329727 0.1753623674) 504 956 1
(0.2997216889 0.3501391556 0.3363819217 0.01375723383) 524 1012 2
(0.2078257609 0.3960871196 0.06689784898 0.3291892706) 513 989 2
(0.05445584162 0.2691119367 0.2036601425 0.4727720792) 462 876 2
(0.05035893647 0.4748205318 0.4167129842 0.0581075476) 373 725 2
(0.2353318782 0.3823340609 0.3820029866 0.0003310743482) 414 804 1
(0.4894352789 0.2552823605 0.07832068061 0.1769616799) 385 748 1
(0.05082868992 0.474585655 0.3737178009 0.1008678541) 390 758 1
(0.5204552962 0.2397723519 0.1113065969 0.128465755) 383 744 2
(0.374412869 0.3127935655 0.270125558 0.04266800745) 458 884 2
(0.2977042021 0.3511478989 0.1185881128 0.2325597862) 423 820 2
(0.8080783945 0.09596080276 0.03371702562 0.06224377714) 403 780 2
(0.1381507341 0.430924633 0.2088773169 0.2220473161) 425 2220 2
(0.2667697452 0.3666151274 0.06657873719 0.3000363902) 434 823 1
(0.01500246017 0.4924987699 0.4211795325 0.07131923741) 393 763 2
(0.2523830017 0.1826627641 0.1911457351 0.3738084992) 432 837 1
(0.659891381 0.1262846039 0.04376970565 0.1700543095) 442 838 2
(0.08599872816 0.04433985681 0.4126607791 0.4570006359) 433 839 1
(0.2400147386 0.3442402569 0.3799926307 0.03575237374) 425 822 1
(0.2749597029 0.3625201485 0.3398609681 0.02265918042) 383 726 1
(0.3749982872 0.3125008564 0.2807282247 0.03177263168) 410 795 2
(0.2037135508 0.3981432246 0.2947880347 0.1033551899) 445 862 1
(0.1086286847 0.3870219707 0.4456856576 0.0586636869) 401 776 1
(0.2952709828 0.3523645086 0.1270873669 0.2252771417) 452 875 2
(0.5744739577 0.2127630212 0.2103249874 0.002438033754) 435 841 2
(0.01639682011 0.4918015899 0.3401661406 0.1516354494) 472 914 1
(0.1902744113 0.4048627944 0.3188434884 0.086019306) 493 951 2
(0.1431941323 0.3831683821 0.4284029339 0.04523455176) 481 931 2
(0.09289795415 0.4535510229 0.4327672778 0.02078374515) 454 861 1
(0.05175617665 0.2257456115 0.4741219117 0.2483763002) 453 878 2
(0.1842176792 0.4078911604 0.1296140044 0.278277156) 432 837 2
(0.6864094677 0.1567952661 0.01046443765 0.1463308285) 442 838 1
(0.1356781398 0.1299565428 0.4321609301 0.3022043873) 471 912 2
(0.7095204765 0.1452397618 0.09392153029 0.05131823148) 465 898 2
(0.4938161381 0.253091931 0.09971925664 0.1533726743) 464 899 1
(0.2661971658 0.04747144301 0.3669014171 0.3194299741) 491 950 2
(0.3333999004 0.2244696404 0.1088304093 0.3333000498) 461 874 2
(0.1437850854 0.4281074573 0.1422699371 0.2858375202) 527 999 1
(0.1537337411 0.2573340661 0.1657990634 0.4231331295) 512 989 1
(0.1868876439 0.2779259358 0.406556178 0.1286302422) 452 876 2
(0.6739251449 0.1630374276 0.1062100128 0.05682741474) 453 875 2
(0.5745536012 0.0982779646 0.1144452348 0.2127231994) 404 784 1
(0.6547716462 0.1709696167 0.1726141769 0.001644560198) 539 1036 1
(0.3491865825 0.1516828227 0.1737238861 0.3254067088) 473 915 1
(0.2172672336 0.2476388648 0.3913663832 0.1437275184) 491 950 2
(0.4632296292 0.2683851854 0.1848495936 0.0835355918) 494 956 1
(0.3952014335 0.3023992832 0.2249735279 0.07742575529) 503 954 1
(0.5316902509 0.1230936161 0.1110612585 0.2341548746) 530 1023 1
(0.6323864821 0.1838067589 0.04317929774 0.1406274612) 512 990 1
(0.6587829525 0.1028635418 0.1706085238 0.067744982) 473 913 1
(0.2041603923 0.3979198039 0.1629608839 0.23495892) 383 742 2
(0.3008235767 0.3495882117 0.2694302504 0.08015796129) 374 725 2
(0.02286569359 0.4885671532 0.1881180675 0.3004490857) 380 736 2
(0.02284994437 0.3916439203 0.4885750278 0.0969311075) 369 715 1
(0.6961721421 0.1519139289 0.1121259416 0.03978798732) 445 2222 2
(0.03145386136 0.4197080519 0.4842730693 0.06456501744) 405 784 1
(0.0928202119 0.453589894 0.4489010983 0.00468879578) 414 801 2
(0.07230086547 0.4638495673 0.2713000922 0.192549475) 402 781 1
(0.0949910019 0.452504499 0.3913815558 0.06112294323) 401 779 1
(0.007272525621 0.4963637372 0.2673722295 0.2289915077) 423 818 2
(0.4712609247 0.1523119556 0.2643695376 0.1120575821) 395 767 2
(0.1184256601 0.4407871699 0.01531015441 0.4254770155) 364 709 1
(0.5144480025 0.2427759987 0.1834469911 0.05932900763) 414 801 2
(0.0208104983 0.4895947508 0.03574148809 0.4538532628) 393 764 1
(0.3790508397 0.01204519374 0.2984293864 0.3104745801) 414 803 1
(0.3803981209 0.02584421469 0.2839567249 0.3098009396) 393 745 2
(0.7756342952 0.1042520978 0.007930754562 0.1121828524) 445 2222 1
(0.6941089267 0.1169676387 0.1529455367 0.03597789795) 423 821 2
(0.8481076426 0.06113652584 0.01480965285 0.07594617868) 412 799 1
(0.2746219782 0.3626890109 0.2415131769 0.121175834) 465 900 1
(0.6870005155 0.1175234779 0.1564997422 0.03897626431) 385 748 2
(0.3294154418 0.3352922791 0.04560251892 0.2896897602) 504 974 2
(0.3157181867 0.3421409067 0.1637701552 0.1783707515) 470 910 1
(0.1474345661 0.3287854453 0.4262827169 0.09749727169) 404 782 1
(0.6342815093 0.01833820702 0.1645210383 0.1828592453) 471 911 1
(0.6183158116 0.1908420942 0.08359240657 0.1072496876) 502 968 2
(0.4576481716 0.2199126458 0.2711759142 0.05126326837) 413 802 2
(0.08212468955 0.4589376552 0.07063483977 0.3883028155) 425 2220 2
(0.5862369456 0.1642663341 0.2068815272 0.04261519307) 512 987 1
(0.4156708316 0.1643085866 0.2921645842 0.1278559976) 464 896 1
(0.137070028 0.3491328434 0.431464986 0.0823321426) 412 797 1
(0.6778219569 0.1610890216 0.06908840726 0.0920006143) 499 946 1
(0.8122359588 0.0938820206 0.02706499863 0.06681702197) 533 1029 2
(0.05457713232 0.4727114338 0.2089480248 0.2637634091) 490 947 2
(0.5839785799 0.20801071 0.06457905263 0.1434316574) 484 934 2
(0.3826116079 0.308694196 0.06066732887 0.2480268672) 432 837 2
(0.03248429576 0.08590551892 0.4837578521 0.3978523332) 363 704 1
(0.2523249313 0.3738375343 0.10684475 0.2669927843) 385 729 1
(0.3745552631 0.2612907579 0.05143161051 0.3127223684) 435 824 2
(0.2555489552 0.3199033819 0.05232214051 0.3722255224) 382 742 1
(0.2702914141 0.3473306863 0.3648542929 0.01752360659) 441 855 2
(0.01801460983 0.2132137601 0.4909926951 0.277778935) 373 723 1
(0.03067293184 0.4846635341 0.09494191312 0.389721621) 394 765 2
(0.08519370271 0.2695001394 0.4574031486 0.1879030093) 383 742 1
(0.9285694975 0.01816803677 0.01754721449 0.03571525126) 441 836 2
(0.1715770171 0.4142114915 0.4112170097 0.002994481743) 423 818 2
(0.03068844968 0.4846557752 0.2321413078 0.2525144674) 473 915 2
(0.7454307471 0.0780874705 0.04919715592 0.1272846264) 452 875 1
(0.4229512836 0.2885243582 0.1103410402 0.178183318) 381 738 2
(0.05529506292 0.3760531517 0.09629931685 0.4723524685) 422 800 2
(0.8055599444 0.0972200278 0.09429504248 0.002924985319) 431 835 2
(0.07276250218 0.09021087782 0.3734078711 0.4636187489) 412 781 2
(0.160968445 0.4195157775 0.2493423967 0.1701733808) 435 843 1
(0.3988373481 0.004768805007 0.300581326 0.295812521) 411 795 1
(0.08815662967 0.4559216852 0.4287919643 0.02712972089) 510 985 2
(0.8041995399 0.03179363415 0.06610659591 0.09790023006) 512 989 1
(0.05975366985 0.4701231651 0.3698219351 0.10030123) 447 866 1
(0.1870100641 0.3936001963 0.01289477167 0.406494968) 501 950 2
(0.4779480921 0.2610259539 0.006565462495 0.2544604914) 482 932 2
(0.3724436142 0.3137781929 0.2343223918 0.07945580109) 453 875 2
(0.2573381733 0.0122008864 0.3591300269 0.3713309133) 470 909 1
(0.6939079992 0.1530460004 0.004216530855 0.1488294696) 484 918 1
(0.08455152629 0.4577242369 0.3815949672 0.07612926962) 475 900 1
(0.2086856498 0.3956571751 0.01241116037 0.3832460147) 485 938 1
(0.1156332774 0.336665904 0.4421833613 0.1055174573) 471 912 2
(0.07139754902 0.4103101747 0.05399105084 0.4643012255) 484 936 1
(0.2040457638 0.2479173524 0.1500597657 0.3979771181) 497 960 1
(0.03036343522 0.2417417791 0.2430765033 0.4848182824) 494 937 2
(0.2598728016 0.07351787126 0.2965457279 0.3700635992) 453 859 2
(0.7295605986 0.1352197007 0.007258756021 0.1279609447) 494 956 1
(0.02233283554 0.4888335822 0.1848931411 0.3039404411) 503 973 1
(0.04628461573 0.4369683659 0.03988932628 0.4768576921) 534 1013 2
(0.0703154527 0.4370457447 0.02779652893 0.4648422737) 495 2227 1
(0.1060274196 0.4469862902 0.3593287672 0.08765752298) 504 974 2
(0.1268381092 0.4365809454 0.2937146978 0.1428662476) 494 953 2
(0.04809959335 0.4759502033 0.377793294 0.09815690935) 501 968 2
(0.08661525848 0.4566923708 0.1214827561 0.3352096147) 239 478 1
(0.2808832221 0.3159635495 0.359558389 0.0435948395) 524 1013 2
(0.02213870537 0.4889306473 0.1143946382 0.3745360091) 542 1028 1
(0.1223948306 0.2772944881 0.4388025847 0.1615080966) 504 975 2
(0.4317782483 0.2841108759 0.2556028073 0.02850806859) 535 2231 2
(0.179837401 0.2997672315 0.110314068 0.4100812995) 392 743 2
(0.2648995028 0.3675502486 0.3319280891 0.03562215946) 392 762 1
(0.1737113717 0.4131443142 0.3470694312 0.06607488295) 384 746 2
(0.6141724548 0.1929137726 0.1848434124 0.008070360232) 391 757 2
(0.1815648598 0.164192598 0.4092175701 0.2450249721) 402 781 2
(0.1722883779 0.4138558111 0.3166867323 0.09716907879) 445 843 1
(0.2542669658 0.3728665171 0.08746345533 0.2854030618) 430 833 2
(0.2687352643 0.2724402238 0.3656323679 0.09319214403) 428 830 2
(0.3796277558 0.1854357696 0.1247503525 0.3101861221) 420 814 1
(0.1295467841 0.4352266079 0.05039562296 0.384830985) 380 739 1
(0.1630116633 0.4184941684 0.03808710145 0.3804070669) 395 748 1
(0.7971538974 0.002431206873 0.09899184443 0.1014230513) 401 760 2
(0.4361004003 0.2239398656 0.05800993424 0.2819497998) 98 196 1
(0.5626884858 0.02920386019 0.2186557571 0.1894518969) 374 725 1
(0.4680558474 0.2659720763 0.07471169303 0.1912603832) 373 723 2
(0.1156153026 0.0614180343 0.4421923487 0.3807743144) 375 727 1
(0.6596200676 0.03905537701 0.1701899662 0.1311345892) 422 816 1
(0.806639064 0.09668046798 0.001667284576 0.09501318341) 443 858 2
(0.6331273934 0.1834363033 0.1481347345 0.03530156878) 453 859 1
(0.192845916 0.403577042 0.2989104331 0.1046666089) 468 903 2
(0.944720166 0.02763991702 0.02218761605 0.005452300976) 420 815 1
(0.2928770237 0.2452779312 0.108283557 0.3535614882) 408 773 2
(0.5743818647 0.2128090677 0.09045969918 0.1223493685) 371 703 1
(0.0540763051 0.4729618474 0.3108206655 0.162141182) 510 983 2
(0.105727472 0.422781381 0.02435488293 0.447136264) 467 885 2
(0.4972091992 0.2513954004 0.1595622378 0.09183316265) 452 873 2
(0.1835935648 0.225988324 0.1822148936 0.4082032176) 508 963 2
(0.1792519104 0.4103740448 0.3267251346 0.08364891027) 427 825 2
(0.1892691033 0.222221412 0.4053654483 0.1831440363) 515 995 2
(0.1995246826 0.1731782181 0.4002376587 0.2270594406) 499 965 2
(0.431850534 0.2540714834 0.0300032496 0.284074733) 464 880 2
(0.03153508733 0.4842324563 0.1228776341 0.3613548223) 441 836 1
(0.3601198647 0.3199400677 0.05415133324 0.2657887344) 435 841 2
(0.6745508622 0.09742485143 0.1627245689 0.06529971748) 469 908 2
(0.2403214905 0.3798392548 0.08015753127 0.2996817235) 448 865 2
(0.647534879 0.1762325605 0.0846590449 0.09157351562) 482 932 2
(0.4800899837 0.1807534933 0.07920151484 0.2599550081) 424 804 2
(0.6772287207 0.1527121259 0.008673513761 0.1613856396) 512 989 1
(0.0525409698 0.4737295151 0.1372503667 0.3364791484) 493 954 1
(0.06335597616 0.4683220119 0.3008431674 0.1674788445) 484 937 1
(0.1809212574 0.1229406834 0.2865986879 0.4095393713) 502 970 1
(0.1129183841 0.443540808 0.01892466756 0.4246161404) 534 1013 1
(0.2582921061 0.3708539469 0.2717085625 0.09914538442) 524 994 1
(0.2200981892 0.3537263012 0.3899509054 0.0362246042) 507 980 2
(0.4703165851 0.2648417074 0.198001739 0.06683996843) 444 842 1
(0.6296568197 0.1851715902 0.122299023 0.06287256721) 530 1023 2
(0.360492 0.319754 0.3087526664 0.0110013336) 528 1001 1
(0.1547879934 0.4226060033 0.03210364471 0.3905023586) 532 1028 1
(0.4093151354 0.2172864918 0.07805594048 0.2953424323) 501 968 1
(0.6908755408 0.1545622296 0.04179030718 0.1127719224) 533 1027 2
(0.5886373134 0.2056813433 0.06115865401 0.1445226893) 533 1011 1
(0.1901122808 0.4049438596 0.1595663472 0.2453775124) 411 798 1
(0.4855202565 0.2572398718 0.005354605062 0.2518852667) 392 761 2
(0.1706420499 0.1892527913 0.414678975 0.2254261837) 393 761 1
(0.2428516168 0.3785741916 0.1641809374 0.2143932542) 408 791 2