/*--------------------------------*- C++ -*----------------------------------*\
| =========                 |                                                 |
| \\      /  F ield         | OpenFOAM: The Open Source CFD Toolbox           |
|  \\    /   O peration     | Version:  2406                                  |
|   \\  /    A nd           | Website:  www.openfoam.com                      |
|    \\/     M anipulation  |                                                 |
\*---------------------------------------------------------------------------*/
FoamFile
{
    version     2.0;
    format      ascii;
    arch        "LSB;label=32;scalar=64";
    class       scalarField;
    location    "0.01/lagrangian/dsmc";
    object      Ei;
}
// * * * * * * * * * * * * * * * * * * * * * * * * * * * * * * * * * * * * * //


5144
(
8.293065887e-21
2.653113642e-20
1.981949025e-21
6.387101985e-21
2.356863873e-21
6.044191267e-22
6.141623288e-22
3.02589077e-21
2.073150734e-21
1.706249749e-21
1.401316317e-21
1.225926288e-21
2.206604853e-21
3.093338813e-21
5.557523276e-21
3.144448141e-21
8.301085251e-21
5.408095713e-21
2.061091342e-21
4.28350098e-21
4.232516013e-22
1.517502608e-21
1.037648931e-21
2.787486317e-21
8.541544348e-22
1.362077567e-20
8.663846045e-21
4.059893243e-21
2.107442436e-21
1.447698204e-20
1.115733088e-20
6.703982405e-22
6.848391051e-22
1.816618681e-21
7.025758977e-21
4.26131088e-21
5.128620834e-21
4.962985581e-21
7.730419638e-22
1.470827116e-21
2.380160588e-22
9.00756771e-22
1.013281269e-21
3.17303928e-21
1.312294406e-21
6.343066689e-22
8.803647025e-23
7.881488464e-23
1.417814628e-21
6.307171197e-23
3.857190092e-22
4.393733097e-21
5.581973232e-21
6.340585044e-22
5.28037968e-21
2.887932222e-21
4.520599367e-23
3.928704166e-21
2.368843396e-21
8.607454098e-21
1.991174142e-22
4.17842511e-22
4.704058317e-21
2.373463833e-21
7.075944881e-21
6.074402934e-22
1.985095172e-21
5.46167872e-22
2.279017675e-22
1.314352458e-21
2.664858031e-21
3.626613962e-21
4.788661325e-21
1.621060876e-21
1.831164539e-21
9.751969703e-21
5.470698935e-21
2.515594707e-21
4.642734269e-22
1.578829271e-21
1.484716878e-21
8.735377336e-22
4.534048257e-21
1.357146606e-21
3.031398826e-21
9.154678193e-21
1.177447378e-20
4.736436735e-21
1.714445098e-21
1.873204074e-21
8.125486557e-24
2.026064109e-22
3.038956356e-21
1.984069455e-21
9.098753322e-22
2.531878909e-21
5.333353766e-21
1.2025502e-22
2.658900516e-22
2.353642856e-22
1.589991624e-20
2.321857357e-21
5.216526387e-23
8.449981894e-22
3.137302278e-21
6.812651537e-21
8.10405993e-21
9.378408463e-22
4.599588183e-22
6.014542989e-21
3.717494259e-21
6.976397649e-22
1.088896386e-20
5.975050385e-22
1.150185927e-20
7.51486279e-22
3.563853399e-21
1.144995531e-20
2.840646574e-21
8.280848867e-22
3.123383192e-21
1.347193773e-21
1.409384494e-21
4.42333549e-22
4.781706906e-22
6.970426532e-21
8.949733948e-21
1.535917209e-21
1.588663586e-20
2.243480329e-23
9.096820173e-21
5.996642356e-21
1.253951437e-20
4.430868772e-21
4.717436365e-21
9.2751972e-22
4.20332187e-21
6.617291775e-21
1.830321951e-21
9.550299923e-22
7.216567634e-22
6.985286234e-21
7.551818562e-22
8.053266296e-21
2.447487397e-21
2.525934234e-23
1.436835801e-21
2.013904373e-21
4.077319834e-21
2.514694693e-21
1.663790356e-22
2.235838627e-21
2.585340894e-21
8.703766263e-22
1.697008441e-20
1.859759585e-22
1.344846578e-20
3.766896008e-21
2.31980985e-22
4.351119144e-21
1.365102359e-20
8.015939566e-22
1.061437497e-20
2.821033986e-21
1.683540452e-20
2.261851381e-21
7.061380615e-21
2.753695325e-22
1.488737105e-21
5.245631417e-21
2.508988179e-21
2.302931286e-22
2.893411458e-21
1.162396352e-20
3.909443438e-21
3.363221092e-21
4.337987208e-21
5.827600402e-21
5.224482981e-21
1.392013512e-20
5.514300738e-21
4.384398261e-22
2.824099733e-21
7.762859197e-22
3.742532385e-22
1.343275621e-21
5.92220956e-21
7.807367784e-21
2.369313132e-21
4.029635972e-21
7.796354236e-21
3.889466727e-22
1.065289576e-21
3.131419518e-21
1.834793183e-21
1.157773046e-21
6.858268799e-21
1.025950021e-21
2.559213829e-21
1.78020928e-21
6.054044523e-21
8.122200049e-22
1.124067842e-21
5.164100201e-21
4.801808196e-21
8.406924487e-22
1.882828479e-21
5.500533637e-21
2.728021716e-21
3.250754398e-21
3.234109737e-21
2.984900651e-21
7.167427383e-21
3.19563417e-21
7.328337621e-22
1.671182058e-20
8.501911962e-21
6.236406191e-21
1.719096831e-21
2.888259667e-21
5.911359076e-21
7.528360421e-22
6.941322568e-21
1.38564495e-21
3.25477204e-21
1.895577517e-21
9.01135632e-22
5.001878819e-22
1.231856016e-21
2.55967058e-21
5.754518728e-21
1.603189989e-21
8.945187746e-21
3.224980418e-22
5.411451776e-21
4.726705207e-21
2.873071436e-21
4.366481749e-21
5.175509183e-21
1.727236997e-21
1.530407522e-20
2.42362068e-21
2.882706685e-23
1.954380449e-20
1.69408228e-20
2.036513652e-21
8.736793048e-21
2.484349847e-21
5.106715607e-21
1.818960472e-21
5.824492287e-21
1.700339482e-21
3.474356879e-22
3.971563758e-21
1.78381537e-21
1.281704077e-21
7.240905633e-21
1.695310426e-21
4.246202445e-21
3.173514363e-21
8.497202502e-21
2.979755379e-21
1.047805593e-21
3.142196985e-21
6.967364481e-22
2.408555907e-21
1.066703194e-21
5.67259421e-21
3.546583335e-21
4.596736546e-21
4.449427841e-22
3.951367533e-21
2.840763832e-21
2.079040177e-21
6.620762317e-22
1.756943677e-21
2.010273612e-21
4.460756453e-21
6.104670231e-21
2.41003325e-21
4.068207208e-21
1.07649607e-21
1.046918412e-21
8.20321858e-21
7.767890191e-21
1.01870828e-21
3.707414973e-21
4.235101868e-22
3.410791519e-22
1.33447452e-21
1.274804958e-21
1.581277993e-20
4.68932151e-21
6.167596131e-21
1.000456621e-20
6.893328422e-21
1.005686621e-20
1.517858756e-22
7.558478696e-21
2.121521671e-21
1.249023589e-21
1.461787231e-21
2.447412394e-21
1.837018792e-22
3.992149484e-21
6.194538502e-22
2.088768202e-20
2.778152994e-21
1.678064823e-21
1.53053711e-21
7.017360743e-21
8.74917341e-21
4.404761603e-21
5.377151566e-22
4.816918249e-21
2.307856149e-21
7.110833489e-21
1.039175199e-20
9.290843432e-21
5.012135625e-21
4.251819954e-22
6.401496943e-21
3.058269687e-21
8.033992895e-21
2.976133915e-21
5.442123705e-21
3.349021957e-22
1.063568811e-21
6.126124195e-21
3.68116808e-21
1.659030422e-21
6.837061675e-21
2.136040069e-21
1.928664506e-21
7.244150459e-21
1.507594264e-21
2.141813281e-22
9.425789091e-22
2.704716543e-21
3.713943337e-22
3.150964841e-21
1.692377542e-21
3.220621292e-21
4.515902517e-21
1.496270652e-20
1.084561609e-20
6.424246829e-21
2.730919124e-21
2.993314694e-22
5.176770701e-21
9.212210007e-21
3.8800445e-21
1.819553138e-21
4.437550041e-22
1.262101078e-20
6.739847199e-22
2.651951624e-21
5.628505916e-22
1.452812241e-21
5.662894358e-21
4.093112424e-21
7.618906857e-22
2.434311467e-21
2.347733651e-20
2.220723036e-21
2.094694026e-21
4.162634606e-22
3.436946951e-23
5.711720131e-21
1.229397667e-20
6.615676025e-21
6.384274026e-23
2.953217544e-21
4.019778208e-21
5.161182189e-21
6.235649195e-21
3.49958444e-21
2.721413399e-21
2.080516766e-21
1.115962341e-20
1.097586308e-20
2.570086329e-21
6.196466271e-21
4.606518879e-21
2.570851896e-21
1.259270767e-21
3.556177149e-22
1.195362871e-20
6.260457661e-21
1.946516825e-21
6.041379915e-21
5.790904395e-21
2.746073254e-21
2.821276394e-21
3.715237543e-21
6.135337001e-21
1.493255338e-21
4.231033411e-22
1.613555076e-21
5.069963155e-21
8.812402261e-22
1.426958194e-21
2.014766051e-22
9.7945218e-21
6.125572815e-21
1.347182325e-22
1.048155835e-20
2.854275863e-23
1.895507407e-21
5.307546112e-21
4.660974643e-21
2.326934598e-22
1.113480307e-20
1.985171063e-22
4.430736997e-21
2.166930004e-21
1.378971847e-21
1.079689975e-21
8.629340913e-21
3.925245726e-21
5.101565115e-22
3.052177762e-21
5.789434957e-21
1.195383553e-20
2.575704527e-21
4.858088387e-21
1.063314244e-22
9.420046545e-21
1.291434868e-21
5.839121817e-21
4.895566811e-22
1.514876541e-21
1.122702404e-20
1.003722382e-20
3.140880824e-22
3.38486665e-21
9.864942625e-21
6.621295889e-22
2.962035944e-21
6.752693087e-21
4.734086107e-22
3.108010166e-22
6.384667356e-22
1.466202403e-21
7.099255212e-21
8.791704771e-21
2.570980516e-20
4.544407019e-21
7.925532241e-21
1.099294975e-21
3.469992644e-21
7.033047384e-21
3.267219823e-21
4.822569262e-21
1.530121822e-21
1.03999474e-21
1.919210994e-22
1.457571452e-21
1.376782987e-21
5.199988386e-21
3.342576807e-21
1.408428058e-21
1.274572063e-20
1.228219815e-20
5.149593509e-22
1.909390473e-22
3.543663073e-21
1.103206036e-21
6.125794618e-21
1.879337833e-22
2.098888459e-21
1.72836821e-20
7.831734926e-21
1.453153544e-20
2.136324191e-21
1.003132556e-22
1.786850368e-21
2.129448083e-21
3.95369874e-21
1.435949216e-20
3.180351612e-21
2.761796397e-21
4.058859551e-21
5.261732926e-21
1.896966625e-21
2.33935913e-21
9.284692759e-22
2.869670957e-22
3.477428662e-21
1.726938935e-21
2.070544523e-21
1.597866318e-21
6.957667115e-22
6.995233849e-22
1.236652215e-21
1.317162494e-21
2.719691537e-21
3.511681208e-21
1.892108066e-20
1.023058144e-21
1.869903738e-21
8.801874125e-21
1.019328192e-20
1.474957498e-21
2.488362029e-21
1.505798466e-21
1.683790746e-21
7.203927062e-21
8.270152514e-22
1.035397614e-21
3.409255704e-21
1.181889043e-22
1.18402849e-21
8.462994821e-21
8.100036882e-22
5.662671379e-21
4.435017602e-21
7.221645064e-21
1.707854725e-21
1.26045212e-22
3.215839847e-22
9.727466811e-21
4.666049563e-21
5.903661678e-21
1.359978196e-21
1.701015065e-21
2.066972576e-21
4.369842452e-21
9.647034169e-22
1.155954225e-21
2.471682412e-21
1.176970033e-20
5.750097334e-21
3.74738965e-21
4.101176454e-21
4.505779186e-21
4.190116718e-21
1.508333805e-20
1.80467944e-22
1.742000708e-21
6.41153133e-21
1.017090815e-21
1.881497963e-21
1.040819918e-21
1.285436642e-20
2.924251832e-21
6.881430558e-22
5.772772344e-21
4.989690192e-21
7.159014513e-21
7.534252675e-22
7.83789693e-23
1.315911721e-20
2.956528026e-22
1.985929852e-21
2.960337481e-21
2.142393194e-20
5.267068045e-22
5.518123217e-21
2.813588888e-21
9.366634368e-22
2.214145647e-21
2.037605231e-21
2.107450311e-21
6.254549731e-22
2.943837257e-21
1.206936995e-21
1.351731762e-22
1.658143739e-21
6.947920278e-21
1.348639117e-21
1.439309789e-21
1.345755743e-21
3.204236403e-21
2.165072854e-22
1.843865665e-22
2.242903012e-21
5.835453478e-21
1.40226312e-20
2.231548485e-22
6.535239355e-22
1.1573951e-21
2.132525069e-21
3.148844338e-21
3.712360871e-21
4.059877191e-21
1.982900394e-21
5.4488505e-21
2.567605779e-21
1.048304203e-23
4.263865729e-21
8.191761695e-22
6.453096773e-21
7.475981958e-21
9.808927168e-21
3.620456947e-21
9.7476656e-21
5.615491756e-21
1.378621105e-21
2.008113647e-21
7.336276163e-21
2.643476522e-22
3.782459042e-21
4.841420095e-22
7.129107355e-21
8.191647591e-23
6.021957336e-22
4.123119502e-21
2.145156142e-21
3.310601049e-21
1.072087477e-21
5.312625758e-22
5.115516073e-21
4.856220784e-21
8.296051849e-21
4.953005509e-22
3.333030141e-22
1.43091518e-21
6.099941972e-22
2.061184987e-22
9.446202209e-21
8.250108917e-22
1.182838713e-21
6.677134012e-21
1.288824046e-21
2.355972635e-20
5.386071999e-22
4.602432002e-23
1.063474799e-21
1.684108923e-20
4.11124458e-21
3.586863965e-21
4.46459406e-21
2.501503207e-22
8.194359528e-22
4.478782164e-22
8.163027016e-21
4.990605012e-21
3.913141002e-21
4.380530918e-21
4.483943687e-21
4.182601431e-21
3.259568919e-21
1.62319683e-20
5.571820118e-22
1.691227031e-21
5.192754657e-21
6.535816676e-21
6.933617136e-21
3.271677136e-20
1.470059387e-21
9.784202533e-22
6.316997159e-21
2.46000474e-21
4.107918975e-21
2.975885438e-21
2.37753599e-21
4.155469908e-21
4.438511315e-22
4.728872335e-21
8.174754803e-21
1.071490493e-21
2.000610484e-22
1.087846886e-20
3.585432551e-21
2.107319161e-20
9.244916432e-21
4.124691272e-21
8.503836057e-21
9.267599907e-21
2.838489871e-21
1.03484031e-21
3.982421857e-21
1.370938877e-21
4.522713122e-21
3.317122025e-21
7.64217551e-22
3.773545543e-21
4.025940877e-21
2.679018202e-21
2.476683368e-21
1.549756833e-22
1.741264117e-21
6.211829471e-21
7.375907229e-22
6.869836724e-22
4.198741195e-22
1.351473388e-21
3.138037555e-21
3.869722803e-21
3.470056407e-21
7.264612248e-21
5.863890593e-21
3.835418454e-21
1.127176339e-21
1.336505531e-22
8.758812313e-21
1.045470833e-21
2.963141421e-22
3.752197515e-21
1.715089506e-21
5.390058385e-21
2.855075128e-21
4.841167684e-22
4.452955023e-21
3.257512543e-21
3.429527869e-21
2.230512998e-21
3.361698003e-22
3.739246546e-21
4.450025812e-21
8.80890009e-22
5.874645351e-22
2.098565963e-21
3.467336772e-21
4.752687569e-21
5.876170147e-21
1.571531042e-21
1.904619235e-21
1.992034718e-21
3.232310333e-21
3.568661978e-21
6.416657981e-21
4.918920855e-21
4.375278507e-22
2.490551696e-20
3.913424768e-21
4.57169415e-22
9.693456166e-21
7.741998393e-21
4.043835269e-22
4.000762978e-21
2.614928825e-21
1.871634772e-21
1.477223514e-21
8.033302085e-22
3.812285648e-21
3.284888786e-21
4.842413714e-21
7.076810056e-21
1.184169783e-21
4.620246009e-21
2.410173794e-21
1.151658416e-21
4.713459516e-21
4.675906035e-21
8.78700258e-22
2.925946044e-21
1.004982545e-20
5.395619986e-21
1.368091343e-22
4.722358897e-21
2.15403041e-21
5.846167167e-21
3.441172308e-21
7.315717012e-21
7.298541787e-22
7.809053625e-21
4.207849178e-21
8.552589017e-21
2.042119096e-22
2.591655679e-21
1.266161997e-20
3.753138471e-21
7.989344818e-21
1.083238428e-21
2.867885159e-21
1.212255024e-20
4.604305796e-21
3.628321712e-21
9.244604845e-22
7.277259989e-21
1.226033937e-21
1.602343265e-21
3.605736261e-21
9.044623344e-22
1.09350333e-21
1.057530693e-20
1.141645805e-21
2.620360307e-22
2.085934197e-21
7.037648104e-22
7.034641211e-21
4.395462722e-21
6.401466999e-21
4.49471971e-22
2.988742655e-21
2.042901384e-21
7.534621314e-21
5.961091245e-22
4.869432394e-21
7.462064526e-22
2.340451615e-21
2.021993002e-21
1.914274207e-21
4.768500404e-21
3.721926866e-21
4.275204398e-21
1.487777117e-20
4.819057909e-21
8.859992344e-21
4.608102887e-21
5.866003214e-21
1.368731301e-21
1.992479964e-21
3.977077428e-21
4.106818235e-21
6.673214174e-21
7.674155113e-21
2.5133863e-22
6.57567458e-21
1.019224929e-21
3.649424088e-22
2.482543639e-21
2.406810811e-21
1.349505194e-21
2.30942566e-21
5.15380498e-21
4.816022522e-21
4.214922136e-21
2.577316676e-21
1.368227271e-21
2.952917663e-21
1.439650766e-21
2.241910227e-21
8.043923547e-22
3.132489503e-21
1.128504584e-20
7.199119192e-22
4.614712438e-22
2.599376878e-23
1.97207542e-21
6.660390752e-21
2.890800921e-21
1.748383325e-21
9.833425898e-21
4.583858379e-21
3.272731317e-21
2.926364837e-21
1.784574534e-22
6.776535699e-21
2.122877372e-21
6.084629406e-22
6.177032944e-21
2.692285359e-21
6.373766292e-22
1.030824711e-21
1.405195081e-21
3.050262608e-21
1.826623613e-21
3.286207121e-22
1.961194307e-21
3.606047816e-21
1.266474353e-21
4.502723095e-21
5.873370124e-21
3.324697339e-21
3.471395173e-21
2.871715714e-22
3.281966713e-22
1.86844387e-20
4.29264722e-21
3.940786066e-21
1.155844588e-21
4.974186733e-21
4.832265364e-21
9.562516486e-21
1.092867199e-21
4.418069115e-22
1.858642065e-21
6.518240685e-21
2.90643487e-22
5.318001905e-21
3.2560001e-21
1.48491709e-21
1.319254032e-21
3.012166249e-22
1.611028778e-21
1.629895091e-21
1.815921219e-21
2.321238005e-21
1.484742757e-21
2.437674711e-21
3.844091657e-22
1.793129236e-21
1.203126269e-21
8.112822963e-21
7.591426263e-21
1.171546498e-21
5.234966247e-22
9.661295777e-21
4.205837902e-21
3.237728532e-21
6.560637625e-22
2.992758111e-21
6.098250155e-21
3.936629777e-21
9.065572863e-21
5.710521977e-21
2.835997559e-21
1.861479839e-20
9.314292405e-21
2.753803566e-21
4.127085243e-21
4.818735979e-22
7.499810053e-21
2.859802084e-21
7.454216422e-21
5.307758768e-21
1.093026002e-20
5.391094516e-21
8.388787568e-21
6.986301223e-21
1.979371225e-21
3.805186589e-22
6.105506695e-21
1.084989717e-20
1.103346021e-22
5.893233032e-21
9.524183484e-21
4.97509645e-21
8.423070428e-21
2.607347344e-21
4.470721491e-22
9.049434824e-22
1.316300851e-21
1.19455824e-21
1.158205054e-20
7.133673345e-21
2.253134347e-21
2.652891683e-21
4.085681431e-21
1.892039898e-21
2.646734219e-21
1.33396295e-21
9.505828969e-22
1.426755091e-20
3.757938632e-21
7.156531447e-21
2.807596905e-22
9.236895384e-21
3.591004843e-21
5.181750932e-21
1.084270029e-21
8.25233084e-22
3.349018946e-21
1.357685814e-20
1.057667908e-21
1.864382765e-21
5.578717205e-21
1.250589228e-20
9.537193569e-21
2.871213833e-21
3.489998547e-21
2.647411683e-21
2.310013483e-21
4.331365909e-21
8.381422843e-22
7.548222316e-21
1.905041946e-21
6.827281518e-22
4.544478487e-22
4.32202536e-21
5.759262665e-23
6.514257272e-22
8.66124021e-21
5.556309658e-22
2.704262897e-21
7.958441445e-21
1.201309134e-20
4.190084389e-22
8.120047341e-21
2.575095386e-21
3.320030803e-21
5.8862943e-21
1.235662308e-21
1.215696055e-21
4.353069907e-21
2.324391099e-20
1.615477999e-21
1.869061289e-21
7.796031548e-21
3.985060915e-21
1.106568148e-21
7.623753113e-21
8.152705695e-21
8.809556071e-22
9.891096086e-21
6.872523334e-22
2.297884787e-21
7.77345615e-22
4.985977399e-23
2.112094776e-21
3.036245743e-21
7.765735124e-22
2.01646053e-21
1.795551948e-21
1.757609293e-21
1.492185253e-21
8.861194025e-22
3.984896599e-22
8.628867238e-21
4.921465585e-21
8.978542978e-22
1.29617219e-21
3.156349617e-21
1.397054595e-21
5.315109216e-21
4.481850773e-21
9.45206057e-21
9.08372453e-21
3.52509934e-21
6.049812556e-21
2.239928615e-21
9.082056362e-22
1.022591833e-21
1.189187154e-20
1.654420869e-22
7.344855913e-23
5.249197965e-21
1.635526944e-21
5.232938309e-21
4.466964515e-21
3.279607571e-21
1.273878529e-21
1.435360973e-21
6.905644203e-22
3.830854577e-21
4.611261999e-21
7.175058719e-22
2.482656314e-22
6.594678248e-21
7.559229706e-22
1.739902402e-21
7.970638585e-21
1.964306688e-21
2.380161968e-21
1.612511042e-21
1.416067879e-21
1.477653592e-20
8.568990975e-21
2.058313205e-21
2.745983342e-20
6.296186723e-21
8.14649462e-23
1.165255626e-21
5.319183031e-21
5.923279067e-22
7.131575571e-21
6.348881213e-21
7.836057664e-21
8.786157349e-21
6.830585247e-21
1.872463952e-21
3.382507328e-21
3.592098284e-21
9.494365017e-23
6.00771373e-21
3.225692865e-21
3.829841257e-21
6.79231934e-21
3.985302565e-22
3.686932935e-21
2.784345822e-21
5.916323861e-23
5.809418984e-21
4.83842546e-21
8.754669268e-21
5.356058562e-21
1.612795177e-20
3.831214856e-21
6.169936989e-22
4.535002356e-21
6.785427745e-22
9.160688786e-22
1.348818291e-21
6.605825209e-21
8.813108009e-21
7.683320257e-23
2.98536425e-21
1.665591933e-21
1.849894027e-21
3.606277846e-21
2.030793158e-21
1.759979016e-21
1.519328002e-20
4.745529536e-21
6.553751977e-22
1.142905497e-20
1.117090507e-21
2.726683347e-21
4.349562841e-22
1.580251057e-20
2.523093242e-21
5.093881876e-21
4.668561462e-21
1.978656329e-21
5.504750253e-21
4.9094184e-21
8.999011208e-22
2.080421351e-21
2.96894543e-21
2.421763569e-21
1.709873662e-21
1.007173837e-21
4.537094959e-21
2.969132203e-21
1.078432441e-22
1.012309906e-21
6.263216082e-21
9.091936955e-21
2.511592311e-21
1.470755462e-21
1.382206943e-21
1.068197711e-21
6.145343344e-21
2.624369854e-23
3.089655259e-22
3.832823567e-21
8.896746533e-22
4.127293681e-21
1.080254522e-21
2.784331695e-21
4.020235277e-22
2.286813584e-21
3.551099835e-21
6.588922395e-22
8.44478632e-21
1.558696106e-21
6.319676507e-22
7.048666058e-21
9.026257703e-22
1.317485586e-21
1.128293223e-22
4.505735218e-21
1.202276211e-20
1.506157591e-21
6.730479254e-23
7.502841345e-22
1.220387985e-20
1.494084801e-21
5.456653186e-22
7.706835729e-21
8.895274911e-21
5.952517802e-21
8.311146061e-21
1.105865285e-20
7.004125327e-22
9.15145418e-22
1.238483998e-20
1.663806606e-21
6.689880284e-21
8.653330389e-21
9.74110927e-22
7.655054416e-22
5.723556327e-21
2.171356795e-21
8.780738064e-22
4.289280352e-21
1.733649023e-21
1.363698482e-21
1.903056446e-21
6.96711979e-22
1.441382812e-20
4.249752588e-21
2.796409387e-22
7.211172966e-21
5.408388203e-21
3.676015349e-21
5.502659287e-21
2.045486212e-21
8.101768622e-21
1.771794687e-21
9.830321924e-22
1.285602994e-21
1.193982096e-20
1.904124102e-21
4.101523038e-22
2.088274198e-22
2.532540632e-21
9.139633756e-21
5.484310327e-22
2.544561369e-20
6.800034882e-21
3.504035025e-22
9.385981628e-22
1.017865691e-20
1.261969897e-20
1.095267316e-21
8.951474108e-22
2.136137355e-21
2.943029155e-21
5.685670229e-21
2.066853544e-22
5.088499456e-21
1.283220249e-20
2.868379853e-21
1.45610548e-21
1.109980383e-20
4.517622846e-22
1.238193235e-21
5.201334978e-22
2.690199294e-21
1.747957346e-20
5.190735659e-21
4.929928515e-21
1.498177534e-20
8.568061273e-22
2.801345017e-21
4.012882743e-21
7.131919874e-22
1.467698224e-21
3.642003288e-21
1.465860286e-21
1.336248915e-22
2.462473186e-21
7.1759906e-21
8.173787498e-22
8.969399488e-21
1.604954899e-20
2.288813311e-21
1.586654162e-21
6.821758821e-21
4.038818814e-22
3.282277764e-21
1.233867543e-21
1.615256615e-21
1.921712196e-20
2.080290165e-21
4.237142621e-22
2.344972314e-21
6.553763839e-21
1.843507224e-21
4.836383779e-21
4.554577665e-22
3.34872766e-21
2.516124284e-20
6.528447674e-22
1.46993437e-20
4.093457229e-21
9.033943409e-22
1.116559609e-20
2.196738225e-22
9.440836476e-22
4.66100728e-21
1.454729683e-22
3.602865671e-21
2.418969489e-21
6.428352877e-21
9.028447068e-21
6.840815219e-21
1.698248698e-21
4.220299537e-21
4.620835557e-22
8.675226118e-21
1.669671308e-22
3.927961243e-21
1.577340629e-21
7.894749293e-22
2.070789694e-21
8.692842678e-24
1.99482178e-20
1.673052111e-21
6.428178483e-21
3.795345711e-22
2.927055859e-21
2.512477648e-21
6.352994082e-22
1.514976742e-21
9.061383875e-22
6.236709711e-21
9.503151415e-22
1.491547025e-20
2.001603394e-21
9.439397287e-22
5.144699228e-21
5.345948131e-22
5.859395854e-21
8.253770141e-21
9.761554106e-21
5.159678693e-21
6.746713947e-21
7.815019804e-21
3.122266939e-21
3.856643354e-21
8.561824289e-22
2.153005871e-21
2.227996301e-21
1.186175457e-20
1.002004174e-20
1.679330286e-21
6.191585881e-21
1.110278769e-21
8.457331182e-22
3.849017669e-22
4.218631292e-22
4.505429516e-21
2.142552075e-23
7.638468677e-21
1.349627191e-21
6.519684922e-21
9.178633809e-23
5.184302832e-21
7.186526446e-22
3.556413711e-21
1.660281569e-22
1.752712085e-21
4.563615444e-22
3.381782865e-21
6.687117348e-21
3.495645688e-21
5.807963125e-23
1.523296815e-21
4.549886372e-23
1.453868851e-21
5.741718073e-21
3.395186389e-21
6.222490327e-22
1.628596048e-20
3.528768186e-21
1.981474587e-21
3.795361852e-21
7.998063827e-21
3.54368203e-21
4.816429314e-21
1.535965477e-20
2.389623401e-21
5.624245426e-21
4.240858155e-21
1.755260995e-21
7.225630446e-21
6.302578425e-21
1.282621881e-21
3.206498935e-21
5.548174205e-21
4.492187085e-21
1.601142994e-21
4.771506509e-21
2.114954505e-21
3.063392086e-21
5.221010494e-21
7.343887803e-21
2.900202886e-21
1.913161043e-21
1.829585951e-21
1.307316118e-20
5.678413517e-21
1.999642213e-21
1.926679948e-21
5.885323331e-21
1.367397463e-21
2.141870717e-21
3.501340248e-21
4.531146075e-21
2.2560639e-21
3.924462458e-21
7.840103539e-21
9.804013678e-22
4.346667325e-21
4.048098095e-21
2.553604144e-22
9.245212082e-21
1.666256532e-22
2.950234902e-21
1.468289803e-21
1.008674657e-20
7.141631047e-21
4.217377055e-21
1.758625483e-21
2.26988869e-22
4.952559728e-21
4.100780327e-21
9.546996905e-21
2.630726176e-22
6.983477845e-21
9.040197584e-23
1.523949131e-20
9.735014288e-21
2.436374266e-22
2.065886981e-21
6.084099601e-21
5.016190081e-22
2.493071224e-21
2.203888684e-20
2.852616033e-21
9.411799464e-21
2.236723194e-22
4.474836384e-21
3.490405654e-21
4.069171149e-21
1.357532874e-22
3.955008837e-21
2.459032507e-21
2.558111798e-21
1.655459909e-21
3.011313962e-21
5.511657781e-21
2.005656279e-21
2.803357451e-21
1.349278218e-20
8.61569855e-22
1.816661885e-21
2.833722486e-21
1.992184723e-21
2.331741241e-21
2.243588795e-21
1.377016454e-22
2.631425837e-21
3.681756022e-21
8.862897896e-21
3.381553088e-21
8.334089453e-21
2.748406812e-21
4.271869878e-21
3.361865158e-21
5.912755549e-21
1.225553284e-20
2.148251511e-21
6.725058802e-22
2.23954629e-21
3.009966869e-21
3.051803998e-21
1.704793677e-20
3.444749572e-21
7.101298548e-21
4.54304261e-21
3.637594406e-21
2.343730436e-21
6.174322573e-21
1.653661838e-22
1.659472271e-21
2.247316352e-21
5.35251251e-21
5.870707129e-21
1.459111614e-20
1.346809246e-20
1.796399196e-21
8.996456357e-21
6.867220054e-21
8.024902281e-21
3.424958241e-21
6.674064031e-22
1.071939397e-20
1.017440917e-20
2.39110567e-21
7.409704735e-21
5.751379482e-21
9.773593347e-22
6.17012998e-22
5.172186584e-21
1.000099076e-21
8.291260765e-21
2.392286322e-21
2.397156759e-21
8.83300592e-21
1.713108856e-20
1.128964215e-20
1.124229599e-22
4.185164078e-21
1.063495863e-21
1.554716042e-21
1.042742804e-22
1.118947137e-21
5.38803589e-21
2.350048113e-20
2.707019905e-22
1.772155816e-20
1.651256964e-21
1.174374515e-21
3.711245463e-21
1.615186258e-22
2.658194311e-21
3.666283189e-22
2.266585237e-21
8.490217983e-21
6.129846315e-21
6.660823247e-21
3.102857312e-21
5.525984385e-21
3.937144058e-21
3.525052343e-21
6.448382991e-21
1.733989996e-22
1.239750262e-20
1.155749487e-21
2.16766891e-21
1.300290654e-20
3.557498827e-21
4.425484496e-21
3.248613648e-22
8.191204451e-22
4.191652068e-21
4.032908693e-21
2.26514773e-21
6.891365817e-21
6.76439891e-21
7.486812995e-21
5.680714898e-21
8.998984122e-22
9.52168398e-22
1.791969852e-21
2.752452386e-21
1.05643569e-20
1.563859911e-22
5.792039108e-22
4.759901916e-21
1.950133947e-21
2.084512882e-21
2.753311866e-21
2.905222846e-21
5.513811963e-22
2.200753479e-23
3.336684766e-21
6.752239372e-21
1.604984908e-21
2.030514563e-21
1.372608597e-20
1.073825749e-20
1.396052566e-21
1.654401495e-22
5.668659648e-21
9.914783842e-22
3.001602347e-21
1.46703914e-21
1.327478467e-21
8.69576865e-21
4.935912385e-21
7.020244661e-22
6.651745727e-22
6.168755428e-22
3.489019352e-22
1.703121632e-20
9.28835349e-21
5.582614286e-21
1.022472183e-21
3.732061882e-21
7.436716947e-22
5.605832506e-21
4.53327458e-21
5.404303294e-21
3.591455632e-22
8.479018145e-21
4.090284587e-21
9.321757577e-21
9.833914885e-21
3.182420766e-21
5.842682532e-22
1.198625006e-21
5.407542561e-21
1.716657585e-20
6.522030427e-21
6.016959035e-21
7.198523019e-21
1.139741533e-20
6.911235522e-22
3.497784753e-21
2.74651113e-21
9.726885316e-21
2.425682211e-21
9.30402951e-21
5.886265623e-22
1.318142408e-21
6.353227958e-22
5.317755255e-21
1.251897338e-21
4.416039035e-21
1.35789822e-22
2.684517876e-21
1.465605723e-21
1.190770841e-21
7.374488143e-21
1.392162657e-21
1.473338059e-22
6.804329457e-21
5.776119833e-21
6.176758247e-21
3.159326681e-21
3.391326134e-21
4.147650074e-21
9.987707957e-21
1.345008492e-21
9.322888038e-21
6.766720278e-21
1.790540574e-21
1.505630974e-20
4.389862523e-22
1.480283004e-20
1.013194681e-21
5.710498982e-21
6.303471096e-21
5.223159297e-21
6.693416891e-22
1.160566319e-21
1.094428535e-20
4.844803168e-21
1.143938298e-21
7.150384389e-22
1.117612505e-21
5.635356647e-21
5.957370525e-21
5.539891275e-22
5.617802637e-21
4.918156302e-21
4.305697615e-21
1.455959227e-22
1.441266443e-21
1.006279965e-21
6.804094124e-22
2.293973352e-21
8.804768831e-21
6.602990227e-21
2.511934611e-22
1.151407888e-20
1.780168086e-21
2.347912427e-21
7.215481434e-21
8.149011591e-21
1.102456461e-21
7.772817911e-21
1.568405126e-21
4.571443889e-21
5.894717187e-22
3.973023032e-21
8.614514217e-21
2.707072676e-21
3.932324096e-21
7.894565182e-21
3.861957571e-22
1.402761217e-20
9.24299743e-22
9.129958478e-21
9.158504395e-21
1.645771954e-21
3.163513383e-21
8.435361323e-22
6.20653068e-21
2.111460624e-21
1.340121697e-21
6.472507929e-22
3.599350992e-21
1.346274128e-21
1.205510682e-21
4.427723285e-21
1.194411099e-22
4.763866669e-21
1.236464259e-21
1.248271546e-21
8.478834905e-23
3.147514943e-22
4.064535232e-22
2.288976913e-21
9.542528067e-21
1.478488685e-21
7.178151729e-21
9.765960904e-22
2.924583895e-21
6.731527719e-23
1.251415032e-21
8.396033521e-21
1.778682782e-20
4.963178042e-22
4.04817168e-21
3.683117325e-21
1.56409286e-21
1.30981255e-22
1.542781584e-21
1.140573397e-20
4.576429644e-21
9.379288077e-21
3.208312898e-21
3.725039132e-22
5.551081704e-22
3.276692581e-21
9.944531964e-22
6.429001131e-22
4.899285217e-21
7.341253013e-21
6.642949868e-22
4.941924948e-21
1.607738604e-21
2.259973217e-21
5.515787058e-21
1.089884325e-20
9.490568394e-21
1.669105556e-21
2.177473611e-21
6.453670307e-21
3.543590723e-21
5.693262673e-21
2.314762729e-22
2.809779597e-22
2.265186942e-21
3.898061336e-22
1.1950442e-21
1.141945722e-22
3.190172132e-21
5.47730714e-22
4.526552037e-21
7.571429106e-21
1.316254661e-21
6.823466272e-21
5.371696804e-21
7.607483146e-21
6.05795499e-21
9.82019555e-22
1.485798899e-21
8.720186595e-21
1.853972542e-21
1.975717695e-21
7.672047432e-21
2.156312389e-22
6.584914198e-21
9.313312178e-23
2.191436109e-21
5.601916256e-21
1.321159732e-21
2.115381802e-21
1.797209175e-21
3.196881997e-21
5.925663163e-21
6.060347128e-21
4.712642827e-21
6.92526952e-22
6.890282448e-21
2.307976365e-22
1.570526391e-21
5.423568374e-23
1.103703486e-21
1.062826389e-21
4.486598586e-21
3.556279086e-21
9.342179753e-21
2.147532599e-21
8.463264157e-22
1.574198972e-21
2.051587263e-21
2.089632917e-20
2.834782343e-21
4.542586466e-21
6.109034091e-22
7.080329753e-22
6.765212227e-21
2.590671489e-21
2.000381258e-21
5.120798471e-21
4.532885833e-21
6.181378813e-21
2.13976188e-20
2.148525367e-21
1.576319377e-21
1.1451427e-21
8.663335485e-21
5.591826223e-22
3.880327086e-22
7.13415785e-24
5.486207506e-21
2.426093157e-21
5.074351834e-21
9.727033548e-22
2.080498405e-22
1.221785415e-20
5.201645693e-21
2.824931349e-21
1.404493276e-20
1.942295327e-21
1.261849814e-20
1.344720883e-21
1.081333048e-21
2.206147414e-21
4.828991321e-22
7.724918555e-21
7.10829764e-21
3.911395167e-21
6.036958908e-22
1.816425387e-20
2.6024319e-22
1.224729457e-22
1.493882919e-20
8.076626239e-22
1.266795334e-21
8.550696551e-21
1.442841937e-21
1.805884843e-20
5.07635886e-21
1.220185021e-20
1.854043331e-20
6.304787704e-21
5.842789235e-21
5.925547617e-21
1.602489824e-20
6.268278176e-22
4.378932305e-21
2.589706941e-21
7.994199042e-22
3.553117953e-21
5.195468164e-21
8.823879741e-21
8.987406712e-22
5.632693769e-21
1.384507869e-21
1.870719867e-21
6.033720252e-21
1.316066942e-21
2.049333085e-21
1.439236285e-21
2.555788789e-22
4.576092468e-21
5.064300541e-21
4.225412978e-21
1.291321169e-21
2.225250249e-21
8.280977468e-22
6.450689109e-21
1.940462456e-21
1.789669327e-21
3.051058285e-21
2.856985998e-21
6.338195539e-21
3.240533954e-21
1.91018732e-21
1.980960762e-21
9.399669229e-21
3.671720558e-21
5.254124314e-21
3.612906752e-22
9.646739323e-21
2.014879223e-21
1.784088489e-21
9.824823891e-21
2.175342308e-21
2.553074411e-21
2.179177389e-22