/*--------------------------------*- C++ -*----------------------------------*\
| =========                 |                                                 |
| \\      /  F ield         | OpenFOAM: The Open Source CFD Toolbox           |
|  \\    /   O peration     | Version:  2406                                  |
|   \\  /    A nd           | Website:  www.openfoam.com                      |
|    \\/     M anipulation  |                                                 |
\*---------------------------------------------------------------------------*/
FoamFile
{
    version     2.0;
    format      ascii;
    arch        "LSB;label=32;scalar=64";
    class       Cloud<dsmcParcel>;
    location    "0.01/lagrangian/dsmc";
    object      positions;
}
// * * * * * * * * * * * * * * * * * * * * * * * * * * * * * * * * * * * * * //

5144
(
(0.04495213239 0.251211222 2.168404345e-19) 481
(0.04876516085 0.2142831034 -1.084202172e-19) 432
(0.07207739137 0.1909813942 -1.016439537e-20) 395
(0.07044662024 0.1687530632 5.421010862e-20) 365
(0.07074752158 0.1894226103 0) 395
(0.0429829272 0.2470602293 -1.084202172e-19) 471
(0.06864720314 0.2803975546 3.252606517e-19) 525
(0.07119141172 0.2400527085 0) 465
(0.06051066949 0.2312486457 1.084202172e-19) 453
(0.0543027396 0.2404843385 1.084202172e-19) 463
(0.07170803693 0.2482868038 4.065758147e-19) 475
(0.07184671142 0.2921400785 0) 535
(0.06961483213 0.2982258803 -2.168404345e-19) 545
(0.0521545159 0.1667205205 1.084202172e-19) 362
(0.06887027544 0.2489807191 0) 475
(0.07127713794 0.2373369362 3.252606517e-19) 465
(0.07262018339 0.2561461905 -2.981555974e-19) 485
(0.04653834705 0.2940180742 5.421010862e-20) 542
(0.07416138104 0.2359783462 -2.168404345e-19) 455
(0.03309681602 0.2419617152 -2.168404345e-19) 470
(0.06391593929 0.1903368308 -5.421010862e-20) 394
(0.06654960278 0.25593363 -2.168404345e-19) 484
(0.05184770366 0.2360196299 0) 462
(0.03946120575 0.2057417409 -8.67361738e-19) 411
(0.06017450112 0.2754814289 2.168404345e-19) 513
(0.04222297096 0.288392613 1.084202172e-19) 531
(0.02453899963 0.1904440107 0) 399
(0.04633009433 0.1908691528 -2.168404345e-19) 392
(0.04815597911 0.222800125 3.252606517e-19) 442
(0.06685123376 0.2102454584 -2.168404345e-19) 424
(0.02852525985 0.2376070937 -5.421010862e-20) 459
(0.05039592212 0.2816217463 -2.168404345e-19) 522
(0.06911717182 0.2599318707 2.168404345e-19) 495
(0.06860549418 0.2319038545 0) 455
(0.05599724182 0.219753217 -1.084202172e-19) 433
(0.0695521614 0.2122045645 9.486769009e-20) 425
(0.06629694664 0.2493986409 2.168404345e-19) 474
(0.07206724453 0.2845578062 2.168404345e-19) 525
(0.06710976509 0.1848697672 0) 384
(0.05449991342 0.1740817337 1.084202172e-19) 373
(0.06414351084 0.2014058632 0) 414
(0.06833025068 0.2130947909 4.33680869e-19) 424
(0.07226822701 0.2535061831 -1.219727444e-19) 485
(0.05255708361 0.235803803 4.33680869e-19) 462
(0.04356655502 0.2610996713 0) 491
(0.03524021189 0.2268408878 2.168404345e-19) 440
(0.06891319782 0.1728117486 2.168404345e-19) 365
(0.05853957652 0.221610356 1.084202172e-19) 433
(0.06109425212 0.1954572491 2.168404345e-19) 404
(0.07188310269 0.2756312315 5.421010862e-20) 515
(0.04964192494 0.2612125922 -8.131516294e-20) 492
(0.06395937902 0.1826634108 -3.455894425e-19) 384
(0.07211410349 0.2087106922 -2.168404345e-19) 415
(0.07561382629 0.2420826386 0) 465
(0.06459657669 0.2569285206 -2.168404345e-19) 484
(0.07380098068 0.2430054966 -1.084202172e-19) 465
(0.06897860113 0.2981692391 2.168404345e-19) 545
(0.0214409499 0.2776823436 -2.168404345e-19) 508
(0.06960457348 0.211812516 -2.168404345e-19) 425
(0.05782895251 0.288917467 2.168404345e-19) 533
(0.06820336691 0.2055499077 0) 414
(0.06573527547 0.2397992607 -1.355252716e-20) 464
(0.07047518534 0.1935088358 1.626303259e-19) 395
(0.06750751726 0.2232369746 2.168404345e-19) 444
(0.05249703941 0.1964157679 -2.168404345e-19) 402
(0.05282237781 0.1762661938 0) 372
(0.05107419215 0.2186402915 0) 432
(0.06271925616 0.2205015595 3.2187252e-19) 434
(0.05421557641 0.2559338986 -2.168404345e-19) 483
(0.06999771249 0.2836386291 -1.084202172e-19) 525
(0.0645262502 0.2629913907 -5.421010862e-19) 494
(0.02892230333 0.2658995496 -3.252606517e-19) 499
(0.06205096809 0.275686124 3.252606517e-19) 514
(0.05889155495 0.2779776612 0) 513
(0.07588468276 0.2457153007 -2.168404345e-19) 475
(0.04390989819 0.1961563254 -2.168404345e-19) 401
(0.0585381372 0.2095646795 1.084202172e-19) 423
(0.05680639835 0.1846217116 0) 383
(0.07154655237 0.2179848221 -5.421010862e-20) 435
(0.066749758 0.2243324819 3.252606517e-19) 444
(0.07093451429 0.2153896433 -2.168404345e-19) 425
(0.05012197801 0.1760486256 1.626303259e-19) 372
(0.05630956765 0.1793253946 7.589415207e-19) 383
(0.07552755732 0.196504431 0) 405
(0.07328339405 0.2572854142 -3.252606517e-19) 485
(0.07485784336 0.2001191557 2.168404345e-19) 405
(0.04187732567 0.2079762041 -5.082197684e-20) 421
(0.05701957765 0.2063616743 2.168404345e-19) 413
(0.05797013065 0.2811268434 2.168404345e-19) 523
(0.07397844796 0.2294093783 1.084202172e-19) 445
(0.07272171254 0.2141543657 -5.421010862e-20) 425
(0.06287537127 0.1690345121 0) 364
(0.06579484628 0.2139651124 -2.168404345e-19) 424
(0.05495298137 0.2157391398 0) 433
(0.05457963433 0.2001479834 2.168404345e-19) 413
(0.05906747904 0.217866732 0) 433
(0.04569863148 0.2853116437 0) 521
(0.04932164108 0.2186419543 -4.33680869e-19) 432
(0.05730038149 0.202234944 0) 413
(0.07092783284 0.212617672 -1.084202172e-19) 425
(0.06257489468 0.2861597635 2.168404345e-19) 534
(0.05247369158 0.2189616967 0) 432
(0.07590762116 0.241990996 0) 465
(0.07516460672 0.2789300702 4.33680869e-19) 515
(0.06683011513 0.228332631 2.168404345e-19) 444
(0.03856967487 0.2366638673 0) 461
(0.07090192727 0.2939176656 0) 545
(0.07476731351 0.2623828478 2.168404345e-19) 495
(0.04725346429 0.278534601 -2.168404345e-19) 522
(0.05922143167 0.2501124093 2.168404345e-19) 473
(0.07422585144 0.2669777531 -2.168404345e-19) 505
(0.03068357126 0.2758884493 0) 510
(0.06801034099 0.2777368179 0) 514
(0.0519638375 0.2736409437 2.168404345e-19) 512
(0.03803369707 0.2006417474 2.168404345e-19) 410
(0.03254859539 0.2089953528 3.947173534e-19) 420
(0.05410446229 0.2006663405 2.168404345e-19) 413
(0.02997615297 0.2177412637 0) 429
(0.01952321663 0.1824970199 2.168404345e-19) 388
(0.02704649466 0.2143594072 -3.252606517e-19) 429
(0.04789671534 0.1931792437 2.168404345e-19) 402
(0.04671633562 0.2331943111 0) 452
(0.06317547867 0.193244446 3.252606517e-19) 394
(0.03870742313 0.2043238984 2.168404345e-19) 411
(0.06224846184 0.1936187831 3.252606517e-19) 394
(0.07083710955 0.2159084112 0) 435
(0.06464147837 0.238311826 1.355252716e-20) 464
(0.06671815375 0.2053583645 -4.33680869e-19) 414
(0.05834731201 0.1759743481 1.084202172e-19) 373
(0.04274682741 0.226397497 0) 441
(0.0563387288 0.2707841634 0) 503
(0.07186823495 0.2742093507 1.084202172e-19) 515
(0.05639468161 0.2593705283 1.626303259e-19) 493
(0.07161719935 0.2215596639 2.168404345e-19) 435
(0.06315171792 0.2596592356 8.809142651e-20) 494
(0.07003131643 0.2554592187 -2.168404345e-19) 485
(0.04463154588 0.2930950103 0) 541
(0.04951665502 0.2524700546 2.88838235e-19) 482
(0.02493439241 0.2768302324 -1.084202172e-19) 509
(0.07262888866 0.2682700813 8.131516294e-20) 505
(0.07412433836 0.2394200796 3.252606517e-19) 465
(0.06765071109 0.2756782104 -2.168404345e-19) 514
(0.07608726033 0.2953343488 0) 545
(0.0740803192 0.1812493308 -2.168404345e-19) 385
(0.0646828827 0.1762929113 -3.625301014e-19) 374
(0.01774443497 0.1855672486 4.33680869e-19) 388
(0.0629699144 0.1836634886 5.421010862e-20) 384
(0.06539270173 0.1944532089 2.168404345e-19) 404
(0.07259166094 0.19191014 1.76182853e-19) 395
(0.05992604396 0.2107982532 5.421010862e-19) 423
(0.05344250938 0.1756197897 -5.421010862e-20) 373
(0.06024445985 0.1830951048 0) 383
(0.07144955825 0.1740603324 0) 375
(0.07527345789 0.1805113889 -2.168404345e-19) 375
(0.06399673301 0.2075811768 0) 414
(0.07544733954 0.2468515499 -2.168404345e-19) 475
(0.0513119238 0.2492284022 -2.168404345e-19) 472
(0.05586002027 0.2263655033 2.168404345e-19) 443
(0.06564278723 0.2885874172 -1.084202172e-19) 534
(0.06542052954 0.2455433042 1.084202172e-19) 474
(0.07040432235 0.2369881516 2.168404345e-19) 465
(0.05600488466 0.2428798091 0) 463
(0.04757952249 0.2666433801 -1.626303259e-19) 502
(0.06299645356 0.2600763091 -2.168404345e-19) 494
(0.04353673352 0.2926252453 4.33680869e-19) 531
(0.06536581486 0.2541033407 2.168404345e-19) 484
(0.04103438197 0.2833969911 2.168404345e-19) 521
(0.02507083127 0.2896812673 1.626303259e-19) 529
(0.04953106431 0.2936442833 0) 542
(0.03621911111 0.1760699869 2.168404345e-19) 370
(0.06755609528 0.1993633795 2.168404345e-19) 404
(0.05908100392 0.1878518181 2.168404345e-19) 393
(0.02296577279 0.1912630866 2.168404345e-19) 399
(0.04655579036 0.2347460024 2.981555974e-19) 452
(0.036052743 0.1832849331 4.33680869e-19) 380
(0.05368516408 0.249342667 2.168404345e-19) 473
(0.04405966122 0.274236773 -1.626303259e-19) 511
(0.06748291109 0.1804664919 0) 384
(0.05450895795 0.1877600868 1.084202172e-19) 393
(0.0552199814 0.2066018168 -1.084202172e-19) 413
(0.06470182125 0.1931176819 0) 394
(0.04269123534 0.2276431788 1.084202172e-19) 441
(0.05780313223 0.194255825 4.33680869e-19) 403
(0.05764961975 0.21546216 0) 433
(0.0206830675 0.2252215075 0) 438
(0.05121245931 0.1835099672 -2.168404345e-19) 382
(0.01928423501 0.2697985101 1.626303259e-19) 498
(0.06586402054 0.222593448 4.33680869e-19) 444
(0.05166668981 0.2094609991 1.084202172e-19) 422
(0.07267814496 0.2667294478 0) 505
(0.06156825779 0.2326020117 0) 454
(0.03728445059 0.2631108322 0) 490
(0.06054190587 0.286225522 0) 533
(0.05255994163 0.251129734 0) 482
(0.04558885532 0.260663803 0) 491
(0.06707053041 0.2502469659 0) 474
(0.06284072549 0.1942417751 2.168404345e-19) 404
(0.0306052435 0.1883261093 0) 390
(0.05693396262 0.1953476933 1.355252716e-20) 403
(0.07426007543 0.2199714405 0) 435
(0.06024669336 0.202256987 0) 413
(0.06502385402 0.2142697381 -2.710505431e-20) 424
(0.03749630892 0.204347058 -6.505213035e-19) 410
(0.06950847699 0.2078666545 3.252606517e-19) 415
(0.06921192502 0.2021118067 6.09863722e-20) 415
(0.07445807978 0.2030021306 6.505213035e-19) 415
(0.06787337144 0.2053986792 4.33680869e-19) 414
(0.04746840692 0.1677391391 1.626303259e-19) 362
(0.04356158918 0.2656517056 0) 501
(0.04519351921 0.221020902 0) 441
(0.07416636505 0.1736602492 0) 365
(0.05954264322 0.2681002104 -2.168404345e-19) 503
(0.04247607521 0.2680952917 1.084202172e-19) 501
(0.04819672877 0.2599792072 3.252606517e-19) 492
(0.06201672667 0.2481437712 1.084202172e-19) 474
(0.06219309578 0.1862088453 -5.421010862e-20) 384
(0.01192773608 0.2247966555 -1.084202172e-19) 437
(0.07299474503 0.2876030232 -4.33680869e-19) 535
(0.07329146916 0.2535317494 1.084202172e-19) 485
(0.07114369949 0.2500355483 -2.168404345e-19) 475
(0.02517891007 0.2334878663 -3.252606517e-19) 449
(0.04729127542 0.2182267404 0) 432
(0.0730593708 0.2569052887 -2.710505431e-19) 485
(0.06950579727 0.2370914583 -2.168404345e-19) 465
(0.06959862653 0.2381260453 -5.421010862e-20) 465
(0.04937854218 0.2273903424 2.168404345e-19) 442
(0.06430855155 0.2008816414 -2.168404345e-19) 404
(0.03883750425 0.1769402674 2.168404345e-19) 381
(0.06177841704 0.173195045 4.33680869e-19) 374
(0.06945703535 0.198479405 -1.084202172e-19) 405
(0.029310734 0.1975613379 -4.33680869e-19) 399
(0.0271254072 0.2187482132 -4.878909776e-19) 429
(0.05509634589 0.2002182817 0) 413
(0.07174005415 0.1944265401 -2.168404345e-19) 395
(0.02779310913 0.1957302547 -1.084202172e-19) 399
(0.0680491548 0.2078585092 0) 414
(0.03431103567 0.1753101756 1.185846126e-19) 370
(0.04218725234 0.1753430853 -1.084202172e-19) 371
(0.06707931526 0.1921073962 0) 394
(0.04309359489 0.1950102631 2.168404345e-19) 401
(0.05050275874 0.2184452828 0) 432
(0.05556132807 0.1888121205 -2.168404345e-19) 393
(0.0726606935 0.1846486918 -2.981555974e-19) 385
(0.06535925065 0.2807256601 -4.33680869e-19) 524
(0.03849208808 0.2340783495 0) 451
(0.05126168063 0.19487457 -3.252606517e-19) 402
(0.04761609128 0.1903950239 0) 392
(0.07559219067 0.2261778893 -2.168404345e-19) 445
(0.07333638488 0.2503469913 1.084202172e-19) 475
(0.04345927021 0.2220559461 2.168404345e-19) 441
(0.05428513354 0.2430319326 -2.168404345e-19) 473
(0.04825756769 0.2768076003 -7.589415207e-19) 512
(0.04089091433 0.2283562932 2.168404345e-19) 451
(0.07611011286 0.2132166319 0) 425
(0.07379644342 0.2716110667 -3.252606517e-19) 505
(0.05581743579 0.276016586 2.168404345e-19) 513
(0.05105282912 0.2379536207 0) 462
(0.06042331797 0.2983897054 -4.33680869e-19) 543
(0.06655802271 0.2739235343 2.168404345e-19) 514
(0.0666657704 0.2636476341 0) 494
(0.05894120405 0.2527814068 1.084202172e-19) 483
(0.0349451166 0.2749803048 -2.168404345e-19) 510
(0.05065827386 0.2824398249 1.084202172e-19) 522
(0.05596754001 0.2895611048 -1.897353802e-19) 533
(0.06343130929 0.2664957649 -2.168404345e-19) 504
(0.06743668551 0.2822824912 3.184843882e-19) 524
(0.05413086967 0.2745412977 0) 513
(0.05108164405 0.2357748155 0) 462
(0.06076790311 0.1754616077 -3.523657061e-19) 373
(0.06185805775 0.2070553698 -2.301812034e-19) 414
(0.07179093498 0.1859778081 3.252606517e-19) 385
(0.03144204375 0.1904745557 -2.168404345e-19) 390
(0.05897469505 0.181857383 -3.252606517e-19) 383
(0.0166648669 0.2352005193 -1.897353802e-19) 458
(0.05982439118 0.2096101114 2.168404345e-19) 423
(0.05641509852 0.1964888575 -2.710505431e-19) 403
(0.07567300738 0.2110344006 -4.33680869e-19) 425
(0.062482499 0.2159651586 -2.168404345e-19) 434
(0.0609027723 0.1895677831 -5.421010862e-20) 393
(0.05237727954 0.219150199 -2.168404345e-19) 432
(0.04986054127 0.2235391559 0) 442
(0.06063195319 0.2213472503 4.33680869e-19) 433
(0.06949334717 0.2123206827 8.131516294e-20) 425
(0.05697608482 0.1799668171 -3.930232875e-19) 383
(0.03666958467 0.2018359495 8.131516294e-20) 410
(0.07014277392 0.2289841384 1.084202172e-19) 445
(0.03851338757 0.1954158717 2.168404345e-19) 401
(0.0522136824 0.2304636861 -5.421010862e-19) 452
(0.07076609143 0.2177206793 -3.896351557e-20) 435
(0.04693785987 0.2496422001 0) 472
(0.05406407896 0.2584644835 -4.33680869e-19) 493
(0.04225404437 0.2561814108 -4.33680869e-19) 481
(0.06461120173 0.2296563455 2.57498016e-19) 454
(0.0590423917 0.2358754018 0) 453
(0.05263729765 0.2158172875 0) 432
(0.04841185529 0.223527452 1.084202172e-19) 442
(0.04421218826 0.2490834089 0) 471
(0.07127999468 0.2396473621 -1.355252716e-19) 465
(0.06400787407 0.2416854812 1.084202172e-19) 464
(0.04434286122 0.2630243274 0) 491
(0.04273779082 0.2362800549 -2.168404345e-19) 461
(0.009251290282 0.2856576354 -4.33680869e-19) 527
(0.05275357929 0.2761710882 0) 512
(0.05050931738 0.2348753065 -4.33680869e-19) 452
(0.0559045856 0.2315490271 1.897353802e-19) 453
(0.06638831523 0.1985041654 0) 404
(0.02535178116 0.2963469947 1.465366999e-19) 539
(0.05962800885 0.2479777276 0) 473
(0.0430042282 0.2631561113 0) 491
(0.06335932121 0.2629855089 2.168404345e-19) 494
(0.05655821591 0.2658007044 -2.710505431e-19) 503
(0.03607188971 0.289917068 0) 530
(0.04919811423 0.2762221449 -3.252606517e-19) 512
(0.05584696281 0.2470396592 -1.084202172e-19) 473
(0.0541169213 0.1810675124 2.168404345e-19) 383
(0.06210475791 0.1741196985 -2.710505431e-19) 374
(0.03056701635 0.1782560669 2.168404345e-19) 380
(0.02294695713 0.1721521606 2.710505431e-19) 369
(0.07354436748 0.226144765 -2.710505431e-19) 445
(0.06869969388 0.1983774865 3.794707604e-19) 405
(0.06131321923 0.2011112819 1.321371398e-19) 414
(0.04746236637 0.1991919909 0) 402
(0.03892724605 0.1983077998 1.626303259e-19) 401
(0.0533676752 0.2088089386 -3.252606517e-19) 423
(0.07324170131 0.193206422 5.421010862e-20) 395
(0.06465279339 0.1723772417 -2.168404345e-19) 364
(0.06291768706 0.2031388849 1.626303259e-19) 414
(0.05687755509 0.1931410544 0) 393
(0.06713407755 0.2069222484 2.168404345e-19) 414
(0.05931201783 0.1877107273 2.168404345e-19) 393
(0.07324124952 0.2264569775 0) 445
(0.05742099045 0.212145717 0) 423
(0.05010487491 0.2033869075 0) 412
(0.0705484007 0.2428174257 -2.168404345e-19) 465
(0.07268382485 0.1853805368 3.252606517e-19) 385
(0.0673234161 0.2662398262 -4.33680869e-19) 504
(0.03304066385 0.2479016256 1.084202172e-19) 470
(0.0615210494 0.197917053 -1.084202172e-19) 404
(0.04330053964 0.2471089602 -2.168404345e-19) 471
(0.04807298735 0.2670977842 -5.421010862e-20) 502
(0.05753854188 0.2058820705 5.421010862e-20) 413
(0.07588672548 0.2098902438 -6.505213035e-19) 425
(0.04795091192 0.2751807981 -3.252606517e-19) 512
(0.06254179913 0.2407177896 -2.168404345e-19) 464
(0.046241617 0.2035240369 -5.421010862e-20) 412
(0.02596595445 0.2658509888 -5.421010862e-20) 499
(0.0578616819 0.288857557 1.626303259e-19) 533
(0.0378918178 0.2582351413 -2.168404345e-19) 490
(0.06318227961 0.2535430949 -1.084202172e-19) 484
(0.05188051968 0.2159750573 2.168404345e-19) 432
(0.05346361723 0.1707172949 -2.168404345e-19) 363
(0.07035434912 0.1813968847 -4.33680869e-19) 385
(0.07278017824 0.2171641901 0) 435
(0.05236520295 0.1824115965 -2.168404345e-19) 382
(0.04204231632 0.2268406457 -2.032879073e-19) 441
(0.05340855362 0.1769950545 -2.168404345e-19) 373
(0.06846299543 0.1881146597 2.168404345e-19) 394
(0.05366420002 0.1835235855 -2.168404345e-19) 383
(0.04203954067 0.2239495313 -3.523657061e-19) 441
(0.05399292703 0.2078338548 -9.31736242e-20) 423
(0.06084293724 0.245016035 2.168404345e-19) 473
(0.05049653817 0.2323148953 -1.084202172e-19) 452
(0.03970954541 0.1798396616 0) 381
(0.05026355076 0.2070753095 -8.67361738e-19) 422
(0.0426471998 0.2170143022 -2.930733997e-19) 431
(0.05237503896 0.2001726369 0) 412
(0.07048926718 0.2221294684 5.421010862e-19) 435
(0.03961777959 0.204475845 0) 411
(0.03776373021 0.2744388428 1.355252716e-20) 510
(0.05027236333 0.2754008423 -1.084202172e-19) 512
(0.008611695951 0.2327973973 -1.626303259e-19) 447
(0.04200741852 0.2645820213 -4.33680869e-19) 501
(0.05151685659 0.2516756014 2.168404345e-19) 482
(0.05475731398 0.2305609501 -5.421010862e-20) 453
(0.03711839427 0.2482166631 -2.168404345e-19) 470
(0.06363273641 0.2529354399 0) 484
(0.0718095043 0.2441448289 -1.084202172e-19) 475
(0.07229446273 0.25717371 0) 485
(0.04271352385 0.2490854896 -1.626303259e-19) 471
(0.06830764783 0.2546043635 2.168404345e-19) 484
(0.01446169471 0.2677960663 -2.168404345e-19) 497
(0.06662210367 0.2577849772 -4.33680869e-19) 494
(0.05940849493 0.2299043977 2.168404345e-19) 453
(0.06471134171 0.2620898252 1.084202172e-19) 494
(0.05574101256 0.2714141023 -4.33680869e-19) 503
(0.06507374435 0.28603535 0) 534
(0.07593177323 0.2617418408 0) 495
(0.06817554917 0.2676879415 5.421010862e-20) 504
(0.06144267138 0.2589308127 -5.421010862e-19) 494
(0.04553652459 0.2669165512 3.252606517e-19) 501
(-0.004736320084 0.2546751928 0) 239
(0.06510090423 0.2848798047 -1.084202172e-19) 524
(0.0466759355 0.2928920173 0) 542
(0.06600013026 0.2713360378 3.252606517e-19) 504
(0.07455292985 0.2892998561 1.626303259e-19) 535
(0.05036978001 0.1860431758 0) 392
(0.04699951014 0.1912731234 -2.439454888e-19) 392
(0.06791736284 0.1832916341 -1.084202172e-19) 384
(0.04043723953 0.1866094616 1.28749008e-19) 391
(0.05139626929 0.1991693057 2.168404345e-19) 402
(0.07164877556 0.2233838246 1.626303259e-19) 445
(0.03713010926 0.2145426506 0) 430
(0.01975894263 0.2179653436 7.589415207e-19) 428
(0.03665192576 0.2102228055 2.168404345e-19) 420
(0.03390540779 0.1831630467 4.33680869e-19) 380
(0.06949054495 0.1880197465 0) 395
(0.04266073878 0.1946640326 1.626303259e-19) 401
(-0.009282760575 0.1991850745 -2.168404345e-19) 98
(0.06310126201 0.177490746 0) 374
(0.05512116115 0.1746780885 -1.084202172e-19) 373
(0.0690199601 0.1795219362 2.168404345e-19) 375
(0.0482301698 0.2112318583 -2.168404345e-19) 422
(0.05788303155 0.2246474995 -5.421010862e-20) 443
(0.05687811865 0.231063158 1.355252716e-19) 453
(0.01597389508 0.2423412231 1.084202172e-19) 468
(0.03411671853 0.2093082503 -1.93123512e-19) 420
(0.01987383305 0.1979434182 -4.33680869e-19) 408
(0.04097511894 0.1720139761 2.168404345e-19) 371
(0.03068578963 0.2722017529 -4.33680869e-19) 510
(0.01161512257 0.2410148845 -2.168404345e-19) 467
(0.04761211877 0.2306320885 5.421010862e-20) 452
(0.02043767031 0.2712243901 6.505213035e-19) 508
(0.008302167108 0.2119557997 2.168404345e-19) 427
(0.07378468304 0.2783189192 2.168404345e-19) 515
(0.0283993096 0.2700305597 2.168404345e-19) 499
(0.06499664381 0.2379443158 2.168404345e-19) 464
(0.03915633467 0.2204991052 -4.33680869e-19) 441
(0.06995039275 0.218757398 0) 435
(0.02716459747 0.2463044583 4.878909776e-19) 469
(0.01615456829 0.229185045 2.168404345e-19) 448
(0.0508699641 0.2528108857 5.421010862e-20) 482
(0.06537131331 0.2098889568 -6.505213035e-19) 424
(0.05075669628 0.2750019711 -4.33680869e-19) 512
(0.05610391292 0.2641921525 0) 493
(0.06247728444 0.2572872691 2.168404345e-19) 484
(0.05264987192 0.2698841782 2.168404345e-19) 502
(0.06153390704 0.2862233473 0) 534
(0.06401332735 0.2796989899 0) 524
(0.01170507046 0.276918282 -3.252606517e-19) 507
(0.06425852204 0.22389662 -5.421010862e-20) 444
(0.03569820032 0.2886532011 1.626303259e-19) 530
(0.01896458492 0.2865829262 1.016439537e-19) 528
(0.04928467031 0.2922753657 2.168404345e-19) 532
(0.04415867158 0.2681426452 -4.33680869e-19) 501
(0.05596908942 0.2890138875 -1.084202172e-19) 533
(0.05604605633 0.287845599 1.084202172e-19) 533
(0.04069325087 0.2053574727 0) 411
(0.0514879724 0.1872968739 2.168404345e-19) 392
(0.05398936907 0.1909658823 1.084202172e-19) 393
(0.02193366763 0.1991584054 -1.084202172e-19) 408
(0.03498848142 0.2122635859 -2.710505431e-19) 420
(0.02410161904 0.2064229483 2.168404345e-19) 419
(0.07136287945 0.2065864556 -1.084202172e-19) 415
(0.06960397325 0.2020278588 -4.33680869e-19) 415
(0.07124657322 0.2066764078 1.084202172e-19) 415
(0.05583849757 0.2176605621 2.168404345e-19) 433
(0.02672525018 0.202824677 1.558540623e-19) 409
(0.0632374659 0.1970776172 4.33680869e-19) 404
(0.002074300829 0.1881446046 -4.33680869e-19) 396
(0.07602997122 0.2134374751 4.33680869e-19) 425
(0.02962542425 0.2388156099 4.33680869e-19) 459
(0.05221573217 0.177340727 -2.168404345e-19) 372
(0.04593585365 0.2363372582 1.084202172e-19) 462
(0.001009831853 0.1840031498 4.065758147e-20) 386
(0.0689147447 0.2656552574 5.421010862e-20) 505
(0.04423860677 0.2054263148 0) 411
(0.04796290133 0.2088661568 1.423015351e-19) 422
(0.0377135426 0.2115739176 -2.168404345e-19) 420
(0.06731373195 0.2478094223 4.33680869e-19) 474
(0.04916958754 0.2386144556 2.710505431e-20) 462
(0.03841792157 0.280511246 0) 521
(0.05350548417 0.2407780875 0) 463
(0.05078162782 0.2520253791 -2.168404345e-19) 482
(0.06986931868 0.2737856406 3.794707604e-19) 515
(0.02086347377 0.2381625204 2.168404345e-19) 458
(0.0317776126 0.2526682512 -1.185846126e-19) 480
(0.03935692711 0.2366511478 -1.626303259e-19) 461
(0.05755483915 0.2536381981 2.303929617e-19) 483
(0.05176131863 0.2723500514 -8.67361738e-19) 512
(0.04707878418 0.2841497578 -2.168404345e-19) 522
(0.05058504447 0.2614090928 0) 492
(0.05640908028 0.2022568624 1.084202172e-19) 413
(0.03898165975 0.2827853448 0) 521
(0.06539415785 0.272343711 -2.168404345e-19) 514
(0.06393152316 0.2342801055 5.421010862e-20) 454
(0.04790022037 0.2986123551 2.168404345e-19) 542
(0.05222245538 0.2676238674 5.421010862e-20) 502
(0.03982295037 0.2302152188 1.084202172e-19) 451
(0.01043583944 0.2664354753 5.421010862e-20) 497
(0.06304806469 0.2177837511 -2.168404345e-19) 434
(0.07163203787 0.2696902047 0) 505
(0.04653959076 0.2398710847 2.168404345e-19) 462
(0.0562661369 0.2699281243 1.084202172e-19) 503
(0.02809257471 0.2636054702 -4.33680869e-19) 499
(0.0616612961 0.284375783 -2.168404345e-19) 524
(0.07535754481 0.2543796661 9.486769009e-20) 485
(0.06495723196 0.1741204532 -4.33680869e-19) 374
(0.02656545457 0.1893817088 -6.505213035e-19) 389
(0.02115291544 0.216016106 2.168404345e-19) 428
(0.0695260083 0.179126382 -2.168404345e-19) 375
(0.06069144993 0.1952843928 -2.168404345e-19) 403
(0.02891185421 0.2061724551 -2.168404345e-19) 419
(0.05389702675 0.2612541643 -5.421010862e-20) 493
(0.05764255734 0.1920596038 -1.626303259e-19) 393
(0.04595406462 0.2075586623 1.084202172e-19) 422
(0.04298058476 0.2185019045 -1.084202172e-19) 431
(0.04414365081 0.1921378329 0) 401
(0.05088113456 0.1822897355 -2.168404345e-19) 382
(0.03629851395 0.1819919036 -2.168404345e-19) 380
(0.03698775289 0.1989412701 4.33680869e-19) 410
(-0.006024541828 0.1856028448 0) 59
(0.02280298505 0.2288132792 1.084202172e-19) 448
(0.05148888702 0.2008390091 -6.505213035e-19) 412
(0.03737583809 0.2456116778 1.694065895e-20) 470
(0.07253517271 0.2073879453 -1.490777987e-19) 415
(0.05229646808 0.2244185824 4.33680869e-19) 442
(0.07398583434 0.2164151828 0) 435
(0.02414759888 0.2264181525 -3.252606517e-19) 439
(0.04256858141 0.2555046782 -5.421010862e-20) 481
(0.06792517667 0.2162274865 -4.33680869e-19) 434
(0.05139164823 0.2069247641 0) 412
(0.06324705121 0.2190746623 -5.421010862e-20) 434
(0.03486327995 0.2052078762 -1.626303259e-19) 410
(0.03719539826 0.2195538909 2.168404345e-19) 430
(0.04949076389 0.2322195044 -2.439454888e-19) 452
(0.05263743074 0.209082501 -2.168404345e-19) 422
(0.07409472739 0.235372132 -1.084202172e-19) 455
(0.01982623522 0.216775531 -5.421010862e-20) 428
(0.05458778716 0.2287651801 -2.168404345e-19) 453
(0.03574384456 0.2365565683 -2.168404345e-19) 460
(0.05084257958 0.2204797041 0) 432
(0.01611580503 0.2307716916 1.084202172e-19) 448
(0.036950842 0.2586776616 -3.252606517e-19) 490
(-0.03698972672 0.2354828259 4.33680869e-19) 195
(0.06937128259 0.2411713316 2.168404345e-19) 465
(0.04935094368 0.2293452231 1.355252716e-19) 452
(0.07521745351 0.2691184384 -2.168404345e-19) 505
(0.05501118673 0.2132838387 0) 423
(0.02955064287 0.2628863173 0) 489
(0.04609229053 0.2840184218 0) 522
(0.05468796077 0.2646913418 -2.168404345e-19) 503
(0.04234159502 0.2807890945 -1.084202172e-19) 521
(0.06650014931 0.2626757451 -1.084202172e-19) 494
(0.04369592659 0.2696790433 0) 501
(0.02142940163 0.278755326 6.505213035e-19) 518
(0.0606198574 0.2672486696 5.421010862e-19) 503
(0.03942757712 0.2838833765 2.168404345e-19) 521
(0.04581758286 0.2581582755 3.252606517e-19) 492
(0.05047385487 0.2969982223 0) 542
(0.02644340473 0.2474821475 4.33680869e-19) 469
(0.06334110355 0.251224199 -3.252606517e-19) 484
(0.0483550642 0.2973429714 2.168404345e-19) 542
(0.01673757833 0.2811293508 0) 518
(0.06316657782 0.269046386 -3.252606517e-19) 504
(-0.01340740435 0.2791871035 0) 318
(0.0581644815 0.2908832343 0) 533
(0.04508815361 0.2641534108 0) 501
(0.07201547363 0.2775773194 0) 515
(0.07047406707 0.1675852621 -4.33680869e-19) 365
(0.06427865755 0.1733762412 1.626303259e-19) 374
(0.0112340671 0.2127360295 2.303929617e-19) 427
(0.03106479287 0.2279379272 0) 450
(0.0402678111 0.2108061623 -1.084202172e-19) 421
(0.07103319309 0.2042295011 5.421010862e-20) 415
(0.05186850302 0.2341348009 0) 452
(0.04370503908 0.2004273969 -2.168404345e-19) 411
(0.02656464205 0.2084153349 0) 419
(0.04028936265 0.1729171541 -3.252606517e-19) 371
(0.03737894417 0.2146530032 0) 430
(0.0499692708 0.2514168095 -4.33680869e-19) 482
(-0.006141644849 0.2294928381 2.168404345e-19) 179
(0.06644996978 0.2527104353 1.084202172e-19) 484
(0.06357770936 0.2097815194 -3.252606517e-19) 424
(0.03891861937 0.1899929095 4.33680869e-19) 391
(0.04923476451 0.20308642 -1.626303259e-19) 412
(0.06022394636 0.2313574444 0) 453
(0.05744819067 0.2088093953 -4.33680869e-19) 423
(0.0582007704 0.1987291351 2.168404345e-19) 403
(0.0369226996 0.2308995604 -6.369687763e-19) 450
(0.04389865966 0.2208247888 -4.33680869e-19) 441
(0.02628694065 0.2310131974 3.794707604e-19) 449
(0.03270245189 0.1686917198 0) 360
(0.04675732218 0.2304761293 -1.084202172e-19) 452
(0.05251495096 0.2510927501 -2.168404345e-19) 482
(0.03822704749 0.2951456157 4.33680869e-19) 541
(0.03219035464 0.2330630681 3.794707604e-19) 450
(0.07478194121 0.2798566358 0) 525
(0.03682597239 0.2924513249 -2.168404345e-19) 530
(0.06306692942 0.2717568794 -4.33680869e-19) 514
(0.00222032839 0.2848143387 4.33680869e-19) 516
(0.0352023939 0.2401727264 0) 460
(0.04916088002 0.2728075875 -4.607859233e-19) 512
(0.07128859771 0.2675270918 5.421010862e-20) 505
(0.03581641143 0.2716516139 0) 510
(0.01954389858 0.2894773632 -1.084202172e-19) 528
(0.02948890067 0.2674933635 2.168404345e-19) 499
(0.05189498755 0.1877566673 2.168404345e-19) 392
(0.04010307539 0.23568481 -2.168404345e-19) 461
(0.02667457132 0.2862590874 0) 529
(0.03682540796 0.2752472167 -4.33680869e-19) 510
(0.05634630615 0.2602683256 0) 493
(0.03889153231 0.253719811 -5.421010862e-20) 481
(0.04981750185 0.2687316801 5.421010862e-20) 502
(0.01187964195 0.2773873325 -1.084202172e-19) 507
(0.03574034199 0.2711012485 -4.33680869e-19) 510
(0.04307762512 0.2616411451 3.252606517e-19) 491
(0.04293030312 0.2879786504 1.084202172e-19) 531
(0.06389592277 0.2605893272 0) 494
(0.0675311418 0.2794266032 2.168404345e-19) 524
(0.03579279916 0.2791356374 6.505213035e-19) 520
(0.03868827929 0.2964542984 -2.032879073e-19) 541
(0.03289733653 0.2759019476 -2.947674656e-19) 510
(0.03187753163 0.2872829283 1.084202172e-19) 530
(0.04827147522 0.1840309873 -1.084202172e-19) 382
(0.05999940659 0.2000197379 0) 403
(0.006504437154 0.2214554102 -1.355252716e-19) 436
(0.05279478224 0.185214341 0) 382
(0.05733758994 0.191339527 8.131516294e-20) 393
(-0.002587553134 0.1995514152 0) 99
(0.07549695058 0.1792811572 4.33680869e-19) 375
(0.01544999906 0.2080832606 1.084202172e-19) 418
(0.04306027956 0.1803681569 5.421010862e-20) 381
(0.05151699163 0.1877482613 -2.168404345e-19) 392
(0.03481767137 0.1993295202 2.168404345e-19) 410
(0.02866890794 0.2139638646 2.168404345e-19) 429
(0.05706986976 0.2286242868 0) 443
(0.04999009932 0.1995395928 1.084202172e-19) 402
(0.008674662694 0.2065756902 0) 417
(0.04153020557 0.180211642 2.710505431e-20) 381
(0.04426192308 0.175778363 0) 371
(0.04974573666 0.2079674722 4.33680869e-19) 422
(0.06727217295 0.1779361852 2.168404345e-19) 374
(0.06166013153 0.1732559268 0) 374
(-0.003698317427 0.1771727841 -1.626303259e-19) 39
(-0.002687575879 0.195313621 0) 99