/*--------------------------------*- C++ -*----------------------------------*\
| =========                 |                                                 |
| \\      /  F ield         | OpenFOAM: The Open Source CFD Toolbox           |
|  \\    /   O peration     | Version:  2406                                  |
|   \\  /    A nd           | Website:  www.openfoam.com                      |
|    \\/     M anipulation  |                                                 |
\*---------------------------------------------------------------------------*/
FoamFile
{
    version     2.0;
    format      ascii;
    arch        "LSB;label=32;scalar=64";
    class       vectorField;
    location    "0.01/lagrangian/dsmc";
    object      U;
}
// * * * * * * * * * * * * * * * * * * * * * * * * * * * * * * * * * * * * * //


5144
(
(1910.463337 -211.8846211 -91.26126905)
(1909.449492 -377.1072316 185.4790118)
(1888.889965 81.73223754 -285.378866)
(1677.15924 -54.94635545 297.208069)
(1850.876558 -320.4487676 -258.4356988)
(1351.242575 -14.29068883 -717.2978854)
(1462.853714 -226.8247872 -143.7450306)
(1300.814641 218.9831558 205.380014)
(1375.37654 -115.013387 217.9767346)
(1373.478942 574.1926368 366.6155379)
(1578.874195 120.2793093 272.1232429)
(1301.70725 222.7971922 -460.6017139)
(2040.292764 418.8389584 111.461985)
(1355.052458 -147.7975973 -30.60690052)
(1353.151693 16.67655068 -205.0221784)
(1239.805144 -144.1729297 152.7365003)
(1429.770612 -218.2250238 -337.2549317)
(1731.495388 29.90700187 122.2305676)
(1518.859501 -41.91365047 -215.9989565)
(1343.008513 73.88342703 -467.9313874)
(1714.027987 -477.6110326 256.89242)
(1961.353604 -158.0341539 -389.7406984)
(1291.375136 -149.0079043 161.4736308)
(2046.193446 120.793866 418.5911219)
(1564.377335 -125.0480743 45.87558717)
(1873.703378 237.090336 578.9728573)
(1154.88784 143.117436 239.2368961)
(1333.488172 -111.3604148 -389.005457)
(1334.770801 52.53932727 88.69318777)
(1363.859788 -503.5081582 -160.9824986)
(1590.016215 -242.397541 138.9903164)
(1878.842121 -64.35228811 175.9054858)
(1935.526857 552.178683 123.2361092)
(1402.297006 526.5357601 -47.1591451)
(1364.18263 603.4365878 549.357709)
(1382.468183 -101.226228 -324.2114286)
(1408.717839 -395.2785119 -319.3286592)
(1313.687712 151.4058125 -77.35269966)
(2006.430954 -159.6035028 -392.7758336)
(1583.871455 -193.4067585 -221.0383904)
(1986.367476 -26.96726576 -527.4006038)
(1454.26626 -463.8671359 294.7099086)
(1655.421614 44.16666049 -605.8431431)
(1390.848583 -190.704757 63.85619665)
(1481.936877 336.0820922 -37.12314755)
(1308.133867 -639.0218225 -174.2952705)
(1894.980355 -225.1601563 -200.7597334)
(1676.74105 19.68093121 95.40987304)
(1905.939445 -81.15890008 -88.74011028)
(2109.470738 -114.7482503 101.2993607)
(1686.708524 320.0138129 -346.8611649)
(1643.058853 -304.2162317 -121.5554526)
(1337.749117 270.0073903 -501.7955634)
(1030.511968 -278.0221172 -165.7587431)
(1896.643765 -197.9700773 57.61593932)
(1206.344075 -112.8417762 483.90405)
(1654.252241 73.91979658 -57.64098013)
(847.7094599 75.16448486 -277.6369799)
(1530.397278 -513.1519756 -28.80481233)
(1480.689613 -142.7524076 -89.04270859)
(1437.391687 -429.5812237 402.9530903)
(1355.262958 496.2937148 -328.9818422)
(1822.726817 105.4213188 -379.5235258)
(1318.420572 310.5744978 -65.15521558)
(1426.846113 -28.30965161 -222.2843637)
(1359.130964 -376.3507179 -395.6131563)
(2124.799975 227.4633058 -458.1821194)
(1728.92265 -53.44957484 483.4846377)
(1338.232245 115.3747652 36.00783338)
(1607.378853 66.77752952 -189.5466945)
(1351.184291 -134.2189205 236.3889207)
(1649.502466 -257.2406435 -252.4682886)
(1714.71427 -159.6523874 -267.5706806)
(1568.86181 -45.80538255 202.5217239)
(1968.176017 -485.5778546 -367.4024549)
(1243.904743 48.29435359 -191.6905547)
(1610.374908 793.3187498 -9.737642268)
(1256.458471 -246.9065459 -330.3763432)
(1215.360462 -113.8718638 185.8512841)
(1473.802032 301.3906222 -370.9213728)
(1578.23561 -328.5261523 265.3001876)
(1253.307985 -156.1794084 557.6480459)
(1415.169874 -274.3939181 -190.9869967)
(1853.205797 84.75749032 77.2049271)
(1793.061923 520.5080789 102.2400904)
(2202.766996 -278.8630331 203.5627515)
(1417.08867 -394.5483413 -463.3633777)
(1276.926577 -899.6757506 20.02101275)
(1292.932135 15.10963715 -22.58682298)
(1876.004171 -270.2365745 86.48529421)
(1725.027423 301.6582775 -257.832703)
(1531.748844 26.05000675 308.6266389)
(1964.695464 256.4694877 173.140105)
(1605.95678 155.4098324 -277.2228383)
(1566.693691 -480.9075592 -833.0176831)
(1475.604089 74.69464971 350.0618973)
(1369.258625 420.0014067 -422.2447772)
(1498.165396 74.15921362 46.76205804)
(1424.343103 86.48462213 -50.16631732)
(1557.716163 -265.8507522 -19.96474034)
(1451.3548 103.2981093 -307.1011733)
(1704.408049 -288.3104607 -108.0062243)
(2197.965976 -9.819330352 40.57970578)
(1768.112634 -372.4798093 -351.123766)
(1203.623893 -244.0305066 -121.1927835)
(1565.679248 -58.85398472 -196.1053617)
(1552.53904 249.7802605 -93.79175793)
(1641.026883 -136.4500144 201.181325)
(1854.912736 28.59335461 -334.651884)
(1975.282392 -339.7230356 181.401056)
(1617.445064 -184.2245393 249.8740674)
(1636.869972 -257.9446861 163.9972627)
(1602.773798 469.9660054 -235.923349)
(1043.505509 -11.55429236 -560.4515888)
(1063.439244 183.6885311 -299.6261224)
(2030.564322 865.1058691 -265.7973071)
(1935.620916 -407.7330942 -40.52477705)
(1534.708896 -117.9299405 295.8511272)
(1961.487346 -514.914811 -255.0506229)
(1356.354311 207.6188424 -165.309887)
(1575.961024 375.3584745 -110.1352023)
(2005.734246 -524.762939 57.18743298)
(2084.246066 -299.2623981 37.6027072)
(1357.505113 -335.2914097 77.07494439)
(2106.314147 -315.2141693 -195.7368032)
(2186.594963 144.8945384 -28.74240814)
(1540.713379 104.2392498 263.8391973)
(1851.862648 -113.0721471 81.31121662)
(1914.098065 32.43204655 -186.1203315)
(1547.727053 -592.6814318 100.9056324)
(2098.207256 611.2803222 33.73980881)
(1807.204533 188.9476353 -566.1687574)
(1471.81572 -121.9982169 -51.74673147)
(1627.676631 179.2104221 -518.7068244)
(2144.140092 317.4794519 420.0291955)
(1493.637634 -268.1473133 124.4654478)
(1268.248568 145.3333907 -207.0330712)
(1552.176592 137.4751218 105.2003154)
(1352.517397 -42.81581204 246.9431259)
(1955.416974 -346.4756676 -36.22194185)
(1890.98261 -225.8201408 -110.5917411)
(1860.300455 121.5324545 -510.6755818)
(1903.801925 62.92132819 18.01557109)
(1550.044934 -176.3583182 63.46391093)
(1263.728664 -17.23620665 -98.17304866)
(1511.420506 -447.3035238 -626.8255339)
(1446.455864 149.0189946 339.9542091)
(1681.295626 -41.72027416 216.0748162)
(1668.843784 46.52022283 -102.1078333)
(1725.126173 37.17504456 409.1556169)
(1532.459896 -285.2462206 -101.0403478)
(1808.313772 27.73009021 -150.6810901)
(1589.800758 -450.3384051 -475.1457376)
(1578.877458 -474.0996148 -143.6913621)
(1682.167112 -301.7683222 518.0170734)
(1583.429582 309.0744506 -130.5516938)
(1668.025274 -342.1718901 -54.55377052)
(1803.873849 309.2658198 -210.6709384)
(1459.437798 140.1299628 524.6070807)
(1174.76641 -169.8660081 -312.7310527)
(1733.243003 86.09613368 -49.63245926)
(1759.31583 88.13350902 -516.2518512)
(1618.459535 230.5268212 -616.4851802)
(1395.958698 -44.57055847 323.5103856)
(2017.930324 146.6851518 -126.8114169)
(1563.929959 -39.20711762 168.3915458)
(1854.659986 336.5829024 -334.1119377)
(1365.55975 58.19453783 -467.8824609)
(1869.299491 23.58001426 -119.0690858)
(1443.020026 83.61013226 238.7115886)
(830.9074524 -281.6303541 -799.4475566)
(1726.681339 167.0736959 49.96278781)
(1810.892058 487.7900674 143.6986032)
(1768.955716 320.8894145 377.1884923)
(1461.466579 -134.19107 -189.7321432)
(1592.735481 420.7883115 290.545334)
(2001.887038 469.9193267 306.9716445)
(1323.975128 -207.0867815 -399.6600903)
(1567.643621 -90.59005286 -267.6891204)
(1602.836864 241.9636351 232.531792)
(1687.882019 -30.59921276 -359.0792725)
(1181.024798 0.116642896 433.4250478)
(1689.350197 -1043.85186 -237.0955457)
(1407.678134 -107.7634886 605.7989228)
(1667.194369 -12.2861595 -169.2694037)
(1546.852182 -214.4731234 -317.4173112)
(1378.362192 807.284433 -233.7160177)
(1360.463214 -80.84343385 367.5533168)
(1772.648935 17.46280612 171.8865341)
(1819.777456 283.0390413 156.0960229)
(1581.862411 -354.3109591 -432.4340789)
(1174.26966 -213.209151 -191.1810999)
(1677.238719 115.2833034 446.0156705)
(1651.62466 159.2616977 -232.2670642)
(1671.040769 -141.563962 46.53748574)
(2095.635891 241.7996415 287.2383774)
(1708.225185 1.997384653 287.3387932)
(1661.925909 269.2441299 -85.80990407)
(1640.345482 63.54656512 -124.5565214)
(1657.821608 172.4304056 25.31106242)
(1655.369828 -99.98331527 113.1986927)
(2055.51895 -313.4279275 474.1818512)
(1541.857085 -102.2099237 303.9278218)
(1863.394325 -503.7848286 368.6181032)
(1976.585413 -77.66584447 23.95925069)
(1805.319452 123.7441357 -127.982467)
(1922.146156 -92.38205965 163.6549553)
(1748.584293 -518.6783138 64.95770285)
(1482.963274 192.3875853 560.1144499)
(1301.733974 589.5513106 158.0974615)
(1751.213377 41.95950825 -136.8806849)
(1478.022123 -99.18442975 -539.904595)
(1381.478744 241.7446314 -114.5850751)
(1772.800177 301.9224606 -509.5414624)
(1839.790124 -160.3917262 308.5600078)
(1992.778067 -670.7603016 144.9838982)
(1993.185638 -279.984879 -298.1307304)
(1825.379357 154.2851144 -408.8475076)
(1589.001962 226.6731381 347.2911137)
(1642.245558 -246.9739518 285.6486148)
(1871.558298 -422.0079994 -56.60420219)
(1536.24058 -486.4081374 314.2899564)
(1746.254551 -159.8629016 33.13719019)
(1690.507249 -479.9152539 -393.0305392)
(1922.126642 -432.6054904 -96.09819997)
(968.5838259 481.0492083 -57.53280331)
(1617.236637 312.1866168 -481.0171605)
(1765.369381 19.1274403 56.95981346)
(1750.431631 68.55587444 -277.9072477)
(1937.710479 79.49882759 -332.5091092)
(2048.799129 594.3369497 -152.0541763)
(1900.315837 498.3224586 -585.5774761)
(1633.198544 -417.8431836 161.271844)
(1696.82442 79.55764481 -222.5753062)
(1463.483986 -325.0257294 -606.4968833)
(1865.756589 347.6718715 103.6816385)
(1298.24502 -343.4989869 477.1460285)
(888.2138934 -307.2732954 141.5575604)
(1777.616212 -191.7585913 642.6244476)
(1889.41688 -142.1086204 110.5174572)
(1322.56489 184.4738172 -400.5095393)
(1449.75074 4.540236431 -340.9960489)
(1283.363452 -117.3018111 57.23099857)
(1413.677816 271.7845855 -27.5482921)
(1781.895425 214.7690134 -71.79863343)
(1727.384962 -125.2768002 298.7206648)
(1401.411263 -205.8111159 -650.8540915)
(1999.875171 332.3256158 139.3534843)
(1686.543986 -32.19410325 -270.0655732)
(1700.685066 -244.8642301 680.6532856)
(1590.217255 134.5654646 679.4215154)
(1712.443191 292.6839742 221.3816577)
(2068.125876 -784.9361576 665.0959677)
(1667.386782 -509.7494228 -213.2117595)
(1333.459263 316.2353648 204.8232114)
(1095.021113 322.8529124 208.7183218)
(1311.613524 -847.6057062 211.5875044)
(1508.503301 151.4186161 200.9334487)
(1510.944209 322.9766278 55.91256572)
(2019.562672 -141.8942051 -386.5780886)
(1520.296682 -130.2730708 203.8255326)
(1444.291885 -131.2898955 167.6549678)
(1566.488192 -130.8045689 30.09175228)
(1679.768399 -150.1213921 351.7167867)
(1283.974663 -68.10628444 272.5348847)
(1698.592071 -105.2327266 -217.7002339)
(1457.847674 46.25569369 -266.9052374)
(1454.470533 83.52107419 -345.8975665)
(1262.029319 -132.6365674 -21.36711345)
(2027.027157 524.1590981 -215.4686172)
(1889.415715 -84.99957863 -337.6568225)
(1544.699198 152.7409915 -146.8258576)
(1888.951011 -511.270434 -13.32036387)
(1644.128327 585.1619245 -202.2225526)
(1623.180719 190.6945181 -114.7442146)
(1647.536817 549.9423741 -433.3793749)
(1853.22467 527.7143096 -182.7705932)
(1455.008937 31.05831646 -264.9334203)
(1363.109463 189.6167413 -388.9728702)
(1595.512213 69.07276141 407.6392048)
(1509.932535 54.12297563 77.12755353)
(1113.840369 564.9266124 350.2118139)
(1737.562685 -120.2157194 -191.235663)
(2066.250396 -361.1232403 189.1996299)
(1750.709718 60.19290768 400.586982)
(1936.357821 59.13241707 217.5223517)
(1399.398625 260.3801437 -501.2462699)
(1490.591475 -168.5180698 -35.52681504)
(1916.365126 -168.7676836 -175.5581359)
(1602.870145 10.53802941 -526.5547807)
(1927.261104 18.78867326 -59.446891)
(2162.94393 -331.3134786 -100.790649)
(1429.379429 -386.9812564 -13.95998413)
(1915.135289 239.0924912 85.82529071)
(1516.867733 -225.5042508 159.4633315)
(1950.339087 -431.8485974 15.30450766)
(1226.838131 -198.5678001 216.1162776)
(1409.93463 -402.6606256 65.05220973)
(1798.870666 266.1858181 -480.5453533)
(2611.144675 17.05256847 455.1020125)
(1623.763682 -159.9379033 -76.55475599)
(1332.71407 335.7898381 -250.2043377)
(1103.544659 30.72276909 -317.285516)
(1001.520885 -101.5931021 45.6883666)
(2045.61574 -377.5275986 -27.41590237)
(2370.798355 -109.9441861 -4.947712453)
(1064.212139 76.96402413 -508.6197773)
(1619.899858 -131.383741 515.5686324)
(1687.266441 20.24040535 212.4569627)
(1572.799916 -140.1112673 -97.44769275)
(1134.296316 -75.38213559 -224.1576661)
(1501.73318 429.8196562 -80.34834735)
(1636.341457 -189.6887389 40.04409328)
(1910.644629 -266.7924412 227.7402695)
(2346.752688 271.0765661 22.72209806)
(1846.410228 -148.5682176 336.866955)
(1842.602282 99.76268657 -78.3642816)
(2018.634466 -331.0742837 44.8959216)
(1529.904632 22.04655588 33.92129294)
(1488.169598 89.89491173 351.8279604)
(1798.891484 203.0028854 -195.3233727)
(1829.101954 101.4624232 328.5090027)
(1357.716627 -241.87208 -37.09304804)
(2128.04457 265.0660549 360.8834499)
(1940.632824 -158.8248498 -138.0691827)
(1848.243344 -296.6873303 -26.33185543)
(1519.028087 489.051087 -75.42498922)
(1721.855868 -52.59136253 141.7238769)
(1880.089375 264.6713702 -561.0352341)
(1890.686361 -168.8000294 -161.3579787)
(1905.604219 259.8663075 388.7803813)
(1849.472045 -486.2356735 126.5249945)
(1622.875811 277.6589402 -149.5971196)
(1465.709107 251.1439063 -177.0617123)
(2330.089693 223.7909916 122.8512195)
(1648.5188 638.0219885 68.36778805)
(1291.966872 48.47642203 84.45717693)
(1782.899186 571.3963515 -9.948599662)
(2054.413707 -430.1602844 -183.9123746)
(1597.879994 33.77943772 24.55751681)
(1498.736287 -401.4492956 417.487517)
(1975.273149 -66.77648035 -533.5079781)
(1615.894451 45.12408979 42.31289118)
(1438.100445 -327.1472578 -360.738509)
(1695.103605 -770.8822574 -151.2803257)
(710.1648203 306.0528663 1.292636911)
(1063.910907 32.44280138 -237.0370354)
(2218.420108 -133.0199162 -199.6394115)
(1477.512349 -229.2155967 -523.790016)
(1460.6721 -47.31939404 -80.49754038)
(1432.956547 19.11094204 411.7083692)
(1763.850466 475.1288262 170.0083661)
(1724.753917 618.0462944 -502.4831048)
(1631.210015 -191.4574949 141.429191)
(1143.361082 390.3447875 607.7605238)
(1687.119292 -149.297737 108.7139116)
(1733.775135 243.8212485 282.8607472)
(1588.762902 320.9332778 -34.81833231)
(1610.439027 21.09844435 358.6022276)
(1327.271814 494.5506112 8.035773728)
(1559.1712 165.5643532 -236.1446107)
(1611.257912 -178.4192927 71.24014863)
(1479.220732 -567.4806473 -14.62562941)
(1640.06224 -332.1335726 58.30630685)
(1318.917034 -44.10799737 -511.7559256)
(2019.321887 48.89239677 368.5829291)
(1494.312567 200.9952559 -93.00028753)
(1260.439492 -357.1810303 30.85232853)
(1719.964652 8.511181045 -26.02506348)
(1698.764332 78.26795672 405.4584635)
(1298.90278 262.2304415 544.6547835)
(1554.320553 121.8261329 -319.1560583)
(1574.860604 33.57974192 37.10268599)
(1744.638492 -283.3130792 134.1201847)
(1687.076086 -34.49601088 -125.3695882)
(2317.729418 -31.55085309 260.0497737)
(1388.78308 305.2880189 -38.77545232)
(1801.112553 146.0818185 88.8789341)
(1587.416939 71.64435997 -69.84641393)
(2167.229966 173.4140819 -16.98532363)
(1442.706473 108.2938338 332.0543034)
(1759.157937 138.3169832 195.6695359)
(1772.390237 -70.89338194 203.2962596)
(1535.249685 269.791188 -671.8255492)
(1731.861991 221.3359487 256.2415308)
(1984.626439 393.0734257 -140.7749573)
(1677.693523 117.0849177 346.9172078)
(1918.56493 65.1269486 188.8272481)
(1631.028263 -127.7974194 134.8386035)
(1550.66311 328.6720336 459.6390361)
(1130.386743 -528.3919602 -212.402181)
(1853.632947 -53.13821406 -119.9661343)
(1583.576847 43.67977019 160.1975526)
(1890.240446 -723.9428106 -146.4406259)
(1621.396065 -41.32381713 140.3124275)
(1596.609507 72.79068249 -197.504252)
(1424.130367 106.356306 -291.3645836)
(2093.612132 346.2982646 -795.3715404)
(1668.359677 86.18920266 150.4983961)
(1754.032379 167.6689551 -264.8022649)
(1719.732667 -189.3492762 377.4403855)
(1480.669083 655.6959992 382.708352)
(1249.304609 292.2884482 -472.5864622)
(1383.889345 -96.71984258 -220.3673813)
(1510.138358 204.9166215 98.38222257)
(1653.583385 177.7269245 96.64449336)
(1545.225711 -60.33105865 158.0540296)
(1128.188435 -258.1589015 -167.0629349)
(1738.665538 -55.1143128 8.292661845)
(1638.093713 -115.0763356 165.1341779)
(1529.737164 -38.62770928 -430.0760407)
(1941.955514 -71.25445261 7.768993043)
(2016.980974 62.6200586 -361.7276041)
(1406.220344 121.7023384 -64.61249059)
(1098.545344 372.3773113 -77.65180684)
(1580.121789 -245.1258929 322.9884967)
(1219.034621 -197.3260881 -590.2700391)
(1104.383234 -288.2443859 48.73433888)
(1391.792187 411.8457583 335.6940088)
(1135.08127 118.9073292 142.1899182)
(1894.26699 -426.1632047 -217.668575)
(1678.524265 179.7613427 27.39672111)
(1415.25104 215.5402777 -367.2513285)
(1929.232528 173.6802604 -138.5292246)
(1779.846971 700.7330757 351.1340142)
(1812.203747 199.9256619 -430.4493154)
(1611.728325 -117.4311898 -348.0934449)
(1861.527101 278.726143 175.6338347)
(1684.570132 -211.137895 -166.7205742)
(1821.95818 -205.5982349 81.74358514)
(1623.550072 591.8109161 -166.502851)
(2280.966917 -37.59388979 -67.9294789)
(1220.030981 315.118824 271.8872656)
(1799.1342 218.1909635 -64.55272232)
(1803.112203 -410.9920753 137.9268143)
(1870.085497 -33.51451905 -130.3181064)
(1410.246909 -235.915435 -454.7669386)
(1562.241864 -250.2200557 607.5792634)
(1192.195666 66.30784516 332.5022299)
(1510.588866 -133.5412711 -205.3679324)
(1671.202529 122.1123618 -325.0166291)
(1837.228749 145.9398825 50.94679812)
(1680.872253 -34.42837477 -79.1387596)
(1700.202954 -501.6084319 572.2760418)
(1721.984477 -168.3166491 349.8040682)
(1795.955977 232.6833953 304.3769105)
(1501.213027 256.2868733 -42.35348456)
(1825.041746 -7.966548059 160.4034725)
(1870.072787 184.4635551 445.7188582)
(1959.705695 763.5910005 218.0789812)
(2271.071476 243.8353337 96.34536759)
(2103.66097 -270.6837409 -35.15690141)
(1783.30143 554.6465137 235.2772511)
(1823.98105 -413.9096989 533.2109761)
(1776.032367 322.0566709 -27.40413004)
(1928.604029 219.4565919 -495.6177577)
(1149.202728 -225.9490239 388.7028015)
(1660.380743 -51.83081362 -492.6372767)
(1787.846996 250.0436258 -296.6035205)
(1899.201805 -26.48414065 539.7400525)
(1492.868505 -285.3654437 -498.5183585)
(1650.676987 -361.0267119 397.6032038)
(1680.981811 115.7684661 285.9387661)
(1391.880197 56.59998469 283.7678017)
(2111.105181 5.831708532 -316.9741238)
(1607.168093 -212.6175033 196.853459)
(1711.868598 501.8478643 -385.6562053)
(1282.429052 -179.4649428 -140.7027183)
(1752.032638 -116.0012131 -93.47831128)
(1938.070721 230.4393981 -259.2377552)
(1736.956532 -225.453793 106.6168869)
(1598.127056 181.1722987 -225.3848989)
(1799.70605 -196.308035 602.654392)
(1843.770285 3.085079794 100.4377506)
(1696.694554 29.08296089 80.58391212)
(1324.240062 48.55518876 204.6064465)
(1480.098838 48.06773628 -45.68171957)
(1762.147699 -401.220734 639.0019247)
(1568.279081 65.04394514 -27.42365785)
(1017.583733 -312.7096983 262.7833086)
(1523.77336 260.7706668 40.12631266)
(957.3613545 -415.6881585 -10.48670754)
(1601.129948 541.4648434 440.6263912)
(2185.999366 -106.9710079 181.882281)
(1751.011653 -76.49220081 129.9500068)
(1622.39437 486.5148557 181.3193588)
(1783.435224 -18.04255578 -196.2444553)
(1441.191222 407.8905809 155.6153131)
(1828.902142 -7.581803975 -485.8220317)
(1994.663143 -203.9722628 336.9693935)
(1892.514574 -241.7103749 275.3680844)
(2124.042452 -692.4389858 -30.40234068)
(1628.564436 -811.6477471 -506.7069041)
(1155.793997 190.1403556 9.27318921)
(2086.726503 -121.4427688 -791.1016484)
(1824.404043 -777.0782011 18.13549046)
(1939.943655 -143.1617104 -53.23069212)
(1555.391856 -225.1771735 54.33409768)
(1800.657452 20.26835716 649.3614686)
(1572.476629 -69.48000508 69.03785261)
(1918.809077 -109.1148914 -445.6217134)
(1641.797308 443.6045344 178.4667235)
(1671.76354 764.1408977 -56.63360368)
(1495.294661 210.0383152 -220.7036492)
(1660.228232 149.4323718 7.572473994)
(1902.005516 -233.9474335 299.6083227)
(1969.530684 -73.91236094 98.47254016)
(1449.437737 -87.07095775 154.7140231)
(1993.414882 -227.7490672 203.6189228)
(1849.807933 140.9197933 -337.8997621)
(1707.998611 -8.659952817 -266.6909298)
(1956.479564 233.2613539 -82.14884894)
(1837.318442 -209.3611186 80.05684826)
(1854.343208 604.1421159 378.3853532)
(1362.942381 170.9023222 68.88252984)
(1659.66255 -10.9765963 -148.9861776)
(1605.881681 323.9688094 -27.8992048)
(1197.079314 -158.3844205 122.991486)
(2006.336405 425.5669157 -187.9352516)
(980.7661845 -94.36803738 303.2998481)
(1818.291067 -156.9606228 -35.52224851)
(1810.270307 23.26581417 41.39946833)
(1661.46903 -202.4889746 115.3986648)
(2279.780951 -303.2838513 280.9447662)
(1366.661047 -408.2331263 -247.1775302)
(1637.595566 211.7011315 43.84904012)
(1750.580181 -414.5612788 355.9522071)
(1603.533609 -235.8304825 36.68643038)
(1879.19949 -289.7659245 28.82821233)
(2046.82301 154.7494223 -376.648401)
(2067.427205 -573.150665 0.3063906124)
(2120.059151 535.0599346 -110.8958097)
(1448.877008 -26.88188506 286.1200725)
(995.0885628 -91.16762819 -132.3244396)
(1885.659501 -344.8005915 119.9325355)
(1586.835625 -196.4848203 113.148805)
(1501.960004 -645.0181072 -377.4808677)
(1796.269882 399.4966182 640.2105688)
(1906.697191 272.3027571 -419.1589041)
(1408.88456 -168.5654013 -173.2531849)
(1991.462991 -28.36598551 -246.2649642)
(1740.70668 111.7631481 -303.8022616)
(1869.614768 -620.4101871 -528.9600351)
(1979.921105 902.599136 3.185976749)
(1549.350749 178.4555651 -457.8327195)
(1782.901854 3.006384291 54.07848404)
(1592.339416 -462.7574326 -485.5125407)
(1581.869451 -197.0548406 43.81213053)
(1070.724466 -116.6364033 191.7062422)
(1784.406776 77.68717316 362.537257)
(1745.898381 44.92192064 -50.29189088)
(1508.352628 -151.1690361 456.194048)
(1539.48397 442.3255328 -78.06134153)
(2142.839132 -311.830113 -218.2041075)
(1159.616026 -414.6992493 -412.0485962)
(2224.984289 -217.4547724 230.7151917)
(1800.211619 306.9772427 -53.42649216)
(2039.591158 272.964077 -271.356999)
(2004.443277 -108.2962798 -651.3916671)
(1781.109228 -62.41517136 131.1451201)
(1499.298835 -796.4079903 -132.9782642)
(1368.325156 312.1216789 -169.9456036)
(1753.203132 -108.2079165 -343.1259078)
(1743.038133 -22.70339047 160.0063602)
(1782.066093 340.1927942 -187.0683431)
(1568.848486 -260.6430446 -188.1979434)
(1713.983045 212.5268472 20.43662189)
(1548.847473 -270.7172136 -68.93403231)
(1429.742601 349.842285 -902.9872774)
(1706.093812 577.1650192 -770.3376993)
(1121.816278 127.1009643 245.9559012)
(1567.282388 752.1982867 286.3734625)
(1952.104044 191.9165543 -76.9782649)
(1317.693766 -131.1555321 107.662247)
(1949.660318 -177.7090721 -126.4943962)
(2288.679883 453.0022364 154.718274)
(1787.563356 147.5316093 31.85778714)
(1941.786841 -204.033777 51.39378743)
(1819.906697 166.9036797 -99.55553136)
(1734.307481 -438.0886333 -67.39429054)
(1600.717223 60.16302251 122.1900125)
(1951.887273 -579.2254109 532.8087595)
(1871.947927 80.85246656 -75.90048815)
(1757.13943 243.8788405 213.0651351)
(1277.904041 499.2528411 -371.4182021)
(1733.212298 -111.0531231 464.8648027)
(2137.112304 -335.348296 -416.6915485)
(1038.038403 571.6974603 -340.4595205)
(1778.851102 158.9028246 -427.2140921)
(1120.947505 353.4301869 154.8731571)
(1659.100348 143.9030546 -271.6694403)
(1804.680755 48.12453078 42.6673002)
(1722.771888 256.8272417 -35.20934026)
(1488.936146 -61.46326285 125.5363046)
(1496.487391 319.0421459 718.4841221)
(1523.459534 333.8498483 -90.46346346)
(1838.894534 -582.5079931 353.6946055)
(1526.424323 -334.5141693 352.3533701)
(1544.160038 -435.8480543 -65.88063859)
(1782.457591 133.064905 -48.23426734)
(1831.283387 -24.48778442 -6.910345722)
(1688.877606 -136.8032962 -331.307923)
(1665.134159 45.41909717 -92.11319562)
(1461.271346 -63.81009044 -405.0212255)
(1632.420114 -109.4861344 -179.751512)
(1599.404635 279.6883644 -70.27263215)
(1591.561123 32.28165409 196.6559525)
(1879.172619 171.4555244 -25.04199396)
(1851.170676 -81.88275548 -172.2772699)
(1483.232384 -68.62346233 742.1318618)
(1756.074726 324.1992076 -462.6166652)
(1517.108645 -267.79587 -418.8580173)
(1724.94848 -681.9013344 -565.5601907)
(1779.461166 -182.9693081 -25.1767172)
(1266.383307 171.7966426 -415.6502243)
(1475.922458 -96.20477755 -246.4804915)
(2012.04251 -19.36862228 225.4289244)
(2046.990352 411.1502272 488.1487698)
(1623.261088 206.3940615 -108.2272869)
(1972.111495 -27.09147703 181.7522552)
(1581.076424 813.1065816 47.75339738)
(1762.665163 -6.987245726 -557.729127)
(1249.767831 -89.14165191 -494.7249428)
(1095.762846 102.3216425 -158.9047242)
(1698.360675 220.0226085 15.14857606)
(2030.096662 54.92819458 -668.0726562)
(1813.846692 471.3503006 25.09959077)
(1438.345203 169.567437 160.4807364)
(1741.092172 -160.1769371 146.0464909)
(1214.630995 -240.8996506 465.6288155)
(2142.127959 79.07135568 311.8445298)
(1976.887875 -488.8427692 -16.7232793)
(1649.843758 -125.6103255 -208.0327631)
(1428.034881 -152.9495421 -147.6599263)
(1372.151473 -140.9198205 -56.42434013)
(1651.326818 170.6715802 -371.4536623)
(1650.743412 14.64523896 -275.3725629)
(1385.252855 460.9898431 73.81752677)
(1263.465009 -158.649242 -26.06481308)
(1610.237772 -268.3935118 -496.83002)
(1429.934404 -139.8533272 196.767127)
(1509.629255 -442.3818171 -616.8704514)
(2001.316443 201.942959 -104.2854739)
(1517.617671 -8.420050108 203.799595)
(1807.967092 207.9322057 157.7441077)
(1505.536214 -346.9520381 65.17827833)
(2043.220579 -16.26782857 15.74571002)
(1419.174153 382.1120026 -108.9119249)
(1658.201479 -41.57216319 -578.3338549)
(1815.483095 153.1415957 275.3917723)
(1916.939117 -323.8022997 -320.7262923)
(2002.850487 326.2842591 -413.1631943)
(2027.528311 -36.94430263 -147.0275981)
(1771.169558 194.1905578 -157.7863441)
(1738.439287 182.8820519 -104.9022323)
(1976.995932 27.0102282 -500.3029362)
(1886.556488 417.6541195 97.85778044)
(1652.929222 398.8001272 -186.4648728)
(1448.63757 -77.97933264 66.82553003)
(1962.904786 -0.973501919 23.46667296)
(1430.010919 411.122384 77.50566414)
(981.7628523 8.406411337 -348.0102483)
(1724.34864 -267.6782905 -512.2239092)
(1783.548238 -176.0658873 252.9663525)
(1664.045229 60.23468909 -122.81321)
(2009.384795 82.67554507 -268.8667031)
(2307.857837 -237.5529141 -138.5953852)
(1474.948012 323.2860477 -534.5711136)
(1695.082831 -286.8753436 521.2639748)
(1307.046952 -262.5139873 469.7745241)
(1539.972751 38.25480963 403.3997133)
(1541.119812 -412.2372939 -197.1912486)
(1570.150114 191.2231462 574.4281249)
(1318.654773 30.48715921 96.52960226)
(1528.564097 557.0981726 -258.9037139)
(2047.639383 169.8728861 226.7110325)
(1894.848786 92.75943278 -275.7124298)
(1998.06765 -381.6077195 42.45630794)
(1868.0975 -216.1676467 -450.2417697)
(1856.004867 -182.3370139 -50.95618757)
(1450.053019 4.21333814 -162.4713731)
(1805.565724 -251.6847073 -292.9760848)
(1463.611663 448.8491598 502.5533151)
(1974.777272 201.180975 -130.4513802)
(1658.15487 -3.150846113 -127.0318801)
(1452.340187 -17.25425788 46.84065434)
(1946.557302 -161.7065235 -416.2942296)
(1713.014498 -196.5216993 134.0682537)
(2080.68005 -193.7282952 -312.6472385)
(1149.591723 416.2781502 72.9953046)
(1576.172358 -100.3994731 117.3462302)
(1173.573048 -187.9095611 342.9571993)
(1371.532532 -427.2837595 264.2631643)
(1426.303209 302.3458563 -365.5077924)
(1947.797594 170.6567703 213.5327504)
(1959.458015 249.9998128 81.66345474)
(1803.444939 211.3231077 160.4415957)
(1742.22859 -80.46055488 249.114635)
(1971.517443 436.3030465 86.50299269)
(1544.230494 -229.6005077 -119.4846177)
(1599.801001 -188.9333895 -256.5052141)
(1584.896988 367.1346973 -14.16153629)
(1918.334667 320.5685891 -145.1896283)
(1730.753393 -117.2905055 -152.1657071)
(2374.183153 -385.1879649 -251.6501343)
(1759.20062 173.9325843 -396.6568816)
(1991.926161 -78.79611007 -171.8546635)
(2427.210107 202.2211598 -131.5019467)
(1942.304085 242.1095324 300.2839158)
(1871.877359 -214.0040283 -326.219042)
(1731.678658 168.6469062 -403.8919614)
(1940.326473 -157.2809979 -249.535291)
(1406.448785 76.88530965 -51.58150336)
(1639.444971 9.978034671 746.0878174)
(2146.465569 221.0727344 205.7348605)
(1816.435056 140.8338178 -211.3277836)
(1770.632939 58.01293859 -20.7219308)
(1319.225379 -161.130871 -142.2521475)
(1474.35923 -185.3716336 158.0474372)
(1961.65316 -264.5748624 107.1165271)
(1184.059315 49.38687541 -357.9122274)
(1693.092537 -656.4031567 80.50545225)
(1485.561375 -92.97487164 -398.2730597)
(1754.912106 167.0573378 -83.63897553)
(2160.898928 -138.9396323 -132.8068217)
(1718.704546 -115.4621623 -475.9488648)
(2133.160242 349.6218993 -333.8776304)
(1764.818396 -240.7035348 84.07183309)
(1794.009769 -112.8629288 -790.572248)
(1622.972228 -168.5758506 -316.1844633)
(1667.637693 258.2639439 265.4927049)
(2082.65055 192.6222624 -125.3863858)
(1969.589148 283.3653168 -57.23979566)
(1808.667181 -341.0645888 -22.06968201)
(1426.81767 -3.664483925 0.3325668624)
(1736.757456 -145.1201289 154.1285444)
(1477.986652 -120.9359303 -3.422873087)
(1632.207436 -231.8595328 -314.4530936)
(1663.029826 -62.23106898 -186.6454338)
(1678.514892 174.0051456 35.06948168)
(1619.216782 -115.7099254 -363.6381646)
(1504.115654 35.9374388 -392.2504131)
(1083.352708 -289.3443484 424.9645414)
(1759.877594 -262.1224454 212.3929295)
(1660.737738 -41.57290179 378.4533252)
(2072.640233 -123.2431187 38.23745937)
(1599.285089 173.7725125 263.6483554)
(1346.094898 334.3620891 -74.06407606)
(1128.701646 214.8774978 661.1809901)
(1435.7642 35.66261136 32.18496674)
(1831.961486 319.1297869 -136.6721036)
(1706.524771 173.3975211 -191.5536605)