/*--------------------------------*- C++ -*----------------------------------*\
| =========                 |                                                 |
| \\      /  F ield         | OpenFOAM: The Open Source CFD Toolbox           |
|  \\    /   O peration     | Version:  2406                                  |
|   \\  /    A nd           | Website:  www.openfoam.com                      |
|    \\/     M anipulation  |                                                 |
\*---------------------------------------------------------------------------*/
FoamFile
{
    version     2.0;
    format      ascii;
    arch        "LSB;label=32;scalar=64";
    class       Cloud<dsmcParcel>;
    location    "0.006/lagrangian/dsmc";
    object      coordinates;
}
// * * * * * * * * * * * * * * * * * * * * * * * * * * * * * * * * * * * * * //

6153
(
(0.9032825532 0.02023031266 0.02812841074 0.0483587234) 413 1269 1
(0.2752168868 0.3623915566 0.04557721227 0.3168143443) 413 808 2
(0.5392860926 0.1808547021 0.04950225154 0.2303569537) 202 395 1
(0.1849312518 0.3246175265 0.4075343741 0.08291684763) 229 446 1
(0.1686643191 0.3686415588 0.04702628165 0.4156678405) 140 215 2
(0.1357740677 0.1038499745 0.4321129662 0.3282629917) 203 397 2
(0.2383206179 0.3808396911 0.3075391687 0.07330052231) 468 860 1
(0.4511239246 0.2055848076 0.06885323009 0.2744380377) 260 509 1
(0.3832388689 0.1196119111 0.1887686544 0.3083805655) 502 927 2
(0.1217113607 0.4391443197 0.3850872567 0.054057063) 52 58 1
(0.5335051035 0.03634315921 0.1969042891 0.2332474483) 412 808 1
(0.4165057436 0.2917471282 0.09326701323 0.198480115) 228 446 2
(0.7413572786 0.1293213607 0.01196389433 0.1173574664) 290 569 1
(0.1053077407 0.2797981631 0.1675479665 0.4473461297) 466 914 1
(0.00775547624 0.4961222619 0.151132906 0.3449893559) 323 633 1
(0.01251442754 0.3111653856 0.1825774006 0.4937427862) 230 392 2
(0.02637624706 0.0938611542 0.4868118765 0.3929507223) 588 1155 2
(0.01696961007 0.2868767047 0.491515195 0.2046384902) 502 986 2
(0.03007832252 0.02450228728 0.4604585515 0.4849608387) 472 926 1
(0.3215262524 0.3392368738 0.2809942073 0.0582426665) 562 1104 1
(0.1366017791 0.0303080886 0.4013910218 0.4316991104) 171 334 1
(0.5774843894 0.1365394695 0.07471833577 0.2112578053) 139 271 1
(0.2391592505 0.3804203747 0.3178988076 0.06252156716) 533 1044 2
(0.1657846548 0.4171076726 0.2711981263 0.1459095462) 285 558 2
(0.2841444665 0.3579277668 0.1111144607 0.2468133061) 262 513 2
(0.2641029779 0.367948511 0.1214782969 0.2464702141) 113 1259 2
(0.1545356823 0.1200503154 0.3026818434 0.4227321589) 323 1266 1
(0.2877380129 0.05763335037 0.3561309936 0.2984976432) 293 574 2
(0.1134085747 0.4432957126 0.323187276 0.1201084367) 80 99 1
(0.7555939147 0.06276986575 0.0594331769 0.1222030426) 412 808 1
(0.8620777437 0.005145867916 0.06381526023 0.06896112815) 140 273 1
(0.7525880393 0.1152710198 0.008434960518 0.1237059804) 593 1275 1
(0.7255264011 0.1372367994 0.007351570558 0.1298852289) 293 574 1
(0.03261906473 0.4491883244 0.03450214325 0.4836904676) 322 573 2
(0.6219402123 0.04403571041 0.1890298938 0.1449941834) 108 208 1
(0.1669799814 0.4165100093 0.08030485662 0.3362051527) 623 1164 1
(0.1925688788 0.4037155606 0.2485822932 0.1551332674) 382 749 2
(0.0152950149 0.4923524925 0.256453001 0.2358994916) 383 749 2
(0.1936976361 0.403151182 0.05266271872 0.3504884633) 231 453 1
(0.1481782442 0.1935895872 0.4259108779 0.2323212907) 353 692 2
(0.09418943897 0.4529052805 0.03600800249 0.416897278) 533 1046 1
(0.462526004 0.268736998 0.1482072117 0.1205297863) 110 212 2
(0.5965679067 0.2017160466 0.1084722241 0.0932438225) 472 868 1
(0.6331919221 0.125810133 0.1834040389 0.05759390598) 353 692 2
(0.2943789059 0.03410023258 0.3528105471 0.3187103145) 531 1040 1
(0.251145581 0.1139976271 0.3744272095 0.2604295824) 652 1251 1
(0.3976380751 0.150590466 0.1505904964 0.3011809625) 381 747 1
(0.1506699475 0.4246650262 0.2367588888 0.1879061374) 202 396 1
(0.5480116183 0.04491990114 0.1810742897 0.2259941909) 263 456 2
(0.3327368303 0.3336315848 0.1616390889 0.1719924959) 468 916 2
(0.3501752142 0.3249123929 0.1723958788 0.1525165141) 203 397 1
(0.2969738364 0.02702349586 0.3244895859 0.3515130818) 200 391 1
(0.6512310258 0.1494924177 0.1743844871 0.02489206934) 260 510 2
(0.5467024018 0.1020535452 0.1245952539 0.2266487991) 200 333 2
(0.7432960925 0.1283519538 0.05292688571 0.07542506805) 230 451 1
(0.04342118784 0.2402562408 0.2380331652 0.4782894061) 168 328 1
(0.2790767258 0.3604616371 0.1399877248 0.2204739123) 141 275 2
(0.3511156392 0.3244421804 0.1894250907 0.1350170897) 52 58 1
(0.001560322732 0.3057339207 0.1934859179 0.4992198386) 112 218 1
(0.510202853 0.2448985735 0.00106006586 0.2438385076) 113 161 1
(0.2931125328 0.1884574828 0.3534437336 0.1649862508) 623 1221 1
(0.4651621678 0.2674189161 0.1678156006 0.09960331547) 622 1219 2
(0.7191050378 0.1404474811 0.1185829677 0.02186451342) 413 808 2
(0.08357321993 0.45821339 0.1086318144 0.3495815756) 289 566 2
(0.05125270809 0.474373646 0.05414988514 0.4202237608) 143 277 2
(0.1170553731 0.2261456485 0.4414723134 0.2153266649) 290 569 2
(0.2303689701 0.09353702009 0.2912784949 0.384815515) 351 688 1
(0.4727483615 0.1751600271 0.08846579214 0.2636258193) 173 279 2
(0.820598445 0.0886381879 0.001062589595 0.0897007775) 231 394 2
(0.3038168179 0.3480915911 0.2147573437 0.1333342473) 290 568 2
(0.4633253485 0.2683373257 0.1908511156 0.07748621017) 231 450 2
(0.3237703174 0.3381148413 0.1925716601 0.1455431812) 653 1277 2
(0.2268880787 0.2617715642 0.1247843964 0.3865559607) 111 158 2
(0.1515906058 0.007263178578 0.4169415185 0.4242046971) 111 216 1
(0.833339159 0.0437188269 0.0833304205 0.0396115936) 203 397 2
(0.4509587512 0.2745206244 0.0733496312 0.2011709932) 233 456 1
(0.9053575426 0.0348554301 0.04732122868 0.01246579857) 233 456 2
(0.7070377498 0.03804960269 0.1464811251 0.1084315224) 140 271 1
(0.04380187894 0.07328228266 0.4048167779 0.4780990605) 379 685 2
(0.1772902103 0.3046282375 0.1067266574 0.4113548949) 532 1044 1
(0.4813122218 0.2412273979 0.01811649124 0.2593438891) 293 515 2
(0.2076395299 0.396180235 0.3243981085 0.0717821265) 3 2619 2
(0.6374506184 0.1812746908 0.02632426217 0.1549504286) 413 751 1
(0.07835182694 0.4000820372 0.4608240865 0.06074204932) 54 104 2
(0.2793995425 0.1142576222 0.2460426066 0.3603002287) 501 983 1
(0.3796552905 0.05997659623 0.3101723547 0.2501957585) 233 456 2
(0.5733058378 0.2133470811 0.08087034233 0.1324767388) 113 161 1
(0.5815446746 0.02730617012 0.1819214926 0.2092276627) 532 1044 1
(0.2762596565 0.02287327034 0.3618701717 0.3389969014) 225 438 1
(0.08389204423 0.4580539779 0.4384990839 0.019554894) 54 102 2
(0.754590927 0.1199351859 0.1227045365 0.00276935058) 320 625 1
(0.08479379719 0.4576031014 0.2912827755 0.1663203259) 562 1045 1
(0.8030439865 0.02760091423 0.09847800676 0.07087709253) 467 914 1
(0.3778934669 0.01025841108 0.3110532666 0.3007948555) 53 100 1
(0.8303278968 0.08483605161 0.03986100381 0.0449750478) 413 1269 2
(0.5477313044 0.2261343478 0.1639912538 0.06214309407) 109 210 2
(0.988149309 0.005925345521 0.0011115008 0.00481384472) 563 1046 1
(0.004298215046 0.1985662279 0.4978508925 0.2992846646) 111 217 2
(0.4718887918 0.2640556041 0.2422741391 0.02178146499) 202 395 2
(0.1043343185 0.4478328407 0.1048725465 0.3429602942) 79 151 2
(0.2519540024 0.2213754994 0.3740229988 0.1526474995) 171 335 2
(0.4315325279 0.1684792913 0.1157544447 0.2842337361) 376 737 1
(0.7158791717 0.07050126068 0.07155915346 0.1420604141) 263 456 2
(0.0491674972 0.4754162514 0.1285238163 0.3468924351) 383 749 2
(0.03266280272 0.3873708581 0.09629774056 0.4836685986) 83 1258 1
(0.09207691956 0.4539615402 0.1314039909 0.3225575493) 623 1223 1
(0.7262848578 0.01314536671 0.1237122044 0.1368575711) 143 1260 1
(0.03646946221 0.4817652689 0.2580076109 0.223757658) 74 143 2
(0.4175514553 0.2564463972 0.2912242724 0.03477787511) 141 276 2
(0.01157392749 0.4942130363 0.001220378377 0.4929926579) 562 1101 2
(0.7070141959 0.146492902 0.03065691963 0.1158359824) 233 454 2
(0.1602844122 0.4198577939 0.3966854458 0.02317234805) 441 807 1
(0.05983542236 0.4700822888 0.4031173439 0.06696494493) 143 1260 2
(0.2179987374 0.3910006313 0.156008582 0.2349920493) 170 274 1
(0.0657213419 0.01702615245 0.4671393291 0.4501131766) 533 1044 1
(0.5411377649 0.2294311176 0.0674109507 0.1620201669) 440 805 1
(0.142774589 0.4286127055 0.1855747477 0.2430379578) 173 279 1
(0.8896597129 0.05517014353 0.01512685734 0.04004328618) 319 626 1
(0.5285712241 0.1827319112 0.2357143879 0.05298247678) 83 159 1
(0.4838919429 0.04880702309 0.2092470055 0.2580540285) 503 928 2
(0.3687516629 0.3156241685 0.08449908842 0.2311250801) 111 216 2
(0.1979778456 0.2365869255 0.1644241517 0.4010110772) 201 335 2
(3.601381673e-05 0.4999819931 0.1553515077 0.3446304854) 198 388 1
(0.2485323797 0.3757338101 0.2108876366 0.1648461735) 53 60 1
(0.02484893173 0.4380543011 0.04952123299 0.4875755341) 111 216 1
(0.1742580507 0.1194594512 0.4128709747 0.2934115234) 14 24 1
(0.8387506465 0.01132358968 0.06930108705 0.08062467674) 229 390 2
(0.5968351335 0.1800327079 0.02154972532 0.2015824332) 351 630 2
(0.01721339905 0.3497827619 0.1416105386 0.4913933005) 473 869 2
(0.2207833676 0.2874892039 0.1021191123 0.3896083162) 293 515 2
(0.04510409137 0.07406929788 0.4774479543 0.4033786564) 261 512 2
(0.2942265775 0.1330301177 0.3528867113 0.2198565936) 202 393 1
(0.4602491935 0.2542988763 0.01557652701 0.2698754033) 229 390 2
(0.4410704256 0.05805720512 0.2794647872 0.2214075821) 171 335 2
(0.1715947007 0.09175341558 0.3224492341 0.4142026497) 51 98 1
(0.3689087343 0.3155456328 0.02772052572 0.2878251071) 54 102 2
(0.2609424729 0.08375315185 0.2857756117 0.3695287635) 203 1262 1
(0.4262173099 0.2696714745 0.2868913451 0.01721987059) 412 806 1
(0.04042411159 0.4797879442 0.05654065706 0.4232472871) 412 809 1
(0.4164572171 0.05502058068 0.2367508108 0.2917713914) 353 633 2
(0.3400287236 0.3299856382 0.2993261475 0.03065949065) 230 392 1
(0.4725089709 0.03142889782 0.2637455145 0.2323166167) 651 1305 2
(0.4102620702 0.2622316207 0.0326373442 0.2948689649) 381 747 1
(0.07330929199 0.463345354 0.3792454237 0.08409993027) 289 566 2
(0.2510288281 0.1806601103 0.1938254756 0.3744855859) 261 453 2
(0.3740215648 0.3129892176 0.03462095053 0.2783682671) 443 1270 2
(0.03248326929 0.154798967 0.3289593983 0.4837583654) 319 567 2
(0.1768319314 0.1166865297 0.4115840343 0.2948975046) 588 1152 1
(0.5651758064 0.1987667127 0.01864538416 0.2174120968) 200 333 2
(0.197519832 0.401240084 0.3717053391 0.02953474491) 502 986 1
(0.2431525376 0.3784237312 0.1464640264 0.2319597047) 139 272 1
(0.420298774 0.289850613 0.04453387183 0.2453167412) 623 1164 1
(0.169361472 0.415319264 0.2245534895 0.1907657745) 52 58 1
(0.006870104112 0.4965649479 0.01428847951 0.4822764684) 440 863 2
(0.3548012908 0.3225993546 0.1550396337 0.167559721) 563 1046 1
(0.2383814805 0.3808092598 0.08784515899 0.2929641008) 443 1270 2
(0.5309905955 0.2345047022 0.1787275051 0.05577719718) 323 633 1
(0.5634135548 0.2182932226 0.08936195753 0.1289312651) 382 749 2
(0.01547661374 0.4922616931 0.1096835842 0.3825781089) 80 156 1
(0.1825242964 0.4087378518 0.0285586044 0.3801792474) 201 393 2
(0.01274321234 0.4936283938 0.1306451633 0.3629832305) 322 632 1
(0.1185310243 0.4407344878 0.1268884168 0.3138460711) 169 330 2
(0.3165593001 0.34172035 0.2547515642 0.08696878574) 532 1044 2
(0.3335764589 0.3332117706 0.01452274691 0.3186890237) 16 1255 2
(0.5095958993 0.2452020503 0.162683075 0.0825189753) 203 1262 2
(0.1129103152 0.4327899166 0.01075492584 0.4435448424) 136 207 2
(0.3995913536 0.2250354209 0.3002043232 0.07516890226) 380 743 1
(0.1184049285 0.4007664984 0.4407975358 0.04003103731) 593 1164 2
(0.315878706 0.342060647 0.3332947303 0.008765916737) 32 61 1
(0.4832856604 0.05029327346 0.2080638964 0.2583571698) 173 279 2
(0.2149413306 0.3295992712 0.3925293347 0.06293006347) 589 1157 2
(0.1772066754 0.4113966623 0.05079065031 0.360606012) 593 1275 2
(0.9133536896 0.02390909421 0.019414061 0.0433231552) 233 397 2
(0.2949065488 0.01578339445 0.3525467256 0.3367633312) 200 392 2
(0.676744801 0.1079195092 0.1616275995 0.05370809036) 561 1099 1
(0.8595761126 0.0702119437 0.06621142758 0.004000516118) 52 100 2
(0.5525492004 0.1640786169 0.05964678291 0.2237253998) 109 212 1
(0.466440932 0.2590827283 0.007696805714 0.266779534) 172 336 1
(0.07641712264 0.4617914387 0.1031511481 0.3586402906) 323 1266 2
(0.1626309664 0.4186845168 0.08988324723 0.3288012696) 410 805 1
(0.4961701702 0.2519149149 0.09521590448 0.1566990104) 261 509 2
(0.6140675479 0.03860123644 0.1543649896 0.1929662261) 52 58 2
(0.324766508 0.337616746 0.274071162 0.06354558396) 293 572 2
(0.3536825135 0.2059767038 0.1171820394 0.3231587433) 232 396 2
(0.1371571122 0.4314214439 0.4206870435 0.01073440039) 262 511 2
(0.4750614741 0.262469263 0.1426524671 0.1198167959) 293 572 2
(0.6187666875 0.1906166562 0.03345517438 0.1571614819) 230 448 2
(0.3780027606 0.3109986197 0.2293307202 0.08166789945) 383 751 1
(0.2356093301 0.06397073349 0.3821953349 0.3182246014) 15 29 2
(0.5951393861 0.1214404625 0.08098984446 0.2024303069) 381 747 1
(0.3364744902 0.3317627549 0.1298635171 0.2018992378) 32 1256 2
(0.4603110529 0.2698444735 0.03379743883 0.2360470347) 499 921 1
(0.1708013709 0.4145993145 0.1972181378 0.2173811767) 113 218 2
(0.2252493799 0.2039511616 0.38737531 0.1834241484) 442 865 1
(0.256388538 0.0307560844 0.3410496466 0.371805731) 412 808 1
(0.09150295442 0.4542485228 0.4176509624 0.03659756043) 442 809 1
(0.4356063386 0.2096837437 0.07251308699 0.2821968307) 172 278 2
(0.1220236924 0.4389881538 0.2714369475 0.1675512063) 113 220 1
(0.4566070124 0.08906769808 0.1826287957 0.2716964938) 593 1105 2
(0.3574316546 0.3212841727 0.1869608856 0.1343232871) 227 445 1
(0.4582951173 0.04580662603 0.2250458153 0.2708524413) 112 160 2
(0.3297550075 0.2509721803 0.08415031599 0.3351224963) 532 986 2
(0.7493151085 0.1165239911 0.008818454647 0.1253424458) 321 571 2
(0.6445591419 0.03961566421 0.1777204291 0.1381047649) 200 389 1
(0.2147674421 0.1812839504 0.392616279 0.2113323285) 319 626 2
(0.0511417772 0.3127374501 0.4744291114 0.1616916613) 142 278 2
(0.3032795682 0.3483602159 0.319754626 0.02860558991) 442 809 1
(0.3566118617 0.3216940692 0.078211065 0.2434830042) 321 630 1
(0.03085287273 0.4845735636 0.3222213455 0.1623522181) 291 568 2
(0.5545124005 0.1152011878 0.2227437997 0.107542612) 291 568 1
(0.8543516117 0.07282419416 0.03288919943 0.03993499474) 113 220 1
(0.2736002419 0.3333229931 0.3631998791 0.02987688592) 469 921 2
(0.3024214299 0.348789285 0.292592784 0.056196501) 323 574 1
(0.009809494873 0.4950952526 0.1966377184 0.2984575342) 408 801 1
(0.313551909 0.01115320396 0.3320708416 0.3432240455) 381 747 1
(0.667976692 0.007253720243 0.166011654 0.1587579338) 256 499 1
(0.5961620807 0.2019189597 0.1998968614 0.002022098257) 650 1249 2
(0.2519863172 0.3740068414 0.2225591067 0.1514477347) 50 97 1
(0.2613080288 0.1841385952 0.1852073904 0.3693459856) 138 211 2
(0.8512128822 0.02687383373 0.04751972519 0.07439355892) 353 633 2
(0.4712156373 0.03774640522 0.2266457761 0.2643921814) 198 387 1
(0.5834029877 0.2082985062 0.05378809995 0.1545104062) 31 60 1
(0.320696044 0.1218888037 0.2177631743 0.339651978) 411 806 1
(0.4294778727 0.1872560379 0.09800502573 0.2852610636) 293 1265 1
(0.04930465756 0.4709107399 0.004436931303 0.4753476712) 199 389 1
(0.2268569338 0.3865715331 0.113590334 0.2729811991) 51 98 2
(0.2322897725 0.3838551138 0.1564914013 0.2273637125) 562 1045 1
(0.1448246355 0.4275876822 0.2654731752 0.1621145071) 141 217 1
(0.2054872048 0.3972563976 0.1665006414 0.2307557562) 591 1158 2
(0.6151251005 0.1242392099 0.06819823988 0.1924374498) 83 104 2
(0.01411894959 0.2894867097 0.4929405252 0.2034538155) 79 154 2
(0.5209561954 0.2395219023 0.1441583805 0.09536352178) 501 981 2
(0.5802051962 0.07423283528 0.2098974019 0.1356645666) 442 865 1
(0.133957427 0.4330212865 0.317848165 0.1151731215) 529 1036 2
(0.3168024279 0.2265278805 0.341598786 0.1150709055) 202 393 1
(0.2624182595 0.3687908703 0.1222453185 0.2465455517) 622 1221 2
(0.074506995 0.2072108981 0.2555356044 0.4627465025) 31 59 1
(0.137806733 0.215825242 0.2152713915 0.4310966335) 111 216 1
(0.5210058762 0.04036415314 0.2394970619 0.1991329088) 168 329 2
(0.3320058178 0.1860447703 0.3339970911 0.1479523208) 530 1038 1
(0.07954780874 0.2203538145 0.2398722811 0.4602260956) 263 456 2
(0.002713264631 0.4986433677 0.2261778122 0.2724655555) 651 1305 1
(0.2767118635 0.3616440683 0.175031163 0.1866129052) 2 1 2
(0.3098366019 0.345081699 0.2028011927 0.1422805064) 259 505 2
(0.459157092 0.04062977492 0.270421454 0.2297916791) 378 742 2
(0.4098360033 0.1234938128 0.1715881855 0.2950819983) 141 217 2
(0.009338223847 0.3205922895 0.1747385986 0.4953308881) 171 334 1
(0.2815801568 0.3592099216 0.08827652457 0.270933397) 501 925 1
(0.0545376496 0.4727311752 0.1824884071 0.2902427681) 408 798 2
(0.1057198549 0.4471400725 0.06629052044 0.3808495521) 32 1256 2
(0.2784562797 0.3607718601 0.0001592017175 0.3606126584) 143 220 1
(0.1553331192 0.37399673 0.4223334404 0.04833671044) 470 923 2
(0.2819683767 0.3590158116 0.1845834306 0.174432381) 651 1251 2
(0.08239017854 0.4588049107 0.4584991416 0.0003057690836) 77 149 2
(0.1255852104 0.1952131485 0.2419942463 0.4372073948) 590 1100 2
(0.474713882 0.1176561997 0.1449868593 0.262643059) 232 396 2
(0.4464678 0.2767661 0.2075563066 0.06920979344) 292 570 2
(0.4131559449 0.07494240172 0.2184796258 0.2934220275) 319 625 1
(0.2384907159 0.09497578707 0.285778855 0.380754642) 593 1105 2
(0.7345478773 0.1257380986 0.1327260613 0.006987962789) 437 858 2
(0.1012908406 0.4493545797 0.2595268925 0.1898276872) 560 1097 2
(0.09663473261 0.2841111726 0.4516826337 0.1675714611) 171 332 1
(0.372192403 0.3139037985 0.1054926053 0.2084111933) 471 922 2
(0.003315352236 0.4589823583 0.4983423239 0.03935996561) 201 391 1
(0.2744802225 0.3627598888 0.0551043932 0.3076554956) 233 456 1
(0.3447865464 0.3276067268 0.2759486487 0.05165807811) 232 454 2
(0.4650951791 0.2674524104 0.04898960473 0.2184628057) 140 215 1
(0.2593636181 0.1909303992 0.370318191 0.1793877918) 622 1222 2
(0.1418692717 0.4290653642 0.3047316964 0.1243336678) 499 980 1
(0.4146333162 0.06261663096 0.2926833419 0.2300667109) 233 454 1
(0.1008604638 0.4495697681 0.1657651702 0.2838045978) 261 509 2
(0.2674639501 0.1818511489 0.1844168761 0.3662680249) 231 452 1
(0.02259070392 0.4530139465 0.03569070152 0.488704648) 413 751 2
(0.005213499526 0.1665926538 0.3308005965 0.4973932502) 441 865 1
(0.8727427196 0.05461484427 0.009013795941 0.06362864021) 293 515 2
(0.7824340575 0.1087829713 0.07025535846 0.0385276128) 533 1046 1
(0.1856575264 0.4071712368 0.2914221811 0.1157490557) 530 1040 2
(0.8832589959 0.0158759882 0.04249451388 0.05837050207) 352 690 1
(0.5529145285 0.2235427357 0.002630326132 0.2209124096) 381 748 1
(0.2434552201 0.2077134781 0.3782723899 0.1705589118) 323 631 1
(0.9076349103 0.04618254484 0.02095844268 0.02522410216) 136 266 1
(0.6456822657 0.008135399415 0.1771588671 0.1690234677) 291 568 1
(0.07877231445 0.08611650837 0.3744973344 0.4606138428) 500 923 2
(0.5953241901 0.202337905 0.1852878836 0.01705002137) 172 336 2
(0.7706205943 0.01840305117 0.1146897029 0.0962866517) 352 688 1
(0.03667876062 0.09252146546 0.3891391542 0.4816606197) 501 925 2
(0.7616824938 0.1191587531 0.04300240037 0.07615635274) 232 454 2
(0.7497322815 0.05170359133 0.0734302679 0.1251338592) 562 1045 2
(0.05510421706 0.4724478915 0.4450486545 0.02739923695) 143 277 2
(0.8006388604 0.09968056978 0.07107244108 0.0286081287) 163 260 1
(0.2113944003 0.3943027998 0.2868692193 0.1074335805) 500 979 2
(0.705532265 0.1472338675 0.04044624197 0.1067876255) 382 691 1
(0.3565907494 0.3008858501 0.02081877523 0.3217046253) 381 689 2
(0.09842399535 0.4507880023 0.2518913434 0.1988966589) 499 921 1
(0.1718735892 0.4140632054 0.343336942 0.07072626342) 292 572 2
(0.7229601792 0.1308648942 0.007655016227 0.1385199104) 83 104 2
(0.1935301373 0.3023468236 0.4032349313 0.1008881077) 323 633 2
(0.1126147079 0.4436926461 0.3870809036 0.05661174245) 259 507 2
(0.2273998719 0.386300064 0.1664631735 0.2198368905) 351 688 2
(0.2646534766 0.007284066568 0.3603891951 0.3676732617) 291 512 2
(0.6323004687 0.03567554066 0.148174225 0.1838497656) 80 99 2
(0.007500924868 0.07597827466 0.4202712629 0.4962495376) 382 691 2
(0.59823623 0.200881885 0.09424119412 0.1066406909) 353 633 1
(0.5171782667 0.2414108667 0.1848371353 0.05657373137) 558 1096 1
(0.622614048 0.1599305985 0.02876237749 0.188692976) 172 336 1
(0.283364425 0.3583177875 0.03029465101 0.3280231365) 322 631 2
(0.2292220626 0.1530816681 0.3853889687 0.2323073006) 593 1164 2
(0.160206803 0.09268659201 0.3272100065 0.4198965985) 529 980 2
(0.2630667255 0.3684666372 0.3156199898 0.05284664742) 232 452 2
(0.4610581895 0.04969826858 0.2197726367 0.2694709052) 379 685 2
(0.3267319404 0.1241577764 0.2124762534 0.3366340298) 593 1275 1
(0.7332447177 0.08715462064 0.04622302049 0.1333776411) 438 801 2
(0.1488337961 0.4255831019 0.1209862782 0.3045968237) 593 1164 1
(0.4203253289 0.2175233839 0.2898373356 0.07231395168) 323 631 1
(0.2517906605 0.3741046698 0.1719478202 0.2021568496) 290 569 1
(0.2645465486 0.1493567357 0.3677267257 0.21836999) 291 568 1
(0.2245863027 0.1249810672 0.3877068487 0.2627257814) 291 568 1
(0.1998476912 0.4000761544 0.01088628011 0.3891898743) 53 102 2
(0.5079871363 0.06265576774 0.2460064318 0.1833506641) 28 51 1
(0.9343591483 0.03282042586 0.02695358661 0.005866839255) 470 864 1
(0.02911014772 0.1020039081 0.383441018 0.4854449261) 112 218 1
(0.3794303436 0.3102848282 0.1724667116 0.1378181166) 347 681 1
(0.5892860861 0.1215490368 0.2053569569 0.08380792012) 473 928 2
(0.005061461317 0.4974692693 0.2298227696 0.2676464998) 533 1046 1
(0.2098337248 0.3950831376 0.221012527 0.1740706106) 495 971 2
(0.3585830059 0.3207084971 0.1436550869 0.1770534101) 323 631 2
(0.04764159807 0.1156960284 0.476179201 0.3604831726) 110 215 2
(0.4372293262 0.2813853369 0.1616900446 0.1196952923) 49 94 2
(0.1308015374 0.4345992313 0.1485371586 0.2860620727) 111 216 2
(0.2927440476 0.3536279762 0.3449451964 0.008682779732) 499 921 1
(0.3879841212 0.3060079394 0.05254954538 0.253458394) 200 392 1
(0.6022222765 0.1988888617 0.03955056148 0.1593383003) 617 1211 2
(0.2175896094 0.1191343214 0.2720708739 0.3912051953) 528 1036 1
(0.0676187893 0.4661906053 0.4640310569 0.002159548451) 224 438 2
(0.2931799695 0.1902317641 0.1631782512 0.3534100153) 82 103 2
(0.09688444643 0.4515577768 0.3514801751 0.1000776017) 621 1220 1
(0.3598388322 0.1108628053 0.3200805839 0.2092177786) 81 158 2
(0.1815780075 0.1151648098 0.2940461865 0.4092109963) 593 1105 2
(0.002558373586 0.4987208132 0.4608357746 0.03788503856) 78 152 1
(0.8145267542 0.09273662289 0.001470156417 0.09126646648) 140 273 2
(0.7111529474 0.1444235263 0.1008525951 0.04357093118) 32 61 1
(0.414102114 0.08582764999 0.292948943 0.207121293) 443 867 1
(0.6864313738 0.1567843131 0.1155609885 0.04122332459) 198 329 1
(0.1802920064 0.4098539968 0.1251548533 0.2846991435) 170 332 2
(0.4997493537 0.2501253231 0.148030573 0.1020947501) 139 271 2
(0.1435979699 0.1806428906 0.428201015 0.2475581245) 410 802 1
(0.2714316944 0.3642841528 0.1048366119 0.2594475409) 293 574 1
(0.113826668 0.09550102488 0.3475856411 0.443086666) 203 338 2
(0.09629918843 0.4518504058 0.3964127202 0.05543768558) 230 450 2
(0.1096496487 0.3601297556 0.4451751756 0.08504542004) 382 747 1
(0.5756289739 0.1208867333 0.212185513 0.09129877974) 378 742 2
(0.5289759553 0.2355120223 0.2125240845 0.02298793781) 172 336 2
(0.1147655358 0.4213881619 0.02122907019 0.4426172321) 49 94 1
(0.3213494671 0.3393252664 0.3339698282 0.005355438275) 256 499 2
(0.4421245606 0.2789377197 0.1847061605 0.09423155922) 291 571 1
(0.1127479475 0.4436260262 0.1257893361 0.3178366901) 472 926 2
(0.0869327163 0.4565336419 0.2928845913 0.1636490505) 263 515 1
(0.4642798314 0.2678600843 0.1428723714 0.1249877128) 382 691 1
(0.3174011559 0.3196081225 0.3412994221 0.02169129956) 561 1102 2
(0.6314662476 0.1251050093 0.05916186692 0.1842668762) 28 53 1
(0.171206689 0.007823399665 0.4065732558 0.4143966555) 259 507 1
(0.2954246221 0.2733082686 0.07897942037 0.3522876889) 353 633 2
(0.6794801644 0.07693867827 0.08332123955 0.1602599178) 353 1267 1
(0.2062183376 0.3968908312 0.2181203854 0.1787704458) 286 558 2
(0.105390993 0.4473045035 0.1448146842 0.3024898194) 201 335 1
(0.7984682853 0.09842872189 0.002337135449 0.1007658573) 171 334 1
(0.01726331072 0.4913683446 0.3261764177 0.1651919269) 378 683 1
(0.01102571822 0.478402316 0.0160848249 0.4944871409) 290 568 1
(0.3641989716 0.3179005142 0.2511556437 0.0667448705) 111 214 2
(0.3156445479 0.342177726 0.15002819 0.1921495361) 109 154 1
(0.07660254061 0.1572443986 0.3044543311 0.4616987297) 473 1271 1
(0.6130915323 0.1319936158 0.06146061805 0.1934542338) 231 452 1
(0.1672717712 0.4163641144 0.2975232688 0.1188408456) 256 501 2
(0.1901224346 0.4049387827 0.144528755 0.2604100277) 13 25 1
(0.3454413699 0.2445926613 0.08268665373 0.327279315) 288 506 2
(0.0849350988 0.1628119415 0.2947205091 0.4575324506) 412 750 2
(0.3406064759 0.2308001518 0.329696762 0.09889661023) 499 977 1
(0.02163495055 0.4120349255 0.4891825247 0.07714759926) 291 571 2
(0.5904687578 0.2047656211 0.1803467087 0.02441891244) 230 451 1
(0.5703370644 0.158998052 0.05583341577 0.2148314678) 352 690 1
(0.03780008407 0.481099958 0.1315640508 0.3495359071) 377 740 1
(0.6993117024 0.1503441488 0.01308630406 0.1372578447) 233 456 1
(0.3001655129 0.3499172435 0.1403855687 0.2095316748) 472 926 2
(0.1118495441 0.03722287634 0.4068523516 0.4440752279) 233 397 2
(0.643334246 0.178332877 0.08353002151 0.09480285546) 143 279 1
(0.04601313468 0.4769934327 0.007283701469 0.4697097312) 170 333 1
(0.6336076703 0.1831961648 0.04707819029 0.1361179745) 499 977 2
(0.1957170591 0.09311922347 0.4021414704 0.309022247) 258 506 2
(0.1238817139 0.438059143 0.1397309917 0.2983281514) 560 1041 1
(0.09908214052 0.3699671002 0.0804918295 0.4504589297) 383 1268 1
(0.06411477558 0.4679426122 0.3294199648 0.1385226474) 619 1216 1
(0.1194161281 0.2870119985 0.440291936 0.1532799374) 81 155 1
(0.06863153052 0.4656842347 0.3428843039 0.1227999308) 351 630 1
(0.04015593237 0.4799220338 0.3174014469 0.1625205869) 258 505 2
(0.5564932032 0.2217533984 0.02725791052 0.1944954879) 347 680 2
(0.01579887303 0.05900144117 0.4330991223 0.4921005635) 589 1098 2
(0.6379562733 0.1258858502 0.0551360132 0.1810218634) 113 1259 1
(0.2530072411 0.3734963794 0.1872065589 0.1862898206) 351 688 2
(0.1902140644 0.4048929678 0.3389416455 0.06595132226) 413 751 1
(0.1486052474 0.2672058384 0.4256973763 0.1584915379) 650 1304 2
(0.508626206 0.245686897 0.2151033727 0.03058352426) 137 265 2
(0.07411516949 0.1277232589 0.4629424153 0.3352191564) 261 512 2
(0.2588465829 0.3705767086 0.03761693911 0.3329597695) 80 155 2
(0.02554934976 0.3796009439 0.4872253251 0.1076243812) 353 690 1
(0.8680537225 0.06597313877 0.03227472842 0.03369841034) 593 1164 1
(0.5107250908 0.2446374546 0.02502616846 0.2196112862) 619 1157 1
(0.763279028 0.118360486 0.03146529771 0.0868951883) 472 868 1
(0.5711276403 0.2144361798 0.03613817631 0.1782980035) 348 682 2
(0.21717032 0.39141484 0.2784535806 0.1129612595) 412 806 2
(0.1866073307 0.1017351701 0.3049611646 0.4066963347) 168 270 2
(0.2738073922 0.3630963039 0.09959917706 0.2634971268) 531 1040 2
(0.66762425 0.04798740513 0.166187875 0.1182004699) 259 508 2
(0.08433614511 0.1246177929 0.3332141346 0.4578319274) 352 690 1
(0.7523437022 0.1238281489 0.01948284504 0.1043453039) 260 509 2
(0.6107550189 0.05158189107 0.1430405995 0.1946224905) 322 631 1
(0.9424805577 0.0003658203077 0.02875972113 0.02839390082) 112 216 1
(0.559532515 0.05949721663 0.2202337425 0.1607365259) 382 747 1
(0.7430534128 0.08901124949 0.1284732936 0.03946204411) 321 627 1
(0.2375765347 0.1966244991 0.1845872335 0.3812117327) 350 628 2
(0.2133341333 0.1437169652 0.2496159681 0.3933329333) 261 453 2
(0.3713205763 0.3143397118 0.08541934582 0.228920366) 320 569 1
(0.3271442589 0.07232574088 0.2641021297 0.3364278706) 54 1257 1
(0.07435469094 0.2286954941 0.2341271604 0.4628226545) 171 334 1
(0.7481000104 0.03213117965 0.09381881515 0.1259499948) 171 334 1
(0.2583312837 0.1641495905 0.2066847676 0.3708343581) 438 801 2
(0.009556388412 0.4952218058 0.1161498026 0.3790720031) 322 573 1
(0.9145969086 0.0242709301 0.04270154569 0.0184306156) 109 213 2
(0.1313037171 0.4343481414 0.03832433819 0.3960238032) 293 574 1
(0.5058725891 0.2470637054 0.1638913606 0.08317234478) 501 983 2
(0.1446504005 0.4276747998 0.2095005946 0.2181742052) 593 1105 1
(0.5556640907 0.122605387 0.2221679547 0.0995625677) 592 1163 2
(0.1666387161 0.2149968567 0.4166806419 0.2016837852) 233 456 2
(0.2604971082 0.3426009447 0.02715050122 0.3697514459) 289 566 1
(0.5507180717 0.2246409642 0.0718618619 0.1527791023) 527 1035 1
(0.2040560803 0.3979719599 0.2169431198 0.1810288401) 349 682 2
(0.5762229269 0.03822742095 0.2118885366 0.1736611156) 193 375 1
(0.1776769578 0.4111615211 0.100862773 0.3102987481) 558 1093 2
(0.3379406573 0.3310296713 0.04155360545 0.2894760659) 411 748 1
(0.9254281929 0.03728590356 0.01082227599 0.02646362756) 172 278 1
(0.249204424 0.375397788 0.1268166326 0.2485811554) 230 450 2
(0.5295721814 0.1847209118 0.2352139093 0.05049299748) 172 337 2
(0.2282946323 0.3858526839 0.2379345622 0.1479181217) 198 385 2
(0.358915374 0.2322633935 0.08827891953 0.320542313) 500 923 2
(0.5065441938 0.2231786599 0.02354924323 0.2467279031) 472 868 2
(0.3786329905 0.01253202253 0.3106835048 0.2981514822) 439 862 2
(0.6199777317 0.1900111341 0.01619729624 0.1738138379) 138 270 1
(0.463684762 0.1487402811 0.1194173379 0.268157619) 142 219 2
(0.05210759661 0.4739462017 0.3939156642 0.08003053747) 652 1222 1
(0.02822517735 0.4858874113 0.3257745018 0.1601129095) 533 1273 2
(0.3091302953 0.3454348523 0.1787549001 0.1666799522) 199 331 1
(0.2040347677 0.3979826161 0.2614543104 0.1365283057) 322 631 2