/*--------------------------------*- C++ -*----------------------------------*\
| =========                 |                                                 |
| \\      /  F ield         | OpenFOAM: The Open Source CFD Toolbox           |
|  \\    /   O peration     | Version:  2406                                  |
|   \\  /    A nd           | Website:  www.openfoam.com                      |
|    \\/     M anipulation  |                                                 |
\*---------------------------------------------------------------------------*/
FoamFile
{
    version     2.0;
    format      ascii;
    arch        "LSB;label=32;scalar=64";
    class       scalarField;
    location    "0.006/lagrangian/dsmc";
    object      Ei;
}
// * * * * * * * * * * * * * * * * * * * * * * * * * * * * * * * * * * * * * //


6153
(
3.876465505e-21
1.363598128e-21
5.371040127e-21
1.815619858e-20
2.774025657e-22
4.394096346e-21
5.72500364e-21
3.615406151e-22
6.070765583e-22
6.619696634e-22
8.870613362e-22
1.461821331e-20
5.826811346e-21
1.312882201e-20
1.539500527e-22
2.565914425e-21
5.990960468e-21
3.729074379e-22
5.126030856e-21
1.556385245e-21
3.69142993e-21
3.58540403e-22
4.311544608e-21
1.140711964e-20
7.959705815e-22
2.203058561e-21
6.250611456e-22
7.055734898e-22
9.239374365e-22
7.801514351e-21
7.829931255e-22
2.280196976e-21
9.21021013e-22
7.428148811e-22
8.292537114e-22
6.544099483e-21
5.606821993e-21
5.549095942e-21
1.184150793e-21
2.550982348e-21
2.472377361e-21
6.295667443e-21
1.689962171e-20
5.393283443e-21
1.698136209e-21
5.413363596e-22
5.202447704e-21
3.2027014e-21
6.184711647e-22
1.685724755e-21
8.829938919e-21
3.101262536e-20
2.35830459e-20
2.464350825e-20
1.384691213e-20
1.274228343e-20
3.594781774e-21
1.097418816e-20
2.006268191e-21
1.815059417e-21
2.949594382e-21
1.104954816e-20
2.5857487e-21
1.360374648e-21
1.281324e-21
2.042690161e-20
6.322511213e-21
2.664566163e-21
1.810972108e-21
2.049918719e-21
3.833784503e-22
3.675209989e-21
3.758530422e-21
1.241831705e-20
1.283007182e-20
7.869988306e-21
4.411024296e-21
3.071364529e-21
1.951957956e-21
4.41213201e-22
1.45782539e-20
2.627453839e-21
2.278048548e-21
1.822131524e-21
2.059580334e-21
2.625599568e-21
3.244498295e-22
1.263299241e-21
1.798695904e-20
3.809346425e-21
3.308871166e-22
3.123445927e-21
2.265298497e-21
5.936087295e-21
5.258541009e-21
2.511544667e-20
2.847791769e-21
2.546582048e-21
5.36330978e-21
1.54901827e-20
5.289302108e-21
2.033998462e-20
1.867149589e-21
1.910985935e-21
1.338156949e-20
4.345542448e-21
2.000266068e-21
2.38240829e-20
3.684032951e-22
2.022758388e-21
1.032813685e-21
2.509624731e-21
1.142405179e-20
1.938324679e-20
3.107299035e-21
4.498685705e-21
1.134471921e-21
2.880724685e-22
5.701623904e-21
1.935201529e-21
1.472689548e-20
5.698074779e-21
1.705655889e-20
1.380679054e-20
3.794371257e-21
2.558843744e-21
8.211645784e-22
5.793055198e-22
2.703628669e-20
4.226368596e-21
4.888656934e-21
5.0978297e-21
1.026394323e-21
7.610913275e-21
5.016851991e-22
2.036603265e-20
7.12738803e-21
1.111967408e-21
3.158030102e-21
4.944584084e-22
2.396877913e-21
5.925769334e-21
2.277996482e-20
2.580758332e-21
4.77117469e-21
6.480173005e-21
9.910391754e-21
5.927451023e-21
1.483950803e-21
9.794724541e-22
7.606214454e-22
3.218620345e-22
1.570578246e-21
1.303112412e-20
4.399821688e-21
4.72619871e-21
3.061899964e-21
7.960043956e-21
5.141848139e-21
1.634807759e-21
6.618162672e-21
1.01524313e-21
5.827660834e-21
2.288017452e-21
2.934955002e-21
1.930280206e-20
4.011824168e-21
2.598960192e-21
9.380862929e-21
4.705640303e-21
7.161164703e-21
8.86739312e-22
5.840726226e-21
4.55244265e-21
1.570607976e-21
3.093823318e-21
1.210085676e-21
3.459714139e-21
7.20914148e-21
1.262889266e-23
2.800856122e-20
3.198582894e-20
3.91037261e-21
9.44172155e-22
4.72252411e-21
6.009131931e-21
4.055088868e-23
1.905355769e-21
2.346224097e-21
1.682998096e-21
1.964111231e-20
4.962954411e-23
1.550973289e-22
1.139064501e-23
6.297705818e-22
5.506199208e-22
2.414758218e-21
3.946307886e-21
4.693873434e-21
2.093548347e-20
3.615507792e-21
5.142471454e-21
3.523591927e-21
2.567768796e-22
9.69762704e-21
4.524346505e-21
2.393012289e-21
1.441659013e-21
5.312870145e-21
1.550418664e-21
8.475322396e-21
2.817877148e-21
1.433594952e-22
1.75304937e-22
5.136039702e-21
3.591050035e-21
1.054050525e-21
2.41932232e-21
2.374837246e-21
7.585146637e-21
5.115095817e-22
1.866131491e-20
7.460452964e-22
9.487431225e-22
1.801745581e-21
2.456525912e-21
4.616610838e-22
3.179067515e-21
8.885941842e-23
1.234726145e-20
1.068041187e-20
3.674813148e-21
9.619340151e-21
1.193759889e-20
4.544525899e-21
5.514810737e-22
8.986659356e-21
9.730643057e-21
1.353937127e-22
7.025280168e-21
1.600582414e-21
5.129877714e-21
2.932377904e-21
6.43977769e-21
1.470862733e-22
6.606414289e-21
8.603260091e-22
3.04117656e-21
1.935826476e-21
8.08153203e-21
3.155774979e-22
5.069232703e-21
6.619877973e-21
4.838079967e-21
1.423768875e-20
1.720407046e-21
9.360028043e-21
1.813898912e-21
2.850452122e-21
1.216729296e-21
8.879692188e-23
3.711953633e-22
1.877119787e-21
4.058521624e-21
2.138648946e-21
6.193570814e-21
3.238325483e-21
6.38346402e-24
7.520358585e-21
3.189672955e-21
1.588367481e-20
3.880935263e-21
1.403987968e-20
1.960861706e-21
2.72195443e-20
1.28629015e-21
2.324513745e-21
6.629701514e-21
1.281560693e-20
5.15864235e-21
7.529136382e-21
4.972704341e-21
9.420311423e-21
6.74263741e-21
5.318761434e-21
2.601544214e-21
1.742885887e-21
8.372814733e-21
8.314129521e-21
9.85548414e-21
6.501751032e-21
1.599841098e-20
1.426576775e-22
9.195357487e-22
7.431716573e-21
3.170409167e-20
5.972690048e-21
3.302519415e-21
1.216780796e-20
1.292409184e-21
1.272834322e-20
3.28702937e-21
2.306216905e-21
5.963628622e-21
9.03203028e-22
3.66015803e-22
4.28486864e-21
9.773017657e-21
6.017539779e-21
5.437265295e-21
5.782606624e-21
4.111208506e-21
6.820102663e-21
1.085811762e-20
1.11630562e-21
1.16218988e-20
3.685771915e-21
4.028978118e-21
1.267752407e-20
2.584208581e-21
2.807369231e-21
1.001767441e-21
1.066966205e-20
8.490458259e-21
1.455428639e-21
3.877632377e-21
5.276705763e-21
1.532841315e-21
8.862713355e-21
1.554048467e-21
9.157328395e-21
7.127982542e-21
5.112098988e-21
4.535787151e-21
2.351222959e-21
3.75432726e-21
2.773003014e-21
7.889849284e-21
2.753120307e-21
5.635034113e-21
2.880140423e-21
2.017879333e-21
6.492818534e-21
9.997389991e-21
1.264516898e-20
1.015085627e-21
1.219340054e-22
4.543047745e-22
7.159718026e-21
2.774028974e-22
5.443975984e-22
4.091407462e-21
1.753640122e-22
5.180125198e-21
6.822878198e-21
6.734851568e-23
2.068315279e-20
5.785957372e-22
5.287591915e-21
7.40261395e-21
1.952594842e-20
1.20703645e-20
7.165770927e-22
1.954408492e-21
2.819219511e-21
3.470890702e-21
3.048944548e-21
2.296491701e-21
5.574388683e-22
9.983536351e-21
6.578571035e-21
1.046248695e-20
1.025282412e-20
1.794150851e-21
9.011223097e-21
2.293632101e-21
2.437719326e-21
6.993735885e-22
1.448906544e-20
1.662153476e-21
9.64771087e-22
4.010386703e-20
2.672304584e-21
4.039103326e-21
1.794441114e-21
7.555599807e-21
4.77599396e-21
5.110388255e-21
1.745419573e-21
5.640804343e-21
5.212503624e-22
4.055955949e-21
7.152000558e-21
8.706581401e-21
1.316763981e-21
1.832159813e-21
3.635037475e-21
8.401753171e-21
1.395132805e-20
3.716324337e-21
1.574273584e-21
1.14674255e-20
2.606871367e-21
4.919122577e-21
2.274667438e-22
6.929734215e-21
4.618514271e-21
6.511992985e-21
2.450538805e-21
2.29264438e-22
5.785785997e-21
2.701966268e-21
8.389209995e-22
2.999522226e-21
1.817158184e-20
2.154057998e-21
1.03506426e-20
8.350863999e-22
2.150784718e-21
1.724816472e-20
5.398959147e-22
1.05317532e-20
1.0587628e-20
1.797578315e-20
4.980686096e-22
5.005845204e-21
1.127392681e-21
5.981974837e-22
3.850853059e-21
5.50824178e-21
5.962013804e-21
1.507875451e-20
3.88523059e-21
7.282166479e-21
2.245407214e-21
3.636886325e-22
7.441188861e-21
3.187218954e-21
3.978278108e-21
2.930343215e-22
9.198763774e-21
4.659954343e-22
1.39463132e-20
4.139777982e-21
3.153504876e-21
5.190362119e-21
5.848880117e-21
2.056279627e-21
4.975755856e-21
5.416404515e-21
1.412609961e-21
5.655117779e-22
3.598192807e-21
1.343857843e-21
1.489104347e-21
5.292991545e-21
2.555618555e-21
1.64585657e-20
1.347729275e-21
5.713378694e-21
1.147373529e-20
4.248192419e-21
6.528216174e-22
1.549194957e-21
3.584694123e-21
5.923413912e-23
2.890734695e-21
3.383514116e-21
8.50745739e-21
1.032130086e-20
2.297576248e-21
1.249671823e-20
4.792024285e-21
1.097246976e-21
1.842261127e-21
9.980110006e-21
5.034444976e-21
8.38310157e-22
8.551198108e-21
7.897167135e-21
4.287408568e-21
5.422776275e-22
1.256278821e-20
3.030349088e-21
1.248761528e-21
6.113723777e-22
1.715267971e-21
7.85492675e-21
3.743869409e-22
4.52007051e-21
4.399762428e-21
6.983014137e-21
1.208233614e-21
4.9174371e-21
1.262134159e-21
5.370809691e-21
2.958863404e-21
4.442959828e-21
1.09030852e-21
1.573009782e-21
5.237686018e-21
4.802273438e-21
3.210723312e-21
8.580072372e-21
1.695751433e-21
4.066294167e-21
4.430449394e-21
4.90030049e-21
8.048175498e-22
1.524449463e-21
4.358838973e-21
6.451928036e-22
1.927779701e-21
6.641933181e-21
1.706231723e-22
7.211582072e-21
1.182327668e-21
7.097510032e-21
2.795465037e-22
7.63167181e-21
1.137901593e-20
6.027091801e-22
1.314965214e-20
1.514915661e-20
8.934467221e-21
3.072395922e-21
1.287698726e-21
5.438236781e-21
1.290580079e-22
6.019511838e-21
7.370520896e-21
1.518363278e-21
7.668809498e-21
1.580996243e-21
7.504125955e-21
1.856547465e-22
7.58244295e-21
3.861532265e-21
3.629330408e-21
4.834433303e-21
3.670627814e-21
7.705764334e-21
1.924856633e-21
1.433706424e-21
5.277102871e-21
1.281056205e-20
2.728117458e-21
1.448205106e-21
1.993230656e-22
2.215868343e-21
2.269982421e-21
2.126872606e-21
8.561768432e-22
2.018940464e-21
7.501093241e-21
6.109215787e-21
3.464051313e-22
5.121023375e-21
2.608101472e-22
6.34648734e-21
1.770014383e-20
3.975808598e-20
1.182981624e-20
3.358372056e-21
8.37703485e-23
3.637889566e-22
7.733413365e-21
4.233716901e-21
4.287708181e-22
1.168228698e-20
2.625862265e-21
4.172499576e-21
8.757747748e-22
2.207673856e-21
1.052229935e-20
1.452363915e-21
3.159493684e-21
5.013992767e-22
2.448243057e-21
1.578463982e-21
2.774765654e-21
2.10332254e-21
1.323605666e-20
7.117327186e-21
2.86596965e-21
2.782213978e-21
1.502820211e-20
7.134122168e-21
1.499944843e-21
4.596841145e-22
6.173715155e-22
4.781436083e-21
1.014439051e-21
1.598122624e-20
2.468189556e-21
1.51836568e-21
4.774204263e-21
2.081944266e-21
1.154357073e-21
6.607505754e-22
7.349563445e-21
1.320105817e-21
4.480245269e-22
7.307050906e-21
1.752359944e-21
2.779618447e-21
3.19849071e-21
4.112973824e-22
1.017916194e-20
5.5513549e-21
1.881323628e-20
5.416058824e-21
3.821404873e-21
7.454863735e-21
2.647121942e-21
6.849643905e-21
1.696992806e-22
5.641473645e-21
5.777086951e-21
1.564912383e-21
6.389436064e-21
3.566147954e-21
3.495101543e-21
2.447497934e-20
1.588498716e-20
1.695849304e-21
2.136401744e-21
1.076755798e-21
2.636970965e-21
1.022128744e-21
3.078513562e-21
3.750598849e-21
8.209500768e-21
3.425507118e-22
3.02000874e-22
2.496044275e-23
1.333954621e-21
5.744280986e-22
7.080381123e-21
2.028837379e-21
3.483003853e-21
4.777350962e-21
5.668114238e-21
9.803019888e-21
8.156360918e-22
1.145629148e-20
9.854504217e-21
7.283905187e-22
1.966115121e-21
2.422420155e-22
3.593423744e-20
1.265906263e-22
1.510883288e-20
3.509786085e-21
1.775464345e-21
1.07729433e-20
3.87629559e-21
4.023241013e-21
2.988544537e-21
6.367167841e-21
2.389315305e-20
4.811350953e-23
5.854687022e-21
1.765991324e-21
2.048212598e-21
1.244416197e-21
1.418523829e-21
7.993281924e-21
3.0007143e-23
1.413904833e-21
2.584655321e-21
2.778789181e-21
1.084317886e-20
3.882361216e-21
7.324880604e-21
3.432431752e-21
7.806698377e-21
2.482124552e-21
1.567934926e-21
1.406617265e-21
3.088757398e-21
1.924369929e-21
5.605889651e-21
8.454318313e-22
5.546179006e-23
8.36862192e-21
3.482744533e-21
8.220057679e-21
4.713403939e-22
2.407580658e-21
1.867359144e-20
1.265553171e-20
3.272906315e-21
9.214283137e-22
2.938805964e-21
2.288702085e-21
8.816692633e-21
7.609743028e-21
5.032441393e-21
1.612687409e-22
4.626951457e-21
4.011457965e-21
2.357593397e-21
1.283666847e-21
3.702413269e-21
1.514134637e-21
2.139205122e-21
6.830226371e-21
1.475007279e-20
1.70622299e-20
5.116470652e-22
7.584024247e-21
1.136253063e-20
4.613392906e-22
6.165403392e-22
6.466704891e-21
3.873092778e-22
1.738287742e-21
3.846248211e-21
5.808743031e-21
9.172071866e-21
1.176367084e-21
2.269562675e-21
1.256799258e-21
1.757785248e-21
1.040488673e-20
7.928662308e-21
7.600232621e-21
4.270625461e-20
1.316281085e-21
6.885130313e-21
7.255941942e-21
8.606692721e-21
9.091715072e-21
5.190678664e-21
2.612117021e-21
2.292005288e-21
1.904886034e-21
2.321130366e-21
8.253773878e-21
3.022853202e-21
4.695364861e-22
1.378623169e-20
1.765729779e-21
3.636874233e-21
2.680987723e-21
6.900333825e-22
2.291584481e-22
7.238197898e-21
4.973443262e-21
2.348669321e-21
1.207646145e-21
8.603968407e-22
3.631890314e-21
7.103735323e-21
6.970758605e-21
1.122707643e-21
2.012529002e-21
1.754162967e-21
1.6246131e-20
1.434239578e-20
8.877286045e-22
2.280007685e-21
4.899910873e-21
1.987367543e-20
5.318687007e-22
3.007265914e-21
2.240622222e-21
9.758548614e-22
4.369949349e-23
4.958361086e-21
6.383360536e-21
1.688814256e-21
2.93683961e-22
2.56941861e-21
4.126468896e-21
1.236210781e-21
7.521303555e-22
8.137849293e-21
8.488089502e-21
8.290162188e-21
3.596050846e-21
7.001389927e-21
9.001720458e-22
7.87722782e-22
5.54191929e-21
5.497052082e-21
5.624985853e-21
1.831128243e-21
3.039211287e-21
8.044114809e-22
2.752555605e-21
4.523334997e-22
2.64049397e-21
1.972611464e-22
4.747361395e-21
1.553784679e-21
4.36865653e-20
1.541199548e-21
3.719201221e-21
8.51475634e-22
3.841229158e-21
1.321925043e-20
9.853440977e-22
1.295912072e-20
8.204405587e-21
6.613225824e-21
4.43746226e-21
3.909398836e-21
1.158251913e-21
1.149132571e-21
1.246606511e-20
3.983674356e-21
6.144690224e-22
2.210347975e-21
1.698141107e-22
1.417882084e-22
1.117418007e-21
5.191826457e-21
1.721643224e-21
1.079973224e-20
6.851650305e-22
1.775752709e-22
9.704270821e-22
4.637344971e-21
1.955512458e-21
5.132409643e-21
3.896371598e-21
4.783309533e-21
1.730819419e-21
9.197378868e-22
1.620469409e-23
4.260339818e-21
2.778010128e-21
1.550780092e-20
1.268030977e-21
1.421255104e-21
9.984171502e-21
1.411036664e-20
1.870423037e-21
3.33976422e-21
7.765675432e-21
6.349545929e-21
2.472972268e-21
5.205041171e-22
6.485510819e-21
1.367575616e-21
4.000423898e-21
5.473491885e-21
3.460100107e-22
8.24987481e-22
8.773032423e-21
8.558438209e-21
7.284268111e-22
2.822651946e-21
3.64312885e-22
6.779469272e-21
2.100068362e-21
1.359344484e-20
2.761116218e-21
9.360049993e-22
7.161153922e-21
2.318973593e-21
1.503163111e-20
8.593995744e-22
6.537621408e-21
8.377621564e-22
2.374028863e-21
5.041078823e-21
7.231670451e-22
1.599149072e-21
3.584474522e-21
5.455453848e-21
1.632476539e-21
1.953227377e-21
1.543213031e-21
1.093568052e-21
1.296404e-20
4.292459618e-21
2.381105966e-21
6.206978683e-21
4.077063544e-21
1.151489474e-20
3.170144221e-21
4.410406108e-22
5.035242394e-21
1.184118432e-20
1.119856517e-20
2.209868766e-21
3.891645202e-22
2.882056462e-21
5.703199464e-22
1.268807926e-20
2.631175366e-21
2.431125435e-22
2.910171626e-21
4.355954614e-21
5.842323228e-21
1.570821268e-22
9.965762307e-22
5.514335418e-21
9.267490792e-21
8.486713603e-21
1.674888659e-21
2.876911789e-21
1.417801443e-20
3.149330338e-21
4.413076883e-23
5.646023246e-21
4.449788199e-22
5.89481399e-21
1.250954237e-21
9.564161314e-22
3.603005376e-22
1.634878643e-20
7.293174468e-22
2.862172633e-21
6.884460265e-21
1.589454344e-20
1.637745792e-21
5.924285725e-22
8.897465276e-22
8.296083291e-21
4.912138145e-21
1.577882023e-21
1.452924551e-20
2.124829337e-21
1.350287521e-20
2.107173877e-21
1.540388723e-22
3.869491244e-22
3.506456893e-21
2.838315245e-21
2.825977273e-21
5.625112043e-22
2.587320104e-21
1.888614041e-21
2.796126552e-21
5.068399473e-22
1.766462451e-21
9.469660499e-21
4.330057783e-21
1.859024944e-20
3.430999399e-21
1.986469366e-21
2.86712252e-21
1.407934803e-21
5.866366018e-21
3.613523246e-21
1.263484604e-20
2.134402659e-21
1.65839308e-20
4.332938252e-22
1.596655558e-21
1.606769351e-21
1.603277089e-20
2.07480991e-22
3.240336553e-21
5.737270144e-21
8.012265739e-21
6.543018191e-21
2.34227431e-21
2.091985458e-21
1.614968254e-21
4.663516818e-21
6.111645922e-22
1.118227997e-20
2.105650992e-21
9.487038651e-22
3.320208935e-22
8.962505339e-23
8.108082161e-22
1.68010425e-21
6.545257877e-22
1.669242513e-21
8.772233983e-22
8.387696565e-22
7.548389318e-21
6.714121376e-21
1.174653341e-21
5.818718226e-21
1.738674626e-21
4.273696418e-21
3.726350226e-22
3.110488174e-22
1.319812516e-21
2.742797768e-21
4.204376651e-22
4.583411048e-21
1.585379934e-21
9.261088814e-22
1.199148048e-21
4.726228242e-21
6.27011985e-22
5.852685345e-21
7.609932186e-22
7.587928278e-21
1.11362007e-20
6.647384749e-22
7.302537686e-21
2.777646707e-21
3.272229749e-22
6.857850462e-21
3.246042418e-21
6.004736028e-21
2.897143685e-22
2.569843617e-21
6.460415832e-21
4.650265648e-22
3.85258499e-21
2.290513982e-22
7.815251863e-22
4.137235555e-21
5.703902689e-22
2.226960972e-21
2.139761979e-21
9.225623753e-22
3.623568788e-21
5.76781121e-21
1.162049201e-20
1.216251145e-20
9.529602213e-21
4.961251047e-21
5.868515125e-21
9.759807743e-21
7.544110953e-22
2.310865896e-21
4.52329844e-21
6.735910989e-21
3.116055176e-21
4.856519723e-21
1.02914539e-20
2.416842458e-21
3.871764944e-21
1.727760801e-21
4.784984099e-21
3.674642581e-21
6.389770903e-22
1.455793079e-20
3.800972688e-21
6.72310991e-25
1.174905101e-21
6.792016532e-21
1.842514867e-20
1.202665872e-21
4.666563486e-21
5.890547487e-22
3.772877118e-22
5.289668861e-21
8.646831553e-21
5.922350012e-21
2.774159475e-21
1.476013438e-21
7.931526368e-22
6.537140569e-22
9.855909547e-21
7.556618825e-22
8.153289202e-21
4.41379338e-21
2.825336232e-21
3.951456135e-21
5.486997517e-21
5.213608669e-21
2.913830917e-21
8.219935862e-21
1.385526385e-21
3.272662063e-21
3.13769657e-21
4.194766093e-21
3.674563783e-21
6.872100626e-21
2.200370147e-22
1.566419716e-20
4.057233752e-22
2.003735434e-20
3.004655817e-21
6.891528003e-23
9.235674011e-21
2.429277701e-21
6.623704384e-22
1.546666996e-21
1.344087137e-21
1.442871233e-21
3.207158514e-21
4.403020105e-22
5.233350792e-22
4.535878408e-21
5.583088665e-21
2.699802313e-21
5.163946736e-21
2.465947063e-21
1.434291035e-21
6.493137524e-21
1.405523868e-21
2.001043394e-23
1.324002823e-21
9.500374388e-21
5.126654803e-22
2.695899124e-21
2.867375811e-20
3.005109877e-21
1.027647105e-21
1.490462875e-20
7.366962582e-21
5.015468252e-21
4.072178382e-21
1.297750461e-21
1.460345431e-20
2.921935289e-21
1.961772716e-20
1.570812569e-21
1.548579339e-20
1.755676845e-21
1.34343556e-21
2.866800199e-21
2.161318142e-21
4.411239945e-22
1.051582126e-21
4.15691386e-21
1.582084169e-21
1.230402149e-21
8.758163156e-21
5.969633854e-22
1.698058768e-21
1.280957485e-20
1.870609102e-21
4.086233399e-21
1.415904352e-21
8.723931902e-22
2.921591551e-21
4.800892371e-21
2.992694767e-21
6.51667693e-21
9.960344062e-22
4.16573843e-21
1.560311918e-20
3.766000575e-21
4.05905763e-21
2.674589774e-21
1.219025805e-21
5.599588024e-22
2.06050214e-21
4.260577718e-21
1.758812975e-21
8.421334712e-21
6.11766438e-22
6.830100991e-21
6.90555955e-21
1.60567563e-21
1.046843449e-21
4.296785673e-21
1.216302937e-20
1.893909949e-22
7.936486262e-22
1.077198115e-20
1.156799769e-20
1.49661434e-20
1.204038007e-21
1.52053992e-22
1.061030827e-20
5.62703992e-21
4.157656248e-21
5.903304064e-21
1.960011995e-21
4.969197203e-21
2.391849038e-23
6.011012464e-22
4.833968595e-22
2.707018976e-21
1.275768839e-22
1.611287119e-22
1.671479174e-23
5.062847591e-21
1.086027168e-20
2.372938497e-21
2.981343072e-21
4.838083706e-21
6.648534114e-21
1.113834033e-21
8.4917561e-22
1.889859174e-21
4.248936703e-22
7.584774912e-22
7.922605928e-21
4.193307418e-21
5.164371693e-22
4.872214476e-21
8.647613979e-23
7.039678128e-23
4.004036228e-22
4.646263489e-21
1.68233989e-21
7.404603843e-22
1.028965966e-20
5.967989482e-23
1.227410498e-22
9.181193312e-21
3.677349384e-21
2.057962417e-21
6.179378528e-21
1.237750226e-20
1.229738933e-20
6.226588416e-21
8.911938503e-21
2.520929518e-21
8.599684257e-21
2.389759931e-21
1.561509376e-21
8.097168128e-21
3.386798221e-21
3.847436563e-21
5.227901785e-23
7.437555489e-23
3.83681664e-21
3.370909768e-21
2.883956567e-21
5.73046901e-21
1.182046935e-20
1.382534286e-21
3.393385647e-21
7.012676121e-21
4.399789497e-21
7.24314769e-21
4.057807865e-21
7.423454566e-21
9.896283885e-22
2.368875989e-21
5.821532751e-22
5.075741841e-21
1.573469424e-20
1.926217217e-20
3.703601645e-21
1.868914738e-21
1.345190284e-20
9.367653828e-21
1.099108832e-20
2.417764784e-21
4.478420089e-22
4.494220129e-22
6.044649298e-21
2.496380984e-21
1.331360432e-20
5.387547255e-21
1.451302359e-21
2.955822094e-21
2.245787849e-21
2.319530971e-21
7.248617276e-21
1.673223632e-21
6.452445837e-21
6.981218881e-21
2.792132626e-22
3.875808176e-21
2.775755716e-21
7.492622815e-22
2.10327058e-22
1.436857514e-20
1.767160115e-21
3.199609567e-21
6.308156019e-21
7.061065902e-21
8.326316843e-21
1.304235543e-20
4.25485933e-23
1.592003484e-20
3.870563284e-22
6.469294525e-22
3.091616576e-21
1.036388266e-21
1.028375526e-20
1.882677109e-21
6.688662055e-21
1.848509709e-21
2.381700773e-21
4.848514321e-21
1.022400356e-21
1.210490369e-20
1.392377009e-21
3.229962342e-21
2.107067638e-21
2.715044451e-21
1.892711207e-21
1.201488896e-21
1.092135338e-20
1.399388192e-21
2.422625275e-21
1.490636191e-21
1.11091256e-21
2.947379434e-21
7.642754319e-21
1.098575526e-21
1.291741096e-20
5.221162935e-21
8.463105927e-22
4.588354591e-21
2.474545944e-21
2.705138938e-21
6.572103764e-22
1.959058681e-21
1.885773e-20
1.377148562e-20
4.258297213e-21
2.84126454e-21
4.045491368e-21
1.935988126e-23
1.346677151e-21
7.420020778e-21
1.300597644e-20
1.679782446e-20
3.968127678e-21
9.101331746e-21
2.366785479e-21
3.159123051e-21
6.232480505e-21
1.159298217e-20
1.606154002e-21
3.002370349e-21
2.19395974e-22
4.303616611e-21
3.496702762e-21
1.309891481e-22
1.649288664e-21
3.759270423e-21
1.580090304e-21
4.469846585e-23
1.208748115e-22
1.374215713e-20
1.755502115e-20
8.635172766e-21
1.402010874e-21
9.347572898e-22
1.637834361e-21
6.181298823e-22
2.263753056e-21
3.181964299e-21
6.324068504e-21
3.933145904e-21
5.63296599e-21
2.028201144e-22
3.557837908e-21
7.028544214e-21
2.472217381e-21
4.40639275e-21
2.146310125e-22
7.442463121e-21
9.046408593e-21
1.049602544e-21
4.451186056e-21
9.523688493e-21
6.233735061e-21
6.002445787e-21
3.154896431e-21
7.46372925e-22
2.171175494e-23
8.099035407e-22
7.421456627e-21
1.536285392e-21
2.816164064e-22
7.954289078e-21
6.048050236e-21
5.206205017e-22
2.851054286e-22
3.510943529e-22
3.151987863e-21
4.023507383e-22
9.94234228e-21
2.209546662e-21
7.810108931e-22
1.334188906e-20
1.206701205e-20
2.362708944e-21
5.45181273e-21
2.313213927e-21
4.045690842e-21
2.54502773e-21
2.63610746e-21
4.744274854e-22
3.666370295e-21
2.928843561e-23
1.241231871e-20
8.602435542e-21
1.987685627e-20
2.296995986e-21
4.097413844e-22
1.690193452e-21
3.320478813e-21
3.52608967e-21
4.166998395e-21
8.365212074e-21
7.580928015e-21
8.009398351e-21
1.172930216e-22
2.116427518e-21
2.20494817e-21
2.219914209e-21
3.376005469e-21
3.058353287e-21
5.810006556e-21
1.386974071e-22
2.712882504e-21
2.163760851e-21
3.674999816e-21
4.117752164e-21
9.118362563e-21
8.934919486e-21
7.219585431e-21
1.16973547e-20
3.396151498e-21
6.871678342e-22
1.331567727e-21
2.798987773e-21
2.293055255e-21
4.839292582e-21
8.955151345e-21
1.683262818e-21
1.023787621e-21
3.196046163e-21
4.885493697e-21
2.520870479e-21
2.722493791e-21
2.994197032e-21
7.598225935e-21
4.565774834e-22
9.387016968e-21
1.298214337e-20
3.38586209e-21
5.964191355e-21
1.517720098e-21
7.428178814e-21
3.651647547e-21
1.022357338e-22
6.061661185e-21
3.490660607e-21
6.433435795e-23
1.151276635e-20
5.393829624e-21
5.88360001e-21
1.35706649e-20
1.107589082e-20
3.003586752e-22
3.254877296e-21
4.237854955e-21
6.48145761e-22
3.617241171e-21
2.67328838e-21
1.55919405e-20
3.267292264e-21
2.207749829e-21
1.311626546e-21
8.628097326e-23
6.345928211e-21
3.104190432e-21
8.421636255e-21
1.937356437e-21
1.670765917e-20
1.116938922e-20
2.034393145e-21
1.600161009e-21
1.154206527e-20
1.403164546e-21
6.198043231e-21
4.088827387e-21
1.498529464e-21
1.892133297e-20
1.706742084e-20
5.669442183e-21
2.656878799e-21
4.89148619e-22
1.444004783e-21
1.076175628e-20
2.072990029e-21
3.690664906e-21
7.994881503e-21
1.062441045e-21
1.706131932e-21
9.877876076e-22
1.662556206e-20
1.160014852e-21
9.150387789e-21
3.692560011e-20
8.200545748e-21
4.17340603e-21
9.417289746e-21
4.636999572e-22
4.101493391e-22
1.040344034e-21
5.790886763e-22
3.694093009e-21
1.34471024e-21
3.718260906e-22
5.471526363e-21
2.248229419e-21
1.815929359e-21
1.047680822e-21
1.024264693e-20
3.212162371e-21
3.140931421e-21
5.043599392e-22
3.767090753e-21
1.398089506e-20
1.014084084e-20
8.533542672e-21
3.964107903e-22
5.54385678e-21
5.498878655e-21
1.840368494e-21
2.461749088e-21
2.563237344e-21
6.825779095e-21
4.005548845e-21
1.444241717e-21
5.162448372e-21
4.642416031e-21
4.148060836e-21
9.442702659e-21
1.63797058e-20
6.575911086e-21
5.163216529e-21
1.962796889e-21
7.19368687e-21
3.373621606e-21
2.956674019e-21
1.901387342e-21
6.506642209e-21
2.8554996e-21
4.888093282e-21
1.154811196e-21
1.087345237e-20
5.509170391e-21
1.500189608e-20
9.140733878e-21
2.487689139e-21
1.146075805e-22
5.925584271e-21
1.895629476e-20
6.316708606e-21
3.368362801e-21
1.146485998e-21
7.273720771e-21
1.463750078e-21
1.181638928e-21
4.592427031e-21
3.911603958e-21
2.33421032e-21
1.20813798e-20
1.845405365e-21
1.799248341e-21
2.415911448e-21
4.536912699e-21
1.725815076e-21
1.575511074e-21
2.94718802e-22
4.122252229e-21
3.694905918e-21
8.547586413e-21
1.10851848e-20
4.414319072e-21
1.385691329e-20
1.229479635e-20
3.290219581e-21
6.464372194e-21
1.082221137e-20
2.116985489e-21
2.168004845e-21
3.510410828e-22
1.070482654e-21
5.176343979e-21
1.102539247e-21
3.367141933e-21
4.135422756e-21
1.717634099e-20
5.726766629e-22
9.055445144e-21
1.753888043e-21
8.110935358e-22
1.019391853e-21
1.864378331e-20
2.889155232e-21
1.280544616e-20
2.73270425e-22
6.594335034e-21
2.613445118e-21
1.167620248e-21
1.029579959e-21
3.285980975e-21
7.550017982e-21
1.337702384e-20
1.530483616e-21
5.23872759e-21
3.036557157e-21
3.041328991e-21
2.49213076e-21
5.263009025e-21
4.662697204e-21
8.351338134e-21
3.901875174e-21
3.567131421e-22
8.704751428e-21
1.145459854e-21
7.572696337e-21
7.445470833e-21
2.173623485e-21
1.076492402e-20
1.158690267e-21
6.391995964e-21
1.44271889e-20
1.317384468e-21
1.198280551e-21
2.829102895e-21
5.705863952e-21
4.959652709e-22
6.201280068e-22
2.541161193e-22
1.032892607e-21
8.480982747e-21
2.107789894e-22
5.80140222e-22
9.334430027e-21
1.741937267e-21
1.111446557e-20
3.036020959e-22
7.901278106e-22
9.400723542e-22
1.376351143e-21
7.186320622e-21
2.099240946e-22
4.126921203e-21
1.301279333e-21
4.970080005e-22
1.970996908e-21
4.91343893e-21
1.550626662e-20
2.054601865e-21
7.517827748e-22
1.602532443e-21
3.991000106e-21
9.094361463e-22
2.234809473e-21
1.448335855e-22
5.899704095e-21
6.839386967e-21
4.567976656e-21
5.405610556e-21
2.643421008e-22
1.272544644e-21
1.181814941e-21
8.359291998e-21
5.160096475e-21
2.243636214e-20
1.546034551e-20
3.198494969e-21
6.152595848e-21
1.744928956e-21
2.305759257e-21
1.036678175e-21
4.242404385e-21
4.815351092e-21
6.396541183e-22
4.392942782e-21
1.020606532e-21
4.226986822e-21
7.5163863e-21
2.223949671e-21
1.112621778e-21
4.457661621e-21
3.271004281e-21
7.866459104e-21
6.835525109e-21
2.266270003e-22
8.402179744e-22
2.622152075e-22
3.780925898e-21
3.884944389e-21
5.207458773e-21
4.970272776e-21
1.553444951e-21
8.617121036e-21
2.678246316e-21
7.473593682e-21
9.653661874e-21
4.212679221e-22
3.603409239e-21
2.607495854e-21
1.732734349e-21
2.392540759e-21
8.30399946e-21
5.311754362e-21
2.380450584e-21
1.453554979e-22
3.149146091e-21
5.819829498e-21
3.382844163e-21
5.909248892e-21
4.447404807e-21
2.642021963e-21
4.695581393e-21
8.040096283e-22
2.449574736e-20
2.520978692e-21
7.423164676e-21
5.945861796e-21
1.651345069e-21
1.192237765e-20
5.231514083e-21
1.553301586e-21
9.718982434e-21
3.356963369e-21
1.357884677e-20
3.248336737e-21
3.555087714e-21
1.069405863e-22
2.327673031e-21
1.776865244e-21
4.529390427e-21
5.577776136e-21
3.022461858e-21
9.75422676e-22
9.793989691e-21
1.410921797e-20
2.241061936e-21
7.022837284e-22
1.106242352e-21
1.729689532e-20
1.360535644e-21
5.703499687e-22
1.494520536e-22
1.793661514e-20
8.872694268e-21
2.814713012e-21
4.299370103e-21
3.868946423e-21
2.768809431e-20
1.57977135e-21
6.512202437e-21
1.071769386e-21
8.751928516e-21
1.000060409e-21
1.186336226e-20
1.677662178e-20
6.869135643e-21
3.180659175e-21
5.886033495e-22
2.288298391e-22
7.094084008e-21
1.279834934e-21
9.019818449e-22
5.695795579e-21
3.337400852e-21
1.213150555e-21
1.266037556e-21
2.808229937e-21
1.29613701e-21
3.037028839e-21
3.274200581e-21
1.993703699e-21
3.932875453e-21
6.578584133e-22
3.838081129e-21
3.777669846e-21
3.514937695e-21
6.782312073e-22
1.999260264e-20
1.803099095e-20
1.606083358e-21
1.115037598e-21
5.112607488e-21
1.579205031e-21
8.127787728e-22
2.519489646e-21
1.875183075e-21
6.149142252e-22
2.668426041e-22
1.413697256e-21
1.583368696e-21
6.642755258e-21
3.118302482e-21
1.203632818e-20
1.157383978e-21
1.691388278e-20
8.398594148e-21
4.982106033e-21
4.285699351e-21
1.415319905e-20
7.465160592e-22
1.368385158e-20
7.039248139e-21
3.843277368e-21
7.985172465e-21
9.815220558e-21
4.385196919e-21
3.81933161e-21
1.102430234e-21
1.020207056e-21
3.677241526e-21
3.370431347e-21
3.568812637e-21
5.085271504e-22
3.950401367e-21
4.013347656e-21
5.744366579e-21
1.8517666e-21
2.501170519e-22
8.671183967e-21
2.606184304e-20
2.279872491e-21
3.79912338e-21
2.061724363e-20
8.914452834e-21
2.059489157e-21
5.386372103e-21
2.868362915e-21
1.039021922e-21
3.936742249e-21
4.062699025e-21
5.629358279e-22
5.983289623e-21
4.588564231e-21
3.797901544e-22
1.279591858e-20
6.395787041e-21
7.472858456e-21
7.609471118e-22
2.316589747e-21
1.090731338e-22
5.098778826e-21
7.926993141e-21
3.719124062e-22
2.962086233e-21
1.495776666e-20
1.728083391e-22
7.662836485e-22
5.474420701e-21
2.040817463e-21
2.936854356e-21