/*--------------------------------*- C++ -*----------------------------------*\
| =========                 |                                                 |
| \\      /  F ield         | OpenFOAM: The Open Source CFD Toolbox           |
|  \\    /   O peration     | Version:  2406                                  |
|   \\  /    A nd           | Website:  www.openfoam.com                      |
|    \\/     M anipulation  |                                                 |
\*---------------------------------------------------------------------------*/
FoamFile
{
    version     2.0;
    format      ascii;
    arch        "LSB;label=32;scalar=64";
    class       labelField;
    location    "0.006/lagrangian/dsmc";
    object      origId;
}
// * * * * * * * * * * * * * * * * * * * * * * * * * * * * * * * * * * * * * //


6153
(
254950
31347
296159
254790
253938
254870
254905
255001
255113
255612
298104
253053
253616
254064
255184
255240
255795
257584
253967
254757
255943
255157
255611
255929
256010
254901
255448
255945
296963
259878
298726
253661
255278
255809
299228
31498
298081
255342
255360
255808
256004
256123
260217
255206
255368
255437
255629
255768
256290
256524
299531
292967
254800
255242
255413
255596
255956
256009
256112
256114
256147
256620
256694
299941
254163
254479
255266
255356
255726
255864
255927
256260
256371
256556
256740
256763
298928
298818
254232
254758
255609
255705
255870
256107
256121
256208
256229
256276
256452
256567
256706
256940
258210
298725
254902
254997
255479
255695
255891
255964
255973
256043
256472
256814
257000
260304
254967
254984
255688
255879
255948
256111
256325
256383
256430
256458
256778
256971
257098
257218
257367
300853
254529
296832
298801
255080
255175
255954
255980
256000
256478
256554
256582
256684
256728
256830
256837
257130
257346
257837
255590
31578
299300
255430
255533
255882
255942
255968
255979
256049
256120
256150
256232
256572
256595
256612
256662
256891
256998
257175
257287
257384
257835
299747
300243
298100
298014
261365
256724
256454
31591
31593
293989
255346
255775
255886
256023
256148
256262
256431
256552
256639
256668
256678
256826
256843
256929
256958
257099
257117
257164
257199
257336
257547
257551
257890
258028
299543
260660
299945
255239
255383
255608
255704
255715
255859
255975
255995
256042
298524
256196
256501
256603
299239
256835
256856
256954
256996
257031
257110
257183
257261
257660
257795
258041
258069
258384
298419
260752
254883
255519
255901
256327
256481
256588
256682
256760
256831
256834
256850
256865
256873
256993
257308
257887
258138
258232
31618
298783
256563
256820
254811
255908
255967
255974
255978
256144
256146
256167
256251
256296
256372
256410
256449
256644
256693
256733
256766
256783
256815
256816
256872
256955
256969
257004
257036
257041
257090
257092
257174
257191
257337
257373
257375
257504
257659
257774
257789
258072
258141
259171
300454
257159
262426
296943
295642
299221
300341
254631
255850
255878
255930
297596
256145
256298
256301
256332
256427
256565
256574
256579
256670
256691
256771
256782
256923
256949
256997
257008
257125
257196
257211
257219
257380
257391
257439
257609
257637
257687
257787
300160
260131
260216
301681
299931
261718
256551
31635
300344
255407
257244
255163
255247
255657
255971
256163
256204
256212
256221
256305
256387
256513
256569
256576
256666
256781
256914
256941
256980
257015
257037
257095
257197
257206
257250
257262
257286
299548
257362
257377
257461
257516
257524
257536
257593
257645
257657
257730
257856
259254
298921
299439
260565
257595
298295
256027
256252
256389
256488
256557
256604
256649
256777
256827
256852
256871
256924
256925
256967
257063
257085
257112
257113
257212
257281
257284
257324
257372
257381
257443
257477
257494
257544
257653
300161
257709
257710
257721
257815
257908
257909
257958
258049
256102
259617
257418
301377
299005
262330
262942
31646
296229
256991
255725
255773
256384
256589
256672
256725
256926
256928
256944
257012
257025
257081
257097
257204
257297
257383
257390
257508
257518
257530
257538
257633
257634
257705
257862
258010
258079
258175
258202
258226
258233
258311
258397
258495
258547
299119
301179
300258
259430
300864
260567
300236
301175
261107
257075
255380
255782
255955
256104
256143
256354
256406
256614
256619
256730
256750
256884
256936
256953
256995
257007
257051
257179
257193
257270
257291
257315
257328
257382
257404
257421
257437
257448
257456
257459
257510
257548
257566
257627
257791
257802
257965
258006
258066
258099
256813
259524
259699
300361
300050
300152
300435
262769
263114
31658
31662
299013
299432
256045
256106
256457
256655
256731
256742
256749
256768
256794
256845
256870
256948
299441
257048
257052
257068
257087
257096
257137
257178
257280
257283
257289
257303
257348
257415
257422
257440
257519
257528
257537
257570
257579
257605
257632
257697
257700
257701
257711
257731
257776
257779
257826
257882
257905
257926
257964
257977
258073
258176
258215
258297
258340
258343
258424
258491
258724
258951
299240
259700
260046
257426
260659
260751
301063
300860
254792
298516
298396
300456
299098
300658
299654
300553
254413
256377
256450
256502
256559
256645
256679
256844
256855
256861
256939
256962
257094
257185
257189
257230
257246
257251
257480
257486
257532
257540
257542
257581
257612
257662
257803
257864
257868
257872
257884
257896
257927
257956
258022
258254
258262
258285
258349
258366
258372
258434
259028
259521
260301
299237
260937
300357
300758
262425
257343
300978
263022
31680
293819
296845
298285
297909
258048
255733
255750
255920
256206
256234
256487
256686
256775
256839
256979
257016
257053
257120
257294
257378
257397
257466
257472
257505
257522
257583
257606
257650
257707
257712
257769
257771
257797
257814
257828
257863
257891
257949
257967
258051
258083
258104
258148
258171
258203
258222
258227
258240
258246
258298
258350
258361
258447
258536
258695
299330
259787
261280
261281
261793
261976
301174
262853
258649
31693
31694
31695
297898
256913
299647
255957
255982
256774
256866
256965
257021
257043
257208
257310
257401
257424
257427
257431
257432
257435
257514
257558
257599
257608
257610
257629
257643
257704
257713
257737
257772
257804
257859
257892
257900
257901
257972
257986
257995
258009
258097
258144
258170
258196
258199
258242
258253
258270
300047
258405
258419
258438
258510
258520
258521
258551
258566
258594
258607
258760
258817
258931
258950
298418
260385
299727
262158
257338
300261
31709
31710
31711
298520
300449
294546
300825
255720
256484
256558
256847
256869
257121
257132
257161
257267
257363
257389
257444
257483
257502
257523
257555
257699
257777
257790
257800
257950
257989
257990
257998
258058
258089
258105
258161
258236
258265
258272
258320
258337
258418
258448
258575
258578
258681
258690
258882
299539
259072
259431
260656
261017
300441
263476
301262
31719
296348
298916
254292
254958
255883
256329
256412
256841
256858
256862
256934
256957
257030
257101
257133
257201
257278
257374
257386
257531
257533
257582
257630
257646
257728
257796
257810
257816
257852
257869
257893
257910
257920
257948
257970
258000
258008
258067
258088
258090
258094
258111
258146
258173
258342
258344
258354
258362
258429
258654
258667
300262
258869
258948
259038
301084
260841
300752
258044
257260
300739
263298
300980
301282
300158
296352
299542
256105
256284
256380
256664
256753
256860
256930
257109
257122
257124
257138
257173
257295
257300
257369
257393
257425
257449
257473
257478
257529
257541
257565
257577
257651
257692
257706
257727
257734
257744
257747
257786
257812
257881
257914
257946
257959
257966
257982
258012
258021
258062
258063
258085
258167
258179
258229
258276
258295
258316
258346
258352
258451
258511
258515
258528
258655
258705
258751
258795
300871
258850
258853
258928
258945
301890
259399
259847
259870
259910
260657
261887
261975
300856
257084
300984
301691
263567
263657
31735
31737
296448
297672
299923
256359
256394
256791
257035
257049
257091
257115
257128
257167
257200
257360
300159
257559
257572
257613
257618
257688
257715
257724
257782
257885
257911
257957
257961
257963
258053
258065
258074
258095
258134
258154
258165
258169
258234
258273
258283
258331
258363
258480
258568
258572
258605
258615
258633
258686
258688
258823
301185
258941
300353
300358
259054
259060
259121
259191
259489
259871
260936
301568
261193
301363
261628
300643
261715
261888
262514
301773
301678
263200
31748
31749
295108
291287
298011
293538
299836
301584
255354
256316
256340
256776
256880
256952
257045
257104
257135
257364
257410
257450
257562
257666
257698
257732
257741
257778
257781
257858
257861
257878
257879
257923
257975
257976
257983
258043
258060
258081
258098
258131
258145
258151
258277
258278
258279
258334
258359
258374
258399
258414
258425
258427
258436
258444
258466
258496
258501
258503
258509
258516
258523
258526
258577
258582
258623
258647
258666
258678
258687
258758
258782
258842
258949
259039
259099
259127
259165
259394
301485
301479
261973
301066
262157
301088
258644
263918
31757
297863
299014
300640
256942
256974
257078
257355
257385
257430
257708
257723
257765
257806
257854
257866
257871
257897
257903
258042
258055
258068
258102
258183
258257
258266
258280
258282
258329
258335
258410
258443
258532
258550
258617
258618
258691
258697
258747
258780
258793
258812
258856
258868
258954
301383
259006
259030
259114
259315
259322
259341
259373
300053
259572
259717
260655
299645
300153
302298
300954
263655
299633
299748
300239
300648
301572
257073
256056
257044
257274
257345
257563
257628
257638
257686
257759
257763
257773
257805
257865
257870
257876
257904
258047
258075
258082
258084
258180
258185
258190
258204
258245
258261
258338
258407
258486
258488
258538
258624
258629
258660
258670
258720
258764
258776
258863
258872
258881
258891
258935
258936
258937
258995
259020
259034
259116
259192
259331
259370
259447
259495
259806
259842
259851
260300
260750
260842
260932
262513
263566
263656
31767
31768
256414
257123
257304
257387
257485
257560
257641
257720
257726
300359
257788
257874
257993
300453
258078
258108
258140
258164
258205
258244
258251
258267
258271
258275
258353
258423
258430
258462
258499
258502
258522
258596
258598
258608
258657
258790
258878
258943
258946
258994
259089
259138
259214
259286
301182
301577
300660
300157
301692
302194
261279
301086
262423
300436
301074
257947
264003
31778
31779
298603
256476
256599
256973
257266
257340
257469
257549
257736
257746
257875
257880
257886
258050
258059
258061
258115
258163
258330
258341
258375
258401
258413
258417
258432
258441
258482
258487
258493
258506
258519
258606
258652
258669
258683
258743
258745
258754
258765
258792
258828
258843
258966
259002
259022
259118
259376
259380
259478
259808
259869
259999
260129
302192
300869
301180
262329
302703
263565
31788
299320
300033
299422
300549
301167
258217
299026
257108
257151
257265
257621
257624
257717
257798
257960
258045
258052
258071
258087
258137
258259
258317
258347
258360
258368
258383
258403
258428
258433
258457
258500
258518
258541
258587
258677
258694
258699
258709
258738
258787
258797
258852
258859
258880
258960
259018
259027
259045
259056
259185
259204
259223
259249
259300
259344
259486
259545
259569
302291
260283
260934
261016
261278
299838
264002
299435
31794
296298
299803
299440
293338
258040
256909
257392
257512
257607
257801
257853
257962
257987
258149
258172
258239
258243
258286
258293
258321
258336
258348
258355
258422
258426
258485
258517
258530
258546
258586
258588
258593
258613
258620
258635
258661
258665
258702
258742
258781
258804
258814
258845
258870
258877
258970
258998
259004
259023
259052
259097
259129
259132
259221
259239
259246
259262
259319
259445
259464
259477
259493
259520
259537
259584
259592
259682
259734
300663
301574
302286
260933
300759
301882
302062
261791
262069
302270
301689
264266
31796
31797
255228
298683
298307
258128
256253
257177
257221
257357
257457
257598
257906
257994
258126
258174
258197
258255
258256
258274
258345
258370
258421
258431
258446
258453
258456
258468
258529
258580
258583
258585
258590
258610
258619
258643
258662
258680
258684
258750
258752
258788
258834
258838
258908
258911
258942
258955
258978
259017
259037
259048
259096
259098
259102
259104
259107
259112
259131
259194
259198
259220
259251
259285
259299
259358
259393
259419
259467
259487
259504
259588
259659
259661
259786
260213
302915
302600
261971
301876
263296
263383
301981
263564
263917
31802
31803
31804
31805
31806
295139
296868
298515
299007
297697
297760
300547
301659
301176
257615
257635
257656
257821
257847
257899
257969
258147
258221
258235
258248
258322
258324
258333
258351
258442
258450
258524
258576
258592
258668
258682
258685
258707
258721
258757
258767
258775
258783
258791
258813
258921
258930
258934
258958
258965
258996
258997
259000
259068
259133
259137
259156
259201
259226
259295
259417
302402
259491
259492
259557
259573
301490
259898
259969
259972
260175
301079
302597
302089
261626
263384
258562
263474
303121
264610
31818
31819
31820
296571
299655
298995
300754
299718
301183
258228
300661
256598
257298
257819
257822
257978
257985
258114
258142
258160
258264
258356
258409
258415
258505
258527
258595
258676
258749
258761
258769
258771
258778
258801
258805
258844
258871
258875
258876
258883
258885
258914
258973
259009
259036
259084
259111
259147
259222
259293
259318
259463
259475
259508
259571
259672
259692
259711
259712
259748
259754
259779
259785
259848
301382
259935
260028
260066
260159
257762
302693
261886
262156
301975
262512
256741
263292
301283
302809
31834
31836
31837
31838
295634
297782
298894
300552
299428
257678
255923
257924
257991
258159
258465
258597
258611
258651
258701
258704
258777
258851
258896
258940
258987
259024
259041
259044
259059
259105
259119
259120
259125
259142
259179
259193
259202
259211
259228
259278
259287
259398
259408
259470
259480
259518
259543
259551
259559
259564
259591
259688
259693
259814
259830
259912
259914
260009
260102
260243
260245
260286
260293
303635
260477
301073
260931
303221
261627
261792
261884
262597
262941
263382
259363
302091
31843
31845
253745
297960
298673
299894
300028
300559
255147
300451
298610
257301
257631
257696
257716
257817
257829
257951
258057
258091
258153
258187
258269
258408
258490
258569
258589
258599
258602
258609
258706
258710
258772
258784
300870
258831
258866
299934
258910
258915
258924
258977
259003
259013
259032
259042
259057
259153
259200
259203
259229
259283
259312
259320
259321
259338
259362
259395
259401
259424
259449
259499
259517
259590
259658
259662
259697
259730
259827
259854
259856
259872
258822
260004
260011
260016
260141
260165
260191
260693
301082
302075
301389
262327
262422
259085
262848
263291
301891
301777
303010
301274
264432
264710
31846
31847
31849
31850
31851
31852
300130
256373
299442
257679
258567
295772
301178
301685
259093
257554
258004
258156
258158
258464
258512
258561
258601
258621
258846
258862
258959
258992
259040
259049
259064
259123
259130
259136
259205
259280
259323
259330
259355
259378
259415
259461
259468
259469
259484
259494
259604
259628
259644
259654
259655
259690
259710
259750
302605
259798
259812
259838
259840
259855
259858
259900
259991
260003
260027
260034
260045
260138
260273
260585
260840
301381
302281
303622
262155
263293
264000
264350
302403
31862
31865
292729
254366
257071
303632
299106
257254
257684
257799
258155
258224
258565
258573
258663
258675
258770
258807
258832
258841
258860
258962
258967
259033
259100
259134
259135
259146
259151
259237
259248
259301
259392
259400
259428
259471
259485
259496
259547
259563
259580
259585
259601
259639
259726
259752
259756
259759
259761
259764
302497
259826
259853
259982
260007
260070
260321
260379
260398
260419
260421
260476
260490
303120
260725
302400
303009
303731
302494
259536
302087
264879
265064
31874
292582
297705
300558
300840
300985
301470
256136
299206
256643
299846
257471
258177
258332
258514
258525
258531
258634
258673
258700
258711
258716
258718
258827
258888
258923
258933
259008
259141
259163
259196
259215
259217
259238
259252
259277
259288
259292
259383
259412
259562
259567
259577
259666
259677
259689
259707
259766
259769
259820
259824
259832
259837
259902
259927
259958
259962
259992
260164
260189
260251
260347
260487
260734
260975
261015
261536
303016
302395
302484
303015
263111
303427
302607
263916
302699
264609
297045
297184
256199
254628
300937
300327
300979
301378
300414
258223
257617
258323
255796
257792
258166
258358
258367
258412
258513
258535
258614
258625
258857
258864
258865
258873
258912
258922
258938
258947
259043
300356
259197
259207
259218
259240
259304
259587
259595
259598
302714
259637
259642
259645
259652
259751
259770
259803
259849
259860
259940
259945
259977
259985
260032
260108
260174
260200
260241
260284
260311
260323
260338
260735
260807
261070
262153
262681
262767
303723
303915
264878
264975
31885
31886
31887
31888
31889
295113
296567
299087
300629
300311
300659
301477
301480
257601
258218
256306
257973
258178
258184
258327
258766
258835
258927
259005
259026
259124
259206
259276
259314
259316
259332
259339
259377
259387
259396
259405
259444
259452
259466
259483
259579
259581
259620
259632
259640
259718
259735
259740
301994
259793
259807
259946
260014
260018
260040
260072
260096
260111
260116
260173
260187
260195
260206
260223
260234
260352
260357
260410
260411
260426
260432
260438
260499
260525
260536
260627
260727
260749
260929
260979
261106
261534
302076
262326
301690
263294
263295
301885
264173
258648
302367
265150
31896
31897
31898
31900
31902
297235
298691
297469
299091
300394
298388
256921
300010
301886
301972
300438
259450
301879
257988
258157
258492
258763
258848
258879
258944
258972
259019
259025
259055
259058
259139
259143
259289
259291
259298
259310
259311
259313
259324
259372
259381
259382
259402
259446
259472
259476
259481
259513
259515
259554
259605
259608
259660
259663
259665
259674
259695
259722
259736
259741
259757
259775
259799
259821
259907
259911
259916
259947
259994
260017
260094
260099
301579
260190
260197
260212
260232
260276
260278
260285
260346
260350
260401
260440
260507
260530
260595
260628
260714
260762
261008
302486
263112
263738
259708
303312
264794
297277
298179
298476
300241
300425
300751
303331
298925
301285
258416
303523
303710
258086
258440
258693
258712
258744
258779
258836
258855
258926
258939
259001
259209
259213
259230
259271
259281
259302
259360
259389
259456
259460
259462
259482
259540
259575
259603
259627
259681
259753
259758
259831
259839
259841
259846
259852
259888
259901
259917
259983
259995
260030
260035
260071
260092
260101
260161
260221
260238
260289
260333
260360
260367
260389
260471
260508
260542
260576
260643
260675
260721
260769
260820
302489
260946
261104
262064
258741
262420
303005
263562
263827
303113
303118
264520
264709
264974
258559
265407
31915
294802
296936
299425
298167
298727
299536
299019
299736
257509
301076
300332
259268
303401
303116
298303
258789
258849
258956
258957
259015
259047
259066
259113
259231
259233
259236
259260
259296
259369
259411
259556
259558
259566
259570
259576
259600
259646
259649
259671
259719
259725
259755
259811
259815
259892
259899
259919
259920
259938
259951
259968
259970
259973
259980
260005
260012
260051
260053
260080
260081
260095
260120
260168
260184
260188
260205
260208
260250
260260
260330
260408
260431
260450
260455
260488
260493
260503
260515
260517
260558
260592
260604
260736
260794
260915
260930
261246
302292
262150
262154
262510
263472
301676
263912
263915
303520
303634
302056
31918
31920
31921
295539
296225
295059
298003
298802
300429
255523
297573
303392
258581
258671
258692
258861
259016
259106
259140
259195
259212
259219
259284
259303
259305
259329
259367
259385
259429
259497
259631
259683
259715
259737
259745
259804
259885
259895
259903
259926
259930
259931
259993
260001
260022
260106
260133
260322
260334
260402
260404
260520
260531
260562
302712
260601
260638
260639
260722
260799
260824
260837
260854
260984
261174
261306
303220
262679
302795
302582
299908
31923
31924
31925
31927
296525
297956
298586
299298
298824
299739
299311
301168
301782
257520
300355
301789
303315
260486
256482
258193
258800
258886
259031
259109
259247
259270
259294
259325
259375
259474
259490
259574
259634
259656
259685
259705
259796
259913
259936
259939
259978
259989
260024
260042
260058
260063
260064
260117
260127
260140
260167
260169
260196
260224
260274
260290
260336
260396
260441
260457
260491
260505
260513
260514
260544
260623
260651
260747
260836
260898
260905
260999
303318
261230
261242
261277
261482
303827
263914
302195
304028
302807
257703
31936
31938
31939
295919
298194
297601
299926
299624
300632
299932
300762
257683
301872
298924
299063
256999
300043
260850
257573
258435
258679
259021
259117
259159
259164
259309
259328
259386
259390
259397
259416
259498
259501
259548
259578
259650
259653
259723
259746
259771
259774
259797
259836
259845
259971
260000
260013
260021
260031
260079
260153
260158
260163
260202
260228
260246
260319
260345
260356
260417
260428
260429
260434
260436
260504
260518
260532
260620
260678
260683
260685
260709
260834
260876
260997
261050
261073
261109
263560
259625
302711
302695
259966
264607
264971
31943
31944
31945
31946
31947
292019
294148
297112
296693
298766
295800
296577
257002
298906
298798
299619
255872
298701
299743
299835
300736
299537
299049
301987
300969
302377
256366
256461
302587
260137
296302
259035
259051
259128
259227
259241
259391
259457
259552
259582
259586
259696
259819
259822
259825
259834
259865
259881
259886
259887
259891
259894
259918
259922
259976
260104
260143
260152
260154
260179
260249
260262
260263
260266
260271
260281
260348
260351
260353
260414
260424
260437
260439
260442
260511
260622
260694
260698
260701
260710
260775
260782
260792
260858
260899
260903
261089
258564
261152
261449
304559
304351
262151
259794
304134
302805
264169
264265
264708
304742
265488
265845
31950
31951
31952
31955
290988
294429
289757
295695
295545
297947
298592
298384
297881
298375
299217
300662
300624
301472
259184
299233
304124
298212
260166
257807
258698
258811
258953
259029
259183
259279
259307
302500
259473
259539
259675
259679
259694
259727
259744
259805
259817
259833
259835
259915
259921
259933
259937
260002
260057
260061
260088
260089
260118
260155
260171
260185
260233
260248
260265
260280
260295
260339
260363
303633
260409
260422
260500
260545
260608
260619
260635
260739
260745
260773
302393
303934
260873
260885
260893
260972
261046
261405
261624
304354
300761
262149
263561
264518
303928
304940
31961
31962
31963
31965
296585
297015
299631
298197
299546
300139
299927
300333
257620
300036
256297
301278
301372
301585
302706
302789
256363
256282
257594
257794
298678
299313
258696
258854
259053
259103
259216
259225
259541
259593
259635
259641
259668
259743
259765
259828
259974
259987
259998
260020
260026
260029
260037
260060
260067
260076
260103
260124
260126
260145
260157
260162
260236
260269
260343
260375
260413
260415
260446
260449
260523
260527
260529
260533
260540
260611
260634
260667
260679
260691
260703
260719
260733
260744
260746
260776
260787
260805
260808
260812
260852
260877
260906
260908
260928
260961
260994
261004
261038
261071
261101
261123
261227
261289
261370
261403
261430
261789
300866
304447
304438
31972
31973
31974
31975
31976
31977
31978
31979
31980
31981
31982
295891
297115
297878
295503
296550
299687
299529
300958
300232
301279
300340
292754
301979
258825
258839
296248
259716
299103
296528
260494
257753
258076
258674
258975
259208
259371
259384
259388
259407
259535
259626
259630
259669
259747
259767
259800
259813
259943
259948
259955
260006
260025
260050
260068
260085
260119
260122
260198
260252
260253
260257
260258
260277
260309
260315
260337
260354
260358
260365
260420
260425
260433
260452
260462
260553
260616
260624
260636
260640
260716
260724
260738
260742
260764
260783
260789
260864
260948
260998
261005
261009
261061
261114
261118
261134
261149
261160
261180
261187
261312
261363
261478
261498
261517
261622
261623
303422
261833
261883
262418
262765
262847
263199
304965
264170
304136
260150
265234
265405
266200
31988
31990
31991
297370
296620
254439
297019
297248
254469
300223
256195
300634
299913
299742
257414
255423
299843
257768
299895
300847
257527
302090
301253
257086
301873
300183
254433
303412
303286
303604
304745
258489
259368
259409
259465
259519
259565
259589
259647
259670
259733
259749
259829
259889
259905
259942
259959
259988
259990
259997
260052
260180
260182
260239
260244
260282
260316
260318
260344
260362
260364
260444
260448
260459
260472
260496
260506
260512
260579
260583
260602
260676
260677
260720
260729
260743
303021
303018
260766
260801
260806
260821
260878
260880
260909
260963
260969
261036
261084
261153
261203
261239
261259
261384
261476
261488
261690
261714
261961
304142
260680
263559
265149
303727
303902
304548
261991
31997
31998
31999
32000
32001
32002
294651
293648
296096
297100
298190
297787
297763
298971
296216
300846
257596
302182
302982
258658
304335
259455
256047
259531
258080
258768
258968
259443
259555
259623
259728
260010
260033
260077
260086
260090
260110
260160
260172
260237
260254
260256
260261
260264
260270
260287
260288
260329
260366
260370
260371
260395
260453
260497
260519
260524
260588
260599
260652
260707
260730
260771
260777
260804
260810
260815
260861
260889
260949
260966
261002
261056
261076
261093
261130
261157
261164
261165
261178
261301
261336
261338
261361
261386
261519
261618
261673
261790
261879
262680
263737
263826
264793
302159
303212
264874
264970
265663
265759
266107
266108
32005
32006
32007
32008
32009
32010
32011
289206
296933
293943
296399
296947
297053
297522
299203
297950
299650
299627
301248
300443
300615
257845
257011
257503
257172
300347
258824
259795
258508
259282
259297
259308
259729
259818
259862
259941
260078
260135
260194
260294
260355
260470
260535
260548
260596
260641
260654
260708
260723
260795
260797
260800
260818
303933
260848
260866
260912
260922
260964
260974
302916
261137
261162
261172
261184
261222
261262
261263
261307
261326
261375
261471
261583
261639
262041
258740
263290
304130
304744
264262
264705
304755
32018
32019
32020
32021
32022
32023
32025
296632
294770
299010
298553
300012
299948
300141
300655
300231
300599
257685
258479
302997
302713
302601
259546
302296
304453
255690
303424
305150
300348
257296
259210
259366
259680
259780
259857
259908
260093
260259
260325
260326
260456
260463
260485
260555
260580
260589
260603
260621
260631
260637
260653
260706
260768
260813
260860
260888
260892
260981
260987
260989
260991
261065
261079
261117
261146
261221
261237
261310
261359
261411
261420
261440
261469
261492
261567
261581
261657
261667
261759
261779
261925
262152
304244
263824
264517
264707
305348
303637
265317
303211
261054
261210
305047
266010
266376
32030
32032
294990
294170
290774
298001
299229
297446
256648
301471
256990
259364
257258
301779
258314
302888
257184
258774
258798
259351
259651
259904
259906
260074
260097
260170
260176
260178
260242
260247
260267
260423
260502
260528
260538
303126
260581
260613
260644
260692
260697
260699
260713
260715
260791
260816
260830
260859
260863
260916
260957
260965
261026
261040
261047
261059
261064
261097
261121
261126
261132
261156
261220
261223
261232
261276
261291
261309
261355
261374
261394
261409
261443
261481
261502
261504
261525
261544
261571
261285
261778
261802
304652
305162
262062
303818
303112
263652
305155
264875
264876
264968
259122
303020
305779
266011
32035
291394
293616
294980
298056
295809
299130
297908
299218
298919
299617
298689
298775
299389
299629
300031
300975
300499
256823
301649
258574
300244
301265
302475
260761
259190
304120
260597
301284
259648
296795
259673
259925
260114
260156
260192
260312
260412
260418
260447
260458
260469
260537
260593
260607
260633
260704
260712
260778
260793
260855
260862
260867
260894
260904
260913
260956
260976
260978
260996
261007
261013
261049
261113
261131
261148
261181
261218
261224
261226
261270
261273
261327
261373
261389
261404
261570
261619
261649
261656
261661
261753
262290
262471
304345
262940
263108
263197
304455
305781
304962
263825
304528
260763
304861
265758
266106
266464
32040
32042
32043
32044
293356
255593
298854
297481
299721
254530
299741
298365
299396
299414
299107
257848
300859
300125
296593
302263
258646
256935
301986
257775
303821
304029
303720
303125
304632
301067
305056
259706
258759
259534
259738
259932
260100
260142
260147
260148
260275
260340
260383
260454
260461
260618
260630
260632
260648
260696
260802
260822
260828
260831
260849
260857
260917
260980
260995
261001
261031
261055
261060
261068
261100
261138
261139
261213
261234
261250
261271
261319
261325
261332
261333
261343
261381
261399
261427
261477
261511
261533
261679
304967
261763
261877
261917
261928
261967
262024
262417
305361
305569
263198
305678
304658
305154
303932
304741
305252
304844
261462
265844
266559
266813
260673
32049
32050
32051
32052
32053
32055
32056
288269
295898
297202
297901
254545
299416
298615
257070
256544
299008
300127
300312
299714
301582
300757
300452
257952
301838
300652
258497
256546
301680
258656
301156
260666
303124
301487
259739
298900
300545
258993
259678
259844
259923
259952
260193
260268
260272
260451
260473
260612
260617
260681
260689
260779
260788
260796
260798
260811
260819
260911
260944
260968
260986
261037
261080
261135
261150
261176
261204
261205
261235
261302
261311
261334
261349
302290
261391
261448
261515
261600
261645
261659
261669
261683
261686
261709
261712
261741
261864
261890
261915
261946
261947
262000
262029
262109
262194
263558
264605
261201
304237
265577
265578
305360
32057
32058
32059
32060
32061
32062
279326
284754
295078
296206
297266
298471
297078
298067
298461
298712
298387
256194
297624
300218
256743
298271
300651
301164
258753
301177
300982
302030
258139
302901
302912
258241
261367
305556
303719
256396
259979
260113
260136
260199
260328
260427
260522
260582
260610
260687
260688
260690
260755
260767
260872
260887
260890
260973
261067
261096
261145
261168
261171
261173
261229
261238
261252
261257
261305
261316
261331
261341
261385
261395
261397
261407
261426
261470
261473
261479
261495
261506
261596
304860
261682
261685
261729
261775
261776
261814
261828
261834
261849
262007
262091
262215