/*--------------------------------*- C++ -*----------------------------------*\
| =========                 |                                                 |
| \\      /  F ield         | OpenFOAM: The Open Source CFD Toolbox           |
|  \\    /   O peration     | Version:  2406                                  |
|   \\  /    A nd           | Website:  www.openfoam.com                      |
|    \\/     M anipulation  |                                                 |
\*---------------------------------------------------------------------------*/
FoamFile
{
    version     2.0;
    format      ascii;
    arch        "LSB;label=32;scalar=64";
    class       Cloud<dsmcParcel>;
    location    "0.006/lagrangian/dsmc";
    object      positions;
}
// * * * * * * * * * * * * * * * * * * * * * * * * * * * * * * * * * * * * * //

6153
(
(0.3013531544 0.2535623398 -1.626303259e-19) 413
(0.2982269496 0.2529797077 -2.168404345e-19) 413
(0.2951221618 0.2146653475 2.168404345e-19) 202
(0.2674035342 0.2176970696 5.421010862e-20) 229
(0.2784873704 0.1990545834 0) 140
(0.3034905615 0.2176227409 -2.168404345e-19) 203
(0.262330104 0.2604848115 1.626303259e-19) 468
(0.2802186238 0.2244773298 4.33680869e-19) 260
(0.2948061728 0.267909543 0) 502
(0.2853373789 0.1829792905 8.131516294e-20) 52
(0.2951442212 0.254140076 0) 412
(0.2651107607 0.2158666217 -4.33680869e-19) 228
(0.2780345722 0.2302602556 -2.168404345e-19) 290
(0.2510581931 0.263155893 0) 466
(0.2998383214 0.2395726302 0) 323
(0.2795211678 0.2156218231 4.33680869e-19) 230
(0.2658841355 0.2884864852 2.168404345e-19) 588
(0.2949292459 0.2723312947 -2.168404345e-19) 502
(0.2970652254 0.2667215291 0) 472
(0.2912269412 0.2824627547 3.794707604e-19) 562
(0.2890387546 0.2104290375 0) 171
(0.2721164936 0.2010726956 -1.084202172e-19) 139
(0.2980897831 0.2734843123 1.084202172e-19) 533
(0.2432074485 0.225758772 3.252606517e-19) 285
(0.2960957456 0.2241670214 2.168404345e-19) 262
(0.3037922066 0.1975526149 -2.168404345e-19) 113
(0.3042103056 0.2388370667 -4.33680869e-19) 323
(0.3032628513 0.2335887636 2.168404345e-19) 293
(0.2772141216 0.1874592876 1.084202172e-19) 80
(0.2942967622 0.2533344567 2.168404345e-19) 412
(0.2786505267 0.2017736707 -3.252606517e-19) 140
(0.3019281912 0.2863523784 2.168404345e-19) 593
(0.3009296926 0.2322008436 3.252606517e-19) 293
(0.2936327153 0.2336938652 4.33680869e-19) 322
(0.2614460796 0.1944859159 0) 108
(0.2984271298 0.2894560069 2.168404345e-19) 623
(0.2964451848 0.2467604876 0) 382
(0.2972381836 0.2462527545 0) 383
(0.2853475861 0.2212195438 0) 231
(0.3027594124 0.2448747459 1.084202172e-19) 353
(0.3007150623 0.2777993783 -2.168404345e-19) 533
(0.2760795645 0.1946243654 0) 110
(0.2926559884 0.2628739156 -1.084202172e-19) 472
(0.3014251229 0.2434555092 -3.252606517e-19) 353
(0.2830598754 0.2765710356 0) 531
(0.2905153939 0.2986711128 0) 652
(0.2880426915 0.2479177722 2.168404345e-19) 381
(0.2915650149 0.2163797624 -1.084202172e-19) 202
(0.3023665469 0.2248591952 0) 263
(0.2603458481 0.2616541448 1.084202172e-19) 468
(0.2996742736 0.2166514114 1.084202172e-19) 203
(0.280806822 0.2147270878 -2.168404345e-19) 200
(0.2783159329 0.2249012532 -2.710505431e-20) 260
(0.2790762722 0.2114521638 -1.084202172e-19) 200
(0.277722423 0.2189504741 0) 230
(0.26653432 0.2070697733 -4.33680869e-19) 168
(0.2884950983 0.201343733 -2.168404345e-19) 141
(0.2847191323 0.1835330317 0) 52
(0.297174046 0.1991437063 0) 112
(0.2991289349 0.1969708167 0) 113
(0.2982950262 0.2926562507 2.168404345e-19) 623
(0.2913295437 0.2907441991 -2.168404345e-19) 622
(0.2999155397 0.2526736461 -4.607859233e-19) 413
(0.2740011098 0.2272137703 0) 289
(0.2973749699 0.2033122787 0) 143
(0.2797701161 0.2321593371 1.084202172e-19) 290
(0.2886809575 0.2431744556 0) 351
(0.301661315 0.208148936 -2.168404345e-19) 173
(0.2857533352 0.2185046467 2.168404345e-19) 231
(0.2807807109 0.22901274 0) 290
(0.283702581 0.2177355462 5.421010862e-20) 231
(0.3035645214 0.2964723406 -2.168404345e-19) 653
(0.2866995405 0.1946236169 -4.33680869e-19) 111
(0.2889815602 0.1993808003 0) 111
(0.3012869147 0.2154886665 -5.421010862e-20) 203
(0.3004284103 0.2219383612 1.084202172e-19) 233
(0.301079638 0.2207535212 -5.963111949e-19) 233
(0.2770097482 0.2018372186 -3.794707604e-19) 140
(0.2735944542 0.243451925 -4.33680869e-19) 379
(0.296503486 0.2757758715 4.33680869e-19) 532
(0.3011252027 0.2300427401 0) 293
(0.2852018153 0.1664316821 5.963111949e-19) 3
(0.2998055099 0.2523226673 -3.252606517e-19) 413
(0.3014523913 0.1901721299 -3.252606517e-19) 54
(0.2884938665 0.2707470581 0) 501
(0.3028942476 0.2223651194 -2.168404345e-19) 233
(0.2999771386 0.1972517943 2.168404345e-19) 113
(0.2949609091 0.2761436403 -5.421010862e-19) 532
(0.2372710296 0.2163025674 2.168404345e-19) 225
(0.2974991328 0.1846879488 -8.131516294e-20) 54
(0.2771906524 0.235119172 -1.880413143e-19) 320
(0.2921021425 0.2780615131 0) 562
(0.2545151021 0.2627442197 0) 467
(0.2909975611 0.1878834522 0) 53
(0.3016315428 0.2531791757 8.131516294e-20) 413
(0.268783735 0.1936224723 1.084202172e-19) 109
(0.3009474778 0.2807732645 2.778268067e-19) 563
(0.2880305242 0.1997178912 0) 111
(0.2953793402 0.2142993291 2.57498016e-19) 202
(0.2670969192 0.1880404129 2.168404345e-19) 79
(0.2869117119 0.2100474126 4.33680869e-19) 171
(0.2498134664 0.245320787 0) 376
(0.3015310494 0.2252411155 0) 263
(0.2973670375 0.2469657511 -6.505213035e-19) 383
(0.3046753617 0.1940739045 0) 83
(0.2999881573 0.2942570744 -2.168404345e-19) 623
(0.3020285618 0.2048313846 0) 143
(0.2360808524 0.1832640018 2.168404345e-19) 74
(0.2860125845 0.203904462 2.439454888e-19) 141
(0.2896040289 0.2805331413 -4.33680869e-19) 562
(0.2998695451 0.2202079061 0) 233
(0.2855724966 0.2557514485 -2.846030703e-19) 441
(0.3045716734 0.2040887487 1.626303259e-19) 143
(0.276338107 0.2045833641 0) 170
(0.2974300098 0.2776956104 0) 533
(0.2768922947 0.2563637887 -2.168404345e-19) 440
(0.2991372069 0.2069567414 2.168404345e-19) 173
(0.2703896636 0.2348937637 1.084202172e-19) 319
(0.2991907321 0.1931237534 2.168404345e-19) 83
(0.302581602 0.268488255 0) 503
(0.2881529164 0.1956746544 -1.084202172e-19) 111
(0.2870017632 0.2113136962 2.168404345e-19) 201
(0.2617062213 0.2137963857 -2.168404345e-19) 198
(0.2921124167 0.1842802178 -2.168404345e-19) 53
(0.2894651814 0.197397761 0) 111
(0.282602912 0.1754907501 0) 14
(0.2710332946 0.2171190742 2.710505431e-19) 229
(0.2859107456 0.2402345509 -1.084202172e-19) 351
(0.3020689706 0.2617115462 4.33680869e-19) 473
(0.3017668426 0.2293842738 -4.33680869e-19) 293
(0.2888234836 0.2275257833 8.67361738e-19) 261
(0.2906792802 0.2151537925 0) 202
(0.2706260704 0.2160017045 -2.168404345e-19) 229
(0.2874345664 0.2095752615 0) 171
(0.2812852375 0.1866865818 0) 51
(0.2985833617 0.18709993 -2.168404345e-19) 54
(0.3038042668 0.21685392 4.33680869e-19) 203
(0.2911813919 0.2529253844 -9.486769009e-20) 412
(0.2929389235 0.2555866792 -2.168404345e-19) 412
(0.3027915796 0.2409533905 -2.168404345e-19) 353
(0.2778944195 0.2163814519 1.897353802e-19) 230
(0.2875175108 0.2986803115 0) 651
(0.2879945209 0.24725885 0) 381
(0.2740402738 0.2287203141 -1.084202172e-19) 289
(0.2872254935 0.2226377518 4.33680869e-19) 261
(0.3033727671 0.2574721943 0) 443
(0.2730164855 0.2320387459 -4.33680869e-19) 319
(0.2597527309 0.287299968 0) 588
(0.278268828 0.2114176887 -1.084202172e-19) 200
(0.2905364486 0.2716845062 3.252606517e-19) 502
(0.2693925585 0.2024864738 1.084202172e-19) 139
(0.2991182021 0.2901598389 0) 623
(0.284295382 0.1829657931 1.084202172e-19) 52
(0.2819137854 0.2552072552 4.33680869e-19) 440
(0.2997110978 0.2790035624 1.084202172e-19) 563
(0.3038903575 0.2574185309 -4.33680869e-19) 443
(0.2996249578 0.2381222529 -1.084202172e-19) 323
(0.2950300949 0.2468147881 1.084202172e-19) 382
(0.2772941221 0.1927492294 -2.168404345e-19) 80
(0.2888635233 0.2116288731 -2.168404345e-19) 201
(0.2923744092 0.2390086431 4.33680869e-19) 322
(0.2738677213 0.2047432134 2.168404345e-19) 169
(0.2959720552 0.2746927311 2.710505431e-19) 532
(0.303527102 0.175258559 0) 16
(0.3028554275 0.2147451662 1.084202172e-19) 203
(0.247731326 0.195200494 0) 136
(0.2758401453 0.2467295335 -2.168404345e-19) 380
(0.3012943366 0.2887119249 8.131516294e-20) 593
(0.2984484271 0.1836176268 1.016439537e-19) 32
(0.3025725903 0.2082816028 -4.33680869e-19) 173
(0.2709883022 0.2880192655 5.421010862e-20) 589
(0.3041237951 0.2843748383 -2.168404345e-19) 593
(0.3011325365 0.2202624019 2.710505431e-20) 233
(0.2806944408 0.2148732608 -4.33680869e-19) 200
(0.2845144707 0.2807219749 0) 561
(0.2862800271 0.1855408632 -3.726944968e-20) 52
(0.2722116388 0.1953219803 -1.084202172e-19) 109
(0.2954001285 0.208942697 2.168404345e-19) 172
(0.3045083991 0.235250384 -2.168404345e-19) 323
(0.2774441545 0.2544098185 2.168404345e-19) 410
(0.2838275292 0.2238830424 5.421010862e-19) 261
(0.2869226979 0.1845774231 0) 52
(0.2984154408 0.2297276227 -3.252606517e-19) 293
(0.2942608559 0.2180463963 -2.168404345e-19) 232
(0.2900817654 0.2226437687 -4.743384505e-20) 262
(0.2989871762 0.2304995177 -1.084202172e-19) 293
(0.2766739431 0.2179343411 -2.168404345e-19) 230
(0.2992402656 0.2495043235 3.252606517e-19) 383
(0.2957934917 0.1779396659 -6.505213035e-19) 15
(0.2872890655 0.2474828114 0) 381
(0.3035160434 0.1813611854 1.084202172e-19) 32
(0.2687086985 0.2671091583 -2.168404345e-19) 499
(0.2978297437 0.1970724699 2.168404345e-19) 113
(0.290416881 0.2593605778 -2.168404345e-19) 442
(0.2962016582 0.2549944215 0) 412
(0.2930905907 0.2559599042 -1.355252716e-19) 442
(0.2939199987 0.2071766453 0) 172
(0.2989209292 0.2007084537 5.421010862e-19) 113
(0.3023789325 0.2848286325 0) 593
(0.2538433571 0.2177712188 3.252606517e-19) 227
(0.2950821652 0.1963251317 2.168404345e-19) 112
(0.2940092943 0.2732600135 -4.33680869e-19) 532
(0.2858128485 0.2350677875 -4.33680869e-19) 321
(0.276772064 0.2132693348 -5.421010862e-19) 200
(0.2721191285 0.2369405829 0) 319
(0.294601791 0.205907252 5.421010862e-19) 142
(0.2931502493 0.2565491754 1.626303259e-19) 442
(0.2851519624 0.2375157205 -2.168404345e-19) 321
(0.2820573704 0.2280597265 -1.084202172e-19) 291
(0.2840494746 0.2306380939 -1.626303259e-19) 291
(0.3007343344 0.198919143 3.794707604e-19) 113
(0.2707361027 0.2651034137 -3.523657061e-19) 469
(0.3005599951 0.23498965 -4.065758147e-19) 323
(0.2613915652 0.2539797834 0) 408
(0.2883635478 0.2489472789 -2.168404345e-19) 381
(0.2463812845 0.2219623287 -2.168404345e-19) 256
(0.2765879495 0.2960444971 -2.846030703e-19) 650
(0.2688126636 0.1852974234 -2.168404345e-19) 50
(0.2642998045 0.1976183381 2.168404345e-19) 138
(0.301347069 0.2420390044 -2.168404345e-19) 353
(0.264902007 0.2125497871 4.33680869e-19) 198
(0.2929567181 0.1820966769 0) 31
(0.2883362872 0.2538784705 -2.168404345e-19) 411
(0.3031611508 0.2321698667 2.168404345e-19) 293
(0.2741318683 0.2122383211 0) 199
(0.2810743706 0.1833164501 -2.168404345e-19) 51
(0.2916361282 0.278457209 -1.084202172e-19) 562
(0.2845138471 0.1997103513 1.084202172e-19) 141
(0.2827217139 0.2850503959 -1.084202172e-19) 591
(0.3015060347 0.1920807574 -1.084202172e-19) 83
(0.2720602376 0.1920865484 -5.421010862e-19) 79
(0.2839218201 0.268401611 -2.168404345e-19) 501
(0.291767184 0.2591628593 1.084202172e-19) 442
(0.2672096144 0.2724888333 1.084202172e-19) 529
(0.290765162 0.2145800681 1.084202172e-19) 202
(0.2961786496 0.2903677448 4.33680869e-19) 622
(0.296895692 0.1829175315 -2.168404345e-19) 31
(0.2890341567 0.1982659688 0) 111
(0.2644044502 0.2068437549 0) 168
(0.2755830331 0.2753950191 0) 530
(0.3028173566 0.2236169948 2.168404345e-19) 263
(0.2840265093 0.299992422 -2.168404345e-19) 651
(0.2753726811 0.1661081117 -3.252606517e-19) 2
(0.2678787118 0.2218163418 -1.084202172e-19) 259
(0.2646384193 0.2471371182 -3.252606517e-19) 378
(0.2870551238 0.2007569316 -4.33680869e-19) 141
(0.2895243672 0.2092224527 0) 171
(0.2836838536 0.267188365 2.168404345e-19) 501
(0.2592874804 0.2499616695 -2.168404345e-19) 408
(0.3043965825 0.1805112515 -2.168404345e-19) 32
(0.2982404857 0.2017244815 -2.168404345e-19) 143
(0.2784974325 0.2657556741 -2.439454888e-19) 470
(0.2884840643 0.2962463393 5.421010862e-19) 651
(0.2587656322 0.187549558 1.829591166e-19) 77
(0.279973274 0.2834803529 2.168404345e-19) 590
(0.2944720198 0.2184025585 0) 232
(0.2912584277 0.2294841903 -4.33680869e-19) 292
(0.2727435215 0.2359980243 -2.168404345e-19) 319
(0.3031662252 0.2842464022 -2.168404345e-19) 593
(0.2553191362 0.2573456619 -3.726944968e-20) 437
(0.2747053357 0.2787210726 -1.084202172e-19) 560
(0.2823076176 0.2083934943 0) 171
(0.2833558933 0.2629958527 -2.168404345e-19) 471
(0.2819526123 0.2132460906 2.710505431e-20) 201
(0.3005684821 0.2224353829 0) 233
(0.2958643441 0.2197031735 8.131516294e-20) 232
(0.276462639 0.1996459257 -1.084202172e-19) 140
(0.2947354161 0.2937565858 2.168404345e-19) 622
(0.268187136 0.2710790921 2.168404345e-19) 499
(0.2987573021 0.2215362695 2.168404345e-19) 233
(0.2823236931 0.2233511689 0) 261
(0.2885394103 0.2203017056 -4.33680869e-19) 231
(0.3012618296 0.2507245857 0) 413
(0.2895401063 0.2601359878 0) 441
(0.3010535266 0.2311097595 5.421010862e-20) 293
(0.3004500294 0.2759051827 3.523657061e-19) 533
(0.2812315773 0.2740780149 -3.794707604e-19) 530
(0.2938096106 0.2421497014 -5.421010862e-20) 352
(0.2857267485 0.2481818003 -2.168404345e-19) 381
(0.2981061254 0.2376543778 4.33680869e-19) 323
(0.24748526 0.1980324355 -1.084202172e-19) 136
(0.2843963027 0.2310121264 -1.084202172e-19) 291
(0.2809832167 0.2665154006 0) 500
(0.2949083285 0.2087520018 -2.710505431e-20) 172
(0.2924915515 0.2423582639 3.252606517e-19) 352
(0.2887150275 0.2667065853 0) 501
(0.2942735291 0.2194136875 -1.084202172e-19) 232
(0.293925148 0.279950522 -2.168404345e-19) 562
(0.2973896214 0.2011604288 1.355252716e-20) 143
(0.2245676767 0.2004730155 1.626303259e-19) 163
(0.2751241971 0.2672620351 0) 500
(0.2925521465 0.2465497794 0) 382
(0.2859065699 0.2451480446 2.168404345e-19) 381
(0.2689938466 0.2660914187 -1.084202172e-19) 499
(0.2965241551 0.2306895398 3.794707604e-19) 292
(0.301044058 0.1923145366 0) 83
(0.3017576235 0.2392046815 3.794707604e-19) 323
(0.2738902962 0.2231981222 2.710505431e-20) 259
(0.2886922869 0.2403332895 1.084202172e-19) 351
(0.28849463 0.2283622794 0) 291
(0.2792554517 0.1891952502 -2.168404345e-19) 80
(0.2965724231 0.2448873435 -4.33680869e-19) 382
(0.3001738619 0.2412589202 1.084202172e-19) 353
(0.2614786201 0.2812706786 3.794707604e-19) 558
(0.2948041943 0.2089928849 1.084202172e-19) 172
(0.2960987221 0.2347529129 0) 322
(0.3027588268 0.2884276965 0) 593
(0.2730024273 0.2720994728 -2.168404345e-19) 529
(0.2905607436 0.217717678 1.084202172e-19) 232
(0.2721820401 0.2445439808 -2.168404345e-19) 379
(0.3035532201 0.2874932962 -4.33680869e-19) 593
(0.2632380781 0.256210935 3.252606517e-19) 438
(0.3000672048 0.2886120517 0) 593
(0.2987789551 0.2371649514 2.168404345e-19) 323
(0.2768183098 0.2315423107 -1.084202172e-19) 290
(0.2829463873 0.2311676202 0) 291
(0.2827943706 0.2314037875 -2.168404345e-19) 291
(0.2964174099 0.1848110602 -2.168404345e-19) 53
(0.2686325362 0.1784867454 -1.084202172e-19) 28
(0.2780799219 0.2631729301 2.947674656e-19) 470
(0.2970689199 0.2001771926 0) 112
(0.2539536796 0.24091321 -2.168404345e-19) 347
(0.3016251332 0.2655072714 0) 473
(0.2992387206 0.2780041994 0) 533
(0.2430393792 0.2666831038 0) 495
(0.2985440817 0.2359570257 -1.084202172e-19) 323
(0.2808766078 0.1987330212 2.168404345e-19) 110
(0.2650316868 0.1819613282 3.252606517e-19) 49
(0.2890608871 0.195481709 0) 111
(0.270442169 0.266702273 2.710505431e-20) 499
(0.2777273415 0.2143127884 -2.168404345e-19) 200
(0.2567821618 0.2904116669 -3.252606517e-19) 617
(0.2658697547 0.2758189165 2.168404345e-19) 528
(0.2359620036 0.2141565834 3.388131789e-19) 224
(0.2946117013 0.1902818348 -2.168404345e-19) 82
(0.2830711589 0.2941256249 2.710505431e-19) 621
(0.2873421514 0.1930667136 -2.168404345e-19) 81
(0.3032295587 0.2840916264 -2.168404345e-19) 593
(0.2593784169 0.1905052715 3.523657061e-19) 78
(0.2788319694 0.2009247214 0) 140
(0.3002172998 0.1827826598 -2.710505431e-20) 32
(0.2987552814 0.2599006943 1.084202172e-19) 443
(0.2625720014 0.2101121001 -5.421010862e-20) 198
(0.2812520507 0.2057389703 0) 170
(0.2724131071 0.2001062797 0) 139
(0.2748662826 0.2533024414 2.168404345e-19) 410
(0.3001895406 0.2333864265 -2.168404345e-19) 293
(0.3036379298 0.2128559159 2.168404345e-19) 203
(0.2815725464 0.2182885061 -1.084202172e-19) 230
(0.289977123 0.2476764241 -2.168404345e-19) 382
(0.2635824456 0.2467392384 -1.626303259e-19) 378
(0.2951615038 0.2087472714 1.355252716e-19) 172
(0.2662620951 0.1829354568 2.168404345e-19) 49
(0.2450625582 0.2189524449 2.947674656e-19) 256
(0.2843399735 0.2316217732 -5.421010862e-20) 291
(0.29674977 0.2624199539 4.33680869e-19) 472
(0.2987577056 0.2282785026 0) 263
(0.2924148747 0.245872938 -1.084202172e-19) 382
(0.2859134459 0.2823592889 -8.131516294e-20) 561
(0.2719105151 0.1782462825 -3.252606517e-19) 28
(0.2736667269 0.2258006449 0) 259
(0.301590077 0.240532998 0) 353
(0.3022071643 0.2429610298 1.084202172e-19) 353
(0.2446245475 0.2254538008 3.252606517e-19) 286
(0.283444416 0.2106738315 0) 201
(0.2865132025 0.207931025 1.084202172e-19) 171
(0.26163114 0.2425755003 3.252606517e-19) 378
(0.2818979286 0.2299447335 0) 290
(0.2833254847 0.1949522114 0) 111
(0.2690440218 0.1926404985 -2.168404345e-19) 109
(0.3045076915 0.2661705768 0) 473
(0.2872205636 0.2194899283 2.168404345e-19) 231
(0.2508217663 0.2207414044 0) 256
(0.2770275976 0.1752902741 2.168404345e-19) 13
(0.2635181213 0.2264393226 2.168404345e-19) 288
(0.2956152729 0.2505572723 0) 412
(0.2679957697 0.2691888126 -1.084202172e-19) 499
(0.2863377392 0.2329567647 -5.421010862e-20) 291
(0.2767523628 0.2192902374 8.131516294e-20) 230
(0.2950036757 0.2423071756 1.084202172e-19) 352
(0.2542672703 0.2477199775 -2.168404345e-19) 377
(0.3008861489 0.2213003313 2.168404345e-19) 233
(0.2960346116 0.2629854963 -1.084202172e-19) 472
(0.3040895538 0.218361886 0) 233
(0.3003496986 0.2049393906 5.421010862e-20) 143
(0.2780742336 0.2096742203 0) 170
(0.2691104346 0.2683958607 0) 499
(0.2652436441 0.2250367306 2.168404345e-19) 258
(0.2758560271 0.2777406956 -4.33680869e-19) 560
(0.3044219114 0.248562124 -2.168404345e-19) 383
(0.2679994545 0.2941129146 2.168404345e-19) 619
(0.2823942825 0.1914979274 -3.252606517e-19) 81
(0.2848138663 0.2386784861 1.084202172e-19) 351
(0.2665467791 0.2219260325 2.168404345e-19) 258
(0.2569566456 0.2382023051 2.168404345e-19) 347
(0.2738101253 0.2830474719 -8.67361738e-19) 589
(0.3023656158 0.1990220578 1.084202172e-19) 113
(0.2885945743 0.240512949 1.084202172e-19) 351
(0.3004863266 0.2511374373 -1.626303259e-19) 413
(0.279336851 0.299581162 3.252606517e-19) 650
(0.2533950185 0.1972039917 8.131516294e-20) 137
(0.2883039399 0.2273995135 0) 261
(0.2809523061 0.1885811028 0) 80
(0.297277192 0.2427524176 0) 353
(0.3007389357 0.2866490261 -3.523657061e-19) 593
(0.2688336516 0.2900541812 -1.084202172e-19) 619
(0.2927033887 0.2633374973 2.168404345e-19) 472
(0.264520778 0.2388368123 1.084202172e-19) 348
(0.2903861471 0.251236066 1.626303259e-19) 412
(0.2652127501 0.203237476 0) 168
(0.2829816173 0.2742213914 2.168404345e-19) 531
(0.2714068831 0.2242363463 -1.084202172e-19) 259
(0.2968581854 0.2439657813 2.168404345e-19) 352
(0.2790692444 0.2234015088 5.421010862e-20) 260
(0.2948494466 0.2372518924 0) 322
(0.2931453315 0.1977363545 -1.355252716e-20) 112
(0.2916885421 0.2482062018 3.252606517e-19) 382
(0.2847667218 0.235908552 -1.897353802e-19) 321
(0.2795351886 0.2387674378 2.168404345e-19) 350
(0.2876508358 0.2225723623 0) 261
(0.2763834916 0.2332635723 -4.33680869e-19) 320
(0.3035516467 0.1893764439 6.505213035e-19) 54
(0.2892762772 0.2095252507 -2.168404345e-19) 171
(0.2867053979 0.2084609352 5.421010862e-19) 171
(0.2644634789 0.2549138379 -4.33680869e-19) 438
(0.2904814154 0.2333767247 -4.33680869e-19) 322
(0.2706452294 0.1950325293 -2.710505431e-20) 109
(0.3006971924 0.23381145 4.33680869e-19) 293
(0.28762969 0.2688846802 3.252606517e-19) 501
(0.2993266576 0.2839119414 -1.084202172e-19) 593
(0.2941254127 0.2874027794 1.626303259e-19) 592
(0.3025258455 0.2229146388 -2.168404345e-19) 233
(0.2733260216 0.2292904517 2.168404345e-19) 289
(0.2547193296 0.2752308405 -2.168404345e-19) 527
(0.2674762908 0.2388238963 1.084202172e-19) 349
(0.2231722935 0.2079674392 -2.168404345e-19) 193
(0.2597559457 0.2792586994 0) 558
(0.2835422314 0.2505382026 -2.168404345e-19) 411
(0.2931629276 0.2084459723 4.201283418e-19) 172
(0.2809890982 0.2171480373 -2.168404345e-19) 230
(0.2937516553 0.2100186608 2.710505431e-20) 172
(0.2599485132 0.2093689631 1.084202172e-19) 198
(0.2788006215 0.267217249 8.67361738e-19) 500
(0.2935464788 0.2626665386 4.33680869e-19) 472
(0.2727797566 0.2592141196 0) 439
(0.262763075 0.2006440115 -1.084202172e-19) 138
(0.2942772447 0.2017663164 2.168404345e-19) 142
(0.2927598621 0.2946053226 0) 652
(0.3046922952 0.2745607985 2.168404345e-19) 533
(0.2692381372 0.2097360177 6.505213035e-19) 199
(0.2964014327 0.2358312293 4.33680869e-19) 322
(0.2943629684 0.1985814461 0) 112
(0.2936409229 0.2172002552 -4.33680869e-19) 232
(0.2933656776 0.2245509766 2.839752402e-19) 262
(0.279220091 0.2339179603 0) 320
(0.2948636127 0.2332308733 1.084202172e-19) 292
(0.260738853 0.2479602096 3.252606517e-19) 378
(0.2453012407 0.2115020971 -1.626303259e-19) 196
(0.293437733 0.2649585809 5.421010862e-20) 472
(0.2551648446 0.1920133622 2.642742795e-19) 107
(0.2906753975 0.2861911693 1.423015351e-19) 592
(0.2940594492 0.2614316421 0) 472
(0.2797230926 0.2292026615 -4.878909776e-19) 290
(0.2689901345 0.2707233222 0) 499
(0.2875158336 0.2287103588 -2.168404345e-19) 291
(0.2854438588 0.248154917 1.084202172e-19) 381
(0.2866487605 0.1960624916 1.084202172e-19) 111
(0.2692885863 0.2754577136 3.523657061e-19) 529
(0.2583501968 0.1808979822 0) 48
(0.297000144 0.2055580459 0) 142
(0.2989582017 0.1744012846 0) 16
(0.2773058753 0.207231272 -2.710505431e-19) 170
(0.2777246597 0.2169913842 1.897353802e-19) 230
(0.2495506995 0.2129284748 4.33680869e-19) 226
(0.2621830087 0.2189052369 2.168404345e-19) 228
(0.2942435229 0.2073330898 -2.168404345e-19) 172
(0.2890496443 0.280955305 0) 561
(0.2944083104 0.1836118618 2.168404345e-19) 31
(0.2800069455 0.2998830511 -2.168404345e-19) 650
(0.2599295143 0.1996560841 -5.421010862e-20) 138
(0.2944670961 0.2312556856 -2.168404345e-19) 292
(0.2519398482 0.2067097963 2.032879073e-19) 167
(0.2735922841 0.233287638 -2.168404345e-19) 319
(0.2474565902 0.2371647919 2.168404345e-19) 346
(0.2720359501 0.2268840031 2.168404345e-19) 289
(0.2883997427 0.2916107802 3.625301014e-19) 621
(0.2904416851 0.2709460626 0) 502
(0.2655125345 0.1973619769 0) 138
(0.2368739175 0.2106782598 -2.168404345e-19) 195
(0.2908552561 0.2854929192 0) 592
(0.2878854487 0.2439163511 -4.33680869e-19) 351
(0.2795402273 0.2681775997 2.168404345e-19) 500
(0.2817205408 0.2467817097 4.33680869e-19) 380
(0.3042049139 0.1991360897 4.33680869e-19) 113
(0.2709352991 0.2448247606 1.084202172e-19) 379
(0.2454553328 0.1846658075 -2.168404345e-19) 76
(0.3021530218 0.2012254227 -1.084202172e-19) 113
(0.2921666819 0.2207878057 1.626303259e-19) 232
(0.2836208328 0.2879252502 -5.421010862e-20) 591
(0.2679548806 0.2762422905 1.038674152e-19) 529
(0.3035746466 0.2633789196 -2.168404345e-19) 473
(0.2907079901 0.22683829 2.168404345e-19) 262
(0.2745134958 0.2830027791 -2.710505431e-20) 560
(0.2981810216 0.1833878235 -2.168404345e-19) 32
(0.2701814074 0.2547320107 -5.421010862e-20) 439
(0.2914484776 0.191168256 0) 82
(0.3021628869 0.2378510112 -1.084202172e-19) 323
(0.2514000453 0.2165953521 0) 226
(0.2706036903 0.2188826086 -2.236166981e-19) 229
(0.3040303071 0.2373295046 -2.168404345e-19) 323
(0.2869079147 0.2446724865 -4.33680869e-19) 381
(0.281585373 0.1862078327 0) 51
(0.2548676176 0.2798565202 2.168404345e-19) 557
(0.268546521 0.291143654 -4.33680869e-19) 619
(0.275159488 0.1948822277 0) 110
(0.2803183747 0.2720351715 -4.33680869e-19) 530
(0.2912935973 0.2310068348 -5.421010862e-20) 292
(0.2871379691 0.2776404639 0) 531
(0.2550411561 0.2458870573 -4.33680869e-19) 377
(0.2483787899 0.2143802037 -1.084202172e-19) 226
(0.2654978391 0.2876235119 4.33680869e-19) 588
(0.2733234776 0.1872720514 -2.168404345e-19) 79
(0.2710648064 0.2142172074 1.084202172e-19) 199
(0.3006072326 0.2284525753 0) 263
(0.2593246652 0.2125599001 2.168404345e-19) 198
(0.2519949617 0.244758671 2.168404345e-19) 377
(0.2571125802 0.2705177732 0) 497
(0.2868541733 0.2859408992 6.776263578e-20) 591
(0.2971100625 0.2957385511 2.168404345e-19) 652
(0.2578681281 0.1980577295 1.084202172e-19) 137
(0.2376266207 0.2088458751 -1.626303259e-19) 195
(0.2627677798 0.2112255802 -3.930232875e-19) 198
(0.2570307623 0.2239905116 3.252606517e-19) 257
(0.2579607303 0.2123735767 0) 197
(0.2620258164 0.1991308482 -1.626303259e-19) 138
(0.2639165461 0.2274844703 2.168404345e-19) 288
(0.2863856242 0.2230155957 2.168404345e-19) 261
(0.2808835245 0.192802323 4.33680869e-19) 80
(0.2789691561 0.232268712 5.421010862e-20) 290
(0.2495053608 0.2941871791 -4.33680869e-19) 646
(0.2789934852 0.2878530615 -4.878909776e-19) 590
(0.2647097323 0.2183653969 0) 228
(0.2902599099 0.2406286413 0) 352
(0.2655912626 0.2372491366 0) 348
(0.2735606852 0.293996146 -4.33680869e-19) 619
(0.2525170311 0.2489411201 4.878909776e-19) 407
(0.2771753545 0.1988318393 2.168404345e-19) 140
(0.2670582364 0.2189142702 0) 229
(0.228165896 0.2330004723 4.33680869e-19) 313
(0.2559855752 0.2910900992 -2.710505431e-19) 617
(0.2701653078 0.2074176552 0) 169
(0.2367988913 0.2541099066 -2.168404345e-19) 435
(0.2236789653 0.1774524525 5.421010862e-20) 44
(0.2668922422 0.2402467193 1.897353802e-19) 349
(0.2523006541 0.2588053813 5.421010862e-20) 437
(0.2759788209 0.2126026494 -2.710505431e-19) 200
(0.2817505432 0.1847962609 -5.692061406e-19) 51
(0.2861204901 0.1879452156 2.981555974e-19) 52
(0.29724625 0.2405489068 3.252606517e-19) 353
(0.2832627202 0.2282747969 -9.486769009e-20) 291
(0.2871247799 0.2421941147 1.084202172e-19) 351
(0.2748656514 0.2117119896 0) 200
(0.2779611915 0.2947333526 -6.776263578e-20) 650
(0.2768434496 0.2785604053 -3.252606517e-19) 560
(0.2940966251 0.1978872204 -5.421010862e-20) 112
(0.2999411298 0.2501813473 0) 383
(0.2502458208 0.1842734075 0) 76
(0.2789538316 0.1932228881 6.505213035e-19) 110
(0.2528052423 0.2336402309 2.168404345e-19) 317
(0.2830042835 0.2603005926 -3.523657061e-19) 441
(0.2987985831 0.2440698227 -1.355252716e-19) 353
(0.2568768666 0.1813557914 -1.626303259e-19) 48
(0.2884633995 0.2367946305 -2.168404345e-19) 321
(0.2829932258 0.2447386673 1.355252716e-19) 381
(0.2951078941 0.2579888172 5.421010862e-20) 442
(0.29092941 0.256925764 5.421010862e-20) 442
(0.2810044812 0.278245972 0) 560
(0.2328368604 0.2265889479 1.084202172e-19) 284
(0.2727807984 0.2491723819 -4.33680869e-19) 409
(0.2951915388 0.2446629508 -4.33680869e-19) 352
(0.2526353793 0.2204091998 -1.084202172e-19) 257
(0.2683549128 0.2027897655 1.084202172e-19) 139
(0.2886450515 0.2573227322 0) 441
(0.2959238068 0.1983842017 0) 112
(0.2747436842 0.2571478837 0) 440
(0.2640600956 0.1816895232 1.084202172e-19) 49
(0.2570399336 0.2247106436 4.33680869e-19) 257
(0.2917524273 0.2953648598 1.084202172e-19) 652
(0.2905682494 0.2166254797 -1.084202172e-19) 202
(0.2756446616 0.2269923221 -4.33680869e-19) 290
(0.2652858464 0.2699731108 -2.168404345e-19) 498
(0.2656370911 0.2678492469 -2.168404345e-19) 498
(0.2650439635 0.2071249032 0) 168
(0.2715513586 0.2205221153 0) 259
(0.2614726873 0.2487841973 3.252606517e-19) 408
(0.2982725084 0.1987399076 5.421010862e-20) 113
(0.2614166215 0.2526795078 2.168404345e-19) 408
(0.3047493018 0.224916767 -2.168404345e-19) 263
(0.2266806176 0.2478113463 1.084202172e-19) 403
(0.2520036811 0.2079211164 -3.252606517e-19) 197
(0.2865230921 0.1997492954 -4.33680869e-19) 141
(0.2634783369 0.2081797836 2.710505431e-19) 168
(0.266546947 0.2115217863 4.33680869e-19) 198
(0.2812022583 0.1766246967 0) 29
(0.2905593178 0.1878537161 0) 53
(0.2543613751 0.2863257031 -2.710505431e-19) 587
(0.2638522488 0.223204716 2.168404345e-19) 258
(0.2479729567 0.2129956884 0) 226
(0.2591406972 0.2173601846 1.084202172e-19) 228
(0.2514177848 0.2594618659 4.33680869e-19) 466
(0.2997699223 0.2659400984 -2.168404345e-19) 473
(0.2562869882 0.2635528597 0) 467
(0.2532889424 0.2457619676 2.168404345e-19) 377
(0.3034117194 0.2308879107 1.084202172e-19) 293
(0.2838818458 0.2319438008 1.084202172e-19) 291
(0.2562767787 0.1929016322 -2.032879073e-19) 107
(0.292541736 0.2619885976 1.626303259e-19) 472
(0.2534996362 0.2543203385 1.084202172e-19) 437
(0.2399279256 0.1814824535 -2.168404345e-19) 46
(0.2667669174 0.2222407445 4.33680869e-19) 259
(0.253821325 0.2529599445 -2.168404345e-19) 407
(0.2542816971 0.2169989252 -8.131516294e-20) 227
(0.2943449388 0.2256766232 0) 262
(0.2442076109 0.2562908818 0) 436
(0.2743658895 0.2701196725 0) 500
(0.2854587719 0.2902126377 -2.981555974e-19) 621
(0.2818934373 0.2306415461 -4.33680869e-19) 290
(0.2669019148 0.2515126047 1.151964808e-19) 409
(0.2312373827 0.2786716471 2.168404345e-19) 554
(0.2934912185 0.2447896719 8.67361738e-19) 382
(0.2888280335 0.2972026599 2.270048299e-19) 651
(0.2484528135 0.2594258118 0) 466
(0.2753787439 0.1760337403 2.168404345e-19) 29
(0.2599799796 0.2116528797 1.084202172e-19) 198
(0.285923977 0.2274647058 0) 291
(0.2951398521 0.2370513247 2.168404345e-19) 322
(0.2716681533 0.2454480214 -5.421010862e-20) 379
(0.251269046 0.1961369892 -2.168404345e-19) 136
(0.2765901767 0.2244895765 3.252606517e-19) 260
(0.2737787738 0.253303702 2.168404345e-19) 409
(0.2570341538 0.2216463382 2.168404345e-19) 257
(0.2699202016 0.2270442812 2.168404345e-19) 289
(0.2896688274 0.267129841 -1.626303259e-19) 502
(0.2683205871 0.1969747134 0) 109
(0.2691415744 0.2048408163 -1.084202172e-19) 169
(0.2924843408 0.2709721728 0) 502
(0.2848968135 0.2348671882 -3.252606517e-19) 321
(0.2916456718 0.2001568347 0) 112
(0.2875282763 0.2265271861 2.168404345e-19) 261
(0.2827258447 0.2921440049 1.084202172e-19) 621
(0.2541828509 0.1784353183 3.252606517e-19) 48
(0.2573372151 0.2775585299 0) 557
(0.2529609089 0.2121595818 -1.626303259e-19) 197