/*--------------------------------*- C++ -*----------------------------------*\
| =========                 |                                                 |
| \\      /  F ield         | OpenFOAM: The Open Source CFD Toolbox           |
|  \\    /   O peration     | Version:  2406                                  |
|   \\  /    A nd           | Website:  www.openfoam.com                      |
|    \\/     M anipulation  |                                                 |
\*---------------------------------------------------------------------------*/
FoamFile
{
    version     2.0;
    format      ascii;
    arch        "LSB;label=32;scalar=64";
    class       vectorField;
    location    "0.006/lagrangian/dsmc";
    object      U;
}
// * * * * * * * * * * * * * * * * * * * * * * * * * * * * * * * * * * * * * //


6153
(
(1224.397656 173.7312441 -146.446764)
(1035.296291 171.5121993 -170.0876406)
(1872.790313 -510.4972288 867.1788701)
(1627.310058 316.23848 574.5163206)
(1316.417373 521.5649031 138.355783)
(996.1656259 475.8997948 -59.20242143)
(253.84291 1024.058795 494.6810416)
(2018.781608 211.049834 153.0370982)
(1411.600013 -120.2884434 -404.5079886)
(1671.677306 245.0259152 -577.4185112)
(1457.276416 915.2790958 -94.79497771)
(1379.935803 760.7169508 53.51439256)
(1195.315238 -88.96677608 -140.4712666)
(1129.983451 242.1814187 535.3531719)
(1616.629668 -164.8052258 225.2186303)
(1352.06961 1145.136037 -231.2593161)
(475.2402372 509.3435672 115.8232366)
(1277.030575 -75.60236795 -181.4743117)
(1043.414397 -55.29774571 -61.38205742)
(1477.991523 480.6007941 180.4778682)
(907.8032404 1437.642976 652.0077049)
(1126.170179 527.4931019 -171.8841019)
(902.7501813 292.880934 453.2494193)
(1836.429024 -31.10384439 -328.3210613)
(1566.44865 -64.87069263 1087.66089)
(1679.627494 610.5450232 -747.2634944)
(495.9091874 739.1737084 42.96200864)
(1130.543364 -219.0248013 -469.314869)
(927.036675 456.9845198 -335.7317614)
(1282.159036 -45.98333205 114.894671)
(927.8933103 1084.531747 -597.4688674)
(1791.365178 144.1080183 135.7750498)
(911.6958665 1280.061459 231.7134203)
(1767.086228 154.4758542 -91.71872223)
(868.3116452 288.7262383 -170.519678)
(1224.141534 -91.63014003 -0.6646369396)
(1362.678565 1638.259274 -171.0209804)
(2403.376574 590.8228534 499.9228573)
(1644.235047 -969.473507 -120.5732831)
(947.1944103 248.7658243 22.25054171)
(1685.437138 400.6791244 306.8258153)
(1659.598988 593.0395671 -929.7795973)
(1516.76371 218.2403645 619.9312632)
(1473.246032 -253.631324 275.1295152)
(480.0363409 387.5240087 780.743962)
(1666.868672 417.56533 341.5611216)
(949.8353848 347.2885901 250.2087287)
(1452.289109 668.7914279 -590.3062542)
(1384.821031 -98.85526058 244.2490013)
(563.906114 -34.19913734 121.4863821)
(1016.898345 11.03194755 401.05441)
(248.7624136 1084.865832 247.8339952)
(1258.409905 -261.3084143 1126.313925)
(1050.755186 -18.80126381 -460.2365319)
(1666.640996 -281.9223654 -53.39099744)
(1682.154572 55.06157049 -168.6160088)
(1604.14447 1236.085111 25.46336744)
(2119.005765 -189.1356048 337.9302016)
(1054.053075 676.1585812 111.1968901)
(1599.6259 479.6491395 -102.6224203)
(1541.055261 126.7038136 -89.15330341)
(1552.937397 315.8852195 -539.0269625)
(1654.256953 1519.535562 -574.3438773)
(1488.319723 -462.0275426 -90.15558664)
(487.0329726 406.7158153 402.7509898)
(1116.382444 143.6695006 -681.6749379)
(1669.468915 -127.937841 98.78476891)
(1251.100001 174.0936244 441.9370939)
(1448.577465 -145.313945 386.9606712)
(1402.512594 26.97038241 -826.0353272)
(1100.825771 481.4671326 105.9303992)
(1640.473978 138.7671066 111.9475442)
(2498.205248 155.714929 -425.541841)
(1281.878204 -183.5467751 -96.12729793)
(1549.744609 847.2985368 647.3659429)
(1412.217603 1081.190698 129.2867162)
(1834.868946 484.0748107 604.9324676)
(744.2475088 562.3540987 -129.8039245)
(1535.327361 -35.27331505 153.6566112)
(1369.568425 622.5836224 645.2963909)
(872.3148029 145.2733545 -143.4316247)
(1329.584137 73.03491025 439.4664007)
(1453.719639 -282.766982 -275.9028428)
(1193.378805 632.1610741 -142.1782823)
(1401.023463 642.2375228 -55.82241229)
(1358.043801 418.2785502 442.2222914)
(922.5985972 132.8640309 907.9991264)
(1332.594865 112.337733 -221.1161161)
(337.7493152 1068.993882 -8.425655547)
(1980.938635 -126.5779183 35.47721431)
(1278.482117 -341.8677281 -36.46194855)
(1691.16589 26.75330443 -145.0894359)
(1062.459037 -185.7868133 -379.213176)
(1521.016829 136.8785572 508.0193265)
(1595.955768 64.01497852 -273.5009856)
(1166.431469 231.8596497 217.8128601)
(1703.025292 2.867748103 -197.6240394)
(1650.89444 -208.879948 346.032264)
(1304.635201 317.6389705 315.0558735)
(374.3093083 926.5789319 96.36850788)
(1715.610212 241.9988182 -56.82367268)
(1060.707216 790.6608072 772.7756715)
(1645.818638 63.37325993 54.00290538)
(1410.2481 274.9797521 -211.3124806)
(629.5633883 408.6294774 358.2912605)
(1706.059567 -254.2670141 -733.8900128)
(530.1934036 1092.141116 -79.59505831)
(49.1377763 136.4740978 -78.2743245)
(1617.520021 -60.40914865 -274.4842686)
(1578.306414 -29.25685004 -269.2482462)
(954.0151922 -624.9198395 -167.104727)
(1360.367071 51.60550332 -663.6947247)
(1840.803189 741.9151483 247.4066164)
(2169.047339 1003.727361 311.8868802)
(1840.490326 -468.8848855 -154.1620059)
(1296.029199 459.402001 41.11700719)
(1848.332599 73.26810774 -1428.830101)
(1367.185178 505.4129455 221.4035043)
(1474.889542 816.4680876 -171.1642879)
(1870.839637 826.1127812 62.82751642)
(1587.111269 -148.8827057 412.6837753)
(1144.93663 478.3173436 -254.160904)
(575.6383646 127.8036604 331.2732365)
(1950.754686 934.3377493 -870.9340549)
(1096.873716 742.5220396 -362.1882302)
(274.9887145 619.3561284 -984.0095992)
(1275.186154 -643.1979473 -33.29221352)
(1840.574673 -641.0056806 -822.4262222)
(1902.050867 898.0085067 171.390849)
(1215.488324 429.9095568 -289.7035672)
(1685.941413 279.9538421 486.7188325)
(865.6023805 921.4049707 -13.04085962)
(2058.274205 -110.3951717 -98.68563107)
(2155.673255 441.2109502 -112.7577736)
(503.2300834 812.8285311 99.42305049)
(1091.00506 156.2842217 153.2122292)
(1431.607244 5.098137808 607.7624478)
(1258.511541 -92.62486949 -96.87154135)
(1177.243694 755.8642159 -201.3025536)
(1874.406787 -14.0605195 -9.872614318)
(1684.971589 288.3529623 647.2470034)
(1168.613794 135.9865458 141.2592037)
(1506.547595 288.5686084 -49.69266308)
(1588.419726 1007.948297 420.8771833)
(2052.872997 555.6548896 645.3764504)
(1862.433008 139.2727976 -284.0102886)
(1237.119926 261.6971629 -230.7999144)
(1294.616967 142.0051138 -203.1245702)
(1174.46388 870.6246092 470.1055686)
(1720.042515 -54.4959767 -82.83204382)
(1143.746801 -159.259833 268.9710733)
(1288.531702 1125.716624 -89.73869682)
(341.7557966 1059.818426 -63.48611407)
(1553.111007 -339.1105932 376.3284078)
(1143.037034 -397.1493915 221.0294752)
(1275.762941 -211.498775 204.9059865)
(1493.837401 535.9453177 458.5692204)
(1438.388308 -293.0498485 -85.7991518)
(1250.135346 906.0893839 -800.5931273)
(2557.821285 933.3969386 -164.0078278)
(285.6073346 304.5057062 367.9666034)
(956.833181 103.2272074 -632.7533224)
(1609.211415 158.2336681 -102.3864873)
(1249.495186 -249.7200114 668.8054683)
(1233.398548 818.6321061 -571.7216196)
(1225.706688 667.8673401 765.396104)
(2011.967352 590.1664284 -194.6268882)
(1836.141549 21.12893587 11.16629079)
(1464.953194 265.3214865 -30.3689399)
(944.0078632 98.47414894 -134.43639)
(1645.203278 -280.8275002 86.54058366)
(1511.385371 -164.4110064 219.9271823)
(2049.098095 -131.461279 -445.7039567)
(957.8243229 -374.0913127 167.1565897)
(1611.640981 258.2710998 -50.51432487)
(1131.961631 460.5500774 -165.0589568)
(1523.280163 568.9460153 -601.9058878)
(1183.647467 383.4569273 -135.4756824)
(1197.755912 -30.89919533 -77.90580513)
(1762.036003 293.171578 -230.8254018)
(645.9098512 435.6570382 -539.7558085)
(2007.91013 98.15663186 372.010065)
(1673.601779 -302.7939004 -476.462308)
(1450.539051 177.4847083 -27.98208458)
(291.907915 590.9392061 54.88332859)
(1640.890767 286.7472949 331.2212587)
(1552.837248 983.186778 408.586729)
(2045.02378 373.2715416 398.1173844)
(1990.304921 119.3185579 271.3761687)
(1161.526801 1372.667003 877.9206333)
(1536.716181 545.2364598 -393.3724515)
(1614.093933 -107.2993897 100.5234633)
(1775.661468 77.81806535 255.3113882)
(1431.972483 -2.929397037 -262.6523956)
(580.07738 -206.1383741 -793.9755359)
(1365.692698 285.7305497 -434.9232146)
(1625.538644 -140.1864539 -1.847606578)
(816.0105393 365.6372959 -9.462893441)
(1708.107847 -478.7735956 252.5042923)
(1468.724476 361.8393471 447.580194)
(1624.216028 -96.46864086 -240.2467962)
(1777.010585 -111.5872697 -299.8817011)
(1628.356885 145.3048222 61.28067917)
(1512.176967 482.7062387 27.30322558)
(2178.682314 283.7016301 151.1913425)
(1655.658538 -254.1775746 180.6823042)
(1132.427459 -657.0317493 265.1208323)
(978.8849079 -643.6483572 -129.8729115)
(1521.19678 144.2986961 -102.9850566)
(2060.820418 1010.426226 -68.86122118)
(2054.789027 365.3949317 39.22968195)
(1561.184462 147.2161659 -75.22095038)
(1673.438447 978.5878194 -40.82864576)
(2263.978166 -16.19946439 -355.2369635)
(1285.122632 74.68078555 -127.7037502)
(1220.945641 54.54989918 -364.5670325)
(1740.168797 356.0023314 -233.5861772)
(1166.029145 -313.3973129 -620.7854523)
(1534.563958 -219.9680805 -274.671556)
(1892.111037 -126.9573536 245.8076345)
(1684.9003 312.0197128 452.0718753)
(1042.979348 -101.2052941 -3.463701267)
(1580.806113 -215.954577 -605.075845)
(1042.30407 494.6754319 -87.86028152)
(1587.330442 514.8754656 11.88501123)
(854.4460654 -248.4697317 -596.6741659)
(1446.690671 -454.0720515 283.5296268)
(1654.303144 328.2954273 -913.2419189)
(1885.368263 147.4588943 -272.3448252)
(550.0029903 -49.79141659 623.5930655)
(1683.858805 -10.73634528 357.3498958)
(1796.067723 191.5577277 632.3964345)
(1592.890224 -76.18016202 -143.1335547)
(1525.636136 -427.9353146 176.9489398)
(1514.421577 -255.0874217 -444.6120327)
(1671.722759 -353.1294116 -319.1366554)
(1347.451688 563.8501165 543.6419455)
(1720.406477 1485.778997 -738.3801419)
(1802.923323 -238.8473162 75.00885497)
(1878.58736 -247.2520352 -434.2331644)
(2250.953541 122.5473244 74.9215347)
(1454.213422 780.5262332 2.41190605)
(1072.146116 -402.9981817 41.06457119)
(1761.767476 -17.91174419 575.6213482)
(1496.142176 -430.619548 -134.5181365)
(1644.88002 388.8482416 -312.6073635)
(1665.121308 216.7692439 154.1229216)
(1816.965265 184.1248755 243.1972703)
(1685.115346 1217.517905 -267.9006703)
(1096.615614 -98.39519512 -566.0019898)
(1611.922884 169.166602 -542.8013849)
(1525.545717 -22.72748534 454.8669574)
(1674.453836 -36.339745 -66.74300696)
(965.3496244 245.1181012 -289.884224)
(1946.556633 236.2466858 -44.37987141)
(740.2433223 527.7988756 361.69361)
(1876.627634 200.4876829 254.8304718)
(472.1622406 406.913025 132.2481389)
(1956.946188 54.52116815 -119.3780179)
(1013.73648 149.0090028 -229.6897458)
(1735.317702 -318.938959 195.6914887)
(892.2174419 176.2165919 -75.76691147)
(1773.887556 479.8571327 259.8690869)
(979.7715674 -211.7284944 185.549978)
(960.9533481 457.4138431 292.5080145)
(1564.544254 -667.628401 -60.62788136)
(996.3060262 -203.028402 -245.9698581)
(1992.809239 459.4468815 125.1534098)
(1724.25913 76.7690676 -374.5173938)
(990.0072744 -192.3267335 -575.3914191)
(2020.91997 -55.3096376 -146.1797758)
(2493.191532 980.8166676 175.3728526)
(2264.960243 258.6881631 175.2248236)
(2114.941694 -25.01168404 -90.96547929)
(763.370012 554.7554361 -335.6583695)
(1719.060518 40.51123877 435.3766748)
(1427.433241 312.0119061 -22.3738833)
(1647.206637 260.4060209 -125.4779599)
(1216.142218 241.1377404 -547.6677768)
(1843.986943 1039.43887 239.0715088)
(1717.455122 -135.1862891 -244.7991153)
(1742.747311 224.9057472 11.27022436)
(1614.163083 61.25265061 -231.0444567)
(1420.459608 285.5705921 -149.6848169)
(1319.051862 -154.5232096 -199.7823483)
(1197.164899 1291.420538 96.89384202)
(2550.163741 26.78726481 -755.4833878)
(1597.426714 179.0216373 114.0635289)
(1606.13944 965.5100534 -173.2257912)
(726.6600487 -132.5217672 40.36932171)
(1038.813487 256.9863945 1.565612356)
(421.3078857 157.7853108 897.2250003)
(1840.808426 686.3980777 113.3856375)
(1310.827501 125.3679118 129.2143979)
(775.7521354 185.0191623 -77.87963636)
(1121.664514 758.7075125 93.08736167)
(1945.54161 -87.75212273 241.9613845)
(1213.090713 705.6976213 571.702198)
(1130.282712 338.9133679 -232.3328631)
(1808.72009 1169.725008 -137.6514911)
(1590.313423 -469.6013365 -58.31037474)
(1028.827658 583.1169665 -432.5059254)
(1934.38821 30.32502952 272.4084189)
(1463.319946 -232.9418901 -24.31208896)
(1651.536233 -238.336304 128.557629)
(1350.470077 -330.9100718 16.0694325)
(1727.854603 39.06148602 137.7427427)
(1227.460398 85.50929037 403.2634116)
(1038.903296 1024.041883 -585.6692298)
(1422.446993 495.4837496 -117.8632089)
(2415.763429 -549.3022421 234.8293053)
(1956.236272 116.0972459 468.1859409)
(1632.527318 -94.84997133 38.51751672)
(1603.223844 -335.796848 -24.72677029)
(1369.996971 180.1793369 -777.6084329)
(1499.96547 -566.8577904 -496.1326792)
(2087.714541 -131.5026451 -349.552169)
(1341.271502 308.3349732 -372.2486722)
(953.2696778 -199.6473957 -135.3138693)
(1610.457266 -82.84069411 19.55998482)
(1685.079703 -23.03273229 26.3242136)
(1120.60324 -473.2554459 -4.53039927)
(2054.15781 -357.1937197 164.5350781)
(1953.570004 -66.67170277 367.3853475)
(1097.321015 261.1236613 -87.68202291)
(1769.217211 157.9850302 -5.176546841)
(1797.822962 67.57109372 231.9611364)
(1489.318866 -316.8069018 -466.7066354)
(1631.283297 528.1552891 122.9174518)
(1341.583517 72.01764115 -554.082292)
(1564.595632 296.0772518 198.6830094)
(1627.885919 251.9555536 -85.98916921)
(1209.960358 -179.2960183 -293.3033067)
(1548.934856 312.5344138 1090.506065)
(1529.550321 435.8936744 -308.2049986)
(1515.673557 208.7378462 -44.09847745)
(1570.135482 -356.145907 -376.2003417)
(2096.293664 99.88943312 271.1126764)
(1799.301921 115.2128267 63.28900697)
(1420.061075 538.8803632 -802.3753305)
(1000.271566 -103.2677108 -686.1838917)
(1846.519137 -183.886966 107.7821463)
(1413.832283 458.0222126 339.713409)
(1351.386576 946.1725949 -183.5484288)
(1027.371277 701.6743385 -436.6757883)
(1477.97249 -9.603248159 -876.9658197)
(1739.542671 16.46927083 -461.2188652)
(571.503281 304.3902884 -514.1450015)
(2091.281345 444.0491377 -403.4073661)
(1934.737357 -139.4050802 -408.7548764)
(1444.935725 184.3137157 -96.49433161)
(1669.241768 -151.4436695 -349.1797069)
(1684.73212 285.6738874 185.3561378)
(1986.262122 679.8232923 -114.0729453)
(1592.50574 93.82974588 -225.6686975)
(1594.781844 -107.2488494 -74.25164192)
(1472.008591 411.8466847 -232.0746404)
(1606.741225 38.48557029 -291.6330588)
(1152.282001 -126.8841306 -32.06847046)
(1777.09901 -454.4845335 215.2520312)
(824.3679418 -49.47781848 -600.1295169)
(1536.357599 250.0642893 -901.2819645)
(1580.270054 165.8066377 -237.2563672)
(1002.513346 111.6239095 207.3884415)
(1082.928443 645.2010565 650.7294101)
(1660.906815 -64.35338342 212.6620326)
(1133.869087 -114.431699 -249.1912029)
(1384.76167 590.4916907 -500.5198816)
(1607.925805 -153.0016188 -3.744629787)
(1714.225687 399.1396993 -329.3225081)
(1790.012146 205.2634092 350.9357991)
(1191.178445 1018.921025 -28.82344413)
(1711.734633 -1.293037692 -396.1709058)
(1050.372903 469.6742714 19.87377605)
(1775.253434 1313.588701 -708.9742896)
(1791.953279 -66.46177408 -238.1007666)
(1324.568004 -83.65958206 251.4295111)
(1664.945849 -383.1421061 540.5583892)
(2021.567071 146.2118833 20.52238444)
(1754.135256 -87.5147239 -17.87246501)
(2309.10797 15.67955732 -11.41462866)
(2027.529985 -204.2188644 -133.1227043)
(2026.055165 222.172872 -172.5125693)
(2116.038555 902.8041132 563.3303839)
(1636.203921 381.396649 -576.1588583)
(2138.379821 2.040740168 248.0575347)
(1524.195949 466.9250783 -49.42357752)
(1969.294314 405.9486061 -547.2377786)
(1516.716636 288.1168743 -555.3098147)
(1612.744938 326.6087504 387.5299893)
(1447.596497 243.8513382 181.3948824)
(1689.418865 311.1521675 63.62779376)
(1734.887232 37.07684801 -173.371476)
(1291.776357 -151.6182414 -530.0573165)
(1897.335807 -897.847175 231.0749282)
(1416.466531 25.7070338 334.5909617)
(1664.408632 703.5765372 81.5449799)
(1468.08868 60.38832606 470.9104437)
(1860.322248 -169.3239042 -32.28645299)
(1866.843716 294.1946013 74.51214613)
(799.1372242 265.0728744 778.6385788)
(1889.825238 379.654818 -618.6037541)
(2007.702505 650.7686 -524.857084)
(1800.714762 309.136159 214.2594487)
(1944.860227 -87.92048655 -256.9820784)
(1601.80815 -248.8128926 -122.85511)
(1456.072053 -40.02699912 550.2410463)
(1752.960388 98.33495891 -91.86539986)
(1666.433597 392.9719439 -77.30603789)
(1392.796566 -448.9539725 301.2612904)
(1638.983373 -229.7164179 157.3503476)
(1748.339827 138.9001722 96.00240549)
(1526.668806 -57.22708591 -235.4350917)
(1831.233661 -208.5913254 138.5302707)
(2047.036763 -49.35302712 132.7894852)
(1040.05616 956.3753685 -36.36426435)
(859.614794 934.4459459 -132.2636463)
(2064.2565 101.9986751 -612.5473347)
(1680.187522 -256.8611621 436.2547871)
(1186.70704 1055.378136 465.1487066)
(1720.595925 557.3267046 49.82367791)
(1728.102532 -387.4288934 908.3456011)
(890.2309812 463.8818063 228.6819458)
(1881.508358 56.44891922 -59.92860783)
(1551.691514 -219.9172501 399.490866)
(1560.288533 85.00337255 -34.89391866)
(1912.174643 539.0535487 114.162383)
(1632.880844 170.0719865 -435.5593256)
(1688.25991 -191.3511731 -30.08761788)
(1778.17523 -9.706160515 462.61116)
(1878.113205 419.5694824 181.3968042)
(1949.789205 -373.5157863 -397.5122981)
(1541.432878 1145.840859 380.8366711)
(2215.763372 482.5837655 -419.3020731)
(1470.029068 814.455484 660.3246131)
(1411.03173 597.3327656 -268.613251)
(1739.700482 90.62384755 443.5805242)
(1752.284043 -114.5832966 202.810507)
(1322.231366 821.4834864 107.8970987)
(1038.787898 -163.2681285 210.1472707)
(1276.862495 373.935674 -129.0884329)
(698.5799135 509.1336535 413.8745782)
(1974.346806 114.5139695 164.8235382)
(1492.138345 952.3966422 -422.6706127)
(1906.627336 -210.0831616 -35.4825408)
(2140.458791 154.3044517 -360.8866041)
(1817.721743 -154.5558059 44.80873436)
(1721.499181 52.4622622 -122.9644441)
(1750.725271 -136.4801987 182.6357904)
(1635.72488 514.8301247 276.0292292)
(2328.46565 875.9661682 -3.348696015)
(1248.838706 986.3981456 50.85921523)
(1734.412966 22.82611534 147.822154)
(2011.704564 735.618704 60.94646179)
(1587.580192 54.59409545 -341.1415142)
(1834.323298 268.5678401 -493.9802943)
(1352.793832 291.4175059 -328.7471839)
(1376.926363 552.6711192 146.853622)
(2139.879028 -165.7982838 169.390537)
(1119.17259 249.0593877 -599.6995976)
(1867.655016 40.20325819 393.4060242)
(1506.118647 110.3051369 201.3128232)
(1706.242635 212.982947 -462.1817609)
(1478.648856 605.9794662 -64.84860177)
(1562.328174 -326.9058163 -126.5989433)
(1288.758617 -93.91571077 -55.92289487)
(1226.810101 584.2488661 -127.2727691)
(971.7730472 449.3601691 -654.4969439)
(1373.626609 452.9418676 -481.7707097)
(1637.311317 352.371056 447.4093555)
(1038.979213 290.7615345 219.6634512)
(1597.94812 -390.6694832 -101.5796551)
(1390.208042 171.4586643 -276.8604571)
(1908.722285 57.27653172 38.00634193)
(1470.923968 280.8227048 201.5873363)
(1596.455119 285.2583233 272.1272729)
(1721.745863 -83.60107509 213.2731294)
(1233.87139 280.1121873 -514.2136071)
(1445.052335 288.4437451 -123.7208105)
(1780.785255 479.1388954 -208.8449608)
(1784.722602 -62.08594935 -203.6008772)
(1199.042498 -456.1876781 193.8330428)
(1468.869436 104.8656228 37.70726105)
(1466.341121 137.1616207 -138.5441968)
(1877.247112 365.3217024 -32.63555275)
(1760.700103 14.98364415 204.317374)
(1942.184432 102.4035243 -667.1980866)
(1539.274844 188.642777 85.06052814)
(1069.622201 453.6513371 376.4004765)
(1968.673156 136.8299794 -0.1161424256)
(1727.602907 475.0136106 137.0851043)
(1917.715008 238.8910402 511.6882938)
(1729.563905 749.3926769 967.9223125)
(1852.47665 -145.6561167 -147.9351029)
(1335.268757 374.9757033 369.178178)
(1347.246162 250.0569031 495.8515317)
(2030.322658 -471.9678211 -370.4243303)
(2126.960428 260.8903748 -45.48995637)
(1817.702906 -215.4533088 398.8178595)
(1546.220679 19.39565631 -612.6574571)
(1961.016556 -166.4599496 -156.9486726)
(1732.524412 -169.7079839 676.3583736)
(1780.040963 -189.1706797 126.4782409)
(1465.05718 698.2826003 697.1911209)
(1528.893818 503.7470304 353.3326851)
(1247.714232 471.8409506 986.8510184)
(1816.406112 -98.29849228 144.6061508)
(2046.836997 -6.165574677 -266.4811486)
(1216.219373 1112.813657 1071.819795)
(2328.761985 90.91099296 -574.8417718)
(2018.304474 -366.3419202 -538.9112281)
(1993.826612 781.1238302 -458.9691967)
(1676.83409 157.3976295 -458.0976639)
(1827.402757 -333.5446337 433.4274983)
(1693.384382 619.1515173 265.3746218)
(1867.191236 -464.7651719 -76.5453464)
(1727.302205 1243.180519 607.349038)
(2064.894008 -708.1232244 -114.7891167)
(1865.53787 56.48049007 91.29337599)
(1112.908825 141.5281527 329.4946174)
(1968.421339 595.714848 186.138554)
(1536.644552 -91.40685586 -103.011799)
(2133.828374 685.1012828 -284.735452)
(2019.98968 683.5922772 -300.2178527)
(920.7112221 128.9996527 -19.71969995)
(1961.793416 -269.4005716 -8.686958016)
(1612.100255 -68.07049965 365.5649696)
(1808.224392 251.4669 282.209784)
(1165.594452 343.4422211 252.0120319)
(1494.854685 418.2710936 -17.82839078)
(1112.836282 537.356213 19.4113074)
(2165.195131 702.5050422 -214.9728398)
(1415.292129 -186.6052703 432.7847602)
(753.2499997 733.1794739 249.0314337)
(1205.956922 383.3587297 231.2604074)
(1909.053114 -311.0532891 420.0784037)
(1380.566626 -132.1107808 21.89855252)
(934.2648875 466.7136875 -275.9519407)
(1677.413034 -90.92197388 15.79029403)
(1356.275719 317.6476698 -131.1063586)
(1723.475475 148.0139223 -46.30199574)
(1134.706858 172.8358126 68.08550017)
(1530.531828 1105.112177 8.536863574)
(1497.309556 691.1821301 -321.5928706)
(1954.461321 551.0857585 -239.1996165)
(1424.692793 -393.3524634 -26.45179856)
(1920.816556 707.8957219 187.3074281)
(482.5301284 720.7313031 67.11907116)
(1515.98761 462.6731753 -348.4062464)
(1340.665355 -125.7655493 -77.82349438)
(1736.078078 535.6817328 271.0735903)
(1410.968487 297.8723541 -143.3093916)
(1175.923938 -214.8139458 86.70137984)
(1749.661661 -326.086177 -4.102850823)
(1354.179601 -86.58087385 137.1438359)
(2027.243144 163.0658962 66.60430559)
(1507.971314 101.4064932 416.769309)
(1278.286992 -131.4620192 -350.9811226)
(1878.63621 187.6420206 225.0649157)
(1483.331712 197.8806393 -14.27246498)
(2039.319056 489.9572309 -410.1451831)
(1259.071604 951.6165749 -214.5273964)
(1363.07973 224.7048547 113.5857841)
(1587.876458 143.214246 -180.4822704)
(1472.831471 509.3783727 -42.5452526)
(1251.111684 314.1330824 -820.5632758)
(1190.594381 423.2942181 -495.6307321)
(1390.609877 -37.63820447 -199.0571112)
(1797.499708 226.7950943 -108.8655178)
(1591.35898 -126.208302 608.4054837)
(550.9793442 344.5634588 -676.5263835)
(1066.743493 -586.5636438 502.9732458)
(1855.750965 408.9999799 -433.7970388)
(1964.814507 -107.4255474 9.574749157)
(1809.301254 368.843655 504.9134756)
(1643.064056 54.65477912 332.6196207)
(1748.143276 -192.028908 -269.7162421)
(1531.969772 463.1295919 -317.5711225)
(1128.609396 -198.3190678 -712.1047927)
(1902.060969 569.8672021 296.9990149)
(1827.461489 -387.6036554 -743.7884088)
(1096.504871 1555.221821 -910.2182244)
(1737.395001 -105.6489429 -52.85724811)
(1397.096679 599.1979657 102.1338563)
(1712.580992 174.8887018 -873.9865244)
(1552.397606 564.1356714 -736.8174541)
(1119.420913 184.503271 -248.7996907)
(1756.412099 93.53082859 -433.8445211)
(1908.48317 444.0203232 -25.55944284)
(1692.714715 -96.73747005 163.3867363)
(1766.477113 280.9053966 264.0791578)
(2041.4059 114.5399374 -447.167391)
(1445.78331 -44.18364361 417.2316485)
(1406.366061 -492.1388929 64.36526228)
(1457.064607 -272.0071174 -283.1986012)
(1124.092852 -141.2766781 -504.5395627)
(1931.357372 901.6419691 159.1056081)
(819.486063 198.2230267 -917.1244541)
(747.2000739 1140.547998 -229.6611576)
(1909.204665 331.4501989 -109.630643)
(1289.377962 118.5167616 137.6403707)
(1689.483418 -14.49838007 -93.32273835)
(1460.882443 708.2628486 -227.1355441)
(1464.350143 439.7537473 -93.26565407)
(1812.636193 245.3055201 -887.0216618)
(1638.381568 387.8932011 235.0763278)
(1941.756406 371.0860661 -202.9345472)
(2011.008123 -256.1937418 572.1807994)
(1447.410016 -144.3348567 12.44811806)
(1747.640499 1273.385889 442.3289387)
(1547.474627 154.2069942 -46.87525875)
(1732.961531 749.8709096 -420.0314954)
(912.6306172 526.9957463 -402.9104707)
(1464.663727 -22.2769014 -215.9466356)
(1355.251006 -201.1884779 -289.5127166)
(1403.124104 776.3985617 -14.58891312)
(1871.751871 226.0024848 495.1161312)
(754.9323247 -242.5797123 -432.0745177)
(1648.030066 517.6767633 -1269.554958)
(1321.898163 -54.46990811 94.86041397)
(1461.525205 -226.0092168 176.0306546)
(1114.696148 1076.606218 -171.0247439)
(1516.50149 601.1249351 797.1328996)
(1679.043134 -497.733275 -270.3934744)
(1583.124092 220.668222 49.62587563)
(1970.591457 -181.844714 74.79507136)
(2340.229998 267.0031537 -87.59818755)
(1530.670637 -317.6959017 59.1977744)
(1407.586088 509.406103 345.5583223)
(1950.295464 53.12046286 347.0443532)
(1879.579024 -25.52375328 -547.4935016)
(1442.694586 279.9722868 25.83819481)
(1705.057813 203.2491699 -720.8632889)
(1109.022596 252.5529447 437.1236564)
(2054.821107 320.5304924 582.8705189)
(1504.326893 67.16668945 -378.2880579)
(1333.678224 -759.2991049 140.6524135)
(1342.333603 -173.8856359 -190.3489947)
(1945.587864 422.6040003 162.7672469)
(2045.627075 -310.8244331 302.193939)
(1797.263592 389.6427857 -218.1942417)
(1713.273387 -82.67072152 338.3202801)
(1850.336895 373.5126213 -18.38041722)
(1835.23152 -113.761309 -77.20593098)
(1792.986793 -223.5548583 -603.2674844)
(1747.213395 -230.9688496 73.48006912)
(2054.435036 415.263058 511.8321675)
(2060.587678 540.0457528 -781.8855617)
(1681.581369 142.5087376 -284.2863057)
(1934.936238 148.3345359 79.99620428)
(1257.081167 -24.08721244 1080.003657)
(1480.852252 186.0640141 -9.867902269)
(1489.349231 179.9505317 519.5598618)
(1049.474835 170.3186017 342.2750038)
(1432.428795 -189.2788656 116.9011095)
(2035.18315 283.6565019 163.6036871)
(1444.093637 266.2944482 136.4685188)
(2074.486913 -405.5468341 -436.2951896)
(1505.681777 124.0140496 679.0428203)
(773.953021 565.6452378 -386.751336)
(527.966376 341.3408082 883.6156251)
(1003.491105 451.1677845 -95.87415752)
(787.4867519 1819.104191 264.7544445)
(1199.592708 936.2616079 -909.3369975)
(1993.071644 264.6614596 -343.8956939)
(1734.061705 -665.8458178 659.7661327)
(2044.751656 525.06403 17.29142212)
(670.6160668 201.2182288 489.6080129)
(2414.572962 91.56840747 691.8530115)
(1581.332359 14.74008789 -312.1199227)
(1786.28089 142.7227165 -216.4972)
(1028.749263 -104.7467478 610.0265091)
(1535.859719 -63.53699282 -143.7303808)
(1576.496073 -278.367808 381.3554832)
(1186.114476 -266.7865847 271.9170349)
(1675.641874 194.7264057 -255.6011262)
(1120.547987 24.45786198 -206.431024)
(1667.250505 272.122138 -239.4522534)
(1788.889703 -280.0744708 9.207763543)
(1350.949582 -1.403558338 790.6731917)
(1866.408215 667.2744254 -302.2352143)
(1174.143087 133.6426984 162.3810772)
(1226.13427 11.31382092 97.16057143)
(869.9348221 47.31733365 43.71428372)
(2004.868071 81.09041671 -331.3008015)
(669.8805047 -1.692938441 -160.3876769)
(2294.055659 1405.331602 621.0928684)
(1981.710589 -231.9039526 149.2653376)
(1515.425711 -140.9445359 221.9433477)
(1769.390371 211.8290041 74.87946683)
(1177.124151 -442.5572587 -467.6253903)
(1609.778552 737.8252067 163.398184)
(1984.514876 1676.546602 311.6124361)
(1075.644623 382.8379705 -13.04401802)
(365.1416535 484.3953548 -350.4024091)
(1383.770086 -260.417936 -220.4270784)
(1979.340298 -45.95299123 -234.9263996)
(1054.569952 2.756396661 126.5122027)
(2091.806142 -557.937131 -240.1342764)
(1522.252866 290.8247593 -36.01971063)
(1408.66496 72.98615429 901.4787221)
(1794.474631 -18.35689874 184.3103718)
(2004.648538 -47.59550873 -58.32925424)
(1715.859741 67.18348103 252.3334313)
(1562.169602 381.8152838 405.8358611)
(1563.728622 99.08581347 -118.7548439)
(1814.518465 150.5023975 -24.74056326)
(1029.754906 204.3003821 -749.4451753)
(2290.514001 -48.41773552 -212.5531322)
(2243.787335 128.9457228 43.27539829)
(2251.152262 349.2955944 566.4967852)
(2109.813826 -130.8822603 -9.161181703)
(1517.931504 -77.68542328 -163.4256562)
(1649.843392 -97.58012203 -675.3677662)
(1315.277623 49.03931969 -325.5946565)
(1827.393044 -38.71247971 -339.8047392)
(1735.019007 -252.3224069 602.2741312)
(1999.695714 135.0772762 -8.64488732)
(1435.508919 294.3610051 81.9216763)
(1832.130734 -179.0748332 -439.5980074)
(2181.34322 645.4541849 236.3396996)
(1997.784672 182.9888839 364.7247215)
(2398.90788 -74.32363653 -238.3562079)
(1459.404951 -189.3522423 -120.9332849)
(1884.197107 -156.343653 393.3333334)
(1120.307067 -703.3449701 204.570051)
(1144.588326 1283.816855 490.5953269)
(1502.234682 47.50267377 634.6080831)
(1569.851096 556.4698295 -95.85889092)
(1333.690835 -22.66596795 -764.9043095)
(1994.088897 314.9230069 535.8901838)
(1205.155804 -314.0781964 318.3826644)
(1819.909626 -396.6797993 -230.662099)
(1926.351449 -512.4773906 549.7019443)
(1616.343533 -83.57710579 -301.4320138)
(2029.524727 325.4755141 -377.8702034)
(1743.068556 80.19165331 338.2532072)
(1524.865669 35.79443132 72.15541739)
(1317.394252 -343.8581464 -140.0006696)
(1212.247472 60.96194739 1.317948097)
(2067.445048 210.5055711 201.1499421)
(1424.680775 348.2078667 -1002.600743)
(1764.058069 -95.31215074 -220.1105941)
(1598.741357 -145.9491903 -641.9644467)
(1926.912079 -5.512300283 -428.7340846)
(1374.426735 684.6921311 -8.323819804)
(1694.398843 179.6918243 -335.9663643)
(1885.270877 840.8859955 1390.782062)
(1565.978611 -487.2763971 240.688388)
(1723.56266 -263.1661327 183.1107492)
(1602.510038 -31.30874487 -154.5091268)
(1859.529149 -111.9611904 -560.2371376)
(360.9863219 -323.7291254 -192.5271338)
(2225.522463 276.3676017 -232.8907591)
(1503.642334 72.01379681 -150.7490299)
(1634.340421 635.1316092 533.9941722)