/*--------------------------------*- C++ -*----------------------------------*\
| =========                 |                                                 |
| \\      /  F ield         | OpenFOAM: The Open Source CFD Toolbox           |
|  \\    /   O peration     | Version:  2406                                  |
|   \\  /    A nd           | Website:  www.openfoam.com                      |
|    \\/     M anipulation  |                                                 |
\*---------------------------------------------------------------------------*/
FoamFile
{
    version     2.0;
    format      ascii;
    arch        "LSB;label=32;scalar=64";
    class       Cloud<dsmcParcel>;
    location    "0.001/lagrangian/dsmc";
    object      coordinates;
}
// * * * * * * * * * * * * * * * * * * * * * * * * * * * * * * * * * * * * * //

5122
(
(0.6333645144 0.007790689628 0.1755270532 0.1833177428) 365 2208 1
(0.2902590655 0.166986881 0.1878835862 0.3548704673) 385 2216 1
(0.7923483359 0.09231751797 0.103825832 0.01150831406) 445 862 2
(0.5238463559 0.2380768221 0.122530927 0.1155458951) 385 2216 2
(0.3882045561 0.1238346469 0.305897722 0.1820630751) 515 993 1
(0.2152069924 0.3923965038 0.2460573979 0.1463391059) 475 917 2
(0.02058612865 0.07073883539 0.4189681003 0.4897069357) 524 994 2
(0.8001437038 0.0999281481 0.05565880534 0.04426934276) 514 991 2
(0.4731900003 0.1213827427 0.1420222571 0.2634049998) 485 2226 1
(0.2271149151 0.2794914108 0.1069511316 0.3864425425) 505 957 2
(0.5106041539 0.244697923 0.08269297893 0.1620049441) 371 722 1
(0.2730976281 0.363451186 0.1929052985 0.1705458875) 424 823 1
(0.4617029029 0.001452696034 0.2691485485 0.2676958525) 455 879 1
(0.5888594487 0.1493449785 0.2055702756 0.0562252971) 475 917 1
(0.4341205198 0.2829397401 0.0120642747 0.2708754654) 472 911 2
(0.0910145254 0.3799839258 0.4544927373 0.0745088115) 515 993 1
(0.116380142 0.3565769643 0.08523296471 0.441809929) 412 799 1
(0.3749307849 0.1235542606 0.188980347 0.3125346075) 475 900 2
(0.4309282225 0.2540346533 0.2845358888 0.03050123545) 490 945 1
(0.2610039589 0.3694980205 0.3645318108 0.00496620976) 520 1004 2
(0.3103973014 0.3448013493 0.08754500285 0.2572563465) 364 708 2
(0.2943632101 0.352818395 0.2206069162 0.1322114787) 374 727 2
(0.3887733603 0.1860730853 0.3056133199 0.1195402346) 535 1031 1
(0.05715309503 0.4714234525 0.1251908508 0.3462326017) 525 995 1
(0.2263416895 0.2546276293 0.1322015259 0.3868291552) 393 763 1
(0.1255324609 0.3256266596 0.4372337696 0.1116071099) 423 818 1
(0.1625952344 0.4187023828 0.2939433023 0.1247590805) 445 862 1
(0.5505984304 0.1528103962 0.07189038858 0.2247007848) 463 878 2
(0.0004552497249 0.1754608219 0.4997723751 0.3243115532) 515 995 2
(0.5696078922 0.2151960539 0.1611145118 0.05408154203) 404 782 2
(0.1906822725 0.4046588637 0.06751625034 0.3371426134) 444 842 1
(0.231106672 0.384446664 0.03272655537 0.3517201086) 473 916 1
(0.3315159904 0.1582911773 0.1759508275 0.3342420048) 405 767 2
(0.5529511742 0.2235244129 0.1191836208 0.1043407921) 472 914 1
(0.09223950809 0.2126540451 0.453880246 0.2412262008) 412 800 2
(0.5619964788 0.009681078442 0.2093206822 0.2190017606) 515 2229 1
(0.7882876454 0.09852195497 0.1058561773 0.00733422231) 475 919 2
(0.5740604369 0.2129697816 0.06096627618 0.1520035054) 454 879 2
(0.6038774288 0.1980612856 0.04590709483 0.1521541908) 465 881 1
(0.7076492941 0.1461753529 0.05498295932 0.09119239362) 515 995 1
(0.02558395143 0.3965705653 0.09063745902 0.4872080243) 533 1011 2
(0.4001575244 0.2999212378 0.06893852189 0.2309827159) 460 872 1
(0.1660228049 0.06116618315 0.3558224144 0.4169885975) 515 2229 1
(0.1957154093 0.1841239209 0.2180183744 0.4021422954) 514 993 1
(0.2754823359 0.08402766146 0.2782311706 0.362258832) 534 1031 1
(0.3461257634 0.3269371183 0.1591152677 0.1678218506) 492 949 2
(0.7204711845 0.1397644078 0.09554584505 0.04421856272) 375 2215 2
(0.7797078352 0.0003270349418 0.1098190474 0.1101460824) 435 824 2
(0.3071922186 0.1680898426 0.1783140481 0.3464038907) 415 2219 1
(0.04060042823 0.1597196504 0.4796997859 0.3199801355) 394 766 2
(0.5779556406 0.1115100106 0.09951216914 0.2110221797) 462 876 2
(0.2274259409 0.2229478523 0.3862870295 0.1633391772) 492 952 2
(0.7740807896 0.006850986809 0.1061086184 0.1129596052) 534 1013 2
(0.3303548123 0.3348225939 0.2488503521 0.08597224176) 545 1042 2
(0.5676289671 0.0470076338 0.2161855164 0.1691778826) 542 1087 2
(0.2634308019 0.368284599 0.2522414794 0.1160431196) 415 786 1
(0.4379197503 0.04801413739 0.2810401249 0.2330259875) 443 859 2
(0.5857478275 0.2071260863 0.2042861333 0.002839952944) 403 782 2
(0.3693307539 0.315334623 0.2478791934 0.06745542967) 394 766 1
(0.418775544 0.290612228 0.211946016 0.07866621202) 450 872 1
(0.1080026313 0.4192127884 0.026785896 0.4459986844) 425 2220 1
(0.525131527 0.2374342365 0.1936929173 0.04374131914) 444 858 2
(0.4358327577 0.222620535 0.2820836212 0.05946308617) 485 938 2
(0.7300329423 0.1061794007 0.1349835288 0.02880412819) 401 779 2
(0.4920933093 0.2539533453 0.2127282446 0.04122510073) 434 823 1
(0.658419264 0.170790368 0.1234974139 0.04729295407) 474 915 2
(0.1697415366 0.2837788448 0.4151292317 0.1313503869) 532 1025 1
(0.3096433508 0.1068578073 0.3451783246 0.2383205173) 513 989 1
(0.4803883321 0.2598058339 0.07004587093 0.189759963) 510 986 1
(0.0380167115 0.1331983988 0.3477932455 0.4809916443) 395 748 2
(0.178742759 0.2512336599 0.1593949606 0.4106286205) 400 776 1
(0.3396080634 0.2495597642 0.08063620407 0.3301959683) 364 2207 1
(0.08707811213 0.4564609439 0.252922812 0.2035381319) 469 889 1
(0.2562196068 0.1692161754 0.3718901966 0.2026740212) 417 809 2
(0.4072394602 0.1849767142 0.1114035557 0.2963802699) 424 822 1
(0.5989127918 0.2005436041 0.1862342911 0.01430931298) 375 729 1
(0.6293572143 0.1853213928 0.0001363962692 0.1851849966) 421 798 1
(0.05180006246 0.4740999688 0.06218324657 0.4119167222) 409 775 1
(0.009810738359 0.4950946308 0.06246245165 0.4326321792) 392 743 1
(0.7668910111 0.01145902624 0.1050954682 0.1165544944) 484 936 1
(0.5783848022 0.2108075989 0.1349655485 0.0758420504) 493 935 1
(0.5388626472 0.2165443608 0.0140243156 0.2305686764) 439 850 1
(0.8151876612 0.02260544544 0.06980072395 0.09240616938) 503 954 2
(0.1155773606 0.3933199766 0.0488913431 0.4422113197) 511 969 2
(0.2893481047 0.1659841714 0.3553259476 0.1893417762) 535 1031 1
(0.1422414315 0.4288792843 0.3682118165 0.06066746774) 434 842 1
(0.02332838109 0.01396358408 0.4743722254 0.4883358095) 535 1014 2
(0.3358760399 0.33206198 0.2277769725 0.1042850075) 492 933 1
(0.299882546 0.350058727 0.2132246132 0.1368341138) 514 993 2
(0.1165197181 0.4417401409 0.1122950825 0.3294450584) 515 993 2
(0.6792761025 0.157765704 0.002596244718 0.1603619488) 410 777 2
(0.6778997646 0.1610501177 0.01394944383 0.1471006738) 404 782 2
(0.05864612246 0.1834667024 0.4706769388 0.2872102364) 393 764 2
(0.1534372261 0.4232813869 0.1274261033 0.2958552837) 375 710 1
(0.00414303791 0.104314137 0.497928481 0.393614344) 453 875 1
(0.3115205211 0.3442397395 0.2163106063 0.1279291331) 362 705 1
(0.02436886718 0.1085428787 0.3792726877 0.4878155664) 444 860 1
(0.06849898887 0.2928322282 0.4657505056 0.1729182774) 435 841 1
(0.2359603384 0.3820198308 0.3795575895 0.002462241272) 444 861 1
(0.1496364485 0.2617474593 0.1634343165 0.4251817758) 444 860 1
(0.478355221 0.2464600667 0.01436232278 0.2608223895) 452 857 2
(0.3953859097 0.3023070452 0.2780565784 0.02425046679) 465 881 1
(0.06615747861 0.4669212607 0.3243012882 0.1426199724) 462 892 2
(0.6453415784 0.1251751922 0.05215401864 0.1773292108) 423 802 2
(0.5846631628 0.08135334034 0.1263150783 0.2076684186) 485 2226 1
(0.1169760634 0.4415119683 0.07412000844 0.3673919598) 474 917 2
(0.2888348516 0.03920443818 0.316378136 0.3555825742) 462 894 1
(0.6957392867 0.04392806274 0.1521303567 0.1082022939) 423 821 2
(0.9027994406 0.03921443453 0.009385845183 0.04860027971) 493 935 2
(0.4088024237 0.2955987881 0.253516842 0.04208194613) 462 892 2
(0.3995135215 0.2032977835 0.09694545571 0.3002432392) 454 861 2
(0.3767030701 0.1432309496 0.1684175153 0.3116484649) 515 2229 1
(0.8495886172 0.07520569142 0.06258271745 0.01262297397) 535 1033 1
(0.03465890153 0.4826705492 0.3521960678 0.1304744814) 494 937 1
(0.773348368 0.113325816 0.04090018015 0.07242563584) 533 1030 1
(0.4067728669 0.2966135666 0.007338298079 0.2892752685) 543 1088 1
(0.05834261725 0.0323536868 0.4708286914 0.4384750046) 532 1028 2
(0.5875092402 0.03951498572 0.1667303942 0.2062453799) 452 875 1
(0.5338739442 0.2330630279 0.1393161168 0.09374691112) 382 742 2
(0.06508720061 0.01128158167 0.4674563997 0.456174818) 375 729 2
(0.01428520948 0.4928573953 0.4925525522 0.0003048431053) 385 748 1
(0.2335734706 0.2826201962 0.3832132647 0.1005930685) 441 855 2
(0.2207319777 0.005753039486 0.3896340111 0.3838809716) 364 709 2
(0.1021633953 0.4489183024 0.1677340548 0.2811842476) 372 723 2
(0.4724060052 0.2637969974 0.05515586734 0.2086411301) 372 723 2
(0.7051523717 0.1078554304 0.03956838374 0.1474238141) 395 2217 1
(0.5540514102 0.2229742949 0.01929960368 0.2036746912) 423 802 1
(0.05365601295 0.1410783755 0.332093618 0.4731719935) 455 862 2
(0.6777268656 0.01031508422 0.1611365672 0.150821483) 405 784 1
(0.2424956542 0.14915072 0.3787521729 0.2296014529) 423 818 1
(0.4106668319 0.2613598008 0.03330678327 0.2946665841) 495 2227 1
(0.5263372375 0.2368313813 0.08393214722 0.152899234) 505 974 2
(0.592436973 0.2037815135 0.002466812884 0.2013147006) 464 899 1
(0.429783776 0.285108112 0.08676838602 0.198339726) 535 2231 2
(0.3397668609 0.2732859001 0.3301165695 0.05683066944) 512 987 1
(0.03724019137 0.0307563716 0.4813799043 0.4506235327) 505 974 1
(0.8691208536 0.06543957321 0.04133818664 0.02410138657) 475 2225 2
(0.3331054348 0.3334472826 0.1809213031 0.1525259795) 545 2232 2
(0.0009474497122 0.4995262751 0.01730196978 0.4822243054) 544 1041 2
(0.03364340881 0.4831782956 0.1115696253 0.3716086703) 534 1013 1
(0.1627667242 0.4186166379 0.1526676876 0.2659489503) 492 951 2
(0.4749786951 0.05664496436 0.2058656881 0.2625106525) 430 815 2
(0.266370247 0.08649276323 0.2803221133 0.3668148765) 403 764 2
(0.1876760249 0.4061619876 0.2427417472 0.1634202404) 469 905 2
(0.4189334713 0.2905332643 0.286196979 0.004336285322) 439 850 2
(0.8303436696 0.05095110782 0.03387705736 0.08482816518) 373 725 1
(0.550854774 0.0545661302 0.1700064828 0.224572613) 435 824 2
(0.4477416039 0.02060487096 0.276129198 0.2555243271) 494 956 2
(0.3332765571 0.241648885 0.3333617214 0.09171283644) 414 801 1
(0.3123133097 0.3438433451 0.3140951166 0.02974822853) 455 2223 2
(0.187121842 0.06809027093 0.406439079 0.3383488081) 423 818 1
(0.4694207838 0.2382910673 0.02699854078 0.2652896081) 464 898 1
(0.158699412 0.3999806835 0.420650294 0.02066961048) 464 899 2
(0.418658796 0.2660426475 0.290670602 0.02462795453) 503 970 1
(0.4097922442 0.2951038779 0.2097093345 0.08539454342) 489 927 1
(0.05915538687 0.04395770044 0.4704223066 0.4264646061) 542 1087 2
(0.2146650795 0.2911333624 0.3926674602 0.1015340979) 424 823 2
(0.3527977225 0.2570554536 0.3236011388 0.0665456852) 494 953 1
(0.02558904062 0.4872054797 0.09712955607 0.3900759236) 513 991 2
(0.2830185835 0.07885687504 0.3584907083 0.2796338332) 483 935 2
(0.3961576345 0.1111475831 0.1907735996 0.3019211827) 400 758 2
(0.1659910722 0.3398411047 0.4170044639 0.07716335917) 399 772 1
(0.0926304396 0.4536847802 0.4341292616 0.0195555186) 404 785 1
(0.1365310907 0.2934938026 0.1382406521 0.4317344547) 435 824 2
(0.2593290244 0.3369237478 0.03341173998 0.3703354878) 440 852 1
(0.6314550193 0.1842724904 0.02697912595 0.1572933644) 383 745 1
(0.4594545664 0.2702727168 0.2309768439 0.03929587296) 454 880 1
(0.4825621813 0.1595580156 0.2587189094 0.09916089375) 442 854 1
(0.7236088952 0.1381955524 0.03437558097 0.1038199714) 415 2219 2
(0.708988342 0.08136722325 0.06413860575 0.145505829) 483 916 2
(0.8959122476 0.0265627631 0.05204387622 0.02548111313) 424 820 1
(0.1803594289 0.4098202855 0.1096612937 0.3001589919) 544 1032 1
(0.8863986375 0.006408651353 0.05680068125 0.0503920299) 463 894 1
(0.5781312873 0.1586697835 0.2109343564 0.05226457288) 501 969 2
(0.1245807443 0.2341737698 0.2035358581 0.4377096279) 399 756 2
(0.3567374621 0.321631269 0.2032670196 0.1183642494) 515 995 1
(0.4533892741 0.06329278078 0.2100125822 0.2733053629) 505 2228 1
(0.4920155316 0.03346040794 0.2205318262 0.2539922342) 482 932 1
(0.2792877733 0.3266493476 0.03370676577 0.3603561133) 469 889 2
(0.05158578203 0.3298943543 0.1443127547 0.474207109) 504 974 1
(0.4649706966 0.2675146517 0.05925134313 0.2082633086) 445 862 1
(0.01777034181 0.4911148291 0.08841382429 0.4027010048) 522 1009 1
(0.3393991896 0.0784692968 0.2518311084 0.3303004052) 519 1002 1
(0.1540950967 0.4229524516 0.00615305815 0.4167993935) 502 970 2
(0.4526333455 0.05615851501 0.2736833273 0.2175248123) 512 990 2
(0.6957335794 0.01090481995 0.1412283904 0.1521332103) 489 927 2
(0.2895082923 0.3163227459 0.03892310796 0.3552458538) 508 981 1
(0.08221634958 0.4588918252 0.1353942622 0.323497563) 495 955 2
(0.008907503504 0.4955462482 0.4670496392 0.02849660907) 522 1008 2
(0.5096707696 0.2451646152 0.04893897962 0.1962256356) 484 937 1
(0.5169480247 0.1679476726 0.2415259877 0.07357831509) 520 1005 2
(0.5380346627 0.1580823787 0.07290028991 0.2309826686) 545 1033 2
(0.5532854104 0.2233572948 0.009927042856 0.2134302519) 372 723 2
(0.3612337968 0.3193831016 0.210878373 0.1085047286) 425 2220 2
(0.6254563898 0.1233842652 0.06388753995 0.1872718051) 375 2215 1
(0.3527874566 0.3236062717 0.01487081791 0.3087354538) 415 786 1
(0.4271463516 0.1735945722 0.112832252 0.2864268242) 472 913 1
(0.2260181633 0.1975744819 0.1894164364 0.3869909183) 394 747 2
(0.4083229736 0.2342162251 0.06162228808 0.2958385132) 422 800 2
(0.3597013363 0.3201493319 0.02469985067 0.2954494812) 473 913 2
(0.05642188119 0.4202529441 0.4717890594 0.05153611527) 424 823 2
(0.1496424304 0.4251787848 0.07568981466 0.3494889701) 512 987 2
(0.7468773127 0.1265613437 0.04206962431 0.08449171935) 445 860 2
(0.4360270814 0.2819864593 0.1393947972 0.1425916622) 413 802 1
(0.1490704682 0.3467667732 0.0786979927 0.4254647659) 443 858 1
(0.3667289456 0.3166355272 0.1997891825 0.1168463447) 437 847 1
(0.1990210198 0.4004894901 0.01194469791 0.3885447922) 371 703 1
(0.1135217351 0.4067265744 0.03651255805 0.4432391325) 443 840 2
(0.2403984374 0.3798007813 0.1782160945 0.2015846869) 483 932 2
(0.2464177829 0.3767911086 0.06771365332 0.3090774552) 465 2224 2
(0.0276596659 0.1221652714 0.3640048957 0.486170167) 464 880 2
(0.4340503039 0.2829748481 0.2478410731 0.03513377494) 484 936 2
(0.007124951867 0.1295577453 0.3668797787 0.4964375241) 481 930 1
(0.1539561633 0.2529577591 0.4230219183 0.1700641593) 442 857 2
(0.1012428751 0.301357934 0.1480206284 0.4493785624) 440 834 2
(0.2262719251 0.2845813049 0.3868640374 0.1022827325) 444 861 2
(0.1677396793 0.4161301604 0.2025194854 0.213610675) 524 1012 2
(0.8100181017 0.006010122018 0.08898082712 0.09499094914) 514 993 1
(0.06948243268 0.4652587837 0.3399766007 0.1252821829) 480 929 1
(0.4419896158 0.02950901826 0.2494961738 0.2790051921) 489 945 1
(0.1634645984 0.03934307221 0.4182677008 0.3789246286) 495 957 2
(0.3102509875 0.230187666 0.3448745062 0.1146868403) 540 1085 2
(0.2359581332 0.3820209334 0.2654505527 0.1165703807) 474 899 1
(0.4226668712 0.2886665644 0.188720909 0.09994565537) 491 950 1
(0.4210886793 0.2894556603 0.1728435458 0.1166121145) 367 713 2
(0.0199756202 0.4900121899 0.07774836716 0.4122638227) 364 706 2
(0.2195942429 0.09929559772 0.3902028785 0.2909072808) 375 729 2
(0.5488776057 0.04379757759 0.1817636195 0.2255611971) 432 819 2
(0.5810770472 0.1711363607 0.03832511575 0.2094614764) 371 703 2
(0.3144956895 0.3427521553 0.1644551076 0.1782970477) 445 860 2
(0.4191143731 0.2904428134 0.1765884221 0.1138543913) 445 860 2
(0.1911572339 0.4044213831 0.2396804094 0.1647409736) 425 2220 2
(0.1229589086 0.4385205457 0.1982613351 0.2402592106) 443 856 2
(0.4414887817 0.2792556092 0.1285259261 0.1507296831) 373 725 2
(0.06100237961 0.4694988102 0.3278193373 0.1416794729) 451 871 2
(0.8210035671 0.08949821645 0.07465232696 0.01484588949) 453 877 2
(0.2919418197 0.05899299749 0.3540290902 0.2950360927) 362 705 2
(0.1372346825 0.4313826588 0.2141581526 0.2172245062) 398 754 1
(0.1064785247 0.4467607377 0.1046228966 0.3421378411) 465 881 1
(0.1150365265 0.4424817367 0.214058973 0.2284227637) 504 956 1
(0.4832365566 0.2373170831 0.2583817217 0.02106463858) 483 935 2
(0.4095971298 0.0896799018 0.2952014351 0.2055215333) 513 992 2
(0.4911820102 0.2544089949 0.06476426291 0.189644732) 481 912 1
(0.3893043121 0.305347844 0.05908658482 0.2462612591) 492 952 1
(0.2052649783 0.06981819861 0.3973675108 0.3275493122) 502 968 1
(0.1009716771 0.06587964356 0.3836345179 0.4495141614) 514 993 1
(0.8157871594 0.09210642031 0.04974120181 0.0423652185) 468 906 1
(0.4432410531 0.2783794735 0.2380823698 0.04029710364) 532 1027 2
(0.3451451082 0.3274274459 0.1835428917 0.1438845542) 474 917 2
(0.04303579736 0.4784821013 0.2450207045 0.2334613968) 544 1042 2
(0.3453488084 0.3273255958 0.06812924654 0.2591963493) 503 970 2
(0.6450884905 0.1761301514 0.001325603382 0.1774557547) 365 2214 1
(0.259012866 0.09591077217 0.370493567 0.2745827948) 379 737 2
(0.7327747264 0.1003188827 0.1336126368 0.03329375414) 416 239 1
(0.8259836907 0.08700815467 0.03660174023 0.05040641444) 405 767 1
(0.05678964095 0.4716051795 0.05361666594 0.4179885136) 415 803 2
(0.3291692043 0.2374515836 0.09796381426 0.3354153978) 382 724 2
(0.001717690682 0.4991411547 0.3844983327 0.114642822) 370 720 1
(0.5320553194 0.2339723403 0.224384955 0.009587385326) 384 747 1
(0.1151407963 0.4269735337 0.4424296018 0.0154560681) 424 823 2
(0.1860876309 0.4069561846 0.1852229421 0.2217332424) 383 742 2
(0.1308845958 0.4345577021 0.4289925658 0.005565136296) 393 761 2
(0.3483146026 0.3120428661 0.01379983258 0.3258426987) 435 824 2
(0.05515024172 0.4724248791 0.4245817747 0.04784310449) 371 719 2
(0.1150814851 0.4424592575 0.118602102 0.3238571554) 424 823 1
(0.09276853787 0.4536157311 0.3225345458 0.1310811853) 445 843 1
(0.4760868016 0.2619565992 0.2481632854 0.01379331377) 392 761 2
(0.7877516822 0.04388608325 0.1061241589 0.06223807566) 405 784 1
(0.3690742475 0.2093201665 0.1061427097 0.3154628762) 431 817 2
(0.01487489484 0.4925625526 0.10363341 0.3889291425) 462 876 1
(0.08901298937 0.08614621726 0.3693472881 0.4554935053) 433 839 1
(0.692338929 0.08870215528 0.06512838019 0.1538305355) 411 797 1
(0.1888565811 0.253484328 0.1520873814 0.4055717094) 387 751 1
(0.6669510233 0.03890773351 0.1276167549 0.1665244884) 405 2218 1
(0.7160743178 0.1419628411 0.04278641733 0.09917642376) 405 784 2
(0.1958028942 0.4020985529 0.1669257517 0.2351728012) 139 276 2
(0.2873652937 0.3563173532 0.1184158877 0.2379014655) 463 894 2
(0.2971853972 0.02301020548 0.3283970959 0.3514073014) 472 913 1
(0.251604657 0.3741976715 0.2800609598 0.09413671171) 481 928 2
(0.8120284535 0.09398577324 0.006243779455 0.08774199378) 393 764 1
(0.4748753725 0.2372098196 0.02535249412 0.2625623137) 459 870 2
(0.03387287521 0.4830635624 0.2327312742 0.2503322882) 402 781 1
(0.596899765 0.1998618454 0.2015501175 0.001688272062) 424 823 2
(0.2783841967 0.3608079016 0.2591322433 0.1016756583) 445 2222 2
(0.01424028311 0.1643505784 0.32852928 0.4928798584) 440 852 1
(0.1412867536 0.3209423526 0.1084142706 0.4293566232) 521 1006 1
(0.3533383979 0.3233308011 0.2560136239 0.06731717718) 472 914 1
(0.1751956718 0.4124021641 0.2872472926 0.1251548715) 473 913 2
(0.08245433234 0.4587728338 0.2261113232 0.2326615106) 471 911 2
(0.6502731837 0.1002647291 0.07459867904 0.1748634081) 488 943 1
(0.6354822099 0.182258895 0.1397685619 0.04249033311) 463 894 2
(0.1899292878 0.4050353561 0.3624925967 0.04254275936) 464 880 1
(0.4251207094 0.2874396453 0.04259779122 0.2448418541) 515 976 1
(0.3067125108 0.3466437446 0.1909273898 0.1557163548) 519 1002 2
(0.3940591634 0.3029704183 0.01463350995 0.2883369084) 504 974 2
(0.0434278849 0.4782860576 0.3627173192 0.1155687384) 524 1012 2
(0.1708568191 0.4012624914 0.01330909902 0.4145715905) 500 948 2
(0.05971545078 0.4701422746 0.1300996377 0.3400426369) 482 933 1
(0.007042529513 0.4964787352 0.3546374563 0.1418412789) 542 1039 2
(0.6732751074 0.06926269109 0.09409975523 0.1633624463) 384 728 2
(0.3868116029 0.2871326315 0.3065941985 0.01946156706) 421 817 2
(0.3941250163 0.1999025789 0.3029374918 0.103034913) 402 781 2
(0.07447244927 0.00102801367 0.4617357617 0.4627637754) 392 761 1
(0.6831490757 0.08719526806 0.1584254622 0.0712301941) 410 796 2
(0.1403153243 0.4298423378 0.137895369 0.2919469688) 395 765 2
(0.7185253126 0.07696729552 0.06377004816 0.1407373437) 466 883 2
(0.3201737986 0.02202322889 0.3399131007 0.3178898718) 472 911 1
(0.234341468 0.382829266 0.06461832953 0.3182109365) 389 753 2
(0.223086659 0.3884566705 0.09462561403 0.2938310565) 472 895 1
(0.2936279589 0.3250033619 0.3531860206 0.02818265864) 403 780 1
(0.4852041478 0.2573979261 0.007458245683 0.2499396804) 464 880 1
(0.8910902268 0.05445488658 0.009566373791 0.04488851279) 452 875 2
(0.01994543259 0.439378003 0.05064928074 0.4900272837) 418 810 1
(0.1212730428 0.1740185165 0.2653449621 0.4393634786) 461 892 1
(0.03979019342 0.4801049033 0.05999606885 0.4201088344) 491 931 1
(0.3014983363 0.03830068014 0.3109501517 0.3492508318) 423 820 1
(0.2658589451 0.1354934408 0.2315770867 0.3670705275) 425 805 2
(0.08322408919 0.05244680472 0.4059411507 0.4583879554) 485 919 2
(0.468760892 0.265619554 0.2125658822 0.0530536718) 530 1023 2
(0.3413538328 0.3293230836 0.06489160639 0.2644314772) 415 803 2
(0.02115207998 0.1299011122 0.3595228478 0.48942396) 465 881 2
(0.08544022855 0.4572798857 0.1342419796 0.3230379061) 514 993 2
(0.1909054545 0.4045472727 0.189079546 0.2154677267) 454 877 2
(0.08385969153 0.4580701542 0.3042134428 0.1538567114) 482 930 2
(0.5860968748 0.2069515626 0.1874611369 0.01949042565) 465 2224 2
(0.4362548777 0.2818725612 0.2815507338 0.0003218273497) 545 1090 1
(0.6158280378 0.1920859811 0.1124486152 0.07963736589) 475 900 1
(0.005691274901 0.4971543625 0.1148107497 0.3823436128) 483 932 2
(0.009486218339 0.4451409419 0.0501159489 0.4952568908) 464 880 2
(0.1750013359 0.01519058088 0.412499332 0.3973087512) 474 918 2
(0.07743216059 0.4612839197 0.3080377494 0.1532461703) 499 962 2
(0.4249683514 0.07526503666 0.2122507876 0.2875158243) 523 1010 1
(0.1856018054 0.4071990973 0.2277066797 0.1794924176) 462 895 1
(0.3040933503 0.1314718377 0.2164814871 0.3479533248) 443 840 2
(0.4969254934 0.2386001807 0.01293707266 0.2515372533) 502 952 2
(0.1873978503 0.4063010748 0.3462051159 0.06009595894) 523 1010 2
(0.2451018909 0.1441837391 0.3774490545 0.2332653155) 525 1012 1
(0.7722558786 0.1138720607 0.07534537111 0.03852668957) 514 991 2
(0.5768520256 0.03457385136 0.2115739872 0.1770001359) 455 881 2
(0.4359977383 0.2061952513 0.2820011308 0.07580587951) 384 747 2
(0.2781119274 0.1156508941 0.2452931422 0.3609440363) 411 779 2
(0.5768803322 0.2115598339 0.1556399996 0.05591983423) 382 740 2
(0.6373961894 0.1813019053 0.1317576083 0.04954429704) 370 717 2
(0.190637319 0.4046813405 0.2208315804 0.1838497601) 435 824 1
(0.4721927213 0.2639036393 0.009151205792 0.2547524335) 421 798 1
(0.5243246321 0.08801236439 0.237837684 0.1498253196) 433 840 2
(0.4850365725 0.2574817137 0.00528758805 0.2521941257) 415 803 2
(0.07998468185 0.4600076591 0.05090878696 0.4090988721) 395 765 2
(0.4972176443 0.2513911779 0.1319537448 0.119437433) 441 836 1
(0.1559380333 0.4220309834 0.1956524322 0.2263785511) 387 749 2
(0.4615901386 0.1674638337 0.101741097 0.2692049307) 433 821 2
(0.2862872721 0.2255307293 0.1313256346 0.3568563639) 415 786 2
(0.5360196175 0.2319901912 0.01267949242 0.2193106988) 484 936 2
(0.09501288306 0.441175622 0.4524935585 0.01131793643) 422 819 2
(0.5904484068 0.07136385554 0.1334119411 0.2047757966) 450 853 2
(0.3719628743 0.3140185628 0.3020887029 0.01192985996) 473 913 2
(0.1124919721 0.2991412971 0.1446127168 0.4437540139) 421 798 2
(0.2699694769 0.3426865023 0.02232875926 0.3650152615) 414 785 2
(0.4580326942 0.2709836529 0.1542824983 0.1167011546) 448 849 1
(0.1160284495 0.4419857753 0.03208779807 0.4098979772) 455 2223 2
(0.6879013017 0.08697609502 0.06907325412 0.1560493491) 481 912 2
(0.07419138898 0.2431181429 0.4629043055 0.2197861626) 430 831 1
(0.8352041556 0.08239792219 0.02149349384 0.06090442835) 513 991 2
(0.02332489986 0.02478757669 0.4635499734 0.4883375501) 452 875 1
(0.9037186999 0.04814065004 0.006245903233 0.04189474681) 494 956 1
(0.105604288 0.2578197424 0.1893781136 0.447197856) 450 853 2
(0.1545485625 0.3703325046 0.0523932141 0.4227257187) 475 2225 1
(0.5998382335 0.002829701939 0.2000808833 0.1972511813) 504 975 2
(0.05913012828 0.08054265662 0.4704349359 0.3898922792) 494 956 2
(0.6951687327 0.08029267149 0.07212296215 0.1524156336) 510 985 1
(0.6410827735 0.0004659710729 0.1794586132 0.1789926422) 515 993 1
(0.01573325471 0.4921333726 0.03247218608 0.4596611866) 471 912 1
(0.1999278871 0.3715739842 0.02846207227 0.4000360565) 503 972 1
(0.06639807906 0.4668009605 0.01926709363 0.4475338668) 504 956 1
(0.7171169725 0.001550974111 0.1414415137 0.1398905396) 514 994 2
(0.2192503123 0.3601287545 0.3903748439 0.0302460894) 483 935 2
(0.2186904064 0.2594773008 0.3906547968 0.131177496) 495 955 1
(0.5229771881 0.238511406 0.03591151845 0.2025998875) 542 1039 2
(0.02532689022 0.2405463974 0.2467901575 0.4873365549) 500 966 1
(0.8398212859 0.08008935705 0.01642139241 0.06366796463) 522 990 1
(0.01996282973 0.4900185851 0.4779396477 0.01207893744) 544 1089 1
(0.4002942565 0.2112536171 0.08859925462 0.2998528718) 511 969 2
(0.7429086236 0.1285456882 0.1152600772 0.01328561103) 545 1033 1
(0.3412110439 0.01020622983 0.3191882482 0.3293944781) 513 973 2
(0.3133722871 0.2370201913 0.3433138565 0.1062936651) 505 974 1
(0.770363187 0.1148184065 0.01977085154 0.09504755497) 414 803 2
(0.4143093204 0.2928453398 0.1611387995 0.1317065403) 371 721 2
(0.05233348371 0.4738332581 0.03787165097 0.4359616072) 117 234 2
(0.417293592 0.291353204 0.1061792263 0.1851739777) 429 829 2
(0.245457429 0.3772712855 0.2607809761 0.1164903094) 371 721 2
(0.3435136045 0.03986839669 0.2883748011 0.3282431978) 409 775 2
(0.409774055 0.2951129725 0.211796646 0.08331632652) 432 819 1
(0.2144300582 0.3619827019 0.03080226899 0.3927849709) 410 777 2
(0.00947082258 0.1221082522 0.3731563366 0.4952645887) 401 760 2
(0.7995579276 0.1002210362 0.04149765653 0.05872337966) 415 803 2
(0.4486428915 0.02087328077 0.2756785542 0.2548052735) 431 833 1
(0.06036183964 0.4698190802 0.4093140055 0.06050507467) 424 804 1
(0.4457177071 0.2214357376 0.05570540881 0.2771411464) 421 816 1
(0.1265351691 0.4367324155 0.09769285911 0.3390395564) 443 859 1
(0.47593359 0.09572875469 0.262033205 0.1663044503) 375 729 2
(0.6029632513 0.01814673787 0.1803716365 0.1985183743) 422 818 1
(0.2204129302 0.3897935349 0.3102863483 0.07950718661) 393 763 2
(0.2166653548 0.3916673226 0.12331173 0.2683555926) 455 862 1
(0.384874196 0.1191258242 0.1884370779 0.307562902) 492 933 2
(0.1978797144 0.09496455609 0.3060955867 0.4010601428) 404 784 1
(0.4367377145 0.04256849469 0.2390626481 0.2816311427) 438 848 1
(0.3354951607 0.3322524196 0.0569357256 0.275316694) 465 881 1
(0.4026491906 0.2986754047 0.1792588083 0.1194165964) 450 872 1
(0.6246099425 0.1825541896 0.1876950287 0.005140839155) 482 933 2
(0.6858882929 0.1570558535 0.02991901498 0.1271368385) 411 779 1
(0.248439766 0.06261441598 0.313165701 0.375780117) 277 515 2
(0.2566519155 0.3317116321 0.3716740422 0.03996241017) 493 954 2
(0.08017512545 0.4599124373 0.288766352 0.1711460853) 521 1004 2
(0.1761047397 0.08780522559 0.4119476302 0.3241424046) 393 761 1
(0.5545864307 0.2227067847 0.1027352312 0.1199715534) 473 897 1
(0.08016636199 0.459916819 0.3626621957 0.09725462326) 501 950 1
(0.3110442432 0.1023619046 0.2421159738 0.3444778784) 471 911 1
(0.2006863478 0.3996568261 0.354301894 0.04535493204) 505 974 2
(0.4839299833 0.2580350083 0.04499797047 0.2130370379) 454 877 2
(0.6578067234 0.005602421799 0.1710966383 0.1654942165) 495 955 1
(0.6599875893 0.1542330623 0.1700062054 0.01577314304) 495 955 1
(0.1049612525 0.4475193738 0.3825761516 0.06494322214) 533 1011 1
(0.1510106667 0.1888744385 0.4244946667 0.2356202282) 535 1031 1
(0.4128498353 0.2935750824 0.1339624013 0.1596126811) 486 519 2
(0.1756348047 0.2620053166 0.4121825976 0.1501772811) 403 780 1
(0.3636078076 0.3181960962 0.3170226327 0.001173463486) 381 741 1
(0.04384037016 0.2968778554 0.4780798149 0.1812019595) 442 854 1
(0.1298868139 0.435056593 0.3457194 0.08933719301) 363 2206 2
(0.5069464837 0.1507997277 0.09572703042 0.2465267581) 385 2216 1
(0.2889748502 0.05254010921 0.3555125749 0.3029724657) 413 802 2
(0.8133498669 0.09332506654 0.0189625774 0.07436248913) 383 744 2
(0.1753200971 0.1389133557 0.2734265958 0.4123399515) 384 728 2
(0.3848545793 0.3075727103 0.2290139156 0.07855879477) 363 704 2
(0.3148447313 0.273255488 0.06932214631 0.3425776343) 371 721 1
(0.02258449953 0.1318797805 0.4887077502 0.3568279697) 402 778 1
(0.1765147264 0.1734257166 0.2383169202 0.4117426368) 411 779 2
(0.08510131438 0.4574493428 0.3796876313 0.0777617115) 382 742 2
(0.5987761804 0.2006119098 0.06311748709 0.1374944227) 424 823 1
(0.3318664762 0.3269257495 0.007141012448 0.3340667619) 402 780 1
(0.6136274785 0.1756425658 0.1931862607 0.01754369495) 428 830 2
(0.2068248788 0.2167389944 0.3965875606 0.1798485663) 373 726 2
(0.3039693977 0.1273835057 0.3480153012 0.2206317955) 429 829 1
(0.3190727569 0.3404636215 0.2686645564 0.07179906513) 405 786 1
(0.7001523948 0.1499238026 0.1040485108 0.04587529178) 404 766 1
(0.5212058428 0.2393970786 0.1020419653 0.1373551133) 378 732 2
(0.6550111994 0.09761479012 0.1724944003 0.07487961016) 404 785 2
(0.1092888953 0.4453555524 0.4114161366 0.03393941577) 453 877 2
(0.72489605 0.137551975 0.0309027921 0.1066491829) 454 879 2
(0.6042085811 0.1978957094 0.09181211701 0.1060835924) 400 776 2