/*--------------------------------*- C++ -*----------------------------------*\
| =========                 |                                                 |
| \\      /  F ield         | OpenFOAM: The Open Source CFD Toolbox           |
|  \\    /   O peration     | Version:  2406                                  |
|   \\  /    A nd           | Website:  www.openfoam.com                      |
|    \\/     M anipulation  |                                                 |
\*---------------------------------------------------------------------------*/
FoamFile
{
    version     2.0;
    format      ascii;
    arch        "LSB;label=32;scalar=64";
    class       scalarField;
    location    "0.001/lagrangian/dsmc";
    object      Ei;
}
// * * * * * * * * * * * * * * * * * * * * * * * * * * * * * * * * * * * * * //


5122
(
3.775924293e-21
3.02158744e-21
6.386672606e-21
2.586091491e-21
5.473199686e-22
3.014928317e-21
2.141534359e-21
4.650028206e-21
9.024138222e-21
3.656549876e-21
8.744254131e-21
5.673768304e-22
1.204030792e-20
3.336524248e-21
7.624506129e-22
1.752889451e-21
9.518807722e-21
3.691274476e-21
1.141202369e-21
3.811722317e-21
2.040292418e-21
2.531959025e-21
6.878734655e-21
1.690948124e-21
3.586527544e-21
1.864209193e-20
1.505291229e-21
4.80511729e-22
1.435544757e-21
8.396599296e-21
1.097140101e-21
4.564642263e-21
6.754019631e-21
1.162204436e-21
1.222182093e-21
2.67325107e-21
1.255212083e-20
1.321418685e-21
4.111288314e-22
2.903941753e-21
5.730028769e-21
3.127877729e-21
6.53861876e-21
2.404807642e-21
7.256458705e-21
4.27016868e-21
2.75315785e-21
3.165640165e-22
9.703308549e-21
2.400277678e-21
1.106635522e-21
8.967155298e-22
1.412483829e-20
6.579042375e-22
5.83394844e-21
8.195864043e-22
6.237112836e-21
9.775376411e-21
2.022981696e-20
3.050410976e-21
5.745380893e-21
1.094218005e-20
1.490653644e-22
1.603605294e-21
3.48939942e-21
1.423784793e-21
1.544083063e-21
6.313364585e-22
7.452670903e-21
9.209629857e-22
1.183660843e-22
5.967370116e-21
1.487322831e-21
6.138047082e-21
3.178343845e-22
2.020701122e-21
1.525290427e-21
5.826815888e-22
5.586557805e-21
4.117366314e-21
1.840871664e-21
4.349007484e-21
1.127311278e-20
7.393186974e-21
1.060832841e-20
2.036099765e-20
6.533788206e-21
1.284343296e-21
7.654696773e-21
7.084866799e-21
5.072864163e-21
9.412242706e-23
1.716512211e-20
2.192440024e-21
2.835315211e-22
5.176164999e-21
5.775884853e-24
5.834226786e-21
1.004045598e-20
1.054065649e-21
5.774988442e-21
2.455405871e-23
1.341967194e-22
6.457905721e-21
1.254427813e-21
7.975117615e-21
1.260495015e-20
2.336666657e-21
8.613503993e-22
2.352312951e-21
4.838648235e-21
4.126619173e-21
5.141785412e-21
1.409612086e-20
5.997086574e-21
4.06414704e-21
1.04048896e-20
1.70783909e-21
1.071242867e-21
1.350747282e-21
5.601860879e-22
8.815788739e-22
2.933577478e-21
1.176861288e-22
9.277959097e-22
7.119049679e-21
2.120612269e-21
2.561957162e-21
6.660762452e-21
2.023675078e-20
2.111165602e-21
2.139605378e-21
1.118441315e-21
3.255962885e-21
4.565265345e-21
7.904655034e-22
1.079264631e-20
7.966553697e-22
4.008031935e-22
1.074331109e-22
2.094970966e-21
8.412290196e-22
5.145737092e-21
7.817864024e-21
4.053001546e-22
7.356177508e-21
2.695111205e-21
2.767470484e-21
5.11481766e-21
2.04665692e-21
2.588992117e-21
3.37543315e-21
7.188735015e-22
8.453553616e-21
9.640577338e-22
1.740163688e-21
4.663206862e-21
8.127260699e-21
1.444224091e-21
7.590133677e-21
7.011295382e-21
4.521291144e-21
1.334497558e-21
4.781868479e-21
4.481172287e-21
4.4782443e-21
2.830150948e-21
1.767631481e-21
3.505862149e-21
4.104625375e-21
5.232801098e-21
2.557111547e-21
2.228560317e-21
2.385856703e-21
1.682866077e-21
1.24189559e-21
7.482828903e-21
5.794644053e-22
5.133642624e-21
1.234151174e-21
1.362783961e-21
1.528809294e-21
8.999188259e-22
1.654848145e-21
2.032499864e-21
3.251818543e-21
7.534929661e-21
1.045165675e-20
6.557874152e-22
3.536177418e-21
1.325388983e-21
6.087951884e-22
1.290549845e-21
1.450290204e-23
1.848546621e-21
2.796477597e-21
1.017241375e-22
4.547980857e-21
8.337913841e-21
2.390317458e-21
1.98469841e-21
2.218795579e-20
1.515338757e-20
4.351090649e-21
1.40241748e-21
5.931116368e-22
4.782395284e-22
1.749598938e-20
2.029336448e-21
6.311290458e-21
6.693387516e-22
3.437166465e-23
3.383186169e-21
3.648912337e-21
3.731212402e-21
7.221485017e-21
4.158439771e-22
1.028654848e-21
5.740458948e-22
2.138070231e-21
3.722475384e-21
7.856465548e-22
1.102593897e-20
1.787169872e-20
5.859523096e-23
1.024376132e-20
3.282528973e-21
5.338206802e-21
7.512743331e-22
1.507665153e-21
9.704273015e-22
3.435219826e-21
2.056567771e-20
5.486915591e-21
1.616450874e-20
1.213335783e-21
1.052014966e-20
1.026259456e-21
5.400399367e-21
4.660173243e-21
1.460514481e-21
1.50929661e-20
9.931243545e-21
6.706775003e-22
1.290539262e-20
5.028222051e-21
6.103679824e-21
2.189985302e-22
2.322650233e-21
7.018818069e-21
1.282669077e-21
4.877620932e-21
8.956704486e-22
1.608156494e-21
3.447209364e-21
1.261617302e-21
1.209711566e-21
3.133742438e-21
6.525755837e-22
4.636183142e-22
5.60034759e-21
5.799682321e-21
1.94868904e-21
2.821158925e-21
5.142241615e-21
9.75483157e-21
6.080140826e-21
1.257063182e-20
3.269221972e-22
1.007197467e-21
1.075675381e-21
1.044469862e-21
1.408982883e-21
2.213221652e-21
1.775486106e-21
1.207096814e-20
1.940933291e-21
3.552712024e-21
8.576695763e-22
3.975679684e-21
1.146145419e-20
1.319770664e-22
1.210022307e-22
2.48017634e-21
2.828340576e-22
3.453989243e-21
5.62519691e-21
3.518024623e-21
4.535631301e-21
7.329656482e-21
4.052437738e-23
2.266900507e-21
4.545162911e-21
1.112664739e-21
9.778945092e-21
4.299837054e-21
1.45863615e-21
1.082242855e-20
3.302314161e-21
7.499505959e-22
1.612535805e-21
5.693099281e-21
3.393507879e-21
8.855828913e-22
3.146815824e-22
9.032824912e-21
3.635552901e-21
4.180613025e-21
1.230365478e-20
9.096406176e-21
3.866220402e-21
5.524664072e-21
4.957621625e-21
7.570989682e-24
1.237891212e-22
2.367938498e-22
1.127668515e-20
7.210400752e-22
5.369097175e-21
7.420672571e-21
6.190174826e-21
3.117843587e-22
3.010181109e-21
8.724511925e-22
1.738051311e-22
4.634184834e-22
5.338559657e-21
3.1090573e-21
3.319195634e-21
3.408170971e-21
3.626986761e-21
5.417744907e-23
3.031134735e-21
3.312852056e-21
1.494271986e-21
1.044741427e-22
2.236097847e-22
9.808371521e-22
3.572853431e-21
2.493322202e-21
8.263086238e-22
2.367617992e-21
9.264913393e-21
2.357223434e-21
4.883824415e-21
7.992845492e-22
1.766289877e-21
4.413903341e-21
2.830217038e-21
2.305240871e-21
1.61180106e-21
6.970524724e-21
1.815605036e-22
3.13049237e-21
1.670191924e-21
4.663762237e-21
5.474352853e-21
5.015210633e-22
3.401562103e-21
8.480081956e-21
3.612863005e-21
4.951268102e-21
5.82175659e-21
6.748555539e-22
3.737365113e-21
1.158221007e-21
4.378222433e-21
6.178900829e-21
9.938217478e-21
1.380682139e-21
1.581682993e-21
1.456039187e-21
2.624349198e-21
1.438515621e-22
9.723741654e-21
1.720455201e-21
3.892520873e-21
1.578378908e-21
4.716979283e-21
2.954751365e-21
1.790671773e-21
3.111825501e-21
3.007171214e-21
1.003881526e-20
3.113578324e-21
1.485802942e-21
8.998620509e-22
8.111083852e-22
5.373082482e-21
1.885474435e-21
1.009542283e-21
1.284817376e-21
5.836044752e-21
8.612051144e-24
2.957409194e-22
1.723183722e-21
5.660752705e-21
6.683915629e-21
6.098572485e-21
4.098337908e-21
7.197254783e-21
5.758945257e-22
4.942863316e-22
1.99721396e-21
2.090324663e-21
2.913293243e-21
1.136425345e-22
5.979374617e-22
4.590441448e-21
5.501840042e-21
6.979668971e-21
5.714833457e-22
1.380571604e-22
2.536472033e-21
1.570899493e-20
2.168557821e-21
1.920210647e-21
1.081939278e-21
5.918816039e-21
1.74874182e-21
5.128863165e-21
7.319216166e-21
1.372072833e-21
1.58382364e-22
3.776616897e-21
1.624106359e-21
3.445757262e-21
1.839680047e-21
4.817183437e-21
2.964953748e-21
5.429054393e-22
3.512980535e-21
2.462737552e-21
3.375451291e-21
5.89508873e-21
3.750205155e-22
8.916201112e-23
2.711648124e-21
2.734982963e-21
3.448087299e-21
1.740842076e-21
5.989173658e-21
4.4719257e-21
5.932289535e-22
1.634755926e-21
1.554727237e-21
7.094035086e-21
1.011802999e-21
1.323485584e-20
3.875224896e-21
1.161377374e-21
1.162098633e-21
1.862126725e-20
2.252454353e-21
2.309897645e-21
1.644092236e-22
6.243899826e-21
1.127503639e-22
1.134264184e-21
3.555005379e-22
4.450129913e-21
1.017047662e-20
2.063816343e-23
1.021951422e-21
1.736641227e-21
2.855876574e-21
5.247656783e-22
3.035194503e-21
6.674603983e-21
3.972635422e-21
1.215240395e-21
4.006572663e-22
1.671007863e-21
9.353391434e-21
2.476037786e-21
1.126872221e-20
2.423920256e-21
5.356544559e-21
9.526251506e-21
2.013673257e-21
3.53932676e-21
4.622118118e-21
1.188530548e-21
1.22200764e-22
1.984112721e-22
6.304012122e-21
1.063218788e-20
6.021952058e-21
1.912534485e-22
2.623032758e-21
7.134613204e-22
4.346735159e-21
3.055039183e-21
5.449331485e-21
3.726557907e-21
4.436900238e-21
2.713448508e-21
8.992885013e-22
8.401934262e-21
5.054164177e-21
4.050666892e-21
3.798762813e-22
7.67450389e-21
7.644717023e-21
1.093317316e-20
7.571287789e-21
3.180400754e-21
1.929246593e-21
3.608868354e-21
2.40496959e-21
8.534540585e-22
3.980364061e-21
1.709446803e-21
9.000548811e-21
1.633171503e-20
2.765658937e-22
2.640012061e-21
5.169230715e-21
5.204611491e-22
2.442785718e-21
2.114355762e-21
2.939764519e-22
1.291166128e-21
2.277530615e-20
6.882112235e-22
2.940991584e-21
1.084083508e-20
1.630573838e-21
1.041041477e-20
2.36644645e-21
5.778324099e-21
2.295841123e-21
4.064849613e-21
8.456160969e-22
2.093281834e-23
3.335573255e-21
2.685261192e-21
9.289840614e-21
1.728986801e-21
9.30237715e-21
1.077880753e-20
1.072784829e-20
1.181937146e-20
9.620449028e-21
9.219717327e-22
7.551642621e-21
1.98996282e-22
1.981203898e-24
3.197307214e-21
1.14591507e-21
9.041480195e-21
1.501766582e-21
3.084171325e-21
2.179376943e-21
1.280446518e-20
4.112668568e-21
2.142568348e-21
3.202957833e-22
1.01785039e-22
3.815616422e-21
2.783613415e-21
3.610764905e-21
1.957690966e-22
2.278934727e-21
8.992077479e-22
6.448081427e-21
9.262820404e-21
1.097100238e-20
2.5101631e-21
2.244429817e-21
6.776033564e-21
4.787081293e-23
2.019626744e-21
7.906110055e-21
5.104168849e-22
1.413098915e-21
1.316721974e-20
2.88363591e-21
2.56083491e-21
1.330650781e-21
1.150307425e-21
2.784062404e-21
4.581150656e-21
1.461346716e-20
4.633989175e-21
2.913541743e-21
1.84809062e-20
3.927234819e-21
2.013870472e-21
6.960382076e-22
2.788118611e-22
2.356168256e-21
3.452880024e-22
3.617240242e-21
1.027640937e-21
4.070963299e-21
1.248188194e-20
9.811101202e-21
5.75464619e-21
7.005506279e-21
2.380874065e-20
4.532132166e-22
1.653591021e-20
2.491055621e-21
3.241191738e-21
3.330273001e-22
7.163617838e-21
2.441575216e-21
4.277291145e-21
1.764397335e-21
5.63216706e-22
2.822581886e-21
5.220964892e-21
1.381079907e-21
4.017760963e-21
4.001269986e-21
1.709142478e-20
3.312200102e-21
4.267528721e-22
2.277389051e-21
3.722005366e-22
1.161931012e-20
4.540395595e-22
1.106947964e-20
2.819447383e-21
3.247824247e-21
7.012845371e-21
1.159213772e-21
4.932972116e-22
3.009410904e-21
4.78165031e-22
1.268572615e-20
1.32902181e-21
1.298326883e-20
6.677334009e-22
3.371785466e-22
1.542237685e-21
1.029774833e-21
3.628064525e-21
5.416259494e-21
1.200709825e-21
4.977490979e-21
3.801361342e-21
1.113218791e-20
5.126832346e-21
6.974502901e-21
8.812400157e-22
4.302892994e-21
6.113444594e-22
1.072122257e-20
3.859632883e-21
7.087863524e-21
9.439785866e-24
2.680290235e-21
1.838106858e-22
1.405395749e-20
4.751160202e-22
3.744971171e-21
5.44835481e-21
8.072984047e-21
3.809460661e-21
9.021091085e-22
1.585933741e-21
6.744419206e-21
7.11538037e-21
1.892717534e-21
6.785537275e-21
1.166542474e-21
2.525811632e-22
1.318640859e-20
1.218564149e-20
3.792129943e-23
1.339015887e-21
4.066904306e-21
4.639205405e-22
6.880284676e-21
1.076486816e-20
1.196434964e-21
1.970040316e-21
1.486321758e-20
4.760306014e-21
5.998091189e-21
7.590557904e-21
4.32227925e-21
5.334085097e-21
3.825191502e-21
3.101851772e-21
5.347279383e-21
1.640847874e-21
2.828992909e-21
3.266713159e-22
7.202013173e-21
6.852394539e-21
1.02693207e-20
1.453532308e-21
2.733160266e-23
6.158634284e-21
7.241416519e-21
3.979332432e-21
7.460607317e-22
4.609100032e-22
3.221006003e-21
2.510968407e-21
5.360400914e-21
2.870529048e-21
3.717180868e-21
7.401575981e-21
8.013782224e-22
2.537775013e-21
9.538250028e-22
1.200171033e-20
2.198412411e-21
5.101599761e-21
1.020358602e-22
4.845147169e-21
3.446560386e-22
3.578922458e-23
1.408204116e-21
1.478786589e-21
2.123735989e-21
8.106051581e-22
1.74637547e-21
1.200437506e-21
3.929752359e-21
1.15741853e-21
3.489566757e-21
7.129163983e-21
3.042331389e-21
4.75913435e-22
1.895576045e-21
1.554691211e-20
9.786649486e-21
3.835586519e-21
9.794735903e-21
4.819091241e-21
4.529986203e-21
1.449062707e-21
5.042298286e-22
1.997943045e-21
1.613803452e-21
5.46584373e-21
2.837514093e-21
5.562083106e-21
6.636951276e-22
4.136020921e-21
1.178754623e-20
9.162576096e-21
1.438195512e-21
4.503391994e-21
2.722410701e-21
1.326319338e-20
1.463825233e-21
6.266113938e-21
4.80376103e-22
1.454984277e-21
1.395247833e-21
2.361171427e-21
7.368604697e-22
2.514956843e-21
8.987906427e-22
4.753498933e-21
1.236788632e-20
1.305842684e-20
2.47529291e-21
2.528869762e-21
6.125711911e-21
2.002574242e-21
4.137967682e-22
4.680156598e-21
2.397110904e-21
6.611026801e-22
5.349364008e-21
1.539703161e-20
8.194636362e-21
2.648571927e-22
6.376843469e-22
2.2125633e-21
3.43853332e-21
2.618255118e-21
1.664136021e-21
5.332452313e-21
2.632764606e-21
1.379143274e-21
2.258781922e-21
5.846183381e-21
9.835221404e-23
2.210813939e-21
7.726281712e-21
1.526752349e-21
1.071748561e-20
4.071905449e-21
8.9812785e-23
6.151357353e-21
9.778398846e-22
1.333527947e-21
5.363682471e-21
2.925384405e-21
7.12889684e-21
5.802531309e-21
5.089282186e-21
3.297969569e-21
5.002270959e-21
1.895267026e-21
6.343653535e-22
1.166140024e-20
6.007072994e-21
4.465417811e-22
6.578270842e-21
3.35797153e-21
1.767376389e-21
5.626698006e-21
3.7517342e-21
2.064889716e-21
7.777549073e-22
1.05373834e-21
3.911431993e-21
9.881976705e-21
1.261977392e-21
6.044676058e-21
3.914266531e-21
3.28699001e-21
7.909542921e-21
5.738879214e-22
7.112299162e-21
5.196856601e-21
2.867530569e-21
7.489890263e-21
1.695979971e-21
3.104463411e-21
2.567945555e-21
3.412232351e-23
3.992515468e-22
7.788747254e-21
3.289361243e-21
7.212008934e-21
4.122724012e-21
1.486322427e-21
2.417916224e-22
1.152256538e-21
5.65433077e-21
1.121847028e-21
8.305191806e-21
8.302989625e-22
2.971390007e-21
5.115087795e-21
4.815113347e-21
9.937651282e-21
2.626451673e-21
7.722000054e-21
1.012813016e-21
2.147915608e-22
4.478646322e-21
1.706522553e-21
4.802577784e-22
4.152484688e-21
1.807172514e-21
7.909665452e-22
3.005645919e-21
2.916111497e-21
6.248583014e-21
1.506955389e-20
8.898910397e-22
1.398403472e-20
7.102094791e-21
1.13517913e-20
8.697593843e-21
4.357759807e-21
2.224343232e-21
2.607193556e-21
6.532547504e-22
2.060861489e-21
1.065549726e-21
6.153245938e-22
3.441501853e-21
6.238041681e-21
9.733617597e-21
7.518499238e-21
1.844367754e-21
1.487294478e-21
7.460581822e-21
2.295288685e-23
1.943583372e-21
8.931926797e-21
7.90368814e-22
5.44291892e-21
3.753679254e-22
9.742209279e-23
3.0005655e-21
2.470685688e-21
4.326530831e-21
4.207041174e-21
1.941342631e-21
8.417409957e-22
3.125148068e-21
2.005903205e-21
2.734619466e-21
1.6296142e-20
1.216039907e-20
2.622828183e-21
4.201558439e-21
1.106380581e-20
3.371544822e-22
1.606398882e-20
9.750931563e-22
4.22361363e-23
1.725591052e-21
5.74969696e-21
1.538458972e-21
1.637161305e-21
1.213447487e-20
1.997640333e-21
6.728864155e-21
5.955404984e-21
3.40989716e-21
1.485946956e-20
5.463792371e-22
1.373317834e-21
9.880842029e-22
5.412386422e-21
2.890380337e-21
4.90685899e-21
1.028238473e-21
7.335847864e-21
1.484409645e-21
9.741503411e-23
7.19633988e-21
2.424284985e-21
4.937554659e-21
1.610556307e-20
5.704903302e-21
1.385710668e-20
2.325198921e-21
1.724434442e-21
3.273255325e-21
1.237265664e-20
1.045354038e-20
3.885608376e-22
5.953918674e-21
2.189063766e-21
2.124770507e-21
2.442777036e-21
8.437020159e-21
6.712261147e-22
2.262237208e-21
1.523154887e-21
1.55288176e-21
6.902426133e-22
4.080650706e-22
5.67445887e-21
1.805019995e-21
5.004960958e-21
4.09148631e-21
4.237590472e-21
2.014341195e-21
3.384515069e-21
5.008810047e-21
1.311250969e-21
1.17956011e-21
3.411532726e-22
3.521809574e-21
6.240402457e-21
1.787445527e-21
6.053182311e-21
3.862272789e-21
2.084996277e-21
2.287568573e-21
3.393282162e-21
2.519228021e-21
7.1709879e-21
3.696574589e-21
5.993496059e-21
3.456481728e-21
5.879515808e-21
9.469806804e-22
9.980929911e-22
3.959163264e-21
1.539001352e-21
3.813767151e-21
4.760920236e-22
3.029053577e-21
4.288011172e-21
1.008796606e-21
3.016657395e-21
2.706969132e-22
4.66230919e-22
8.367535233e-21
1.012264448e-20
4.168377003e-21
5.132670959e-22
2.459107134e-21
1.8892488e-21
3.018972404e-21
1.764364427e-21
2.22523608e-21
4.038751665e-21
3.208241813e-21
1.083029033e-22
8.591679739e-22
2.651462384e-21
4.670839875e-21
8.618106157e-21
1.223848717e-21
8.030537288e-21
3.142655706e-21
1.006621462e-20
3.231465627e-21
2.5299643e-21
5.889411577e-21
4.975158327e-21
4.04519968e-21
2.649704024e-21
2.52550117e-21
1.363522273e-21
1.071764199e-20
5.034454941e-21
2.909504366e-21
9.101790254e-22
4.187768113e-21
1.164949559e-20
1.651991287e-21
1.610919399e-21
9.581278296e-21
2.034904347e-22
5.370788792e-21
2.050228965e-22
9.198850745e-22
1.497372378e-21
8.964034343e-22
6.54383482e-21
1.602656667e-20
1.140196025e-20
4.322674524e-21
8.355536335e-21
3.120849676e-21
5.37684333e-21
5.356039572e-21
7.455368897e-22
5.201876859e-21
1.202042229e-21
3.400173149e-21
9.703206791e-22
1.125983538e-20
1.453791896e-21
5.501548878e-21
1.434844003e-21
2.749153551e-21
5.229202402e-21
1.671541252e-21
1.420694207e-21
2.581728354e-21
8.00891945e-22
1.628279315e-20
2.219990531e-21
1.756708865e-20
4.903853205e-21
1.14177394e-21
8.583353589e-21
7.546450551e-22
1.008114333e-20
1.928452629e-21
3.449859963e-21
2.522098248e-22
8.291596992e-21
2.503907421e-21
1.145214649e-20
4.063983108e-21
7.321429299e-21
5.426013306e-21
5.657870906e-21
2.123066186e-21
1.136176001e-21
2.199897058e-20
6.093522733e-22
1.259326801e-21
5.272566365e-21
2.298856099e-22
6.785894462e-21
2.559269343e-21
3.688377768e-21
3.949584279e-21
3.02864752e-21
5.255593464e-21
5.399083149e-24
5.978248393e-21
1.130571353e-22
4.077730175e-21
4.463963122e-21
1.877938816e-21
7.472779691e-22
1.849885161e-21
1.255805576e-21
2.654712958e-21
5.630153107e-22
4.742795481e-21
1.022399654e-21
4.314433159e-21
2.626129034e-21
1.569043987e-20
2.659058062e-21
1.233892127e-20
6.432589183e-22
4.317074098e-21
3.347226324e-21
2.525365884e-21
8.809680077e-21
2.180379304e-21
4.603658279e-21
5.335319878e-21
2.786937308e-21
6.771819435e-22
1.200851451e-21
2.693911245e-21
3.769433779e-21
1.763014879e-21
1.29992857e-21
1.698463065e-21
3.519771315e-21
3.581739183e-21
5.862359474e-22
6.138685744e-21
7.859529481e-21
1.925462713e-20
3.495233154e-22
1.158379691e-21
2.686252954e-21
5.009867503e-21
9.864686661e-21
1.725734577e-21
2.678851504e-23
1.582004157e-20
2.809477463e-21
7.735841614e-21
1.104026546e-20
1.284220436e-21
2.046174433e-21
1.01913126e-21
4.411582569e-21
3.203316614e-21
3.596772351e-22
8.68138453e-22
3.223589811e-21
1.905762168e-21
6.610718059e-21
5.945997194e-21
1.754385487e-21
4.374183694e-21
6.310693005e-22
5.735271987e-22
1.213757618e-21
2.97611671e-21
3.783566845e-21
1.490620054e-21
6.774143524e-22
1.248603163e-21
2.815058831e-21
3.093234256e-21
1.668080015e-21
2.383098178e-21
1.132081725e-20
1.317309792e-21
2.72438182e-20
6.717056709e-22
1.007539849e-20
8.487270713e-21
1.333242501e-20
5.560691264e-21
7.033998794e-21
5.470363519e-21
1.191176439e-21
1.693217477e-21
3.496360202e-21
2.336770939e-21
1.108816102e-20
3.217033135e-21
8.957459542e-22
5.802611072e-21
1.160559757e-20
8.264094214e-21
2.293484265e-21
5.556365058e-22
8.101325743e-21
2.248656452e-21
8.897553096e-21
1.11499537e-20
6.609798092e-21
1.294881465e-21
9.643600178e-22
1.193831787e-20
7.77760869e-21
3.690848189e-21
2.598988639e-21
1.865231724e-21
6.289409017e-21
3.546931135e-22
4.856045523e-21
9.259726568e-22
7.334283982e-21
8.481832205e-21
6.352300303e-22
9.074745213e-22
8.91203696e-21
3.95363448e-21
3.265054169e-21
1.783733375e-22
3.223620855e-21
1.511423309e-20
8.06810407e-21
3.764619626e-21
2.259943966e-20
3.083183099e-22
2.001105082e-21
4.424887971e-22
2.722396788e-21
9.710937082e-21
3.521897871e-21
3.804642034e-22
7.111200163e-21
2.660364393e-21
1.909119885e-21
5.486061636e-21
3.510356524e-21
4.195698681e-22
4.432766745e-21
9.370296075e-22
1.413809709e-21
5.732991272e-21
1.940671711e-21
8.46914087e-21
4.113071761e-21
4.160640777e-21
2.098548794e-22
2.959537549e-21
6.388327802e-22
7.476485832e-21
8.991562753e-21
1.108116364e-20
1.581952249e-21
8.666462076e-21
1.911533318e-21
6.846904179e-22
2.106462778e-21
1.270380443e-20
7.025298222e-22
4.515379572e-21
1.241885171e-21
2.074861139e-21
3.941607739e-21
1.951114706e-21
1.638013163e-20
3.26864048e-21
2.347267105e-23
1.636695646e-21
2.33430757e-21
1.452431799e-21
8.250738842e-21
7.039103187e-22
9.848717001e-21
9.185004741e-21
1.124543286e-21
1.280168724e-21
7.597767451e-22
7.234011699e-22
1.01186694e-20
1.148198115e-20
1.060031383e-21
8.618632824e-22
7.825804341e-21
4.040254004e-22
3.293259502e-21
4.063633911e-21
1.52064816e-21
2.178144488e-21
1.064395627e-21
1.812898982e-21
2.618467389e-21
3.890262471e-21
6.589489068e-21
3.648887992e-21
6.051961486e-21
8.681769139e-21
6.886705447e-21
4.380647169e-21
3.489452586e-22
5.106796399e-23
9.880904624e-21
6.490526884e-21
9.712210304e-21
3.162038282e-21
3.472938456e-21
7.429513961e-21
4.165120347e-21
7.037517432e-21
1.831224691e-20
1.319147601e-21
3.213490325e-21
7.204934549e-23
7.049627308e-21
3.934796496e-21
1.939355057e-21
2.946539015e-21
3.392676845e-21
2.607577299e-21
1.717715453e-21
9.667502517e-21
2.287504608e-21
8.057308276e-21
6.574240016e-21
4.876600321e-21
1.844592745e-20
1.217035164e-21
1.348359478e-20
3.815007092e-21
3.186052147e-21
1.04491698e-20
3.767808807e-21
1.653399344e-21
3.448176715e-21
3.615803764e-22
4.566118274e-22
1.203638617e-21
8.609799045e-21
4.514390524e-21
4.021911557e-21
2.874840311e-21
1.158193023e-21
3.882579054e-21
1.199630319e-20
1.59255298e-21
9.01828696e-21
4.818884672e-21
1.180714335e-20
4.502773702e-21
3.484095545e-21
7.196119173e-21
5.617330062e-21
5.779340015e-22
1.553500895e-21
8.082146448e-21
1.012643818e-21
1.018078444e-20
1.105727337e-20
3.304172611e-21
1.441819153e-21
4.213089682e-21
4.729540778e-21
1.486651609e-21
3.28105796e-21
6.15503707e-21
3.747223293e-21
1.142029296e-20
5.982581291e-21
8.301629853e-21
4.374167158e-21
1.753605822e-21
7.542877431e-21
2.499986212e-21
4.259324165e-21
1.543688749e-21
3.070059344e-21
2.316083948e-22
4.818869231e-21
1.546640311e-22
7.322523077e-22
3.784564737e-21
6.393431335e-22
1.830135339e-21
5.688852766e-22
2.956583286e-21
1.854946563e-21
5.696568781e-21
2.205577872e-21
3.842976167e-21
3.935889544e-21
1.638796319e-20
4.050732853e-21
3.475128569e-21
7.643206391e-21
3.40574164e-21
6.809491735e-21
4.156860334e-22
2.931542204e-21
4.203150355e-21
1.702609987e-21
1.328410965e-21
6.282650401e-21
1.106884071e-21
1.090552036e-20
2.525750698e-22
5.871102512e-21
9.302657363e-21
2.511979891e-21
2.195957966e-21
1.114702029e-21
6.435152182e-21
2.329583345e-21
2.996345219e-21
2.566472655e-21
1.200762287e-22
1.322258961e-20
9.797585777e-23
2.067590232e-21
4.247868964e-23
4.272439794e-21
7.507836837e-21
3.054949974e-21
1.693513268e-21
2.734130863e-22
1.67835676e-21
1.568991596e-22
1.596451586e-20
4.947346879e-21
7.587106309e-21
2.22319964e-21
6.282380602e-21
2.640871166e-21
6.817005346e-21
9.238429726e-22
3.749370202e-22
4.273882392e-21
1.583963127e-22
1.923097421e-21
3.414540568e-21
8.974106632e-22
1.875370809e-22
3.920645791e-21
8.70220201e-21
1.602259743e-21
6.92630205e-21
1.258546933e-20
1.045200663e-20
1.314330291e-21
1.607751499e-21
7.225805145e-21
8.203595147e-21
1.751330041e-20
1.013275762e-21
8.716557953e-21
9.409314851e-21
7.852324018e-22
5.417804575e-21
4.122009501e-21
3.543107311e-21
6.190161651e-21
1.714883439e-21
2.004690806e-21
4.397813422e-21
1.775579502e-21
3.525953683e-22
1.26864732e-20
1.384375216e-21
6.190332126e-22
1.601299335e-22
3.000325232e-21
7.472120247e-22
6.502341816e-21
7.338686876e-22
2.167221868e-22
1.218227066e-21
2.938396127e-21
1.210129195e-22
4.126888468e-21
4.314105616e-21
1.166247099e-20
4.681402426e-21
1.100901345e-21
9.472878431e-21
2.978337236e-21
7.581101832e-21
7.027303626e-21
1.420963792e-21
3.954741238e-22
1.200535243e-21
3.282423084e-21
2.46104735e-21
7.010549341e-22
1.05901321e-21
7.165361143e-22
2.323703809e-21
8.550925606e-21
2.782295689e-21
7.490151476e-21
5.526116675e-21
3.186451329e-21
1.049156038e-21
3.19063201e-21
6.774663864e-21
2.960241717e-22
2.107588762e-21
1.471990541e-20
6.109187792e-22
3.211755572e-21
3.51555503e-21
4.543814216e-23
2.510798157e-21
7.126181014e-23
1.892022707e-21
1.134938176e-21
4.394646008e-21
2.226641876e-21
1.867584619e-21
1.091620004e-20
1.087468766e-21
1.435637801e-21
6.524877916e-21
1.328428788e-20
6.417446281e-21
1.119726438e-20
8.188478612e-21
2.152393271e-22
2.269832025e-21
1.548441214e-21
9.839922209e-22
4.132041291e-21
4.458072394e-21
8.918409174e-21
3.708377943e-21
1.20872107e-20
3.065019065e-22
7.878459657e-22
6.166582164e-21
3.399620891e-22
2.508086239e-21
7.850698129e-22
4.866533501e-21
3.712986632e-21
9.675047213e-21
1.931612986e-21
2.535212717e-21
2.929405638e-21
1.167066864e-20
1.882090709e-21
6.094113296e-21
4.770552489e-21
3.447581123e-21
1.503077242e-21
7.562271965e-21
1.07423602e-22
5.839690019e-21
1.209124424e-22
1.134129103e-20
1.366837582e-20
2.625705823e-21
3.662804648e-21
3.707694844e-21
6.088925343e-21
1.347571359e-21
1.055126995e-21
3.446537984e-22
5.342967521e-21
6.68349411e-21
2.41762166e-21
6.422103511e-22
8.640414174e-22
1.158095391e-21
2.702905488e-22
5.849059495e-23
2.63904212e-22
1.932351446e-21
6.575158638e-21
4.758546569e-21
9.485068682e-22
1.273934787e-21
5.619804178e-21
9.147542681e-22
2.766946365e-21
2.11712135e-23
2.571661191e-21
3.169070977e-21
3.95691932e-23
2.228443528e-21
4.232162747e-21
3.24545756e-22
3.064795827e-21
1.504104555e-21
3.385122039e-21
2.219397518e-21
1.10727441e-22
3.914172e-21
7.681971696e-21
8.672111615e-21
1.108128118e-21
4.559489545e-21
1.973367342e-22
1.841685499e-20
4.185236785e-21
3.542934036e-23
2.174950015e-21
2.765994079e-21
1.060107267e-21
3.154647648e-22
6.143650899e-21
5.363151968e-21
9.441511837e-22
2.17669994e-21
1.652146462e-21
4.534570812e-22
1.964624657e-21
4.176997548e-21
8.470313851e-21
4.921253468e-21
4.343966095e-21
6.289218118e-21
2.108378458e-22
1.034556929e-20
9.619410696e-21
8.115852043e-21
3.092011014e-22
1.540583212e-20
2.768038081e-22
4.85560158e-21
1.13421719e-21
4.601336625e-21
4.173769905e-21
7.101747051e-21
1.891030627e-21
7.203127515e-21
6.954932279e-22
7.719833606e-22
8.386386728e-22
3.123785975e-21
2.94538304e-21
2.082364956e-21
1.244066282e-21
6.138277976e-21
3.368718873e-21
2.300799811e-22
1.843352373e-21
2.803445677e-21
1.245738242e-21
9.324316454e-23
1.260476348e-21
9.58522369e-21
2.314808373e-21
5.486625217e-21
1.665401144e-21
2.114948491e-21
7.979751272e-22
4.92323164e-21
4.26925148e-22
1.348457089e-21
1.031983865e-20
5.721697315e-21
1.098828261e-21
2.906627279e-21
9.79131543e-22
1.28515764e-21
1.530699814e-20
1.689592031e-20
4.811747765e-21
1.911114005e-21
2.893702623e-21
1.536458004e-21
1.550185621e-21
1.15134822e-20
1.243914197e-20
1.81828259e-20
5.302555033e-21
4.513734985e-22
1.29758658e-21
3.933523887e-21
3.12749649e-21
8.708389085e-23
1.157041551e-20
6.4819389e-21
8.831051693e-22
5.747925106e-21
6.078317318e-22
3.490343109e-21
1.179969835e-21
3.670047676e-21
1.077930339e-21
5.053662148e-22
7.550776962e-21
6.810513035e-21
7.622165776e-21
9.117408142e-21
1.605280105e-21
1.263532004e-20
5.024792029e-21
8.177628628e-21
3.038258432e-21
5.546019633e-22
1.316952955e-21
1.160492511e-21
8.52861158e-22
1.950848708e-21
1.8145135e-21
3.511208259e-21
5.050800406e-21
8.878153363e-21
1.549043598e-21
4.834485222e-21
3.817578277e-21
5.542634534e-21
7.945219532e-21
1.663564747e-21
7.064941442e-21
2.300641604e-22
2.19232919e-20
1.852932076e-21
1.070667893e-20
4.738007191e-21
4.444232303e-21
9.983456056e-21
1.747991139e-20
1.417230933e-20
9.796323826e-23
8.922972993e-23
8.04734409e-22
2.023065521e-21
9.198174647e-21
6.502179133e-21
4.088346741e-21
1.600493773e-20
2.27475443e-21
1.039552408e-21
7.557681227e-21
1.311247452e-23
7.839289629e-22
7.950244792e-21
4.191338736e-21
2.030010642e-21
6.06878135e-21
3.073874738e-21
1.188229923e-20
1.095851801e-20
1.85156111e-22
2.373599174e-21
8.899263474e-21
3.389059233e-21
3.308012644e-22
3.527905125e-21
4.005609628e-21
7.636188106e-21
2.340825917e-21
1.54723827e-21
4.621007979e-21
1.513103324e-21
4.126762516e-21
4.235165439e-22
4.896102407e-21
3.702389779e-22
8.199158722e-21
1.11460434e-21
2.244845919e-20
6.704316137e-21
1.6248535e-21
5.649276282e-21
3.011572151e-21
3.353763859e-21
2.193491659e-21
1.103985507e-21
5.854938209e-21
4.387938176e-21
3.327423548e-22
7.049270372e-21
1.565578481e-21
8.185768749e-23
4.569043831e-22
3.570116524e-21
3.209577734e-21
1.089052092e-21
1.80356585e-21
4.882792552e-21
1.532221829e-20
1.57917736e-21
2.058626988e-21
5.445265176e-21
6.643299734e-21
6.146878693e-22
2.672673388e-21
1.612682004e-21
3.058803618e-21
2.596578386e-21
4.174233291e-21
4.30650686e-22
6.741722638e-21
1.752546977e-22
1.84144994e-21
1.9568625e-21
6.954622369e-21
1.00035001e-21
4.285742893e-22
6.762765755e-21
2.799542303e-21
8.730778049e-21
3.027179909e-21
2.485095225e-22
2.516948878e-21
6.434647075e-21
1.662273681e-22
1.389295903e-21
6.379936027e-22
1.120690204e-22
1.391500383e-21
1.251556395e-20
1.353090845e-21
6.978638559e-22
1.493982868e-20
4.991323923e-21
1.217827189e-20
1.179221537e-21
2.562749849e-21
1.842868469e-21
5.810523891e-21
7.833290009e-22
4.866058317e-21
6.995716216e-21
4.140155495e-22
6.051925318e-21
8.340078008e-21
3.085714534e-21
2.638336726e-21
5.38885227e-21
8.671438849e-21
7.319319836e-21
6.082568188e-21
3.668530952e-21
8.748571371e-21
1.698585194e-21
3.109820314e-22
5.830604162e-21
7.963475972e-23
5.089675602e-21
4.412303447e-21
2.445326169e-21
2.386319903e-21
8.475269048e-22
1.88444985e-20
5.2715284e-21
9.677500989e-21
1.644360589e-21
2.399757716e-22
1.683867998e-20