/*--------------------------------*- C++ -*----------------------------------*\
| =========                 |                                                 |
| \\      /  F ield         | OpenFOAM: The Open Source CFD Toolbox           |
|  \\    /   O peration     | Version:  2406                                  |
|   \\  /    A nd           | Website:  www.openfoam.com                      |
|    \\/     M anipulation  |                                                 |
\*---------------------------------------------------------------------------*/
FoamFile
{
    version     2.0;
    format      ascii;
    arch        "LSB;label=32;scalar=64";
    class       Cloud<dsmcParcel>;
    location    "0.001/lagrangian/dsmc";
    object      positions;
}
// * * * * * * * * * * * * * * * * * * * * * * * * * * * * * * * * * * * * * //

5122
(
(0.07372458969 0.1691049218 1.084202172e-19) 365
(0.07509277182 0.1858631551 0) 385
(0.07247403231 0.2270756343 1.355252716e-20) 445
(0.07420172496 0.183643831 1.084202172e-19) 385
(0.07005726566 0.2766743649 1.084202172e-19) 515
(0.06939894428 0.2455042438 -1.084202172e-19) 475
(0.06796244249 0.2789385185 0) 524
(0.06400487716 0.2748559173 1.626303259e-19) 514
(0.07439495973 0.2554819589 -2.168404345e-19) 485
(0.07320391824 0.2657484844 2.168404345e-19) 505
(0.04127758698 0.1753575271 1.084202172e-19) 371
(0.06329880889 0.2141233845 -1.084202172e-19) 424
(0.07033695476 0.2351108381 2.168404345e-19) 455
(0.07082083368 0.2477039321 1.626303259e-19) 475
(0.04737203618 0.2460432063 -2.168404345e-19) 472
(0.06892634481 0.2758906032 5.421010862e-20) 515
(0.05289606541 0.2041423347 -2.168404345e-19) 412
(0.07382829788 0.2452715369 0) 475
(0.03211991532 0.2601559261 5.421010862e-20) 490
(0.03710441128 0.281835402 -3.083199928e-19) 520
(0.06739596245 0.1677909065 -2.168404345e-19) 364
(0.06745712589 0.1757270002 1.084202172e-19) 374
(0.07005943018 0.2902955989 2.168404345e-19) 535
(0.0697514435 0.2791022059 0) 525
(0.06009660735 0.1909273758 2.168404345e-19) 393
(0.05381770697 0.2115535534 0) 423
(0.07014940077 0.2291288071 3.252606517e-19) 445
(0.05769529722 0.2379377259 0) 463
(0.07486125193 0.2790028291 6.505213035e-19) 515
(0.06312759321 0.196239116 -2.439454888e-19) 404
(0.0622000986 0.2227569734 0) 444
(0.05689957114 0.249345668 -2.168404345e-19) 473
(0.07372921354 0.1960711918 -2.168404345e-19) 405
(0.04861932048 0.2477979699 1.626303259e-19) 472
(0.05136772656 0.2066426832 -2.168404345e-19) 412
(0.07405619671 0.2769493474 2.168404345e-19) 515
(0.0724422445 0.2481319349 0) 475
(0.06639019645 0.2319047388 2.168404345e-19) 454
(0.07122779485 0.238912355 0) 465
(0.07196776016 0.276464159 2.168404345e-19) 515
(0.05784054092 0.2858659593 4.33680869e-19) 533
(0.03252812768 0.235915713 -1.084202172e-19) 460
(0.07556668601 0.2780087438 -4.33680869e-19) 515
(0.06783342652 0.2768753727 4.33680869e-19) 514
(0.06752914863 0.291387454 0) 534
(0.04703717405 0.2593383583 2.168404345e-19) 492
(0.07345167585 0.1770515081 2.168404345e-19) 375
(0.07322321851 0.2186208987 5.421010862e-20) 435
(0.07502817827 0.2067813484 0) 415
(0.06720806239 0.1941096854 -8.67361738e-19) 394
(0.05028566934 0.237603114 -1.084202172e-19) 462
(0.05077361616 0.2633854715 0) 492
(0.06557499687 0.2886134254 -5.421010862e-20) 534
(0.06983712543 0.294731854 0) 545
(0.05081656877 0.297965549 1.084202172e-19) 542
(0.07150453425 0.2026298518 0) 415
(0.05892366364 0.2273887562 4.33680869e-19) 443
(0.05872563315 0.1969339737 -8.470329473e-21) 403
(0.06287946639 0.1925133143 2.710505431e-19) 394
(0.03267310433 0.2329474964 2.710505431e-19) 450
(0.07578801095 0.2127832641 0) 425
(0.06295834228 0.2243046782 -5.421010862e-20) 444
(0.07284109495 0.2563989495 2.710505431e-19) 485
(0.04212620974 0.196315531 3.659182332e-19) 401
(0.06445360744 0.2169196912 5.421010862e-20) 434
(0.06346555715 0.2460627398 -3.252606517e-19) 474
(0.04636594772 0.2901607892 -1.084202172e-19) 532
(0.05451833098 0.276730462 2.168404345e-19) 513
(0.03375410875 0.276432038 -3.252606517e-19) 510
(0.07504000887 0.1881761096 4.33680869e-19) 395
(0.0374181932 0.1960392695 0) 400
(0.06538289005 0.1670215254 -4.33680869e-19) 364
(0.02511865392 0.2416648703 2.168404345e-19) 469
(0.0129732573 0.2100918338 2.168404345e-19) 417
(0.0670265496 0.2126467573 0) 424
(0.07096812743 0.1784810177 2.303929617e-19) 375
(0.04049606462 0.2082982935 1.084202172e-19) 421
(0.02353096525 0.1973964099 2.168404345e-19) 409
(0.04623329843 0.1849904328 0) 392
(0.06565462743 0.2548486522 2.168404345e-19) 484
(0.05656944949 0.2593319003 3.794707604e-19) 493
(0.02842454766 0.2233516067 2.168404345e-19) 439
(0.05767816897 0.2673327784 -2.168404345e-19) 503
(0.04228203311 0.2715501367 0) 511
(0.06968107935 0.290783242 -1.084202172e-19) 535
(0.06196357348 0.2215632997 1.084202172e-19) 434
(0.07600460857 0.2861000942 0) 535
(0.04873382948 0.258162549 -1.626303259e-19) 492
(0.0674360719 0.2743676817 2.168404345e-19) 514
(0.06902340175 0.2745776671 -4.33680869e-19) 515
(0.03430675497 0.2006866444 2.168404345e-19) 410
(0.06353968849 0.197322786 -1.084202172e-19) 404
(0.05933827491 0.193253668 4.33680869e-19) 393
(0.07013487378 0.1739948517 2.168404345e-19) 375
(0.05335576611 0.2349569158 0) 453
(0.04788030455 0.1696567428 2.168404345e-19) 362
(0.06848704283 0.2287374578 0) 444
(0.06884066465 0.2202706163 0) 435
(0.06187668879 0.2283112862 2.185345004e-19) 444
(0.06800919873 0.2271842159 0) 444
(0.04963727788 0.2300395502 2.168404345e-19) 452
(0.07220338456 0.2382398765 0) 465
(0.04597176084 0.2365346582 0) 462
(0.05754447459 0.2098076855 0) 423
(0.07396973192 0.2553536575 -1.084202172e-19) 485
(0.06813378462 0.2445864133 0) 474
(0.05223823317 0.2414841943 -2.168404345e-19) 462
(0.05797133293 0.2121841544 3.794707604e-19) 423
(0.0572174086 0.260512405 1.355252716e-19) 493
(0.04727568872 0.2371181073 -1.355252716e-19) 462
(0.06550689176 0.2307996417 0) 454
(0.07476302075 0.2766800242 2.168404345e-19) 515
(0.07190919417 0.2900017215 1.016439537e-19) 535
(0.06377562547 0.2576857466 -2.168404345e-19) 494
(0.05683481864 0.2901286843 -5.421010862e-20) 533
(0.05709222963 0.2985524585 0) 543
(0.05287091572 0.2926450609 0) 532
(0.0510989332 0.233192734 2.168404345e-19) 452
(0.05130352621 0.1812509245 1.626303259e-19) 382
(0.07586575138 0.180911174 2.168404345e-19) 375
(0.06863668355 0.1873063514 2.452160382e-19) 385
(0.04267547048 0.2270155976 5.421010862e-20) 441
(0.06769416048 0.1723825049 -2.168404345e-19) 364
(0.0529502955 0.1729488333 -2.168404345e-19) 372
(0.051537997 0.1733014257 2.168404345e-19) 372
(0.07351011131 0.1916591433 -1.084202172e-19) 395
(0.05559547558 0.2093130947 -1.084202172e-19) 423
(0.07492030545 0.2302069102 0) 455
(0.07115900792 0.199223661 3.252606517e-19) 405
(0.05426280406 0.2124336202 -2.168404345e-19) 423
(0.07463346188 0.2617325214 0) 495
(0.07058291293 0.2677867386 -1.084202172e-19) 505
(0.0647484853 0.2413767354 -2.168404345e-19) 464
(0.074560538 0.2881128846 0) 535
(0.04701297538 0.27526107 1.355252716e-19) 512
(0.06872171306 0.2714942274 0) 505
(0.07288463378 0.2472433005 -2.168404345e-19) 475
(0.07492932918 0.2954348767 -4.33680869e-19) 545
(0.06096360544 0.2963314899 0) 544
(0.06193818761 0.2859486791 0) 534
(0.05271912278 0.2587927405 0) 492
(0.03585657895 0.2146089485 0) 430
(0.0592848414 0.1944049019 0) 403
(0.02357421477 0.2431509884 3.252606517e-19) 469
(0.02888200877 0.2232498273 -1.084202172e-19) 439
(0.05779260906 0.1757651429 -1.626303259e-19) 373
(0.07368290418 0.2178551358 0) 435
(0.06671504153 0.2631526246 -6.505213035e-19) 494
(0.0622282549 0.2050278735 1.626303259e-19) 414
(0.07500864325 0.2333154681 -1.084202172e-19) 455
(0.05405208202 0.2131927242 -2.168404345e-19) 423
(0.06678935352 0.2402430185 4.33680869e-19) 464
(0.06492677446 0.2429187181 -1.355252716e-19) 464
(0.05493318335 0.2680818313 -3.523657061e-19) 503
(0.02601747934 0.2575458256 4.33680869e-19) 489
(0.05277939281 0.2997879799 -2.168404345e-19) 542
(0.06554270513 0.2145102062 -1.084202172e-19) 424
(0.062302541 0.2615173318 5.421010862e-20) 494
(0.06086238922 0.2724106723 -2.168404345e-19) 513
(0.05927952088 0.2563754353 -2.168404345e-19) 483
(0.03574192864 0.1925314813 -4.33680869e-19) 400
(0.02349169111 0.1940986941 -5.421010862e-20) 399
(0.06146151012 0.2004367263 2.032879073e-19) 404
(0.07344276293 0.216382569 2.168404345e-19) 435
(0.03711080025 0.2241023105 -6.505213035e-19) 440
(0.05694154327 0.183855881 -1.084202172e-19) 383
(0.06300784888 0.2346753646 -3.523657061e-19) 454
(0.04755637987 0.2253082942 -1.626303259e-19) 442
(0.07343970668 0.2046657066 -2.168404345e-19) 415
(0.05763550728 0.2527255981 3.252606517e-19) 483
(0.06436931601 0.2118206112 1.219727444e-19) 424
(0.06248196115 0.2935557736 -4.33680869e-19) 544
(0.05671314196 0.2398391358 2.710505431e-20) 463
(0.04230566034 0.2690467291 -3.252606517e-19) 501
(0.02822039169 0.1907916629 -2.168404345e-19) 399
(0.07083945701 0.2776723269 1.084202172e-19) 515
(0.07447049198 0.2699627545 2.168404345e-19) 505
(0.05146319603 0.2550659877 2.168404345e-19) 482
(0.02692560909 0.2424653242 -2.168404345e-19) 469
(0.06838322154 0.2693274118 -4.33680869e-19) 504
(0.07193635637 0.2281879119 1.084202172e-19) 445
(0.04885620631 0.285590858 0) 522
(0.0291853865 0.2835760777 0) 519
(0.0527522009 0.2648631085 -4.33680869e-19) 502
(0.05118549235 0.2769063406 -3.252606517e-19) 512
(0.02774308018 0.2586619234 6.505213035e-19) 489
(0.02175570057 0.2745460374 -2.168404345e-19) 508
(0.06889286441 0.2603349638 0) 495
(0.05330602213 0.2819391641 3.117081246e-19) 522
(0.06439474706 0.255787472 3.252606517e-19) 484
(0.03484836206 0.2835876881 3.794707604e-19) 520
(0.07294301422 0.2948758117 -4.33680869e-19) 545
(0.05122948074 0.1732310518 -3.252606517e-19) 372
(0.07482203015 0.2117567571 -5.421010862e-20) 425
(0.07381412124 0.1778496105 1.084202172e-19) 375
(0.07003580579 0.2028055346 -2.168404345e-19) 415
(0.05171064093 0.2471538928 4.33680869e-19) 472
(0.06621231648 0.1878951542 0) 394
(0.04999771549 0.2083174544 2.168404345e-19) 422
(0.05470882393 0.2463221739 -2.168404345e-19) 473
(0.06516244638 0.2150387246 3.523657061e-19) 424
(0.04628946101 0.2742907897 -2.168404345e-19) 512
(0.07142215162 0.2259774004 -1.626303259e-19) 445
(0.05608582588 0.2058325038 2.168404345e-19) 413
(0.06039136262 0.2260558252 -2.168404345e-19) 443
(0.009906005168 0.2243023772 -2.168404345e-19) 437
(0.03894839512 0.1704146808 0) 371
(0.05742770869 0.2221355981 -4.33680869e-19) 443
(0.05425482322 0.2523394073 0) 483
(0.07526000968 0.2383749306 2.168404345e-19) 465
(0.06754359043 0.2366698301 0) 464
(0.0669242773 0.2539166368 -1.355252716e-19) 484
(0.04569282194 0.2558787807 0) 481
(0.05082519274 0.2278528448 0) 442
(0.03541746582 0.220477807 2.168404345e-19) 440
(0.06554835649 0.2285914712 -1.626303259e-19) 444
(0.06794014238 0.2808838341 -1.084202172e-19) 524
(0.06549011539 0.2759119306 -2.168404345e-19) 514
(0.03169906853 0.2560214808 -2.168404345e-19) 480
(0.02879406278 0.2616311399 2.168404345e-19) 489
(0.07527665038 0.2644479287 0) 495
(0.03516253053 0.2988721864 1.084202172e-19) 540
(0.06388065133 0.2442570121 -2.168404345e-19) 474
(0.04047004897 0.262329813 -1.084202172e-19) 491
(0.01363381352 0.1694855755 -2.168404345e-19) 367
(0.06103601548 0.168262616 0) 364
(0.07460569885 0.1802257392 -2.168404345e-19) 375
(0.05091255687 0.2160598374 3.252606517e-19) 432
(0.04219942845 0.172185767 1.084202172e-19) 371
(0.06977677545 0.2250000027 -3.252606517e-19) 445
(0.07017488925 0.2249425789 -3.794707604e-19) 445
(0.0754708077 0.2114180155 0) 425
(0.05380791346 0.2236185499 0) 443
(0.05927591711 0.1746298622 2.168404345e-19) 373
(0.03833214518 0.2288144001 0) 451
(0.05782823738 0.2323247877 1.355252716e-19) 453
(0.05177685493 0.1701967501 -2.168404345e-19) 362
(0.0173941459 0.189753656 1.084202172e-19) 398
(0.06978241767 0.2370805613 2.168404345e-19) 465
(0.06302889085 0.2650175004 -2.168404345e-19) 504
(0.05730831178 0.2555837122 -8.131516294e-20) 483
(0.05871420869 0.2772223399 -2.168404345e-19) 513
(0.04046270183 0.2511703327 -3.252606517e-19) 481
(0.04907799987 0.2627484875 0) 492
(0.0465011314 0.270008046 0) 502
(0.06819483474 0.2780498833 -2.168404345e-19) 514
(0.01866738538 0.2453681721 -8.131516294e-20) 468
(0.05164924735 0.2889811468 -1.084202172e-19) 532
(0.06726341392 0.246116312 1.084202172e-19) 474
(0.0684158362 0.294835441 2.168404345e-19) 544
(0.05465420617 0.2674108858 -2.168404345e-19) 503
(0.07373923222 0.1703975104 2.168404345e-19) 365
(0.02876117419 0.1821344483 -4.33680869e-19) 379
(0.002788694024 0.206733212 8.131516294e-20) 416
(0.07200208667 0.1976320211 -8.131516294e-20) 405
(0.06879610614 0.2045939346 0) 415
(0.05027499583 0.1794050187 0) 382
(0.03136011505 0.1760649958 2.710505431e-19) 370
(0.06305774604 0.1848787164 8.131516294e-20) 384
(0.06488724707 0.2148091443 -1.626303259e-19) 424
(0.05404814639 0.1809008998 -3.252606517e-19) 383
(0.05383807423 0.1862758633 -1.321371398e-19) 393
(0.07249354534 0.2170491087 2.168404345e-19) 435
(0.03830987481 0.1701649804 -2.981555974e-19) 371
(0.06386572409 0.214727239 -2.168404345e-19) 424
(0.07139073273 0.2230858903 0) 445
(0.05152395652 0.1890012271 -7.453889936e-20) 392
(0.07157769411 0.1986406482 1.626303259e-19) 405
(0.04271715037 0.2147660341 -6.505213035e-19) 431
(0.04656629267 0.2353607285 -2.168404345e-19) 462
(0.06062045513 0.2210392006 0) 433
(0.04307908021 0.2031142804 2.168404345e-19) 411
(0.01451963181 0.1863827069 0) 387
(0.07365583496 0.1992962924 -1.084202172e-19) 405
(0.07130493453 0.1978747191 4.33680869e-19) 405
(-0.006874893072 0.2124980569 -2.168404345e-19) 139
(0.05443355304 0.2385035952 0) 463
(0.05220637982 0.2487185118 -2.168404345e-19) 472
(0.03905748408 0.2509216513 -1.626303259e-19) 481
(0.05709872425 0.1903476502 0) 393
(0.02686108363 0.2358577865 2.168404345e-19) 459
(0.04775643452 0.1993572999 2.168404345e-19) 402
(0.06478012658 0.2130984419 -4.777265823e-19) 424
(0.07513806994 0.2258242933 -1.084202172e-19) 445
(0.03804568103 0.2263061281 -4.33680869e-19) 440
(0.04518106312 0.2827865428 2.168404345e-19) 521
(0.04757757846 0.2484645578 8.67361738e-19) 472
(0.05400669763 0.2444116038 -1.084202172e-19) 473
(0.04540547879 0.2443574877 2.168404345e-19) 471
(0.02037960021 0.2600489125 1.084202172e-19) 488
(0.0557582931 0.2384265093 -1.084202172e-19) 463
(0.06444495294 0.2370563287 1.897353802e-19) 464
(0.0705223408 0.2733807747 -2.168404345e-19) 515
(0.02931006745 0.2806047717 -4.33680869e-19) 519
(0.06707682699 0.2662419178 0) 504
(0.06841434055 0.2815820496 5.421010862e-19) 524
(0.0343906536 0.2642729612 2.168404345e-19) 500
(0.04853837074 0.2567368452 2.168404345e-19) 482
(0.04574680019 0.2938520552 -2.168404345e-19) 542
(0.06548395174 0.1823359409 0) 384
(0.04205656042 0.2119844546 -5.421010862e-20) 421
(0.05031334389 0.1983059052 -1.084202172e-19) 402
(0.05305592322 0.1925568483 4.33680869e-19) 392
(0.0348297284 0.2030497345 -5.421010862e-20) 410
(0.06911395306 0.189955257 -2.168404345e-19) 395
(0.00429281187 0.2429153623 0) 466
(0.04693841441 0.2483950234 0) 472
(0.02375180351 0.1857414149 -4.33680869e-19) 389
(0.0472899986 0.243333833 2.168404345e-19) 472
(0.05445738528 0.196740832 3.794707604e-19) 403
(0.06286323394 0.238004198 -2.168404345e-19) 464
(0.04994091692 0.231607512 5.421010862e-20) 452
(0.02278392021 0.2085299051 0) 418
(0.04525740521 0.2407357417 0) 461
(0.03870859203 0.2566994188 -2.168404345e-19) 491
(0.05980991825 0.2134632792 0) 423
(0.074153389 0.2098900506 2.168404345e-19) 425
(0.07548288703 0.2513313893 0) 485
(0.03631193113 0.2887305036 2.710505431e-20) 530
(0.06987898088 0.2046124797 0) 415
(0.07512946637 0.23710364 0) 465
(0.0682540808 0.2730758738 0) 514
(0.06168647408 0.2313347146 0) 454
(0.04603912623 0.2510661932 -2.168404345e-19) 482
(0.07396426285 0.2403252368 0) 465
(0.0702425677 0.298469812 3.627418597e-19) 545
(0.07178031784 0.2460067463 3.252606517e-19) 475
(0.05336165784 0.252753402 2.168404345e-19) 483
(0.06515184002 0.2364614267 -4.33680869e-19) 464
(0.06779668993 0.2500607687 0) 474
(0.02315467372 0.2646848687 3.252606517e-19) 499
(0.05933893518 0.283748946 0) 523
(0.04779403585 0.2418960553 2.168404345e-19) 462
(0.05879820402 0.2229147524 -2.168404345e-19) 443
(0.0496263335 0.2659432081 0) 502
(0.06024516074 0.2818327359 5.421010862e-20) 523
(0.06951270571 0.2840564451 0) 525
(0.06389875247 0.274713819 1.897353802e-19) 514
(0.07373607569 0.2349221022 -5.421010862e-19) 455
(0.06534564083 0.1854633111 -2.168404345e-19) 384
(0.04377788507 0.200109472 0) 411
(0.04791530554 0.1804264001 0) 382
(0.03290563778 0.1716461744 4.065758147e-19) 370
(0.07098818399 0.2163750388 -2.168404345e-19) 435
(0.03996666639 0.2076848839 0) 421
(0.05828928105 0.2199292445 1.084202172e-19) 433
(0.07042574823 0.2050815735 0) 415
(0.06888437207 0.1905438574 2.168404345e-19) 395
(0.04099765434 0.2223157326 0) 441
(0.008213443029 0.183145398 0) 387
(0.05792316498 0.2162987538 -2.168404345e-19) 433
(0.07338937855 0.202886787 0) 415
(0.06653530647 0.2526029841 0) 484
(0.04961581305 0.2136478174 -4.065758147e-20) 422
(0.03530396659 0.2295112949 0) 450
(0.05475548455 0.2443432156 2.981555974e-19) 473
(0.04301144383 0.2066516424 0) 421
(0.06493890676 0.2020439376 -4.33680869e-19) 414
(0.01815872344 0.2279048082 -2.168404345e-19) 448
(0.0757573955 0.2307060389 -6.505213035e-19) 455
(0.04243324965 0.2519728203 -2.168404345e-19) 481
(0.03076233843 0.2177233097 2.168404345e-19) 430
(0.05777406847 0.2746726324 5.421010862e-19) 513
(0.05325102666 0.2354497789 0) 452
(0.06471826076 0.2614747429 2.168404345e-19) 494
(0.03573259041 0.2277775187 4.33680869e-19) 450
(0.07561045589 0.2479149105 0) 475
(0.06627030247 0.2696564328 1.084202172e-19) 504
(0.06774070793 0.2645599722 -2.168404345e-19) 494
(0.03544830786 0.2751036201 -2.168404345e-19) 510
(0.07101956325 0.2766753088 2.168404345e-19) 515
(0.0416624913 0.249396809 -2.168404345e-19) 471
(0.06019736424 0.2682664494 0) 503
(0.06135948736 0.2647897426 -2.168404345e-19) 504
(0.06583267641 0.2762893565 1.084202172e-19) 514
(0.05737947669 0.2565259937 -3.252606517e-19) 483
(0.06941219999 0.2622309231 0) 495
(0.04771017829 0.2961514609 0) 542
(0.03800339163 0.269183525 4.33680869e-19) 500
(0.04904105262 0.2814955595 3.794707604e-19) 522
(0.06112800831 0.2999294698 -3.997995511e-19) 544
(0.04258332907 0.2725859363 4.33680869e-19) 511
(0.07228533104 0.2955900127 -2.168404345e-19) 545
(0.0595806605 0.2728106923 -6.505213035e-19) 513
(0.06977250048 0.2691016134 0) 505
(0.06564138251 0.2040169456 0) 414
(0.04413962132 0.1729769276 3.252606517e-19) 371
(-0.01544141674 0.2029802879 0) 117
(0.02444804114 0.2148532798 0) 429
(0.04478370514 0.1731618937 2.168404345e-19) 371
(0.02886589518 0.1989646035 0) 409
(0.04889327668 0.215398954 6.505213035e-19) 432
(0.0345237573 0.1990172032 2.168404345e-19) 410
(0.04475340876 0.1920310512 -4.33680869e-19) 401
(0.07162262135 0.2049348695 -2.168404345e-19) 415
(0.03980731509 0.2186625799 -2.168404345e-19) 431
(0.06430867444 0.2083134867 -1.084202172e-19) 424
(0.04401981434 0.2103366904 2.168404345e-19) 421
(0.05640500414 0.2283281309 2.168404345e-19) 443
(0.07365504086 0.1792183555 2.168404345e-19) 375
(0.05103998355 0.2118121269 4.33680869e-19) 422
(0.06011922293 0.1894283609 2.168404345e-19) 393
(0.07034412928 0.2304721288 0) 455
(0.05096415021 0.2584278062 0) 492
(0.06782517059 0.1999930631 2.168404345e-19) 404
(0.02119410917 0.2244970844 0) 438
(0.07029053664 0.2379144835 0) 465
(0.03292225275 0.2330211392 0) 450
(0.04956634884 0.2547535118 2.473336206e-19) 482
(0.04093813778 0.2013150813 2.168404345e-19) 411
(-0.01666586419 0.2634316491 0) 277
(0.05745334472 0.2635110009 -1.355252716e-19) 493
(0.03840510726 0.2798011154 1.084202172e-19) 521
(0.05401015704 0.1916731401 0) 393
(0.05623329106 0.2449870837 -6.505213035e-19) 473
(0.04116855984 0.2641682572 1.084202172e-19) 501
(0.0445335249 0.2477291033 -2.168404345e-19) 471
(0.06934368771 0.2658458176 1.084202172e-19) 505
(0.06280155339 0.2324274514 1.084202172e-19) 454
(0.07108320422 0.2625340983 0) 495
(0.07109150324 0.2614802777 -5.149960319e-19) 495
(0.05665465463 0.2861325434 -2.710505431e-19) 533
(0.0691546529 0.2911037806 0) 535
(0.001571167546 0.2578031685 2.168404345e-19) 486
(0.05400836873 0.197568588 -1.084202172e-19) 403
(0.039492655 0.1829203156 -3.134021905e-20) 381
(0.04588683357 0.2257810455 -5.421010862e-19) 442
(0.05646865906 0.1651493126 -2.168404345e-19) 363
(0.07426619155 0.1851276605 2.168404345e-19) 385
(0.05945733413 0.2066494064 -2.168404345e-19) 413
(0.05785743283 0.1821175742 -4.33680869e-19) 383
(0.06685270645 0.1807324991 -2.168404345e-19) 384
(0.05480454323 0.16640596 1.084202172e-19) 363
(0.04451902798 0.1744675516 2.168404345e-19) 371
(0.04580594482 0.1982661294 0) 402
(0.04372518241 0.1997377998 2.168404345e-19) 411
(0.05301537918 0.1815543113 -5.421010862e-20) 382
(0.06428629809 0.2130521161 -3.252606517e-19) 424
(0.0520740881 0.1963590446 0) 402
(0.0191809851 0.2166514113 3.252606517e-19) 428
(0.05851950415 0.1784281011 -4.33680869e-19) 373
(0.02401677767 0.2172210944 0) 429
(0.07034130181 0.2004775981 -5.421010862e-20) 405
(0.06441721859 0.1964463955 2.710505431e-20) 404
(0.01722350275 0.1773987998 1.084202172e-19) 378
(0.06533757801 0.198813298 1.626303259e-19) 404
(0.06054311158 0.2323621522 -2.710505431e-20) 453
(0.06581482087 0.2321874448 1.084202172e-19) 454
(0.03579527157 0.1939582993 5.421010862e-20) 400
(0.05648675991 0.1848213387 -2.168404345e-19) 383
(0.05484354132 0.2527441473 -1.084202172e-19) 483
(0.04674517972 0.217448566 -3.388131789e-19) 432
(0.05803567678 0.2133262892 1.084202172e-19) 423
(0.02388726188 0.2235698873 -2.168404345e-19) 439
(-0.01996798023 0.2397149156 2.168404345e-19) 197
(0.0427122858 0.2319633553 5.421010862e-20) 451
(0.02818063716 0.2228294106 -1.897353802e-19) 439
(0.04302868518 0.212694841 -6.505213035e-19) 421
(0.0503022449 0.2831148003 5.421010862e-20) 522
(0.05338342389 0.2128243592 0) 423
(0.03819919611 0.2471752423 1.084202172e-19) 471
(0.06331742238 0.2279465722 1.084202172e-19) 444
(0.07284939833 0.2217748743 -4.33680869e-19) 435
(0.01819584256 0.2390193269 -1.084202172e-19) 458
(0.0607092552 0.2556258989 4.33680869e-19) 483
(0.06737161015 0.2294949243 0) 444
(0.0120256094 0.1872071426 6.505213035e-19) 387
(0.03542169329 0.2331760794 -5.421010862e-19) 450
(0.05852428627 0.2603899926 1.626303259e-19) 493
(0.04934243122 0.2266538438 4.33680869e-19) 442
(0.00917734163 0.2701053021 -1.084202172e-19) 497
(0.05616035565 0.2428962162 2.168404345e-19) 463
(0.06008737836 0.2462241117 4.878909776e-19) 473
(0.03582019285 0.2295314855 2.168404345e-19) 450
(0.01387743168 0.2672897553 -4.33680869e-19) 497
(0.0588801497 0.2776059882 -5.421010862e-19) 513
(0.02200493259 0.2537462958 0) 478
(0.03160182861 0.2437351863 1.084202172e-19) 470
(0.05064730558 0.2611101732 0) 492
(0.03648915742 0.2536909152 0) 480
(0.05905173509 0.2737937849 -3.252606517e-19) 513
(0.001084007175 0.2588210041 2.981555974e-19) 486
(0.04466518868 0.2734163909 2.168404345e-19) 511
(0.04506192061 0.2515973415 2.168404345e-19) 481
(0.004268575009 0.2712534461 -4.33680869e-19) 506
(0.04547223694 0.2759655285 0) 511
(0.06588777577 0.2640053072 4.33680869e-19) 494
(0.05107351861 0.2984190406 1.084202172e-19) 542
(-0.007030536808 0.2691840732 0) 279
(0.07134951387 0.2895442883 -4.269046054e-19) 535
(0.06155056192 0.1763993908 -2.710505431e-19) 374
(0.06115044339 0.1995406794 2.168404345e-19) 404
(0.0426040189 0.2136299289 0) 431
(0.05263411634 0.1725015132 0) 372
(0.04697639623 0.1798927773 4.33680869e-19) 382
(0.02236121321 0.1911810358 0) 398
(0.02576442436 0.2314302366 -9.486769009e-20) 449
(0.003466438004 0.1864954964 -4.33680869e-19) 386
(0.06417219822 0.1729655128 2.168404345e-19) 374
(0.0116603539 0.2202486616 0) 437
(0.04775698358 0.210775634 -1.084202172e-19) 422
(0.04893504266 0.2218793343 2.168404345e-19) 442
(0.04928634432 0.2288522937 -3.523657061e-19) 452
(0.02373939203 0.2230672047 4.472333962e-19) 439
(0.01031865202 0.2078318306 -1.626303259e-19) 417
(0.07078131101 0.2312112126 2.168404345e-19) 455
(0.05564036766 0.2270604206 3.252606517e-19) 443
(0.07095645326 0.2107568133 -3.252606517e-19) 425
(0.01905590088 0.259262572 1.626303259e-19) 488
(0.03720719788 0.2437137166 0) 470
(0.022015515 0.1714734135 -4.33680869e-19) 368
(0.05941497435 0.2085838792 2.168404345e-19) 423
(0.04564459426 0.2573971376 0) 491
(0.02191402696 0.2392382021 0) 458
(0.06038363741 0.2204525976 0) 433
(0.0645591654 0.2030453863 -2.439454888e-19) 414
(0.05623656532 0.2245350543 4.065758147e-19) 443
(0.07125568011 0.2392023432 0) 465
(0.04605172275 0.2511822825 2.168404345e-19) 482
(0.01458951536 0.2009896519 2.168404345e-19) 407
(0.03982463218 0.2710113566 -1.084202172e-19) 501
(0.0202929705 0.242953529 2.168404345e-19) 468
(0.05492451629 0.2279625665 2.168404345e-19) 443
(0.01775898781 0.2395648222 2.168404345e-19) 458
(0.06320933207 0.2754753218 0) 514
(0.03567233452 0.2633653691 1.084202172e-19) 490
(0.07414073042 0.237676129 0) 465
(0.03407238081 0.2240297592 7.182839393e-19) 440
(0.04121992789 0.2890125748 3.252606517e-19) 531
(0.04918453702 0.2446017803 -1.355252716e-19) 472
(0.05466577689 0.2578309932 0) 493
(0.02049768196 0.2604664813 3.252606517e-19) 488
(0.04841029911 0.2625788019 -1.084202172e-19) 492
(0.02412390833 0.2775243671 2.168404345e-19) 509
(0.07126053852 0.2755777632 8.131516294e-20) 515
(0.05691852258 0.2466701369 -3.862470239e-19) 473
(0.04513836792 0.2856046139 0) 521
(0.03186458982 0.2884780174 0) 530
(0.05427306322 0.2544087229 1.626303259e-19) 483
(0.05913169959 0.2920369955 4.33680869e-19) 533
(0.05325385467 0.271495274 4.33680869e-19) 512
(0.04611364231 0.2677252094 1.490777987e-19) 502
(0.01338472706 0.2031173876 0) 407
(0.06243664091 0.1704271194 2.168404345e-19) 364
(0.04781882954 0.1833488591 -1.219727444e-19) 382
(0.02861166747 0.207581569 3.252606517e-19) 419
(0.03980013621 0.1819615907 -1.084202172e-19) 381
(0.02371855273 0.1951409494 -1.084202172e-19) 399
(0.0652394603 0.228667356 -1.084202172e-19) 444
(0.04418639779 0.1937905787 -2.168404345e-19) 401
(0.05931804798 0.2240474924 -3.252606517e-19) 443
(0.04908210002 0.1864346725 -1.626303259e-19) 392
(-0.02375046169 0.2014472194 -2.168404345e-19) 96
(0.0562137859 0.1988226628 0) 403
(-0.001175862134 0.2072678298 2.168404345e-19) 119
(0.05381700999 0.1947377479 -1.084202172e-19) 403
(0.03600200613 0.2311161649 2.168404345e-19) 450
(0.01711665498 0.1799124445 0) 378
(0.01879432356 0.2290624763 -4.065758147e-19) 448
(0.05225261748 0.2681789946 0) 502
(0.06538935319 0.2016987327 0) 414
(0.03615823624 0.2504124445 4.33680869e-19) 480
(0.001115518692 0.174245445 1.626303259e-19) 376
(-0.002860145985 0.2095243264 1.084202172e-19) 119
(0.03155300368 0.2574650235 -9.486769009e-20) 490
(0.01119923023 0.2528901004 -1.084202172e-19) 477
(0.05969274796 0.2430823387 -4.33680869e-19) 463
(0.05000564056 0.2512897804 -2.168404345e-19) 482
(-0.02221038567 0.2244820893 3.252606517e-19) 157
(0.06495921598 0.2303343042 -2.168404345e-19) 454
(0.03383806885 0.2593160977 0) 490
(0.01716679621 0.2683178434 -5.421010862e-19) 498
(0.02143265741 0.2485325434 -4.33680869e-19) 478
(0.05833477309 0.2146904657 4.33680869e-19) 433
(0.01075099761 0.2502793153 5.421010862e-20) 477
(0.03958031779 0.2699554613 1.355252716e-19) 501
(0.037485747 0.2834802301 0) 520
(0.03208855952 0.2210926084 0) 440
(0.06171901537 0.2388194218 0) 464
(0.03804488486 0.2542527475 -4.33680869e-19) 480
(0.06521310562 0.2565114135 0) 484
(0.05425623551 0.2695969008 0) 503
(0.07252840152 0.264406929 9.486769009e-20) 495
(0.06081907097 0.2749584214 -2.710505431e-19) 513
(0.03053225114 0.27905273 -1.084202172e-19) 520
(-0.01703564037 0.2791759012 2.168404345e-19) 317
(0.04572603973 0.2533511504 6.640738306e-19) 482
(0.05026552252 0.2727216945 2.168404345e-19) 512
(0.05823641658 0.2646550955 0) 503
(0.03813297281 0.2785908487 5.421010862e-20) 521
(0.04377253976 0.227543012 0) 441
(0.06117227082 0.2909010884 -2.168404345e-19) 534
(0.02848514394 0.2831636458 0) 519
(0.0344872921 0.2701370572 -4.607859233e-19) 500
(0.0522054851 0.284320701 2.168404345e-19) 522
(0.03891009516 0.1884267769 -1.084202172e-19) 391
(0.02536922421 0.1937905043 -2.913793339e-19) 399
(0.04114598055 0.2084722058 5.421010862e-20) 421
(0.05751924363 0.1856311917 -2.710505431e-20) 383
(0.01854342738 0.1689391841 2.710505431e-19) 368
(0.04764438241 0.199305445 1.084202172e-19) 402
(0.01661941683 0.1705584179 -2.168404345e-19) 368
(0.03337180912 0.208938974 1.626303259e-19) 420
(0.03802362708 0.1701351578 0) 370
(0.03249598037 0.1689164893 2.168404345e-19) 360
(0.06223864515 0.1907679154 1.626303259e-19) 394
(0.05108696207 0.1835289422 -3.252606517e-19) 382
(0.01615363448 0.1931991084 -1.626303259e-19) 398
(0.06943314079 0.2322875767 -2.168404345e-19) 455
(0.07562242541 0.1763455907 -3.252606517e-19) 375
(0.03368186687 0.1982706423 2.168404345e-19) 410
(0.06130337888 0.1938346296 0) 404
(0.04650281751 0.1826172212 -1.084202172e-19) 382
(0.04739896173 0.2029604105 4.33680869e-19) 412
(0.0593891014 0.1944036961 0) 403
(0.04315314044 0.2507681731 -2.168404345e-19) 481
(0.04042221662 0.2265615809 0) 441
(0.0579693995 0.1843139128 -4.33680869e-19) 383
(0.04099046017 0.2479130088 0) 471
(0.02465383151 0.1989545668 2.168404345e-19) 409
(0.04859269511 0.2058259137 0) 412
(0.07208491722 0.2353476267 6.505213035e-19) 455
(0.042876323 0.2206145878 -2.168404345e-19) 431
(0.07177014185 0.217010843 4.33680869e-19) 435
(0.05204280136 0.2365011811 0) 462
(0.05974351856 0.2281210269 2.168404345e-19) 443
(0.05939175827 0.2430407355 -4.33680869e-19) 463
(0.02430017237 0.2626149302 2.710505431e-19) 489
(0.05703097606 0.2408405771 0) 463
(0.06741794636 0.2573671974 4.33680869e-19) 484
(0.0394125348 0.2329971973 0) 451
(0.02873252096 0.2629875326 0) 489
(0.007718735124 0.2151961109 -5.421010862e-20) 427
(0.04174688282 0.2391167317 -5.421010862e-20) 461
(0.04481009121 0.2632586947 0) 491
(0.05115172029 0.2197380642 -4.33680869e-19) 432
(0.03732764388 0.2763799329 4.33680869e-19) 510
(0.05197305963 0.1804850999 3.252606517e-19) 382
(0.03890455449 0.2616115558 1.084202172e-19) 491