/*--------------------------------*- C++ -*----------------------------------*\
| =========                 |                                                 |
| \\      /  F ield         | OpenFOAM: The Open Source CFD Toolbox           |
|  \\    /   O peration     | Version:  2406                                  |
|   \\  /    A nd           | Website:  www.openfoam.com                      |
|    \\/     M anipulation  |                                                 |
\*---------------------------------------------------------------------------*/
FoamFile
{
    version     2.0;
    format      ascii;
    arch        "LSB;label=32;scalar=64";
    class       vectorField;
    location    "0.001/lagrangian/dsmc";
    object      U;
}
// * * * * * * * * * * * * * * * * * * * * * * * * * * * * * * * * * * * * * //


5122
(
(1819.85669 -282.5311002 366.7000038)
(1270.729404 -244.363614 9.252078954)
(1265.191948 -219.2159017 -120.6286164)
(1145.468341 104.8123564 76.62636574)
(1581.440937 195.8844156 325.0231468)
(1860.383877 -717.0153541 85.96990963)
(843.8122378 158.2347095 -177.2050501)
(1145.272304 618.9211128 -402.0683225)
(1743.021447 -451.0899091 387.6432978)
(1501.545457 306.2746555 -1.822329004)
(1337.897207 -244.700202 388.6716235)
(1761.832554 -31.52968914 233.3452742)
(1495.082721 -143.1315725 -460.829553)
(1466.359593 497.1878232 -115.2232169)
(1293.638795 -194.9228272 -171.3380115)
(837.3993509 305.8663134 -89.71271059)
(1193.166877 114.6374394 254.9811386)
(1503.833628 -294.4291691 149.681459)
(1173.867532 -83.45606131 -142.3132614)
(1230.677995 -3.908174425 17.74749846)
(1375.357503 -297.5397379 565.4711818)
(1433.889709 -157.8879945 -159.6913851)
(1987.851854 -154.463659 142.1367849)
(1749.74444 -80.90313017 183.6381591)
(1349.458742 84.64134468 446.6908303)
(2218.446536 -67.11356328 375.1075944)
(1495.103491 122.4333635 -100.843805)
(1376.252584 -302.612456 -432.4278455)
(1270.732459 617.0779278 -2.173651676)
(1324.005224 -95.39598021 60.17425327)
(1409.809951 -39.79449238 184.275706)
(1641.646589 360.1642664 7.292478804)
(1783.667918 -321.124339 -362.8004179)
(1690.674622 -292.1387622 512.0040187)
(1033.410515 -162.3472975 -624.320797)
(927.5506796 -276.8924548 -249.7193801)
(1936.713993 181.0150573 -33.97742961)
(1587.386219 163.412743 127.7562542)
(1714.586602 99.52694632 -90.37712526)
(1328.765075 471.9428965 31.74438775)
(1675.059377 478.920191 -381.8280173)
(1354.974276 -67.18554709 -3.177640601)
(1833.557535 195.4899993 111.3624356)
(1285.277355 12.88703938 114.3082629)
(1879.026796 402.3924186 -68.54873062)
(1473.012454 322.9112717 -502.7599221)
(1826.409324 -146.6448932 70.02131232)
(1370.027503 392.6913291 -427.4138439)
(2044.661951 382.1635265 -182.2065067)
(1516.394473 430.6336054 -151.5389155)
(1082.656374 196.2328944 216.6052478)
(1204.880816 -52.38034147 -226.5989472)
(1514.216946 -28.47754355 -244.9636243)
(1442.559159 -301.7686784 194.5950252)
(1836.090879 207.2181762 -301.7237273)
(1324.020539 399.4063397 -37.30805106)
(1058.380454 -334.9815643 -255.1202715)
(1742.589663 453.7450897 120.9629513)
(1912.645317 -116.5797976 -359.7038956)
(1234.287581 376.9966149 -146.0272726)
(1496.039687 135.6129245 -208.4481938)
(1302.964604 462.0342548 -300.6940921)
(1620.674742 8.9050625 162.2960815)
(1414.274642 -591.8528043 0.4830337765)
(1606.777872 -101.6420725 95.29307758)
(2171.98379 376.3174685 152.4847786)
(1526.990901 458.189022 -330.7107551)
(1646.782757 81.96082126 360.7666146)
(1862.054174 116.3821548 -450.3646086)
(1602.897751 156.5527782 414.4027064)
(1514.734785 -193.1643147 73.86959543)
(1574.881818 -216.4293754 140.0819965)
(2066.032953 -114.4058708 -269.5292336)
(1930.767818 -248.2747827 65.33425664)
(1740.444828 -225.9800038 -448.1050399)
(1565.484996 -268.9298329 59.64878812)
(1795.168037 -131.8776253 415.9054328)
(1461.671824 395.3759649 -137.9209415)
(1407.021015 -342.3068146 -372.6895829)
(1597.232162 -319.8666017 -72.74843384)
(1533.566523 124.8095213 -421.4939256)
(1754.566919 423.6459459 -1.882303737)
(1739.12908 250.8464332 -158.268607)
(1258.69122 154.6418161 -380.4521153)
(1497.920457 509.1214553 -405.6041179)
(2108.774001 -184.1873163 364.5951898)
(1594.429384 6.164617343 727.7090461)
(1228.396008 95.70223986 -177.2561027)
(1737.680223 -353.4649849 -353.927621)
(1702.148355 -378.8333237 -174.6901719)
(1212.758674 175.8105491 -234.6554772)
(1844.52775 143.2386379 492.443071)
(1491.829247 224.0474427 341.6516397)
(1453.73343 -95.17582363 177.0082894)
(1608.157791 156.396681 49.12753867)
(1225.560035 -248.1174125 354.3950489)
(1678.675027 35.55784237 372.6062852)
(1990.427746 268.5250194 -435.8760333)
(1796.229326 268.9859894 35.98647464)
(2049.622776 127.0089168 -131.9433495)
(1925.127771 -241.8925339 -23.03647568)
(1447.091777 117.3452337 -241.3937867)
(1269.304376 359.0144908 -125.9819578)
(1852.86583 36.58818832 -160.7274526)
(1449.707984 188.4952043 -153.2369368)
(1498.2647 165.8521263 -211.0756541)
(1800.01631 268.6019141 -10.7113843)
(1651.165096 -419.7392792 -224.2540932)
(1268.702748 126.7736651 88.15495316)
(912.5472448 -378.6675186 227.2438438)
(1601.029567 -87.2560043 -287.3677224)
(1859.613254 4.768403524 -333.6128322)
(1499.291336 238.1519399 -366.3863776)
(1247.812217 -216.4245576 87.57072287)
(1569.579239 -29.31492861 250.8491677)
(1312.41845 279.1700067 -66.67051586)
(1487.615331 48.6645716 -433.6172012)
(2172.596145 -384.3591576 268.6309814)
(1530.614099 75.37542605 -606.4726263)
(1679.426033 -105.8826581 -65.76991072)
(1598.971296 294.8166278 42.12466931)
(1346.6933 619.6221578 1022.427653)
(1997.570003 -287.5429356 231.1988862)
(1531.825045 161.5022151 -97.60732266)
(1545.70924 -367.7183793 250.365995)
(1270.817799 116.9646772 6.515867728)
(1489.34974 -703.4594857 -201.0726546)
(1669.710611 -51.01688423 -186.3584677)
(1269.009486 117.904207 -15.62385974)
(1610.487607 -453.9406093 376.437742)
(1655.215809 -177.4826813 -181.6327074)
(1564.450678 357.8513741 -406.2004903)
(1927.531459 -183.5430511 20.43936994)
(1965.338571 175.6249128 -311.3223089)
(1640.426789 155.1018923 -191.7755642)
(1507.674508 251.253129 66.0393236)
(1346.244183 121.6639543 -44.39729179)
(1850.396643 260.7781457 404.7915415)
(1769.072478 124.4571551 317.7613344)
(1285.637398 468.377153 -499.3166086)
(1237.31338 -332.3899047 -168.9836305)
(2406.540366 345.9560951 -204.5696078)
(1528.914422 183.9104513 -275.3504001)
(1249.161848 167.3945812 250.6842702)
(1046.916406 -498.2172363 -241.4527325)
(1528.198957 -55.66421713 -53.41159517)
(1213.643713 -457.1824591 -567.0893018)
(1466.803246 -205.53607 80.7125301)
(1393.998577 -61.56723333 188.7773876)
(1655.839891 -380.1697349 -270.8812804)
(1554.511131 -305.8983408 59.80729593)
(1742.817008 -425.8489806 -22.77694292)
(1639.851928 -148.0647999 220.8413128)
(1609.370885 -262.5901736 98.33048349)
(2434.379649 173.3146485 607.6432677)
(1512.149615 169.2084445 249.1395586)
(1839.582802 -595.8293686 -71.97743012)
(1607.169617 -32.18322258 -216.3325494)
(1944.949865 137.3318434 -346.9466042)
(1527.774637 -44.59534011 263.0943178)
(1440.796949 52.76838869 -399.5530422)
(2008.886978 -43.06212199 -411.2155512)
(1317.29149 -811.6988533 320.9553419)
(1652.450415 395.3622003 166.5298739)
(2024.196536 374.3930478 -409.0631532)
(2271.060451 -495.8573992 172.4042572)
(1882.34889 246.0644377 -142.562711)
(1657.318491 -36.93460792 -557.7932972)
(1364.770605 -389.8733708 -188.6791595)
(2210.913571 136.2852986 477.2883328)
(1778.747005 -113.1674724 437.4754042)
(1201.049929 584.1874322 432.507555)
(1666.443281 93.90131207 106.317344)
(1475.194397 214.1485154 1.508664392)
(980.5293119 -292.2861376 364.8851961)
(1436.738353 278.15671 -638.4830778)
(1694.352258 149.7952867 139.3193637)
(1507.981639 -319.8566437 290.9411585)
(1356.448344 160.4582237 177.6534878)
(2094.957382 443.8860122 -311.6283302)
(1602.447237 -279.2249268 -256.3421642)
(1931.893121 -410.3009706 -250.9932953)
(1433.416769 24.89674121 -152.7545617)
(1597.539013 -97.01061132 -151.681948)
(1551.34949 -337.9973164 -491.8774295)
(1788.448371 705.5763932 -385.4694191)
(1278.813614 -69.69854468 18.2674845)
(1344.238448 -153.6207916 -282.2440916)
(1466.520764 -137.8624213 291.979243)
(2289.063921 -282.3864839 285.273332)
(1520.656133 -200.9552309 451.2959764)
(1429.819621 96.63357577 55.2753912)
(1946.826078 301.9503304 37.9818736)
(2000.075797 -243.2355701 -263.0475616)
(1835.964215 89.59472998 125.7668895)
(1193.010985 229.1684271 430.4465231)
(1481.559684 -323.3691313 -158.4136143)
(2183.800122 -357.7860409 -6.861256578)
(2064.385346 126.7032427 29.68037372)
(1419.606016 -0.5867747459 397.5177363)
(1580.476971 121.5674718 22.60960627)
(914.3544432 442.4349713 109.2296936)
(1464.844075 425.7514947 -145.2284856)
(1301.355064 -47.80501979 352.7514264)
(1560.000856 -3.853256495 227.5740805)
(1271.34434 115.1383457 183.9239004)
(1887.925736 -218.62526 -449.8602168)
(1597.446585 -45.03901482 359.7584352)
(1695.005292 -104.6157701 -31.28780388)
(2038.593844 -45.91763044 189.0617761)
(2210.9306 -71.77788624 445.1005214)
(1417.169578 81.64499672 147.1318348)
(1611.94271 252.2960575 -57.47594222)
(1320.487714 106.6309997 -85.83109234)
(1929.446506 -326.5049816 84.51057045)
(1251.862852 -167.0991032 -107.2691155)
(1713.925272 -37.09163847 120.5816828)
(2096.306928 397.9123969 203.7204837)
(1235.116888 308.7222245 67.2489154)
(1334.002721 -297.4774064 10.03033782)
(1792.835171 -408.3392837 -34.80164677)
(1513.724846 681.7507991 -515.3544698)
(1486.019603 -536.8453654 48.67898762)
(1354.822221 34.52057387 -65.76876094)
(1403.247429 -126.726217 -298.63927)
(1840.553911 -257.7225983 6.820935872)
(1871.419751 -408.3191175 -20.19315183)
(1954.145847 198.2287703 101.7523213)
(1898.30922 12.19030674 203.8274115)
(1817.317979 330.9924549 226.7994283)
(1610.896145 324.3194538 -177.7454095)
(1906.165749 -331.2867308 331.7035078)
(1603.723513 -49.84521881 -305.501208)
(1315.575055 -68.44811204 55.71682247)
(1814.293237 292.9753646 -441.3359637)
(1394.029864 131.3422888 200.3918138)
(1968.755013 -520.8450527 -17.5412828)
(1345.815573 -95.00577736 110.6320183)
(1793.54079 64.88066504 -197.382252)
(1709.33978 770.3400038 471.3488875)
(1697.685005 326.5029715 -433.4519128)
(1879.099491 164.5793073 2.697459569)
(1684.725286 -123.5414092 374.4063605)
(1629.830133 518.6999074 53.98131968)
(2098.867019 -257.8537456 118.9404069)
(1765.868118 217.5967688 533.8135594)
(1148.079012 -48.90879877 -148.3818863)
(2186.536058 255.5111933 937.3736526)
(1786.431432 -41.36401772 -102.0789387)
(2085.994893 273.3543505 -167.492748)
(1240.410597 28.19364574 -458.8149729)
(1582.532802 52.42613233 -39.69882059)
(1575.842212 -254.5660016 -418.9191986)
(1038.919845 -116.3082249 479.7428158)
(1975.155861 -259.8320511 69.61758089)
(1647.675799 48.12558567 -350.6312605)
(1491.216815 -66.54039067 -137.0274358)
(1111.054017 -295.3213855 178.9955765)
(1865.832473 -129.6691648 552.7265716)
(2066.32847 613.2841376 346.0613682)
(1214.290168 -65.37084424 -5.658881367)
(2297.187203 -257.6565794 -319.7184285)
(1794.833576 415.7081891 -171.0655849)
(1313.505056 90.05994769 -681.9784069)
(2060.601451 -490.5280189 -152.293215)
(1655.740156 307.890144 -18.85015142)
(1454.277949 -110.2523254 -62.34147613)
(1895.098641 102.9810849 339.514351)
(1491.374393 -282.3019865 -8.663373767)
(1543.960944 -296.1533685 481.1887621)
(2117.485947 52.49992277 317.5461025)
(1606.571357 50.99662463 -161.0688214)
(1284.421043 18.07674723 -102.9909689)
(1689.764308 282.300618 -490.9337913)
(1678.100128 -121.2216022 -67.66526421)
(1110.004378 45.61103505 -331.37791)
(1885.239008 -106.9414655 -428.5331627)
(1535.324808 -322.7529183 571.8580885)
(1860.43467 5.537508141 258.9608588)
(1734.090522 -641.7300357 299.5744556)
(1620.163745 122.9422796 90.07420849)
(1782.276503 -399.226825 -285.4503422)
(1830.44105 461.7801932 -264.087218)
(1583.542371 -95.13724212 -22.60275453)
(1783.667648 -19.27705649 -530.3352188)
(1455.573728 265.8100274 1.493001112)
(1287.88847 -77.60446082 -282.1916094)
(1651.636134 -265.5102122 235.7327447)
(1232.125573 112.4942915 147.8355109)
(1441.287987 15.75392322 -33.2131852)
(2032.621878 -357.3493458 22.24226521)
(1767.529425 603.3325477 -274.6128985)
(1998.746898 388.5862941 169.6330613)
(1703.687394 189.8862011 -357.938381)
(1625.950013 -136.7064867 -211.6074586)
(1798.111352 -107.6470218 -145.0681449)
(1393.996916 -66.84837945 22.58810273)
(1655.430082 -232.1577069 -528.8661511)
(1641.30028 112.398392 -272.0032808)
(1790.293153 367.2018389 -408.506385)
(1999.606386 -121.1383426 440.4926737)
(1755.870696 155.9709486 167.9340547)
(1472.085449 -29.7722879 -2.44634709)
(1300.727367 95.72935296 -613.6621211)
(1935.495383 -66.46097266 132.4991489)
(1533.752101 -409.5307637 130.7726782)
(1568.362012 215.8853604 -444.4545359)
(1560.948652 -51.00907588 -58.55610339)
(1643.394292 -95.9722489 410.9088694)
(1922.410518 121.0388582 -130.7249914)
(2438.442395 107.7606963 108.5414027)
(1727.236519 111.9853889 319.5113623)
(1388.380022 -317.3087246 20.58682449)
(1541.396924 -305.0211169 1007.032516)
(1654.302833 313.8487126 52.76442779)
(2053.576483 -37.98683089 53.60664601)
(1061.572474 4.866072393 227.8137539)
(1711.490763 315.9378797 -103.1114484)
(1851.310429 134.4412321 -539.0061139)
(2188.294324 -410.7768107 258.9358594)
(2165.546613 -578.7253718 -254.8743996)
(1488.711224 -301.1578502 -223.223129)
(1441.935564 -143.797523 -103.6474735)
(1622.060238 -128.4320663 -149.8177552)
(1652.102281 -27.78512889 499.0241767)
(1922.607766 197.4263758 -2.279089284)
(1979.978342 -107.1691759 -381.7908695)
(1609.766089 69.91995008 439.4200937)
(1649.031618 -51.47312755 409.1982482)
(1680.93868 269.5145569 -209.4678541)
(1322.824218 -192.8470946 468.8273072)
(1611.314983 -409.3373382 -343.8059543)
(1574.437469 -318.494527 -443.9815038)
(1819.387793 -75.55569387 -112.5603876)
(1626.996076 -238.4041094 -226.0028454)
(1353.784396 -178.2668059 -295.889317)
(1782.299274 153.8744507 365.0107428)
(1744.506068 -184.1282898 207.5884219)
(1841.220775 -328.9987217 -233.0130728)
(1735.932912 394.5407562 166.600358)
(1177.396403 603.8984875 292.6166989)
(1420.217292 -371.1931772 -247.2493202)
(1533.680665 -91.9477859 -58.08279444)
(1522.804652 223.3378772 248.2203503)
(1584.38997 -191.7896361 2.348994502)
(1847.202314 196.6225619 -122.2261922)
(1701.516631 -141.2666383 244.3786456)
(1738.409636 85.47249847 -86.59059338)
(1618.563563 -347.919267 -253.7968946)
(1674.505408 274.2631282 79.90875064)
(1232.828555 223.3952072 142.0288735)
(1909.735641 -76.52107046 -301.9638109)
(1604.074849 544.3613827 -0.08714202601)
(1769.778356 157.0638294 -140.5063463)
(1303.896148 258.2510966 112.0063344)
(1517.80945 -140.9203726 636.4984118)
(1700.978181 -252.2274663 -129.6454814)
(1837.126872 58.04071186 13.10815007)
(880.1470867 -186.9853472 340.7145118)
(1962.695733 181.0578077 -0.8801012022)
(1564.731259 -150.4769386 -326.4786579)
(1744.360376 84.54335703 216.7419826)
(1783.031666 -32.9120441 -185.5803252)
(1866.52388 -56.82686915 263.5473878)
(1779.82181 149.4233687 -37.83417517)
(1523.165511 -73.26808488 429.0807264)
(2186.213242 83.51787474 535.8034698)
(1876.169828 259.976899 -92.36899736)
(1352.415278 424.6916911 -85.48607622)
(1477.080352 -205.4810216 -66.57301188)
(1965.234363 -50.76080945 -25.52882714)
(1652.186385 -131.1999242 -343.3244602)
(1465.426402 -72.18008036 -297.8843401)
(1944.411935 32.01085006 -88.06142651)
(1905.243937 -359.2084307 96.55534942)
(1853.317338 95.86125995 -146.1443949)
(2166.41017 -236.7323775 127.2245171)
(1634.51659 226.3847557 -580.6994195)
(1512.948478 -85.4692467 284.3746308)
(1683.011983 -8.074999716 -268.5824594)
(1713.814707 343.8069652 61.32202343)
(1507.672274 10.73858102 -452.0398831)
(1990.140183 -149.9383013 245.7498492)
(1810.455365 -487.8617934 89.15799262)
(1895.096551 -293.865017 -302.8934122)
(1776.041104 514.187578 -152.4287229)
(1596.587455 -7.03762513 31.43946355)
(861.1642498 267.6388669 72.56107709)
(1092.609332 -57.71683654 398.9313477)
(1708.202189 41.47928685 375.7737595)
(1266.323233 -148.3484855 261.6482039)
(1733.892556 -73.61331952 92.44969043)
(1909.676671 259.9576793 -689.1769907)
(1470.465604 86.54630622 -321.9775823)
(1900.284355 -434.899911 135.5608751)
(1836.570814 570.3277304 283.3146601)
(1841.651312 166.7376919 3.271803513)
(1647.751225 31.86875121 171.6725479)
(1783.284892 130.3656358 -49.06351321)
(2068.242593 -33.00570564 210.7923137)
(1658.859009 -121.4603739 -208.5476054)
(1334.253649 266.0511611 76.69949676)
(1957.405674 30.37291083 438.0661276)
(1502.008464 365.8378649 -25.84340997)
(1852.719079 -359.6280155 106.5900754)
(1347.352795 -182.1581526 15.01771464)
(1880.12722 78.14253203 195.2750954)
(1590.102549 92.08457048 -265.4848215)
(1605.239477 -376.0756689 -185.1418191)
(1747.93542 -166.0536714 72.7225599)
(1037.124953 96.33603104 283.775155)
(1554.713144 60.22841586 -134.697115)
(1484.254443 603.3844013 29.46194984)
(1751.729889 -556.8938456 68.13663349)
(2097.005357 -35.81927241 -293.1569062)
(1524.633268 -70.05291865 162.6500545)
(1638.435521 -225.9243884 -242.1357739)
(1856.563714 21.35223176 115.2095036)
(1866.78406 -356.6479845 -252.4291312)
(2008.830021 252.5997943 -177.7496525)
(1751.283378 295.4636045 192.674324)
(1799.309874 -366.743027 70.52814481)
(1997.428419 96.89824228 -85.78961179)
(1671.442967 -386.0410813 243.027623)
(1754.528149 120.0326119 355.7480184)
(1690.650548 198.9126834 -237.4243203)
(1338.188434 474.35841 30.35030122)
(2014.56922 -299.1764305 45.97834836)
(1594.174716 15.54131358 225.080351)
(1752.969565 565.475574 208.1399564)
(1790.287285 9.378844397 -284.9143598)
(1411.776921 -127.0071148 -283.0855766)
(1911.546904 -349.8121503 -91.2464636)
(1464.547421 159.2927289 -189.4251218)
(1610.406772 162.5396732 -285.5317385)
(1764.679998 -328.2495023 -130.2396389)
(1820.63333 208.7714119 -178.3658554)
(1767.265266 -196.0776493 -533.264709)
(1470.419749 136.1175049 -6.57357992)
(1935.101455 362.4830485 -143.2341587)
(1692.811524 -416.2387655 -276.669778)
(1553.11162 585.0421708 337.6103043)
(2271.855681 -22.43836274 89.11439342)
(2107.403008 -239.2664526 302.1796244)
(1794.177427 -259.66047 72.09580113)
(1841.598467 -104.1706828 321.0824443)
(1255.231207 342.8628058 144.9423122)
(1636.014174 -84.93844675 -165.5497554)
(1471.975101 -84.76244209 472.3950752)
(1645.091475 546.7743897 191.1757779)
(1636.69847 103.9321228 -324.0258688)
(1617.365123 122.6057494 905.7620906)
(1797.592154 614.313672 -155.4967904)
(1464.922019 18.40265478 -124.4931423)
(965.0547682 -198.3449661 -26.7549698)
(1695.866712 -2.649816784 -159.4303003)
(1532.684227 -0.4086615878 28.9865644)
(2320.119593 -288.826696 223.8489883)
(1884.092001 674.0583334 -66.67348299)
(1887.716258 -413.9977613 439.1450047)
(1615.416916 118.2898215 -21.87874831)
(2068.148118 -277.320621 -320.4652006)
(1942.728328 -235.0534179 -80.93368667)
(1402.446809 -481.656125 383.4589205)
(1354.248181 -347.2062475 526.7459769)
(1729.253823 169.5480949 -106.1759946)
(1543.058641 -568.4204029 -157.2646318)
(1787.195441 -242.7492472 177.6697991)
(1894.490863 432.6246661 26.15831765)
(1337.75963 -207.1635216 -314.314943)
(1561.394828 -298.4691901 -354.0237175)
(1795.170668 -144.1261513 -162.0048482)
(1806.744592 -244.6013384 549.9333079)
(1828.417984 -133.4631707 -100.1384826)
(1316.891417 153.2360358 128.1740224)
(1962.35611 -1.136172475 145.0157213)
(1600.532006 -34.45804234 -207.39725)
(1309.465891 -197.3059044 -366.8369935)
(1896.948855 -172.325912 -39.59839817)
(1709.768898 -246.5360395 -340.8015251)
(1627.528863 -123.3792691 -544.6748177)
(1730.113753 -28.87231562 -31.212993)
(1822.937984 656.0033607 173.05623)
(1614.017111 -426.9657549 -803.3258895)
(1052.946228 -280.9983683 45.21617796)
(1972.318163 -236.1048594 620.0891996)
(2008.888901 89.15432958 371.7325884)
(1839.589223 143.8074248 -342.6579104)
(1785.492468 -270.7438821 -475.9005478)
(1572.235182 572.2520891 346.7352213)
(2000.985118 217.2382833 8.03249545)
(1584.267691 452.2412462 738.9457235)
(1471.836512 333.9278199 681.9854917)
(1772.474779 -74.12548504 -305.2615683)
(2160.344796 271.586452 397.7708872)
(1437.708721 129.3445563 -324.2808394)
(1674.290202 561.7996917 281.2032902)
(1395.416512 -586.0528295 -27.85907228)
(1803.88951 -193.0433715 -289.1608343)
(1602.766817 -193.0650559 -62.97561979)
(1821.937982 360.7741904 -300.0142392)
(1923.720822 238.8294519 -252.2207109)
(1901.09367 44.33168784 129.0042576)
(1227.554115 5.94559576 -598.3433515)
(1705.996605 263.4657108 14.21032301)
(2288.334427 35.30123777 346.2392074)
(1672.828921 34.9195125 105.1567941)
(1877.05867 -97.84581461 382.3045488)
(1547.104405 -210.546637 -85.00287757)
(1565.603374 -0.03721802749 595.1674097)
(1369.041852 -164.0904567 -164.7251217)
(1870.012979 -253.9131639 -169.0705003)
(1708.503172 -321.1017558 -69.89554327)
(1663.270354 -420.5757916 105.9928185)
(1908.686837 -260.0967301 152.4890649)
(2124.233298 234.9798321 -69.74444071)
(2153.812913 -279.2947381 266.8522097)
(2083.383581 64.84932731 -53.65194597)
(1582.036654 464.5172095 -302.4156178)
(1073.383417 -142.9389051 182.5109932)
(1971.303572 -162.014095 16.66841526)
(1341.334616 16.51348771 139.0583441)
(1872.79822 -71.06175873 -187.8290063)
(1467.06024 -86.86054862 -37.98267299)
(1983.921679 76.87366671 -105.30918)
(1753.057583 475.7528884 70.58683275)
(1792.599783 258.4116274 259.0352398)
(1993.820329 -269.8484424 355.1733628)
(1537.876492 -18.51896421 -120.2439162)
(1940.978509 -387.4607213 180.5942157)
(1890.567678 -135.6018548 -33.03830424)
(1673.860346 217.6087144 81.19252349)
(1850.938488 278.3877849 123.9315859)
(1423.111528 -122.7357358 173.116584)
(2021.725187 92.97724002 -339.5364998)
(1825.76663 -290.9890583 -350.9519926)
(1422.844708 -299.0419735 239.3642762)
(1426.653545 -105.4194242 -482.0634954)
(1574.669598 -374.8373328 -319.3059138)
(1800.293308 176.0276609 10.75531681)
(1555.79761 -536.9982508 212.8174863)
(1530.9259 -649.640128 -615.1324357)
(1452.766076 358.2582603 -363.5081226)
(1618.331492 -18.21646487 139.2497121)
(1660.320434 212.2293753 34.09121743)
(1741.595193 167.9016046 -45.91866794)
(2008.881881 -246.2357878 -356.5291534)
(2057.935109 209.0908017 166.5397441)
(1452.345156 46.14408099 750.1117907)
(1371.4706 -67.51860542 24.28635651)
(1963.012581 -96.19388385 140.6711467)
(1752.341601 30.57779207 -422.7480279)
(1510.646752 724.0485286 71.31695347)
(1547.005017 513.9144467 500.0896262)
(1103.978106 -179.491212 -38.01504311)
(1589.420541 -219.6252272 -280.2226214)
(1567.717896 -75.56741641 -652.7286801)
(1459.473886 -638.6804447 133.5107088)
(1471.594595 -9.157774847 -10.78969671)
(1823.623951 414.8738343 362.5773999)
(1936.447657 -141.5759827 -74.53114017)
(1686.063717 116.2193703 -181.6011848)
(1936.884593 -495.9381154 -40.31190654)
(1462.570767 319.3916941 29.9384721)
(1540.097788 126.5212451 210.5806798)
(1230.020529 -144.1713713 -271.8143305)
(1791.035452 257.0710945 -84.22455231)
(1789.983713 125.3429212 -28.42658607)
(1219.997826 187.2446876 644.510116)
(1716.208293 -421.5156344 104.9872534)
(1823.933362 49.51903105 -113.24422)
(1777.94926 398.3590928 200.8567224)
(1556.689712 -121.6217329 -0.07758445325)
(1500.804538 -539.6202219 120.3184001)
(1331.009777 -208.4856187 250.586895)
(2122.584778 107.0712433 -561.2276967)
(1447.501406 108.0169389 216.3587423)
(1523.4376 -124.3114249 -525.1300338)
(1756.568093 -156.9103005 425.0783679)
(1690.675985 72.81240169 406.7013293)
(1870.500112 189.9135319 -221.5291236)
(1630.992279 -11.74553897 -150.9828969)
(1828.553403 394.4178988 -44.4077957)
(1557.161066 -145.7600142 -324.0922618)
(1404.537424 128.3701906 -195.2240766)
(1236.786486 -101.6857522 -344.2575233)
(1956.38574 -90.14095294 48.84496699)
(1873.37671 16.61493482 -109.5122255)
(1692.994716 -269.1633383 -264.3706543)
(1934.539219 -171.0559841 -581.3458136)
(1944.018564 -709.036312 139.3905505)
(1258.258066 18.32620454 174.5058466)
(1510.028523 -86.81245497 48.25174883)
(2056.293968 -282.5084777 -278.1117253)
(1620.034543 -371.9558597 -76.10732514)
(1500.114921 146.5691621 -296.350295)
(1807.936856 469.3232631 -271.9804024)
(2237.398452 -3.617207817 65.91708781)
(1593.625156 -285.1997049 -301.1539632)
(1849.998024 4.172043614 -5.475111242)
(1843.016592 41.83758674 -249.9171707)
(1478.285139 8.072305506 -286.2381869)
(2007.263915 638.9723582 -133.3267509)
(1787.497865 -291.7890702 194.5073027)
(1585.859797 -36.70960196 -114.6733741)
(1883.048041 -20.56653726 79.45657211)
(1903.171248 -384.6219572 -397.6654388)
(2269.268297 490.6648534 -80.52643837)
(1241.925977 292.0533656 153.5913775)
(1730.270149 -283.2780581 -164.4352052)
(1595.787476 -173.8512283 220.2473175)
(1767.937999 235.6692957 296.0969558)
(1761.832021 -307.934872 -290.9112705)
(2003.278554 73.11448304 154.1667751)
(1518.479025 -19.48345275 -539.306126)
(1810.853943 335.5998793 11.11209375)
(1918.485459 453.666413 361.7897696)
(1322.557388 -371.794958 2.613000884)
(1660.726559 330.2535006 -53.28139833)
(1581.29187 -188.8278876 116.1114555)
(1785.773924 -236.3689443 -370.2999115)
(1878.167242 250.1857079 455.2179974)
(1721.414484 -67.2310562 -180.6604669)
(1941.295164 -95.98506936 9.757315471)
(1815.215185 70.66320076 -212.8866598)
(1901.51048 -47.21405068 -218.800753)
(1868.312464 314.2187451 192.1378368)
(1844.471403 184.5738633 -102.7033845)
(1722.05113 135.4855765 -252.9141249)
(2102.683317 319.8953753 212.0453997)
(1277.506143 -161.012247 222.489837)
(1507.013459 145.2393396 91.88406213)
(1440.878658 -41.22003351 758.2165745)
(1562.416205 63.97276505 -530.4374742)
(2031.814984 -492.0258107 75.25086497)
(2003.468938 -369.561028 -246.8309001)
(821.4593069 307.5591911 187.9845794)
(1892.16362 177.8310544 504.8269899)
(1755.121377 559.8850038 38.99511338)
(1364.236266 378.3192366 -123.5356608)
(2177.929103 -240.4781338 128.4651741)
(1584.764795 -252.0865175 36.81232272)
(1869.894381 -289.5863634 -283.3467679)
(2011.718434 -75.00736409 21.19186665)
(2148.580244 122.5760509 234.5682565)
(1694.04169 -71.32549925 164.910073)
(1797.219882 -262.5220659 -737.1682766)
(1737.868069 -723.613991 -259.70178)
(1813.316795 -161.4231755 287.2032563)
(1714.137668 -206.0520253 -467.1238567)
(1732.443612 19.79428128 363.5614385)
(1374.043193 -204.6801512 445.7970258)
(1945.882297 84.23451818 79.28946161)
(1503.068067 -553.4076536 -117.8331728)
(1264.632417 -172.9434159 161.3964399)
(1394.362231 -440.9226088 14.06688793)
(1575.996322 164.4684592 194.0373287)
(1846.777445 63.83562305 40.80054163)
(1345.917485 134.2778013 -131.2565912)
(1900.37671 -126.0322756 -532.8440272)
(1306.834319 -226.2902344 -396.6229936)
(2088.022159 99.31136437 63.61306055)
(2137.43056 -171.3040194 -129.7178718)
(1693.3845 -182.5962933 -278.2352027)
(1776.284567 100.6666956 73.49889744)
(1935.422794 405.5473445 224.2665861)
(1669.358091 -306.6166152 -569.6951339)
(1747.613731 -69.94369982 -409.4354715)
(989.7878172 -377.6660852 -121.5460466)
(1623.674147 437.2807449 -167.4070121)
(1628.899209 311.372709 174.5835144)
(2363.43201 -57.86651965 -155.0532538)
(2174.080122 -204.9488842 -208.8767874)
(1814.429801 307.5569705 81.2033678)
(1545.955894 404.397223 241.438529)
(1764.858586 -123.1118704 21.79298435)
(1799.96231 -277.999322 48.58848824)
(1895.616775 10.86533497 271.4259625)
(1361.081736 113.2320393 477.7788786)
(1577.760166 -220.8867795 -274.5930694)
(1744.71318 -48.8889605 -38.72709264)
(1721.59029 315.4915699 439.0357966)
(1257.309217 402.6495548 498.51889)
(1019.11013 -299.6719516 -687.574782)
(1556.50818 42.10835834 281.9894122)
(1782.364091 -219.6619955 -485.7416534)
(1527.814025 343.036161 -281.0556793)
(1277.791995 -408.9832072 -371.328207)
(1737.591004 -506.7581346 -360.8406584)
(1871.919167 41.03896025 -417.3278907)
(1244.031437 73.82471404 -70.34546464)
(2877.664044 460.1107272 242.0335627)
(1992.891406 -197.8188133 350.4696855)
(1491.275614 124.1308809 -102.0995741)
(1520.924408 -394.5656525 -122.5393996)
(1590.511412 44.19683194 -353.6682035)
(1801.971653 19.32834798 364.4097093)
(1492.518589 -43.89882584 172.9106326)
(1649.60898 304.7603024 -88.32946345)
(2005.089422 -42.31516927 -208.5046655)
(1783.189842 206.4878804 302.1250376)
(2047.517842 -209.9301004 67.3817856)
(1594.596696 -375.0627621 -24.20680617)
(1854.537761 -310.8335114 112.5099286)
(1846.598394 -444.1764885 56.2677102)
(1319.108449 -180.1770501 271.4253659)
(1915.666872 -211.0737263 175.71427)
(1706.971739 406.7546769 444.467836)
(1851.519743 129.2541566 667.2649727)
(2244.165912 -349.9573615 -366.5155538)
(1439.447086 130.2859843 -120.9345701)
(1713.077061 128.7624365 326.6258684)
(1971.294037 358.6274884 83.50668143)
(1567.244856 249.025986 74.69572849)
(2146.132062 43.91606671 71.20382482)
(1653.460327 -348.6566311 42.63322674)
(2097.344573 -104.7254277 303.7877222)
(1937.153862 -94.86289938 142.896444)
(1137.217862 -127.2669166 390.7259669)
(1748.620511 377.9336565 123.6188846)
(1505.39123 -348.3397041 -234.7137161)
(1955.885126 -146.1348399 -556.8303467)
(1856.03336 -212.2736273 106.6716333)
(1493.171169 -119.636875 440.4204063)
(2388.222547 545.8338962 113.275072)
(1893.882411 -27.6405809 119.7169485)
(1540.392817 500.4982697 157.7253361)
(1786.141159 -409.339268 218.3623347)
(1706.702872 153.9923139 675.2972785)
(1522.084309 -416.4436054 -51.70667229)
(2067.857551 210.26285 -119.1616162)
(1737.547045 61.02507817 284.4764321)
(1807.081442 289.5962542 179.2959624)
(1344.101574 168.6746335 136.9653519)
(2405.649049 -25.64625705 49.53098495)
(1511.426412 533.6074562 199.3011497)
(2244.076734 349.8806118 -65.59020039)
(1539.574234 304.2035813 -213.3763574)
(1469.586441 -359.5381779 116.6316453)
(1828.443565 312.4706793 241.0050889)
(1876.200372 371.5874979 -454.3788039)
(1985.322031 -166.3913691 -286.6116699)
(1568.177903 113.10056 227.854903)
(1516.120577 64.04072669 -226.3533538)
(1208.942808 325.0624518 -177.8929418)
(1573.54866 212.1868805 -203.0169491)
(1799.194398 235.3916534 -326.0981378)
(1657.62634 -544.7942499 278.1633093)
(1836.861271 -472.2496384 -190.5321445)
(2096.136707 -103.9431092 159.3783221)
(1543.231046 -60.02013629 -190.9288455)
(1590.738765 -3.702243945 134.9054544)
(1770.446806 -364.0928309 -112.6768982)