/*--------------------------------*- C++ -*----------------------------------*\
| =========                 |                                                 |
| \\      /  F ield         | OpenFOAM: The Open Source CFD Toolbox           |
|  \\    /   O peration     | Version:  2406                                  |
|   \\  /    A nd           | Website:  www.openfoam.com                      |
|    \\/     M anipulation  |                                                 |
\*---------------------------------------------------------------------------*/
FoamFile
{
    version     2.0;
    format      ascii;
    arch        "LSB;label=32;scalar=64";
    class       Cloud<dsmcParcel>;
    location    "0.002/lagrangian/dsmc";
    object      coordinates;
}
// * * * * * * * * * * * * * * * * * * * * * * * * * * * * * * * * * * * * * //

6978
(
(0.2647417102 0.08332681046 0.2843023344 0.3676291449) 546 1062 1
(0.07987929282 0.4600603536 0.2907851519 0.1692752017) 528 1026 2
(0.2001791955 0.3999104022 0.3383372863 0.06157311595) 444 1302 2
(0.6777135173 0.1611432414 0.06112322077 0.1000200206) 627 1216 2
(0.8230298842 0.05948408856 0.02900096936 0.08848505791) 456 873 2
(0.6060817533 0.1969591234 0.1046887077 0.09227041569) 457 891 2
(0.5181838778 0.1643195877 0.07658847336 0.2409080611) 486 948 1
(0.5204819823 0.2397590088 0.2197409966 0.02001801227) 445 1303 2
(0.03836337318 0.4808183134 0.3386338716 0.1421844418) 458 896 1
(0.1904898737 0.4047550632 0.05152460602 0.3532304571) 589 2630 2
(0.1286049669 0.4356975165 0.09412611002 0.3415714065) 456 873 1
(0.1556916271 0.3930399973 0.02911418914 0.4221541864) 446 1304 1
(0.6243552123 0.1878223939 0.06473563397 0.1230867599) 468 915 1
(0.7441947849 0.005209568572 0.1279026075 0.122693039) 519 1009 1
(0.09893256361 0.2853043878 0.1652293304 0.4505337182) 479 2619 1
(0.04138684263 0.4793065787 0.333685447 0.1456211316) 457 875 1
(0.4817315301 0.2591342349 0.1955967062 0.06353752872) 466 892 1
(0.1251000996 0.4374499502 0.2848225867 0.1526273635) 489 935 1
(0.3703498186 0.3148250907 0.04545669797 0.2693683927) 507 988 2
(0.01855888485 0.4306601978 0.4907205576 0.06006035981) 488 950 1
(0.01138212774 0.4943089361 0.2778919577 0.2164169785) 479 916 1
(0.6899921556 0.1550039222 0.004826733909 0.1501771883) 469 897 1
(0.2206538592 0.3896730704 0.1553801284 0.234292942) 448 877 1
(0.3082605689 0.3458697155 0.3127047356 0.03316497991) 469 2618 2
(0.2649243556 0.3675378222 0.3596709948 0.00786682741) 477 931 2
(0.3964908412 0.2665167845 0.03523779487 0.3017545794) 445 870 1
(0.3119938595 0.1300471297 0.2139559405 0.3440030702) 465 890 2
(0.4324198041 0.1995571872 0.2837900979 0.08423291073) 507 986 1
(0.1356748482 0.4157569629 0.4321625759 0.01640561301) 494 964 2
(0.3915046806 0.3042476597 0.1635143533 0.1407333065) 561 1072 1
(0.4557993831 0.2721003085 0.05372135551 0.218378953) 485 944 2
(0.173104304 0.3046191067 0.1088287413 0.413447848) 478 933 1
(0.673170379 0.07167433757 0.09174047294 0.1634148105) 451 863 2
(0.3816832951 0.3091583524 0.1264257675 0.182732585) 77 155 1
(0.2678490703 0.3660754648 0.07019721319 0.2958782517) 449 876 2
(0.05273321506 0.4736333925 0.4155451676 0.05808822486) 447 1305 2
(0.1870051729 0.4064974135 0.0574798716 0.3490175419) 468 912 2
(0.09787457836 0.3305464312 0.4510627108 0.1205162796) 503 978 1
(0.2436364489 0.3106602074 0.06752156813 0.3781817756) 465 890 2
(0.3149149325 0.117554978 0.2249875557 0.3425425338) 449 1307 1
(0.6738568989 0.1630715506 0.1494019634 0.0136695872) 298 596 2
(0.6731110516 0.1634444742 0.09114314112 0.07230133306) 479 935 1
(0.4489884726 0.2755057637 0.2737551792 0.001750584523) 445 870 2
(0.4285246233 0.09362162484 0.2857376884 0.1921160635) 448 877 2
(0.5545672579 0.222716371 0.2030880039 0.01962836713) 459 878 1
(0.190021423 0.4049892885 0.153384685 0.2516046035) 552 1071 2
(0.7117204741 0.06135400537 0.1441397629 0.08278575758) 459 895 1
(0.4749100306 0.2625449847 0.2444645979 0.01808038684) 446 872 2
(0.3764168083 0.05968111744 0.3117915958 0.2521104784) 458 893 1
(0.2316739748 0.3841630126 0.3069335137 0.07722949887) 538 1047 2
(0.153325743 0.2065368826 0.4233371285 0.2168002459) 448 877 2
(0.08543673732 0.3804571921 0.4572816313 0.07682443919) 447 875 2
(0.04103701042 0.2503728167 0.2291086781 0.4794814948) 529 2624 1
(0.1445956848 0.3055946981 0.1221074595 0.4277021576) 534 1021 2
(0.3370236432 0.3314881784 0.1424341719 0.1890540065) 458 877 1
(0.3325364593 0.1959467264 0.1377850439 0.3337317704) 548 1066 1
(0.2517998762 0.2646489334 0.1094511285 0.3741000619) 468 914 1
(0.462332817 0.2688335915 0.2228736904 0.04595990107) 457 893 2
(0.1570202593 0.105177668 0.4214898704 0.3163122024) 538 1045 1
(0.2743059371 0.3628470314 0.04221202897 0.3206350025) 546 1060 2
(0.5716283945 0.2141858027 0.1387678351 0.07541796762) 469 897 1
(0.1573708763 0.4213145618 0.3853853278 0.03592923403) 445 871 1
(0.1996188684 0.02969515908 0.4001905658 0.3704954067) 459 895 1
(0.3831785636 0.04132914025 0.267081578 0.3084107182) 458 877 2
(0.4445109494 0.06433112782 0.2777445253 0.2134133975) 458 893 1
(0.002633364399 0.4986833178 0.04109063645 0.4575926813) 456 891 2
(0.3497452685 0.3043469282 0.3251273657 0.02078043752) 17 35 2
(0.7490778083 0.1254610959 0.1100284758 0.01543262011) 497 970 1
(0.06860551594 0.465697242 0.2928823828 0.1728148593) 489 935 1
(0.07303240868 0.3033942387 0.4634837957 0.160089557) 487 951 2
(0.1798067306 0.2583449474 0.1517516873 0.4100966347) 458 895 1
(0.6784446209 0.06268949047 0.09808819909 0.1607776896) 458 877 2
(0.2311920046 0.06623276697 0.3844039977 0.3181712307) 449 876 1
(0.003378756717 0.4983106216 0.1079768068 0.3903338149) 445 868 2
(0.6438217437 0.1780891282 0.05612435051 0.1219647777) 448 1306 2
(0.6568543408 0.1443294664 0.1715728296 0.02724336318) 519 1011 2
(0.6372947059 0.181352647 0.08205360283 0.09929904421) 536 1041 2
(0.217870935 0.1469091077 0.2441554249 0.3910645325) 478 915 2
(0.1451158073 0.4274420964 0.3989826124 0.02845948391) 565 1098 2
(0.3472080821 0.3263959589 0.09306542949 0.2333305294) 458 896 1
(0.7774602369 0.02589499385 0.1112698815 0.08537488769) 499 971 1
(0.2782827585 0.2850030563 0.07585556447 0.3608586208) 457 875 2
(0.08657526807 0.1260780645 0.3306343015 0.456712366) 469 897 2
(0.2798145482 0.3600927259 0.175175628 0.1849170978) 498 971 2
(0.5769843959 0.2115078021 0.1310069953 0.08050080681) 477 913 1
(0.2746128993 0.1344071709 0.2282863794 0.3626935503) 479 916 2
(0.1280235215 0.4359882393 0.07812947491 0.3578587644) 457 893 2
(0.194327014 0.402836493 0.3814160482 0.02142044484) 454 887 2
(0.4889384604 0.1682624721 0.08726829764 0.2555307698) 485 928 2
(0.3224280294 0.224920688 0.1138652973 0.3387859853) 449 2616 1
(0.1164192468 0.2949853381 0.1468050385 0.4417903766) 449 1307 1
(0.07811279649 0.136234372 0.3247092298 0.4609436018) 448 876 1
(0.1118127551 0.3286266712 0.1154669513 0.4440936225) 469 897 2
(0.3969621076 0.3015189462 0.2874573856 0.0140615606) 518 1009 2
(0.5159120369 0.08395277855 0.2420439816 0.158091203) 459 895 1
(0.2746920794 0.3626539603 0.3213730683 0.04128089195) 478 931 2
(0.07010151854 0.06831536965 0.4649492407 0.3966338711) 479 933 1
(0.5295014081 0.1430102668 0.235249296 0.09223902917) 442 865 2
(0.1777625865 0.4111187067 0.3055800372 0.1055386695) 487 948 2
(0.2278944305 0.2149660011 0.1710867837 0.3860527848) 449 1307 1
(0.6138164457 0.1213226694 0.07176910772 0.1930917771) 492 941 2
(0.3090108254 0.3174083054 0.02808628189 0.3454945873) 484 926 2
(0.4008468082 0.1679387404 0.2995765959 0.1316378555) 498 969 1
(0.472233781 0.01260726136 0.2638831095 0.2512758481) 459 895 1
(0.7694516043 0.03386713409 0.08140706375 0.1152741978) 457 893 1
(0.5799257363 0.108209249 0.1018278828 0.2100371318) 478 915 2
(0.03245138981 0.4837743051 0.0614318651 0.42234244) 463 904 2
(0.1549942293 0.4225028854 0.2140927801 0.2084101052) 449 1307 2
(0.3997022433 0.3001488784 0.04418944684 0.2559594315) 479 916 1
(0.4613504578 0.2693247711 0.03597402292 0.2333507482) 638 1219 1
(0.1712279528 0.2566123883 0.1577736353 0.4143860236) 469 2618 1
(0.5344605377 0.2327697312 0.2284342003 0.004335530889) 498 971 2
(0.5013065272 0.2493467364 0.1714750229 0.07787171353) 456 873 1
(0.1036600099 0.1297908789 0.3183791162 0.448169995) 445 1303 1
(0.005916868456 0.221365388 0.4970415658 0.2756761778) 464 907 2
(0.2982985421 0.2723038472 0.3508507289 0.07854688173) 479 935 2
(0.09168182016 0.4541590899 0.1976097689 0.256549321) 476 930 1
(0.03163771448 0.4841811428 0.009496647262 0.4746844955) 453 885 2
(0.0905114996 0.2574613249 0.4547442502 0.1972829252) 449 878 2
(0.1857055032 0.4071472484 0.2564940477 0.1506532006) 469 897 1
(0.6289739479 0.185513026 0.1847975037 0.0007155223653) 548 1064 2
(0.3127839625 0.3436080187 0.1158623718 0.227745647) 519 1011 1
(0.00282150714 0.4985892464 0.4297188264 0.06887042003) 519 992 1
(0.05252072417 0.4737396379 0.4648552055 0.00888443241) 449 876 2
(0.4965761718 0.2517119141 0.04516602769 0.2065458864) 457 891 2
(0.5312748026 0.2343625987 0.194513059 0.03984953971) 535 1042 1
(0.0823533452 0.02525048435 0.4588233274 0.4335728431) 497 967 1
(0.3056186797 0.3471906602 0.005267159737 0.3419235004) 449 876 2
(0.396924604 0.301537698 0.0730453321 0.2284923659) 449 876 2
(0.1163826689 0.4418086655 0.05496189572 0.3868467698) 445 871 1
(0.6243886734 0.00554862227 0.182257041 0.1878056633) 444 1302 1
(0.5760624 0.07127283652 0.1406959635 0.2119688) 556 1063 2
(0.6157434322 0.1391923712 0.05293591267 0.1921282839) 479 916 2
(0.1200907042 0.02790758834 0.4399546479 0.4120470595) 504 983 2
(0.3277682317 0.1043943629 0.2317215213 0.3361158842) 469 897 2
(0.1648318637 0.04880252869 0.3687815395 0.4175840681) 537 1045 1
(0.4971389314 0.2514305343 0.1308789823 0.120551552) 489 952 2
(0.07869995896 0.1213695279 0.3392804926 0.4606500205) 486 930 2
(0.1464323504 0.1560138213 0.2707700035 0.4267838248) 485 946 1
(0.3836547501 0.2045320207 0.1036406043 0.3081726249) 495 965 1
(0.4964619194 0.2517690403 0.107296304 0.1444727363) 477 929 2
(0.9071453545 0.04642732276 0.03978088086 0.006646441902) 468 915 1
(0.5427892634 0.2286053683 0.1302943274 0.09831104092) 478 931 2
(0.327807772 0.1080232671 0.336096114 0.2280728469) 464 907 2
(0.2422334516 0.3188908782 0.05999239602 0.3788832742) 469 2618 1
(0.02880109766 0.4126663665 0.4855994512 0.07293308469) 509 990 1
(0.5488434592 0.0800772545 0.2255782704 0.1455010159) 440 39 1
(0.7011632081 0.0702706327 0.07914776327 0.149418396) 487 932 2
(0.7230683148 0.1384658426 0.1069305289 0.03153531368) 450 880 1
(0.3305515777 0.3347242111 0.3324997692 0.002224441924) 559 1085 2
(0.02220776008 0.03846223629 0.4504338837 0.48889612) 509 973 2
(0.4924456828 0.2537771586 0.1707937333 0.08298342527) 466 911 1
(0.3413906313 0.3175989953 0.01170568905 0.3293046844) 455 889 1
(0.4093773962 0.2953113019 0.1740506022 0.1212606997) 445 871 1
(0.04292658979 0.3407558225 0.4785367051 0.1377808826) 489 952 1
(0.1355030781 0.432248461 0.177122062 0.255126399) 488 953 1
(0.1074479859 0.1340435934 0.3122324137 0.4462760071) 485 928 2
(0.01752119204 0.180038975 0.491239404 0.311200429) 639 1239 2
(0.2783746151 0.3608126925 0.04694537649 0.313867316) 458 893 2
(0.3719697393 0.3140151304 0.07748171127 0.2365334191) 97 195 1
(0.04932769996 0.47533615 0.4539069472 0.0214292028) 446 870 2
(0.2386178478 0.2853908494 0.09530022667 0.3806910761) 469 897 2
(0.617929375 0.1910353125 0.1132111156 0.07782419693) 474 923 2
(0.2600879574 0.3699560213 0.283381663 0.08657435825) 533 1019 1
(0.02764897056 0.4725535614 0.01362195334 0.4861755147) 529 1011 2
(0.7926611035 0.1036694482 0.06002992027 0.04363952796) 501 977 1
(0.3860948239 0.1202456224 0.1867069657 0.3069525881) 459 2617 1
(0.1602657561 0.419867122 0.3723570801 0.04751004181) 456 889 2
(0.2280914977 0.3859542512 0.2145869176 0.1713673336) 488 950 2
(0.2629365925 0.3685317037 0.2084124143 0.1601192894) 446 872 2
(0.3270979442 0.2446380352 0.3364510279 0.09181299265) 442 865 2
(0.8505588998 0.07472055011 0.009304105759 0.06541644435) 488 952 2
(0.2042854042 0.3273092866 0.07054801129 0.3978572979) 454 887 1
(0.6749775014 0.1625112493 0.09268669513 0.06982455419) 474 925 2
(0.7824451909 0.1087774046 0.09040823779 0.01836916678) 455 871 1
(0.3584425613 0.3207787194 0.03008786347 0.2906908559) 478 934 1
(0.8275638087 0.08621809565 0.08395791399 0.002260181662) 509 973 1
(0.02076527341 0.4896173633 0.1242060597 0.3654113036) 482 922 1
(0.9430476564 0.02847617178 0.005362751084 0.0231134207) 451 879 2
(0.2453604847 0.3773197577 0.271717865 0.1056018927) 464 904 2
(0.152079982 0.03461406049 0.423960009 0.3893459485) 456 889 1
(0.4809787073 0.1545645165 0.2595106463 0.1049461298) 446 870 1
(0.3399238814 0.3300380593 0.1211949846 0.2088430747) 458 877 1
(0.3525491451 0.3237254275 0.046504118 0.2772213095) 527 1008 1
(0.07234659544 0.4638267023 0.2547791052 0.2090475971) 476 930 1
(0.2803432735 0.1077853746 0.3598283633 0.2520429887) 444 869 2
(0.08333568689 0.4103792024 0.4583321566 0.04795295416) 468 912 1
(0.07079566137 0.2734417156 0.4646021693 0.1911604537) 443 864 1
(0.146548072 0.426725964 0.1205905905 0.3061353735) 486 948 2
(0.2891304824 0.3554347588 0.1354395976 0.2199951612) 478 931 2
(0.6815219761 0.1592390119 0.05275385224 0.1064851597) 448 1306 2
(0.2881501936 0.3559249032 0.1795956141 0.1763292891) 448 874 2
(0.1042233995 0.4478883002 0.2799379796 0.1679503206) 479 935 1
(0.3005778247 0.2775667083 0.07214437942 0.3497110877) 457 893 1
(0.5204071689 0.09607141313 0.1437250024 0.2397964155) 459 2617 1
(0.2086109896 0.3956945052 0.3681110248 0.02758348039) 458 895 2
(0.8130043168 0.005616207709 0.08788163387 0.09349784158) 494 963 1
(0.2015580329 0.1600398101 0.3992209836 0.2391811735) 449 878 2
(0.3969491325 0.1616331605 0.1398922732 0.3015254337) 458 895 1
(0.01480544808 0.492597276 0.07578829801 0.416808978) 459 878 1
(0.5197545677 0.2401227162 0.1288375798 0.1112851363) 488 952 2
(0.8257869159 0.08710654204 0.02244844435 0.06465809769) 457 875 1
(0.2722011416 0.1620459072 0.201853522 0.3638994292) 478 915 2
(0.5672728667 0.04249265173 0.2163635666 0.1738709149) 469 914 1
(0.1788509527 0.337734849 0.4105745237 0.07283967469) 466 908 1
(0.5462636378 0.2268681811 0.0001454436199 0.2267227375) 445 868 2
(0.662449866 0.168775067 0.03565999176 0.1331150752) 452 865 1
(0.1746809186 0.4126595407 0.04882418755 0.3638353532) 475 925 2
(0.6217416042 0.1891291979 0.07800402285 0.111125175) 458 877 1
(0.1835776797 0.4082111602 0.4059396655 0.002271494716) 443 866 2
(0.0895976305 0.1576873005 0.2975138843 0.4552011847) 458 895 1
(0.1621381518 0.4189309241 0.3007274171 0.118203507) 459 897 1
(0.004345278333 0.4978273608 0.2173095384 0.2805178225) 508 988 2
(0.01797798757 0.4462352984 0.04477570781 0.4910110062) 466 892 2
(0.7740065385 0.1129967308 0.04691771102 0.06607901974) 476 930 1
(0.5432045411 0.2197446902 0.2283977294 0.008653039206) 499 971 1
(0.1992691648 0.4003654176 0.3684988147 0.0318666029) 475 909 1
(0.3658923607 0.2169833085 0.3170538196 0.1000705111) 449 876 1
(0.03654574431 0.2395068829 0.2422202449 0.4817271278) 566 1100 1
(0.2514083954 0.3742958023 0.2859118181 0.08838398418) 515 1003 2
(0.3534605124 0.2838941025 0.3232697438 0.03937564131) 454 888 2
(0.6401613283 0.0114916031 0.1684277327 0.1799193358) 509 2622 1
(0.1628316322 0.4185841839 0.3637210838 0.05486310009) 453 885 2
(0.06360702931 0.4681964853 0.02417583471 0.4440206506) 457 893 2
(0.8754968039 0.02257332228 0.03967827577 0.06225159805) 447 874 1
(0.5531350818 0.2234324591 0.1512239979 0.0722084612) 509 990 2
(0.09618612757 0.4519069362 0.282451461 0.1694554752) 496 949 1
(0.4321273947 0.2839363026 0.0002597035609 0.2836765991) 525 1023 1
(0.1326247121 0.433687644 0.3807696026 0.05291804136) 476 927 2
(0.4395622878 0.2802188561 0.2174210511 0.06279780496) 589 1144 1
(0.3096199447 0.3451900277 0.3186301515 0.02655987615) 479 933 2
(0.1755124928 0.4122437536 0.4109753365 0.00126841705) 463 886 1
(0.3010662906 0.05297365219 0.3494668547 0.2964932025) 469 914 1
(0.1868657174 0.4065671413 0.2008433897 0.2057237516) 494 964 1
(0.4967959798 0.2516020101 0.1763265778 0.07527543227) 509 973 1
(0.593546385 0.2032268075 0.01629181383 0.1869349937) 477 929 2
(0.1361452054 0.167008303 0.4319273973 0.2649190943) 447 872 1
(0.5439935835 0.1223330798 0.1056701284 0.2280032082) 456 873 2
(0.3631631049 0.238619421 0.07979902661 0.3184184476) 579 2629 1
(0.02454907687 0.4877254616 0.09323281126 0.3944926503) 446 873 1
(0.3791693672 0.3104153164 0.1040002997 0.2064150167) 589 1144 1
(0.324909065 0.3375454675 0.3054275041 0.03211796345) 487 951 1
(0.8145683858 0.09271580708 0.04485533769 0.04786046939) 496 967 2
(0.05442021158 0.3905121895 0.4727898942 0.08227770471) 488 953 2
(0.03339626695 0.4732825752 0.01001929128 0.4833018665) 445 1303 1
(0.1910144311 0.1451783488 0.2593144356 0.4044927844) 456 873 2
(0.3620471526 0.3068065276 0.01216989604 0.3189764237) 489 935 2
(0.8764775251 0.06176123747 0.05016297283 0.01159826464) 479 916 1
(0.2143546027 0.3928226986 0.2478635441 0.1449591546) 455 871 1
(0.2255893953 0.2465934617 0.1406118407 0.3872053023) 447 874 1
(0.07630584592 0.461847077 0.2721102893 0.1897367877) 465 890 1
(0.1176218711 0.3828888788 0.4411890644 0.05830018564) 459 895 1
(0.165349213 0.4173253935 0.3240897794 0.09323561411) 457 891 2
(0.3804075129 0.3097962436 0.171279964 0.1385162795) 447 874 2
(0.2200971807 0.3385742689 0.3899514096 0.05137714071) 469 916 2
(0.08619931381 0.4569003431 0.0362558501 0.420644493) 446 872 2
(0.2850945158 0.04081329338 0.3574527421 0.3166394487) 459 895 1
(0.7132617964 0.1406955555 0.1433691018 0.002673546254) 518 1010 2
(0.1216289201 0.4391855399 0.3497337523 0.0894517876) 477 931 2
(0.03391521019 0.4830423949 0.1642657663 0.3187766286) 455 871 1
(0.1701429078 0.1198657936 0.2950627525 0.4149285461) 546 1062 1
(0.3361624337 0.3319187832 0.08376698869 0.2481517945) 466 910 2
(0.168154045 0.4159229775 0.3005288147 0.1153941628) 536 1043 2
(0.55644642 0.1968163576 0.22177679 0.02496043243) 589 1144 2
(0.4645905537 0.2677047231 0.2485990924 0.01910563077) 522 1014 2
(0.03721511531 0.4813924423 0.142658991 0.3387334513) 442 864 2
(0.5495301729 0.2252349136 0.01083793201 0.2143969816) 472 921 2
(0.06695227188 0.4665238641 0.1502601813 0.3162636828) 449 876 2
(0.5521154312 0.2239422844 0.149478923 0.07446336137) 445 1303 2
(0.6533666667 0.1733166667 0.1670406191 0.006276047516) 486 930 1
(0.06413668642 0.4679316568 0.3608446327 0.107087024) 502 978 2
(0.6922375804 0.1538812098 0.009380854961 0.1445003548) 468 896 1
(0.4969005793 0.2515497103 0.05433647192 0.1972132384) 597 1159 2
(0.1614592284 0.3521313321 0.4192703858 0.06713905367) 498 972 2
(0.2783601275 0.3608199363 0.2596456727 0.1011742636) 473 923 2
(0.4440005134 0.2779997433 0.260124694 0.0178750493) 454 887 2
(0.4956007937 0.1676946234 0.08450497979 0.2521996032) 457 893 1
(0.3407461264 0.3296269368 0.2199425079 0.1096844289) 485 944 2
(0.1580040755 0.4209979622 0.06465717682 0.3563407854) 477 929 2
(0.3729939848 0.2561040835 0.05739892411 0.3135030076) 446 872 1
(0.1337466419 0.433126679 0.3343048048 0.09882187423) 448 1306 2
(0.6203160299 0.09755669388 0.189841985 0.09228529116) 448 877 2
(0.2889957108 0.3555021446 0.1703848864 0.1851172582) 469 916 1
(0.5167387845 0.2416306077 0.1806243951 0.06100621266) 469 916 1
(0.8285351698 0.08573241508 0.05036117971 0.03537123537) 519 1011 1
(0.2510955001 0.03203981086 0.37445225 0.3424124391) 517 1008 2
(0.5216902329 0.2391548836 0.02828876633 0.2108661172) 278 557 1
(0.0728650494 0.06802174338 0.3955457319 0.4635674753) 608 1180 1
(0.05189685939 0.4740515703 0.2204001034 0.2536514669) 517 989 1
(0.1605496872 0.4197251564 0.1764979837 0.2432271727) 468 896 1
(0.159961256 0.420019372 0.2458814458 0.1741379262) 469 2618 2
(0.3049552192 0.3475223904 0.1715202033 0.1760021871) 441 860 2
(0.190263156 0.2535698541 0.404868422 0.1512985679) 476 930 2
(0.6850933711 0.1574533145 0.04438985837 0.1130634561) 472 921 2
(0.106525562 0.08359307667 0.3631441423 0.446737219) 452 883 1
(0.05367513672 0.4731624316 0.1937811061 0.2793813256) 447 1305 2
(0.7589688424 0.02588747754 0.09462810125 0.1205155788) 444 1302 1
(0.4883823054 0.2558088473 0.1452577193 0.110551128) 499 973 1
(0.2281310759 0.2446497094 0.1412847527 0.385934462) 484 944 1
(0.4156682557 0.2921658721 0.02634711987 0.2658187523) 478 934 1
(0.0726273138 0.4636863431 0.1597089315 0.3039774116) 499 954 1
(0.003549861593 0.1792963014 0.4982250692 0.3189287678) 458 893 1
(0.01440460701 0.4927976965 0.09506068724 0.3977370093) 508 972 1
(0.672210394 0.163894803 0.002162730506 0.1617320725) 459 895 2
(0.3172615427 0.3339157262 0.3413692287 0.007453502465) 519 1011 2
(0.4524517769 0.2737741115 0.1997873854 0.07398672617) 449 878 1
(0.1893717786 0.288013221 0.4053141107 0.1173008897) 448 874 1
(0.1373631482 0.2922765441 0.1390418818 0.4313184259) 507 970 2
(0.01112129676 0.4944393516 0.3195574129 0.1748819387) 513 999 2
(0.3801001178 0.3099499411 0.06264163206 0.247308309) 508 990 2
(0.7565655008 0.1217172496 0.01627334166 0.1054439079) 478 934 1
(0.7851910075 0.04122721629 0.1074044962 0.06617727994) 507 989 2
(0.6085135256 0.1609526537 0.1957432372 0.03479058347) 595 1156 2
(0.647654053 0.1718246437 0.1761729735 0.004348329838) 578 1124 2
(0.1756044359 0.412197782 0.3684337441 0.04376403791) 629 2634 2
(0.7324589051 0.1034484156 0.1337705475 0.03032213188) 479 933 1
(0.09974523146 0.4501273843 0.3946438746 0.05548350968) 448 876 2
(0.4192575419 0.2903712291 0.08144660427 0.2089246248) 455 890 1
(0.4602003625 0.006178122943 0.2637216958 0.2698998187) 489 935 2
(0.2373326249 0.3418485312 0.03948515632 0.3813336876) 139 279 1
(0.07926289501 0.1287256719 0.4603685525 0.3316428806) 567 1100 1
(0.823735403 0.08813229851 0.0474988247 0.04063347381) 488 952 2
(0.4401550833 0.2799224584 0.1739403821 0.1059820762) 472 919 2
(0.2516027213 0.3741986393 0.2564212746 0.1177773647) 494 945 1
(0.6503082348 0.05312761144 0.1217182712 0.1748458826) 467 894 2
(0.29314517 0.239334405 0.353427415 0.11409301) 468 912 1
(0.2769150394 0.008105959964 0.3615424803 0.3534365203) 458 896 2
(0.09391555266 0.4381012941 0.4530422237 0.01494092956) 518 1007 1
(0.3744344472 0.3127827764 0.172710392 0.1400723844) 479 2619 2
(0.0597841443 0.4701079279 0.1293417329 0.3407661949) 464 906 2
(0.009271521681 0.2837498852 0.4953642392 0.211614354) 529 1030 2
(0.5898595789 0.1728298922 0.03224031838 0.2050702105) 507 988 1
(0.3607792755 0.3000061167 0.01960424555 0.3196103623) 577 1121 1
(0.5243304054 0.2159844051 0.2378347973 0.02185039225) 576 1117 1
(0.3942611151 0.05065294765 0.2522164948 0.3028694424) 604 1172 1
(0.2476596343 0.3761701828 0.07012284143 0.3060473414) 637 1235 2
(0.8667912872 0.06660435638 0.03251247269 0.03409188369) 616 1195 2
(0.2453971358 0.3773014321 0.3062272892 0.07107414287) 476 927 2
(0.0221968018 0.001531638318 0.4873699608 0.4889015991) 443 866 1
(0.2406573332 0.3796713334 0.335059867 0.04461146635) 447 875 1
(0.1847741033 0.4076129484 0.1584932405 0.2491197079) 489 935 1
(0.1390833567 0.3726615505 0.4304583217 0.05779677114) 468 915 2
(0.3615389132 0.3192305434 0.2893350699 0.02989547352) 445 868 2
(0.537498903 0.1624082732 0.06884227528 0.2312505485) 441 1299 1
(0.6298410577 0.1553348884 0.02974458272 0.1850794711) 509 2622 1
(0.007481052244 0.2029946074 0.2932648665 0.4962594739) 496 967 1
(0.5954020699 0.1476135195 0.05468544558 0.202298965) 455 889 1
(0.1375889237 0.4312055381 0.1661361718 0.2650693663) 519 992 1
(0.1418464767 0.06215144101 0.4290767616 0.3669253206) 452 884 2
(0.02948712329 0.4344382708 0.05081816755 0.4852564384) 528 1028 1
(0.7181777749 0.1409111126 0.104451321 0.03645979156) 457 894 1
(0.3276220607 0.3361889697 0.2738597916 0.06232917806) 452 881 2
(0.5060130641 0.04747921388 0.2469934679 0.199514254) 478 931 1
(0.02675039166 0.4866248042 0.06939847997 0.4172263242) 452 883 2
(0.7402781888 0.01833399196 0.1115269137 0.1298609056) 529 2624 1
(0.7695541388 0.1152229306 0.03540600663 0.07981692396) 443 864 2
(0.4603052922 0.2698473539 0.1037883635 0.1660589904) 498 969 2
(0.07159896988 0.4642005151 0.1590075955 0.3051929196) 442 865 1
(0.5084581754 0.2457709123 0.03335830865 0.2124126036) 536 1041 2
(0.1536151508 0.2391912586 0.4231924246 0.184001166) 529 1030 2
(0.04542713465 0.4680674157 0.009219016996 0.4772864327) 497 969 1
(0.2791329108 0.07034310266 0.2900904419 0.3604335446) 516 1005 1
(0.3540203259 0.3229898371 0.2473558274 0.07563400963) 557 1081 2
(0.6434765766 0.1782617117 0.06288050232 0.1153812094) 587 1141 1
(0.2852896771 0.3138394726 0.3573551615 0.04351568882) 614 1192 2
(0.2648475826 0.3675762087 0.2154107063 0.1521655023) 529 1030 1
(0.0313567889 0.4843216055 0.03061368107 0.4537079245) 453 885 2
(0.2110477078 0.3944761461 0.2201338704 0.1743422757) 465 906 2
(0.6609515954 0.1695242023 0.1281960505 0.04132815176) 445 1303 2
(0.5357189604 0.2065567675 0.2321405198 0.02558375225) 516 1003 1
(0.07578242535 0.3411641123 0.4621087873 0.120944675) 538 1045 1
(0.002353204199 0.450364607 0.04845879085 0.4988233979) 445 870 1
(0.2782726374 0.1828034829 0.3608636813 0.1780601984) 467 913 2
(0.5626677367 0.2186661316 0.08635163885 0.1323144928) 458 895 2
(0.4997356088 0.2501321956 0.1830410309 0.06709116464) 469 916 1
(0.00933307486 0.4848344446 0.01049901798 0.4953334626) 498 971 1
(0.1060667975 0.008157917314 0.4469666012 0.4388086839) 463 902 1
(0.5948413639 0.2025793181 0.2010228396 0.001556478495) 441 1299 2
(0.5221785632 0.08228559793 0.2389107184 0.1566251205) 468 915 2
(0.348472105 0.3257639475 0.1347974805 0.190966467) 445 868 2
(0.5123890671 0.04448214072 0.1993233257 0.2438054665) 455 889 1
(0.2243718158 0.05942307103 0.3283910211 0.3878140921) 509 2622 1
(0.4142749358 0.2928625321 0.02986968596 0.2629928462) 446 873 1
(0.2126751934 0.3936624033 0.2394651171 0.1541972862) 454 885 2
(0.1580254699 0.420987265 0.1490966782 0.2718905868) 526 1024 2
(0.1210658205 0.4394670898 0.01621605819 0.4232510316) 559 1068 1
(0.2542744592 0.3728627704 0.0231584548 0.3497043156) 599 1161 2
(0.4358620606 0.2123405071 0.06972846263 0.2820689697) 609 2632 1
(0.02061018772 0.4896949061 0.2690553084 0.2206395977) 559 1085 2
(0.415581177 0.1469524317 0.2922094115 0.1452569798) 609 1182 2
(0.1063389476 0.02466092159 0.4221696046 0.4468305262) 602 1168 1
(0.2467151043 0.09420673813 0.3766424479 0.2824357097) 588 1143 2
(0.7255365118 0.1372317441 0.0431187335 0.0941130106) 449 878 1
(0.6797800211 0.1601099894 0.07289769032 0.08721229912) 466 910 2
(0.7545689193 0.01809971007 0.1046158303 0.1227155403) 457 875 2
(0.2606904913 0.2289009368 0.1407538175 0.3696547544) 493 961 1
(0.1843503413 0.4078248294 0.185016122 0.2228087074) 443 1301 2
(0.003776131046 0.4981119345 0.3769366186 0.1211753159) 458 893 2
(0.5475989036 0.1055538136 0.1206467346 0.2262005482) 483 942 1
(0.4635116902 0.2682441549 0.0173591538 0.2508850011) 517 1007 2
(0.2166952222 0.3647464268 0.02690596209 0.3916523889) 457 875 2
(0.6315353507 0.1842323246 0.1232408342 0.06099149049) 463 904 2
(0.5373046549 0.1029643489 0.2313476726 0.1283833236) 457 894 2
(0.4640562598 0.2679718701 0.1938022539 0.07416961624) 525 1004 1
(0.514642187 0.2426789065 0.2315726015 0.01110630495) 59 78 1
(0.1120576133 0.1543689761 0.2896022172 0.4439711934) 487 950 1
(0.3014779775 0.3364627382 0.3492610112 0.01279827306) 454 888 2
(0.8059707766 0.09701461171 0.04600084196 0.05101376975) 79 158 1
(0.2762490783 0.3618754609 0.2746347298 0.08724073102) 538 1048 1
(0.4231524265 0.2022552376 0.2884237867 0.08616854915) 444 866 1
(0.6306415936 0.1191180443 0.1846792032 0.06556115889) 507 986 1
(0.4711316598 0.1333726465 0.2644341701 0.1310615236) 547 1065 2
(0.2283458575 0.3858270713 0.0795653422 0.3062617291) 589 1125 1
(0.2558633536 0.2288171432 0.14325118 0.3720683232) 538 1047 1
(0.1204587256 0.4311033831 0.008667254078 0.4397706372) 477 931 1
(0.2359456593 0.3820271704 0.3378733593 0.04415381104) 617 1197 2
(0.1655550695 0.1338523535 0.4172224652 0.2833701117) 609 1180 1
(0.0254244111 0.4872877944 0.1304461706 0.3568416238) 579 1123 2
(0.3706606328 0.1474353636 0.3146696836 0.16723432) 557 1081 1
(0.5964022855 0.128968123 0.2017988573 0.07283073423) 648 1251 1
(0.07042518139 0.1345140119 0.4647874093 0.3302733974) 467 913 2
(0.4547743334 0.2726128333 0.09064094076 0.1819718925) 476 929 2
(0.8138562555 0.02082658188 0.09307187224 0.07224529035) 448 877 2
(0.4571065627 0.2714467186 0.2219815705 0.04946514811) 441 860 2
(0.5251399381 0.2374300309 0.01534923577 0.2220807952) 453 886 1
(0.5300499793 0.2349750103 0.1385215189 0.09645349139) 448 876 2
(0.2751867373 0.2933043754 0.06910225598 0.3624066314) 517 1007 1
(0.2047912866 0.3976043567 0.2753678477 0.122236509) 450 880 1
(0.4964634786 0.2469517395 0.2517682607 0.004816521146) 463 902 1
(0.04297516311 0.02582973533 0.4785124184 0.4526826831) 447 875 2
(0.3653291862 0.183145495 0.1341899119 0.3173354069) 518 1009 1
(0.4007500862 0.210603669 0.08902128787 0.2996249569) 492 941 2
(0.3520437566 0.3239781217 0.2834029384 0.04057518327) 458 896 1
(0.2985802919 0.350709854 0.1750560021 0.175653852) 479 916 1
(0.09591367178 0.3522152577 0.4520431641 0.09982790645) 509 990 1
(0.3381062039 0.3309468981 0.1077910644 0.2231558336) 487 950 2
(0.1583752777 0.07985125027 0.3409611109 0.4208123612) 499 954 2
(0.3286274303 0.3356862848 0.02986776385 0.305818521) 537 1043 2
(0.7347599066 0.1326200467 0.02480551428 0.1078145324) 455 890 1
(0.3877484142 0.3061257929 0.1748359488 0.1312898441) 555 1080 1
(0.174948097 0.4125259515 0.2426482177 0.1698777338) 548 1066 2
(0.1024478414 0.4487760793 0.3480793393 0.10069674) 529 1028 2
(0.4607185383 0.2696407308 0.1626985805 0.1069421504) 569 1106 1
(0.4826744981 0.1576325992 0.1010301518 0.258662751) 587 1122 2
(0.07009827985 0.2155647162 0.2493861438 0.4649508601) 539 2625 1
(0.0003280650814 0.2006384902 0.2991974773 0.4998359675) 597 1141 2
(0.1566301252 0.04285965253 0.4216849374 0.3788252849) 534 1040 2
(0.3982791919 0.3008604041 0.09631220118 0.2045482029) 569 1087 1
(0.05316099945 0.4734195003 0.3077914138 0.1656280865) 589 1144 1