/*--------------------------------*- C++ -*----------------------------------*\
| =========                 |                                                 |
| \\      /  F ield         | OpenFOAM: The Open Source CFD Toolbox           |
|  \\    /   O peration     | Version:  2406                                  |
|   \\  /    A nd           | Website:  www.openfoam.com                      |
|    \\/     M anipulation  |                                                 |
\*---------------------------------------------------------------------------*/
FoamFile
{
    version     2.0;
    format      ascii;
    arch        "LSB;label=32;scalar=64";
    class       scalarField;
    location    "0.002/lagrangian/dsmc";
    object      Ei;
}
// * * * * * * * * * * * * * * * * * * * * * * * * * * * * * * * * * * * * * //


6978
(
8.635168398e-21
1.297555104e-22
1.768947512e-20
1.800288273e-21
1.700524611e-20
3.127325284e-21
2.301107813e-20
5.642230555e-21
2.060717244e-20
4.119411351e-20
2.686780407e-21
8.936084291e-21
1.584865798e-20
7.380843992e-21
1.790263818e-21
7.073939103e-22
2.66863832e-20
4.119939663e-20
1.862701823e-22
3.369617552e-20
2.727744756e-20
3.617695554e-21
1.351601037e-20
4.968670882e-20
2.491985401e-20
8.59980537e-22
3.146990718e-20
8.804154473e-21
6.53222884e-21
1.260865613e-20
8.587763106e-22
7.601883327e-20
2.365719289e-20
7.340604555e-21
3.983478312e-21
8.654787964e-21
1.091869129e-20
7.247370958e-22
7.637663717e-21
8.390298315e-21
2.849931279e-20
1.164306533e-20
3.561172227e-21
2.979890474e-21
6.179268782e-21
5.829014876e-21
1.309145299e-20
2.00210342e-21
1.697382181e-20
1.00277826e-20
2.299070848e-22
3.83290319e-21
4.23954129e-21
6.585132337e-21
3.182491975e-21
4.610341181e-21
1.169059181e-20
8.018313331e-21
2.186446155e-22
4.877392217e-20
2.318982072e-20
1.662981724e-20
7.029730995e-21
1.827731253e-21
2.449001095e-20
2.199838458e-21
6.198574228e-22
1.431412652e-21
1.204835673e-20
6.46444457e-21
7.854124058e-22
3.485622044e-20
1.056964816e-21
5.010152467e-21
2.205069357e-20
9.436247812e-22
8.659553467e-21
1.716495162e-20
1.227498142e-20
2.576451083e-21
1.42729607e-20
7.613877688e-21
1.821748437e-20
9.436540168e-21
5.61147974e-22
6.156190803e-21
9.452907428e-21
7.473106565e-21
5.654527673e-21
9.626859327e-21
1.266780167e-20
2.632970862e-21
7.0800133e-21
2.918130025e-21
2.525024094e-20
1.680194375e-20
6.945307259e-21
3.474606452e-20
4.377150582e-21
6.719622505e-21
4.887176568e-21
4.524622417e-21
2.931221207e-21
9.224558452e-22
1.305923384e-20
2.878169062e-20
2.091836306e-20
2.375637919e-21
1.991724529e-21
6.126951705e-22
4.951997144e-20
7.56488213e-21
2.134095835e-20
1.107661818e-21
1.36493093e-20
2.146371979e-21
4.520189368e-21
4.483131023e-21
9.550722737e-21
1.045101976e-21
4.06711041e-21
5.575918312e-21
1.376722984e-20
1.069799822e-20
1.313269761e-20
8.345825388e-22
2.93295783e-20
1.159132661e-20
2.30277498e-21
1.905707334e-20
3.960215414e-20
3.170656974e-20
9.024228254e-21
7.040634067e-20
7.909273572e-21
3.765101084e-20
3.732591305e-20
1.864311683e-20
6.339713821e-24
9.605788893e-21
9.843047121e-22
2.596208767e-20
6.101011394e-21
1.190103461e-20
1.938659918e-20
3.150794453e-20
1.06664067e-21
2.352477077e-20
7.793306808e-21
1.29598661e-20
1.162344713e-22
3.711714463e-23
3.218800643e-24
3.811785549e-22
1.009522335e-20
4.658214696e-21
1.857580903e-21
5.837713306e-21
4.690006827e-22
9.177123287e-21
1.127561329e-20
1.262923147e-20
7.066829007e-21
1.529631123e-20
7.165170058e-21
4.276369698e-21
2.974198404e-21
9.308644474e-21
1.07129845e-21
5.402767146e-21
1.013856879e-20
1.497171885e-20
6.157735553e-23
1.181457929e-21
1.984521395e-20
8.251482734e-22
3.716320446e-20
7.944762349e-21
1.251725084e-20
2.504307699e-20
2.312497605e-21
2.413721179e-20
8.93698553e-22
2.673265e-21
2.877692438e-20
7.813874834e-21
7.054632098e-21
9.078325022e-21
2.102207546e-20
2.613389314e-21
1.858685504e-20
2.221443907e-20
2.887784024e-20
1.006250577e-20
3.172102022e-21
1.170683346e-20
1.142303709e-20
1.450831899e-20
2.804289348e-20
5.125175429e-21
1.990327808e-20
2.051318449e-21
5.831729657e-22
1.142834529e-20
1.468935011e-20
2.022696701e-20
6.710548271e-21
3.453375817e-21
4.484914966e-20
4.585958991e-21
9.283649555e-22
1.36415733e-20
1.115778239e-21
1.05885064e-20
9.584154209e-21
3.420206598e-21
8.724418252e-21
5.429459286e-20
1.055821787e-20
3.86135515e-21
1.398266978e-20
4.923936191e-21
1.234347082e-21
7.734118365e-21
1.720185302e-22
1.052875111e-21
4.904593063e-21
1.888298437e-20
7.952877799e-20
8.384351742e-22
2.65049758e-20
6.685347656e-21
1.096758529e-21
1.956141263e-22
2.885850203e-20
8.843391973e-21
2.162707066e-22
5.98781998e-21
7.767110745e-21
3.384731881e-20
3.322017768e-21
1.68292013e-20
9.030437333e-21
5.896533272e-20
6.052940171e-21
7.787149862e-21
2.191809634e-21
4.776573952e-21
1.023564706e-20
9.922813234e-21
4.059702614e-21
1.548456082e-20
2.627093224e-20
7.427195493e-21
3.355484123e-21
2.312964168e-21
1.436531185e-21
5.427745246e-21
8.359336133e-22
1.602187453e-21
4.662897657e-21
1.475175891e-20
5.149884625e-21
6.742697594e-21
2.799163417e-20
4.793297863e-21
1.40390123e-20
3.468961155e-21
1.598417366e-21
3.449129296e-20
6.239364723e-21
3.483210594e-21
1.36783267e-22
8.831201208e-21
2.825126113e-21
6.580896051e-21
1.941775048e-21
1.0527467e-20
1.088673962e-20
2.010945886e-20
1.779453296e-20
2.86605732e-20
1.157912488e-20
3.940328448e-22
7.450224051e-22
3.704299017e-22
9.830118269e-22
1.11959233e-20
1.216803233e-20
2.530070952e-21
4.345849438e-21
1.590556803e-20
9.425109821e-21
1.565629078e-21
1.598811899e-22
4.27842023e-21
1.213881282e-21
4.72261604e-21
2.862944021e-20
1.319900086e-21
9.616997734e-21
2.295880569e-20
7.428955491e-21
5.729393691e-21
6.083841178e-21
2.842388112e-21
3.991089624e-21
1.41621588e-20
1.982505762e-20
2.417826279e-21
2.362436935e-20
3.005161349e-21
9.198149434e-22
7.593601196e-22
2.958409316e-22
3.135251247e-21
2.503985268e-20
4.765334776e-20
1.002725136e-20
6.467211652e-22
2.567062157e-22
2.682920417e-24
2.965497077e-21
3.54661455e-21
1.316662417e-20
6.839075466e-21
2.44784405e-20
2.3319279e-21
2.676342312e-21
2.221832708e-20
4.537568475e-21
5.568168372e-22
5.369515562e-21
1.163182276e-21
2.125202473e-21
1.153725257e-21
1.986575385e-21
6.51809284e-21
7.809851172e-21
9.035302181e-22
3.987601926e-20
5.65871701e-21
8.927880398e-21
1.111572927e-21
8.176743005e-21
4.352367337e-20
1.007762898e-20
1.33625642e-20
7.325963387e-21
7.038700268e-21
1.713940383e-21
3.144489913e-21
4.824429116e-21
1.035993098e-21
8.592697138e-21
9.861708371e-21
2.587050114e-21
2.661431846e-20
1.83101732e-21
4.789790181e-21
1.344153794e-21
1.18167067e-20
1.361941109e-20
3.054248658e-22
5.701008497e-21
1.06071434e-20
5.201087456e-21
2.978792641e-20
5.795258736e-21
2.976058619e-21
2.582323483e-20
1.536362531e-22
3.421391497e-20
5.619750432e-21
2.944210381e-21
3.327437412e-21
1.054745636e-21
3.548555313e-20
1.583158118e-22
5.601360909e-20
6.885412718e-21
2.217630602e-22
3.8742219e-21
2.414132205e-21
1.879343344e-21
7.58988904e-22
1.168086082e-21
1.141147861e-20
9.308291211e-22
5.883063086e-22
5.628949873e-21
1.961033471e-21
1.875015723e-20
1.306581424e-21
1.662855196e-21
2.557274719e-21
6.366080208e-21
3.545366326e-21
1.030631295e-20
3.550929398e-20
3.584331829e-21
5.569949315e-21
1.193237685e-21
6.714774386e-21
1.63830377e-21
7.196617502e-21
2.488973697e-21
8.953441435e-22
3.607459522e-23
3.544164987e-21
2.170345713e-21
1.022777186e-21
4.845979416e-21
7.592993243e-21
2.188996794e-20
4.4186005e-21
5.623569145e-21
1.621129797e-21
3.287788336e-22
4.56173006e-21
7.809620474e-21
1.922944856e-20
2.25174103e-21
2.621246271e-21
1.3867829e-20
2.069148884e-21
1.077159801e-20
6.029157057e-21
1.406479209e-20
6.68428544e-21
1.664980553e-20
1.54342341e-21
5.93078363e-20
1.942091196e-20
3.058807339e-21
2.185939802e-20
3.158323251e-21
6.115115327e-21
1.46380348e-21
1.048869663e-20
8.675631649e-21
1.421116629e-21
1.292133996e-22
2.815774197e-21
6.24846901e-22
1.625963608e-21
1.143572828e-21
8.412881732e-22
2.313171971e-21
2.112276483e-21
1.968195353e-21
5.706052197e-22
3.561369424e-22
5.877329767e-22
9.993372603e-22
1.921039625e-20
4.430055098e-21
3.005919061e-21
4.842390221e-21
8.607727276e-22
2.727759138e-21
7.934897119e-21
4.467278302e-21
4.920119412e-20
4.060158503e-21
3.939184344e-21
3.787201478e-20
5.51761126e-21
1.313584209e-20
1.669801744e-21
5.969856363e-21
2.079305739e-21
5.469145842e-21
7.6074348e-23
6.14311564e-21
3.813766722e-21
2.942900898e-21
6.319841505e-21
6.781838636e-21
1.056137927e-20
9.929818657e-22
8.135192165e-21
7.463860738e-21
7.385957985e-21
3.008115793e-21
1.539981108e-20
6.720002923e-22
1.334511367e-20
1.618178053e-21
1.381511297e-20
4.709125372e-21
5.771302731e-21
1.317905736e-20
2.891969827e-21
2.412485073e-21
1.263146378e-21
2.507919108e-20
1.770002018e-21
3.152861483e-21
5.795387221e-21
3.842464795e-21
3.130242452e-21
4.848923925e-20
4.513987092e-21
4.12340125e-22
9.661609177e-21
3.042214083e-21
7.438006897e-21
3.208707668e-21
6.0050193e-21
6.110569995e-21
1.151059799e-20
6.360887435e-21
7.511153991e-22
4.474598072e-22
2.377017139e-20
1.156133676e-20
4.12651729e-20
6.032901351e-22
3.491288991e-21
7.168313055e-21
1.873053971e-20
1.184372667e-20
1.141817508e-20
1.525931485e-21
6.13237744e-21
1.839834226e-20
3.879102339e-21
2.174263519e-21
4.656434108e-21
2.116422296e-20
3.229224204e-22
3.908758717e-21
6.142382864e-22
3.559248661e-21
2.172031094e-21
3.317126417e-21
2.239295681e-21
3.246498604e-21
6.381306711e-21
2.22805516e-21
1.542617982e-21
4.270512038e-21
1.093456168e-22
3.716253243e-21
5.882342724e-21
5.392332582e-21
5.680873684e-21
6.284766557e-22
4.270531639e-21
1.461483464e-20
3.677826636e-21
1.132922312e-20
4.926956776e-21
7.358246432e-21
5.84261297e-21
8.738942738e-23
2.688231576e-21
8.478326135e-21
1.110754732e-20
2.257947762e-21
1.947844619e-20
1.031820951e-20
1.53284211e-20
7.31672104e-22
7.297499758e-21
3.195845562e-21
1.45719051e-20
3.379557297e-22
1.50298071e-21
2.888293196e-21
3.141118226e-21
2.218127913e-21
2.558346551e-21
1.821287513e-21
2.966125427e-21
3.133379244e-23
5.466297026e-21
1.24496703e-21
1.773292706e-22
2.279362887e-21
6.063415088e-21
6.324914803e-21
3.110921766e-21
8.05294883e-21
2.129476843e-21
5.256223781e-21
6.891100032e-21
1.77669118e-21
4.88327828e-21
8.694909414e-22
9.149964993e-21
8.918316428e-22
1.119348853e-20
1.674570558e-20
1.63250593e-21
3.392484024e-21
1.152157316e-22
1.038673059e-20
1.678727992e-20
5.442174254e-21
2.62549528e-22
6.413874037e-22
1.01263268e-20
5.990637038e-21
1.082572896e-21
1.569326294e-20
6.222478278e-23
7.02156375e-21
4.287526687e-21
1.417429268e-20
3.329194305e-21
3.483782765e-21
4.035407716e-22
2.111535985e-20
1.65492761e-21
1.690844034e-20
1.918644009e-20
1.004956759e-20
1.051748808e-21
3.573537115e-21
8.807102535e-21
1.401348161e-20
4.632239323e-21
3.215886501e-21
7.552290079e-21
2.119159034e-21
2.924898091e-21
5.38527266e-22
6.461771309e-21
2.879536794e-21
2.16193815e-21
2.100952298e-21
2.893044064e-21
8.328937614e-21
7.169989252e-21
1.594443662e-20
6.419502747e-22
2.002827931e-21
2.925928947e-20
6.491940932e-21
1.016962491e-20
5.40076819e-22
1.034861637e-21
6.021217483e-21
1.255379195e-21
9.704997496e-22
4.45935591e-21
1.323592861e-21
4.229567792e-22
3.903988102e-20
5.284645643e-21
3.59202335e-21
6.368665264e-21
8.855560977e-22
2.399854186e-21
2.257413247e-20
1.588057853e-20
2.585949145e-21
1.921859508e-20
2.674702849e-21
3.120459398e-21
7.38680522e-22
1.01583573e-20
1.685403681e-21
7.558426331e-22
2.405824226e-21
2.951465335e-22
4.847321047e-20
8.672530867e-22
7.209829389e-21
4.464061403e-21
7.543984046e-22
1.761862224e-22
9.222202047e-21
1.034185265e-21
5.674307429e-21
1.014748076e-21
4.141491663e-21
1.103576463e-20
4.420336052e-22
6.807693213e-21
1.458491791e-20
2.945580562e-21
1.158982189e-21
6.517740714e-21
1.615705109e-22
1.115191313e-21
1.786832609e-22
1.38200048e-21
1.495823694e-20
4.726898588e-22
6.758805925e-21
4.606861463e-21
2.881981455e-20
3.939603772e-21
7.754943215e-21
6.40864704e-21
1.096770844e-20
1.209630146e-20
2.5184391e-21
1.755910296e-21
3.737965844e-22
6.308579236e-21
4.179668278e-21
9.597111255e-20
2.105735809e-21
9.519664615e-21
4.019914499e-21
4.638919906e-22
1.973830315e-23
3.3922074e-21
1.063322436e-21
2.799214394e-20
1.034607521e-21
8.908351017e-21
2.771664327e-21
2.782651309e-22
3.097827817e-21
3.930313056e-21
1.354401737e-20
1.708142512e-21
4.493758616e-21
2.127033918e-21
4.586513098e-22
1.032485205e-21
1.400511344e-21
8.131095827e-21
6.062031279e-22
4.738027063e-21
3.301823024e-21
4.602553094e-21
2.723611903e-21
2.158485998e-21
5.560663048e-21
6.534066818e-21
1.11433142e-20
1.446055882e-20
2.902663411e-21
1.158300286e-21
2.113899197e-22
7.590055479e-21
2.105990376e-21
1.30654291e-21
1.615934094e-21
4.846311547e-21
1.766274683e-21
9.744565017e-21
8.573163624e-21
9.434233881e-21
1.36533329e-21
1.005681679e-20
1.858564227e-20
7.577720367e-21
2.951278859e-20
3.62737113e-20
7.537779682e-22
1.083979463e-20
7.002900408e-21
6.632601139e-21
5.151287181e-21
9.354598498e-24
2.792686581e-20
6.976203817e-22
2.344151532e-21
1.836852552e-21
4.569552249e-21
1.077638597e-20
6.229185886e-21
7.469596182e-21
5.030499838e-21
6.775519929e-23
4.88137405e-21
2.116430088e-20
2.355253738e-20
3.950361193e-21
7.145365036e-21
8.91478691e-21
6.864627355e-22
4.229602576e-20
5.255826388e-21
3.220214773e-21
7.181464514e-21
9.883534734e-21
1.006601789e-20
6.016334267e-21
2.057066721e-20
7.019692475e-21
9.416156798e-21
3.093150179e-21
3.428615344e-21
8.437889287e-22
2.500860844e-21
3.81156465e-21
4.68451683e-21
4.673668582e-21
1.072432027e-20
7.466604009e-21
9.601353087e-23
3.300045839e-21
2.066488865e-22
6.119297828e-21
3.243288001e-20
4.427726006e-21
1.316822538e-21
1.357544674e-20
4.390311416e-21
9.949467485e-22
4.706757208e-20
2.165757066e-21
1.315227516e-20
6.389818575e-21
1.487570502e-23
5.419413454e-21
2.495735012e-20
1.443188886e-21
5.646564214e-21
3.828179136e-21
6.294627376e-22
2.878617566e-21
5.265000653e-23
3.281893329e-21
1.044365939e-20
6.418427117e-22
2.556338258e-20
8.570079646e-22
5.139398907e-20
4.529193487e-21
5.939318875e-21
2.19911311e-21
3.068731851e-22
1.065811013e-20
1.919364285e-22
6.733874651e-22
3.123817392e-21
1.909504743e-21
1.129856137e-22
8.67864722e-21
3.934591228e-21
4.732557025e-21
3.454119021e-21
1.049767666e-20
1.166377284e-21
4.240911518e-21
1.047288339e-21
8.265230308e-21
3.873577667e-21
4.076939453e-21
6.145266446e-23
3.578573128e-24
3.25669927e-21
9.224349905e-21
7.162605174e-21
3.606995928e-22
4.747591447e-21
3.463351179e-21
9.517475238e-21
1.033611711e-22
9.812211918e-22
1.283197898e-20
3.931564197e-22
5.558075838e-21
1.454568524e-21
1.861003412e-22
1.599738571e-20
2.583707538e-21
9.158163031e-22
1.899124439e-21
4.840401191e-21
1.415282311e-20
1.510404074e-21
1.042754329e-21
2.049535096e-21
1.248930542e-20
1.160111398e-20
6.118429258e-21
9.374633074e-21
5.831025224e-21
7.483795473e-21
4.752598987e-20
1.41780845e-21
2.07349994e-21
6.858251968e-21
1.371763976e-20
5.300531151e-21
4.648518617e-21
4.704893711e-21
4.27279441e-21
8.191032458e-21
5.121580973e-21
4.490738317e-21
1.331711155e-20
5.816557212e-21
8.811005414e-22
9.018478722e-21
1.094890676e-20
4.224699972e-21
4.272344704e-21
9.2211646e-21
4.047814284e-21
6.837865781e-23
1.686780659e-21
2.598147298e-21
9.898324215e-21
4.76954727e-22
1.96927301e-20
9.319036072e-21
3.308515852e-22
2.364138608e-22
4.621955462e-21
1.5924691e-21
8.071473391e-21
1.380141693e-20
2.314903441e-21
4.21034312e-22
1.12154934e-20
1.524181235e-20
1.53749863e-21
3.251363959e-21
1.091679738e-21
2.270957043e-21
3.655763238e-21
4.077042542e-21
1.633619887e-21
7.204560011e-21
7.641709404e-21
1.781877077e-21
7.95812565e-21
1.183368869e-21
7.748817723e-20
8.1528824e-21
1.374348081e-21
2.944461031e-22
1.617303814e-21
2.046727541e-20
4.839371093e-22
8.698167421e-21
2.037333001e-21
2.928969059e-21
5.01140118e-22
3.481775307e-20
1.725798303e-21
1.154537546e-20
5.37241097e-22
1.32201733e-21
3.809582528e-21
2.441416781e-21
1.826179219e-21
1.878386412e-21
8.895038673e-22
6.857784285e-21
1.268636454e-20
3.404994634e-21
2.871435342e-21
1.764878617e-21
6.467244489e-21
2.962606106e-22
4.466411739e-21
1.159985056e-20
8.840444007e-21
3.830867131e-21
5.472417531e-21
2.285359566e-21
8.296932452e-21
5.523658914e-21
1.967874866e-21
2.633469396e-21
6.274635231e-22
1.075029979e-21
7.640207803e-21
3.032522538e-21
2.829933814e-21
2.395586615e-21
6.611112124e-21
9.375623923e-22
3.49565088e-21
7.550532102e-23
7.300198664e-21
3.008659738e-21
7.525435327e-21
4.478424516e-21
1.375795053e-21
4.570604253e-22
2.138123327e-21
4.017937604e-21
1.876589269e-21
2.623105631e-21
3.054796964e-21
3.483505071e-22
1.224155733e-22
3.550839701e-21
5.638334274e-21
4.74396471e-21
3.264232119e-20
7.657764357e-21
2.522927703e-21
7.315268114e-22
1.414455241e-20
1.666616233e-22
5.622256053e-21
1.042906342e-20
1.08571054e-21
4.532156007e-20
1.371464471e-20
2.443672446e-22
1.084422802e-20
6.787568409e-22
1.364469208e-21
8.06403756e-21
3.353393626e-21
6.136140783e-21
4.676865386e-22
1.136952582e-21
2.758077636e-21
2.31031084e-21
1.699414394e-21
5.707801513e-20
3.729280198e-21
7.938313877e-22
1.211338791e-21
4.438603351e-22
5.050831757e-21
2.094266679e-22
2.288185651e-20
3.610483108e-21
2.756529708e-22
8.433054794e-21
8.289547189e-22
3.64607502e-21
4.682581598e-21
8.034262499e-21
5.461964349e-21
1.068200643e-22
3.820259001e-21
1.327625463e-21
6.207229029e-21
1.265353893e-21
2.781891832e-21
1.981916553e-20
7.737480485e-21
3.556909608e-21
4.337238269e-21
6.744466306e-22
1.503790589e-21
1.9507859e-21
1.333352871e-21
1.803691331e-22
4.353108702e-21
1.314765705e-20
3.641192844e-21
2.836039151e-21
3.282150456e-21
1.495133298e-21
1.946453101e-21
4.051396024e-22
2.812114498e-21
9.868826467e-21
9.176568319e-22
1.429173272e-21
1.436438837e-22
3.677091693e-24
4.789356796e-21
1.251763212e-21
6.435368616e-21
1.347973202e-21
6.901769368e-22
3.082826282e-22
3.477274681e-21
8.488394007e-21
3.565194734e-21
4.446148281e-21
1.835681217e-20
6.691003753e-21
4.793139785e-22
3.952014047e-21
7.418815515e-20
3.862321276e-21
7.188740434e-20
4.684829046e-20
7.538707558e-21
6.690427434e-22
5.512184757e-21
2.7392464e-21
5.577086507e-20
3.470570928e-20
1.59739595e-21
4.411060622e-21
1.017105719e-20
7.917981944e-21
1.405181713e-21
5.521666846e-21
2.442263593e-21
2.482119886e-20
2.860671082e-20
7.424553748e-23
2.426017218e-21
3.46050113e-22
1.936738053e-21
1.161606981e-21
4.142096637e-21
1.638332303e-21
2.064082409e-22
7.122353765e-21
3.029771899e-23
5.261802053e-21
6.082274014e-22
1.388959506e-21
2.732978236e-20
9.979541743e-21
6.562781585e-22
4.333959596e-21
5.600644499e-21
3.752652782e-21
4.02193615e-21
4.898735604e-22
2.061518609e-21
3.118161928e-21
7.783122082e-22
4.066396783e-21
6.907328158e-22
1.44179267e-20
8.935725502e-21
9.395652144e-22
1.14185931e-21
2.538840736e-20
6.133162135e-21
3.867216035e-21
2.330176319e-21
1.670867315e-22
3.985475286e-21
1.171205096e-20
1.126272433e-21
3.783778739e-21
3.980169828e-21
3.461144279e-21
7.71424041e-21
3.985938871e-21
7.860381468e-21
7.340922405e-22
3.839134581e-22
4.133072149e-23
3.996910693e-21
1.402951322e-20
6.634990617e-22
2.790336417e-22
3.991199751e-21
2.022418053e-20
2.489818226e-21
2.603618688e-20
3.121567569e-20
5.950793114e-21
4.471027836e-22
3.661723803e-21
6.988935694e-21
4.397939575e-21
2.32835501e-21
1.312228024e-21
3.103829573e-20
1.646164035e-20
1.455910815e-20
7.91106624e-21
3.334881591e-21
9.060723968e-21
5.102452146e-21
7.05798003e-21
3.511530192e-21
3.506354299e-20
5.592467941e-21
1.293904881e-20
1.792337601e-21
4.656040282e-21
5.552302004e-22
6.578455671e-21
1.771703889e-21
7.839209174e-21
8.147999029e-21
1.831600735e-22
7.466642663e-22
1.507208876e-21
1.642408756e-21
3.937094793e-21
2.896796121e-21
9.408616532e-21
3.896563518e-22
1.424231227e-21
6.572322137e-22
3.907459567e-21
1.643277108e-20
1.074946363e-21
3.120155537e-22
3.229607649e-21
2.839995529e-21
1.188849541e-21
3.740131911e-22
2.249425429e-21
4.09220223e-21
7.055283133e-21
2.666524178e-21
3.328836959e-21
4.529244151e-22
5.724985175e-21
3.982066273e-22
1.155641412e-20
3.197188856e-21
8.134738778e-22
6.643835384e-21
3.451885469e-21
6.032654301e-21
4.857376655e-21
1.100288457e-23
1.013245832e-21
9.981142337e-22
1.589785421e-22
2.050874555e-21
5.351341021e-21
1.088213785e-22
4.2043767e-21
1.331837329e-20
2.482809901e-21
9.536456719e-21
1.284760465e-20
5.688910215e-21
9.543137028e-21
2.794611346e-20
9.537814315e-21
8.748387404e-21
2.397738504e-21
2.269184039e-20
4.15462958e-22
2.344746408e-21
4.968327398e-21
1.162214778e-21
5.579936426e-21
3.002399337e-21
2.607775705e-21
9.531709906e-21
9.616668208e-23
7.499197241e-23
1.064517552e-21
3.070107879e-21
1.156474115e-20
9.729259113e-23
6.52608056e-21
3.878711698e-21
5.407398037e-22
2.809897593e-21
3.378669475e-21
3.619595082e-21
4.881334806e-21
1.229620206e-20
5.787044056e-21
2.637151725e-21
1.723236618e-21
1.70850657e-21
1.037304354e-20
2.035641769e-22
9.675029779e-21
1.773632052e-21
2.60117013e-21
1.330730539e-22
9.992257164e-22
4.269654972e-21
2.322170219e-21
5.265391586e-21
2.740742198e-21
1.14601127e-21
3.619540064e-21
2.176018737e-20
5.467825287e-21
9.195071839e-21
1.150435184e-20
4.711142939e-21
4.808077715e-21
5.430445179e-22
1.670022928e-21
3.208186381e-21
1.300663668e-20
7.001659897e-21
3.382399172e-21
4.277034137e-21
9.171857358e-22
1.130129892e-20
8.227240326e-21
6.885804327e-21
3.094141442e-21
2.863768283e-21
2.303877347e-21
7.238937184e-21
1.427909139e-21
3.156582145e-21
6.277480158e-21
2.744371818e-20
2.534974305e-21
2.362129506e-22
2.24034191e-21
1.783395469e-20
1.26987875e-20
3.082288713e-21
2.730302303e-22
1.298141258e-21
5.415840954e-21
3.643699279e-21
4.590564375e-20
5.019319734e-21
3.156736413e-21
6.714869507e-22
1.562162241e-20
1.480991499e-21
1.512063107e-21
6.493245664e-21
8.397313297e-21
1.868634953e-21
1.024850465e-20
8.10391846e-21
1.669207235e-21
1.995019328e-20
1.140322247e-21
5.780997792e-21
8.681207294e-22
4.086497954e-21
5.081353587e-21
4.10610049e-21
4.935132641e-21
1.945413893e-20
4.589647108e-21
6.567122662e-21
7.164798663e-23
5.130556561e-21
1.000998395e-21
1.744960695e-21
5.493552491e-21
9.214680113e-22
9.139208698e-21
1.082211308e-21
4.581369994e-21
4.605965506e-21
4.071081008e-21
1.035463562e-20
1.031953351e-20
8.77563596e-22
1.161342984e-21
7.776086046e-21
9.423742283e-22
3.235542062e-21
3.769332287e-21
8.971776929e-21
1.818971772e-21
6.831688122e-22
7.607601707e-21
3.953278023e-21
1.78892454e-21
1.67911625e-21
4.475532144e-21
1.302772623e-20
2.742639019e-21
7.590818413e-21
2.23429237e-21
1.53369347e-21
2.204365071e-21
8.691141622e-21
2.59260786e-21
8.821493577e-22
2.997310525e-21
4.666168323e-21
2.313059334e-21
3.503113325e-21
1.789453897e-21
2.757953182e-21
1.041897804e-21
7.834081357e-21
2.86723836e-22
3.35711606e-21
3.713955327e-21
4.573106731e-21
3.798802623e-21
3.186451699e-21
2.553600631e-21
2.30747734e-21
3.519414016e-21
2.827061722e-21
4.887889593e-21
1.663685125e-20
6.216041132e-21
3.010177887e-21
1.335699437e-20
5.306377202e-21
5.540944974e-20
5.068758496e-21
1.223040263e-20
1.986530318e-21
5.637979936e-22
5.883814272e-21
1.073420756e-21
8.32467838e-21
4.796389138e-22
7.4694885e-20
2.455515587e-22
4.139421718e-21
3.117732423e-21
1.21619252e-20
1.626929922e-20
1.768398253e-21
4.938288585e-21
1.546768527e-21
3.207714609e-21
1.633402762e-21
6.497712942e-21
3.149926631e-21
2.457967956e-20
8.745730071e-22
3.645148802e-21
4.311310706e-22
1.305472712e-21
4.189900806e-22
1.321355399e-20
1.226568476e-20
2.818236685e-21
5.219994933e-21
1.320964797e-20
3.871626045e-21
4.491014568e-22
1.051662889e-20
2.615287022e-21
5.968956261e-23
4.204175707e-22
1.447221703e-20
5.331136222e-22
1.390034956e-21
2.85402006e-21
7.37027068e-21
3.229238925e-21
1.374832645e-21
3.604372245e-21
3.28599062e-21
3.168686418e-21
4.106830078e-22
1.243707015e-21
2.945911373e-21
3.445689721e-21
1.772897525e-22
1.50996593e-21
1.068452103e-20
1.285849652e-20
4.061868652e-21
1.332534629e-21
7.659449803e-23
6.552458143e-22
1.712464593e-21
9.153826391e-21
1.536133984e-21
3.184114164e-21
4.350386669e-21
1.874435704e-21
1.187821682e-20
4.901593425e-22
5.60715692e-21
1.834274862e-21
8.65948527e-21
3.283838753e-20
1.90515721e-20
3.479711656e-22
8.49114922e-21
5.97660585e-21
6.985995134e-22
3.808093462e-22
1.133128517e-21
4.522843026e-21
4.081774169e-21
5.586081337e-21
7.032060858e-21
5.751485726e-20
1.228566011e-21
1.482002058e-20
4.302212543e-21
2.102151076e-21
5.932855767e-21
2.312079252e-21
1.809385416e-20
8.553838512e-22
7.769254042e-22
1.205194088e-21
1.000296176e-20
2.281957517e-21
5.737461556e-21
9.662917895e-21
1.002959877e-20
1.012666362e-20
4.007061847e-21
5.776952132e-21
8.643923073e-21
2.022323786e-20
7.58123685e-21
3.958039657e-23
5.882367332e-22
7.221156185e-21
1.29931136e-21
1.951253436e-21
7.456273009e-21
2.026694441e-21
2.041315593e-21
1.111798392e-21
5.490195292e-22
2.699187848e-21
3.330385022e-21
6.642617669e-21
8.346895249e-22
8.418940207e-24
2.794170096e-22
1.548239144e-21
8.967568765e-22
1.814335749e-22
8.629152786e-21
5.154250936e-21
3.328717855e-22
1.960094154e-21
3.976034669e-21
1.771136269e-20
4.119534629e-21
7.117526035e-21
4.578264531e-22
2.969269463e-21
4.361574226e-21
5.001041367e-23
3.990446697e-22
2.945626633e-21
1.335549389e-22
2.352168501e-21
1.239084664e-20
1.915284545e-21
4.838313425e-21
2.520301484e-22
9.615135719e-21
2.182765859e-20
7.877932609e-21
1.403990496e-20
4.543199586e-23
6.727715438e-21
9.056084187e-21
2.144716018e-21
4.27751521e-21
2.802303352e-21
7.438519194e-21
6.51108729e-21
3.167043483e-21
3.074683986e-21
3.520160103e-20
1.364447379e-20
2.855306808e-22
9.772343803e-22
7.263781579e-21
3.503054028e-21
1.379278905e-21
1.618299637e-20
2.739626382e-20
1.293785605e-21
5.512443907e-21
6.733460364e-22
7.963971305e-22
2.637042795e-21
4.624468031e-21
3.535421686e-21
6.523097937e-21
3.651103926e-21
4.894602392e-21
2.072684682e-21
1.910955025e-21
3.73834438e-21
3.71801828e-21
1.898103439e-20
2.357669247e-21
4.960242518e-21
7.699587357e-22
4.819878437e-21
2.953994883e-21
1.291867381e-21
5.30512876e-21
4.560909697e-22
3.763798207e-21
1.055073211e-20
9.923609538e-22
8.495105506e-22
5.772999544e-21
1.52740954e-21
4.255090745e-21
3.315369403e-21
1.113362414e-20
2.107255039e-21
4.597250759e-21
1.910327659e-21
5.783442985e-21
2.550842832e-21
6.692053998e-21
1.305472917e-20
3.550681861e-21
1.328721299e-20
5.312331011e-21
9.469870056e-22
3.969076956e-22
1.081843032e-21
8.749420634e-21
6.856681733e-21
2.64014959e-21
6.088560549e-21
3.642761448e-21
6.524172004e-22
1.17512987e-20
1.482619843e-20
1.141521511e-20
2.555609377e-21
8.028949268e-21
2.027366668e-21
2.019251091e-21
1.497468012e-21
5.354657591e-21
1.175950749e-21
9.462842784e-21
2.505088232e-22
2.296955966e-20
1.299068086e-20
1.621501424e-21
9.666275207e-21
4.536339906e-21
5.99365566e-21
7.958988691e-23
8.333595021e-23
5.566568161e-22
2.502746674e-21
9.36531167e-22
1.658330385e-22
3.649227074e-21
3.555709305e-21
1.461031701e-21
8.56309133e-21
2.461766565e-20
1.620184937e-20
2.705468457e-21
1.787226343e-21
6.93496821e-21
3.366767054e-21
4.726030544e-21
5.294050425e-21
1.34430804e-20
6.541964738e-21
3.173804452e-21
9.836947198e-21
2.046068731e-21
1.482902424e-22
1.967726894e-21
3.479404885e-21
2.063501815e-21
3.6007447e-22
4.142001518e-21
1.898841064e-21
3.553861465e-21
2.815435162e-21
1.596592378e-20
7.433161421e-21
5.026406801e-21
5.473166661e-21
8.398176552e-22
1.040334401e-21
5.235302479e-21
1.587401817e-20
1.668035379e-21
8.125323021e-21
9.889726602e-21
1.041109679e-20
3.779670896e-21
7.458647486e-22
8.158392927e-21
2.039042702e-21
5.154479902e-21
8.894391698e-21
2.412930771e-21
5.278574308e-21
1.699736425e-21
3.409949089e-21
2.162575459e-22
6.943612471e-23
6.645456601e-21
5.223336465e-21
9.499872931e-22
4.650342587e-22
1.403645836e-20
1.291572177e-21
6.542295543e-21
6.742231587e-21
5.875925494e-22
2.796460052e-22
4.158313099e-23
6.213439763e-21
2.117472139e-21
3.068580881e-21
1.54582743e-20
2.888633654e-22
7.437635044e-21
7.626276005e-21
1.98575949e-21
1.852049842e-21
1.746570643e-21
2.7278587e-21
3.59378196e-21
3.968897386e-21
3.609606282e-21
3.246901005e-21
8.917688144e-23
4.041751697e-21
3.138652069e-21
3.616688544e-22
2.367216012e-21
7.559040604e-21
3.312270498e-21
1.070233749e-21
9.502439079e-22
3.056033337e-21
5.69250801e-21
4.243646418e-21
1.375056042e-21
2.479119364e-21
1.807413234e-21
3.54841643e-21
7.055323021e-21
2.525681673e-21
1.182709569e-21
1.844323235e-23
1.257865632e-20
1.341452712e-20
5.245925189e-21
1.632574657e-21
3.726157942e-21
7.229831535e-22
8.025290454e-21
1.304658904e-21
5.550449461e-21
4.994307784e-21
7.059009219e-21
5.789838549e-21
3.085095172e-21
1.200983982e-20
1.973681944e-21
2.01119712e-21
5.098867159e-21
4.601539623e-21
6.280072337e-21
1.427433146e-21
2.15160929e-21
9.704601599e-22
4.472321319e-21
1.296643519e-21
2.078918546e-21
7.90003706e-21
1.081912704e-20
2.028097719e-21
5.055914132e-21
1.730089027e-20
3.015589612e-21
1.927829896e-21
7.931177275e-21
8.884596006e-21
7.715749028e-21
4.57171206e-23
3.821436931e-21
1.827706306e-22
9.017933115e-21
1.260373023e-21
5.326171208e-21
5.778362091e-22
2.056737864e-20
1.144512818e-21
3.526322305e-21
2.104248324e-21
7.101295864e-22
5.184537556e-21
4.008783848e-21
4.755077736e-21
9.40998976e-22
2.585591572e-20
1.470007514e-21
1.735069701e-21
1.398947408e-21
3.224431684e-21
1.988520535e-21
3.223893241e-21
1.488157574e-21
8.047248467e-21
9.789923488e-22
6.571423625e-21
1.279998625e-20
1.544209752e-21
1.526703832e-20
3.695652216e-21
6.849896202e-22
2.286429261e-21
5.845822587e-21
1.316359204e-20
1.248832115e-22
9.989743977e-21
1.308781369e-21
1.948602844e-21
2.157724899e-22
3.514673461e-21
3.406120366e-21
9.133518292e-21
2.825976028e-21
5.258020818e-22
1.954349296e-21
1.162024368e-20
2.574885402e-21
1.189981705e-20
2.014747767e-21
3.40094663e-20
6.085596426e-21
1.185758205e-20
9.572145436e-21
7.519391682e-21
4.08264976e-21
1.056616168e-20
6.989424735e-21
1.212504189e-20
3.944757651e-20
8.128369444e-22
2.362079328e-21
2.988185395e-21
2.112675741e-21
7.9845594e-22
2.620601325e-22
5.604593171e-22
2.050611496e-21
2.110113279e-22
7.504980987e-21
4.045244238e-21
5.715672516e-22
7.421130274e-22
1.694362748e-21
3.104299085e-21
6.690308214e-22