/*--------------------------------*- C++ -*----------------------------------*\
| =========                 |                                                 |
| \\      /  F ield         | OpenFOAM: The Open Source CFD Toolbox           |
|  \\    /   O peration     | Version:  2406                                  |
|   \\  /    A nd           | Website:  www.openfoam.com                      |
|    \\/     M anipulation  |                                                 |
\*---------------------------------------------------------------------------*/
FoamFile
{
    version     2.0;
    format      ascii;
    arch        "LSB;label=32;scalar=64";
    class       Cloud<dsmcParcel>;
    location    "0.002/lagrangian/dsmc";
    object      positions;
}
// * * * * * * * * * * * * * * * * * * * * * * * * * * * * * * * * * * * * * //

6978
(
(0.05233013698 0.09112177411 0) 546
(0.06126397369 0.07461516523 0) 528
(0.0338199204 0.009789704806 -1.626303259e-19) 444
(0.05837482505 0.1464479929 0) 627
(0.04974726582 0.02344633498 -5.421010862e-20) 456
(0.05564641125 0.02485351159 1.626303259e-19) 457
(0.05136337631 0.04651151069 0) 486
(0.04175512588 0.01306700648 -1.76182853e-19) 445
(0.06218943392 0.03069488741 3.252606517e-19) 458
(0.07547335342 0.1191732535 -2.168404345e-19) 589
(0.04692664436 0.02022054332 -2.168404345e-19) 456
(0.04975114612 0.01388879707 -2.168404345e-19) 446
(0.06427385048 0.03622457182 -2.168404345e-19) 468
(0.07141194358 0.07266083549 1.084202172e-19) 519
(0.07582260982 0.04594378374 0) 479
(0.05604017849 0.02228780174 1.084202172e-19) 457
(0.04904366574 0.02921073424 -1.084202172e-19) 466
(0.07122640147 0.04761534655 -1.084202172e-19) 489
(0.05954728054 0.06020258817 0) 507
(0.06103062422 0.04868930877 -5.421010862e-20) 488
(0.07074085003 0.04007325556 -4.33680869e-19) 479
(0.07124246172 0.03555507748 -2.168404345e-19) 469
(0.06358499126 0.02333202131 0) 448
(0.07502410292 0.03736442379 -1.355252716e-19) 469
(0.05994943168 0.04085206539 6.776263578e-20) 477
(0.04420758972 0.01570081194 -2.168404345e-19) 445
(0.04353894347 0.0272091 0) 465
(0.05498555012 0.06169081657 -1.084202172e-19) 507
(0.03441440589 0.05234491494 1.355252716e-20) 494
(0.01035590277 0.09339555925 -3.252606517e-19) 561
(0.03983454919 0.042833652 1.084202172e-19) 485
(0.06791967855 0.04362282826 -2.168404345e-19) 478
(0.01212612312 0.0131665829 2.168404345e-19) 451
(-0.02001599077 0.02856868764 3.252606517e-19) 77
(0.06959926736 0.02167172357 0) 449
(0.05670712757 0.0153822854 2.710505431e-19) 447
(0.06167163189 0.03383443309 -2.168404345e-19) 468
(0.02323246883 0.05484895614 1.084202172e-19) 503
(0.04242342047 0.02667839583 -4.33680869e-19) 465
(0.07410295011 0.02096040707 0) 449
(-0.01018873171 0.1086474781 3.388131789e-20) 298
(0.07169237916 0.04492794959 -1.084202172e-19) 479
(0.04400733804 0.01538174082 -3.235665859e-19) 445
(0.06623195871 0.02328911937 -2.168404345e-19) 448
(0.07223786947 0.02831735195 4.065758147e-20) 459
(0.01596314618 0.08816285859 0) 552
(0.0712883665 0.03021820947 1.084202172e-19) 459
(0.05152844534 0.01725527516 2.168404345e-19) 446
(0.06239242137 0.02912895208 -2.168404345e-19) 458
(0.06769625944 0.08453736591 2.710505431e-19) 538
(0.06642131455 0.0243108875 2.168404345e-19) 448
(0.05773501313 0.0222792638 0) 447
(0.07604345938 0.08139729765 0) 529
(0.03521981419 0.0753393978 0) 534
(0.0633278625 0.02523516386 1.084202172e-19) 458
(0.06731151071 0.09302168742 0) 548
(0.06761948744 0.0365067771 0) 468
(0.0591964064 0.02619088687 -5.421010862e-20) 457
(0.06155752692 0.08607006983 2.168404345e-19) 538
(0.04676386527 0.08768746359 0) 546
(0.07181267388 0.03528505858 1.084202172e-19) 469
(0.03897265724 0.01711357203 -5.421010862e-20) 445
(0.06933962555 0.03174127592 0) 459
(0.06680340394 0.02630621956 0) 458
(0.06265154769 0.02892135507 0) 458
(0.05332995497 0.02173541138 0) 456
(-0.01889413229 0.006188455243 1.355252716e-20) 17
(0.05630817155 0.05515890215 -1.219727444e-19) 497
(0.07107283378 0.0473801552 -1.084202172e-19) 489
(0.05836954982 0.05092517146 2.168404345e-19) 487
(0.06789411156 0.029828389 -4.33680869e-19) 458
(0.06551431997 0.02701264349 0) 458
(0.06945977332 0.02436916076 -2.168404345e-19) 449
(0.03811285789 0.01305238759 2.168404345e-19) 445
(0.06383767511 0.01937992529 1.084202172e-19) 448
(0.07259455943 0.07325737016 8.131516294e-20) 519
(0.04814521112 0.08049633691 5.421010862e-20) 536
(0.06662946494 0.03978406776 -4.33680869e-19) 478
(0.04516645723 0.1018656121 6.776263578e-20) 565
(0.06405924874 0.03007967988 2.168404345e-19) 458
(0.07153853125 0.0583840871 -5.421010862e-20) 499
(0.05772675204 0.02357143744 -2.168404345e-19) 457
(0.07490903336 0.03437189175 -2.168404345e-19) 469
(0.06751262303 0.05555065678 0) 498
(0.05653395614 0.03856536692 -5.421010862e-20) 477
(0.07412827336 0.041836135 2.168404345e-19) 479
(0.06047164734 0.02430789676 0) 457
(0.03735874771 0.02072967567 -2.439454888e-19) 454
(0.04257278918 0.0420315034 0) 485
(0.07497005943 0.02438293276 -2.168404345e-19) 449
(0.07350811648 0.02010478735 0) 449
(0.06828203193 0.02410356204 -4.33680869e-19) 448
(0.07326934154 0.03404302723 0) 469
(0.06706575346 0.07075179742 -3.862470239e-19) 518
(0.07054324109 0.03055623642 -1.084202172e-19) 459
(0.06200531678 0.03913146168 -2.710505431e-20) 478
(0.06884676288 0.04587582487 0) 479
(0.01975053342 0.01070798297 0) 442
(0.05401646588 0.04441271731 -2.710505431e-19) 487
(0.07369262831 0.02054523248 0) 449
(0.01959418192 0.04435662047 3.252606517e-19) 492
(0.03450263981 0.03944376443 2.168404345e-19) 484
(0.06248538761 0.05662428814 1.084202172e-19) 498
(0.07037702875 0.03116944599 2.168404345e-19) 459
(0.05802488514 0.0267919916 5.421010862e-20) 457
(0.06554326828 0.04079401815 1.084202172e-19) 478
(0.03035621654 0.02329421791 -2.168404345e-19) 463
(0.07080119885 0.01951477483 -2.168404345e-19) 449
(0.07043774231 0.04136018354 0) 479
(0.06298975103 0.1529909645 -2.168404345e-19) 638
(0.07554683034 0.03883031045 0) 469
(0.06654125372 0.05659757011 -2.744386749e-19) 498
(0.04893435074 0.02208086507 3.794707604e-19) 456
(0.04433558345 0.01225385943 0) 445
(0.0363906261 0.03149801716 2.168404345e-19) 464
(0.07298714895 0.04655486433 0) 479
(0.04802379899 0.0412525456 6.505213035e-19) 476
(0.03035932024 0.01561648809 -4.33680869e-19) 453
(0.07389287768 0.02648707442 -2.168404345e-19) 449
(0.07124116456 0.03378593415 0) 469
(0.06335350556 0.08995892811 -1.478072493e-19) 548
(0.07150568351 0.07423080518 -1.084202172e-19) 519
(0.07186519436 0.06839627874 -1.626303259e-19) 519
(0.06877986129 0.01867627936 -4.33680869e-19) 449
(0.0552296937 0.02517119171 -3.252606517e-19) 457
(0.04042542516 0.08120625756 -8.131516294e-20) 535
(0.05365339119 0.05674650651 -2.168404345e-19) 497
(0.06974299506 0.0221669005 0) 449
(0.07009044875 0.02178163761 -1.084202172e-19) 449
(0.04149066782 0.01791935626 4.33680869e-19) 445
(0.03567601494 0.01182911538 -1.084202172e-19) 444
(0.05059949841 0.09439429608 0) 556
(0.07279052661 0.04270110454 -1.084202172e-19) 479
(0.03742926319 0.06033749165 2.168404345e-19) 504
(0.07415420354 0.03502574609 -2.168404345e-19) 469
(0.06033123992 0.08619161952 -2.168404345e-19) 537
(0.0704718023 0.04958707378 1.084202172e-19) 489
(0.05211496149 0.04284981584 2.168404345e-19) 486
(0.04516143529 0.04643745837 0) 485
(0.04425655286 0.05222352575 0) 495
(0.05522925892 0.03898737052 0) 477
(0.0644627085 0.0352722615 -6.776263578e-21) 468
(0.06302553726 0.04073597198 -1.084202172e-19) 478
(0.03602645363 0.03023762931 0) 464
(0.07527597131 0.0380788225 4.33680869e-19) 469
(0.06868959911 0.06467795044 3.794707604e-19) 509
(0.002088713515 0.005393930855 1.084202172e-19) 440
(0.0577499127 0.04642179695 -1.084202172e-19) 487
(0.002992053777 0.01305934292 1.084202172e-19) 450
(0.0698378742 0.09724201567 1.355252716e-19) 559
(0.07582220358 0.06234691842 4.33680869e-19) 509
(0.04822632502 0.03268805452 -5.421010862e-20) 466
(0.04441776891 0.02278959897 2.168404345e-19) 455
(0.04058189638 0.01662433289 -1.084202172e-19) 445
(0.06874335197 0.05106756674 1.084202172e-19) 489
(0.06341970832 0.05189035936 2.168404345e-19) 488
(0.04428872857 0.04106826504 0) 485
(0.07476126631 0.1599546539 -2.168404345e-19) 639
(0.06201933035 0.02691193341 2.168404345e-19) 458
(-0.01964298812 0.03610511348 -2.168404345e-19) 97
(0.04590771549 0.01263188773 -4.065758147e-20) 446
(0.07311508519 0.03444853685 2.168404345e-19) 469
(0.03283155601 0.03345146666 2.710505431e-19) 474
(0.02600915193 0.0738531774 1.084202172e-19) 533
(0.07249367153 0.07563667688 0) 529
(0.01096911099 0.05198266556 -2.710505431e-20) 501
(0.07472719477 0.0318272245 0) 459
(0.04632988784 0.02051989112 -8.131516294e-20) 456
(0.06182798232 0.04693122333 3.252606517e-19) 488
(0.05233702264 0.01645468475 0) 446
(0.0197481769 0.01145346886 5.421010862e-20) 442
(0.06533546898 0.04882652412 -3.794707604e-19) 488
(0.03732076185 0.02138617016 2.168404345e-19) 454
(0.03552532647 0.03443020814 -3.252606517e-19) 474
(0.04176651391 0.02123586901 1.355252716e-20) 455
(0.06453908626 0.04429747127 0) 478
(0.07236895366 0.06438524782 -3.2187252e-20) 509
(0.01626547457 0.03399903384 0) 482
(0.01120889392 0.01410083915 -1.219727444e-19) 451
(0.03141372956 0.02465879788 5.421010862e-20) 464
(0.04629873706 0.02599134632 -2.168404345e-19) 456
(0.04755035399 0.01708677001 1.626303259e-19) 446
(0.0631770565 0.02520601248 -2.168404345e-19) 458
(0.05503596804 0.07305205561 -4.33680869e-19) 527
(0.04758825608 0.04121681235 1.084202172e-19) 476
(0.03620931772 0.01594060689 2.168404345e-19) 444
(0.0612771267 0.03448302467 8.131516294e-20) 468
(0.02312941804 0.01127447046 0) 443
(0.05278098919 0.0441149483 0) 486
(0.06206026086 0.04046346996 -2.168404345e-19) 478
(0.06395545686 0.01954468264 -5.421010862e-20) 448
(0.06205653046 0.01889651884 0) 448
(0.07025639103 0.04657705962 0) 479
(0.05981342959 0.02718757151 -2.168404345e-19) 457
(0.07421484415 0.03139466384 2.168404345e-19) 459
(0.06778423521 0.02853742439 3.659182332e-19) 458
(0.03499882894 0.04997512857 1.626303259e-19) 494
(0.07421162924 0.0261808466 0) 449
(0.06706580295 0.0295312699 0) 458
(0.06921384718 0.02563408052 -2.168404345e-19) 459
(0.06659735092 0.04880366267 1.084202172e-19) 488
(0.05665354448 0.02523940924 -2.168404345e-19) 457
(0.06630687522 0.03989606574 -6.505213035e-19) 478
(0.07073868854 0.03774388182 -1.084202172e-19) 469
(0.0464006134 0.03092993321 -5.421010862e-20) 466
(0.04017881184 0.01438025298 0) 445
(0.01803275063 0.01465299332 1.084202172e-19) 452
(0.03876475001 0.03537440199 -2.168404345e-19) 475
(0.06392037416 0.02639588828 5.421010862e-20) 458
(0.0297797563 0.01161314596 4.912791094e-20) 443
(0.06823822203 0.03094338896 2.168404345e-19) 458
(0.07009770792 0.03227478454 -1.084202172e-19) 459
(0.06097653558 0.06089250659 -2.168404345e-19) 508
(0.0498711096 0.02775921265 0) 466
(0.04916898715 0.03908317819 1.084202172e-19) 476
(0.07064709943 0.05763790376 -3.388131789e-20) 499
(0.0416662818 0.03354640364 -8.131516294e-20) 475
(0.06997235929 0.02296923075 -1.084202172e-19) 449
(0.05320059546 0.1052804555 4.33680869e-19) 566
(0.04476100524 0.06535905023 -5.421010862e-20) 515
(0.03458846656 0.02251966674 -4.33680869e-19) 454
(0.07375802748 0.06647908596 3.252606517e-19) 509
(0.02985889059 0.01855036921 1.084202172e-19) 453
(0.06071736754 0.02376023872 -2.168404345e-19) 457
(0.05762036997 0.01927772422 -5.421010862e-20) 447
(0.0706848889 0.06354750773 -3.794707604e-19) 509
(0.04823831435 0.04915448293 1.084202172e-19) 496
(0.04190608089 0.07464241722 0) 525
(0.04622470045 0.03481295217 -2.710505431e-20) 476
(0.0707312206 0.1228034446 -1.084202172e-19) 589
(0.06975822139 0.04106279112 4.065758147e-20) 479
(0.02665955763 0.02242873294 1.363723045e-19) 463
(0.06972567149 0.03835274416 0) 469
(0.03275874027 0.05178173855 2.168404345e-19) 494
(0.07181410576 0.06309869109 -1.626303259e-19) 509
(0.05559870859 0.03972771915 1.084202172e-19) 477
(0.0538580932 0.01989307707 -2.168404345e-19) 447
(0.05033274655 0.02259919221 0) 456
(0.07481467057 0.1150885863 0) 579
(0.04881945497 0.02016611833 0) 446
(0.07159576577 0.1231600599 1.084202172e-19) 589
(0.05482116271 0.0491969044 -2.439454888e-19) 487
(0.05023281114 0.05251726053 -5.421010862e-20) 496
(0.06539670648 0.05264034955 2.710505431e-19) 488
(0.04198619706 0.0113707162 0) 445
(0.05150511227 0.02164035326 -2.168404345e-19) 456
(0.07248106177 0.04874901806 0) 489
(0.07229757146 0.04349346328 -2.032879073e-20) 479
(0.04080444883 0.01893392476 -3.252606517e-19) 455
(0.06009947702 0.02064948057 -2.168404345e-19) 447
(0.04046386308 0.02557558334 3.252606517e-19) 465
(0.06902759586 0.0294627611 4.878909776e-19) 459
(0.05396922747 0.02285385026 -5.421010862e-20) 457
(0.05950891492 0.01851374028 -1.084202172e-19) 447
(0.07278047685 0.03976685679 -1.626303259e-19) 469
(0.05301119084 0.01477221884 2.168404345e-19) 446
(0.06966489283 0.03144598439 0) 459
(0.06478710061 0.07136771218 -4.743384505e-20) 518
(0.06049603989 0.04040714148 1.084202172e-19) 477
(0.03948076982 0.01793679119 4.33680869e-19) 455
(0.05269098617 0.09126994076 -2.168404345e-19) 546
(0.05205770107 0.0300545465 -2.168404345e-19) 466
(0.05269857273 0.08119268705 -2.168404345e-19) 536
(0.07257762744 0.1227026815 -1.084202172e-19) 589
(0.01700804741 0.06549975385 -2.846030703e-19) 522
(0.02271804679 0.007272561636 0) 442
(0.020763874 0.02975169662 1.084202172e-19) 472
(0.0688347788 0.0209057486 0) 449
(0.04134011029 0.01306998885 0) 445
(0.04947922213 0.04427387111 -3.388131789e-20) 486
(0.02261535724 0.05303830049 -1.626303259e-19) 502
(0.06366573192 0.03365195105 2.168404345e-19) 468
(0.0590645458 0.1245450408 1.084202172e-19) 597
(0.06528085896 0.05929771254 2.168404345e-19) 498
(0.02941821556 0.03270471124 -1.084202172e-19) 473
(0.03640637856 0.02050974423 2.710505431e-20) 454
(0.0590695039 0.02708336925 -2.168404345e-19) 457
(0.03939671285 0.04152529696 1.084202172e-19) 485
(0.05394127594 0.03897701206 2.168404345e-19) 477
(0.05191720632 0.01789726654 2.168404345e-19) 446
(0.06401636381 0.01762567017 2.168404345e-19) 448
(0.06547036846 0.02241253975 -1.084202172e-19) 448
(0.07109033186 0.0391062839 1.084202172e-19) 469
(0.07101125452 0.038287863 3.252606517e-19) 469
(0.07200241957 0.0725282595 -4.065758147e-19) 519
(0.05975803924 0.07191614648 2.168404345e-19) 517
(-0.01164708869 0.1030436616 2.168404345e-19) 278
(0.06830204992 0.1372869987 0) 608
(0.05521693947 0.06489083095 0) 517
(0.06291587248 0.03158257877 -4.33680869e-19) 468
(0.07558980851 0.03652119196 -1.084202172e-19) 469
(0.008780547851 0.004795685054 -3.252606517e-19) 441
(0.05068203476 0.04154026306 -2.168404345e-19) 476
(0.0202467822 0.03036974973 1.084202172e-19) 472
(0.02245366926 0.01970879768 2.168404345e-19) 452
(0.05502086985 0.01493380593 4.33680869e-19) 447
(0.03500768243 0.01213925737 0) 444
(0.07128087961 0.05952167823 1.626303259e-19) 499
(0.03722980353 0.04362700674 -4.33680869e-19) 484
(0.06456732823 0.04410209916 2.168404345e-19) 478
(0.07007335655 0.05418383118 0) 499
(0.06097350869 0.02923686456 4.33680869e-19) 458
(0.06173917791 0.05911241102 0) 508
(0.07113801566 0.02958134541 0) 459
(0.07244532978 0.07441652179 3.184843882e-19) 519
(0.07086552957 0.02442665292 1.626303259e-19) 449
(0.06168063781 0.02090254244 0) 448
(0.05820887356 0.05874628794 0) 507
(0.03043757862 0.06160061862 3.252606517e-19) 513
(0.06713007499 0.0620732897 -4.33680869e-19) 508
(0.06464252668 0.04291581737 -5.421010862e-20) 478
(0.05765069494 0.06244997218 -4.33680869e-19) 507
(0.04217237213 0.1245835151 -3.252606517e-19) 595
(0.06480016341 0.1139978368 -3.625301014e-19) 578
(0.07553013572 0.1493221622 2.710505431e-20) 629
(0.07136728411 0.04391304664 0) 479
(0.06819951312 0.02140494215 0) 448
(0.04128749449 0.02399643315 0) 455
(0.07439743297 0.04955543694 -4.33680869e-19) 489
(-0.0009043559671 0.04904613867 2.168404345e-19) 139
(0.05364163065 0.1060004189 -2.168404345e-19) 567
(0.06543778954 0.04902534346 -1.355252716e-19) 488
(0.0169150557 0.02909899713 0) 472
(0.03339141476 0.04624341975 -4.33680869e-19) 494
(0.05807453158 0.03209715891 3.252606517e-19) 467
(0.06207553841 0.03515262941 -5.421010862e-20) 468
(0.06746191604 0.03119418547 -2.168404345e-19) 458
(0.06131738745 0.06970528564 3.794707604e-19) 518
(0.07477167468 0.0435529026 -2.168404345e-19) 479
(0.03787195587 0.02579474943 0) 464
(0.07400245854 0.08283487636 -1.084202172e-19) 529
(0.05870994865 0.0621535867 -1.084202172e-19) 507
(0.05958378789 0.1119661223 2.168404345e-19) 577
(0.04771532793 0.1098774363 -1.219727444e-19) 576
(0.03659610742 0.1313382173 0) 604
(0.0600152889 0.152321158 0) 637
(0.05003360575 0.1385476284 -2.710505431e-20) 616
(0.04665385345 0.03545411922 1.084202172e-19) 476
(0.03039533192 0.01534836441 4.33680869e-19) 443
(0.05459574781 0.02090676142 3.523657061e-19) 447
(0.07049085408 0.04764727601 -2.168404345e-19) 489
(0.0652097734 0.03817104596 -3.523657061e-19) 468
(0.03947584002 0.012099132 1.897353802e-19) 445
(0.01195223124 0.005197642256 2.168404345e-19) 441
(0.07379739539 0.06551858666 1.084202172e-19) 509
(0.05331146336 0.05566530853 0) 496
(0.04344884487 0.02284889734 -2.168404345e-19) 455
(0.0703695357 0.06853835542 -2.168404345e-19) 519
(0.02184534731 0.0200378952 -4.33680869e-19) 452
(0.0684675188 0.07855512084 4.33680869e-19) 528
(0.05635081019 0.02678848963 -2.981555974e-19) 457
(0.01648679964 0.01347597326 1.626303259e-19) 452
(0.06288558863 0.04304063955 0) 478
(0.0227579634 0.01405399742 0) 452
(0.07337611965 0.0800126179 0) 529
(0.02578859429 0.01031353438 -1.626303259e-19) 443
(0.06271165169 0.05500701989 1.084202172e-19) 498
(0.01783804733 0.01189626933 0) 442
(0.04765492651 0.08074646724 -1.084202172e-19) 536
(0.07379137911 0.08228475026 3.252606517e-19) 529
(0.06078671573 0.05536356357 0) 497
(0.05227524143 0.06970280187 0) 516
(0.05468720516 0.09492375618 1.626303259e-19) 557
(0.05666792004 0.119700202 0) 587
(0.03462031764 0.1390649923 5.421010862e-20) 614
(0.07074734669 0.08126247072 -1.084202172e-19) 529
(0.03036039181 0.01576980579 2.168404345e-19) 453
(0.0389031442 0.02692774083 -2.168404345e-19) 465
(0.04159211193 0.01353037221 8.131516294e-20) 445
(0.04775866683 0.06683152088 -5.421010862e-20) 516
(0.06124838342 0.0846214311 -1.084202172e-19) 538
(0.04571102373 0.01619372865 0) 445
(0.0585055514 0.03601051586 0) 467
(0.0664336549 0.02745173896 0) 458
(0.07099291832 0.03834295789 2.168404345e-19) 469
(0.06854439817 0.05716495331 4.33680869e-19) 498
(0.02326364492 0.02781775175 -2.168404345e-19) 463
(0.01141554236 0.005266676715 -3.786237274e-19) 441
(0.06596108812 0.0370037567 -4.33680869e-19) 468
(0.03942611414 0.01320556513 0) 445
(0.04376549712 0.02397104875 2.168404345e-19) 455
(0.07534410667 0.06795308644 0) 509
(0.04930051973 0.01889497205 0) 446
(0.03128934432 0.01757246121 0) 454
(0.0527372084 0.07293604766 0) 526
(0.06916426776 0.09636071454 -2.168404345e-19) 559
(0.06954761082 0.1275010266 -4.33680869e-19) 599
(0.07453735165 0.1359710522 2.168404345e-19) 609
(0.06865842959 0.09746353056 -2.168404345e-19) 559
(0.073494938 0.1373657491 2.168404345e-19) 609
(0.02245438108 0.130386396 0) 602
(0.0669210284 0.1228354838 0) 588
(0.07205808291 0.02378034831 -1.626303259e-19) 449
(0.0507469643 0.0308748272 2.168404345e-19) 466
(0.05794373615 0.02532303612 0) 457
(0.0294856151 0.04909122272 -2.168404345e-19) 493
(0.02497138149 0.007365910451 -1.084202172e-19) 443
(0.06097436974 0.02430225604 -4.33680869e-19) 458
(0.02839122384 0.04138178957 2.168404345e-19) 483
(0.05919190953 0.06735740732 2.168404345e-19) 517
(0.05735403655 0.0232549 0) 457
(0.02807105437 0.02535653223 -5.421010862e-20) 463
(0.05812583392 0.02788397991 -1.084202172e-19) 457
(0.041342744 0.0705372814 5.421010862e-20) 525
(-0.00389514115 0.0169299082 8.131516294e-20) 59
(0.06053255016 0.05019869378 2.168404345e-19) 487
(0.03438617876 0.02265713914 -5.149960319e-19) 454
(-0.004161072417 0.02697760959 1.355252716e-19) 79
(0.06267601617 0.08661948168 0) 538
(0.03209032421 0.01286976471 4.878909776e-19) 444
(0.05573987239 0.06172672557 -5.421010862e-20) 507
(0.05814654317 0.09211916281 2.168404345e-19) 547
(0.07005523055 0.1180022433 -4.33680869e-19) 589
(0.06760398695 0.08607083012 6.505213035e-19) 538
(0.06050050366 0.04110405834 4.33680869e-19) 477
(0.06005997249 0.1399892012 -2.168404345e-19) 617
(0.06920999987 0.1366401445 0) 609
(0.06867674953 0.1125228258 0) 579
(0.05475052894 0.09789713434 2.168404345e-19) 557
(0.06322955694 0.1625258652 -2.168404345e-19) 648
(0.05966636256 0.03703787215 -2.168404345e-19) 467
(0.0516052534 0.03756790343 0) 476
(0.06531677586 0.02168862109 1.084202172e-19) 448
(0.009359580127 0.004573012407 -5.421010862e-20) 441
(0.02655071392 0.01983615715 -1.084202172e-19) 453
(0.06655807818 0.02068216545 -1.084202172e-19) 448
(0.05991028527 0.06978304015 4.33680869e-19) 517
(0.001710808921 0.01467013243 1.084202172e-19) 450
(0.0247493279 0.02500247611 -8.131516294e-20) 463
(0.06059924633 0.02317864976 0) 447
(0.06718641999 0.07182184706 0) 518
(0.01972658029 0.04360225481 4.33680869e-19) 492
(0.06260885474 0.02969339476 -2.168404345e-19) 458
(0.07105013806 0.04115727687 -1.084202172e-19) 479
(0.06894498792 0.0649246173 5.421010862e-20) 509
(0.05967027555 0.04635734235 -2.168404345e-19) 487
(0.07498739189 0.0556367197 4.33680869e-19) 499
(0.05459057387 0.08219013272 -4.33680869e-19) 537
(0.04171768304 0.02296708744 -1.084202172e-19) 455
(0.04057600915 0.09621098281 0) 555
(0.06791264524 0.09097434824 -4.33680869e-19) 548
(0.06896985292 0.07585264012 0) 529
(0.07114810807 0.1087522571 -5.421010862e-20) 569
(0.05791765155 0.1168049872 -4.33680869e-19) 587
(0.07593260166 0.08850698408 2.168404345e-19) 539
(0.05942988328 0.1224537857 0) 597
(0.03717595037 0.08190157302 0) 534
(0.07082950245 0.1046820817 1.084202172e-19) 569
(0.0700443838 0.124043745 1.084202172e-19) 589
(0.05658019001 0.1162243906 1.084202172e-19) 587
(0.05561684307 0.1085333447 -2.168404345e-19) 577
(0.04949129557 0.1349860916 4.33680869e-19) 606
(0.07078141996 0.132614176 0) 609
(0.06359398765 0.1227160842 2.168404345e-19) 588
(0.07220694086 0.1195201726 2.710505431e-20) 589
(0.06093844453 0.1549745121 0) 637
(0.02768206949 0.009821955397 0) 443
(0.05030722679 0.07455359686 -5.421010862e-20) 526
(0.05863743232 0.02181259245 2.168404345e-19) 447
(0.07030066282 0.05923394461 4.33680869e-19) 499
(0.05040027241 0.02435975634 0) 456
(0.07151778646 0.05520942663 0) 499
(0.02954496259 0.02905795811 2.168404345e-19) 463
(0.05418884835 0.02015357443 -2.168404345e-19) 447
(0.06435233259 0.04620218016 -1.626303259e-19) 488
(0.03976383653 0.06222441333 2.168404345e-19) 515
(0.04471844618 0.02831125485 4.33680869e-19) 465
(0.05719529635 0.1187448939 3.659182332e-19) 587
(0.04307586901 0.01865693527 1.084202172e-19) 445
(0.07181075377 0.07279552881 -2.439454888e-19) 519
(0.07527192589 0.06664637466 0) 509
(0.07315659666 0.07437543372 -1.626303259e-19) 519
(0.06733093964 0.08644152629 2.168404345e-19) 538
(0.05226941613 0.1257975508 0) 596
(0.07479103946 0.138428275 -2.168404345e-19) 609
(0.05591553203 0.1084448346 2.168404345e-19) 577
(0.06571133604 0.06927355053 -1.084202172e-19) 518
(0.06643462912 0.1094901469 -2.168404345e-19) 568
(0.06256287037 0.1398964339 0) 618
(0.0646962694 0.0302857213 -2.168404345e-19) 458
(0.04813410393 0.09930163496 -1.084202172e-19) 566
(0.05644495922 0.03395728106 -2.710505431e-20) 467
(0.02171250524 0.04114663802 -2.168404345e-19) 482
(0.05424834785 0.0351077604 4.912791094e-20) 467
(0.05670018363 0.05142293353 1.626303259e-19) 497
(0.07063776195 0.04018526419 2.168404345e-19) 479
(0.02432030106 0.03192119892 -4.33680869e-19) 473
(0.05438618522 0.05910743715 -1.084202172e-19) 507
(0.05697102958 0.05570568556 0) 497
(0.04294809782 0.01285182116 4.33680869e-19) 445
(0.04375519347 0.02320747289 0) 455
(0.03926779479 0.01194599388 -1.355252716e-19) 445
(0.03778226407 0.05126458838 0) 494
(0.07127360169 0.0425836679 -2.168404345e-19) 479
(0.03210277728 0.01455463523 1.355252716e-19) 444
(0.06049102643 0.08114521422 0) 537
(0.03598357722 0.05002531045 3.252606517e-19) 494
(0.0458872324 0.06258648101 -7.453889936e-20) 506
(0.06492262989 0.02462518146 4.33680869e-19) 458
(0.0685177638 0.09834497344 2.168404345e-19) 558
(0.06607083419 0.06704777292 -1.084202172e-19) 508
(0.07092263999 0.07592868448 -2.168404345e-19) 529
(0.07357656679 0.101776942 -2.168404345e-19) 559
(0.06253691582 0.07135662519 2.168404345e-19) 518
(0.05806185539 0.1001904248 3.252606517e-19) 557
(0.05982741289 0.09942255635 4.33680869e-19) 557
(0.07548727844 0.09500329877 -2.168404345e-19) 549
(0.05513588261 0.1215204181 2.168404345e-19) 587
(0.06868386917 0.1325393217 0) 609
(0.05216818938 0.1351075852 -2.168404345e-19) 606
(0.06926711152 0.04053590711 -2.710505431e-19) 479
(0.06273198437 0.02847109231 2.168404345e-19) 458
(0.07554049674 0.03371584698 -2.168404345e-19) 459
(0.06008775314 0.1492009715 -2.168404345e-19) 627
(0.004752915864 0.003768194681 0) 440
(0.05945953195 0.06221261762 0) 507
(0.01572086352 0.008471326091 -1.626303259e-19) 442
(0.03021216516 0.01315291125 0) 443
(0.01974639877 0.02413202332 0) 462
(0.07411304577 0.04430846763 1.151964808e-19) 479
(0.06450371521 0.01746438491 -2.981555974e-19) 448
(0.05886369107 0.01639299834 -2.168404345e-19) 447
(0.04075675609 0.01810276281 -2.168404345e-19) 445
(0.06984384829 0.0435957631 -2.710505431e-20) 479
(0.05125517521 0.05458443929 0) 496
(0.02722525807 0.04986159662 2.168404345e-19) 493
(0.06833151096 0.0374647611 0) 468
(0.07530650066 0.07433626117 0) 519
(0.07458354914 0.05051584214 1.084202172e-19) 489
(0.02826379112 0.0243555637 0) 463
(0.0646492454 0.03209905547 1.490777987e-19) 468
(0.06622530236 0.08892089496 0) 548
(0.05804990081 0.05768359525 -2.168404345e-19) 497
(0.03149657551 0.06545938129 2.168404345e-19) 514
(0.04873220622 0.02818622548 -4.878909776e-19) 466
(0.06706059277 0.07777844694 -1.219727444e-19) 528
(0.04708144105 0.05034496824 1.626303259e-19) 496
(0.07013179075 0.06341885004 0) 509
(0.07010411386 0.04926583186 -2.168404345e-19) 489
(0.0440799703 0.05198929973 2.168404345e-19) 495
(0.06353470205 0.09204009005 1.626303259e-19) 548
(0.06197277631 0.0520985047 0) 498
(0.06273358907 0.06939865011 0) 518
(0.06224881732 0.1027010833 -2.168404345e-19) 568
(0.06835869802 0.09689243096 4.33680869e-19) 558
(0.04670871495 0.01706400334 1.084202172e-19) 446
(0.02250646611 0.01053695684 0) 442
(0.0575230321 0.02615962999 -5.421010862e-20) 457
(0.05589743794 0.06827853474 0) 517
(0.05320696634 0.04849438641 0) 486
(0.06444749174 0.03728842 2.168404345e-19) 468
(0.05101294301 0.04180993006 -1.084202172e-19) 476
(0.03693537002 0.01789682852 -2.168404345e-19) 454
(0.06119124609 0.023699266 4.33680869e-19) 458
(0.06702652279 0.05091378152 -2.168404345e-19) 488
(0.06520891062 0.0248844205 -2.168404345e-19) 458
(0.02274214582 0.05294504167 0) 502
(0.01842887862 0.02330280986 -5.421010862e-20) 462
(0.07617650443 0.0299667493 0) 459
(0.05900674629 0.05549528886 0) 497
(0.04971447957 0.03853043607 0) 476
(0.04983418293 0.02845997166 0) 466
(0.05691139142 0.02885072515 0) 457
(0.0707398068 0.03987625295 2.168404345e-19) 469
(0.06886261392 0.04626881038 2.168404345e-19) 479
(0.06052599294 0.05368157154 0) 497
(0.0517107258 0.03888671433 1.558540623e-19) 476
(0.04852743188 0.03759463431 1.626303259e-19) 476
(0.06922668087 0.09225767653 2.168404345e-19) 549
(0.02067830962 0.0913145793 0) 552
(0.05398877591 0.06485521067 -2.168404345e-19) 517
(0.04253921854 0.05123355058 1.626303259e-19) 495
(0.05280143511 0.06577323207 -2.168404345e-19) 516
(0.03247486092 0.068224999 -4.33680869e-19) 524
(0.03648067142 0.1322989979 0) 604
(0.04327421061 0.1539255855 0) 635
(0.06845360867 0.07427396091 4.33680869e-19) 518
(0.07469308416 0.1045396926 0) 569
(0.07138800027 0.06314890696 -1.084202172e-19) 509
(0.05331775793 0.07546931068 -4.33680869e-19) 526
(0.05064238378 0.1085886351 2.168404345e-19) 576
(0.02793721402 0.1281202723 2.473336206e-19) 603
(0.05795439616 0.1107968188 -1.084202172e-19) 577
(0.05831041231 0.1325615467 8.131516294e-20) 607
(0.05259027089 0.09869603787 2.168404345e-19) 556
(0.06792907111 0.1175281417 0) 588
(0.06024106765 0.1504559973 2.168404345e-19) 627
(0.0744520625 0.1497316777 2.168404345e-19) 629
(0.0593127933 0.1450227105 -4.33680869e-19) 627
(0.0364616554 0.03231933324 0) 474
(0.06554237667 0.03178065443 4.33680869e-19) 468
(0.06113035739 0.04104034393 2.168404345e-19) 478
(0.008707408805 0.03055816041 0) 471
(0.05783629346 0.029451006 -3.794707604e-19) 457
(0.07370128033 0.0687913559 -1.084202172e-19) 509
(0.005133420028 0.009129428016 0) 450
(0.07101054931 0.05833442162 -5.421010862e-20) 499
(0.06782247891 0.04360842894 -2.168404345e-19) 478
(0.02855967275 0.02275837801 4.33680869e-19) 463
(0.01628010444 0.01252365289 0) 452
(0.06049150755 0.02582310296 -1.084202172e-19) 457
(0.03788280293 0.06660880932 0) 514
(0.03400914221 0.04984827281 2.168404345e-19) 494
(0.04376879962 0.03851784943 0) 475
(0.0644966712 0.0210125955 -1.355252716e-20) 448
(0.009644193738 0.003644457277 0) 441
(0.05394614164 0.02353643092 0) 457
(0.05979268036 0.04991321433 0) 487
(0.06286978781 0.03816123151 2.168404345e-19) 478
(0.06273056142 0.06220426362 1.084202172e-19) 508
(0.05100770411 0.06560411903 2.168404345e-19) 516
(0.07041508679 0.02962968459 -2.710505431e-20) 459
(0.06909607679 0.07972075448 0) 529
(0.06301786729 0.04978538108 2.168404345e-19) 488
(0.03927450434 0.08823057754 2.168404345e-19) 545
(0.04986796642 0.06034971936 0) 506
(0.06085315907 0.03466398505 0) 467
(0.03720693847 0.01845061117 -2.168404345e-19) 454
(0.0720158165 0.05677178511 5.421010862e-20) 499
(0.05994702068 0.05735641318 -2.168404345e-19) 497
(0.05966591278 0.07652003041 2.168404345e-19) 527
(0.05909152881 0.1167708789 -2.168404345e-19) 587
(0.07404845926 0.1506081005 0) 629
(0.05186785652 0.1127184359 0) 576
(0.04159210512 0.1287494726 8.131516294e-20) 605
(0.05870417659 0.102490464 0) 567
(0.06568610697 0.0705657991 0) 518
(0.06041102224 0.1201533992 -2.168404345e-19) 587
(0.06466711521 0.1612012634 -1.219727444e-19) 648