/*--------------------------------*- C++ -*----------------------------------*\
| =========                 |                                                 |
| \\      /  F ield         | OpenFOAM: The Open Source CFD Toolbox           |
|  \\    /   O peration     | Version:  2406                                  |
|   \\  /    A nd           | Website:  www.openfoam.com                      |
|    \\/     M anipulation  |                                                 |
\*---------------------------------------------------------------------------*/
FoamFile
{
    version     2.0;
    format      ascii;
    arch        "LSB;label=32;scalar=64";
    class       vectorField;
    location    "0.002/lagrangian/dsmc";
    object      U;
}
// * * * * * * * * * * * * * * * * * * * * * * * * * * * * * * * * * * * * * //


6978
(
(1207.667352 435.0294611 241.9990425)
(459.261693 990.134478 -44.39675338)
(54.93122233 127.7089914 -502.742528)
(785.0465221 -326.7227611 -1248.149385)
(1248.977878 226.1133426 -360.95498)
(-201.2584121 803.8385073 -318.6877651)
(1289.031764 -506.3580808 -320.0126257)
(533.5572577 417.8271265 -563.9822123)
(207.5737614 17.13967888 79.84772161)
(1101.828384 85.48010055 671.2796513)
(-551.8665977 -121.326118 -284.8514132)
(132.3436733 -254.6756887 -553.3705735)
(1265.217103 505.06226 250.6187646)
(910.6026307 1114.746765 -31.8553817)
(851.6306973 -212.9645651 239.9886947)
(-695.0957356 152.334185 518.9538772)
(57.82451951 -1.25679877 -1117.414086)
(666.1733678 677.7560126 152.0529173)
(368.9663346 639.3883198 340.148816)
(598.1132754 784.835536 762.386172)
(1547.853808 312.9621577 193.9607246)
(1417.439973 496.2940172 586.9780163)
(-220.9447292 152.1727512 -63.22016898)
(1005.462159 1.703521135 -257.393182)
(1258.876984 279.4826366 932.985326)
(129.7710816 252.4321613 232.7788284)
(847.9277021 285.3285796 -552.9304398)
(664.6729697 -332.6695411 245.4637746)
(430.5342165 1232.346414 298.9533627)
(21.65292256 1222.558054 152.714103)
(351.8034278 1798.510731 -106.8411682)
(-118.9435833 662.4904856 -100.1222024)
(-561.8888 -333.6549665 -686.2197184)
(-383.6921943 440.3521332 295.2242685)
(91.73560088 539.2267816 449.8798392)
(270.7839724 874.3912969 -377.4871316)
(1220.040748 664.3679053 792.3654188)
(1002.367211 112.7702236 73.36689633)
(309.5444238 122.6181728 -913.6208384)
(984.6303299 -885.4100711 123.6089151)
(649.6335054 -219.7091171 -780.9203849)
(640.0658326 -62.30737066 -572.9896462)
(316.1908779 -490.4725999 -320.0156514)
(757.3721183 427.7866766 -767.3822614)
(289.7676521 -25.68267083 -856.7412219)
(873.915082 242.2106764 -552.621159)
(594.49301 239.1122832 259.443405)
(61.06464703 1035.595595 -688.7058268)
(156.5577944 203.9175245 685.9348766)
(725.6449518 1595.765775 264.9022518)
(458.0937161 -199.5243343 98.26741908)
(-48.74666899 98.65719832 21.0620805)
(966.8962005 727.3445362 -849.3064136)
(787.4596516 297.0403694 -162.428432)
(692.932729 359.7961243 -549.4609047)
(1931.646622 150.3191292 -149.7411663)
(1688.941661 467.1542143 -402.5912962)
(816.4074115 135.8278667 -138.8342943)
(1070.33675 979.1349663 -75.5057342)
(-244.6883324 709.6250531 -484.3083042)
(1461.562171 398.4617403 -36.68485288)
(-425.6323456 618.6923708 -20.37420598)
(778.3091402 580.4880786 397.241647)
(-173.1399413 -29.86876581 261.1726564)
(69.12300182 414.9366184 1278.145676)
(250.4621016 -186.88305 -224.2631686)
(-569.259644 98.36743636 145.1140627)
(325.7151559 826.8239919 485.6772152)
(948.6591036 662.946067 -224.1467495)
(1209.992275 301.5149261 -867.7233777)
(449.6220684 142.1551667 -520.4462157)
(54.68513082 1039.56143 -259.9856034)
(340.4543431 64.59677465 -247.4999033)
(150.4768061 -347.9706021 3.850924787)
(395.2707195 -977.093193 -145.4828245)
(1246.597257 -99.27086278 -228.1732339)
(1652.895822 302.9972804 386.6624756)
(-600.0256566 1212.640318 -558.0631382)
(1053.008917 -63.48127349 73.33683599)
(1799.020773 998.5030102 124.7065199)
(1557.334123 387.4885802 109.9280807)
(-538.1181092 198.7049607 123.4576476)
(1630.471102 -654.0149903 374.7768891)
(860.1134611 428.0866943 314.0052397)
(59.20352371 -217.6480456 -157.1191993)
(351.8317964 825.7421483 -654.998896)
(177.3962479 449.773706 -31.05183395)
(970.0883257 -43.84862273 -1012.320681)
(1187.955105 -505.7064354 660.7709895)
(869.8311609 902.5722412 -227.5128952)
(222.9241625 184.5528863 -467.7221545)
(697.4144596 -402.5158432 -408.3241643)
(1497.144867 628.2546476 822.6650972)
(980.8333855 -645.6492346 207.1504185)
(-398.8182381 451.6609768 -144.7007279)
(1952.547753 743.2881693 727.113469)
(904.2733897 -91.5795613 173.9021032)
(-580.4363658 825.2835311 -432.4097254)
(1278.826979 -399.3603296 -346.8701474)
(1242.539861 223.8387332 -480.1187572)
(337.0334188 1435.442672 54.41202767)
(493.1180506 604.8540798 -824.6005294)
(1109.563871 505.8133086 -105.4987051)
(280.2342838 645.0812556 428.6106835)
(-596.417111 489.5713209 -435.9748713)
(635.1581568 293.0301376 -817.8748668)
(592.0458075 146.0051152 -462.3037131)
(66.21652299 -435.6372418 -62.35949346)
(106.8908526 113.2740227 263.5330866)
(2143.560768 -41.9474234 338.1111648)
(1612.746919 -25.0859672 -42.08353337)
(1705.093192 369.9024257 1073.372701)
(399.2220336 810.7459759 202.2651408)
(-241.4775147 -498.3920997 -336.287675)
(-71.17408619 171.4952112 -340.1929841)
(385.058446 360.2775539 -670.8802664)
(2572.703661 125.2037372 -154.0033095)
(605.2152482 181.1745117 -449.6079613)
(119.3361715 385.9553783 570.404555)
(456.637383 218.9119708 7.454464904)
(1116.205509 -659.2184763 88.06992189)
(316.4696657 -673.9446249 -203.5555929)
(477.1690647 273.203093 -164.5221143)
(567.333884 162.8344181 341.5866485)
(838.6820988 639.6350097 -88.62076073)
(513.4952854 798.1366627 505.8263929)
(1667.659512 64.81829035 -221.6470486)
(17.3509047 120.6150799 650.7029293)
(100.8074844 221.6074087 168.8464182)
(164.8691476 358.7484879 342.4611199)
(655.1476147 -123.3866911 -13.56742648)
(1905.004541 615.463297 -116.9104098)
(980.3112682 -249.6436584 488.872378)
(946.9996243 -5.78947905 256.8312449)
(946.7129864 923.7118189 332.1205839)
(1252.684358 -311.9603941 -154.4445487)
(-108.5903923 202.237929 1172.305909)
(218.210392 1092.592461 86.40580305)
(264.1359233 372.6595375 286.9925599)
(1480.421228 -279.5306425 -610.0791009)
(863.3916112 1153.201513 71.80995733)
(35.5710885 373.0093868 -794.125263)
(1047.28247 -13.06913852 149.8774078)
(1714.446895 1201.971247 -207.6046112)
(-293.352618 505.5810495 -512.8247538)
(-689.2897196 514.1759503 252.5405725)
(-293.144908 26.68297017 -34.45388548)
(1179.942875 -609.3760094 -43.39831513)
(409.5961889 -95.13006745 1579.45781)
(585.246097 831.7704562 150.5993455)
(2230.951549 1030.711966 655.2915411)
(1217.928322 391.474594 -935.8419891)
(339.1459111 144.7250142 -485.2657795)
(-10.13576458 447.0353918 383.1310281)
(1331.165026 462.7282428 236.1785109)
(-380.1084644 672.9457561 126.7339756)
(378.4975423 328.1434574 -415.4231442)
(1295.702853 1035.633043 219.8297398)
(537.8714491 14.43870137 -955.3403877)
(566.221409 -123.9004006 -969.0652374)
(882.8131813 -117.5705238 -1107.281868)
(-154.1659688 224.3922995 -311.4580068)
(-118.8057677 913.99864 -33.83750237)
(1021.287228 -250.6149039 -444.1419514)
(417.5860683 -98.25699808 -26.08102554)
(1211.085392 -100.2119332 -130.8613732)
(901.29527 337.7656479 -1440.699036)
(-657.3620193 -90.98882717 3.685795433)
(944.4422266 836.1676387 126.6646144)
(189.8057522 -402.9082808 -254.9037597)
(-316.6025202 370.2734076 -303.6586554)
(714.2151526 1270.997962 91.15123222)
(95.53623026 243.0151267 147.0463765)
(1511.863036 1129.489722 -689.2522611)
(214.7276904 344.7049468 -646.5115227)
(431.5307525 482.1802431 326.1820798)
(961.4361619 434.5714416 -326.7706142)
(783.3954646 -341.4535467 -232.4599243)
(790.0368042 -188.0151934 622.0352639)
(729.6799989 -543.3682229 98.50079618)
(515.9346236 168.3635533 68.89147949)
(708.4977196 395.9234946 -462.209056)
(49.55421255 -462.7305502 502.7607431)
(429.8389968 477.3645871 -772.5945115)
(465.8490479 1240.98659 760.3909629)
(509.2494229 -262.8813244 570.0992158)
(866.4654026 287.0466494 -413.9052729)
(167.833701 150.2406556 -79.45502816)
(768.3318742 844.6784758 -43.01621513)
(982.6752599 955.0700931 -137.3967014)
(-420.6885285 -180.2568176 -326.1941189)
(884.5126215 528.4393942 -108.2637638)
(367.0920607 273.9872227 285.5024097)
(788.8813919 545.4607318 -221.1357069)
(1125.044246 -192.8723107 130.6095901)
(549.0286414 8.002900966 -80.42995161)
(1223.295264 129.0406675 -453.7150067)
(746.2488118 -267.5712695 828.1940028)
(1391.790082 -309.1888312 -448.7018911)
(-14.52105241 717.1457266 -386.2647014)
(804.4003342 178.1730512 49.83243357)
(-487.0501129 786.5511044 -296.3617842)
(326.2178965 165.5152236 164.6405547)
(1331.579285 366.514498 50.43951153)
(294.8116386 197.9722541 112.4483351)
(199.419652 -222.1731536 1161.202861)
(631.9042927 666.4903878 -102.3912145)
(1273.105915 946.2730095 -553.5818556)
(1505.891734 186.7611126 -684.1140247)
(33.29085979 452.5796305 87.9839402)
(1837.436461 532.6365867 74.95270885)
(1058.383307 479.8137697 685.0617474)
(2202.311975 -8.401768979 17.98401015)
(66.02337459 262.1526847 197.4904325)
(434.6430271 794.793216 325.4891934)
(311.9155653 95.41380179 -1242.409298)
(622.4703872 311.2129636 -196.9485418)
(1921.901061 273.7799476 -355.6204496)
(1184.14721 1044.194249 330.0353829)
(1016.955445 -29.63224107 -286.878779)
(125.9157562 843.8774128 131.3549802)
(955.8092825 890.3017305 353.3935878)
(1837.422088 244.6720136 -569.6615587)
(1382.60995 81.98311835 -93.57041033)
(184.6041842 842.6044919 590.8891954)
(2087.252116 111.5350375 550.2553673)
(1121.85519 953.8623863 -853.8173539)
(501.7792742 798.3519243 -88.62914954)
(877.8956726 922.4713876 -339.310504)
(686.3608163 1221.172967 -939.222003)
(1794.532512 526.2548375 -889.1821802)
(997.435932 213.467259 -624.0179346)
(132.2542747 999.9578299 10.41202599)
(2224.705457 1087.19018 386.7093099)
(841.1460903 410.5288855 111.858546)
(-119.201058 466.9868693 -137.5444216)
(-123.0745363 424.6728568 -459.7120334)
(510.0385931 -71.09437556 584.1531794)
(697.8245512 947.8849218 -590.8576097)
(616.6114309 63.98184162 345.8447286)
(2048.603107 317.5383101 326.3068156)
(833.1200807 1226.113996 263.5044122)
(418.6706104 364.3959934 -370.3463099)
(881.9051085 133.169856 23.18479249)
(-43.29056265 196.4001452 341.3470215)
(454.4868311 -499.6462048 596.9470801)
(345.094805 1250.123516 -85.95952149)
(1036.439306 879.6728496 -634.653451)
(-580.2954439 214.5657012 -885.8028625)
(-380.9960291 58.75689966 -469.6465819)
(670.9373925 -645.7407537 -94.04673006)
(738.3451696 -313.4046472 643.4108173)
(1697.01772 -64.1677114 500.9777401)
(-205.9240873 19.81462945 -74.9398864)
(796.7034568 734.276769 -335.5301407)
(-337.259985 -20.95133385 184.2513785)
(1219.735792 581.056309 558.3444015)
(1344.129358 512.4111159 -703.1437121)
(442.2240989 644.4034467 -63.96443477)
(-395.1410177 354.2074233 294.9120147)
(949.9245394 1253.250288 -945.3250033)
(-836.7513507 523.030371 -389.7936204)
(308.7518555 1507.861242 -222.4769282)
(675.5033072 523.8361217 -573.76745)
(1843.50657 284.0588147 -941.4623769)
(475.6576304 -191.0861926 462.4530605)
(376.9912814 735.7980369 184.2553795)
(-139.9160072 293.9868679 -256.8175897)
(327.8441417 636.7950889 99.27134137)
(1505.934109 -123.4593991 285.5428604)
(1166.228254 969.3356835 457.4315003)
(762.1245381 -374.3734668 219.2668295)
(1094.95424 475.160587 -572.8580911)
(817.002284 -656.6567803 251.3365633)
(-107.7875559 682.3734263 -256.7966099)
(1329.365851 405.1469579 568.8904744)
(557.0031602 153.4069819 -174.9574972)
(330.8746902 755.9544656 86.42047991)
(762.7978267 520.3630191 -434.6340414)
(1832.521304 132.3092427 -288.6786311)
(354.6914453 -415.8874574 -599.8357097)
(321.00857 229.2352664 445.5122781)
(969.6215734 -210.8991077 -207.3052645)
(1143.230177 600.2517423 831.2132165)
(1495.171489 -157.0645899 478.7176336)
(1810.137709 -469.1474062 -418.7622652)
(-807.2571086 -68.8830323 144.5349092)
(1669.685267 -158.3663097 -109.3406126)
(653.5808452 105.9698574 -1498.974478)
(888.5183233 594.2987881 851.8380956)
(1617.462983 311.7650934 419.2546359)
(402.2951199 -390.694673 288.3387035)
(481.5638039 641.1764223 569.2990268)
(354.0594497 543.017382 495.7024316)
(1831.229856 897.2082027 63.37590133)
(750.7439962 113.2195218 -625.8516107)
(-22.42679349 -381.290224 -982.2517284)
(957.7168573 832.9230097 -425.2306623)
(1637.580093 394.0520307 -52.73664298)
(482.9764733 990.7182182 348.1477277)
(1564.703044 -101.5156857 -663.5433963)
(88.50492786 840.5425221 837.2091623)
(1393.538238 406.7977102 -104.9789993)
(765.7563886 257.9461629 249.3613241)
(1121.189142 959.5935066 -1029.15379)
(-262.1029501 128.2329865 145.1002555)
(178.2338217 -241.2810107 -50.80525544)
(202.8271251 990.957369 797.9862658)
(983.4617525 -432.7297185 234.7830876)
(813.570479 300.8017397 266.6283533)
(601.189956 881.6281353 383.2318228)
(2015.806778 -232.7475272 -31.645653)
(1832.286889 -151.4978465 -475.8841483)
(1453.644884 163.5049249 -269.6781826)
(2334.672192 442.3041704 49.09918644)
(1325.600538 -340.9025858 -868.0634004)
(-340.4868867 927.110356 446.5296398)
(1645.320625 626.820565 -808.9672701)
(1639.207378 453.7938633 185.176492)
(-262.9531111 1067.527784 454.0382973)
(1539.041256 -5.057828442 224.6707266)
(853.431714 335.6792207 -440.5130833)
(390.8692636 398.6580162 -37.56301283)
(1570.592276 1164.169312 -991.6905847)
(218.9498114 287.275268 -692.9587765)
(1803.450997 -209.6638765 632.693683)
(986.1190834 -215.1092992 -88.29245575)
(1384.166025 1192.815018 -249.9720125)
(1623.960823 626.7967621 72.3374282)
(1445.250771 -376.8288478 -835.0433555)
(1647.243551 -197.8540562 -164.0413767)
(1703.310179 -385.6178915 -319.878329)
(2021.941016 -17.177202 100.006431)
(1625.811143 168.8962263 -5.743641611)
(1690.092953 -286.1662214 584.8212566)
(1799.191045 -253.3280222 -101.5978614)
(1683.866412 -107.210618 -189.2835655)
(1838.027126 -46.21519167 462.5808447)
(980.5568732 515.6151438 -1845.612355)
(-291.0934728 760.3660805 746.9017022)
(1031.467127 285.3774542 -43.26460952)
(-508.7090487 1016.789756 330.5031519)
(833.3848582 435.5706787 74.61073318)
(667.3506435 304.6183534 -175.437879)
(2096.936917 728.1168637 -203.386705)
(379.872618 -184.551158 101.3395217)
(1417.503383 344.3419352 -260.7576411)
(707.7589808 615.4276711 454.7824403)
(-487.389357 711.3876326 -146.2774234)
(1091.001265 766.2472622 766.6548608)
(1198.752328 1000.402396 474.0012163)
(796.1074711 88.90930195 1441.623338)
(595.5363108 298.1578093 -141.4924811)
(977.1854031 409.27045 243.4316032)
(1569.11158 334.2909714 -19.63916266)
(1292.325738 -271.9547395 -635.748352)
(705.7006153 264.3487028 -349.5916868)
(625.8759333 309.3340337 -216.2360173)
(1316.282411 172.2681404 -65.67334761)
(1539.799653 -4.307319132 478.2129006)
(-130.4744 896.3891823 671.7053175)
(793.0989361 378.052619 -513.3893655)
(1435.408659 667.580091 -636.7013981)
(1377.622755 40.52358982 -209.1704773)
(956.6864549 167.5876264 612.1742696)
(1516.231912 295.057656 -492.0275229)
(165.7246645 257.8777739 748.3323241)
(739.7354643 -355.2433894 -398.0152728)
(749.1110196 504.30631 -38.07890858)
(985.8559704 1664.164524 -901.7684208)
(1370.217819 569.2159257 -447.8192673)
(349.9852775 -119.4001133 -179.2463488)
(495.8836821 452.1543281 -654.9141567)
(1413.032803 217.7593139 -241.8504168)
(790.5449251 439.6451054 891.4877384)
(836.1709946 1030.688554 175.0251428)
(203.5449754 930.0783796 245.8557259)
(-970.1222493 440.7612037 285.8465214)
(1143.920717 1294.181174 366.5314927)
(600.6311983 -782.9970424 466.4552867)
(-778.5171738 458.7653993 -439.5771438)
(1393.144763 -145.3936298 413.6719129)
(1339.925792 -47.69689972 228.7038873)
(15.00801923 516.4882931 -4.903722451)
(1099.937228 208.012393 59.6357485)
(1726.313822 -132.8848895 -212.4229319)
(1450.670865 188.9923286 215.9706428)
(1112.795224 72.93280568 -526.319559)
(1406.380625 68.59014191 -184.2414903)
(1313.010231 243.5526129 -23.45547496)
(-845.9977368 713.80716 584.027248)
(879.2645522 322.3624789 -727.8763298)
(397.8370711 194.221319 -427.0617701)
(806.2429761 1104.421279 546.1589885)
(863.3647429 -268.1244974 -519.9964796)
(704.1898002 502.0567403 -996.0955736)
(131.3188749 167.0071601 -21.39410555)
(273.2129374 385.1016777 -257.7610117)
(1233.021433 1174.414594 316.2077648)
(626.5657551 663.7684735 -295.3785226)
(1459.371371 -364.5821993 105.8621552)
(1120.874083 -475.4338575 -409.3387628)
(1039.260635 -118.4066776 -265.1499445)
(795.2632938 865.5444435 -505.9348183)
(-69.62361645 -276.1950145 426.8234203)
(1629.133771 -302.1000114 584.4872243)
(-170.4776659 893.552527 -249.4997693)
(1190.048527 -585.1686201 -338.0405282)
(1352.232111 75.60580914 569.9083924)
(1063.612699 282.715207 -375.2547359)
(1871.280056 613.6146829 -385.8819318)
(354.0327867 93.06564921 874.5462811)
(1488.113864 90.45703327 238.4401244)
(1420.199143 -197.5589934 -161.0493887)
(1532.140034 -164.733647 486.478831)
(1246.040842 -129.9748373 -307.8025931)
(1702.436724 109.2235002 -165.7536983)
(726.5388952 516.5214037 554.6401263)
(1294.295132 -444.3373793 -237.1135443)
(1586.083499 338.2472722 -237.4040014)
(1954.408849 -104.1654449 366.5571537)
(805.4867345 149.5123855 -762.2407086)
(679.5019812 139.6701875 239.9027778)
(-391.5003817 193.7561073 307.5158714)
(290.9884155 -77.48905137 234.8630384)
(-624.2236084 216.7031341 -783.4316864)
(503.0973427 780.4672436 -828.5122467)
(63.40118259 574.3481711 -814.2594863)
(1174.285144 531.6592727 -262.1158095)
(685.4592619 792.6819548 117.286788)
(1078.390393 844.541836 -68.27075154)
(290.4056812 1303.099052 1438.974163)
(1096.106515 676.7090983 -340.4808709)
(1021.233703 534.2729153 629.881624)
(819.3493085 1166.077717 -62.98005157)
(897.1434223 227.6821312 905.8722178)
(665.7027871 788.7393318 -654.1240397)
(623.1770775 612.7360029 783.3550696)
(1171.674061 922.3091321 -505.2110713)
(1627.749639 695.0774832 293.3128716)
(2023.671533 -313.7423746 188.4217561)
(1406.925651 210.9475013 427.6082114)
(1153.088323 759.1936148 -990.9549677)
(1546.477832 -123.4429802 -235.4791429)
(1797.55832 406.8946295 -952.9942638)
(682.9265485 -78.8612589 -187.7004222)
(278.2875902 17.13585977 69.07356319)
(1416.499409 260.8023916 51.75386742)
(1549.494155 -724.2492329 122.4205128)
(1406.428551 -412.9117748 266.803526)
(1661.066835 249.2444664 -388.9546291)
(1165.675021 347.4333181 -222.0889157)
(1671.389094 -335.8347579 -318.5688078)
(1420.496166 47.08360971 240.8904795)
(1091.092065 151.6965227 -112.3921079)
(1594.581624 173.8244982 -572.7726396)
(224.9920452 551.578252 -208.2334711)
(271.6230285 400.2081066 215.1238412)
(-519.1015026 372.3229721 184.370351)
(1293.452941 326.0838308 -280.8336118)
(2347.190514 256.7585379 -269.5124376)
(1573.226377 159.2733194 -212.5293563)
(2244.920139 -16.99640557 -251.7858677)
(444.5280486 232.0689116 301.6346541)
(539.2554495 -110.1407433 315.8540596)
(834.9643347 230.2382083 -641.4426651)
(394.4804487 916.7236681 -581.7844912)
(1565.811272 525.7592695 295.8783681)
(298.01684 1080.455828 475.9572909)
(1462.620045 12.23724947 433.1053894)
(1949.891757 -122.988022 292.539242)
(2320.45118 352.1739139 304.202995)
(1571.739232 214.9924426 73.22545296)
(1318.044534 387.6201156 -229.986137)
(1587.442329 313.3677462 244.7789103)
(1479.127242 -187.4111875 282.3430782)
(1026.467767 -402.892502 -17.34271463)
(1747.829241 105.8793956 70.33451737)
(1677.438501 202.6344082 234.8738859)
(605.8754046 -95.7455738 -985.4374769)
(1472.201667 -341.5722585 496.0682249)
(1037.567076 205.5118251 -455.0245328)
(10.64492039 296.9830639 -530.7406468)
(2073.170054 65.11241981 443.1441661)
(1859.065525 -466.584023 -224.3378384)
(560.6484267 332.7764911 615.7130291)
(1112.044111 -304.8190913 -70.89376631)
(503.9504341 530.4528781 -285.0862624)
(1960.220884 120.1535899 -797.8648027)
(-290.2469415 500.878345 263.4072035)
(1058.764715 528.5787794 1366.795632)
(-54.91285959 126.9199635 11.84819918)
(493.5501826 904.2939075 234.5257276)
(570.1568327 145.5623947 -805.0732277)
(315.7672049 983.5158185 329.3127574)
(1328.537892 -482.6822224 -315.6335756)
(1906.133901 -175.9771215 -334.3665165)
(789.328296 -190.6284262 -1367.318244)
(575.6415855 269.8373255 -356.4166224)
(1851.305927 513.0227312 -1392.799647)
(2063.122416 -79.12806995 356.1990728)
(1553.764103 -68.78628289 267.7768344)
(1097.322896 57.04303221 -402.0709523)
(1359.86707 68.98135609 -571.1082488)
(1658.270138 279.2030654 133.674654)
(1473.025844 -533.4476097 -82.0038432)
(1319.744376 -294.5412312 370.9278632)
(1131.043595 -96.21931022 509.0459259)
(1407.789848 -203.0263539 16.70977919)
(1687.091101 -623.1650547 -10.00126405)
(355.8613275 778.8020569 164.0063869)
(1317.407708 60.79191737 833.6068227)
(445.9215018 -221.8777332 -809.482949)
(1146.923469 450.6279977 365.9310144)
(1076.466178 628.0654634 -802.2389114)
(942.4350928 139.0134085 -380.9290157)
(679.9223773 265.0990512 222.2970606)
(-89.74793846 -143.4881835 -604.2108995)
(96.54759074 611.4393484 -333.4465414)
(873.2858288 571.2049909 -565.7704887)
(-378.3899275 498.6702947 54.13846899)
(77.17907777 174.3254539 482.6198507)
(393.6101165 89.6991545 347.4382369)
(1511.17876 1077.360621 183.0806793)
(1746.069298 -65.93254186 373.0444793)
(1233.479643 233.8607361 100.4910422)
(1125.784982 449.3976 -445.1515431)
(1522.892885 700.1418626 -160.0582276)
(1174.052698 728.5144576 714.1638239)
(1166.201755 -255.8242512 -367.181347)
(-501.4351443 271.5448664 -865.5608312)
(1416.383701 13.66430217 -1009.855984)
(1217.39557 329.3015947 743.9490535)
(917.6073763 278.6229128 -750.2752219)
(1426.780319 -111.4355806 974.2227247)
(1344.297905 -64.89359967 420.1434959)
(1470.097017 -256.9018441 -6.002463248)
(947.9757964 479.2598733 -67.21072744)
(172.6561804 648.1827682 -644.3022313)
(1495.328582 7.760396731 -10.06239464)
(1590.303446 123.9548616 249.3559466)
(1583.357392 426.7242723 144.1049659)
(1848.308488 -358.6866944 -275.1539359)
(1841.049949 71.56191631 188.1742505)
(1392.63153 576.1665832 207.5923943)
(998.2486975 304.5599493 230.6387732)
(-244.6128155 98.95254646 -589.5638178)
(648.2517266 -536.4075873 -346.5549564)
(595.3703393 857.8082126 -960.7694139)
(1490.050481 321.7842018 57.11301277)
(1053.53121 133.1152878 -752.6106237)
(43.99511741 266.0293015 34.41994674)
(193.1207275 470.4282507 377.2061132)
(646.0403256 254.3727718 430.4606714)
(825.461548 73.40132554 1134.975081)
(1344.193612 70.62972871 -216.6740772)
(975.2650905 -284.9840522 -493.0950865)
(162.5196937 874.1637144 370.5646427)
(971.5029441 -153.854539 890.8619576)
(1127.938584 273.685811 -227.9830623)
(1221.919652 -192.7969807 -321.4911009)
(568.0080149 807.1890382 -161.5683777)
(190.5272169 179.9655259 -897.2771902)
(1633.106016 1006.123661 -48.87821166)
(805.0607883 231.2822215 -748.2137361)
(1755.762066 100.11887 1109.878791)
(1439.445162 90.22472904 -372.3238694)
(-194.2677366 665.252443 42.11817022)
(1620.478529 210.5449352 340.462171)
(635.4320273 441.357281 -570.4794862)
(1660.922488 -273.3427048 -325.0022281)
(1414.895379 -432.2148788 -45.12727534)
(1944.122709 -10.74163769 -394.781818)
(798.7601766 1346.851059 364.9308325)
(1048.727832 432.7284635 -290.5873502)
(1382.591276 861.7631094 857.8172705)
(584.0613696 611.5857526 -214.7291404)
(1180.599917 208.2798449 -1087.014112)
(1484.907611 -303.0803719 -84.37496549)
(2387.894589 -693.9691531 -427.4143649)
(1542.758441 611.9636833 -258.518664)
(2119.422225 -213.5775123 24.06296514)
(1396.229836 -325.9012574 203.9044439)
(1461.370053 286.5779544 58.69356636)
(1492.410926 -259.2017367 -270.9365605)
(1863.294112 -28.03090617 259.7398055)
(1832.00222 -274.8738587 -137.9999285)
(1338.320202 720.9735531 -408.1779713)
(1551.629637 217.316704 194.586809)
(1287.873868 88.9885455 -783.7347392)
(219.7497671 -485.5897803 -461.8685628)
(450.9899035 731.1636662 228.5860986)
(-370.8410693 428.6817939 44.47563629)
(721.5672985 933.2293642 -352.7083324)
(1430.179539 1164.392552 1609.958661)
(-72.70884052 335.4382172 379.178167)
(1337.325332 1261.607296 -170.8548214)
(1709.432001 1030.849681 -1314.858689)
(595.6987748 339.2300732 -44.91434615)
(2058.158124 -0.05487649691 -95.91515661)
(981.7871089 -27.92700764 -993.0843657)
(647.1593141 -146.5799156 -275.1438809)
(1572.013225 588.3240818 -45.75963838)
(1311.524882 -113.3383409 61.72684377)
(969.945352 91.89904532 41.92798631)
(-86.26007642 153.8720445 -324.372447)
(634.9125489 309.9215527 -728.5715351)
(994.7603686 480.1017959 41.75828219)
(686.1739161 -127.8489513 591.8066796)
(1741.436008 6.691594633 -390.6682573)
(1766.415168 431.5131327 -8.961820207)
(156.3446765 408.9751145 -829.3330747)
(1438.880883 424.6416831 1364.422317)
(1298.994446 345.0585468 266.2009554)
(1869.031625 12.76150754 -41.23484605)
(1484.221257 -140.2125477 -137.4358937)
(2204.377808 -149.8674675 -322.3247284)
(-99.42150112 864.5599913 159.6528364)
(564.2787132 360.5225952 -36.15144873)
(734.6400576 212.9602001 657.0532416)
(1608.664677 -283.7520416 -12.32850818)
(1802.169383 -604.8095365 -424.8382829)
(1995.001597 401.0730992 -222.5847195)
(1206.799163 544.4989752 198.0631773)
(1950.709762 148.4282195 116.5868995)
(1579.438156 -80.82513512 -373.6065874)
(1733.400531 385.0235555 -817.9902587)
(1446.154641 -157.5346953 157.7418982)
(1918.442708 483.953046 170.5847668)
(1440.921163 -404.5192535 143.5864793)
(920.9279314 33.41305105 -316.3571665)
(1760.652935 -225.5845196 353.3731017)
(1342.054883 29.90731591 -85.60320038)
(1455.898729 -46.49615863 129.9799238)
(1649.637329 106.4257924 25.30904139)
(1692.191039 -205.1143017 -322.8000543)
(1476.858094 -216.6637461 334.6519231)
(1627.131727 63.74016303 392.9828934)
(1263.341417 -307.2032436 199.0447904)
(790.0603136 314.732564 -120.5401628)
(3.792617864 -365.6791824 217.9555986)
(1155.338174 373.5355547 1026.969791)
(1021.159817 318.6249459 637.3777147)
(1615.528101 438.1600568 -1348.87375)
(1694.728316 193.1263249 -17.96522517)
(713.3825198 818.4532917 129.9163235)
(1243.228607 297.3112793 -853.4901802)
(1616.68995 -0.2331307267 -49.57227733)
(552.9225205 -70.5895162 -105.6031843)
(1005.479877 307.0831025 729.5397713)
(-150.4065174 609.6436233 187.0310008)
(1361.691727 131.1791956 45.91051387)
(1351.735338 46.05386769 297.8956938)
(1662.541025 30.84288484 78.01107479)
(1746.229742 1090.671446 974.916019)
(-1017.198125 504.9840445 41.33394076)
(938.0022936 -85.5905818 11.87127932)
(600.476341 -233.9633461 -757.2452705)
(1368.76241 855.434589 -149.2856638)
(742.0529668 1426.860897 187.3595467)
(1083.589684 -844.4503029 311.8105357)
(1307.717786 105.8580772 -298.3900838)
(1187.706735 562.5831888 -233.6858543)
(1677.200884 -0.8366899196 -279.2611287)
(458.7823992 509.8642883 180.1580741)
(2446.490262 -23.08175797 -93.69931891)
(1101.245222 930.429386 324.4623852)
(234.2523567 -67.547557 301.9520303)
(1033.703907 118.8207311 559.0294324)
(597.6583421 155.4597019 -160.3274196)
(1506.546792 -254.5340559 345.0658682)
(1191.032977 -200.37244 135.9877918)
(1606.242798 50.0135535 18.78756591)
(1261.737887 573.1518609 -1082.923098)
(1521.325458 59.78193531 47.58312617)
(1302.303088 262.5984967 -226.2378842)
(1877.866187 270.9121986 428.8671948)
(1854.542618 47.6803957 -103.2133079)
(1625.745575 -381.1294353 -17.95989477)
(1645.265151 95.50287139 -217.5326735)
(958.0530208 830.8667711 86.017637)
(1631.043108 277.099389 -172.0325313)
(1594.466594 370.6922442 -551.3548579)
(1564.675414 1012.335812 1914.042948)
(1790.635407 216.2381194 70.61646333)
(1029.850727 28.36476189 118.748515)
(1241.382009 790.7465955 -436.4596573)
(2039.103321 152.4457588 -195.7391581)
(1454.285109 -127.281738 -124.9683858)
(1911.453301 -403.0761508 -229.1503433)
(1394.927619 223.653713 -29.93134616)
(1321.210404 429.172444 349.7519705)
(1569.126314 565.1124374 -343.3795303)
(1262.255589 -106.0726527 -220.4218921)
(679.0556491 -299.4311549 1136.737887)
(1048.129432 26.55039675 -405.0050134)
(-121.8740813 349.1726825 -438.8635025)
(1236.883361 -569.5192193 -302.2314305)
(673.1402454 -129.2624627 -25.18721249)
(527.1966461 925.8094765 934.4325603)
(1035.736236 720.7466906 145.6129247)
(499.8139331 405.5271766 432.1081536)
(-46.87052888 174.7413283 342.5538698)
(1836.648534 -542.1138462 166.0824453)
(1258.66967 96.5004364 -620.3996339)
(300.5630505 164.134304 393.6677041)
(1589.868088 289.7453027 -73.12459633)
(1357.523048 -25.38549434 101.7794213)
(1162.931625 172.4109847 -540.7676913)
(931.818692 -291.1255028 653.5746663)
(421.0376052 1289.612381 -691.0409126)
(1491.399131 440.736567 -479.3867033)
(-403.4052479 -52.10965472 58.74417423)
(433.0141814 -313.4208806 162.859144)
(1735.185485 -14.95431311 -280.4951733)
(1461.683792 -128.5663143 -137.6045736)
(1500.480255 -72.15590681 -412.5553109)
(2491.737275 -198.3099336 -53.1350217)
(1528.421646 -140.2827063 -446.1616078)
(1430.828439 130.0460076 438.8707002)
(1633.940655 274.9397815 -84.56758695)
(903.2405942 -344.0525231 691.5143421)
(1531.107703 -295.5807466 310.9437421)
(1894.038621 44.44851806 -154.2747453)
(1343.445522 422.5542889 268.2642264)
(934.4603959 -26.3926284 31.61446399)
(1704.045048 -450.3637881 293.0664828)
(1749.014411 -89.98392191 -80.28527464)
(1246.275464 34.79246122 229.4128561)
(1919.639746 734.3010575 -139.8946607)
(1524.905842 -684.869638 -3.48729824)
(1369.008894 262.8226443 -146.2781059)
(1282.156714 -275.3436669 -285.3802808)
(1749.517073 65.55617549 243.2994191)
(2045.005494 -608.1499759 -177.8626435)
(1768.421407 120.6739355 536.7142014)
(1636.210028 -318.7426667 40.59894348)
(1806.318167 -131.2986937 338.0688631)
(1270.694626 -2.978738243 592.291751)
(1588.43878 375.8731929 34.72194246)
(1697.756875 -278.0532822 -134.8034972)
(1379.467055 78.3416646 37.04358483)
(1693.080209 -202.9004056 89.41905336)
(1517.424398 220.0619326 -719.8412064)
(1667.060183 336.0926855 74.24341349)
(-31.11668852 -216.6530958 -252.0346398)
(1535.498387 1273.323239 104.0169418)
(1092.791581 724.9711469 101.6091904)
(263.5987122 -261.3448042 198.8027268)
(1418.942217 235.2992211 -30.1564608)
(-586.4351727 166.512607 391.6417113)
(307.4680632 148.8417169 -636.1305463)
(1305.14293 48.50153336 156.7518827)
(108.0575679 784.2027092 -605.4385399)
(863.7656574 230.0046278 -595.5654923)