/*--------------------------------*- C++ -*----------------------------------*\
| =========                 |                                                 |
| \\      /  F ield         | OpenFOAM: The Open Source CFD Toolbox           |
|  \\    /   O peration     | Version:  2406                                  |
|   \\  /    A nd           | Website:  www.openfoam.com                      |
|    \\/     M anipulation  |                                                 |
\*---------------------------------------------------------------------------*/
FoamFile
{
    version     2.0;
    format      ascii;
    arch        "LSB;label=32;scalar=64";
    class       volScalarField;
    location    "0.001";
    object      dsmcRhoNMean;
}
// * * * * * * * * * * * * * * * * * * * * * * * * * * * * * * * * * * * * * //

dimensions      [0 -3 0 0 0 0 0];

internalField   nonuniform List<scalar> 
654
(
14.726
14.986
15.178
14.944
15.07
15.016
13.21
13.442
13.752
14.242
14.498
14.824
14.726
14.85
14.796
14.782
14.942
10.616
11.024
11.17
11.45
12.016
12.524
12.904
13.26
13.52
13.79
13.87
14.202
14.168
14.052
14.06
13.94
9.186
9.44
9.428
9.636
9.654
9.744
10.038
10.144
10.37
10.67
11.062
11.418
11.878
11.974
12.124
12.5
12.986
13.284
13.236
13.674
13.596
13.462
8.922
8.894
8.762
8.822
8.962
8.722
8.964
8.788
9.074
9.178
9.374
9.422
9.506
9.57
9.732
10.066
10.156
10.35
10.51
10.508
11.26
11.506
11.892
12.316
12.328
12.546
12.71
13.52
13.56
8.798
8.702
8.628
8.634
8.494
8.378
8.7
8.862
9.19
9.206
9.074
8.99
9.194
9.232
9.188
9.344
9.228
9.234
9.484
9.756
10.104
10.25
10.452
10.544
10.846
11.538
12.084
12.388
12.164
12.756
9.01
8.954
8.798
8.972
8.972
9.068
9.068
8.764
8.792
8.838
8.928
8.866
8.828
8.898
8.562
8.512
8.654
8.894
9.328
9.404
9.426
9.724
9.892
10.588
11.056
11.194
11.476
11.696
12.114
12.338
9.068
8.934
9.164
9.022
9.078
8.902
8.734
8.708
8.344
8.106
8.334
8.368
8.432
8.426
8.822
8.864
8.854
8.726
8.602
8.786
9.318
9.516
9.632
9.686
9.908
10.246
10.512
10.854
11.126
11.332
9
9.078
9.086
8.942
8.742
8.696
8.74
8.678
8.73
8.642
8.458
8.454
8.5
8.376
8.324
8.264
8.41
8.454
8.786
8.764
8.78
8.742
9.17
9.142
9.136
9.724
9.9
10.216
10.526
10.616
8.914
8.692
8.694
8.496
8.46
8.446
8.474
8.416
8.304
8.368
8.42
8.198
8.234
8.358
8.302
8.31
8.492
8.66
8.474
8.428
8.696
8.998
9.096
9.376
9.636
9.662
10.038
10.072
10.068
10.332
8.898
8.782
8.86
8.796
8.872
8.678
8.436
8.444
8.536
8.454
8.47
8.398
8.264
8.098
8.168
8.238
8.014
8.1
8.316
8.452
8.35
8.342
8.546
8.644
8.904
8.918
9.34
9.51
9.882
10.124
9.104
8.994
8.726
8.686
8.724
8.772
8.858
8.846
8.63
8.58
8.724
8.676
8.694
8.524
8.454
8.556
8.434
8.12
8.028
7.848
7.934
7.966
8.046
8.202
8.334
8.476
8.568
8.71
8.974
9.282
8.748
8.756
8.714
8.644
8.494
8.468
8.46
8.332
8.36
8.314
8.068
8.066
8.052
8.088
8.01
7.838
7.938
7.884
7.936
8.048
8.04
8.094
7.94
7.906
8.016
8.148
8.356
8.518
8.712
8.978
9.03
8.868
8.846
8.746
8.666
8.58
8.444
8.142
7.958
7.918
7.986
8.008
7.796
7.82
7.904
7.874
7.966
7.952
7.846
7.956
7.778
7.828
8.004
8.042
8.06
8.126
8.118
8.276
8.396
8.496
8.836
8.79
8.676
8.656
8.344
8.448
8.368
8.42
8.396
8.328
8.256
8.248
8.13
8.16
8.152
8.16
8.14
8.194
7.912
7.812
7.818
7.918
7.878
7.84
7.95
8.16
8.254
8.258
8.286
8.38
8.868
8.75
8.758
8.652
8.66
8.54
8.51
8.53
8.558
8.522
8.396
8.438
8.482
8.492
8.482
8.334
8.232
7.984
8.122
8.216
8.066
8.016
7.808
7.866
7.912
7.696
7.688
7.894
7.996
8.03
9.208
9.15
9.04
8.802
8.754
8.632
8.494
8.388
8.302
8.282
8.272
8.2
8.04
8.028
7.996
8.146
8.178
8.198
8.152
8.022
7.98
7.852
7.84
7.656
7.45
7.544
7.436
7.504
7.404
7.568
9.134
8.926
9.026
8.954
8.82
8.956
8.966
8.854
8.704
8.628
8.558
8.496
8.44
8.36
8.134
8.108
7.976
7.886
7.748
7.74
7.874
7.832
7.826
7.84
7.924
7.802
7.7
7.776
7.584
7.548
8.748
8.684
8.77
8.876
8.844
8.754
8.646
8.684
8.628
8.378
8.242
8.144
8.15
8.108
8.242
8.094
7.986
7.936
7.966
7.892
7.936
7.766
7.654
7.638
7.516
7.708
7.696
7.71
7.832
7.826
8.81
8.776
8.608
8.42
8.422
8.424
8.202
8.276
8.292
8.45
8.402
8.26
8.192
8.048
7.972
7.722
7.838
7.934
7.924
7.79
7.682
7.83
7.758
7.772
7.86
7.866
7.546
7.368
7.406
7.372
8.85
8.942
8.63
8.664
8.578
8.438
8.648
8.666
8.584
8.582
8.434
8.406
8.39
8.178
8.08
8.144
7.98
7.76
7.656
7.59
7.616
7.582
7.632
7.402
7.418
7.444
7.622
7.856
7.716
7.596
9.138
9.024
9.194
9.124
9.066
8.91
8.598
8.436
8.356
8.034
7.984
7.912
7.948
8.04
8.06
8.088
8.002
8.054
7.936
7.782
7.554
7.58
7.512
7.41
7.394
7.376
7.238
7.098
7.07
7.276
8.982
8.79
8.738
8.642
8.542
8.712
8.726
8.666
8.446
8.494
8.548
8.53
8.504
8.202
8.014
7.904
7.83
7.74
7.734
7.682
7.76
7.478
7.554
7.63
7.716
7.574
7.686
7.42
7.516
7.4
8.874
8.84
8.7
8.682
8.478
8.37
8.308
8.36
8.386
8.35
8.32
8.112
7.966
7.986
7.864
8.034
7.772
7.778
7.642
7.714
7.616
7.614
7.41
7.478
7.154
7.062
7.022
7.172
7.074
7.23
)
;

boundaryField
{
    flow
    {
        type            calculated;
        value           nonuniform List<scalar> 
55
(
14.726
15.016
14.942
13.94
13.462
13.56
12.756
12.338
11.332
10.616
10.332
10.124
9.282
8.978
8.496
8.38
8.03
7.568
7.548
7.826
7.372
7.596
7.276
7.4
7.23
8.874
8.84
8.7
8.682
8.478
8.37
8.308
8.36
8.386
8.35
8.32
8.112
7.966
7.986
7.864
8.034
7.772
7.778
7.642
7.714
7.616
7.614
7.41
7.478
7.154
7.062
7.022
7.172
7.074
7.23
)
;
    }
    obstacle
    {
        type            calculated;
        value           nonuniform List<scalar> 0();
    }
    frontAndBack
    {
        type            empty;
    }
    procBoundary3to1
    {
        type            processor;
        value           nonuniform List<scalar> 
36
(
14.56
15.784
15.23
15.41
15.15
15.15
13.412
13.68
14.316
14.568
14.73
14.806
14.806
10.982
11.536
11.89
12.612
12.752
12.752
9.54
9.126
9.536
9.83
9.938
10.396
10.396
9.346
9.166
9.262
9.194
9.024
8.944
8.992
8.992
8.89
8.89
)
;
    }
    procBoundary3to2
    {
        type            processor;
        value           nonuniform List<scalar> 
19
(
8.95
8.83
9.138
9.11
8.97
9.148
9.054
8.766
9.062
8.948
9.002
9.098
9.048
8.854
8.774
8.976
8.978
9.164
8.94
)
;
    }
}


// ************************************************************************* //
