/*--------------------------------*- C++ -*----------------------------------*\
| =========                 |                                                 |
| \\      /  F ield         | OpenFOAM: The Open Source CFD Toolbox           |
|  \\    /   O peration     | Version:  2406                                  |
|   \\  /    A nd           | Website:  www.openfoam.com                      |
|    \\/     M anipulation  |                                                 |
\*---------------------------------------------------------------------------*/
FoamFile
{
    version     2.0;
    format      ascii;
    arch        "LSB;label=32;scalar=64";
    class       volScalarField;
    location    "0.001";
    object      dsmcSigmaTcRMax;
}
// * * * * * * * * * * * * * * * * * * * * * * * * * * * * * * * * * * * * * //

dimensions      [0 3 -1 0 0 0 0];

internalField   nonuniform List<scalar> 
654
(
7.295832352e-16
7.509966436e-16
7.586741795e-16
7.218760788e-16
7.000996564e-16
7.709041085e-16
7.428273327e-16
7.142555573e-16
7.103408414e-16
7.454296919e-16
7.658987871e-16
7.874333576e-16
7.579634558e-16
7.718159604e-16
7.453396717e-16
7.971564263e-16
7.151491738e-16
7.452461486e-16
8.211519486e-16
7.274762363e-16
7.168260656e-16
7.378939604e-16
7.326081626e-16
7.811076335e-16
7.985668469e-16
7.82263502e-16
6.983760456e-16
7.098846071e-16
7.805788069e-16
7.464911298e-16
7.161622094e-16
7.331868021e-16
7.234984394e-16
7.177626811e-16
6.957740343e-16
6.649023484e-16
7.162237297e-16
7.026591642e-16
7.254783891e-16
7.691987643e-16
6.525128861e-16
7.450803553e-16
7.055432435e-16
6.837591955e-16
7.445625824e-16
6.835268385e-16
6.895108883e-16
7.323103537e-16
6.890494802e-16
7.235572622e-16
7.492623145e-16
7.351909615e-16
7.355594292e-16
7.033780522e-16
7.065786335e-16
6.421564942e-16
6.040926333e-16
7.059266907e-16
6.747856256e-16
6.691191322e-16
6.768001755e-16
6.791524088e-16
6.671644677e-16
6.52266915e-16
6.698456022e-16
7.231606622e-16
6.996415059e-16
7.464369014e-16
6.884542554e-16
6.642168396e-16
6.68110085e-16
7.935106557e-16
7.901581055e-16
6.809759875e-16
7.539919121e-16
7.072252747e-16
7.327684347e-16
7.470665345e-16
7.3882987e-16
7.29934951e-16
7.069724205e-16
7.366034175e-16
6.974790107e-16
8.117885275e-16
6.847267215e-16
7.015088475e-16
6.098961799e-16
5.76230341e-16
7.631919199e-16
6.369232675e-16
6.44934479e-16
7.056736598e-16
6.770279178e-16
5.733733538e-16
7.177156746e-16
6.58833648e-16
6.877518884e-16
7.000491246e-16
6.4114811e-16
6.901871869e-16
7.560786064e-16
7.615869871e-16
6.743588365e-16
7.27098647e-16
7.929113111e-16
6.902725666e-16
7.026507266e-16
7.897886731e-16
8.523151854e-16
6.734134774e-16
7.599588348e-16
7.357514302e-16
6.949047792e-16
7.30410687e-16
7.914683143e-16
6.626793466e-16
8.668047777e-16
6.542881818e-16
6.453979404e-16
7.29028979e-16
6.400018725e-16
6.496583135e-16
6.799148827e-16
6.743692186e-16
6.8020311e-16
6.393765067e-16
6.666400245e-16
6.951244268e-16
7.261254945e-16
6.578659363e-16
7.098678054e-16
6.426015535e-16
6.858945673e-16
6.818663964e-16
6.822192356e-16
7.767173766e-16
6.810049967e-16
7.593048261e-16
7.33494922e-16
7.304518079e-16
7.011803114e-16
7.631913956e-16
7.148274527e-16
8.019041272e-16
7.301721549e-16
5.569038082e-16
6.697338044e-16
5.625437146e-16
6.478923552e-16
6.882264106e-16
7.053025808e-16
5.767830974e-16
6.807288046e-16
7.229892772e-16
7.411805916e-16
6.13118808e-16
7.220812814e-16
6.49697533e-16
6.707377053e-16
6.866526829e-16
7.969678024e-16
7.134710029e-16
6.776762883e-16
6.499018035e-16
7.052910124e-16
6.662182512e-16
7.041991088e-16
7.525162991e-16
6.722810212e-16
7.316751968e-16
7.503721456e-16
7.085215068e-16
6.974015717e-16
7.154179746e-16
5.677315819e-16
6.243577465e-16
6.472024815e-16
5.612176051e-16
5.549760815e-16
6.318280398e-16
7.300891297e-16
5.808942447e-16
5.999684931e-16
6.132001914e-16
6.561857302e-16
6.491636077e-16
6.934025594e-16
6.275294972e-16
6.750965982e-16
7.194200538e-16
7.365049067e-16
6.576791811e-16
6.937055956e-16
6.658623588e-16
6.847501333e-16
7.523515797e-16
6.620351902e-16
6.770726587e-16
6.679714592e-16
6.88021243e-16
6.981203469e-16
6.948387886e-16
7.023989045e-16
6.637896867e-16
6.062148316e-16
6.361786967e-16
6.766980366e-16
5.713761772e-16
5.993556252e-16
7.70853229e-16
5.940490866e-16
6.724468195e-16
6.559460569e-16
6.860518711e-16
6.273725942e-16
6.090176204e-16
6.980170575e-16
6.953715011e-16
6.645014795e-16
6.785117207e-16
7.746791011e-16
7.478780631e-16
7.379146488e-16
6.3357513e-16
6.464079311e-16
7.13025732e-16
7.815061775e-16
6.604535952e-16
7.163923416e-16
7.23834958e-16
7.39489884e-16
7.445798955e-16
7.31038938e-16
6.501045191e-16
5.530617898e-16
5.606964292e-16
5.537564377e-16
5.728690019e-16
6.491498822e-16
6.467945897e-16
5.672303786e-16
5.512061652e-16
6.244066054e-16
5.885492429e-16
5.98200024e-16
5.917390888e-16
5.590472288e-16
6.081677857e-16
6.003826721e-16
6.881135146e-16
7.206961021e-16
6.837680985e-16
6.433260541e-16
6.440962796e-16
6.689781837e-16
6.971587707e-16
6.606116402e-16
6.857485793e-16
7.463902278e-16
6.994040162e-16
7.013559182e-16
6.835694514e-16
6.799452089e-16
7.030897975e-16
7.099477119e-16
5.402594705e-16
5.457355817e-16
5.406651946e-16
6.93067852e-16
5.39810782e-16
5.556973823e-16
5.998767833e-16
5.840125755e-16
6.7135675e-16
7.122962357e-16
6.962133266e-16
7.195637379e-16
5.752255226e-16
6.414725762e-16
6.897340305e-16
6.548020414e-16
5.417824136e-16
5.67506597e-16
6.17296348e-16
6.949933896e-16
6.48827572e-16
6.333168872e-16
6.824007175e-16
6.670220876e-16
6.594579377e-16
7.295650041e-16
6.681722662e-16
7.489265412e-16
7.123676351e-16
5.348542473e-16
6.235346658e-16
5.881036947e-16
5.565254867e-16
7.054848047e-16
5.779308982e-16
6.554550406e-16
7.726980826e-16
5.93426915e-16
5.662131274e-16
6.845434841e-16
6.366548244e-16
6.875757447e-16
5.921029258e-16
6.149663493e-16
6.462629437e-16
6.999789529e-16
5.995979461e-16
6.054211269e-16
8.236326513e-16
7.335419105e-16
6.783658194e-16
7.231163924e-16
6.739087594e-16
6.760646815e-16
7.048522199e-16
8.058054556e-16
6.291837899e-16
7.38669856e-16
6.776828635e-16
5.560299498e-16
5.85650476e-16
5.940540728e-16
6.040470809e-16
5.879103484e-16
5.553207529e-16
5.217781996e-16
5.619359403e-16
7.237820614e-16
5.677956776e-16
6.319116947e-16
5.610640208e-16
6.145254448e-16
6.303196815e-16
6.197802124e-16
5.163857327e-16
6.612889344e-16
6.951495767e-16
6.616408712e-16
6.575109467e-16
5.62239545e-16
5.746620571e-16
6.040678445e-16
6.65557218e-16
6.646384463e-16
7.39573484e-16
6.682841497e-16
6.540634709e-16
7.212841326e-16
7.053785937e-16
5.769286731e-16
5.997650229e-16
6.499295387e-16
6.774791772e-16
6.372364555e-16
5.471496108e-16
5.702716667e-16
6.012602657e-16
6.104382379e-16
7.222934949e-16
5.663548403e-16
5.665061811e-16
6.694801556e-16
5.87691618e-16
5.506655706e-16
5.613108534e-16
7.280282386e-16
7.177127139e-16
5.647791754e-16
6.094571418e-16
6.950536367e-16
6.259997004e-16
6.081220929e-16
7.062196465e-16
6.954866839e-16
6.936337438e-16
6.74607247e-16
7.021335773e-16
7.432168175e-16
7.190056788e-16
5.609803996e-16
6.054791454e-16
5.561768687e-16
5.555220985e-16
5.476692729e-16
6.314067262e-16
5.962597124e-16
5.858372035e-16
5.858372035e-16
5.895488041e-16
6.442894632e-16
5.49901005e-16
5.989480227e-16
6.113165407e-16
5.586324599e-16
6.814193245e-16
5.679805033e-16
6.744391541e-16
6.406612629e-16
6.023587885e-16
6.552897886e-16
5.852211129e-16
6.237107069e-16
5.286342282e-16
6.180656536e-16
6.841217284e-16
6.699923899e-16
6.691680625e-16
7.02310028e-16
7.130445785e-16
6.30590047e-16
5.697058669e-16
5.801195073e-16
5.929109814e-16
5.705548922e-16
5.451920301e-16
5.494536452e-16
5.927770464e-16
5.333187546e-16
5.630205796e-16
5.385304148e-16
5.761893506e-16
6.864459296e-16
5.564057176e-16
5.71698363e-16
6.144088563e-16
6.454153522e-16
5.634916605e-16
5.872607314e-16
5.996459068e-16
6.975367817e-16
6.545289546e-16
5.85040612e-16
5.699311989e-16
6.110928726e-16
5.575982515e-16
6.278586692e-16
6.811293053e-16
7.081910164e-16
6.277052562e-16
5.454744416e-16
5.525894605e-16
5.238170017e-16
5.158675399e-16
5.384133028e-16
5.799095581e-16
5.611693842e-16
5.902844364e-16
5.324773925e-16
6.197441859e-16
5.987043268e-16
5.551013794e-16
5.65635273e-16
5.636397435e-16
5.785374485e-16
5.775826277e-16
5.748902985e-16
5.763242142e-16
5.805652674e-16
6.11272747e-16
5.70195496e-16
6.136968825e-16
6.695672057e-16
6.371615022e-16
6.401231022e-16
5.997539881e-16
6.272659257e-16
6.843656838e-16
6.583201413e-16
6.627738299e-16
5.517344144e-16
5.892689761e-16
5.301345148e-16
6.12216303e-16
5.404355202e-16
5.332802574e-16
5.525918652e-16
5.52832549e-16
5.916507905e-16
5.327182694e-16
5.541018309e-16
5.825144672e-16
5.156356069e-16
5.649897698e-16
5.835104906e-16
5.619401308e-16
5.981151182e-16
5.80124967e-16
6.186781708e-16
5.527480097e-16
5.939490585e-16
5.692445946e-16
6.166102309e-16
5.684192428e-16
5.985402445e-16
6.432088055e-16
6.116488096e-16
6.239917264e-16
6.656890932e-16
6.607894188e-16
5.397851151e-16
6.248232258e-16
6.146940378e-16
6.305156261e-16
5.523628705e-16
5.618371324e-16
5.682375602e-16
5.682375602e-16
4.97329808e-16
5.647390226e-16
5.138448016e-16
5.55020098e-16
5.516973975e-16
5.661676003e-16
5.593325066e-16
5.95831305e-16
7.277776014e-16
6.072099017e-16
5.510596596e-16
5.403090482e-16
5.762499274e-16
6.183843506e-16
5.75098923e-16
5.480550721e-16
6.472429388e-16
6.605722666e-16
6.124433892e-16
6.468205483e-16
7.201442949e-16
5.825038339e-16
5.592456921e-16
5.750476473e-16
6.103020201e-16
6.169485991e-16
5.266347031e-16
5.437083778e-16
5.488682094e-16
5.613566584e-16
5.457901004e-16
6.225505745e-16
5.294949652e-16
6.719033704e-16
5.607386954e-16
5.340404364e-16
6.074914385e-16
5.802627716e-16
5.914331366e-16
5.860570041e-16
5.502349283e-16
5.833112469e-16
5.872391986e-16
6.519250135e-16
6.235955742e-16
5.819306542e-16
5.920225024e-16
6.310011446e-16
6.458281166e-16
6.483704429e-16
6.189965777e-16
6.17244117e-16
5.725863478e-16
5.603165368e-16
5.804043369e-16
5.930076419e-16
5.425609176e-16
5.408691291e-16
5.620445686e-16
5.602486371e-16
5.694811445e-16
6.513477149e-16
6.285176066e-16
5.797219906e-16
5.173566842e-16
5.501860511e-16
5.512872444e-16
6.071758702e-16
5.909145997e-16
5.486821071e-16
5.448171295e-16
5.755884524e-16
5.934344007e-16
6.115615265e-16
5.070294802e-16
5.809224107e-16
5.398846514e-16
5.79168757e-16
5.530896131e-16
5.98696913e-16
6.236317385e-16
5.834961238e-16
5.325122497e-16
5.50448012e-16
5.5645843e-16
6.214661249e-16
5.448721638e-16
5.389583516e-16
5.195430558e-16
5.703097024e-16
5.612486716e-16
5.971978032e-16
4.976819902e-16
5.465472407e-16
7.140667935e-16
5.699995232e-16
5.13297772e-16
5.591367103e-16
5.159565328e-16
5.713033447e-16
5.789122846e-16
6.339732884e-16
5.516737951e-16
5.547313675e-16
5.272791721e-16
5.505629798e-16
5.434362359e-16
5.830725243e-16
6.172244491e-16
5.792327097e-16
5.851083797e-16
5.670790705e-16
5.537571617e-16
5.664481677e-16
5.737298679e-16
5.508053621e-16
5.552866842e-16
6.336952962e-16
5.74617547e-16
5.561672187e-16
5.686205188e-16
5.785807332e-16
5.904434524e-16
5.422105944e-16
5.44663495e-16
5.475325327e-16
5.525564304e-16
5.347115518e-16
5.410367634e-16
5.556848962e-16
7.097820828e-16
5.424352882e-16
5.546607688e-16
5.346508987e-16
5.516611836e-16
5.372853158e-16
5.650761953e-16
6.372545664e-16
5.744813542e-16
6.096786693e-16
5.534670565e-16
5.534670565e-16
)
;

boundaryField
{
    flow
    {
        type            zeroGradient;
    }
    obstacle
    {
        type            zeroGradient;
    }
    frontAndBack
    {
        type            empty;
    }
    procBoundary3to1
    {
        type            processor;
        value           nonuniform List<scalar> 
36
(
7.001350169e-16
7.801477873e-16
6.935784862e-16
7.341602011e-16
7.673765514e-16
7.673765514e-16
7.396157127e-16
7.634846041e-16
7.315351268e-16
7.534677417e-16
8.263047111e-16
7.797976353e-16
7.797976353e-16
6.895789159e-16
7.034873335e-16
7.224580739e-16
7.916027984e-16
7.031735906e-16
7.031735906e-16
6.916223742e-16
6.380431294e-16
7.476516988e-16
7.170742315e-16
7.585163218e-16
7.049870701e-16
7.049870701e-16
6.51458389e-16
5.683956565e-16
6.405183011e-16
6.212046837e-16
7.884482978e-16
7.13754531e-16
6.074578475e-16
6.074578475e-16
6.585102569e-16
6.585102569e-16
)
;
    }
    procBoundary3to2
    {
        type            processor;
        value           nonuniform List<scalar> 
19
(
5.684741297e-16
6.573788838e-16
6.355903735e-16
6.128112124e-16
5.629496397e-16
5.40807467e-16
5.391508398e-16
5.55551495e-16
5.959201386e-16
5.578265024e-16
5.470847521e-16
6.586513849e-16
5.53859775e-16
5.75415477e-16
5.805987508e-16
5.828242594e-16
5.755887171e-16
5.536519629e-16
5.439965563e-16
)
;
    }
}


// ************************************************************************* //
