/*--------------------------------*- C++ -*----------------------------------*\
| =========                 |                                                 |
| \\      /  F ield         | OpenFOAM: The Open Source CFD Toolbox           |
|  \\    /   O peration     | Version:  2406                                  |
|   \\  /    A nd           | Website:  www.openfoam.com                      |
|    \\/     M anipulation  |                                                 |
\*---------------------------------------------------------------------------*/
FoamFile
{
    version     2.0;
    format      ascii;
    arch        "LSB;label=32;scalar=64";
    class       volScalarField;
    location    "0.001";
    object      iDof;
}
// * * * * * * * * * * * * * * * * * * * * * * * * * * * * * * * * * * * * * //

dimensions      [0 -3 0 0 0 0 0];

internalField   nonuniform List<scalar> 
654
(
4.273457701e+20
3.296044064e+20
3.880206291e+20
3.635973946e+20
3.669506496e+20
5.128149195e+20
2.606363908e+20
4.205999001e+20
3.181827242e+20
4.012041048e+20
5.126720439e+20
4.900091856e+20
7.14142868e+20
3.325891077e+20
2.796903036e+20
4.516315688e+20
5.982840782e+20
3.249898433e+20
2.772559923e+20
2.541438081e+20
4.100348192e+20
2.842792145e+20
5.212727859e+20
4.468873938e+20
4.242436287e+20
5.349388064e+20
5.396547831e+20
4.900091856e+20
4.944066053e+20
4.711679067e+20
3.076593339e+20
4.798585462e+20
5.697943602e+20
2.621444564e+20
1.200916371e+20
1.936663917e+20
1.220064989e+20
2.213766247e+20
4.463402947e+20
1.74994531e+20
3.528712657e+20
1.524862861e+20
3.587804668e+20
3.101227794e+20
1.303181954e+20
4.994623813e+20
3.446979512e+20
2.942163435e+20
4.587065656e+20
7.07791052e+20
6.592088128e+20
3.325891077e+20
3.915664215e+20
3.951776227e+20
4.273457701e+20
2.033959531e+20
1.82141302e+20
1.376297699e+20
3.928955705e+20
2.328734922e+20
1.877271253e+20
1.891775263e+20
1.429878853e+20
2.161649484e+20
2.662912927e+20
2.928155997e+20
1.475844165e+20
2.727635156e+20
3.499890648e+20
2.52050902e+20
3.049725672e+20
1.025087031e+20
2.842792121e+20
3.648909471e+20
3.417374159e+20
5.303045313e+20
5.081918617e+20
4.047410873e+20
4.900091856e+20
4.120055008e+20
4.157363846e+20
4.195354554e+20
4.798585418e+20
2.848971775e+20
3.813763348e+20
2.485950502e+20
1.593736369e+20
1.835063586e+20
1.386690249e+20
1.630114433e+20
1.173294515e+20
1.891775234e+20
1.429878842e+20
3.842932387e+20
1.694580927e+20
1.464077976e+20
3.197662307e+20
2.975601941e+20
1.999937513e+20
3.276661779e+20
2.541438101e+20
1.793902334e+20
1.809049562e+20
3.127636742e+20
3.417374217e+20
2.916674972e+20
1.872285822e+20
1.888791757e+20
2.994500631e+20
5.768077112e+20
4.157363883e+20
5.593806071e+20
5.363124879e+20
3.703663341e+20
1.570373143e+20
1.355973011e+20
1.593736392e+20
2.981978349e+20
2.311150415e+20
1.397240943e+20
2.815906858e+20
7.094157237e+19
1.906505138e+20
1.200916371e+20
1.210414948e+20
1.464077987e+20
4.427532494e+20
2.975601965e+20
2.499921872e+20
2.772559923e+20
1.779006656e+20
2.050174096e+20
2.325920846e+20
1.563818345e+20
2.102999483e+20
2.386370411e+20
3.209632838e+20
2.968101307e+20
2.994500579e+20
5.218736389e+20
3.325891106e+20
7.551638196e+20
5.645394661e+20
6.267737962e+20
2.243390221e+20
2.937941524e+20
2.959796136e+20
1.146914749e+20
2.080035373e+20
1.630114445e+20
3.050565763e+20
9.458876244e+19
1.429878853e+20
1.921466194e+20
2.904995898e+20
2.196116998e+20
3.443636385e+20
1.239834152e+20
2.749914059e+20
4.032814465e+20
7.624314304e+19
2.306445858e+20
3.876534743e+20
2.867000299e+20
2.628749375e+20
2.916674972e+20
4.012041048e+20
3.777583482e+20
3.266727933e+20
4.120055044e+20
6.651782154e+20
2.237522429e+20
3.104967035e+20
2.848971801e+20
2.019051184e+20
1.581968513e+20
1.138383137e+20
1.605680649e+20
2.080035373e+20
1.164367452e+20
2.815906858e+20
1.891775263e+20
3.098070848e+20
2.40183276e+20
7.262489744e+19
2.196116964e+20
2.459740255e+20
1.735767813e+20
3.249898459e+20
1.764356329e+20
2.287294254e+20
3.075261119e+20
2.584356495e+20
1.824454751e+20
2.365874458e+20
2.651522679e+20
2.94216341e+20
3.237928699e+20
3.538955229e+20
3.845384708e+20
4.157363883e+20
3.91566425e+20
3.387236766e+20
3.41876613e+20
2.916407266e+20
2.711946002e+20
1.821412993e+20
2.52321243e+20
1.386690259e+20
2.328734939e+20
1.40795344e+20
1.891775263e+20
2.383131422e+20
9.607330968e+19
2.178746923e+20
1.952103998e+20
2.213766247e+20
3.471535626e+20
2.499921872e+20
1.764356329e+20
2.541438101e+20
1.025087048e+20
4.651841692e+20
2.867000299e+20
2.102999483e+20
2.121218143e+20
2.674694032e+20
1.618964349e+20
2.722273253e+20
2.472033005e+20
3.325891047e+20
4.195354516e+20
3.104967035e+20
5.413046422e+20
8.973560883e+19
1.129977517e+20
2.73211953e+20
1.605680637e+20
3.235610557e+20
3.260228867e+20
1.877271225e+20
1.65530333e+20
2.859757684e+20
2.642016016e+20
9.683319584e+19
1.952103968e+20
1.967792204e+20
1.487800982e+20
2.749914059e+20
2.52050902e+20
4.066300929e+20
2.56271762e+20
2.584356495e+20
2.606363908e+20
2.891624313e+20
1.856065891e+20
2.942163435e+20
1.079309566e+20
2.994500605e+20
3.845384742e+20
2.771575922e+20
3.076593339e+20
2.258157864e+20
3.418766161e+20
1.794712177e+20
2.259955018e+20
2.276766275e+20
2.523212449e+20
1.61780529e+20
2.328734905e+20
1.877271239e+20
2.601190987e+20
2.383131422e+20
1.681282919e+20
1.69458094e+20
1.708090998e+20
2.459740275e+20
2.231701474e+20
2.249929703e+20
1.764356343e+20
2.287294272e+20
2.306445839e+20
3.359663444e+20
3.388273108e+20
7.886248126e+19
1.32576134e+20
2.674694032e+20
3.50775612e+20
2.450045949e+20
1.098681345e+20
1.662945553e+20
2.796903061e+20
3.104967063e+20
4.273457662e+20
3.365085307e+20
1.581968501e+20
2.049089632e+20
1.835063599e+20
1.61780529e+20
2.328734922e+20
2.581247953e+20
2.364719061e+20
2.14481828e+20
7.205498226e+19
2.420829896e+20
2.196116981e+20
1.721818179e+20
1.239834142e+20
1.249960936e+20
3.276661727e+20
2.541438081e+20
2.306445858e+20
1.033742607e+20
2.60636393e+20
1.577249625e+20
3.712131782e+20
1.604816419e+20
1.618964349e+20
2.722273277e+20
1.373351681e+20
2.494418308e+20
2.517212732e+20
4.234045957e+20
2.564074621e+20
3.140746309e+20
1.355973021e+20
1.593736381e+20
2.293829482e+19
9.24460166e+19
6.986204714e+19
1.877271239e+20
3.31060671e+20
1.906505138e+20
1.921466208e+20
1.694580953e+20
2.196116981e+20
1.475844153e+20
1.735767813e+20
1.499953123e+20
2.772559945e+20
2.033150481e+20
2.306445858e+20
2.584356495e+20
1.303181965e+20
2.628749375e+20
1.85606586e+20
2.407224608e+20
1.888791741e+20
2.177818603e+20
1.373351681e+20
2.771575922e+20
3.076593339e+20
2.822697305e+20
3.703663307e+20
2.243390205e+20
2.711946002e+20
1.821413007e+20
2.523212449e+20
3.466725622e+20
1.630114445e+20
3.050565786e+20
1.655303355e+20
1.429878853e+20
2.161649468e+20
2.662912886e+20
1.220064989e+20
2.213766247e+20
4.959336608e+19
1.499953123e+20
2.268458118e+20
2.541438081e+20
2.050174096e+20
3.359663444e+20
1.563818345e+20
2.1029995e+20
2.651522702e+20
1.337347016e+20
1.349136958e+20
1.361136627e+20
1.648022003e+20
2.494418308e+20
1.678141821e+20
8.468091991e+19
2.564074644e+20
2.019051184e+20
2.48595052e+20
2.959796157e+20
2.064446549e+20
2.773380518e+20
2.328734922e+19
3.519883546e+20
2.837662873e+20
1.906505138e+20
2.642016016e+20
1.936663917e+20
1.952103983e+20
1.721818192e+20
9.918673216e+19
2.499921892e+20
1.260254531e+20
2.033150464e+20
2.818989359e+20
1.809049547e+20
1.042545563e+20
3.154499251e+20
1.590913621e+20
1.604816419e+20
2.158619132e+20
1.905591294e+20
2.197362709e+20
2.494418308e+20
1.678141806e+20
2.258157844e+20
2.564074597e+20
2.692068265e+20
1.807964015e+20
1.138383129e+20
1.376297699e+20
1.386690249e+20
1.862987924e+20
1.407953429e+20
1.655303343e+20
2.621444544e+20
3.122382565e+20
2.178746923e+20
1.464077987e+20
1.721818179e+20
2.479668304e+20
1.499953123e+20
1.008203608e+20
3.558013313e+20
3.331532906e+20
2.325920846e+20
1.563818358e+20
1.840124563e+20
2.651522679e+20
2.942163435e+20
1.618964363e+20
1.633363966e+20
3.570714372e+20
1.662945553e+20
2.237522429e+20
2.822697305e+20
1.994280261e+20
1.570373143e+20
1.807964015e+20
2.73211951e+20
1.835063586e+20
1.61780529e+20
2.561608414e+20
2.815906858e+20
3.074134779e+20
1.429878853e+20
3.122382589e+20
7.262489744e+19
3.41618197e+20
3.443636385e+20
1.983734659e+20
1.499953135e+20
2.520509041e+20
1.779006671e+20
1.793902319e+20
2.584356474e+20
7.819091724e+19
2.628749375e+20
1.590913608e+20
1.337347005e+20
3.237928699e+20
3.53895526e+20
2.472033026e+20
1.385787949e+20
3.635973946e+20
1.411348652e+20
1.994280242e+20
2.243390205e+20
1.355973001e+20
2.959796136e+20
1.376297699e+20
2.080035373e+20
1.630114433e+20
2.111930144e+20
2.128247171e+20
1.906505138e+20
3.122382565e+20
2.662912906e+20
9.760519991e+19
1.721818192e+20
9.918673216e+19
2.749914081e+20
7.561527122e+19
1.779006642e+20
2.306445839e+20
1.550613897e+20
1.824454736e+20
1.840124547e+20
2.916674947e+20
1.604816419e+20
2.968101307e+20
2.450045928e+20
2.746703363e+19
2.771575922e+20
1.118761214e+20
4.516315729e+20
2.564074644e+20
1.121695118e+20
2.259955035e+20
3.187472785e+20
2.981978349e+20
3.235610581e+20
3.493102357e+20
1.877271239e+20
1.891775263e+20
2.14481828e+20
7.205498226e+19
1.936663917e+20
2.196116964e+20
2.951688306e+20
2.727635134e+20
2.749914059e+20
1.26025452e+20
1.524862861e+20
1.793902334e+20
2.842792145e+20
1.824454751e+20
2.891624337e+20
1.856065891e+20
1.337347016e+20
2.158619132e+20
1.633363952e+20
2.746703363e+20
1.940103145e+20
1.678141821e+20
1.975888113e+20
3.988560485e+20
2.692068246e+20
1.581968501e+20
1.593736381e+20
2.523212449e+20
2.080035373e+20
6.986204766e+19
1.407953429e+20
2.364719061e+20
2.621444564e+20
1.441099645e+20
9.683319659e+19
1.708090998e+20
2.951688306e+20
1.983734627e+20
1.499953123e+20
1.008203608e+20
5.082876161e+19
2.56271762e+20
1.55061391e+20
2.867000323e+20
1.840124547e+20
1.32576134e+20
1.604816419e+20
1.888791741e+20
1.633363966e+20
1.648022018e+20
1.662945538e+20
1.957832125e+20
1.975888113e+20
8.546915403e+19
2.019051184e+20
1.807964015e+20
1.366059755e+20
2.52321243e+20
2.080035389e+20
3.027355399e+20
1.877271239e+20
1.18235953e+20
3.336383965e+20
1.441099656e+20
1.452497949e+20
1.952103983e+20
2.95168833e+20
1.735767813e+20
1.999937497e+20
2.268458137e+20
2.033150481e+20
1.025087048e+20
1.292178248e+20
3.38827308e+20
2.365874438e+20
7.954568038e+19
2.139755207e+20
3.237928726e+20
1.905591294e+20
1.098681345e+20
2.771575897e+20
1.678141806e+20
1.975888113e+20
1.709383065e+20
1.12169511e+20
1.581968513e+20
1.138383129e+20
1.376297699e+20
1.155575207e+20
1.630114445e+20
1.642612334e+20
2.601190967e+20
2.621444564e+20
2.161649468e+20
2.178746923e+20
2.440129979e+20
1.721818179e+20
1.983734643e+20
3.249898459e+20
1.764356329e+20
3.049725672e+20
2.050174079e+20
1.809049547e+20
1.042545572e+20
1.840124563e+20
2.651522679e+20
2.674694032e+20
1.618964349e+20
2.450045949e+20
1.098681345e+20
2.217260718e+20
5.314115768e+20
2.82269733e+20
1.709383096e+20
1.121695102e+20
2.033959516e+20
2.959796157e+20
1.835063599e+20
1.386690249e+20
3.027355376e+20
1.173294524e+20
2.364719079e+20
2.383131422e+20
2.642016016e+20
1.210414948e+20
1.464077987e+20
2.705714302e+20
2.231701474e+20
2.249929685e+20
1.008203616e+20
2.033150481e+20
1.537630572e+20
1.809049547e+20
2.085091126e+20
1.577249625e+20
2.121218161e+20
2.407224629e+20
2.158619132e+20
3.266727904e+20
8.240110088e+19
1.108630369e+20
1.678141821e+20
1.129078922e+20
1.709383065e+20
)
;

boundaryField
{
    flow
    {
        type            zeroGradient;
    }
    obstacle
    {
        type            calculated;
        value           nonuniform List<scalar> 0();
    }
    frontAndBack
    {
        type            empty;
    }
    procBoundary3to1
    {
        type            processor;
        value           nonuniform List<scalar> 
36
(
5.128149242e+20
6.592088013e+20
6.928939743e+20
3.356283643e+20
4.516315688e+20
4.516315688e+20
3.127636689e+20
3.94312403e+20
4.507588516e+20
4.546979816e+20
5.666375271e+20
5.716773932e+20
5.716773932e+20
1.749945324e+20
4.032814498e+20
4.066300929e+20
3.844076398e+20
6.719326888e+20
6.719326888e+20
1.429878853e+20
1.681282919e+20
1.210414957e+20
1.708090985e+20
1.967792204e+20
2.975601965e+20
2.975601965e+20
3.163937003e+20
3.187472762e+20
2.293829499e+20
1.848920346e+20
1.630114445e+20
4.693178097e+20
3.074134802e+20
3.074134802e+20
8.973560883e+19
8.973560883e+19
)
;
    }
    procBoundary3to2
    {
        type            processor;
        value           nonuniform List<scalar> 
19
(
1.336239882e+20
2.672479765e+20
2.449773118e+20
1.558946518e+20
2.227066471e+20
2.227066471e+20
1.113533243e+20
1.781653177e+20
2.004359824e+20
2.449773118e+20
2.227066471e+20
2.004359824e+20
1.113533235e+20
2.004359809e+20
1.781653189e+20
3.563306353e+20
1.113533235e+20
2.227066471e+20
2.895186412e+20
)
;
    }
}


// ************************************************************************* //
