/*--------------------------------*- C++ -*----------------------------------*\
| =========                 |                                                 |
| \\      /  F ield         | OpenFOAM: The Open Source CFD Toolbox           |
|  \\    /   O peration     | Version:  2406                                  |
|   \\  /    A nd           | Website:  www.openfoam.com                      |
|    \\/     M anipulation  |                                                 |
\*---------------------------------------------------------------------------*/
FoamFile
{
    version     2.0;
    format      ascii;
    arch        "LSB;label=32;scalar=64";
    class       volScalarField;
    location    "0.001";
    object      iDofMean;
}
// * * * * * * * * * * * * * * * * * * * * * * * * * * * * * * * * * * * * * //

dimensions      [0 -3 0 0 0 0 0];

internalField   nonuniform List<scalar> 
654
(
4.195395874e+20
4.116209696e+20
4.206697934e+20
4.179691897e+20
4.253804839e+20
4.278016017e+20
3.443006722e+20
3.533564911e+20
3.646374019e+20
3.80929924e+20
3.911957523e+20
4.035497871e+20
4.044795336e+20
4.115790208e+20
4.138297732e+20
4.172511156e+20
4.256933665e+20
2.653917059e+20
2.778609144e+20
2.838786336e+20
2.934311675e+20
3.105362765e+20
3.264210185e+20
3.392138194e+20
3.515919073e+20
3.616186331e+20
3.720919729e+20
3.775793002e+20
3.900868116e+20
3.926768766e+20
3.930208146e+20
3.968712447e+20
3.971466691e+20
2.189144524e+20
2.267330108e+20
2.282358426e+20
2.351309248e+20
2.374633261e+20
2.416188795e+20
2.509421575e+20
2.556804371e+20
2.635471311e+20
2.7344197e+20
2.858815155e+20
2.97594631e+20
3.122428508e+20
3.174933283e+20
3.242799044e+20
3.372842394e+20
3.535144078e+20
3.648720779e+20
3.668457858e+20
3.824485177e+20
3.837739256e+20
3.835285838e+20
2.016331882e+20
2.024955925e+20
2.009853407e+20
2.038896896e+20
2.087012237e+20
2.046694984e+20
2.119734182e+20
2.094295894e+20
2.179423047e+20
2.221837713e+20
2.28737786e+20
2.317567287e+20
2.357172708e+20
2.39242525e+20
2.452959379e+20
2.558211551e+20
2.602695972e+20
2.674808951e+20
2.739288467e+20
2.762289821e+20
2.985614511e+20
3.077502927e+20
3.20878734e+20
3.352751739e+20
3.386135876e+20
3.477219121e+20
3.554863758e+20
3.816286756e+20
3.863205727e+20
1.973734702e+20
1.966612843e+20
1.964393913e+20
1.980492375e+20
1.963091162e+20
1.951014103e+20
2.041532457e+20
2.095614016e+20
2.19009776e+20
2.211127222e+20
2.196661048e+20
2.193676834e+20
2.261485173e+20
2.28922976e+20
2.296928234e+20
2.355163667e+20
2.34523908e+20
2.36641345e+20
2.45100372e+20
2.542768671e+20
2.656088391e+20
2.717810769e+20
2.795590202e+20
2.845060041e+20
2.952577622e+20
3.169146368e+20
3.349172344e+20
3.464803481e+20
3.433529002e+20
3.634148429e+20
2.021294574e+20
2.023563723e+20
2.003098969e+20
2.058023826e+20
2.073564152e+20
2.111696812e+20
2.127886949e+20
2.072439801e+20
2.095249146e+20
2.122739777e+20
2.161316931e+20
2.163419239e+20
2.171458715e+20
2.206408857e+20
2.140433107e+20
2.145457278e+20
2.199360515e+20
2.279281051e+20
2.410687739e+20
2.451024619e+20
2.47785914e+20
2.578340653e+20
2.645807336e+20
2.856932422e+20
3.009745309e+20
3.074659744e+20
3.180660528e+20
3.271257791e+20
3.419415546e+20
3.515061408e+20
2.034306252e+20
2.019043813e+20
2.086428599e+20
2.069492974e+20
2.098062347e+20
2.073039828e+20
2.049510875e+20
2.059197358e+20
1.988484858e+20
1.946925621e+20
2.017519651e+20
2.041900782e+20
2.074053e+20
2.089368513e+20
2.205431075e+20
2.234179214e+20
2.250189295e+20
2.236227395e+20
2.223063457e+20
2.289951329e+20
2.449468668e+20
2.523189003e+20
2.576265292e+20
2.613548115e+20
2.697228363e+20
2.814272265e+20
2.913480583e+20
3.035758555e+20
3.140533021e+20
3.228454845e+20
2.019051184e+20
2.051587166e+20
2.068669837e+20
2.051142338e+20
2.020407693e+20
2.025067873e+20
2.050918828e+20
2.052103217e+20
2.080473731e+20
2.075663872e+20
2.047537942e+20
2.062885868e+20
2.090779217e+20
2.076970171e+20
2.080934983e+20
2.082948671e+20
2.137349408e+20
2.166521458e+20
2.270615617e+20
2.284217348e+20
2.308041971e+20
2.317961126e+20
2.452694406e+20
2.466762014e+20
2.487068844e+20
2.67089435e+20
2.743860163e+20
2.857316141e+20
2.971171183e+20
3.024468436e+20
1.999758028e+20
1.964352888e+20
1.979420571e+20
1.948837528e+20
1.955233265e+20
1.96684953e+20
1.988499575e+20
1.990147577e+20
1.978952333e+20
2.009853639e+20
2.038338788e+20
2.000418572e+20
2.025350142e+20
2.072506768e+20
2.075435138e+20
2.094543013e+20
2.158189236e+20
2.219313459e+20
2.189983694e+20
2.196643502e+20
2.285960438e+20
2.385840107e+20
2.432901692e+20
2.529901623e+20
2.623182507e+20
2.653864766e+20
2.782107861e+20
2.817040712e+20
2.841891647e+20
2.943557665e+20
1.996168618e+20
1.984692511e+20
2.01721492e+20
2.017652412e+20
2.050452633e+20
2.02087615e+20
1.979582506e+20
1.99676876e+20
2.034240966e+20
2.0305094e+20
2.050442922e+20
2.04922114e+20
2.032729347e+20
2.008035393e+20
2.041936185e+20
2.076395331e+20
2.036708478e+20
2.075801272e+20
2.149150862e+20
2.202898775e+20
2.195005729e+20
2.211900238e+20
2.28579352e+20
2.332387973e+20
2.423912126e+20
2.44951008e+20
2.588651911e+20
2.659854787e+20
2.789389502e+20
2.884299051e+20
2.042382457e+20
2.032603543e+20
1.986706251e+20
1.992420303e+20
2.016247622e+20
2.042766258e+20
2.078608579e+20
2.091830497e+20
2.056642417e+20
2.060772493e+20
2.111932018e+20
2.117056786e+20
2.138498195e+20
2.113669262e+20
2.113433967e+20
2.156547553e+20
2.143448877e+20
2.08092669e+20
2.074721394e+20
2.045474412e+20
2.085649755e+20
2.112202966e+20
2.152058818e+20
2.213124285e+20
2.268742549e+20
2.32810577e+20
2.37468625e+20
2.436102566e+20
2.533088584e+20
2.644415602e+20
1.962517751e+20
1.9788166e+20
1.983974117e+20
1.982786219e+20
1.963091162e+20
1.971972732e+20
1.985214335e+20
1.970283922e+20
1.992297869e+20
1.996883742e+20
1.95312556e+20
1.968208841e+20
1.980582854e+20
2.005555708e+20
2.002437419e+20
1.97557497e+20
2.017393548e+20
2.020446572e+20
2.050945332e+20
2.097601691e+20
2.113514498e+20
2.146142475e+20
2.123707061e+20
2.133255358e+20
2.182174259e+20
2.2380139e+20
2.31592882e+20
2.382402006e+20
2.459133892e+20
2.557806883e+20
2.025781369e+20
2.004128125e+20
2.014027432e+20
2.006183265e+20
2.00284295e+20
1.998054548e+20
1.981459793e+20
1.925354274e+20
1.896495986e+20
1.90177118e+20
1.933274785e+20
1.954056087e+20
1.917613503e+20
1.939100614e+20
1.975938247e+20
1.984648819e+20
2.024509591e+20
2.037873051e+20
2.027686106e+20
2.073623142e+20
2.044641264e+20
2.075611936e+20
2.140825085e+20
2.169951883e+20
2.194152242e+20
2.231971153e+20
2.249965333e+20
2.314716952e+20
2.369936657e+20
2.42048642e+20
1.982259585e+20
1.986500447e+20
1.975322406e+20
1.985538814e+20
1.928423906e+20
1.967315262e+20
1.963625731e+20
1.991093464e+20
2.000877142e+20
2.000246308e+20
1.998637162e+20
2.012619206e+20
1.999768843e+20
2.023409336e+20
2.03793631e+20
2.056735361e+20
2.068730598e+20
2.099890818e+20
2.044742859e+20
2.036091485e+20
2.055156262e+20
2.099475675e+20
2.107123958e+20
2.11544675e+20
2.164207236e+20
2.241309924e+20
2.287658746e+20
2.309682527e+20
2.338887008e+20
2.387438391e+20
1.989438434e+20
1.977460641e+20
1.993991904e+20
1.984621282e+20
2.001456274e+20
1.988739623e+20
1.996947265e+20
2.017105359e+20
2.039483871e+20
2.046841863e+20
2.032528781e+20
2.058981676e+20
2.086351701e+20
2.105734324e+20
2.120433749e+20
2.100592252e+20
2.092111828e+20
2.046073731e+20
2.099014346e+20
2.141388587e+20
2.120349246e+20
2.125460598e+20
2.0884011e+20
2.122462262e+20
2.153862617e+20
2.113862927e+20
2.13078755e+20
2.207875237e+20
2.257028765e+20
2.287724335e+20
2.065713715e+20
2.067858842e+20
2.058196698e+20
2.019028725e+20
2.023181073e+20
2.01016397e+20
1.993192738e+20
1.983526348e+20
1.978475691e+20
1.989197877e+20
2.002510506e+20
2.000906583e+20
1.977631165e+20
1.990677714e+20
1.998937529e+20
2.053206648e+20
2.078388062e+20
2.100915905e+20
2.106767415e+20
2.090825144e+20
2.097742002e+20
2.081975608e+20
2.096960121e+20
2.065798528e+20
2.028093591e+20
2.072113017e+20
2.060943856e+20
2.098796038e+20
2.089925085e+20
2.156101859e+20
2.049112613e+20
2.017235849e+20
2.055009225e+20
2.053894918e+20
2.038434666e+20
2.085614996e+20
2.103951741e+20
2.093722257e+20
2.07427759e+20
2.072301306e+20
2.071746241e+20
2.07313443e+20
2.076020792e+20
2.073002719e+20
2.033436467e+20
2.04362873e+20
2.02705103e+20
2.020959098e+20
2.002359396e+20
2.017325665e+20
2.069877258e+20
2.076672562e+20
2.093215532e+20
2.11544675e+20
2.157129345e+20
2.142977964e+20
2.134113441e+20
2.174871801e+20
2.140733636e+20
2.150403896e+20
1.962517751e+20
1.962544924e+20
1.996724009e+20
2.036003063e+20
2.043981427e+20
2.038574536e+20
2.028860891e+20
2.053522048e+20
2.056165791e+20
2.012255471e+20
1.995248016e+20
1.98724187e+20
2.004688324e+20
2.010515061e+20
2.060435623e+20
2.040100018e+20
2.029592435e+20
2.033772686e+20
2.058698384e+20
2.056942396e+20
2.086175487e+20
2.059172513e+20
2.047210812e+20
2.060941617e+20
2.046060577e+20
2.117158952e+20
2.13300483e+20
2.156412241e+20
2.210736549e+20
2.229605352e+20
1.976426799e+20
1.983336538e+20
1.959840409e+20
1.931404438e+20
1.946450879e+20
1.961726284e+20
1.924672338e+20
1.95704151e+20
1.976092575e+20
2.029548667e+20
2.033981279e+20
2.015547347e+20
2.015019217e+20
1.995637051e+20
1.992937716e+20
1.946337081e+20
1.991979184e+20
2.03326016e+20
2.047844087e+20
2.030357501e+20
2.019405287e+20
2.076142275e+20
2.07502763e+20
2.097098487e+20
2.139706777e+20
2.160556865e+20
2.091431191e+20
2.060758157e+20
2.090489624e+20
2.100261993e+20
1.985400331e+20
2.020851763e+20
1.964849281e+20
1.987373878e+20
1.982504826e+20
1.964986527e+20
2.029330209e+20
2.049265538e+20
2.045680013e+20
2.061252859e+20
2.04172795e+20
2.051173276e+20
2.063722074e+20
2.027872723e+20
2.019936872e+20
2.052702546e+20
2.028067588e+20
1.988668873e+20
1.978583349e+20
1.978230223e+20
2.002055508e+20
2.010384495e+20
2.041326485e+20
1.997262352e+20
2.019382317e+20
2.044645983e+20
2.112495149e+20
2.197247025e+20
2.17799324e+20
2.16407898e+20
2.050009969e+20
2.039383408e+20
2.093258898e+20
2.092890019e+20
2.095288982e+20
2.074902816e+20
2.017597264e+20
1.994877e+20
1.991344601e+20
1.92963244e+20
1.932790604e+20
1.930630839e+20
1.95500157e+20
1.993653316e+20
2.014937029e+20
2.038587712e+20
2.033658769e+20
2.064012771e+20
2.050945315e+20
2.028272393e+20
1.985757278e+20
2.009854191e+20
2.00923014e+20
1.999420989e+20
2.012848861e+20
2.0259684e+20
2.006066635e+20
1.985241757e+20
1.995646995e+20
2.072911863e+20
2.015013096e+20
1.986500461e+20
1.989438357e+20
1.982327453e+20
1.974184684e+20
2.028793864e+20
2.047633604e+20
2.049265538e+20
2.012792799e+20
2.040116731e+20
2.069325411e+20
2.081430872e+20
2.091763113e+20
2.033823943e+20
2.003437404e+20
1.992210346e+20
1.989946001e+20
1.983543422e+20
1.998741313e+20
2.002208771e+20
2.039909515e+20
1.98280866e+20
2.020463872e+20
2.058782997e+20
2.100506061e+20
2.080353127e+20
2.130233235e+20
2.075302052e+20
2.121539314e+20
2.108239152e+20
1.990784468e+20
1.997800236e+20
1.980786659e+20
1.991502771e+20
1.959393322e+20
1.949151115e+20
1.949546182e+20
1.97690515e+20
1.99849401e+20
2.00553034e+20
2.014130474e+20
1.979433439e+20
1.959429103e+20
1.980263108e+20
1.96593856e+20
2.024976963e+20
1.975205692e+20
1.993281765e+20
1.974965234e+20
2.010549119e+20
2.002055524e+20
2.018869385e+20
1.981948278e+20
2.017769234e+20
1.947514285e+20
1.939721915e+20
1.946200612e+20
2.005938857e+20
1.996776073e+20
2.059806593e+20
)
;

boundaryField
{
    flow
    {
        type            calculated;
        value           nonuniform List<scalar> 
55
(
4.195395874e+20
4.278016017e+20
4.256933665e+20
3.971466691e+20
3.835285838e+20
3.863205727e+20
3.634148429e+20
3.515061408e+20
3.228454845e+20
3.024468436e+20
2.943557665e+20
2.884299051e+20
2.644415602e+20
2.557806883e+20
2.42048642e+20
2.387438391e+20
2.287724335e+20
2.156101859e+20
2.150403896e+20
2.229605352e+20
2.100261993e+20
2.16407898e+20
2.072911863e+20
2.108239152e+20
2.059806593e+20
1.990784468e+20
1.997800236e+20
1.980786659e+20
1.991502771e+20
1.959393322e+20
1.949151115e+20
1.949546182e+20
1.97690515e+20
1.99849401e+20
2.00553034e+20
2.014130474e+20
1.979433439e+20
1.959429103e+20
1.980263108e+20
1.96593856e+20
2.024976963e+20
1.975205692e+20
1.993281765e+20
1.974965234e+20
2.010549119e+20
2.002055524e+20
2.018869385e+20
1.981948278e+20
2.017769234e+20
1.947514285e+20
1.939721915e+20
1.946200612e+20
2.005938857e+20
1.996776073e+20
2.059806593e+20
)
;
    }
    obstacle
    {
        type            calculated;
        value           nonuniform List<scalar> 0();
    }
    frontAndBack
    {
        type            empty;
    }
    procBoundary3to1
    {
        type            processor;
        value           nonuniform List<scalar> 
36
(
4.148102942e+20
4.33539655e+20
4.221110092e+20
4.310027578e+20
4.276386417e+20
4.276386417e+20
3.495655273e+20
3.596129115e+20
3.795919835e+20
3.896494233e+20
3.974557512e+20
4.030597849e+20
4.030597849e+20
2.745414222e+20
2.907659253e+20
3.021769878e+20
3.232099436e+20
3.295571403e+20
3.295571403e+20
2.273507376e+20
2.19191256e+20
2.308503407e+20
2.398647769e+20
2.444489866e+20
2.577863169e+20
2.577863169e+20
2.112153945e+20
2.086883952e+20
2.124544882e+20
2.124871707e+20
2.101450394e+20
2.098789245e+20
2.126355396e+20
2.126355396e+20
1.994373906e+20
1.994373906e+20
)
;
    }
    procBoundary3to2
    {
        type            processor;
        value           nonuniform List<scalar> 
19
(
1.993224491e+20
1.966499694e+20
2.035093341e+20
2.02885754e+20
1.997678624e+20
2.037320407e+20
2.016385997e+20
1.952246468e+20
2.018167636e+20
1.992779078e+20
2.004805237e+20
2.026185075e+20
2.015049743e+20
1.971844639e+20
1.954028135e+20
1.999014864e+20
1.999460277e+20
2.040883714e+20
1.990997425e+20
)
;
    }
}


// ************************************************************************* //
