/*--------------------------------*- C++ -*----------------------------------*\
| =========                 |                                                 |
| \\      /  F ield         | OpenFOAM: The Open Source CFD Toolbox           |
|  \\    /   O peration     | Version:  2406                                  |
|   \\  /    A nd           | Website:  www.openfoam.com                      |
|    \\/     M anipulation  |                                                 |
\*---------------------------------------------------------------------------*/
FoamFile
{
    version     2.0;
    format      ascii;
    arch        "LSB;label=32;scalar=64";
    class       volScalarField;
    location    "0.001";
    object      internalEMean;
}
// * * * * * * * * * * * * * * * * * * * * * * * * * * * * * * * * * * * * * //

dimensions      [1 -1 -2 0 0 0 0];

internalField   nonuniform List<scalar> 
654
(
1.811716739
1.665528306
1.749929638
1.756058148
1.767153258
1.791642032
1.138983649
1.187448511
1.25676044
1.347516664
1.424073274
1.539454139
1.546710502
1.594614264
1.62037329
1.692847609
1.734586124
0.7328037807
0.7838812438
0.8089128612
0.8222681444
0.9212677668
1.001048987
1.10956865
1.152209755
1.240844382
1.290551197
1.350023575
1.417352352
1.476471716
1.454330857
1.45128675
1.506681461
0.5013379512
0.5183849158
0.5257647419
0.5456373731
0.5647034015
0.5752812123
0.6413578349
0.6649994467
0.705575725
0.7734056511
0.8414421415
0.8776694048
0.9529340435
1.006238821
1.045855614
1.112111124
1.201886282
1.295123565
1.313890086
1.409291911
1.407138456
1.393425783
0.4188296734
0.4342874549
0.4335206996
0.4435017209
0.441393331
0.4482682428
0.4742824091
0.4793228292
0.5079887254
0.5125865915
0.5415008516
0.558040928
0.5900542634
0.6089964203
0.618186379
0.665077501
0.6880155858
0.7391466749
0.7680855703
0.7740879798
0.8617571419
0.9320747819
1.025887463
1.070630815
1.112993655
1.198429829
1.246372255
1.414218897
1.455627823
0.4172090968
0.4067986277
0.4140339052
0.418663252
0.4202718444
0.4181195948
0.4299889177
0.4537347103
0.4800095147
0.5020323773
0.5090908437
0.5031202825
0.5374323822
0.52999069
0.5576965534
0.5788650309
0.5830501063
0.590686031
0.6038064162
0.674701065
0.7395923281
0.7760276376
0.8127579813
0.8580949918
0.9559399684
1.034481656
1.095547509
1.154478053
1.168055814
1.27178933
0.425864372
0.4273645352
0.4218663552
0.4217756675
0.4390886007
0.4541745573
0.4632093615
0.4475614431
0.4564012031
0.4725463586
0.4788397578
0.4712883742
0.4906030004
0.4930833219
0.4644115079
0.4835229091
0.5078174478
0.5613641565
0.5963818478
0.6036376472
0.6468926461
0.7139961935
0.758796168
0.8207389807
0.8858554635
0.9471327999
1.033081901
1.032551001
1.075098052
1.137434044
0.4221316704
0.4232999705
0.4477173871
0.4463217299
0.4625759426
0.45040509
0.4425694397
0.4448952311
0.4261891044
0.4149170472
0.4253255673
0.4256788965
0.4435838371
0.4512149521
0.498387088
0.5019024015
0.5166940474
0.5229263391
0.5284831117
0.5603962204
0.5927967184
0.6500524927
0.6757815707
0.7153909559
0.7580522754
0.8160145963
0.8857452971
0.9595248633
1.006826395
1.070447556
0.4318302828
0.4372452545
0.4486470924
0.4421964853
0.4218350789
0.4222016204
0.4376996065
0.4314127332
0.4445351966
0.4500348261
0.4498958563
0.4576297764
0.4616498957
0.4712019232
0.4647715
0.4720685145
0.482329482
0.5026909794
0.5353011582
0.5360901872
0.5497014025
0.5465154108
0.6309480099
0.6398445408
0.669363241
0.7487218158
0.7943900319
0.8633661806
0.9285989998
0.9578145487
0.4213938192
0.4061282131
0.4032223887
0.3995138419
0.3974394943
0.3996203257
0.4023432322
0.4057508173
0.4071067251
0.4281481753
0.4465320918
0.4422717599
0.4419106762
0.4528970294
0.4545070892
0.4581227043
0.4782168486
0.4913924893
0.4991606587
0.5050121011
0.53911079
0.587512965
0.5933323557
0.6499144829
0.6824500377
0.7200076384
0.7740874251
0.7906693053
0.8152351188
0.8884626754
0.4175281169
0.4152322
0.4167593752
0.4143165418
0.4298089667
0.4196556466
0.4173093947
0.4262926517
0.4349782765
0.4361842189
0.44522346
0.4530017143
0.4500368373
0.4385903577
0.4402670868
0.4439114315
0.4357652567
0.4536924229
0.4790943191
0.5049387455
0.5037636202
0.5024489919
0.5426908781
0.5767773936
0.6115700103
0.6263050491
0.6804539362
0.7392889717
0.7714888512
0.7773193221
0.41660441
0.417870972
0.4148619032
0.412934389
0.4181583328
0.43295814
0.435962536
0.4348415579
0.4267326145
0.4350801106
0.4379228169
0.4419662991
0.4531732505
0.4436667655
0.4558302224
0.475193026
0.4723157821
0.454286103
0.4569054357
0.4508942609
0.4719699683
0.4853756387
0.4886399655
0.5053971553
0.5392964611
0.5629404804
0.5894160865
0.6289865136
0.6620278711
0.742189448
0.4123159974
0.4164877669
0.4189221541
0.4137964393
0.406255391
0.4114768466
0.4125892702
0.4150448105
0.4146798983
0.4178807442
0.4165572522
0.421267621
0.4143828697
0.4330025683
0.4363395551
0.4291647606
0.4457832069
0.4530514926
0.4554564374
0.4710527062
0.4717328782
0.4819668397
0.4860340803
0.4902073877
0.5035445531
0.5281709987
0.5657332947
0.5954561447
0.6287933306
0.6650157909
0.4206456088
0.4196621227
0.427730553
0.4310400654
0.4325387508
0.4178724459
0.4223741004
0.4056975141
0.4022271345
0.394026626
0.4093982577
0.4148075924
0.4125624202
0.4156955941
0.4232272634
0.4377393262
0.439480256
0.4416328232
0.4378734762
0.454620121
0.4514183706
0.4715609423
0.4881647456
0.5030195039
0.5056983981
0.5339270347
0.5343955884
0.5435604047
0.568242674
0.6143465889
0.4142606286
0.4059703184
0.4045694596
0.407079178
0.3932471453
0.4062988802
0.4076359866
0.4154978409
0.4202899307
0.4264916765
0.4206037189
0.4257375031
0.4261728031
0.4198586297
0.4240729765
0.4302873896
0.431590736
0.4495449684
0.439824269
0.431429906
0.4318556647
0.427338308
0.4355885298
0.454144021
0.4760815948
0.4973131118
0.5108101426
0.5251462826
0.5441563437
0.5614699553
0.410296132
0.4096821994
0.404768146
0.4002604639
0.4134778029
0.4061136061
0.4068781129
0.4098986282
0.4172975295
0.4199284167
0.4196767751
0.4264499518
0.4271875486
0.435324448
0.4427889311
0.4458139549
0.4419140945
0.4299491851
0.4357090313
0.4545101366
0.4586096888
0.4742551362
0.4515290464
0.4543359804
0.4632540247
0.4530133658
0.4701151536
0.488899155
0.4966873457
0.5158383541
0.4187208932
0.4317669054
0.4285414021
0.4238304423
0.4230357193
0.4172280278
0.4218638746
0.429365231
0.4289654008
0.4243661866
0.4132266707
0.4105296807
0.4089722473
0.4154521957
0.4218627283
0.4252017408
0.4251987196
0.4361362359
0.4403914874
0.4401364303
0.4454915897
0.452600062
0.4481952813
0.443892012
0.4438290343
0.450527429
0.455023715
0.4599307076
0.4513942071
0.4743486636
0.4237358818
0.4139519316
0.423950032
0.4257606931
0.4228083078
0.4393670085
0.4404158706
0.4355352473
0.4171483934
0.4257542439
0.4301009597
0.4418205764
0.4328788873
0.4307469816
0.4150961629
0.4157270087
0.4111145635
0.4154269295
0.4126417595
0.4252410562
0.4262173514
0.4207712194
0.438646663
0.4372921821
0.4571170616
0.4478729376
0.4394609164
0.4617036925
0.4677550126
0.4695248854
0.3982158303
0.3987359604
0.410187352
0.4121660798
0.4186090739
0.409594812
0.4090111305
0.4109846205
0.4217089744
0.4109824646
0.4035909931
0.3955201672
0.4084579342
0.4140480953
0.4224476727
0.4280140402
0.4224239498
0.4223693889
0.4241845036
0.4099659586
0.4259079086
0.4299053644
0.4210502862
0.4332284215
0.4391571743
0.4575365169
0.4612329623
0.4664890639
0.4806068343
0.4760699289
0.4207630645
0.4239849896
0.4168308339
0.4074012709
0.4103121335
0.420318984
0.419528873
0.4243774326
0.4214063484
0.4182747212
0.4275550842
0.4293508154
0.4258488666
0.4307144783
0.4238066275
0.4107333318
0.4207278383
0.4232996779
0.4378592758
0.4395938609
0.4270596577
0.4287026836
0.4207975584
0.4213169255
0.4404051722
0.4491001448
0.4483229584
0.4545705792
0.4638880667
0.4653727188
0.4065473811
0.4201448867
0.4069864131
0.4181514463
0.4118590649
0.4083395715
0.411354431
0.4193434171
0.4265057022
0.4275553966
0.4199413107
0.4193152262
0.4316691966
0.4159673276
0.4184264049
0.4220853592
0.4152669675
0.4053038229
0.395149105
0.3992019675
0.4177421494
0.4195252991
0.4230804682
0.4200158457
0.4261678123
0.4367670516
0.445745467
0.4577078978
0.4571987287
0.470164838
0.4270679892
0.421184047
0.4317847932
0.425048107
0.4216515074
0.4219759241
0.4158123007
0.4082236223
0.4047596504
0.3981697595
0.4081477594
0.4013550328
0.3918113665
0.4035491419
0.4081485695
0.4113675964
0.4095774843
0.4244269864
0.4239733668
0.4205415327
0.4094515375
0.4200971755
0.4187856503
0.4192097373
0.4209443098
0.4288541166
0.42989536
0.4326707003
0.438740994
0.4461828273
0.4232224832
0.4086545757
0.4064191292
0.4039297648
0.4001923657
0.4125073148
0.4124759665
0.4059510415
0.3973257886
0.3977570396
0.4062759894
0.4143374295
0.4216004024
0.4087040984
0.410155526
0.4048605399
0.4029275653
0.4032620862
0.4085876886
0.4178901571
0.4224812772
0.4131180475
0.4135477414
0.4227835704
0.4303914281
0.4186555788
0.4232917582
0.4117400517
0.4319796395
0.4273149075
0.4156797052
0.4211754282
0.4203757351
0.4148533313
0.4135662374
0.4037512056
0.4045907003
0.4067861812
0.4136444245
0.4179228547
0.4076686965
0.4017282833
0.3971731861
0.4009312953
0.3979387637
0.4168032352
0.4111273677
0.4169051717
0.423189195
0.4295720156
0.4167572044
0.4251193823
0.4239477352
0.4178998156
0.4005876037
0.4053525119
0.4085152393
0.4248580112
0.4124422437
0.4382889063
)
;

boundaryField
{
    flow
    {
        type            calculated;
        value           nonuniform List<scalar> 
55
(
1.811716739
1.791642032
1.734586124
1.506681461
1.393425783
1.455627823
1.27178933
1.137434044
1.070447556
0.9578145487
0.8884626754
0.7773193221
0.742189448
0.6650157909
0.6143465889
0.5614699553
0.5158383541
0.4743486636
0.4695248854
0.4760699289
0.4653727188
0.470164838
0.4461828273
0.4273149075
0.4382889063
0.4156797052
0.4211754282
0.4203757351
0.4148533313
0.4135662374
0.4037512056
0.4045907003
0.4067861812
0.4136444245
0.4179228547
0.4076686965
0.4017282833
0.3971731861
0.4009312953
0.3979387637
0.4168032352
0.4111273677
0.4169051717
0.423189195
0.4295720156
0.4167572044
0.4251193823
0.4239477352
0.4178998156
0.4005876037
0.4053525119
0.4085152393
0.4248580112
0.4124422437
0.4382889063
)
;
    }
    obstacle
    {
        type            calculated;
        value           nonuniform List<scalar> 0();
    }
    frontAndBack
    {
        type            empty;
    }
    procBoundary3to1
    {
        type            processor;
        value           nonuniform List<scalar> 
36
(
1.833159674
1.83459396
1.794883434
1.843763359
1.83148849
1.83148849
1.255413144
1.270420509
1.380476961
1.442405046
1.525496447
1.564245101
1.564245101
0.7643862764
0.8030236678
0.8850930636
1.00599187
1.064955262
1.064955262
0.5430318473
0.5316948332
0.5635123917
0.6132979539
0.633216168
0.7089137575
0.7089137575
0.4333698144
0.4383809662
0.4487864346
0.4634176755
0.4567283002
0.4607955231
0.4766018458
0.4766018458
0.4084951267
0.4084951267
)
;
    }
    procBoundary3to2
    {
        type            processor;
        value           nonuniform List<scalar> 
19
(
0.4143082734
0.4136149571
0.4139525565
0.4371811706
0.4139891529
0.4293022102
0.4070464422
0.4055508766
0.4210498842
0.4180750454
0.4190237329
0.4123037561
0.4198917232
0.4020204509
0.4180189454
0.4093622451
0.4177477204
0.4249833674
0.4131618794
)
;
    }
}


// ************************************************************************* //
