/*--------------------------------*- C++ -*----------------------------------*\
| =========                 |                                                 |
| \\      /  F ield         | OpenFOAM: The Open Source CFD Toolbox           |
|  \\    /   O peration     | Version:  2406                                  |
|   \\  /    A nd           | Website:  www.openfoam.com                      |
|    \\/     M anipulation  |                                                 |
\*---------------------------------------------------------------------------*/
FoamFile
{
    version     2.0;
    format      ascii;
    arch        "LSB;label=32;scalar=64";
    class       volScalarField;
    location    "0.001";
    object      internalT;
}
// * * * * * * * * * * * * * * * * * * * * * * * * * * * * * * * * * * * * * //

dimensions      [1 2 -2 0 0 0 0];

internalField   nonuniform List<scalar> 
654
(
625.5524777
586.1394131
602.5951846
608.6127155
601.7873485
606.6737928
479.2101599
486.7972453
499.2725469
512.4310684
527.3325798
552.606554
553.9350951
561.2402552
567.204596
587.7149745
590.2627592
399.9878078
408.6666623
412.7769453
405.9323121
429.7540059
444.2460892
473.8348932
474.7216911
497.0646943
502.4251088
517.9401445
526.3358593
544.6734452
536.0361334
529.7244217
549.5622826
331.7435947
331.1951734
333.6983116
336.1559138
344.484952
344.9020084
370.231337
376.7646795
387.82137
409.7213218
426.3679795
427.2206791
442.0961545
459.1058887
467.1949008
477.6376304
492.4959441
514.182124
518.8262007
533.7948453
531.1384797
526.2989502
300.8997483
310.6762882
312.4581485
315.0985778
306.3706585
317.2716345
324.1171507
331.5404108
337.6439192
334.1960449
342.9316975
348.8029093
362.6159867
368.7421307
365.0694351
376.6016332
382.9316253
400.2987723
406.1797198
405.9452641
418.1167412
438.7313634
463.1324221
462.5777519
476.1400417
499.2602037
507.8918106
536.8117759
545.8193278
306.2043744
299.6449803
305.3189256
306.2231829
310.1246066
310.446316
305.1036281
313.6440894
317.4919684
328.900394
335.7210985
332.2351475
344.2520098
335.3708071
351.7198934
356.0431382
360.1348542
361.5867217
356.8618738
384.3712908
403.3631986
413.6227063
421.1474076
436.9083347
469.0030798
472.8538121
473.8491628
482.6735189
492.7983826
506.9427473
305.2025068
305.9341745
305.0836137
296.8776622
306.7475372
311.5570878
315.337177
312.8362993
315.5422417
322.4735222
320.9357855
315.5676223
327.2841864
323.7283393
314.3024103
326.4702284
334.4703256
356.7740001
358.3685221
356.759086
378.1829962
401.1455682
415.4447844
416.1515259
426.3630107
446.2314888
470.5045548
457.2388677
455.4519768
468.748299
300.5924034
303.7028681
310.8471085
312.4139902
319.3824523
314.7328267
312.8078138
312.9724982
310.4748692
308.7154158
305.386697
301.9909185
309.8148723
312.8346395
327.355537
325.422566
332.6295302
338.7434857
344.3702708
354.499269
350.5744817
373.2029287
379.9812436
396.5147471
407.1250606
420.0279734
440.3957563
457.8628461
464.4057911
480.3049661
309.8219367
308.731917
314.1666447
312.2956146
302.4475543
302.0137462
309.1534394
304.5370641
309.5211386
314.0765381
318.2925205
321.3553041
319.8533957
328.6420972
323.5395494
328.301499
326.8998202
336.1123696
341.5080623
339.9748812
345.0082986
341.5408563
372.646059
375.7453505
389.8705674
406.0786687
419.3901344
437.7066416
452.7379872
458.7528458
305.2510108
299.4953261
295.088957
296.9631732
294.4549384
294.3220716
293.1012
295.3388093
298.0021118
308.5858895
317.3384573
320.2688719
316.0681813
316.555536
317.2326614
316.8392166
320.9827914
320.7423197
330.1762771
333.0340227
341.6297731
356.7159416
353.2806657
372.1336818
376.8675575
393.0110069
403.0532687
406.582006
415.5485421
437.233106
302.9946089
303.0708673
299.2813162
297.4625663
303.6491913
300.8151957
305.3732231
309.2619369
309.7501822
311.179761
314.5406316
320.226609
320.7117748
316.3982806
312.3348558
309.6939232
309.9346475
316.6081942
322.9241443
332.0401136
332.458577
329.0582944
343.9235564
358.2233041
365.4901758
370.3847358
380.7776709
402.6268181
400.6516087
390.3961936
295.4834696
297.8077006
302.4936731
300.2247502
300.4299917
307.0249235
303.8245429
301.1278692
300.5684878
305.8338698
300.3751756
302.414803
306.97413
304.0648819
312.4358292
319.1959834
319.2020899
316.2416516
319.0163471
319.320687
327.8078768
332.8807837
328.913157
330.8060075
344.341013
350.2726037
359.5523614
374.0177066
378.592751
406.5663803
304.3427707
304.889946
305.8748182
302.3133013
299.7816652
302.2671116
301.0626814
305.1494371
301.512354
303.141906
308.9519458
310.051117
303.0785335
312.7534728
315.6545331
314.6856488
320.0954309
324.8228656
321.6911838
325.306602
323.3235312
325.3156883
331.5266994
332.8767062
334.2680535
341.8677784
353.861187
362.060489
370.4009993
376.626266
300.7947039
303.3337183
307.6460122
311.238587
312.8416185
302.9582566
308.7865776
305.2376432
307.2315668
300.1329706
306.7600514
307.5077533
311.6556362
310.5428083
310.2749161
319.5054669
314.4603754
313.9284067
312.8198562
317.5888309
319.822126
329.107717
330.3175326
335.8003305
333.86525
346.5291175
344.0594066
340.1702424
347.3309668
367.6691569
302.7328377
296.041103
296.6890404
296.9934737
295.3993058
299.1700146
300.7185379
302.2898207
304.2810883
308.8684017
304.8495431
306.4267636
308.7111615
300.5839124
301.4368826
303.0585926
302.2139968
310.115037
311.5924226
306.9441476
304.3968616
294.8542401
299.4558133
310.9838971
318.6610227
321.4211081
323.4555966
329.3626931
337.0240191
340.6753784
298.7537171
300.1135781
294.0555193
292.1537388
299.2626324
295.8121526
295.1509128
294.3704963
296.395726
297.1921762
299.1056595
300.0281378
296.6043143
299.4717636
302.4951713
307.4385321
305.9844504
304.3983185
300.6959327
307.4641524
313.3157478
323.2253267
313.1974218
310.0869953
311.5642368
310.4420854
319.6027432
320.7680888
318.7809789
326.6301998
293.6303191
302.4648141
301.6145635
304.0857355
302.8926144
300.6688171
306.598086
313.5705718
314.0783092
309.036078
298.923418
297.210499
299.5676682
302.3197379
305.7161163
299.9913764
296.3546236
300.7183298
302.8089599
304.9411269
307.633647
314.9092159
309.6160794
311.2689242
317.0108416
314.9591258
319.8263704
317.4450572
312.8755752
318.6946741
299.554476
297.2621635
298.8458953
300.2850716
300.4644633
305.1684984
303.2309908
301.3357345
291.3198639
297.6134015
300.732421
308.7200757
302.0515747
301.0015761
295.7089775
294.6813422
293.7951203
297.7717683
298.5228265
305.3553777
298.286042
293.5110122
303.5619121
299.4442746
306.9712078
302.7495558
298.2971846
307.5219247
316.5207716
316.2896464
293.9350156
294.3148642
297.584717
293.2514843
296.6730464
291.0544546
292.031201
289.9162768
297.0989469
295.8602186
293.0157577
288.3130511
295.1527773
298.3251439
297.0026132
303.9155729
301.4991528
300.8405841
298.4753523
288.7168066
295.7408147
302.4311566
297.9324437
304.5072588
310.9194515
313.0535946
313.2383275
313.3690326
314.9193522
309.3065738
308.3921211
309.6709505
308.0956223
305.5593327
305.3636302
310.3751862
315.7558819
314.1222085
308.9158458
298.5441373
304.5029626
308.5785159
306.1418496
312.6470323
308.0494347
305.6949678
305.9587314
301.5792004
309.7305647
313.6357086
306.345466
299.1200252
293.762074
291.0291412
298.1566821
301.1091079
310.5230172
319.5366625
321.4486327
320.9769497
296.6261782
301.1695246
300.0523739
304.7897969
300.9405944
301.0289683
293.6363776
296.4271589
302.0184946
300.4744299
297.9457012
296.1315512
303.0025252
297.142604
300.073528
297.8658163
296.6138053
295.2328115
289.3030759
292.3224965
302.2585406
302.2911466
300.2319482
304.6330073
305.7091902
309.4412052
305.6592995
301.7560038
304.0849211
314.7193448
301.7779094
299.1709565
298.8070195
294.1968903
291.5117916
294.6024209
298.544621
296.4342683
294.440258
298.9097488
305.8996707
301.1451495
290.3195745
293.2197284
293.4291118
292.3122901
291.7456497
297.8770253
299.4545343
300.3509515
298.6914159
302.7830841
301.9315568
303.7200855
302.94227
306.6361225
310.4300833
315.7115595
318.4717328
311.8016524
304.2546724
297.9985112
295.9307212
295.1731565
293.6482517
294.5371837
291.805047
286.9603026
285.9526216
282.4289787
284.4060065
288.3623619
291.9677714
291.0998861
296.564517
294.3856642
293.3135231
294.5045975
296.1250081
302.3424868
300.0149953
301.8142629
296.49745
297.4773661
296.8151556
291.5185675
287.8452419
287.4009488
294.9569217
293.6125184
302.4690736
305.3917949
307.4300643
301.7588842
305.7523837
300.0645703
300.6275428
298.0758265
299.8269882
301.8653633
293.2014832
293.9936193
293.6275254
293.287436
293.219402
298.1655013
301.5160656
302.9807158
310.3998582
309.5050165
301.5458783
305.0345846
309.8606313
300.0178414
297.963627
302.7190799
304.0654362
306.8121253
299.2128047
308.2339222
)
;

boundaryField
{
    flow
    {
        type            calculated;
        value           nonuniform List<scalar> 
55
(
625.5524777
606.6737928
590.2627592
549.5622826
526.2989502
545.8193278
506.9427473
468.748299
480.3049661
458.7528458
437.233106
390.3961936
406.5663803
376.626266
367.6691569
340.6753784
326.6301998
318.6946741
316.2896464
309.3065738
320.9769497
314.7193448
311.8016524
293.6125184
308.2339222
302.4690736
305.3917949
307.4300643
301.7588842
305.7523837
300.0645703
300.6275428
298.0758265
299.8269882
301.8653633
293.2014832
293.9936193
293.6275254
293.287436
293.219402
298.1655013
301.5160656
302.9807158
310.3998582
309.5050165
301.5458783
305.0345846
309.8606313
300.0178414
297.963627
302.7190799
304.0654362
306.8121253
299.2128047
308.2339222
)
;
    }
    obstacle
    {
        type            calculated;
        value           nonuniform List<scalar> 0();
    }
    frontAndBack
    {
        type            empty;
    }
    procBoundary3to1
    {
        type            processor;
        value           nonuniform List<scalar> 
36
(
640.1727267
612.9958439
615.9649045
619.6857786
620.4026592
620.4026592
520.2408756
511.7509039
526.8154816
536.2404784
555.9923465
562.1882094
562.1882094
403.321525
400.0656219
424.3008952
450.8750006
468.1090491
468.1090491
345.9993886
351.3869377
353.6057751
370.3833333
375.2408858
398.3638687
398.3638687
297.2209978
304.2984838
305.9991424
315.9266621
314.8365744
318.0429839
324.6880201
324.6880201
296.7062502
296.7062502
)
;
    }
    procBoundary3to2
    {
        type            processor;
        value           nonuniform List<scalar> 
19
(
301.1021035
304.68337
294.6541989
312.144936
300.1993434
305.2461446
292.4264747
300.9241878
302.2196605
303.9075498
302.7699937
294.7708798
301.854699
295.3397145
309.8928464
296.6457706
302.6548979
301.6477371
300.6048231
)
;
    }
}


// ************************************************************************* //
