/*--------------------------------*- C++ -*----------------------------------*\
| =========                 |                                                 |
| \\      /  F ield         | OpenFOAM: The Open Source CFD Toolbox           |
|  \\    /   O peration     | Version:  2406                                  |
|   \\  /    A nd           | Website:  www.openfoam.com                      |
|    \\/     M anipulation  |                                                 |
\*---------------------------------------------------------------------------*/
FoamFile
{
    version     2.0;
    format      ascii;
    arch        "LSB;label=32;scalar=64";
    class       volScalarField;
    location    "0.001";
    object      internalE;
}
// * * * * * * * * * * * * * * * * * * * * * * * * * * * * * * * * * * * * * //

dimensions      [1 -1 -2 0 0 0 0];

internalField   nonuniform List<scalar> 
654
(
1.336797524
1.721197794
2.252342913
2.109787728
1.282152991
2.55204052
0.808094178
1.8067106
1.145400114
2.179920231
2.219023729
2.194986931
3.735623003
1.597895451
1.385488277
2.915893612
2.275733802
1.777692927
1.266524463
0.6785822591
1.097064792
0.5600461317
1.294249592
1.191700718
1.626531062
2.482885263
2.163535832
2.529381336
2.607013538
2.060484034
2.348620312
2.419284034
2.538189293
0.4428168946
0.2856518616
0.148414003
0.7716782032
0.4370228625
1.500997736
0.4080318766
1.368922065
0.4209621059
1.342529448
1.286188482
0.6665234989
1.187665252
0.5025450314
0.9549958443
1.487616434
1.677081215
2.641234258
2.574220879
2.76870844
1.70636221
2.980677007
0.4073651293
0.4671969403
0.3135022615
1.078759373
0.7134734037
0.329731025
0.3802437863
0.1824863605
0.2214475031
0.5786213468
0.8149513562
0.1386511711
1.317857769
2.019587705
0.5443567258
0.5510436013
0.421669693
1.287164137
1.066721387
0.8393204599
1.688556184
1.806820471
1.525514122
1.870568447
2.284899563
3.115422791
1.376392707
1.905647332
0.4997175634
0.698761631
0.749845737
0.288811375
0.2864687362
0.244877288
0.3904015516
0.3562121399
0.2907007424
0.3453810769
0.5330504673
0.7337400738
0.3091874795
0.6931299531
0.7491577554
0.537549994
0.6369954103
0.3783792335
0.4829588813
0.4114474706
0.5213686563
0.7422246363
1.639331375
0.2807698613
0.442074967
0.4961999001
2.157919312
1.521364793
2.0388349
1.594496624
1.70998885
0.3820947111
0.08471926588
0.3398773037
0.7913056265
0.3380660582
0.4468291915
0.4920062603
0.05960384228
0.710795976
0.3765433958
0.3951990688
0.3169260616
1.099673975
0.8507468722
0.4653305632
0.3703731403
0.7301618461
0.8817009054
0.3833451513
0.4742965651
0.4059712075
0.4097625472
0.6746228089
1.187780666
0.7595806754
1.161071085
1.492909978
3.268052267
1.964618465
2.330378974
0.4376504251
0.5833219022
0.575303169
0.231963621
0.4321544783
0.264714374
0.5087931837
0.509967171
0.8420606511
0.3956329838
0.8128462482
0.2232423035
0.4843171647
0.3547811146
0.5372525927
0.744517734
0.2833505245
0.805336943
1.336252884
0.7475641122
0.4394372796
0.5101118218
1.311484625
0.3926039956
0.8520617575
1.901722897
2.628658493
0.9611468494
0.8610477184
1.18590601
0.2980477274
0.1705203855
0.1926894051
0.4106332379
0.520705999
0.09529626614
0.7250903875
0.7684981953
0.6657513896
0.4498534114
0.04405149376
0.6883234218
0.4298297314
0.2709510566
0.8044976852
0.4555386553
0.5344478319
0.7299206628
0.7843871162
0.7161925917
0.3495964849
0.6378793908
1.026869513
1.504238071
0.9527770521
1.03982355
0.9186693349
2.024874978
1.642983768
0.4716725863
0.6601460607
0.5203634806
0.5264506674
0.4647456465
0.1744284323
0.3259319656
0.2635829347
0.3361386561
0.3589959329
0.2879717546
0.4066659231
0.1609436452
0.5663149291
0.9789755684
0.608309391
0.4217163966
0.4411784572
0.110773991
1.150149209
1.7115893
0.9638222789
0.572921129
0.7890653805
0.3729524371
0.3418406413
0.4775700279
0.6473047383
1.070293953
1.323465407
2.147130882
0.1304588442
0.3570929488
0.6386537859
0.2042689217
0.6790631622
0.7281521436
0.364904195
0.542588495
0.5017580777
0.3971585972
0.2595906715
0.3966495233
0.3005642639
0.2917777063
0.5872668575
0.8038367569
0.8335018409
0.6946356702
0.5051009876
0.3171635828
0.5678807186
0.3561371641
0.7926879676
0.3352539658
0.8850072729
1.613066145
0.6034354932
0.4311000694
0.5194421584
0.8968062839
0.526557334
0.6849388544
0.5498208733
0.3844258246
0.2804270296
0.6332247433
0.2107184611
0.6725412543
0.4194492572
0.4210876231
0.6251712043
0.5649293527
0.7209259143
0.7088931289
0.4406935478
0.4850783409
0.4273478899
0.57374759
0.6457218288
0.680148723
0.112432758
0.1857898521
0.4732550773
0.4328120405
0.2902675417
0.5837712978
0.3556676428
1.542828149
0.8957449989
1.966994499
0.8287632221
0.3086665806
0.2495820448
0.5447261085
0.2224609753
0.4467333195
0.4565506243
0.4797030955
0.6353448108
0.09889305236
0.6591082441
0.6626325812
0.324333603
0.2244294696
0.295121649
0.449030873
0.4371038126
0.6479556169
0.1075255952
0.6653069369
0.2532249783
0.6113133704
0.5159323425
0.5544419326
0.5604782205
0.3302782112
0.5486783143
0.8636704141
1.012938803
0.8305936488
0.6005718114
0.2958865007
0.2309746697
0.03183207593
0.2228894823
0.1573631912
0.7409979151
0.7258454412
0.2000790734
0.6300362583
0.3385980959
0.5396461649
0.4376809287
0.2820494721
0.3243124927
0.5241360066
0.3491952391
0.4288960909
0.463128486
0.3571631485
0.4275900364
0.1860735239
0.6108363939
0.317374514
1.476033987
0.2348200155
0.7631255322
0.5795863519
0.5387549511
0.8950359915
0.7404445928
0.5318520036
0.6579889806
0.4568594218
1.063291749
0.4073952791
1.160635456
0.3370095411
0.2373455016
0.7245091648
0.4908432685
0.4329300902
0.2796638028
0.09545844857
0.5626981224
0.5497231901
0.6237743907
0.1984235264
1.084848247
0.2903505509
0.6608791303
0.5137346447
0.3977432765
0.6060388608
0.2023241979
0.1563190719
0.6574984101
0.4683520176
0.1698468803
0.7548992269
0.2274884306
0.4491957517
0.7080486506
0.3986653083
0.4858858581
0.1265583696
0.8393057958
0.5659088175
0.3992693815
0.5919682375
0.4822523101
0.5963224905
0.244662858
0.09752754757
0.4696809119
0.194356191
0.5526421183
0.7671497944
0.542246276
0.3095312489
0.665227704
0.3247155214
0.4539143084
0.2604796568
0.2340183444
0.3703167065
0.4518381245
0.3011724149
0.4408494
0.4617386207
0.5225446878
0.270059924
0.207191617
0.2765094811
0.3834066559
0.2648563598
0.3757395947
0.3010043898
0.5813404016
1.513111245
0.2775436977
0.09505574484
0.4018592939
0.8911860554
0.3099774056
0.1521418924
0.9367208576
0.7957570267
0.4156640662
0.4382672209
0.3079536091
0.5273300747
0.5818934036
0.3583486012
0.2541133299
0.6359847616
0.3311765007
0.5830915658
0.8521855534
0.2755435994
0.3513206093
0.180337554
0.5173670532
0.357404587
0.4777431828
0.5409497615
0.3869594346
0.4615139545
0.3413146071
0.8522481938
0.1330804951
0.8135336171
0.564792001
0.5256048007
0.1552144626
0.4210629353
0.2210149828
0.1973015804
0.6429727964
0.1158787997
0.6694600687
0.5372934764
0.6801943647
0.5618302656
0.4989125885
0.5732236973
0.525505154
1.781552811
0.3824422099
0.5463461919
0.304196184
0.167899847
0.5618794987
0.2358897527
0.2497907017
0.2360584832
0.5909152461
0.5176362642
0.3253922508
0.7304262825
0.8191088398
0.141298573
0.4368850251
0.2600169417
0.8056968232
0.1120960915
0.4163546169
0.5157809619
0.1897244046
0.456505049
0.3740672978
0.6861101374
0.3372377108
0.4493173738
0.4859164195
0.02615741582
0.5190649499
0.1419108922
1.108544064
0.5569202747
0.3155772756
0.4178982499
0.7632289061
0.4185990884
0.657814688
0.6680106973
0.3796513954
0.6182349001
0.4062064824
0.04718246517
0.2263437041
0.4816023091
0.620897823
0.7617106192
0.7185054882
0.4228954361
0.1331544453
0.1371204192
0.5130181321
0.2958928019
0.7448837934
0.5959449927
0.5087960591
0.3488267433
0.2946913396
0.4934206494
0.4310521687
0.1114268932
0.3163543559
1.09870825
0.4252769347
0.5212308107
0.3117959396
0.5996757459
0.4029005089
0.104227816
0.2133160538
0.5416280886
0.4969721506
0.09863547257
0.4273813551
0.2781058986
0.615242681
0.3862210643
0.3062539696
0.2391268651
0.3013603498
0.294800074
0.2818123987
0.3918945031
0.7466866489
0.3950586306
0.4389864942
0.3512162039
0.3191220062
0.5773300502
0.1145412884
0.2868185767
0.4008002321
0.2469252753
0.3456784255
0.2903663563
0.7256430764
0.594262665
0.2376352244
0.5095245173
0.630378724
0.330107533
0.806604148
0.1976524731
0.2525538724
0.5341755072
0.5443614948
0.388401658
0.2866999444
0.5148064967
0.323232649
0.05586654139
0.4047176248
0.7352692015
0.2200628228
0.2903992535
0.4423104065
1.170554349
0.4570290055
0.4708681006
0.5395811759
0.4976612839
0.3449655177
0.3012168232
0.1544025028
0.178056804
0.2261348653
0.3815047158
0.1585229067
0.4370143965
0.219352756
0.4391407765
0.513215004
0.4102875918
0.4105529194
0.6390791815
0.3040386716
0.3663203729
0.8995494788
0.2570817728
0.4814012694
0.4302069481
0.6450830512
0.4092189583
0.357285642
0.8106547424
0.5865731113
0.2391303341
0.2829969989
0.5768112994
0.4088955099
1.084663069
0.757862784
0.5233369519
0.2696976482
0.3011078432
0.535468311
0.5896772272
0.3329559279
0.7263781277
0.1630666934
0.6638803568
0.4799235517
0.4696443699
0.1191540164
0.3475575433
0.3605280894
0.4271853601
0.4593603892
0.09085279006
0.4134930096
0.3961344082
0.6056215323
0.4271113459
0.2906623559
0.1564843136
0.4430580221
0.4336083163
0.506334653
0.1178790393
0.09366346946
0.4294069157
0.1314855511
0.4240762134
)
;

boundaryField
{
    flow
    {
        type            zeroGradient;
    }
    obstacle
    {
        type            calculated;
        value           nonuniform List<scalar> 0();
    }
    frontAndBack
    {
        type            empty;
    }
    procBoundary3to1
    {
        type            processor;
        value           nonuniform List<scalar> 
36
(
2.454489916
3.820638729
3.937521234
0.9676656569
1.596022849
1.596022849
0.9850921127
1.068006725
1.788121392
2.223037571
3.612012445
4.189255223
4.189255223
1.117042354
1.34644703
1.178886503
1.44380905
2.329663068
2.329663068
0.3169350832
0.3530500559
0.2962234518
0.2879253443
0.9229598843
1.310733902
1.310733902
0.6948278364
0.862608619
0.2096908171
0.6011585082
0.5679318491
0.9628703604
0.6692529763
0.6692529763
0.07669668623
0.07669668623
)
;
    }
    procBoundary3to2
    {
        type            processor;
        value           nonuniform List<scalar> 
19
(
0.3010050809
0.4602518384
0.3390433135
0.2368730909
0.4947377761
0.460918962
0.2494429756
0.3231896677
0.5284975025
0.7809411619
0.4039032506
0.5705524734
0.2058312662
0.4969463799
0.2501008848
0.5108276263
0.1050941138
0.5195188668
0.5735947719
)
;
    }
}


// ************************************************************************* //
