/*--------------------------------*- C++ -*----------------------------------*\
| =========                 |                                                 |
| \\      /  F ield         | OpenFOAM: The Open Source CFD Toolbox           |
|  \\    /   O peration     | Version:  2406                                  |
|   \\  /    A nd           | Website:  www.openfoam.com                      |
|    \\/     M anipulation  |                                                 |
\*---------------------------------------------------------------------------*/
FoamFile
{
    version     2.0;
    format      ascii;
    arch        "LSB;label=32;scalar=64";
    class       volScalarField;
    location    "0.001";
    object      linearKE;
}
// * * * * * * * * * * * * * * * * * * * * * * * * * * * * * * * * * * * * * //

dimensions      [1 -1 -2 0 0 0 0];

internalField   nonuniform List<scalar> 
654
(
11.17020346
10.52375005
15.74624192
10.66548101
12.1184783
18.30780394
8.968899748
13.23089362
11.93315406
10.77648578
15.30003914
14.15240935
19.80483642
9.958675962
7.924613951
19.21594158
21.09105529
11.64498898
6.461828653
8.310570084
12.38678499
8.957056623
17.65181489
16.42808166
13.16012792
19.70094344
17.28617381
18.164635
15.28805916
14.69703886
7.384697269
15.83700258
16.13887405
9.600026883
3.842197922
8.701237478
5.010923715
8.287525104
18.45739267
5.906245953
11.42828686
5.504325894
15.861306
12.47051003
5.439612215
16.11550105
11.07214829
12.47794111
14.0979207
20.81937489
22.07572778
11.58577188
12.50130778
10.96950209
14.31862319
6.858935423
8.879090216
5.107590957
16.81495991
11.16708099
7.518664354
7.470627884
5.946314768
8.591510384
11.45789496
10.26439607
5.233508427
7.601550282
12.39074633
9.475578854
11.65982468
4.073250712
10.29678081
11.50124429
10.7312166
19.23886906
17.71611607
13.84459518
16.38451524
10.9255252
14.91944458
15.7250192
18.23927753
9.296348257
13.95785687
9.850687974
5.188031929
6.955092388
5.166038572
6.444626375
5.001673185
8.510627583
6.029815282
13.93922291
6.984127033
6.618360079
13.1881868
10.8659185
8.662875066
12.57998536
9.496357063
7.668463268
6.865089294
9.348866841
14.40175231
9.581584504
8.026360842
7.101926184
9.966144844
18.36388258
16.5756356
20.97507224
17.18698398
11.33317862
6.667925341
5.5725552
7.545218893
11.80013952
10.98974227
5.514513707
11.36605124
3.507128123
7.217730457
2.835069933
3.87889281
4.268966515
16.37818548
12.27740008
8.631801471
11.4239719
5.723452483
8.056266479
9.147365813
6.264427283
7.154706263
10.23098461
11.17828886
9.866145558
11.47018569
17.58202472
13.18320978
27.38815197
20.45100613
23.17850902
10.4514233
11.22103237
10.14986514
4.010986297
9.012025896
7.188448922
10.90025066
3.137100033
7.51389994
6.352052941
9.966147876
8.209117338
13.19122148
4.788043987
11.89332525
14.90100264
2.802451238
9.152644246
14.65771965
9.544389225
13.22400945
9.893307438
12.79916528
12.65846128
12.27547687
14.87610587
27.0910287
8.244889556
9.529996295
10.92202642
6.993272508
6.359572233
4.651158832
6.601159692
6.766585995
5.063435935
11.48829531
6.195812616
13.42084297
9.246215094
3.622946076
9.857768283
8.475594953
6.390909243
12.57597229
5.879258012
7.27202414
11.53453163
8.96097052
7.188466315
7.969016149
10.33821593
10.39321597
10.85915668
13.43671765
10.69497494
17.47880684
14.18438529
13.31536209
14.59126307
12.81710065
10.16483397
8.035524856
9.311425237
6.385222101
8.225601027
6.813548912
7.199757428
8.839307908
4.490356574
7.060474444
8.191037108
8.749522483
12.5621521
9.378500001
8.832486339
9.293850779
3.49723217
20.18526321
12.14029639
8.165691959
9.176766588
9.722032413
4.620745878
11.46799906
8.156691306
9.010432437
14.20188106
10.36172578
22.38302
3.852610817
6.359168981
10.05090586
6.117410446
13.89962723
12.92017366
7.684017187
5.780352578
11.05205031
9.99039785
3.351360779
8.324293902
9.196457504
5.159864966
9.998392183
11.82949439
14.46867465
9.246437426
11.76087211
8.687002685
13.22087129
7.601053539
11.25136613
5.715267615
11.143994
13.49687145
10.32254579
8.91128655
8.068306736
12.94279931
7.600263483
8.589507525
9.3716975
8.837748141
6.57630997
8.923374804
7.078554709
9.907503297
9.577330428
7.200311622
7.696646827
5.245582294
10.82462682
9.105106913
6.404580531
6.918366866
8.864527905
8.651527177
11.39573883
12.92580623
2.16662008
4.957644573
10.8526364
15.09196038
7.212495554
3.234939575
6.913075676
10.53833523
10.58244229
15.4345422
13.88699453
5.918286513
9.105540519
7.012159963
6.0604237
9.298879218
8.687289792
9.185645027
8.615288904
2.677621409
9.293233326
7.985397957
6.970519151
4.745794825
4.952070042
12.88189303
10.7385258
9.678609597
5.690639418
12.32494662
5.644462409
14.2964645
5.906534163
7.654864257
10.12651639
5.977334152
9.557047592
7.412075444
17.00963502
9.000734966
12.06771463
6.286531991
5.376329201
1.610422328
2.85739647
3.302384549
7.610179367
11.66039369
7.224521304
8.160425192
7.343150427
10.2430478
5.252635643
6.026125476
5.835899621
9.74815812
7.929234626
10.1600252
10.46057734
4.936248544
10.79631611
7.251357854
10.47706052
6.864677257
9.854588467
4.797374078
10.36165421
9.379893799
10.36225322
13.03033104
9.602637028
12.10068701
7.251833217
11.18851987
15.70193818
6.328289742
11.07706367
6.020445191
6.608238136
9.274374431
9.851377835
5.948104867
9.472752861
1.732623612
6.606641299
7.285721686
10.00976444
8.849369601
14.02676936
6.093896411
6.562702955
8.97444449
4.70334181
3.848048275
5.773265057
6.831329552
10.41279715
7.534305876
2.954962004
9.804028801
6.925279857
8.085808085
11.34240122
8.622255073
11.00806541
0.7108771295
14.54122817
11.76627997
9.36006622
10.41001648
7.054741786
7.306334664
5.977739338
3.806980342
9.949744106
5.589019139
8.675907648
9.864943473
6.161348884
4.07261915
12.47917319
6.234198135
5.984494942
8.16235581
9.874283469
10.02643544
8.235838447
7.686399478
7.083527941
12.02456088
10.72871691
5.417387276
4.181710966
4.992210278
6.02027894
7.75056593
5.33565126
5.70389193
9.41699706
12.73841352
7.664567163
6.099810194
5.703438132
11.20710345
6.097142162
4.441484435
13.32052331
12.90065894
9.809010386
5.695252032
7.557057164
10.15115587
10.68002927
7.114858782
5.696050807
12.65444888
6.854455689
8.595137082
10.96149591
6.838608051
7.096370141
7.933036873
9.183586006
6.187641698
6.879317021
10.68204466
10.72354243
13.54882204
5.830244235
11.64991991
2.210245718
14.52080215
12.99997778
9.300612589
6.122571341
10.72881748
5.63600896
6.635545389
11.38084761
2.344473925
9.206185097
5.261129128
5.763213783
12.16441166
12.31395295
11.69704948
6.189997742
13.19132086
6.069695279
7.500373435
8.074838142
4.582518247
11.88145082
5.280910142
8.752109931
6.555628471
7.85213775
9.099041467
7.454059073
12.39343321
11.34331983
4.740259766
8.229536291
3.684722113
11.3484995
3.130401328
7.130141232
9.172796754
7.295721593
5.943146873
5.926368391
12.64471478
7.302378665
11.45945564
10.06653382
0.5663825229
9.094220434
3.401630847
18.59309653
10.18087458
3.650617204
8.247980121
12.87009285
12.25041866
12.69037244
13.78343293
6.70794861
7.095356919
9.042945231
3.331567581
8.161530013
8.612353613
11.3202878
10.45641085
10.80626591
5.575061773
5.370241567
7.557827434
10.88737109
6.877687503
10.4945884
6.332111996
5.429773753
8.726029418
7.06222931
11.05519433
7.567711947
6.121668458
7.650676403
15.76331492
9.670341314
5.869879173
5.411190341
10.8819546
8.827239872
3.393851256
5.050538687
8.671146055
10.22907333
5.962032926
3.207176479
6.865324292
12.00178028
6.037741493
5.194099495
3.488364617
1.132557894
10.73547798
5.813987009
11.14644456
6.208549368
6.709059527
6.523466987
7.260630347
6.439456525
6.103038922
7.817073812
7.559961504
8.54108809
5.000857998
7.925990264
6.162186785
5.05493092
10.9801925
10.75382808
12.22893519
7.881710186
5.039240011
13.10620643
4.539683286
4.445905149
9.554799223
11.94689441
6.329800997
8.302415658
8.992232592
8.470226698
4.922151858
5.697864425
14.68981579
8.074881765
2.947517392
8.859430507
12.45513523
5.116015836
3.589246681
8.856866456
5.813695495
7.95409978
6.365944418
4.255219089
7.022212637
3.673683879
5.920389451
4.264995632
6.036334835
7.3179868
10.4576339
10.08045031
7.895378946
9.846536341
8.934599579
7.750494374
8.316633018
12.84620258
7.530721911
10.86071959
7.85171857
6.877039083
4.3972703
7.074956469
10.95182573
11.30187505
6.311652084
10.94934624
4.566762484
8.828973667
20.01824943
10.80333927
6.917221162
3.763384527
8.900923977
10.6934681
7.155598179
6.359383421
12.31740858
5.780580584
9.397067637
8.965073606
11.28183177
4.701195898
5.28210215
8.915143304
8.525328555
9.378778727
3.717791019
7.504486681
6.266514854
6.827516777
9.225636192
6.284240773
7.986798369
8.528525642
7.415261871
13.64445694
2.259550957
3.75851169
6.652367107
4.427159339
7.188789287
)
;

boundaryField
{
    flow
    {
        type            zeroGradient;
    }
    obstacle
    {
        type            calculated;
        value           nonuniform List<scalar> 0();
    }
    frontAndBack
    {
        type            empty;
    }
    procBoundary3to1
    {
        type            processor;
        value           nonuniform List<scalar> 
36
(
15.20829025
23.76167184
21.33865931
11.80037497
11.8299101
11.8299101
10.65734369
11.77004575
15.27012704
16.03251488
22.12572693
18.47265705
18.47265705
4.726374219
16.58609952
13.02401983
14.23783769
23.14640589
23.14640589
5.070358605
6.460896185
3.790231413
7.863498163
6.353786139
9.817127029
9.817127029
12.30753468
10.50753481
9.587866651
8.649870191
6.056909216
18.42385718
10.25261263
10.25261263
2.691784925
2.691784925
)
;
    }
    procBoundary3to2
    {
        type            processor;
        value           nonuniform List<scalar> 
19
(
5.006561841
9.836476371
9.30045333
5.867700014
8.748085573
8.870563873
4.140022289
6.634574691
6.557559759
9.790943631
9.80287315
8.646182309
4.264099516
8.036220994
7.353019837
12.26027602
4.391903537
8.84320245
14.24690088
)
;
    }
}


// ************************************************************************* //
