/*--------------------------------*- C++ -*----------------------------------*\
| =========                 |                                                 |
| \\      /  F ield         | OpenFOAM: The Open Source CFD Toolbox           |
|  \\    /   O peration     | Version:  2406                                  |
|   \\  /    A nd           | Website:  www.openfoam.com                      |
|    \\/     M anipulation  |                                                 |
\*---------------------------------------------------------------------------*/
FoamFile
{
    version     2.0;
    format      ascii;
    arch        "LSB;label=32;scalar=64";
    class       volScalarField;
    location    "0.001";
    object      linearKEMean;
}
// * * * * * * * * * * * * * * * * * * * * * * * * * * * * * * * * * * * * * //

dimensions      [1 -1 -2 0 0 0 0];

internalField   nonuniform List<scalar> 
654
(
13.44685886
14.01066421
14.16162419
13.99386259
14.31281701
14.32369351
12.1849087
12.48694417
12.68078561
13.17232688
13.44713801
13.53385944
13.83063044
14.02927993
14.25366501
14.14626277
14.33609842
9.823668287
10.26526013
10.41642385
10.77373296
11.30430916
11.74785226
12.176444
12.46901553
12.72812068
13.04407382
13.27036953
13.38943993
13.60631182
13.4996754
13.72001651
13.77167511
8.297863609
8.655980328
8.670115741
8.917290869
9.02068651
9.138815715
9.523677497
9.668977636
9.953552057
10.18377358
10.53107559
10.94833089
11.34934058
11.50719
11.77111988
11.9997615
12.43349289
12.71169495
12.69796176
13.30465935
13.21395956
13.3425529
7.84782132
7.889016246
7.824897843
7.903257705
8.101013136
7.940230402
8.198325125
8.04368054
8.360456843
8.553079337
8.832601446
8.891825705
9.056399503
9.091570357
9.245834085
9.639170165
9.825859458
10.01646496
10.15503939
10.15875417
10.92642641
11.2697555
11.82109496
12.09405836
12.35938163
12.48494069
12.75662371
13.4793493
13.57531938
7.636379798
7.617749398
7.548266471
7.705238491
7.660531201
7.60721795
7.937564673
8.147254001
8.462126921
8.452740961
8.401001432
8.382378085
8.561592952
8.700350307
8.744713756
9.029770371
8.935466138
8.858287346
9.237907132
9.54256994
9.958704303
10.08890042
10.32403509
10.44182811
10.89696115
11.49754225
12.18219655
12.53052988
12.35775467
13.00353706
7.902324341
7.953639087
7.875512625
8.095848754
8.160394139
8.224566324
8.309964779
8.091700925
8.205907341
8.267026352
8.370775907
8.412158724
8.443434394
8.488740739
8.159861676
8.118543347
8.277354038
8.725486464
9.086378116
9.224134713
9.278271434
9.513603913
9.778886606
10.5007109
10.97900473
11.21644781
11.53744405
11.80724658
12.37096808
12.53704888
7.961488169
7.898648725
8.157047887
8.087294498
8.158481081
8.132587377
8.02084592
8.045544117
7.744369558
7.538804733
7.770224859
7.825433635
7.850340168
7.95964562
8.414676328
8.539105586
8.698163625
8.655246328
8.624849918
8.775185917
9.388064498
9.624914338
9.840284022
9.959743486
10.10967928
10.3957308
10.74691456
11.19298197
11.51437649
11.83050151
7.895803629
7.958804118
8.076568658
7.948727121
7.836160985
7.783376508
7.917994226
7.921498092
8.012218185
8.021511034
7.901128686
8.030477459
8.221248059
8.083410201
8.157142426
8.179834163
8.226111243
8.343079493
8.751575529
8.771733729
8.836051199
8.828355835
9.217026309
9.265603971
9.359585455
9.982450764
10.19311137
10.49437415
10.85090339
11.1472056
7.770500725
7.588498765
7.641491793
7.505116781
7.513012704
7.614303204
7.732089228
7.839742767
7.796353125
7.930347025
8.010494984
7.919474282
7.994253975
8.119441069
8.113096419
8.168535991
8.395715265
8.559045766
8.457464906
8.474688801
8.748209937
8.992789983
9.220800779
9.588044937
9.859732906
9.955954579
10.40252938
10.40461225
10.57113873
10.80357797
7.841118672
7.812790846
8.002819173
8.024328085
8.204790816
8.050812674
7.904713824
7.870098431
8.004457132
7.94460568
7.970731234
7.936789417
7.855814513
7.853792605
8.02043739
8.191802713
8.012924135
8.158282771
8.354587613
8.486941302
8.464892901
8.571641826
8.601017508
8.718970713
8.989196654
9.046919313
9.646335815
10.03978205
10.35335296
10.67608668
8.054587088
8.034603718
7.815742473
7.819640746
7.910318399
8.021470616
8.093194014
8.086790877
7.99599468
8.040552253
8.275419012
8.269993077
8.354796569
8.229844774
8.185030274
8.292377328
8.202449446
7.969411178
7.991706715
7.882625789
8.032062667
8.156043844
8.350507726
8.543110346
8.729509518
8.908070045
8.90258408
9.159720037
9.58553914
9.940783033
7.668608804
7.769502397
7.800736473
7.741704727
7.622123547
7.682635976
7.79615092
7.759670954
7.802427163
7.77701036
7.608877621
7.705320931
7.742673553
7.793609682
7.81747232
7.668727661
7.818923077
7.855460596
7.880532598
8.066043114
8.103055258
8.262105225
8.156418287
8.198761868
8.373119511
8.615431014
8.941311143
9.138757164
9.368664325
9.649437385
7.984646977
7.923364108
7.945708103
7.883781099
7.880951026
7.812155066
7.709405777
7.475624798
7.416800264
7.393805546
7.537364278
7.610079846
7.496119075
7.632709734
7.682715054
7.715182655
7.846948407
7.903835161
7.867856799
7.996393661
7.894147791
8.015964917
8.313353797
8.424661024
8.443695678
8.543253296
8.597203985
8.903466244
9.085870986
9.177834498
7.768852722
7.821127791
7.755488297
7.805980801
7.591244335
7.769433191
7.774878056
7.875964251
7.912469868
7.919945114
7.892250476
7.9389368
7.851209121
7.909791303
7.947111222
8.02632864
8.109984282
8.126282501
7.927742299
7.891835474
7.953335157
8.1226473
8.090726971
8.156032162
8.304976016
8.575499352
8.703205719
8.672092766
8.818508565
9.133976383
7.781438707
7.732759586
7.818574503
7.814398147
7.897517347
7.862503087
7.889677033
7.988431762
8.081635697
8.095200853
8.035036237
8.087448117
8.151616916
8.205880991
8.287328494
8.110903557
8.144638259
8.033900604
8.234644716
8.482603211
8.350792741
8.368189774
8.234283569
8.338101955
8.407651552
8.271787198
8.271279049
8.618528002
8.703680713
8.861495949
8.040718197
8.005977345
7.982053221
7.833939332
7.859346458
7.80821015
7.759571252
7.767473097
7.687742966
7.705872682
7.804593557
7.805295135
7.785610951
7.833447754
7.862438998
8.086440072
8.120150027
8.150435427
8.222247861
8.134099297
8.246687217
8.14501613
8.244780723
8.112069123
7.946800033
8.127693725
8.08144714
8.175546824
8.098527786
8.233999127
7.997188715
7.869891675
8.0275532
8.029151459
7.994615496
8.138747277
8.16313632
8.07249236
7.999157238
8.01632032
8.018796368
8.028885864
8.045450515
8.044265056
7.873390061
7.901749231
7.921374868
7.900396512
7.844875711
7.88114697
8.0788786
8.114066779
8.187595697
8.337086234
8.543011333
8.420063395
8.304949271
8.34949058
8.167135208
8.211422006
7.695531564
7.693229047
7.783477754
7.928002776
8.010073983
7.974787662
7.883761625
8.016680555
8.021697633
7.825913581
7.778359386
7.71039371
7.808544743
7.826136955
8.086177749
7.993625494
7.933674636
7.968324132
8.031046405
7.994182231
8.108654967
8.009496665
7.954120891
7.996629814
7.883406015
8.161303869
8.182878823
8.401004623
8.65418562
8.698717425
7.797272433
7.778105896
7.684875039
7.509572327
7.527081919
7.562558411
7.468004977
7.625161301
7.739071381
7.903622315
7.919010058
7.896076691
7.861525734
7.75508368
7.744726944
7.571653008
7.883294831
7.94562948
8.036389231
7.879753688
7.865158777
8.02981344
7.975200977
8.083484385
8.277836144
8.285830745
8.176324004
8.077289148
8.156183905
8.187747754
7.830904364
7.949770172
7.724995105
7.779982417
7.800245118
7.76244518
7.988894067
7.987061891
7.975204341
8.016463581
7.969183115
7.968309802
8.007873243
7.895261109
7.901604513
7.958877996
7.831057851
7.775266859
7.725122373
7.750206984
7.835727601
7.880254501
8.033655487
7.897355454
7.962182397
8.049898224
8.254548876
8.550263115
8.433707667
8.412065054
7.975966491
7.969423511
8.17269366
8.185868277
8.200157463
8.089301622
7.896517403
7.777998799
7.788086271
7.578235567
7.559158444
7.57779476
7.660686382
7.817936704
7.911589161
8.022610522
7.996285702
8.114063358
8.016310462
7.948424996
7.799349144
7.911417256
7.901014019
7.901303814
7.939927972
7.911952522
7.899144918
7.828846269
7.840269398
8.128277454
7.898103954
7.769637791
7.812704133
7.778658738
7.784852699
8.009227266
8.15365563
8.218278557
8.082600909
8.170306987
8.251916677
8.363616421
8.325075824
8.135725619
8.015557951
7.936385605
7.883816969
7.835195995
7.898585892
7.950231741
8.061247363
7.791026097
7.948874383
8.038553806
8.205639367
8.131099624
8.2794597
8.104410406
8.369499603
8.295015656
7.81610776
7.936528506
7.873822356
7.948767723
7.816844187
7.754660076
7.731657099
7.737121072
7.847818964
7.856992359
7.880084732
7.751295728
7.743382056
7.79712359
7.726761418
7.974876212
7.798968376
7.882365359
7.763048617
7.903875687
7.824679292
7.892277414
7.798083329
7.982560622
7.698600848
7.694003915
7.638521239
7.854177612
7.832514831
8.082897672
)
;

boundaryField
{
    flow
    {
        type            calculated;
        value           nonuniform List<scalar> 
55
(
13.44685886
14.32369351
14.33609842
13.77167511
13.3425529
13.57531938
13.00353706
12.53704888
11.83050151
11.1472056
10.80357797
10.67608668
9.940783033
9.649437385
9.177834498
9.133976383
8.861495949
8.233999127
8.211422006
8.698717425
8.187747754
8.412065054
8.128277454
8.295015656
8.082897672
7.81610776
7.936528506
7.873822356
7.948767723
7.816844187
7.754660076
7.731657099
7.737121072
7.847818964
7.856992359
7.880084732
7.751295728
7.743382056
7.79712359
7.726761418
7.974876212
7.798968376
7.882365359
7.763048617
7.903875687
7.824679292
7.892277414
7.798083329
7.982560622
7.698600848
7.694003915
7.638521239
7.854177612
7.832514831
8.082897672
)
;
    }
    obstacle
    {
        type            calculated;
        value           nonuniform List<scalar> 0();
    }
    frontAndBack
    {
        type            empty;
    }
    procBoundary3to1
    {
        type            processor;
        value           nonuniform List<scalar> 
36
(
13.48131299
14.42439342
14.03896324
14.30407146
13.8334791
13.8334791
12.28335348
12.5018346
13.13785531
13.35992522
13.54320078
13.86388027
13.86388027
10.13219458
10.62167104
11.06767069
11.58316307
11.60428304
11.60428304
8.660874958
8.285641471
8.673314096
8.923211645
9.073348113
9.520363627
9.520363627
8.273400118
8.17786889
8.212668598
8.218980124
8.128542876
8.063916566
8.081391437
8.081391437
7.780478022
7.780478022
)
;
    }
    procBoundary3to2
    {
        type            processor;
        value           nonuniform List<scalar> 
19
(
7.711201105
7.669797797
7.954212943
7.912223912
7.725718438
7.98761725
7.932506471
7.663080121
7.941553303
7.825046528
7.851820163
7.898301412
7.873290115
7.721408119
7.641300052
7.906724283
7.742491715
7.966333532
7.897617101
)
;
    }
}


// ************************************************************************* //
