/*--------------------------------*- C++ -*----------------------------------*\
| =========                 |                                                 |
| \\      /  F ield         | OpenFOAM: The Open Source CFD Toolbox           |
|  \\    /   O peration     | Version:  2406                                  |
|   \\  /    A nd           | Website:  www.openfoam.com                      |
|    \\/     M anipulation  |                                                 |
\*---------------------------------------------------------------------------*/
FoamFile
{
    version     2.0;
    format      ascii;
    arch        "LSB;label=32;scalar=64";
    class       volVectorField;
    location    "0.001";
    object      momentumMean;
}
// * * * * * * * * * * * * * * * * * * * * * * * * * * * * * * * * * * * * * //

dimensions      [1 -2 -1 0 0 0 0];

internalField   nonuniform List<vector> 
654
(
(0.01390102115 0.003715201044 1.351106214e-05)
(0.0141015906 0.003850404015 1.998541811e-06)
(0.01437580658 0.003824150537 1.345304199e-05)
(0.01426920531 0.003734925896 -1.542242643e-06)
(0.01451427417 0.003983091337 3.606628698e-05)
(0.01463387455 0.003935924199 4.187330957e-05)
(0.01241622917 0.002594949207 0.0001084546079)
(0.01271587844 0.002698162945 0.0001269372227)
(0.01292071208 0.00285509277 7.445504248e-05)
(0.01346657869 0.003130633074 8.527917865e-05)
(0.01368104224 0.003384079902 0.000166086285)
(0.01386252224 0.003400359741 2.060841944e-05)
(0.01411457826 0.003516331447 4.633399472e-05)
(0.01426239726 0.003628942079 0.0001478375568)
(0.01446693093 0.003773969618 6.8496643e-05)
(0.01443493188 0.003857564861 0.0001300284267)
(0.01461259483 0.003910780531 -3.031862462e-05)
(0.01021081727 0.001111309818 4.586362927e-05)
(0.01056707478 0.001305530199 2.798893038e-05)
(0.01072995317 0.001496974283 1.547084358e-05)
(0.01105430522 0.00164370337 -3.213559778e-05)
(0.01156760421 0.001917967827 2.661076708e-07)
(0.01201064075 0.00214942618 3.063972439e-05)
(0.0123778497 0.002447169762 5.346947747e-05)
(0.01271705903 0.002578559612 0.0001549145501)
(0.01297477371 0.002759207133 8.580910927e-05)
(0.01324679459 0.00294291602 8.069774313e-05)
(0.01340368728 0.003305962807 0.0001665924865)
(0.01361373983 0.003300611604 0.000131904825)
(0.01375944846 0.003520644968 6.244032704e-05)
(0.01373808493 0.003526721654 8.572250625e-05)
(0.01392866262 0.003572579029 -1.985838587e-06)
(0.01393050998 0.00372428774 6.458308308e-05)
(0.008749016434 0.00046152656 1.586880987e-05)
(0.009119580678 0.0004367562083 1.646411565e-05)
(0.009138283489 0.00046932697 1.521599396e-05)
(0.009323767647 0.0005597468782 4.522819736e-05)
(0.009419516893 0.0006259162319 -9.223738482e-06)
(0.009522014641 0.0007249190972 -7.907888275e-05)
(0.009805845295 0.0008797933899 -2.776095255e-05)
(0.009957713006 0.001008912624 -7.442359863e-05)
(0.01022097442 0.001127887913 4.007673136e-07)
(0.01045924685 0.001358047566 -2.785269808e-05)
(0.01079225968 0.001461916714 -0.0001066727362)
(0.01114535805 0.001710696821 -5.542476839e-05)
(0.01156340031 0.001986842503 -7.776413043e-05)
(0.01166263902 0.002231984359 -5.507494898e-05)
(0.01193516595 0.002371404008 -4.945839401e-05)
(0.01217679651 0.00263923187 -7.231741539e-05)
(0.01262788746 0.002775037791 -0.0001119453028)
(0.01285479624 0.003105912128 8.548702691e-06)
(0.01293572533 0.003113677232 3.237323241e-05)
(0.01346395893 0.003507378687 9.482327731e-05)
(0.01345441213 0.003438859998 6.635362085e-05)
(0.0135225636 0.003452123543 0.0001157622193)
(0.00831583555 4.317747981e-05 4.461095466e-05)
(0.008360928171 7.285728926e-05 3.200413599e-05)
(0.008289157419 9.539484858e-05 2.753578975e-05)
(0.008368032358 0.0001404757989 2.03383949e-05)
(0.008553095797 0.0001931484807 2.565116527e-06)
(0.00838387171 0.0002267380034 -1.543951151e-05)
(0.0086295886 0.000272229771 3.448405782e-05)
(0.008488717983 0.0002565998707 9.568313888e-09)
(0.008780206127 0.0003107113215 -5.695511317e-05)
(0.008969305978 0.000342188261 -3.684531508e-05)
(0.009230432778 0.0004267891765 -2.707082743e-05)
(0.009270950448 0.0005075025409 2.031724531e-06)
(0.009442330838 0.0005581907099 -7.436831424e-07)
(0.009482389387 0.0006486864338 -2.899430297e-05)
(0.009651820685 0.0007345861083 -4.325846819e-05)
(0.009968989526 0.0009476645308 -6.688951924e-05)
(0.01015053007 0.001010712793 4.439108323e-06)
(0.01029155099 0.001293649945 4.049452614e-05)
(0.01043362474 0.001443559735 8.344675509e-05)
(0.01042024617 0.001594924715 6.334028153e-05)
(0.0111078784 0.001895116385 -6.569258545e-05)
(0.01147924197 0.001980282761 3.287866666e-05)
(0.01197080004 0.002235424158 3.440489732e-05)
(0.0122116408 0.002582248673 1.391512479e-05)
(0.01239743147 0.002798848245 -2.63989914e-05)
(0.01259901099 0.002880641934 0.0001071800613)
(0.0128679106 0.002987754782 0.0001570074141)
(0.01362086234 0.003307159076 0.0001366141055)
(0.01375679244 0.003442701657 0.0001091525477)
(0.008115137411 5.651032592e-05 -5.731241635e-05)
(0.008093009225 7.532206181e-05 -1.508302795e-05)
(0.00803374045 9.344170449e-05 1.839102217e-05)
(0.008161403541 8.603435268e-05 -3.41246757e-06)
(0.008101376919 0.00010075804 -4.27722268e-06)
(0.008028093362 0.0001316969682 2.748227269e-05)
(0.008385192947 8.389253698e-05 1.588781166e-05)
(0.008599881357 7.853845916e-05 -9.29321128e-06)
(0.008917696565 0.0001399495928 2.780436201e-05)
(0.008918004724 0.0002009320871 4.840219679e-05)
(0.008854263893 0.0002598366318 1.098459419e-05)
(0.008851314871 0.0002770598737 3.441655367e-05)
(0.009026905449 0.0003778030256 2.398033333e-05)
(0.009145910266 0.0004192568283 5.396281404e-05)
(0.009174592535 0.0004804604655 9.14606884e-05)
(0.009397596873 0.0006440673846 8.213760409e-05)
(0.009299244645 0.0007354110624 4.59395658e-05)
(0.009233651573 0.0008854863794 4.197158583e-05)
(0.00958728271 0.0009778021781 1.456251565e-05)
(0.009854032767 0.001138793575 -1.117853382e-05)
(0.01021030743 0.001306254387 4.149066117e-05)
(0.01032821367 0.001406919551 1.106323437e-05)
(0.01053777338 0.001680618081 -5.776901984e-06)
(0.01066776487 0.001853518827 9.02668945e-05)
(0.01099658837 0.002084947583 3.266705718e-05)
(0.01165815859 0.002342825917 -6.309120448e-05)
(0.01232041752 0.002522795899 -4.057101307e-05)
(0.01272267343 0.002654917727 -2.106875705e-05)
(0.01251660364 0.002849522626 4.292408752e-05)
(0.01316035233 0.003109854014 7.019914422e-05)
(0.008373001921 5.885405178e-05 -6.088171892e-06)
(0.008414473063 7.288342677e-05 -6.042584827e-06)
(0.008330863482 9.170373405e-05 -2.275135902e-05)
(0.00855507123 9.033786983e-05 -6.541359165e-06)
(0.008615873605 5.287060126e-05 1.145003797e-05)
(0.008706721813 -3.409734112e-06 4.497619092e-05)
(0.008786037026 1.762961081e-05 2.311084029e-05)
(0.008547398875 2.920394282e-05 2.994813558e-05)
(0.008639593857 0.0001085507211 5.220359117e-05)
(0.008716221764 0.0001740390788 3.747066655e-05)
(0.008844735981 0.0001800386878 2.201637299e-05)
(0.008812807908 0.000284961766 -1.114152635e-05)
(0.00885769887 0.0003102462851 -2.510134953e-05)
(0.00889069253 0.000397794264 -3.605546168e-07)
(0.008569446767 0.0004178033254 -1.490104298e-05)
(0.008553754255 0.0004370525357 4.062146128e-05)
(0.008686228611 0.0005555078215 1.374328915e-05)
(0.009053483691 0.0006919108892 -3.165045148e-05)
(0.009471935163 0.000799328718 1.209209826e-05)
(0.009572700009 0.0008842544625 6.739674812e-05)
(0.009600752053 0.00107539225 4.707017533e-05)
(0.009835344898 0.001283914517 5.143632127e-05)
(0.01009123549 0.00143514461 2.006092546e-05)
(0.01083923386 0.001563392241 -3.361737365e-05)
(0.01130816699 0.001687774682 7.131175534e-05)
(0.01146257125 0.001913709034 1.305475853e-05)
(0.01173972034 0.00223394912 -1.648536683e-05)
(0.01203998877 0.002362879621 -0.0001081778189)
(0.01257670082 0.002534284141 -0.0001369302386)
(0.01276319382 0.002717252675 -0.000124890757)
(0.008442978047 3.093744613e-05 2.063938249e-05)
(0.008383852787 2.588977163e-06 3.852353999e-05)
(0.008651207042 -8.40177475e-06 2.364439929e-05)
(0.00857559098 -1.422031679e-05 4.291011502e-05)
(0.008656842666 2.945588577e-05 5.109294271e-06)
(0.008578729722 7.789953345e-05 -5.849591023e-06)
(0.008473331619 9.009072853e-05 5.956716607e-06)
(0.008526891344 9.974651263e-05 -1.393146267e-05)
(0.008190684959 9.894932379e-05 -7.251592304e-05)
(0.007986921128 9.109029105e-05 -5.00954366e-05)
(0.008217738637 0.000100406896 -2.456152928e-05)
(0.008288600419 0.0001283431652 1.812000524e-06)
(0.008351266316 0.0002155011664 -2.347393029e-06)
(0.008413811444 0.0003196237606 8.014605866e-06)
(0.008847598436 0.0003862408548 2.692927368e-06)
(0.008958271771 0.0004633424932 -5.185412984e-07)
(0.009073959332 0.0004436067709 -8.945100211e-06)
(0.009015521176 0.0005013848357 4.55398693e-05)
(0.008962601704 0.0005889058625 -6.021625726e-05)
(0.009140657072 0.0007217113077 -9.088396375e-05)
(0.009723157683 0.0008293070647 -5.035527536e-05)
(0.009931905852 0.001000766337 3.975358017e-06)
(0.01010243433 0.001075988868 3.081180784e-05)
(0.01019985605 0.001141923387 -2.476003989e-05)
(0.01037585359 0.001424976447 -5.931649767e-05)
(0.01063886921 0.001636864477 -2.55868656e-05)
(0.01096708853 0.001788737717 1.981303063e-05)
(0.01136171556 0.001995413496 5.126393026e-05)
(0.01168710118 0.002146705098 -2.496465492e-05)
(0.01196526738 0.002340880797 -9.282534323e-05)
(0.008380579725 -4.658352382e-05 -2.05755585e-05)
(0.008475451914 -5.210093924e-06 -1.268622499e-05)
(0.008563354113 7.788154541e-06 -2.966883499e-05)
(0.00846738616 8.855576789e-06 -3.646449591e-05)
(0.008336056108 3.943741608e-05 -1.703371578e-05)
(0.008308850769 7.757044816e-05 -2.5829399e-05)
(0.00842260287 7.938000618e-05 -5.942895532e-05)
(0.008422003193 6.730046199e-05 -4.096068693e-05)
(0.008513882201 9.753806516e-05 -4.257571547e-05)
(0.008493458573 0.0001003073124 -4.648678682e-05)
(0.008374375055 0.0001418227119 -7.374923926e-05)
(0.008483082339 0.0001619993847 -7.082806418e-05)
(0.008637977562 0.0001590391672 -5.769303067e-05)
(0.008498403697 0.0002032696364 -5.380513786e-05)
(0.008536309007 0.0002192830002 -6.750248405e-05)
(0.00853322041 0.0002501880891 -4.375501442e-05)
(0.008621192749 0.0004073682463 -2.445894633e-05)
(0.008756867305 0.0004079283482 -2.358381303e-05)
(0.00913977642 0.000495079917 -2.376686493e-05)
(0.009147609949 0.0005249028621 1.030177458e-05)
(0.009215107814 0.0006134546316 3.237542962e-06)
(0.009181621991 0.0007461131086 1.804657344e-05)
(0.00954515275 0.0009467094832 1.310012443e-05)
(0.009573735272 0.001052077708 4.72507386e-06)
(0.0096544794 0.001137238263 2.060476404e-05)
(0.01022627097 0.001383567577 -3.046055684e-05)
(0.01042455873 0.001476699157 -5.384099957e-05)
(0.01076919248 0.001597494628 -3.244808329e-05)
(0.01113392424 0.001799612267 4.61460926e-05)
(0.01134939213 0.002030874535 -2.588438643e-05)
(0.00824845701 -3.15416704e-05 -4.960050335e-06)
(0.008085403168 -5.19100789e-05 9.22039293e-06)
(0.008144263435 -4.041146506e-05 -1.73870666e-06)
(0.0080151335 -2.8475193e-05 -6.695136615e-06)
(0.008027697184 1.315605063e-05 5.984205241e-06)
(0.00809251409 2.286502382e-05 2.964650808e-05)
(0.008202535039 3.009182837e-05 5.702984836e-05)
(0.008258966077 7.563623916e-05 2.451269922e-05)
(0.008216742291 8.196675208e-05 2.398442284e-05)
(0.008351694993 6.251351681e-05 1.356338635e-05)
(0.008431604571 0.0001251703871 3.649633708e-06)
(0.008325887221 0.0001079221428 1.306868704e-05)
(0.008412971951 0.0001061210139 -3.550285651e-05)
(0.008558331159 0.0001130839165 -3.967828007e-05)
(0.00854778137 0.0002459508267 -4.715937471e-05)
(0.00863539528 0.0002502520487 -8.215575013e-05)
(0.008844659284 0.0002935669808 -5.96908741e-05)
(0.009004365466 0.0003122196546 -8.057073579e-05)
(0.008888321554 0.0003437661418 -5.617180308e-05)
(0.008903810462 0.0004065615959 -6.249934154e-05)
(0.009187965455 0.0004893234329 -7.971184182e-05)
(0.009468698554 0.0006020618892 -6.0393958e-05)
(0.009615659542 0.0007784494523 -5.91688158e-05)
(0.009979180143 0.0008899674348 -7.537312715e-05)
(0.01026926094 0.0009764267781 -8.619096414e-05)
(0.01035616439 0.001074410214 -1.591461348e-05)
(0.01074005108 0.001350915465 -4.104710763e-05)
(0.01072589645 0.001521665594 -7.012418254e-05)
(0.01082861209 0.001622963263 -7.094461372e-05)
(0.01110643425 0.001703525577 -1.299732215e-05)
(0.008306859316 2.1963122e-05 -1.038063306e-05)
(0.008281912702 2.198044843e-05 -7.819028787e-07)
(0.008443749868 5.206811661e-05 3.615399529e-06)
(0.0084497763 3.110508379e-05 4.135097879e-06)
(0.008626893012 -1.593637488e-05 -2.969715105e-05)
(0.008469813773 5.886540182e-07 -1.902002844e-05)
(0.008308187439 3.596610303e-05 -1.710944162e-05)
(0.008311664765 1.983548738e-05 8.951295777e-06)
(0.008462205084 1.181130491e-05 7.894260859e-06)
(0.008412995906 0.0001013291023 2.072749169e-05)
(0.008453158277 0.0001089457074 6.940007357e-06)
(0.008421725313 0.0001139849924 2.1727269e-05)
(0.008365853751 0.0001008797878 5.625755758e-05)
(0.008298956977 0.0001425440935 1.800110929e-05)
(0.008438968799 0.0001031444196 -1.552965614e-05)
(0.008560311629 0.0001102507348 -4.069360649e-05)
(0.008395571213 0.0001238855039 5.855114829e-06)
(0.008538042745 0.0002306520692 -8.793833397e-06)
(0.008761321952 0.0002772656614 9.112270655e-06)
(0.008924369492 0.0003374440024 2.420438751e-06)
(0.008893351754 0.0003639319454 -2.832338129e-05)
(0.008974250713 0.0004176648916 -3.645401776e-05)
(0.009087466631 0.0004887903048 -1.077640472e-05)
(0.009185348275 0.0006006807176 -4.041973631e-05)
(0.009430578218 0.0007467783929 -7.620344566e-05)
(0.00950586221 0.0008451765269 -6.260847942e-05)
(0.01003415585 0.001037796991 1.292020272e-06)
(0.01034528352 0.001263928545 4.500732968e-05)
(0.01068013369 0.001487808205 1.104209964e-05)
(0.0110170809 0.001582856519 -5.111985335e-05)
(0.008517440946 1.070682146e-05 -3.164702109e-05)
(0.008494597185 1.737444802e-05 -3.79014252e-05)
(0.008281986799 9.618477796e-06 -1.367352081e-05)
(0.008296201329 1.025160955e-05 -1.201624656e-05)
(0.008391344403 2.469020768e-05 -1.667146387e-06)
(0.00850179208 -4.650426112e-06 5.652451569e-07)
(0.00859461331 8.299865691e-06 1.291585106e-05)
(0.008625065892 1.068805236e-05 -5.152030101e-06)
(0.00850452465 7.56929224e-05 -2.101606866e-05)
(0.008535577214 6.681993735e-05 1.723929291e-05)
(0.008761221721 7.793493285e-05 4.084679057e-05)
(0.008751424765 0.0001346853337 2.04475575e-05)
(0.008825230339 0.0001379971302 4.385492575e-05)
(0.008733344001 9.340669824e-05 1.038010429e-05)
(0.00867860671 0.0001461662734 1.184958809e-05)
(0.008788391066 0.0002011242285 -1.990179096e-05)
(0.008735909202 0.0001622949544 -3.678018477e-05)
(0.008480212267 0.0001236115 5.323909989e-06)
(0.008458788992 0.0001865233298 -3.499184286e-05)
(0.008324848785 0.0002603970642 9.269907311e-08)
(0.008453721869 0.0003123138621 1.855963976e-05)
(0.008561663297 0.0002941150039 9.234666721e-07)
(0.008731741644 0.0003340145269 -5.2898443e-06)
(0.008919327135 0.0004736607441 1.997220024e-05)
(0.009074064541 0.0005962996273 -1.351618036e-05)
(0.009254158763 0.0007172822018 -4.301727938e-05)
(0.009287232638 0.0008132085768 -6.127543574e-05)
(0.00952141765 0.0008727390977 -1.166862268e-05)
(0.009875774656 0.001056437911 1.389250508e-05)
(0.01019429094 0.001330630322 3.180215856e-05)
(0.008141711728 -5.833069997e-06 3.343455423e-05)
(0.008229212235 -5.191762381e-05 -1.542361807e-05)
(0.008262837451 -3.420576457e-05 -1.741218169e-05)
(0.00821876737 -3.517065081e-05 -1.655282591e-05)
(0.008110051995 -4.090427639e-05 -4.97380389e-05)
(0.008170403509 -2.747118838e-05 -3.004450962e-05)
(0.008259677583 -1.451247282e-05 -3.456178403e-05)
(0.008207453705 4.327500576e-05 -3.217383477e-05)
(0.008267117817 -2.090095905e-05 -3.238337918e-05)
(0.008254836579 2.39297538e-05 -1.622210565e-05)
(0.008078080673 2.673697189e-05 -9.054341008e-06)
(0.008149347909 2.080906903e-05 -2.997259635e-05)
(0.008190931811 7.136155747e-05 -3.574284739e-05)
(0.008253832919 9.241691787e-05 -1.723291385e-05)
(0.00827788523 0.0001126616628 1.343093666e-05)
(0.008116453934 0.0001539466699 1.497540488e-05)
(0.008270505335 0.0001787076375 2.899712803e-05)
(0.008312784907 0.0001500507523 4.707851831e-05)
(0.008367797361 0.0001663287554 3.442649802e-05)
(0.00855028201 0.0001684241488 -1.109150684e-06)
(0.008575648446 0.0002119294757 -4.24791399e-05)
(0.008719840569 0.0003098531689 -3.875892305e-05)
(0.008596906336 0.0003468287431 -2.107983431e-05)
(0.008625905336 0.000354179772 -2.593588878e-05)
(0.008791125345 0.0004105747429 2.640006028e-05)
(0.0089914698 0.0005226220858 4.943116622e-05)
(0.009289905691 0.0006105658361 1.215306192e-05)
(0.009509585734 0.0007181021617 -4.006487904e-05)
(0.009707198539 0.0009227075867 -2.700437224e-05)
(0.01000371596 0.001042802699 0.0001006186336)
(0.008454393549 -2.767114563e-05 -5.188501767e-05)
(0.008372563558 2.497569671e-05 -1.60102083e-05)
(0.008401144598 1.082275631e-05 -5.958115173e-06)
(0.008354117013 1.004684559e-06 -3.290390376e-05)
(0.008336833693 2.566124145e-05 9.951056634e-06)
(0.008302210242 1.705683357e-05 2.946898862e-09)
(0.008207025646 -1.603751898e-05 -2.736536747e-05)
(0.007955609958 7.240385616e-06 -2.313271171e-05)
(0.00785886249 4.572124839e-05 -5.700563467e-05)
(0.007858544962 3.78474868e-05 -8.716696879e-05)
(0.007998713636 2.888821682e-05 -6.430684916e-05)
(0.008074163787 3.742513023e-05 -3.940583788e-05)
(0.007934683516 2.873804744e-05 -3.196499977e-05)
(0.008060308965 4.69818504e-05 -3.144308558e-05)
(0.008152883458 4.688986321e-05 -2.548228683e-05)
(0.008175957252 6.769199803e-05 -3.926866072e-05)
(0.008293363896 0.000140634942 -7.504398902e-05)
(0.008365002986 0.0001385144138 -3.547210453e-05)
(0.008315127993 8.940508116e-05 -2.148590335e-05)
(0.00845668507 9.27316273e-05 1.546740629e-05)
(0.00834721624 0.0001476284646 3.685681973e-05)
(0.008452880015 0.0001867233066 3.80572197e-06)
(0.008725839309 0.0002523507064 1.397411894e-05)
(0.008851834491 0.0002942361662 8.49526825e-06)
(0.008896343983 0.0003620385321 -1.011235479e-05)
(0.008985047562 0.0004433581472 1.085238929e-05)
(0.009044223654 0.000455944253 3.799348809e-06)
(0.009310570852 0.0005455342991 1.944157313e-05)
(0.00948779689 0.0006704440744 5.131903921e-06)
(0.009603585536 0.0007507282033 -6.849203967e-06)
(0.008258311013 2.31345546e-05 -4.914433792e-05)
(0.00829123315 7.723629084e-06 -3.691403876e-05)
(0.008230247483 -5.358413204e-06 -4.933802559e-05)
(0.008281790215 -1.147041424e-05 -1.681454813e-05)
(0.00805027292 5.165771281e-05 -4.230943117e-05)
(0.00822387164 7.55330503e-05 -1.146957016e-05)
(0.008216503755 6.344907747e-05 -1.10492159e-05)
(0.008334740307 6.445322199e-05 2.054585416e-05)
(0.008368928516 4.098831952e-05 3.798236378e-05)
(0.008363045026 5.172837205e-05 2.301562641e-05)
(0.008341327137 4.772322959e-05 1.563816803e-06)
(0.008396213164 4.950779707e-05 -2.228277057e-07)
(0.008296754258 7.445984676e-05 6.691371221e-06)
(0.008369240369 6.23173804e-05 -9.852285032e-06)
(0.008428563099 4.911376966e-05 -2.597033923e-06)
(0.008500340537 1.7932279e-05 1.300119809e-05)
(0.008578291031 5.632319589e-06 6.224398912e-06)
(0.008624862833 8.436789314e-05 -1.871764012e-05)
(0.008417870549 0.000106496775 4.316224483e-06)
(0.008374270237 0.0001506586762 4.46622429e-06)
(0.008431472749 9.969541705e-05 -2.510388351e-05)
(0.00860785967 0.0001193872333 -3.29354836e-05)
(0.008593998812 0.000163169027 -5.167705184e-06)
(0.008622539512 0.0002274203199 -4.072856348e-06)
(0.008795962098 0.0001983606809 3.290024217e-05)
(0.009072256632 0.000256199037 -2.180023883e-06)
(0.009192980486 0.0003954502795 -2.033521633e-05)
(0.009196275272 0.0005007697714 -3.068548311e-05)
(0.00930409913 0.000541063858 -5.251364777e-05)
(0.009540842884 0.0006554512621 -5.387881871e-05)
(0.008274691442 7.409959597e-06 1.289982547e-05)
(0.008212171043 1.752373494e-05 1.297432979e-05)
(0.00829284051 5.074530905e-05 -1.925477093e-05)
(0.0082734196 6.947681813e-05 -2.473922076e-05)
(0.008354016781 3.023416482e-06 -3.112622316e-05)
(0.008313261393 1.171962751e-05 -2.094204607e-05)
(0.008337638997 1.926637262e-05 -1.963546781e-05)
(0.008438270342 1.905176894e-06 -1.56521802e-05)
(0.008528280314 2.851213908e-05 -4.025824186e-05)
(0.008556118837 5.386242158e-05 -1.387082383e-05)
(0.008496332904 1.576811506e-05 -9.680870574e-06)
(0.008569657282 3.54433657e-06 -2.091604603e-05)
(0.008652513463 3.911269538e-05 1.02120864e-06)
(0.008717715249 4.649136181e-05 5.7964527e-06)
(0.008777780706 8.392758463e-05 -2.898213469e-05)
(0.008627260367 0.0001250981348 -3.924183645e-05)
(0.00864300765 9.772145355e-05 -3.733656262e-05)
(0.008488890484 8.588724475e-05 -3.499905349e-05)
(0.008691479084 6.418292371e-05 -5.539390249e-05)
(0.008923267496 6.972889708e-05 -7.451689448e-05)
(0.008780526011 0.0001596616831 -1.803698258e-05)
(0.008804083518 0.0001596002957 1.140799051e-05)
(0.008655432573 0.0001790273343 1.561615056e-05)
(0.008767655169 0.0001547870032 -4.230769957e-06)
(0.008864465118 0.0002167300085 -5.228439434e-06)
(0.008708630544 0.000200110447 -1.638926419e-05)
(0.008704654357 0.0002609617132 1.128895973e-05)
(0.009040394123 0.0002891542648 1.563509481e-05)
(0.009143509967 0.0004133411757 1.661365755e-05)
(0.009263946976 0.0004681147184 1.122553829e-05)
(0.008549955546 7.979779018e-05 -3.55195859e-05)
(0.008549808004 5.244375437e-05 -5.684239149e-06)
(0.008516838161 4.750372084e-05 -1.927892112e-05)
(0.008358856356 2.391729948e-05 -5.198473997e-05)
(0.008374712045 2.395586792e-05 -1.674881339e-05)
(0.008320272691 2.137071178e-06 -3.350560414e-05)
(0.008256246384 1.355711337e-05 -3.398993744e-05)
(0.008243153885 8.325471746e-06 -4.427209682e-05)
(0.008179031266 -7.695918664e-06 -4.581780948e-05)
(0.008210078458 -4.780772224e-05 -5.4710068e-05)
(0.008282502579 5.501151371e-06 -6.376071668e-05)
(0.008282757171 5.102790356e-05 -4.002194813e-05)
(0.008222330273 4.532583397e-05 -6.905919665e-05)
(0.00828198839 2.346561174e-05 -8.619953506e-05)
(0.008298794664 1.430512992e-05 -6.935564708e-05)
(0.008531371604 -1.078758237e-05 -4.98040143e-05)
(0.008590288799 3.499458063e-05 -5.096293669e-05)
(0.008668646391 4.972009268e-05 -5.790515271e-05)
(0.008711351287 0.0001124740961 -1.157430834e-05)
(0.008631327511 9.063624979e-05 -1.920452915e-06)
(0.008715437051 9.380758856e-05 -1.606160736e-05)
(0.00861435551 9.234941434e-05 -3.272389946e-05)
(0.008693058758 0.0001274801459 -1.421141145e-05)
(0.008542128554 0.0001866072241 -1.900720613e-05)
(0.008376998349 0.0001762096902 -7.820026651e-06)
(0.008533577495 0.00019288998 9.888880477e-06)
(0.008496641834 0.0002324812574 2.859789149e-05)
(0.008588841734 0.0002886133097 5.084400454e-05)
(0.008506795309 0.000305445048 5.185742337e-05)
(0.008678148641 0.0003671155591 1.440556659e-05)
(0.008497867043 5.325989363e-05 -3.357012554e-05)
(0.0083659914 5.014633199e-05 -2.360924545e-05)
(0.008523091538 5.280235885e-05 4.506119527e-06)
(0.008528456261 5.089532318e-05 -2.287578308e-06)
(0.008482830311 5.890739594e-05 -2.413057707e-05)
(0.008654062514 5.083205596e-05 -7.824585847e-06)
(0.008705818152 4.487165518e-05 9.391942475e-06)
(0.008628412143 3.981519491e-05 1.606045668e-06)
(0.008554390395 1.511864735e-05 1.364125249e-05)
(0.008551584741 4.296566579e-06 1.552233737e-05)
(0.008564636828 6.240081388e-06 -1.449459424e-05)
(0.008572528371 -2.583306128e-05 -1.242708976e-05)
(0.008583236677 -4.498337754e-06 -1.379690625e-05)
(0.008567716692 -1.79774847e-05 -1.238909468e-05)
(0.008384102652 1.612091907e-05 1.005633593e-05)
(0.008422206273 -4.331950144e-07 3.77922688e-06)
(0.008388849758 2.497605141e-05 7.74368158e-06)
(0.008361559578 3.17679045e-05 -9.070603674e-06)
(0.008282464898 3.277174378e-05 -2.053131506e-05)
(0.00834135377 5.555680545e-05 -1.255662441e-05)
(0.008542052904 0.0001065449233 -2.074809762e-05)
(0.008575483835 0.0001233699754 -2.82699434e-05)
(0.008647471489 0.0001730235828 -6.732002948e-05)
(0.008768017919 0.000174192726 -3.279849118e-05)
(0.00895114832 0.0001986708514 -7.990362304e-06)
(0.008858689187 0.0002341004007 -1.428932999e-05)
(0.008786642663 0.000192408056 -2.707814669e-06)
(0.008844848425 0.0002382887261 4.040082158e-06)
(0.008689062334 0.000203189477 -6.831911412e-05)
(0.008719558499 0.0003060277407 -5.678532859e-05)
(0.008180923918 -1.502389901e-05 3.331674925e-05)
(0.008176984832 5.453152167e-06 4.368156376e-05)
(0.008290695321 1.693745606e-05 1.907540651e-05)
(0.008435985258 3.471743244e-05 2.087950893e-05)
(0.008500637701 9.716880804e-06 2.940066628e-05)
(0.008474178693 1.242056522e-06 -3.442274034e-06)
(0.008400097772 2.251088015e-05 -1.897472472e-05)
(0.008520928697 4.479783667e-05 -1.043361752e-05)
(0.008526159649 4.845233089e-05 -1.993880812e-05)
(0.008334050792 5.422984798e-05 -1.460380511e-05)
(0.008269686536 1.369453304e-05 -1.578360971e-06)
(0.00821427208 -1.47695197e-05 -1.079882108e-05)
(0.008306881948 -5.048537702e-05 -3.4374507e-06)
(0.008327179472 -2.134954996e-05 -1.547329104e-05)
(0.008568000965 -2.217606593e-05 -1.532089677e-05)
(0.008475778808 4.145905707e-05 1.529852437e-05)
(0.008413731382 3.767757331e-05 2.975231807e-06)
(0.008447567926 6.964398068e-05 2.041541875e-05)
(0.008528497019 6.128033394e-05 6.182195837e-05)
(0.008489913697 6.560052953e-05 5.129462884e-05)
(0.008616049057 5.839695833e-05 3.942735197e-05)
(0.008502840386 5.069446275e-05 5.227001946e-05)
(0.008449245955 6.164541848e-05 7.600202461e-05)
(0.008493172904 8.324320332e-05 3.796142656e-05)
(0.008391911398 0.0001283771818 6.441972808e-06)
(0.008639541385 0.0001787626634 -8.035527987e-06)
(0.008695621459 0.0001873538347 -4.938319158e-05)
(0.008851704712 0.000195129186 -2.900086684e-05)
(0.009082767225 0.0002129399371 -6.998759419e-06)
(0.009134443559 0.0002033019683 -3.723467926e-05)
(0.00824909898 5.223779312e-07 -6.17450593e-05)
(0.008252637938 -3.146779895e-05 -7.282735984e-05)
(0.00815303708 -4.251301026e-05 -6.347005346e-05)
(0.008000738379 -6.934713982e-05 -5.414642412e-05)
(0.008032753219 -1.814875216e-05 -5.89451222e-05)
(0.008073492957 1.17302875e-05 -5.480233901e-05)
(0.007952006003 4.540402021e-06 -3.896679036e-05)
(0.008107368266 4.191798586e-06 -3.41627883e-05)
(0.008212604626 2.691273529e-06 -2.00961676e-05)
(0.008399726468 -1.105624518e-05 -2.729270211e-05)
(0.008422825509 1.935084841e-05 2.537898333e-06)
(0.008376543479 -3.001492421e-05 9.17745882e-07)
(0.008354177951 5.929830159e-06 -1.200701321e-05)
(0.008262667968 -1.628428975e-05 1.586923695e-05)
(0.008254956924 -3.735247341e-06 1.746642195e-05)
(0.008064308333 -2.128130528e-06 9.260668846e-06)
(0.008320656138 1.974703463e-05 -7.094764083e-06)
(0.008439992392 2.011633656e-05 2.028900744e-05)
(0.008505130355 5.09429924e-05 1.745760428e-07)
(0.008379428459 1.982275857e-05 -1.220347522e-05)
(0.00835954733 2.963148785e-05 1.851279741e-06)
(0.008548399608 7.512298609e-05 5.175060458e-06)
(0.008520601851 8.104768894e-05 -6.691475133e-05)
(0.00860161226 0.000106947413 -8.422920764e-05)
(0.008800268466 8.953812646e-05 -6.145658623e-05)
(0.008788051147 0.000111657938 -3.833928836e-06)
(0.008631734811 0.0001712026914 -6.392537591e-05)
(0.008514938926 0.0001747428688 -9.931948641e-05)
(0.00859782168 0.0001777375648 -4.798003672e-05)
(0.008649861233 0.0001664373487 -7.012090447e-05)
(0.008289542617 3.909378224e-05 -2.305543436e-05)
(0.008420718918 1.680842456e-05 -7.18167655e-06)
(0.008185852342 3.556528279e-05 -8.539631166e-06)
(0.008259831076 3.232702216e-05 -2.895409919e-05)
(0.008259898899 1.142047973e-06 -1.438399602e-05)
(0.008218945657 -6.235999431e-05 2.066345828e-05)
(0.00846838926 -8.03479993e-05 3.086643668e-05)
(0.008499753742 -5.858585839e-05 2.008217434e-05)
(0.008480977865 -4.397818292e-05 1.461499249e-05)
(0.008534162086 -2.904170619e-05 2.213590719e-05)
(0.008480213346 -1.160875981e-05 -5.035417372e-06)
(0.008491696964 3.163740355e-05 6.564797309e-06)
(0.008542509657 5.029298284e-06 1.51048883e-05)
(0.008413445623 1.292550935e-05 1.044474336e-05)
(0.008400980097 2.10115682e-05 7.026134484e-06)
(0.008491113549 2.735324703e-05 -1.815040359e-05)
(0.008373895074 1.588790084e-05 -2.455246439e-05)
(0.00826601322 -2.150296275e-05 -3.85928355e-05)
(0.008227766076 -2.205321164e-05 -3.865368389e-05)
(0.008238526805 4.710755249e-05 -5.534801163e-05)
(0.008332115539 3.149576797e-05 -3.955465945e-05)
(0.00836088486 1.878812046e-05 -5.504736321e-05)
(0.008506735025 4.034493632e-05 -2.544745142e-05)
(0.00835607221 2.127859993e-05 -1.644210322e-05)
(0.008424896165 7.782409322e-05 -2.091081538e-05)
(0.008499833794 9.050424219e-05 8.274676084e-06)
(0.008748341945 0.0001192270352 -2.879582055e-05)
(0.009052317618 0.0001379859843 -1.742861625e-07)
(0.008942136853 0.0001583697203 4.2562776e-06)
(0.008894406441 0.0001795772625 -3.942280525e-06)
(0.008498472734 -3.08203687e-05 4.486762577e-06)
(0.008470210853 -2.13312601e-05 -1.60634839e-05)
(0.00869240817 -2.560832232e-05 -3.647069203e-05)
(0.008699730694 -9.765999085e-06 -1.006880647e-05)
(0.00870486823 4.183869876e-06 -1.813614632e-05)
(0.008607841569 3.226737206e-05 -3.072114768e-05)
(0.008385218232 2.142773321e-05 -3.670482333e-05)
(0.00827350454 1.100198998e-05 -3.110059703e-05)
(0.008280782741 1.128705e-05 -3.263056035e-05)
(0.008036622484 -9.781076223e-06 -2.995725096e-05)
(0.00803900858 -2.846952181e-05 -1.795311572e-05)
(0.008044688535 -2.231785313e-05 -1.288999196e-05)
(0.008139817603 1.900053562e-05 -7.228187867e-06)
(0.008293552786 3.643114801e-05 4.390300015e-06)
(0.008381097606 5.09239755e-05 8.380951097e-06)
(0.008496947074 -2.940971161e-06 4.036440183e-06)
(0.008478261355 1.049050027e-07 -6.211416628e-06)
(0.008600802177 2.23583882e-05 -1.929258085e-05)
(0.008528920031 2.252289029e-05 -4.598763765e-05)
(0.008434618539 -2.197428246e-05 -8.485800693e-05)
(0.008268898692 1.630834833e-05 -9.217056497e-05)
(0.008383542618 3.353539926e-05 -5.577768468e-05)
(0.008364303998 2.083812837e-05 -5.76218543e-05)
(0.008352998296 1.980081194e-05 -3.410613817e-05)
(0.008401614039 -6.464663925e-06 -4.06266355e-05)
(0.00838546183 3.760602463e-05 -1.451872855e-05)
(0.008347215887 2.96818335e-05 -2.41179776e-06)
(0.008247691587 8.212215362e-05 -4.304339118e-06)
(0.008266849444 0.0001256455303 -3.670619231e-05)
(0.008556589255 0.0001756765753 -4.685241916e-06)