/*--------------------------------*- C++ -*----------------------------------*\
| =========                 |                                                 |
| \\      /  F ield         | OpenFOAM: The Open Source CFD Toolbox           |
|  \\    /   O peration     | Version:  2406                                  |
|   \\  /    A nd           | Website:  www.openfoam.com                      |
|    \\/     M anipulation  |                                                 |
\*---------------------------------------------------------------------------*/
FoamFile
{
    version     2.0;
    format      ascii;
    arch        "LSB;label=32;scalar=64";
    class       volVectorField;
    location    "0.001";
    object      momentum;
}
// * * * * * * * * * * * * * * * * * * * * * * * * * * * * * * * * * * * * * //

dimensions      [1 -2 -1 0 0 0 0];

internalField   nonuniform List<vector> 
654
(
(0.009995460574 0.007077757985 -0.0002912413678)
(0.01045484232 0.004491964528 -0.0008012948935)
(0.01415833355 0.0033606716 0.000103141369)
(0.01201211158 0.001473607022 0.001335841855)
(0.01164580621 0.005078893114 -0.0009627876782)
(0.0181947821 0.005231314584 0.001321036506)
(0.008891207873 0.002413960027 -8.934963142e-05)
(0.01321213993 0.005749041511 -0.0006557144122)
(0.01141365427 0.004055334156 0.0001248664921)
(0.01192400164 0.004187672653 0.001218870157)
(0.01659036873 0.003099383102 0.001541281603)
(0.01527497162 0.003945755882 -0.001313197606)
(0.02124244708 0.006378960706 -0.001123038842)
(0.01075527252 0.00292105605 -0.0001583776612)
(0.008638187627 0.003057504211 0.0009848549887)
(0.01657094723 0.008627194176 -0.002069843224)
(0.02018982392 0.00806626006 0.001988861945)
(0.01215528505 0.002472166736 0.0006166943721)
(0.0078325031 0.0002168611555 0.0005413703032)
(0.009234012113 0.00111839864 0.001358199933)
(0.01420722805 0.001696877065 8.669955311e-05)
(0.009551124232 0.001946091264 -0.0004950622458)
(0.01885280518 0.002224282735 -0.0003019793749)
(0.01621784424 0.003623475758 -0.0003752650728)
(0.01365250125 0.005800746194 0.0009658595274)
(0.01734425535 0.007401705489 -0.002116699297)
(0.01749388839 0.005221569411 0.0002402783678)
(0.01737238481 0.005797985316 -0.0005526429827)
(0.01552236538 0.00740372334 -0.00025750275)
(0.01507469171 0.004791212067 -0.0009789666559)
(0.009049903093 0.002969926324 0.0004185893017)
(0.01666414815 0.004461113681 0.000833175869)
(0.01775832717 0.005654299698 0.001161903834)
(0.01065998213 -0.000413080429 0.0001623278986)
(0.004471953412 -8.228451189e-05 0.0006646156138)
(0.007934286086 0.0009369860117 -0.0007179807729)
(0.005049538368 0.0009807855501 0.0002887855798)
(0.008893557004 0.0001935853679 0.0001737156484)
(0.01805821011 0.003459880307 0.0005544875154)
(0.006008971066 0.002006027456 0.0003527173494)
(0.01269601162 0.001879594487 0.0006583648534)
(0.005903397743 -0.0001753631333 -0.0002963561945)
(0.01446716042 0.003837269203 0.0009337291924)
(0.01225212446 0.002836825917 -0.001897666005)
(0.005438413073 0.0004664038338 0.0008108348409)
(0.01785248816 0.003425124678 -0.0003423978611)
(0.01219476747 0.001218084042 -0.0002909864048)
(0.01152549524 0.002464456992 0.0007855394561)
(0.01566549608 0.002540881076 0.0018001551)
(0.02288175118 0.005909054098 1.150665458e-06)
(0.02286648965 0.006525183363 0.0004886386849)
(0.01201985567 0.002338185935 0.0008796598079)
(0.01248330448 0.004993145791 0.001407144071)
(0.01237821816 0.002600897005 0.0005287061371)
(0.01452796984 0.005246315492 0.0006334940701)
(0.007845329761 -0.0001220942658 -0.000376135522)
(0.008683776752 0.0002351256741 6.725359646e-05)
(0.005704457252 -1.080377423e-05 3.421858993e-05)
(0.01713856328 0.0007306730685 -0.0006952515083)
(0.0107498186 0.000995352683 0.000996467553)
(0.00773510055 0.0008525301709 -0.00118139765)
(0.007737304616 -0.0003685086423 -0.001511309285)
(0.006200771353 -0.0002720234551 5.887367108e-05)
(0.009166549028 0.001117213703 0.0004652214457)
(0.01134351697 0.0006008920832 -0.001409886901)
(0.0115471653 0.001375437638 0.0003016064388)
(0.00571593437 -0.0002100350387 -3.832420108e-05)
(0.007890672837 0.001848114153 -0.0008431542796)
(0.0119360885 0.003015906494 -0.001308987492)
(0.008758857443 0.001887200512 1.291715515e-05)
(0.0120568074 0.001252635092 -0.0008605198657)
(0.004286412527 -6.081604438e-05 8.543323568e-05)
(0.01036314419 0.0001501016184 0.0004566728765)
(0.01263046613 0.002784846104 -0.0006207902609)
(0.01219105404 0.001547169151 0.0003815587228)
(0.01837971073 0.006459033298 -0.0006451633769)
(0.01823574364 0.003011507981 0.0003734134417)
(0.01425764831 0.003915173532 -0.001664389032)
(0.01670889951 0.004854689678 -0.002712701591)
(0.01108716423 0.004893459947 -0.0007033955642)
(0.01359573734 0.004341551093 0.0001873283854)
(0.01458924679 0.005689976901 0.0003314001467)
(0.01651579896 0.006227282578 -0.001620378703)
(0.009193087783 0.003225792118 -0.0002879404624)
(0.0147698802 0.0001378426215 0.0002960694742)
(0.0105147166 0.001059482098 0.0008788991813)
(0.005966157834 -1.653926693e-05 -0.0002567376574)
(0.007590211042 0.0006901010047 -0.0009226704071)
(0.005710427503 0.0003309399131 3.438872095e-05)
(0.006927248923 -0.0007422753725 5.328241501e-05)
(0.005182364484 0.0008214775713 -0.0003743807493)
(0.008382574001 -0.0002384512905 0.0003348657929)
(0.005827256368 -0.0001844650241 0.0001701225514)
(0.01533309081 -0.0006105911736 -0.0004204155815)
(0.007089317402 0.0006225139243 -4.22219154e-05)
(0.006594337375 -0.0001307357156 0.0001906746618)
(0.01301484771 0.001493953194 -0.0004991282232)
(0.01180740052 0.0004098562531 9.077372905e-05)
(0.008306291606 8.1798838e-05 -0.0007708809576)
(0.01309017081 0.001940911 0.0005256452921)
(0.009506459035 0.001681446263 0.0004878440184)
(0.006699139501 0.002823274801 -0.0005620627438)
(0.006903110509 0.001475876868 0.0001964166241)
(0.01042128421 0.002650121945 7.237702547e-05)
(0.0141321971 0.00232339543 -0.0006770087452)
(0.0105705256 0.001329842121 -5.138810998e-05)
(0.007753224015 -0.001262268893 0.0006552918584)
(0.006957910007 0.0004404777035 -0.0006180245492)
(0.01046560151 0.002963844867 0.001985442486)
(0.0192792312 0.00459731783 0.0006064278932)
(0.01523543743 0.004973030726 0.001418948122)
(0.02042530695 0.004256764543 -0.001776270379)
(0.01765104941 0.004986999811 0.001581138697)
(0.01085722298 0.004700828953 0.001312795274)
(0.006821788519 -0.0001538313852 0.0002229825943)
(0.0059272956 -4.508454917e-05 -0.000284905341)
(0.006326569565 0.0007040961829 0.0003234899069)
(0.01249124569 0.0009937545484 -0.001083326255)
(0.01078814216 -0.0003064500199 -0.0006917490484)
(0.005889745993 3.4577741e-05 0.0001501654618)
(0.01121605849 0.001227357503 0.001371070057)
(0.0033233334 -6.302704742e-05 -6.88411504e-05)
(0.0069513474 0.001019458391 0.0008972787813)
(0.00368933995 0.0001786553079 2.352212658e-05)
(0.004633246897 -0.0002799588798 -0.0007628827868)
(0.004811870902 0.0007151802358 -0.0006796799457)
(0.01764336683 -0.0002914290796 -0.0007688124798)
(0.01152153439 0.002089697854 -0.002379558053)
(0.009209741352 0.0003398875212 -0.0008561498386)
(0.01188588341 -0.0008937296123 -0.0006697303415)
(0.006520554137 0.0001378753083 -0.0007242152576)
(0.008121374934 0.001316902629 9.224865737e-05)
(0.009450917153 0.0005532912478 -0.0003867563136)
(0.006084536327 0.00024963564 0.0004693798498)
(0.007838106796 0.00191532704 0.001302883602)
(0.009566086958 0.001277123803 -0.0004054588026)
(0.01118588744 0.00230614252 0.001228958065)
(0.01002759094 0.002608583288 -0.00122552874)
(0.01191400766 0.00146298895 0.0009008878501)
(0.01763654698 0.005538613154 0.0001864003709)
(0.01264091657 0.003770116481 -0.0001175884852)
(0.02853018575 0.004833531601 -0.0002808587188)
(0.0202732217 0.00565997716 0.0004097461999)
(0.02286451995 0.007253052346 0.001106159777)
(0.0102197094 0.0003818893457 0.0009996105265)
(0.0121187339 3.53323735e-06 -0.0004377428277)
(0.01131636418 0.0001402905015 -0.0002976599607)
(0.004527130248 2.916162561e-05 -0.0004648091095)
(0.009102314646 0.0002605789327 0.0001205960841)
(0.007339515992 -4.093193531e-05 -0.0006798685582)
(0.01114078322 0.001377360739 -3.509051024e-05)
(0.003539303281 -9.475867861e-05 0.0003313479768)
(0.006719133255 -0.0009008718831 -0.0009228225084)
(0.007048279839 0.0009774612112 0.0002104166633)
(0.0107716884 0.0001333669189 0.0008543326574)
(0.008746612875 0.0007694519473 -0.0001216502025)
(0.0144507055 0.001444969474 0.0007235140438)
(0.005080677987 -0.0003876158456 -0.0006803222994)
(0.01222704479 0.0003280301701 0.001324545792)
(0.01511671349 0.0009522539463 -0.0001229923103)
(0.00287337164 0.000585076167 -0.0002003976957)
(0.009591418603 -1.181631964e-05 0.0008996712085)
(0.01528982541 0.0005963362993 0.0005457295967)
(0.01026566833 0.002426560611 6.779848872e-05)
(0.01169192133 0.001681270491 0.0001026269629)
(0.01102767105 0.001279671208 -0.0004679132863)
(0.01317367847 0.004138214717 -0.0009588884756)
(0.01418211008 0.001794223382 0.0002134627026)
(0.01334029385 0.001012318791 0.0002372762572)
(0.01551406056 0.002382302737 0.0003282662485)
(0.02574639712 0.005181378877 -0.000929675404)
(0.007874968675 0.0009318545961 0.001490478639)
(0.01017115681 0.003981502926 0.001327336236)
(0.01127258079 0.001407629463 -6.015532381e-05)
(0.007710987513 -0.0002623555474 -0.0004675794052)
(0.006680958668 -0.0005459243139 -0.0002283688104)
(0.004895157496 0.000116263736 0.0002591922285)
(0.006883059463 0.0006606332185 0.0002705628706)
(0.007821978685 0.0007165936775 4.842889293e-05)
(0.005045458102 0.0001112457552 -0.0001881143831)
(0.01180834244 -0.0004881011579 0.0007966145549)
(0.007050157533 -3.043460725e-06 -0.0002509290852)
(0.01360067307 0.0007947970473 0.00059659191)
(0.009763219443 0.001159628622 -0.0007252246048)
(0.003393567789 -3.159109296e-05 0.000203289766)
(0.009528602488 0.0008648094395 -0.0006810624189)
(0.009618723713 -7.060734306e-05 -0.0002650358376)
(0.006956025676 0.0003233464852 -0.000644372907)
(0.01325346735 0.0006054802631 -0.0005718143813)
(0.006736765691 0.0005635997106 -0.0008100019076)
(0.008602834933 0.001437958925 -0.0001581823536)
(0.01253013072 -0.0001572742246 0.0009304345897)
(0.009319498574 0.001403475655 -0.000827390958)
(0.007484366466 -8.903639961e-05 -0.0006373768697)
(0.008770684408 -7.047493412e-05 -0.0001055049291)
(0.01067498992 0.0005196125853 -0.0008161083427)
(0.01101917434 0.0009279015813 0.0005010551723)
(0.01191024584 0.002662615474 0.001250620071)
(0.01317792131 0.0009431757608 -0.001358786022)
(0.0130530041 0.000487606681 0.0003883080157)
(0.01758423706 0.002833450208 0.001154803413)
(0.01392795427 0.004889185954 0.001169810643)
(0.01225162883 0.005232225849 -0.001793593121)
(0.01364651569 0.003344185041 0.0004655011448)
(0.01294033248 -0.0005562490022 0.000832120038)
(0.01074899693 0.001117251292 -0.0001968439776)
(0.008185024594 -0.0002063775433 0.0008523225916)
(0.009792016024 7.850478254e-05 0.0007322308153)
(0.006204583811 0.000110504577 -0.0004624269417)
(0.009112726258 -0.0002704330219 0.00029941434)
(0.006528169777 0.0001744063573 0.000264529065)
(0.00789600019 7.785846374e-05 0.0004358722758)
(0.009752982303 0.0007348230984 0.0004147297145)
(0.00448486085 0.0003379802324 -0.0003442037322)
(0.008196583235 0.0008794393887 0.0008838093557)
(0.008369648472 3.684858617e-05 0.0006645519952)
(0.009409044125 0.0003523660055 -0.0008833029439)
(0.01370035444 -5.305640993e-05 -0.0007839026411)
(0.01023489379 -0.0001133170845 0.0002477765663)
(0.008454333289 0.0003106438643 -0.0003933885543)
(0.009751016645 -0.0001078509889 0.0005400169971)
(0.00385605001 0.0004007402444 0.0001326971895)
(0.02014290962 0.001593453855 0.001616046334)
(0.01250851305 0.0007246095612 -0.0003389368362)
(0.008527886585 -0.000791019527 0.0008311430893)
(0.009160999266 0.0007482992642 0.000247444814)
(0.01012116613 0.001091204677 -0.0004486487537)
(0.005345460438 0.0007817165664 -0.0006156739006)
(0.01107276165 0.00183684249 0.0006759008933)
(0.009252315975 0.001185265767 -5.510413969e-05)
(0.01105681355 0.0002755425201 -0.0002836166292)
(0.01521228477 0.002507253727 0.002902750819)
(0.0114868181 0.001801014527 0.000539695384)
(0.02240665553 0.003132502941 0.001289317123)
(0.004015995225 -0.0004300566014 -0.0002455203365)
(0.005563490221 -0.000561841611 0.001083949628)
(0.01101354676 -0.0008755248651 0.0004891997848)
(0.006666239558 -3.296087402e-05 0.0003701609407)
(0.01407362871 -0.001939754601 0.0002583756495)
(0.01371246824 -0.0007125922228 -0.0001027042909)
(0.008080782038 0.0003165314537 0.0006115591785)
(0.006319313112 0.0008111393358 0.0002471898233)
(0.01197878844 0.000519236345 0.0005563838073)
(0.01089394482 0.0010290041 0.0002167548911)
(0.003793721929 0.0002786686503 -8.495867194e-05)
(0.008462732783 0.0007735417338 -0.0001849370971)
(0.009172838075 -0.0008255916339 -0.00079982437)
(0.005914707954 -0.0001958303741 -0.0002332328296)
(0.01098607366 -0.0006080818195 -0.0001180819956)
(0.0114023946 0.0003984832424 -0.0007946537051)
(0.0159352401 0.001102198815 -0.001286550895)
(0.01006854023 -0.0005038265862 -0.000728849942)
(0.01153351749 4.050272781e-05 -0.0005481835913)
(0.009826001938 -0.0001356900826 0.0005474861179)
(0.01292516502 0.002358031483 -0.0004635321623)
(0.007425909023 0.0007660931936 6.900485481e-05)
(0.0119362584 0.001510835815 0.0001306343795)
(0.005052949833 -2.644789633e-05 -0.001181023158)
(0.01135889421 0.0005604239096 -0.001292684732)
(0.014035817 0.00159739105 -0.0005703971027)
(0.01109033678 0.0001843373483 0.0008818733942)
(0.01044933679 0.001374355853 0.001104305671)
(0.008448596388 0.001217762125 -0.0005020645388)
(0.01289084473 0.003031370021 0.0001098897143)
(0.007852036532 0.0003083154647 -0.0003810023328)
(0.00908381662 0.0003299574379 0.0001749518545)
(0.009790786608 0.000603201659 0.0003212439284)
(0.009732843628 0.0004150167841 -0.0009393178103)
(0.006947760125 0.0002007913902 -0.0001648025294)
(0.009739380768 0.0003011246213 -0.0007276636149)
(0.007761538586 0.000517208643 0.0001296404817)
(0.01056616994 0.0001921461099 -0.000348007494)
(0.01011431651 0.0009686731067 0.0002252508543)
(0.007391595205 0.0004702311041 5.293200667e-05)
(0.007653375523 -7.852154017e-05 -1.541252651e-05)
(0.006331522229 -0.0004459154192 -0.0003996574237)
(0.01104226872 0.000147589604 0.0003401524291)
(0.009516216876 -0.0003021553544 0.0007833686342)
(0.007777032736 0.0002399208496 0.0003618348148)
(0.006992204963 0.0003828068297 0.0002067263795)
(0.009146217517 -0.000324155658 -0.0004916567708)
(0.009321050324 0.001077377024 -2.289923189e-05)
(0.0129563461 -0.0004907538923 0.0004325428735)
(0.01346832211 0.001402078413 3.089527593e-05)
(0.002627584601 0.0004640060278 0.0001831206016)
(0.005264532205 0.0005063708734 -0.0005576716399)
(0.01111065387 0.0005874227396 3.169774955e-05)
(0.01442946372 0.002035361822 0.0003956990743)
(0.008494143366 0.0005357907084 0.001127653863)
(0.003228530834 0.001833427427 -2.027231718e-05)
(0.006455257964 0.001800458473 0.0008559233202)
(0.01042252997 0.00171128031 0.0003080626613)
(0.01149074839 0.001252513238 -0.000732143639)
(0.01503197773 0.004695409775 0.0005807280392)
(0.0144100037 0.0009321639091 0.0002408726401)
(0.006391972738 -0.0001899416082 -0.000670285636)
(0.009097141811 -0.0008182329207 -0.000222813722)
(0.007419730226 0.0009391430383 -0.0006579973957)
(0.006588627074 -0.0001682763176 0.0003937372255)
(0.00954541954 -0.0001607520074 0.000440192405)
(0.009904509869 -0.0003936755806 0.0006990019513)
(0.009906389557 7.415422831e-05 -0.0007985065696)
(0.008991399732 0.0003573039752 -5.549719839e-05)
(0.002909617465 8.200191796e-05 0.0002717847642)
(0.009973837302 -1.736269288e-05 0.001255181099)
(0.008747660382 0.0004106866383 6.982924916e-05)
(0.007191919259 -0.0006998820096 0.0004760074407)
(0.00499226584 0.0001543685419 -0.0008836448986)
(0.005424463683 -5.788586943e-05 0.0004227440977)
(0.01375912669 0.0002882563025 -0.0005462646663)
(0.0107046327 0.0004661527397 -6.614128967e-05)
(0.009864510233 0.001155203437 -0.0003863226278)
(0.005268029829 0.0005987143015 -0.0005229659897)
(0.01152072911 -0.0002821902817 1.93508026e-05)
(0.006276342676 0.0006814132816 0.0004439240079)
(0.01461646864 0.0009986862526 0.0004026646448)
(0.006035735714 0.0003287762903 -0.0001797093422)
(0.007075815868 0.001790794806 0.0007740411325)
(0.01103666267 0.000355826816 -0.0005730555329)
(0.005768262809 0.001592647521 -0.0004845930015)
(0.009433888296 0.001745761777 0.001049705673)
(0.008784848076 0.001023882739 -0.0007436929939)
(0.01719459178 0.002393507435 0.0003697105546)
(0.009560046386 0.001782884255 0.001005355116)
(0.01277758509 -0.0009036222157 -0.0005747446755)
(0.006321389283 0.0001119517241 0.0001744690671)
(0.006103702113 0.0002644767224 -0.0008459121245)
(0.001370044679 4.312749406e-05 0.0002887707929)
(0.003368871592 -0.0001337078942 6.290658637e-05)
(0.00333760077 0.0006714542877 8.752062849e-05)
(0.008168428431 -0.0002076876445 0.0001083892095)
(0.01285015887 0.0007809244895 0.0009181759832)
(0.007723148526 -8.294471184e-05 -0.0001481726897)
(0.008272735034 0.0004369635497 -1.841402343e-05)
(0.00746628362 -0.0004550639389 -0.0006061121343)
(0.01007043488 -0.0007995105772 3.671087527e-05)
(0.005956301756 -0.0002813122353 0.0003767107546)
(0.006776834569 -0.0007112649003 5.512500821e-05)
(0.006376980891 0.0003688079863 0.0004348433273)
(0.01113740577 0.0002163474072 -0.0003414564865)
(0.00864191842 0.0005555625369 -0.0002074210112)
(0.01036846043 -0.0002915408927 0.0001533601986)
(0.01091701409 -0.0007069072585 -0.0005565331145)
(0.005387891649 -0.0002966684873 -7.210729491e-05)
(0.01138546338 -0.0007586747148 0.0003208706271)
(0.007383396429 0.001372680249 -0.0003378224007)
(0.01061373944 0.001056013838 0.0005694744067)
(0.006201475089 0.002159217524 0.0003249723796)
(0.009243145051 0.001437676094 -0.001061359222)
(0.005211756932 0.0005847923272 -0.0004288573419)
(0.01085288128 0.001052759351 -0.0004204922295)
(0.011319854 -0.0001443440625 9.439956053e-05)
(0.01059007996 0.002966701815 -0.0009540485224)
(0.01407612261 0.00245587402 -0.002402755456)
(0.009472646369 -0.0001192845268 -0.001558266683)
(0.01204332407 0.0009270593808 0.0001138995298)
(0.007661174358 0.0002557757306 -0.0008394337712)
(0.01129802789 0.00105079328 0.0006872765936)
(0.01547533169 0.0005857369645 -0.0001900362118)
(0.006700064318 0.0001688378184 -0.0008900677466)
(0.01209866925 -0.0006038467615 -0.0005205224714)
(0.006562840159 -0.0003082699955 -0.0005699860734)
(0.006491629238 0.0008700988469 -0.0001884156042)
(0.009306359441 0.0004749372377 0.001689164932)
(0.01089095755 -4.054390062e-06 -0.001199271894)
(0.00562460712 -0.0004813060799 -0.0009551734799)
(0.009713215608 -0.000893852474 0.0002576573501)
(0.001934142132 3.510444763e-05 -5.232350903e-05)
(0.006708585474 -0.0007929612082 0.0005334107539)
(0.008471895789 -0.0003275450081 0.0008837931604)
(0.01056643471 -0.0008646873477 -0.0002936572872)
(0.008966465893 -0.001180732598 0.0003052929541)
(0.01443185309 0.0004427999415 -0.001269371224)
(0.006464662964 -0.0003271041069 0.0006609805134)
(0.007859866494 -0.0001113561148 0.0002770022815)
(0.01002424169 -0.0001209186418 6.824807226e-05)
(0.005323199225 0.0003667008506 0.0003637380014)
(0.00417736718 0.0006606684775 0.0003938205003)
(0.005670412464 1.526767042e-05 -0.0004372365698)
(0.006964378645 0.001234361369 0.0008835701154)
(0.01059307299 -0.0001253793047 0.001006609357)
(0.007141014648 0.001964445335 2.979750161e-05)
(0.003318114361 -7.486994878e-06 0.0005350276693)
(0.009867309961 0.0008696183903 1.731826164e-05)
(0.00765751566 -0.0005264708745 -0.001088006823)
(0.009401687286 -0.0003603493226 0.0007863534079)
(0.01197177293 -0.0006182326931 -5.610204272e-05)
(0.0087933841 -0.0004603181536 0.000241321414)
(0.01131601624 0.0009162000595 -0.0008832907569)
(0.0008323051727 -0.0001532235334 0.0002314568918)
(0.01489525185 -0.0007132028333 0.0001693488375)
(0.01210174267 0.0006166817009 0.0002461756291)
(0.009115548676 -0.0002000539459 -0.0004516957884)
(0.01088875406 0.0003126585369 -0.0004556032224)
(0.007867885319 -3.380260941e-05 0.0001794624273)
(0.00781497592 0.0004479156731 0.001112372733)
(0.006637323316 -0.0003276649655 0.0005612590258)
(0.004272366164 0.0001238299897 -0.0002198774367)
(0.01050679175 -2.206485013e-06 -0.0006329565919)
(0.005672515846 -0.0001086265327 -0.0003402761594)
(0.008807779817 -0.000379441237 -0.0009671400096)
(0.01116877041 0.0006009695661 5.283320537e-05)
(0.006920448387 7.210657566e-06 0.0005776736827)
(0.004309448957 -0.0004953108492 -6.822948871e-05)
(0.01322527376 0.001394859955 0.0004380275679)
(0.006323174588 -0.00116236108 -0.0009940850683)
(0.006548652559 -8.273936576e-05 -0.0005488187415)
(0.008500053985 -0.000199929964 -0.0008620789744)
(0.008308916091 0.001548375553 -0.001474939118)
(0.00982477029 -0.0002867355407 0.0003955836737)
(0.009380550778 0.000575271666 0.001350192956)
(0.007662163203 0.000182622302 4.565760217e-05)
(0.008446477058 0.0001952247602 -0.0004199700578)
(0.0112629162 -0.0007318713654 -0.001290967499)
(0.01127561101 0.000269968039 -7.638947499e-05)
(0.006551480827 -0.0008763211701 -0.0001924264823)
(0.004745077673 0.0001713487769 0.0001389615233)
(0.005577367088 1.613442087e-05 4.972658227e-05)
(0.005997380632 -1.923169167e-05 -0.0002122321358)
(0.008114187165 0.000115929164 -7.646530375e-05)
(0.005725065768 -3.16938148e-05 0.0002921600351)
(0.00628911305 -0.0008202142668 0.0001492259957)
(0.01024778925 -0.000161015822 0.0001417412966)
(0.01282131392 -0.001332148435 -7.63759328e-05)
(0.008422978694 0.0004789863146 -0.0008605182733)
(0.006185355548 0.000149666634 0.0003774975407)
(0.006508867307 -0.0002868482068 -9.048574216e-05)
(0.01122059501 -0.0006875209254 -0.0006665079755)
(0.006277115123 5.899394908e-05 -0.0004995110789)
(0.004390424127 0.00070985616 0.0007517919169)
(0.01411146156 -0.001103448262 -0.0006021791415)
(0.01376849075 -0.001428004603 -0.0001210515232)
(0.0101857919 -0.0004316486422 0.0004255461882)
(0.006315640133 -5.791466008e-06 0.000399470967)
(0.007943007534 -0.0005027807685 0.0005573311085)
(0.01074396429 -0.0002277063624 -0.0005505789081)
(0.01165422199 -5.889374464e-05 -9.743937483e-06)
(0.006993409291 0.0006162820206 -0.0005513826784)
(0.006400930444 7.936720588e-06 -7.794890216e-05)
(0.01402392477 -0.0003106650892 -0.0004729597443)
(0.007211909121 0.0003525731252 -0.0005101660532)
(0.008743073599 0.0007195274098 -0.0004413250439)
(0.01091869577 0.001945897835 0.0003781728813)
(0.007888666402 0.000673847875 -0.0008063687145)
(0.007104773903 5.714016009e-05 -3.321247945e-05)
(0.007949631528 -7.454735129e-05 -0.0009430819959)
(0.01025073695 -0.0003629723383 -0.0003985745272)
(0.007232643055 0.0006619952037 -5.656389325e-05)
(0.007068024655 0.0002717201375 1.521307074e-05)
(0.01114136652 8.303396788e-05 -3.883511041e-06)
(0.01130323953 0.0004285395654 0.0007288870725)
(0.01391253208 -0.0008552966203 -2.467005482e-05)
(0.006351303297 0.0001450096359 0.0001768733221)
(0.0127961906 0.0002090905169 -0.0002643369126)
(0.002813506464 -0.0001285150211 -0.0003835905368)
(0.01488339364 0.0002950388964 0.0004832763801)
(0.01382866597 -5.67580333e-05 -0.0001457541005)
(0.008910835703 0.0007764312359 0.0001603315906)
(0.006470677061 -0.0003788028431 -0.0006351651132)
(0.01087763829 0.0005139362036 0.0004620429519)
(0.006659543543 0.0002867316729 0.0003378263857)
(0.00729839346 8.772523677e-05 3.015261771e-05)
(0.01141895825 -0.0001130113857 -0.0004158055821)
(0.002838747738 6.369699633e-06 0.0003288733413)
(0.01048914875 0.0001586475338 -0.0005260775854)
(0.005982272838 -0.0008400202172 0.0007814686801)
(0.005895478364 3.270614893e-05 -0.0002218540655)
(0.01292693096 0.000272813754 1.445244431e-05)
(0.01360947868 0.0006617598602 -0.001722466035)
(0.01134766511 6.432158149e-05 0.0006241700968)
(0.006097192988 0.0008074742199 -0.0004169329407)
(0.01346169483 0.001346726224 -0.0003136981344)
(0.005700743112 0.0008721621812 -0.0003455790005)
(0.007685512497 0.001835645425 -0.0006987775083)
(0.008751082949 -0.000426731861 0.0001733293267)
(0.005369318875 0.0001101806554 -0.0005391813055)
(0.01284454987 -7.210809357e-05 0.0003608069192)
(0.005864470496 0.0003802629502 -2.886818871e-05)
(0.008998545142 -0.0002620959793 0.001222616468)
(0.00704665212 -0.0003009342804 0.0002611540168)
(0.008668140253 -0.0005361121163 0.0003356762107)
(0.009385100203 -0.0001138012818 0.0004026441623)
(0.007931688231 0.0001153387468 -0.0005343552749)
(0.01278455158 0.001648961934 -0.0003191782513)
(0.01156110094 0.0003041669095 -0.000213759713)
(0.004322931438 -0.0004658344015 -0.0001260231322)
(0.007991498452 0.0007419996891 0.0002120425924)
(0.004016606021 0.0008663313603 -0.0002725533902)
(0.01188590604 0.0001272016237 0.0004913718407)
(0.003222808921 0.0004422205367 0.0002768824514)
(0.007384480647 -0.0002862043095 -0.0005911889101)
(0.009748283679 0.0002911992159 7.379764475e-05)
(0.007138329431 0.0006190050233 2.432642395e-05)
(0.006910000443 0.000419330547 4.035853608e-05)
(0.006980403451 0.0003835815495 0.0006029089733)
(0.01267570998 0.0001341702669 0.0005802450955)
(0.007295043154 0.0001246940496 4.487753118e-05)
(0.01217302397 0.001357185371 -0.0001119874811)
(0.01040316185 0.0001874606257 9.60674898e-05)
(0.0008065378487 -0.0001846968083 -0.0001969192992)
(0.01065081496 0.0003938256516 0.00122773277)
(0.003953727788 0.0004124920378 0.0002122775763)
(0.01867549232 0.003300298031 0.000828241414)
(0.01059503647 -0.0001603298272 -0.0006336952506)
(0.004283497146 -0.0006580477065 0.0002138856068)
(0.009208238681 -0.0003529158241 -0.0004332895714)
(0.01325833 0.0006814930882 0.0007687950438)
(0.01292220327 -0.0006862205192 -0.0002346310164)
(0.01337185395 -7.527165196e-06 0.0003813730339)
(0.01453549454 0.0002313933719 0.0003629681381)
(0.007403027783 0.0001679978266 -0.0006815183325)
(0.007668108317 0.001043063917 -0.0002508686851)
(0.009349241145 0.0004809665639 -3.849027126e-06)
(0.003252051215 0.0004630524826 0.0001776515223)
(0.008527510381 9.876841154e-05 -0.0004742702833)
(0.009215387046 0.0003474470401 0.0003555753738)
(0.01224624393 -0.0005568031177 -0.001119274403)
(0.0110496403 -0.0003145014563 -0.0004096616622)
(0.01151439353 -0.0001201040082 -0.0002992976746)
(0.00554030565 0.0001834918337 0.0007283366147)
(0.006063035962 -7.141634532e-05 -0.000296486584)
(0.007794513635 0.0006082248063 -5.440261452e-05)
(0.01173055367 -0.0001991028314 0.0005901939348)
(0.007346353085 3.674830335e-05 0.0007699167287)
(0.01159503342 0.001562436707 -0.0001225618448)
(0.007209170241 -0.0007941356266 -0.0002334191241)
(0.005478012037 -0.0004939588538 -0.0001707864025)
(0.009142318332 -0.0005701904453 0.000342974974)
(0.007284551128 0.0002801243642 0.0001979464346)
(0.01135910566 0.000469795464 -0.0003348805575)
(0.008017418074 -0.000152558208 4.180308755e-05)
(0.006639304381 0.0002036803377 -0.0002103317363)
(0.008014470218 0.0002164132477 -0.0001489170123)
(0.01639271204 0.001075462439 -0.0001875917327)
(0.01066904888 0.0003622182193 -0.0002941191786)
(0.006479179395 0.0002336481095 -9.22728302e-05)
(0.006162328851 0.0005018665178 -0.0007759875238)
(0.01083068899 0.0003529475008 -0.0006353543507)
(0.009010741296 0.000125294199 0.0002236901296)
(0.003263737902 -3.550815899e-05 1.099936887e-05)
(0.005680810866 0.0003559696888 0.0007053756302)
(0.009601818416 0.0002553803695 -0.0002266854793)
(0.01092515731 -6.960359894e-05 0.0009115585244)
(0.006188449429 9.768318078e-05 0.0001448884066)
(0.003648842694 -0.0006645446035 -0.000182702448)
(0.007171494155 -4.155913051e-05 0.0003448630111)
(0.01250926771 -0.0002981838104 -0.0001887251192)
(0.007141502251 0.000154808398 -8.25037703e-05)
(0.006013017896 -0.0001332439433 -0.0002086277413)
(0.003875206113 -0.0001550898853 0.0001583490084)
(0.001441508799 0.0001904756163 -0.0001269297764)
(0.01103132011 -0.0003456766403 0.0002195778771)
(0.006445954704 -1.749062759e-05 7.112415075e-05)
(0.01182795843 0.0002235347632 -0.0005888427252)
(0.00698838232 0.0003412917677 0.0003224295329)
(0.006361354636 0.000446415191 -7.800651056e-05)
(0.00706865381 -0.000375833326 -0.00051287842)
(0.007857598897 0.0007514272889 0.0003001129344)
(0.007040400659 0.0004788496 -0.0003576369347)
(0.006920583215 -3.075732658e-06 -0.0002996729689)
(0.007368270554 -0.0003519301739 0.0003377133467)
(0.00799140128 0.0008521771711 -0.0003577920695)
(0.008672316518 0.0008704221653 -0.0001181971243)
(0.004554236287 -0.0003897328979 0.0006349213634)
(0.008411543898 0.0005906686685 0.0003760743726)
(0.006955766063 -0.0002278374547 -0.0004710840934)
(0.005555535548 -0.0006624855663 -0.0002349125151)
(0.01109233101 -0.001523457293 0.0001477002401)
(0.0100093019 8.792380948e-05 -0.0007842388533)
(0.012862303 0.0003702285727 -0.0003997132493)
(0.007906694038 0.000441636783 0.0003306786836)
(0.005227125144 0.0003482850536 0.0005611245014)
(0.01391631551 -0.0002690466053 0.0003109449081)
(0.005284654137 0.0001575763693 -0.0003004667119)
(0.005335756417 0.0005084671416 0.0001367514867)
(0.00901372125 0.000881034012 -0.001028146731)
(0.01260794035 0.0005820574747 0.0006945807048)
(0.007103104595 0.0004157242139 0.00029451263)
(0.00863490934 -0.0002314708009 -0.0001297344314)
(0.009341268729 0.0002232058731 0.0004009545728)
(0.008830726171 0.0004110435879 0.0003105180198)
(0.004656766721 -7.71200152e-05 0.0001150527927)
(0.005646582987 0.0006267442318 7.162569034e-05)
(0.01525913725 3.358647205e-05 0.0007051808433)
(0.009098080788 0.000800644371 -0.0003165418682)
(0.002876769201 0.0008171437785 -0.0002830912228)
(0.009497677962 0.0001611089066 -0.0005047653054)
(0.01322824235 1.256959869e-05 -0.0001683152107)
(0.006540377383 3.222305647e-05 -9.727281396e-05)
(0.004146997784 0.0005159117854 0.0003780250896)
(0.01018692275 -0.0005318012313 0.0009522908964)
(0.006723754344 0.0004908642727 0.0004249573255)
(0.00822714652 -0.0006867985249 0.0005396005785)
(0.006910809909 -0.0001385215545 0.0002901951266)
(0.004709394431 0.0001261732461 -0.0001585319936)
(0.007142429335 -0.0004466928418 0.0003080042627)
(0.004169618609 -0.0001619201472 -0.0003485564659)
(0.006172792196 0.0003690938065 0.0001029269288)