/*--------------------------------*- C++ -*----------------------------------*\
| =========                 |                                                 |
| \\      /  F ield         | OpenFOAM: The Open Source CFD Toolbox           |
|  \\    /   O peration     | Version:  2406                                  |
|   \\  /    A nd           | Website:  www.openfoam.com                      |
|    \\/     M anipulation  |                                                 |
\*---------------------------------------------------------------------------*/
FoamFile
{
    version     2.0;
    format      ascii;
    arch        "LSB;label=32;scalar=64";
    class       volScalarField;
    location    "0.001";
    object      overallT;
}
// * * * * * * * * * * * * * * * * * * * * * * * * * * * * * * * * * * * * * //

dimensions      [1 2 -2 0 0 0 0];

internalField   nonuniform List<scalar> 
654
(
684.9011788
682.4351905
680.9605781
677.1258596
679.2031957
666.9551022
604.9944927
609.446128
623.1654081
617.4426765
633.7096782
650.6093826
639.4284935
656.424435
648.6683089
650.3614276
661.3501715
492.3086
528.9513297
530.7282457
537.9234428
560.0107001
574.7281076
598.6815461
600.3381119
612.4329815
624.1780692
627.8969496
640.4272678
643.186817
629.2685628
628.1857475
633.820805
395.7268426
386.2980402
397.8105759
426.7919517
433.3991403
447.1205666
490.248235
492.5308366
504.8401785
522.4753295
549.4296849
567.7917799
575.2287847
589.3710793
585.5352091
598.8644999
612.7648139
630.2948311
616.1131566
624.686701
622.7390364
625.8237098
320.9925891
324.6303728
327.0330008
336.3517079
340.650306
346.5026116
367.1280583
373.0117585
395.0799801
392.5827637
404.7066643
426.0035151
427.5748409
441.8566858
447.1136643
482.2908609
482.7848109
510.186711
521.733573
529.4378372
563.288804
562.6056421
575.4894397
597.3463521
600.5427598
609.2375435
610.5386164
627.1222373
623.4057734
320.8760327
316.9850349
323.7228788
323.5314034
326.798133
337.9947875
335.993689
342.449489
360.0741872
377.7116937
382.5936449
374.553411
400.0751959
400.4311515
413.9340998
430.319245
441.5507033
456.2812061
457.3685621
488.6260733
520.4737027
540.5277589
548.2581807
553.4174188
591.169491
591.2632558
593.2077268
589.1812277
594.2407889
601.9134804
316.7896781
312.6283401
312.2789582
309.6416264
317.0484429
327.6592169
330.7808897
332.2096516
343.3625644
353.125377
350.8524157
373.2691715
372.5907028
391.7514536
389.3678557
392.416483
416.8346835
442.4472267
447.0202624
462.5033195
483.8184591
509.1562724
512.6590333
520.825399
541.7891288
566.9746942
585.7275336
575.5691477
577.3638295
590.5941856
303.6545789
305.7733312
314.0894425
316.1059888
323.4671887
330.8658422
329.5477993
321.1192071
333.1911832
335.3893623
348.4143133
348.3118218
352.2474513
364.8892971
389.2284352
395.7119363
398.4751936
404.5353399
411.1399443
426.1451221
447.0940421
472.2916424
488.4623502
502.0632758
513.0383449
540.1519749
555.8065728
573.9950207
579.5239164
590.5526101
309.874486
309.3926889
316.9130888
313.5491046
314.1069702
313.5284021
321.3297165
319.1160624
326.7846401
335.9796599
335.926505
337.4784218
341.5301362
362.2885346
364.4287426
375.9602177
391.3465881
388.5519786
405.7594983
415.5588891
418.6001155
433.1759255
478.3779008
483.9899729
491.3965521
523.4264981
539.9432401
548.870915
555.9746452
563.8784715
317.9744026
311.0995576
309.0301312
303.4889058
303.7867214
313.09555
313.6055729
317.486758
318.4441433
324.780665
338.2893207
331.2628153
331.3323603
339.7471685
343.355707
334.0368537
353.9134293
370.1971901
375.1943554
378.9785055
395.986223
416.641176
436.4702727
451.8506443
461.6095796
472.6693817
502.0450307
516.05404
526.947274
540.2281156
307.6227768
300.9431369
303.9806977
306.4392293
304.2856988
306.5846223
310.6644118
319.4995185
317.6443823
320.0525061
325.3529377
334.0126245
323.8859199
330.9880511
340.0007317
357.5125238
349.9336874
360.2124608
373.6635362
381.9299297
381.7131366
384.0071745
402.7488465
425.833008
454.6146488
452.81874
474.3924358
494.4474772
506.7260474
502.9444763
300.7473551
299.271275
299.6650803
299.4318025
301.8318332
306.5714699
312.0682414
307.0423811
305.0408781
310.9732108
313.3145983
323.1919184
329.6688941
315.8420637
330.8462455
350.2660941
338.5039509
339.7151489
352.9483623
359.2669561
376.2921679
383.3678459
388.3996899
402.1884746
424.9988654
438.213248
454.287713
464.7192979
483.6125692
512.6354356
303.9643487
308.7597055
305.4242901
306.4436185
305.4927721
304.4929172
305.2445389
309.9113545
313.4195749
316.0316756
315.956531
322.1310314
323.1154102
332.1982353
327.5681328
339.0364817
347.9717014
342.0046322
345.5746121
351.879473
360.8815128
365.8590091
376.465143
380.9767859
392.6067945
410.3348743
428.6988114
435.1612088
460.9561245
471.3770061
301.6593983
303.6025235
307.7964269
308.3074082
311.5694753
302.9772734
304.1182521
307.073912
310.1258942
306.3584021
311.7940869
316.1992784
320.4947075
318.907811
319.6270541
327.13113
338.3006536
331.9805
335.0322122
347.1952652
347.3767621
362.1212325
373.9746444
374.7940007
375.6989212
396.5611484
397.453265
406.7045107
419.6011101
437.0011284
297.1106875
296.1776317
295.6843454
296.8356127
297.5531838
297.8211726
300.6034123
299.8846076
304.6667122
310.6820055
308.1977085
306.8348437
318.351568
315.260153
314.6800136
318.9093832
315.6215168
330.1787792
327.537336
327.7561222
334.1352818
331.1167202
335.6210917
351.3015781
355.671332
365.2363114
379.1047375
385.6135952
400.1150104
411.9154686
293.7655058
298.8114262
297.273009
294.8919382
296.6942429
297.3283622
300.1584851
298.119158
302.4250995
300.9865616
299.3558972
302.95833
304.6150177
307.1839451
315.8307079
322.125434
317.8810126
318.516619
323.5623997
321.456942
335.8241095
337.6837486
335.7990578
340.3516005
341.142287
341.2029287
355.1015964
357.7631532
371.3503996
389.632147
301.6126724
299.7732786
299.2325524
300.5778987
303.5221361
303.1198308
304.7439062
305.4390487
308.2264878
306.6284443
308.1616123
303.8420723
309.1020933
308.5148401
316.9421415
314.8520034
315.0948681
310.7229819
316.0159392
318.750837
318.4867308
325.1632246
326.2144451
333.001425
332.2246775
344.0531815
347.672745
360.0563128
365.6566429
376.4459383
304.3076427
301.9953313
305.1902758
303.218319
300.5501662
303.3219545
301.7158666
302.7182401
294.9976809
301.4957658
297.4081893
302.7297973
301.449108
302.7551352
305.3538165
304.7499591
311.5991743
312.3151313
317.1170622
311.8927635
315.4077845
313.5725493
318.1287134
323.0855892
334.8484136
331.3044322
324.448881
345.2588647
345.7754015
350.8539307
290.6268479
290.7338989
293.6893212
298.801466
297.4090417
293.2452131
295.0364534
295.806556
301.097838
300.866409
300.8748674
298.5393153
301.0043229
302.820605
302.107546
302.9174428
302.2616364
303.0096623
302.8175505
304.7510555
304.0449323
309.6080095
308.7489747
313.7718829
321.5035973
344.8921521
334.6199462
340.2865362
348.1078733
349.6030123
306.6286835
304.6824364
304.7918966
302.9655302
303.8527229
309.1483232
310.6201532
306.8160871
304.229496
304.8030863
303.8607079
304.423047
301.3879005
303.3918575
302.4481767
302.1393934
307.6185821
301.6987019
310.4664719
311.1135399
306.7706514
308.7310847
303.4847804
311.6006515
314.9452952
342.0723523
331.575208
339.7022805
349.8921639
342.7272296
299.3160511
304.1275885
302.3991657
304.0134039
304.3710857
299.2844079
296.730371
299.0499875
302.3194203
299.9984427
295.4179144
299.3381562
302.582724
297.6849769
301.0335468
300.2608761
300.6003327
301.22107
296.9476785
298.2673729
301.8168139
308.1898467
308.5326126
306.291609
309.1488138
322.402079
316.2245688
323.9285589
327.2177867
335.9714492
300.415099
301.63089
297.6724554
298.5554668
302.4538577
302.0832304
303.9531517
302.6611577
300.3979535
304.7207191
305.8877394
302.2521839
295.9017841
298.7767549
300.8011227
299.3270266
298.2041572
300.4916291
298.1274832
302.6967602
303.0806694
303.5657283
306.9626444
306.2904284
303.5928369
316.2386329
314.8210509
323.4045222
330.2945776
334.2801976
296.3951469
297.7380216
300.0631844
297.6271109
296.7836365
301.4884329
298.4842692
292.1807937
292.0965616
293.082444
294.5982164
292.9077455
298.4823891
295.768922
297.9992058
298.3287768
296.3751601
305.9124822
302.6891224
304.693933
307.9026637
306.0232729
301.1091801
301.4751285
307.9877879
305.8115466
304.4189295
307.5340262
317.2689962
316.9712481
303.3548614
303.1103145
303.8780801
296.3556293
299.4567365
294.3739701
296.4251822
298.7670388
298.4091678
303.0406572
297.7971535
298.0452496
295.7435383
293.1062465
287.9853539
295.8905177
301.2286453
301.2448171
303.2378644
301.2697018
298.3359588
305.5277429
314.5718619
309.7924929
303.8754008
301.043905
305.456407
310.4869599
306.5489131
316.6823567
)
;

boundaryField
{
    flow
    {
        type            calculated;
        value           nonuniform List<scalar> 
55
(
684.9011788
666.9551022
661.3501715
633.820805
625.8237098
623.4057734
601.9134804
590.5941856
590.5526101
563.8784715
540.2281156
502.9444763
512.6354356
471.3770061
437.0011284
411.9154686
389.632147
376.4459383
350.8539307
349.6030123
342.7272296
335.9714492
334.2801976
316.9712481
316.6823567
303.3548614
303.1103145
303.8780801
296.3556293
299.4567365
294.3739701
296.4251822
298.7670388
298.4091678
303.0406572
297.7971535
298.0452496
295.7435383
293.1062465
287.9853539
295.8905177
301.2286453
301.2448171
303.2378644
301.2697018
298.3359588
305.5277429
314.5718619
309.7924929
303.8754008
301.043905
305.456407
310.4869599
306.5489131
316.6823567
)
;
    }
    obstacle
    {
        type            calculated;
        value           nonuniform List<scalar> 0();
    }
    frontAndBack
    {
        type            empty;
    }
    procBoundary3to1
    {
        type            processor;
        value           nonuniform List<scalar> 
36
(
703.8547255
687.751331
675.9539151
701.0723681
690.3290906
690.3290906
640.2681133
626.0770725
644.5374757
649.6881623
663.051742
665.765171
665.765171
533.7489962
545.7409967
543.8058747
583.0263997
582.372553
582.372553
413.4448251
419.1603335
443.4079032
466.7717568
467.920575
478.5511018
478.5511018
326.2105796
323.4851066
328.9568105
350.173062
350.9290964
353.8420371
368.2775404
368.2775404
323.0022593
323.0022593
)
;
    }
    procBoundary3to2
    {
        type            processor;
        value           nonuniform List<scalar> 
19
(
308.6630749
313.7086214
299.8674598
304.2507319
309.4061963
303.0883384
295.6520382
305.2045611
304.5695054
298.8045242
298.0800116
299.9336527
307.8273923
290.844676
301.0784427
297.0534767
301.1887331
297.5641896
300.2716443
)
;
    }
}


// ************************************************************************* //
