/*--------------------------------*- C++ -*----------------------------------*\
| =========                 |                                                 |
| \\      /  F ield         | OpenFOAM: The Open Source CFD Toolbox           |
|  \\    /   O peration     | Version:  2406                                  |
|   \\  /    A nd           | Website:  www.openfoam.com                      |
|    \\/     M anipulation  |                                                 |
\*---------------------------------------------------------------------------*/
FoamFile
{
    version     2.0;
    format      ascii;
    arch        "LSB;label=32;scalar=64";
    class       volScalarField;
    location    "0.001";
    object      p;
}
// * * * * * * * * * * * * * * * * * * * * * * * * * * * * * * * * * * * * * //

dimensions      [1 -1 -2 0 0 0 0];

internalField   nonuniform List<scalar> 
654
(
2.098191599
2.121572663
2.129216673
2.08553167
2.146040326
2.088348788
1.63725598
1.686079219
1.77652881
1.807757077
1.902862778
1.9944821
1.944571606
2.045348299
2.00824516
1.993591175
2.082756598
1.014699979
1.16841997
1.194158553
1.267876517
1.386655299
1.491088537
1.596819709
1.660354731
1.720842569
1.811784531
1.827698716
1.929407292
1.92154637
1.875915618
1.900877807
1.891687122
0.662492685
0.6621294371
0.6941202442
0.7908331667
0.8076271455
0.859441228
0.9878699124
1.005549904
1.060402445
1.128136953
1.246214974
1.358977857
1.431210901
1.482083628
1.487380395
1.582543593
1.691059531
1.782565323
1.724510466
1.80923694
1.811598783
1.832594327
0.4654425291
0.4667976276
0.4672238809
0.4933580749
0.5237054334
0.5171015772
0.5791792385
0.5792511388
0.652010626
0.6618415455
0.7040754855
0.7638930801
0.766224327
0.8102504433
0.8497342257
0.9761556679
0.9870269648
1.077324515
1.132272665
1.166563373
1.360433905
1.370688252
1.440691992
1.590498072
1.597653011
1.638414576
1.666199628
1.810753793
1.800482439
0.4505264376
0.4460334494
0.4556289934
0.458102438
0.4579309741
0.4799582829
0.502545598
0.5231871571
0.5873081355
0.6262080307
0.6275541768
0.6099280502
0.682680568
0.701350153
0.7221107608
0.780132032
0.8027341077
0.848506658
0.8872334583
0.9797048224
1.097475045
1.172853967
1.221602539
1.239471181
1.370947034
1.466230307
1.555479303
1.579060465
1.56879574
1.668884681
0.4528113077
0.442949854
0.4384490976
0.4519987201
0.4636636975
0.4932962124
0.501019008
0.4937558136
0.5234668606
0.5474074008
0.5532329989
0.6149135299
0.6037947046
0.6657644409
0.6492719881
0.6463071494
0.7162368242
0.786034296
0.8422660211
0.9018370147
0.9480466943
1.034408689
1.054727189
1.164804073
1.28555734
1.374264805
1.454738371
1.477912852
1.554721232
1.630206178
0.4292988578
0.4281096438
0.4555006846
0.4551125184
0.472436121
0.488884247
0.4820431233
0.4641963515
0.4781602754
0.4746671954
0.5252030094
0.5345002208
0.5448400381
0.5763494315
0.6553858762
0.682582372
0.6871642913
0.692200411
0.6992617175
0.7491604333
0.864809665
0.9377104054
0.9973304798
1.03277496
1.086730176
1.204968606
1.27261168
1.365147456
1.42278434
1.479959323
0.4319523551
0.4388049646
0.4551838789
0.4451546273
0.4489381286
0.4490299048
0.4664315727
0.4658341894
0.4858583519
0.5023424986
0.4914376038
0.4958969667
0.5137939149
0.5516048203
0.5626685047
0.5862835507
0.6408111444
0.6334057878
0.703154043
0.7347315534
0.7451243588
0.7908979716
0.9293155605
0.9470549543
0.9598774435
1.10932879
1.174967199
1.228814424
1.281508998
1.323628278
0.4506678619
0.4323545869
0.4349721003
0.4141459621
0.4184320618
0.4421036248
0.4492541949
0.4564640323
0.4536505144
0.4655973037
0.4956659246
0.4675750343
0.477480025
0.5081976021
0.5168856462
0.4995665849
0.5599864756
0.6176711788
0.612591247
0.6211289649
0.6820732937
0.7520082398
0.8261929405
0.8819512078
0.9382083052
0.9632350854
1.090953227
1.145481602
1.179477196
1.237274406
0.428157515
0.4103735885
0.427666122
0.4351549059
0.4313105715
0.433070153
0.4293605644
0.4498121201
0.4534544859
0.456912599
0.4707309877
0.4855052002
0.4574603367
0.4722975184
0.5052634326
0.5581490807
0.5294957256
0.5578323119
0.6045569852
0.6313858229
0.6281533285
0.6422874839
0.6973955488
0.7582086793
0.860121401
0.8586257872
0.9592716475
1.020285326
1.111914486
1.1508115
0.428973731
0.4212936798
0.4083963389
0.4111166653
0.4214102923
0.4318923936
0.4556775536
0.4490762393
0.4373154206
0.4472655119
0.4693638773
0.4925744081
0.5090121579
0.4723072763
0.5005968774
0.5522841167
0.5199166274
0.5104861826
0.5379029684
0.544903952
0.5883141795
0.6080681624
0.6359306042
0.6871577391
0.7498362687
0.7984967683
0.8482496909
0.8832083358
0.9681001457
1.064905645
0.4114615364
0.4252980909
0.4178937583
0.4232188417
0.4191546009
0.4165268363
0.4221409329
0.4258395712
0.4419738884
0.4474949636
0.4322976222
0.4486226631
0.4600417642
0.4778708794
0.4637871505
0.4845137489
0.5104866884
0.4929923639
0.5118141167
0.5351830924
0.5630621148
0.5820774755
0.5958372783
0.6082641838
0.6500146038
0.7044688574
0.7651435784
0.7958290755
0.8850042069
0.9438542755
0.4226609919
0.4202819427
0.4280790972
0.4242743261
0.429607282
0.4179161626
0.4117314757
0.4097652173
0.4085425499
0.4076482871
0.4205955293
0.4343480786
0.4320640123
0.4343580494
0.4444884073
0.4551519267
0.4950110019
0.4839588056
0.4896935113
0.5252548507
0.5162391354
0.5503997928
0.5956969471
0.6003718831
0.6113059774
0.6624080797
0.6726151412
0.7207530244
0.7653024593
0.8074271495
0.4014383467
0.4062823617
0.4022860986
0.406718553
0.3980260235
0.4032458058
0.407375891
0.4099878923
0.4211776725
0.4306654439
0.4283028766
0.4266824542
0.4483536179
0.4540251636
0.4551245517
0.4677960621
0.4635027888
0.4980192079
0.477335664
0.4801842062
0.5021734353
0.5149315704
0.5232652406
0.5522736131
0.5682376572
0.6103002729
0.6572812805
0.6746266414
0.7139333782
0.7571556079
0.3988784565
0.4067196075
0.4121496167
0.4065128395
0.4075634212
0.4095828875
0.4183833659
0.4185983865
0.4314455217
0.4288641064
0.4202619584
0.4333914135
0.4464167179
0.4540090207
0.4753229381
0.481309537
0.4705498553
0.4631849788
0.4909316284
0.4889849669
0.5135199662
0.5096122089
0.5058360873
0.5282415795
0.5365516479
0.5278264245
0.5571427173
0.5828759581
0.6331999139
0.681667176
0.4376924701
0.4253633178
0.4229007022
0.4156818193
0.424501091
0.4228966768
0.4176117743
0.4108080405
0.41564479
0.4188559436
0.4345112096
0.4257964007
0.4306663734
0.4296411955
0.4476810249
0.460306997
0.470011743
0.4603193938
0.4724041975
0.4733568125
0.4716859369
0.4771625114
0.4882411622
0.4955455435
0.4793290931
0.5198891814
0.5210530878
0.5628263346
0.5783087065
0.6176113599
0.4349418973
0.4249372066
0.4389505186
0.4326922256
0.4230093072
0.4349360658
0.4367482333
0.4388655854
0.4259256611
0.4350108448
0.4221772201
0.4275323994
0.4314398664
0.4349293533
0.4376607786
0.4394011464
0.4526372969
0.4492431229
0.455479121
0.4404144412
0.4669924394
0.4687042162
0.4737283521
0.4948330051
0.5263045841
0.518277425
0.503673437
0.5561321065
0.5398092611
0.5550413935
0.3907461252
0.3906501777
0.4012384042
0.4251669472
0.4203399036
0.4147331593
0.4160262582
0.4249013632
0.4311691686
0.4225727153
0.4216324907
0.4189015443
0.4219543921
0.4244469119
0.4345495133
0.4256712091
0.4242044487
0.4274449023
0.4344695136
0.4479125789
0.445839716
0.4469085041
0.4465275579
0.4551966909
0.4640730785
0.5350914091
0.5137058264
0.5332725244
0.5650233152
0.5794405232
0.4167530755
0.4126016427
0.4093813352
0.4016374236
0.4069284977
0.4175498953
0.4081562346
0.4079265474
0.4107515719
0.4328898698
0.4260520924
0.4197144027
0.4148274842
0.4094640086
0.4109631788
0.402771185
0.4245319754
0.4235792338
0.4395931687
0.4337020473
0.4280475377
0.451660508
0.4440096036
0.4709518487
0.4817357458
0.5509270159
0.4989803974
0.5023830199
0.5323003175
0.517930942
0.4126918196
0.4270226048
0.4122916669
0.4163761799
0.4196838592
0.4043954715
0.4185783766
0.4255274316
0.4272139732
0.4264265657
0.4140033043
0.4268826867
0.4306724213
0.4172327662
0.4206575091
0.4277418193
0.424569036
0.4190052362
0.4125516039
0.4127327219
0.4167246547
0.4331691759
0.4425756676
0.4238272024
0.4341593772
0.4672568643
0.4714244988
0.5137606549
0.5151667284
0.5230796674
0.4238536347
0.4269560241
0.42905233
0.4355433725
0.4480297354
0.4398345775
0.4283672837
0.422515511
0.4184094752
0.4110708256
0.4081212271
0.4038140566
0.4043674907
0.416295745
0.4252388738
0.4278205211
0.4246891592
0.4306359716
0.4208419267
0.4260157398
0.4194796495
0.4219069783
0.4304160304
0.4251225983
0.4224509357
0.4512371946
0.440029991
0.4502422222
0.4658871327
0.4997935163
0.405001301
0.4080592134
0.4158780553
0.4095266219
0.4073140214
0.4287330032
0.4282114645
0.4182597346
0.4115539371
0.4227632721
0.4305420627
0.4252225911
0.4372788762
0.4196296387
0.4134625385
0.4138986311
0.4099372315
0.4292965829
0.4236827567
0.4233070064
0.4409936422
0.4227200786
0.4242682979
0.4322531326
0.457392549
0.4528662954
0.4639125755
0.4598122331
0.4864416145
0.483974239
0.417708585
0.4159313259
0.4122808428
0.4024728158
0.3993735589
0.3909895817
0.3951646621
0.4083583516
0.4103843582
0.4206347823
0.4183184321
0.4109555498
0.4019435359
0.4005184776
0.3860999005
0.4115029321
0.4104741887
0.412924142
0.4069151414
0.4105219167
0.4093633208
0.426264887
0.4346908208
0.4405919385
0.4138340934
0.4016139724
0.4116298802
0.4333392216
0.4292960288
0.4583107947
)
;

boundaryField
{
    flow
    {
        type            calculated;
        value           nonuniform List<scalar> 
55
(
2.098191599
2.088348788
2.082756598
1.891687122
1.832594327
1.800482439
1.668884681
1.630206178
1.479959323
1.323628278
1.237274406
1.1508115
1.064905645
0.9438542755
0.8074271495
0.7571556079
0.681667176
0.6176113599
0.5550413935
0.5794405232
0.517930942
0.5230796674
0.4997935163
0.483974239
0.4583107947
0.417708585
0.4159313259
0.4122808428
0.4024728158
0.3993735589
0.3909895817
0.3951646621
0.4083583516
0.4103843582
0.4206347823
0.4183184321
0.4109555498
0.4019435359
0.4005184776
0.3860999005
0.4115029321
0.4104741887
0.412924142
0.4069151414
0.4105219167
0.4093633208
0.426264887
0.4346908208
0.4405919385
0.4138340934
0.4016139724
0.4116298802
0.4333392216
0.4292960288
0.4583107947
)
;
    }
    obstacle
    {
        type            calculated;
        value           nonuniform List<scalar> 0();
    }
    frontAndBack
    {
        type            empty;
    }
    procBoundary3to1
    {
        type            processor;
        value           nonuniform List<scalar> 
36
(
2.13708617
2.207478394
2.086223845
2.247348576
2.175537773
2.175537773
1.738150337
1.743444619
1.894611752
1.950999972
2.015067717
2.044569874
2.044569874
1.176369285
1.290363608
1.300572698
1.497418662
1.4982073
1.4982073
0.7194532574
0.7026116608
0.8020294804
0.879305347
0.8938766301
0.9467441982
0.9467441982
0.5038180093
0.4844489482
0.5049036398
0.5471416793
0.5439930251
0.5472410889
0.5832418846
0.5832418846
0.4688342196
0.4688342196
)
;
    }
    procBoundary3to2
    {
        type            processor;
        value           nonuniform List<scalar> 
19
(
0.4316477572
0.4340349478
0.4261591968
0.4187538474
0.4351502986
0.4242442648
0.4145295434
0.4151651982
0.4265061912
0.406374954
0.4082057641
0.4243392656
0.4337388073
0.3918226047
0.3982024842
0.4102999487
0.4143748636
0.4153947006
0.4123986583
)
;
    }
}


// ************************************************************************* //
