/*--------------------------------*- C++ -*----------------------------------*\
| =========                 |                                                 |
| \\      /  F ield         | OpenFOAM: The Open Source CFD Toolbox           |
|  \\    /   O peration     | Version:  2406                                  |
|   \\  /    A nd           | Website:  www.openfoam.com                      |
|    \\/     M anipulation  |                                                 |
\*---------------------------------------------------------------------------*/
FoamFile
{
    version     2.0;
    format      ascii;
    arch        "LSB;label=32;scalar=64";
    class       volScalarField;
    location    "0.001";
    object      rhoM;
}
// * * * * * * * * * * * * * * * * * * * * * * * * * * * * * * * * * * * * * //

dimensions      [1 -3 0 0 0 0 0];

internalField   nonuniform List<scalar> 
654
(
1.021869206e-05
7.936050096e-06
9.296697115e-06
8.916526878e-06
8.905327727e-06
1.248875267e-05
6.404878667e-06
9.952970885e-06
7.573279141e-06
9.593592554e-06
1.191962502e-05
1.184324979e-05
1.714931696e-05
7.824435916e-06
6.595377048e-06
1.08741591e-05
1.428730868e-05
7.638761271e-06
6.529630668e-06
6.077086738e-06
9.702961453e-06
6.866118337e-06
1.25509455e-05
1.065116672e-05
1.021472597e-05
1.287998911e-05
1.272559944e-05
1.157292805e-05
1.167678534e-05
1.122987132e-05
7.523389476e-06
1.143700504e-05
1.371922371e-05
6.252621912e-06
2.792130563e-06
4.582873076e-06
2.917419403e-06
5.309841331e-06
1.086987398e-05
4.15137026e-06
8.454543476e-06
3.797670955e-06
8.511297759e-06
7.552523422e-06
3.116168688e-06
1.196054678e-05
8.365288972e-06
7.017594732e-06
1.120080485e-05
1.726710717e-05
1.559935255e-05
7.916175078e-06
9.381651769e-06
9.655036131e-06
1.040729399e-05
4.803760421e-06
4.460868162e-06
3.351743664e-06
9.44081833e-06
5.645552072e-06
4.442327761e-06
4.476649688e-06
3.482231634e-06
5.18483638e-06
6.351531497e-06
7.131035906e-06
3.431337683e-06
6.423828759e-06
8.302740587e-06
5.860183473e-06
7.258855387e-06
2.383327347e-06
6.780576081e-06
8.656255811e-06
8.380452939e-06
1.268064195e-05
1.20810579e-05
9.767481747e-06
1.157292805e-05
1.00337073e-05
1.003282759e-05
1.01245093e-05
1.143700494e-05
6.718160343e-06
9.089768431e-06
6.004248449e-06
3.780798021e-06
4.418374348e-06
3.377052986e-06
3.944178308e-06
2.883253942e-06
4.39837742e-06
3.482231607e-06
9.173319792e-06
4.100159595e-06
3.484749595e-06
7.760234471e-06
7.164505574e-06
4.732602133e-06
7.785096337e-06
6.161208389e-06
4.170822926e-06
4.206040231e-06
7.444296718e-06
8.119418264e-06
6.956800112e-06
4.44159691e-06
4.57006657e-06
7.142428459e-06
1.38653587e-05
9.849349354e-06
1.31907541e-05
1.293642175e-05
8.799619202e-06
3.948142421e-06
3.377050784e-06
4.006880967e-06
7.312728443e-06
5.602921951e-06
3.325666318e-06
7.01301603e-06
1.649391557e-06
4.511506095e-06
2.871631226e-06
2.974473693e-06
3.484749623e-06
1.078251747e-05
7.246582652e-06
5.812318352e-06
6.779917214e-06
4.388555277e-06
5.105958586e-06
5.664392566e-06
3.808418942e-06
5.237520212e-06
5.811607408e-06
7.639461094e-06
7.079461272e-06
7.412750069e-06
1.276997327e-05
7.732696822e-06
1.802044626e-05
1.368613028e-05
1.466679173e-05
5.364394696e-06
7.055127576e-06
6.956886979e-06
2.818428305e-06
4.912581322e-06
3.944178338e-06
7.170237497e-06
2.199188727e-06
3.403349984e-06
4.546909564e-06
6.914374403e-06
5.348276929e-06
8.494959013e-06
3.046768445e-06
6.641792429e-06
9.54315133e-06
1.772653076e-06
5.532138526e-06
9.184027677e-06
6.838316985e-06
6.285865507e-06
7.044565514e-06
9.505060182e-06
9.229445928e-06
7.86546418e-06
9.851875621e-06
1.592408932e-05
5.387394627e-06
7.312479638e-06
6.718160404e-06
4.768550219e-06
3.752881303e-06
2.797462722e-06
3.885059022e-06
4.912581322e-06
2.707154327e-06
6.624655543e-06
4.476649688e-06
7.439659673e-06
5.584261168e-06
1.688528866e-06
5.348276846e-06
5.881730899e-06
4.199814206e-06
7.804256162e-06
4.268986162e-06
5.57032394e-06
7.234808053e-06
6.265255452e-06
4.500669234e-06
5.58766972e-06
6.428086431e-06
7.194659415e-06
7.88543569e-06
8.498392642e-06
9.21326709e-06
1.003282768e-05
9.381651853e-06
7.968756762e-06
8.137233184e-06
7.077671757e-06
6.529687987e-06
4.385507135e-06
5.8664689e-06
3.300553932e-06
5.491389861e-06
3.428835943e-06
4.633194091e-06
5.698543856e-06
2.313205114e-06
5.145716067e-06
4.619410099e-06
5.472676137e-06
8.235474371e-06
5.97781318e-06
4.352415012e-06
5.992965186e-06
2.383327387e-06
1.124324293e-05
7.010858276e-06
5.063497004e-06
5.107362985e-06
6.307195997e-06
3.853404979e-06
6.509499803e-06
5.838392616e-06
7.916175008e-06
1.02170867e-05
7.405910919e-06
1.32454397e-05
2.160609122e-06
2.702002239e-06
6.653621762e-06
3.885058994e-06
7.828790858e-06
7.888356616e-06
4.519999791e-06
3.926852443e-06
6.964463214e-06
6.460689893e-06
2.331501273e-06
4.700178328e-06
4.900786485e-06
3.541214305e-06
6.559045015e-06
6.110470018e-06
9.622392861e-06
6.04314442e-06
6.265255452e-06
6.146066731e-06
7.071072945e-06
4.315353197e-06
7.017594732e-06
2.598707608e-06
7.052321152e-06
8.940519524e-06
6.902609834e-06
7.338234495e-06
5.437079598e-06
8.042932291e-06
4.246962027e-06
5.329199928e-06
5.444203517e-06
5.866468944e-06
3.914395458e-06
5.64555203e-06
4.519999825e-06
6.204313447e-06
5.777425506e-06
4.067984115e-06
4.020030157e-06
4.132848177e-06
6.125983154e-06
5.434936989e-06
5.313833973e-06
4.185557347e-06
5.402080784e-06
5.532138481e-06
8.067844107e-06
7.964005623e-06
1.833552689e-06
3.170160515e-06
6.307195997e-06
8.334158715e-06
5.786464078e-06
2.645350009e-06
3.958087574e-06
6.687954599e-06
7.405910986e-06
1.021869196e-05
8.046591986e-06
3.827685787e-06
4.914855322e-06
4.342448624e-06
3.7613973e-06
5.414308694e-06
6.079073589e-06
5.81106062e-06
5.06558415e-06
1.675278338e-06
5.788688447e-06
5.105971981e-06
4.084644668e-06
2.964691401e-06
3.154401418e-06
7.785096212e-06
5.992965138e-06
5.532138526e-06
2.660078163e-06
6.146066782e-06
3.841128587e-06
8.806237197e-06
3.819730547e-06
4.032030712e-06
6.50949986e-06
3.374874422e-06
5.891261727e-06
5.852519602e-06
1.031131325e-05
6.05577446e-06
7.599260034e-06
3.302246296e-06
3.780798049e-06
6.092411104e-07
2.149369886e-06
1.778454847e-06
4.67534402e-06
7.853705005e-06
4.511506095e-06
4.546909599e-06
4.100159658e-06
5.267508585e-06
3.512755059e-06
4.117737186e-06
3.652885839e-06
6.61305957e-06
5.063561273e-06
5.616964479e-06
6.265255452e-06
3.029898068e-06
6.372877111e-06
4.403118524e-06
5.862394329e-06
4.391440797e-06
5.243642741e-06
3.28395854e-06
6.810870671e-06
7.523389476e-06
6.936496357e-06
8.988221053e-06
5.290138442e-06
6.454883476e-06
4.385507167e-06
6.018320456e-06
8.136636151e-06
3.867097212e-06
7.170237551e-06
3.926852502e-06
3.403349984e-06
5.18483634e-06
6.511790337e-06
2.917419403e-06
5.309841331e-06
1.153045761e-06
3.570138425e-06
5.357593974e-06
5.908843537e-06
4.936306679e-06
8.153386307e-06
3.808418942e-06
5.063497047e-06
6.340321084e-06
3.286396557e-06
3.136743427e-06
3.164642657e-06
3.922567038e-06
5.98300089e-06
3.994257225e-06
2.06226267e-06
5.961473548e-06
4.917062651e-06
6.004248492e-06
6.95688703e-06
4.951689739e-06
6.524608785e-06
5.414308694e-07
8.57208973e-06
6.910654984e-06
4.590387745e-06
6.301688565e-06
4.743132015e-06
4.780946667e-06
4.0846447e-06
2.470245564e-06
6.060560642e-06
3.013520633e-06
4.895318031e-06
6.808628117e-06
4.291582396e-06
2.51018908e-06
7.769268779e-06
3.698874169e-06
3.90826292e-06
5.018789483e-06
4.520607004e-06
5.199784182e-06
5.98300089e-06
4.086834679e-06
5.343648268e-06
5.961473439e-06
6.333314932e-06
4.278320845e-06
2.872823665e-06
3.42766942e-06
3.224054829e-06
4.485609174e-06
3.35116382e-06
3.848580272e-06
6.173740214e-06
7.339040126e-06
5.225845537e-06
3.40398132e-06
4.084644668e-06
5.929382849e-06
3.570138425e-06
2.427502238e-06
8.692988954e-06
8.085117819e-06
5.664392566e-06
3.722148328e-06
4.452312817e-06
6.340321031e-06
7.106127104e-06
3.853405012e-06
3.887678467e-06
8.392826795e-06
4.049826737e-06
5.387394627e-06
6.749633796e-06
4.919604506e-06
3.725373774e-06
4.353125356e-06
6.57826075e-06
4.494300104e-06
3.914395458e-06
6.264064067e-06
6.624655543e-06
7.460452165e-06
3.718876584e-06
7.498041512e-06
1.848787806e-06
8.26569629e-06
8.250706803e-06
4.694260104e-06
3.652885868e-06
5.943612369e-06
4.220312111e-06
4.255648845e-06
6.179713201e-06
1.904209471e-06
6.459888715e-06
3.874404939e-06
3.197864157e-06
7.88543569e-06
8.22807098e-06
5.929308549e-06
3.405435305e-06
8.638794406e-06
3.374816898e-06
4.73100253e-06
5.215882226e-06
3.377050759e-06
7.258330831e-06
3.351743664e-06
5.065579479e-06
4.021259434e-06
5.143253877e-06
5.026446874e-06
4.432624445e-06
7.259539463e-06
6.511790388e-06
2.269320898e-06
4.0846447e-06
2.388168544e-06
6.724539897e-06
1.758055056e-06
4.136190442e-06
5.616964433e-06
3.690719511e-06
4.414398551e-06
4.45231278e-06
6.869034653e-06
3.90826292e-06
7.168774139e-06
5.786464027e-06
6.386085318e-07
6.627392345e-06
2.601119823e-06
1.08741592e-05
6.055774515e-06
2.682197367e-06
5.553613502e-06
7.486235188e-06
7.312728443e-06
7.675792758e-06
8.429787482e-06
4.519999825e-06
4.476649688e-06
5.1444658e-06
1.675278338e-06
4.663002546e-06
5.267508544e-06
7.188344922e-06
6.423828708e-06
6.641792429e-06
3.013520609e-06
3.629427752e-06
4.25564888e-06
6.866118337e-06
4.328127942e-06
6.9840614e-06
4.403118598e-06
3.109331812e-06
5.108102349e-06
3.977785678e-06
6.386085318e-06
4.602478976e-06
3.901679735e-06
4.687371145e-06
9.462005059e-06
6.407571103e-06
3.827685787e-06
3.705437085e-06
5.9423947e-06
4.836082243e-06
1.624292608e-06
3.506508015e-06
5.654516219e-06
6.252621912e-06
3.430057339e-06
2.251371821e-06
4.132848177e-06
6.944092715e-06
4.612183009e-06
3.652885839e-06
2.344073389e-06
1.181768707e-06
6.04314442e-06
3.776261742e-06
6.838317042e-06
4.365301176e-06
3.170160515e-06
4.085327665e-06
4.659379397e-06
4.067892958e-06
4.104398835e-06
3.958087539e-06
4.551959691e-06
4.780802425e-06
2.175759764e-06
4.917062651e-06
4.278320845e-06
3.251449893e-06
6.094246168e-06
4.989080438e-06
7.424006932e-06
4.442327728e-06
2.90553031e-06
7.993737668e-06
3.430057365e-06
3.457187201e-06
4.619410063e-06
7.106927576e-06
4.199814206e-06
4.815349509e-06
5.274165168e-06
4.979439672e-06
2.383327387e-06
3.004314426e-06
8.309088138e-06
5.587669673e-06
1.849437069e-06
5.417592715e-06
7.706810024e-06
4.610714249e-06
2.554434127e-06
6.627392286e-06
3.994257189e-06
4.687371145e-06
4.257218523e-06
2.756453564e-06
3.827685814e-06
2.646740775e-06
3.351743664e-06
2.686712357e-06
3.790016086e-06
3.974417872e-06
6.282585601e-06
6.252621912e-06
5.264337004e-06
5.145716067e-06
5.754070503e-06
4.084644668e-06
4.694260066e-06
8.052498405e-06
4.185557313e-06
7.174733787e-06
4.936306639e-06
4.462666796e-06
2.423918455e-06
4.365301213e-06
6.515851832e-06
6.484260742e-06
3.853404979e-06
5.786464078e-06
2.554434127e-06
5.155131169e-06
1.263305163e-05
6.656202575e-06
4.068616666e-06
2.682197329e-06
4.803760387e-06
7.182969921e-06
4.494300137e-06
3.377052986e-06
7.1927635e-06
2.883253964e-06
5.732788463e-06
5.698543856e-06
6.460689893e-06
2.894344224e-06
3.40398132e-06
6.453620559e-06
5.352859968e-06
5.396581345e-06
2.594359956e-06
4.811196469e-06
3.829468939e-06
4.206040196e-06
5.106648805e-06
3.928140192e-06
5.019597627e-06
5.773862007e-06
5.018789483e-06
8.0456786e-06
2.006741477e-06
2.577565607e-06
4.086834716e-06
2.718539774e-06
4.162917558e-06
)
;

boundaryField
{
    flow
    {
        type            zeroGradient;
    }
    obstacle
    {
        type            calculated;
        value           nonuniform List<scalar> 0();
    }
    frontAndBack
    {
        type            empty;
    }
    procBoundary3to1
    {
        type            processor;
        value           nonuniform List<scalar> 
36
(
1.220584989e-05
1.578118403e-05
1.638500239e-05
8.173669431e-06
1.068729654e-05
1.068729654e-05
7.530567239e-06
9.341786577e-06
1.06556741e-05
1.101438993e-05
1.371019971e-05
1.410246461e-05
1.410246461e-05
4.151370293e-06
9.876866807e-06
9.958879262e-06
9.276781436e-06
1.622123041e-05
1.622123041e-05
3.482231634e-06
4.067984115e-06
2.894344246e-06
4.29438475e-06
4.656534277e-06
7.08242861e-06
7.08242861e-06
7.505762552e-06
7.63695706e-06
5.560930854e-06
4.528237041e-06
3.867097212e-06
1.114465537e-05
7.303907819e-06
7.303907819e-06
2.160609122e-06
2.160609122e-06
)
;
    }
    procBoundary3to2
    {
        type            processor;
        value           nonuniform List<scalar> 
19
(
3.180473627e-06
6.434663154e-06
5.843154299e-06
3.624550655e-06
5.399077245e-06
5.399077245e-06
2.736396592e-06
4.289775436e-06
4.66013659e-06
5.769438399e-06
5.325361345e-06
4.80756839e-06
2.736396573e-06
4.807568356e-06
4.437207268e-06
8.432119072e-06
2.588964772e-06
5.399077245e-06
7.173603809e-06
)
;
    }
}


// ************************************************************************* //
