/*--------------------------------*- C++ -*----------------------------------*\
| =========                 |                                                 |
| \\      /  F ield         | OpenFOAM: The Open Source CFD Toolbox           |
|  \\    /   O peration     | Version:  2406                                  |
|   \\  /    A nd           | Website:  www.openfoam.com                      |
|    \\/     M anipulation  |                                                 |
\*---------------------------------------------------------------------------*/
FoamFile
{
    version     2.0;
    format      ascii;
    arch        "LSB;label=32;scalar=64";
    class       volScalarField;
    location    "0.001";
    object      rhoMMean;
}
// * * * * * * * * * * * * * * * * * * * * * * * * * * * * * * * * * * * * * //

dimensions      [1 -3 0 0 0 0 0];

internalField   nonuniform List<scalar> 
654
(
1.005096625e-05
9.86675515e-06
1.008808237e-05
1.001143946e-05
1.020981809e-05
1.026003225e-05
8.269496428e-06
8.48527439e-06
8.741115799e-06
9.136914225e-06
9.37663677e-06
9.662766081e-06
9.693625321e-06
9.880574949e-06
9.942786118e-06
1.000660873e-05
1.020441472e-05
6.354056421e-06
6.65882692e-06
6.804088991e-06
7.03908978e-06
7.452472128e-06
7.826360417e-06
8.138184838e-06
8.437983577e-06
8.670928496e-06
8.916218959e-06
9.052104111e-06
9.34917562e-06
9.405138349e-06
9.413429705e-06
9.512221847e-06
9.508453072e-06
5.254465904e-06
5.439129901e-06
5.487575942e-06
5.642707363e-06
5.706002672e-06
5.809206716e-06
6.026544657e-06
6.137958235e-06
6.32195994e-06
6.550080717e-06
6.847427237e-06
7.135269408e-06
7.47978564e-06
7.593761093e-06
7.760661645e-06
8.063890353e-06
8.44591981e-06
8.711656507e-06
8.754108945e-06
9.139480243e-06
9.186406844e-06
9.19371861e-06
4.836383776e-06
4.862512501e-06
4.823090317e-06
4.889149492e-06
5.002611647e-06
4.908939019e-06
5.085239466e-06
5.026212436e-06
5.228067929e-06
5.32827525e-06
5.489866936e-06
5.564694037e-06
5.65754876e-06
5.734834319e-06
5.877329991e-06
6.133582349e-06
6.234322539e-06
6.403873045e-06
6.560021436e-06
6.607832572e-06
7.145169467e-06
7.363776573e-06
7.6758532e-06
8.023659765e-06
8.106601556e-06
8.329478019e-06
8.507796418e-06
9.12756038e-06
9.246939029e-06
4.731059579e-06
4.713306557e-06
4.701509084e-06
4.746018529e-06
4.706475239e-06
4.680249494e-06
4.894295291e-06
5.023054845e-06
5.246269798e-06
5.295420082e-06
5.259322669e-06
5.251012289e-06
5.414762943e-06
5.480047071e-06
5.508831881e-06
5.64511609e-06
5.627653791e-06
5.67173283e-06
5.872747571e-06
6.094313307e-06
6.373443923e-06
6.521999177e-06
6.704788195e-06
6.830365857e-06
7.085145296e-06
7.603919271e-06
8.029200569e-06
8.311181966e-06
8.235593112e-06
8.707968349e-06
4.853220252e-06
4.857087641e-06
4.808379195e-06
4.933871731e-06
4.972351832e-06
5.064319825e-06
5.106564957e-06
4.969331341e-06
5.030321908e-06
5.103752388e-06
5.189167019e-06
5.190194043e-06
5.210824978e-06
5.287160164e-06
5.121811432e-06
5.130684645e-06
5.258875323e-06
5.462533578e-06
5.775077971e-06
5.870828447e-06
5.940092382e-06
6.178422768e-06
6.337420039e-06
6.850645485e-06
7.222024883e-06
7.375873609e-06
7.63264016e-06
7.849338318e-06
8.198855216e-06
8.43750349e-06
4.870848847e-06
4.843287452e-06
5.007094409e-06
4.966004153e-06
5.029769128e-06
4.973517364e-06
4.919680258e-06
4.947309148e-06
4.774522301e-06
4.672883289e-06
4.836568824e-06
4.891833044e-06
4.961559818e-06
4.995999496e-06
5.27673809e-06
5.353482059e-06
5.382099533e-06
5.352085061e-06
5.324651511e-06
5.494435095e-06
5.885047997e-06
6.062306808e-06
6.184942152e-06
6.262448754e-06
6.468030382e-06
6.745561769e-06
6.985576343e-06
7.275510588e-06
7.526348074e-06
7.73398865e-06
4.845331146e-06
4.919698791e-06
4.959022802e-06
4.923642627e-06
4.850905037e-06
4.855507755e-06
4.914565164e-06
4.910621042e-06
4.976879709e-06
4.963613652e-06
4.896425296e-06
4.940138757e-06
5.009241352e-06
4.979813213e-06
4.985629728e-06
4.99152587e-06
5.126813009e-06
5.19748344e-06
5.442566911e-06
5.47316669e-06
5.52542882e-06
5.552152202e-06
5.880464562e-06
5.912239783e-06
5.966253842e-06
6.400934546e-06
6.574512339e-06
6.850448452e-06
7.123425534e-06
7.254816597e-06
4.795128112e-06
4.710146688e-06
4.745338655e-06
4.666195098e-06
4.679790731e-06
4.710746211e-06
4.76648886e-06
4.767043812e-06
4.744471013e-06
4.82268896e-06
4.892505489e-06
4.802656053e-06
4.863306477e-06
4.978792581e-06
4.982937772e-06
5.030162753e-06
5.182668311e-06
5.318189021e-06
5.247912146e-06
5.266279211e-06
5.479832018e-06
5.723135642e-06
5.830374012e-06
6.072614931e-06
6.295152908e-06
6.3684322e-06
6.683437371e-06
6.755697148e-06
6.810891408e-06
7.055194338e-06
4.792723232e-06
4.765066375e-06
4.842856722e-06
4.842893371e-06
4.923666487e-06
4.846378648e-06
4.753523884e-06
4.800597212e-06
4.888477888e-06
4.875801648e-06
4.91888475e-06
4.92048351e-06
4.881765805e-06
4.820853084e-06
4.903728747e-06
4.982796803e-06
4.883232984e-06
4.981978408e-06
5.158450511e-06
5.289104704e-06
5.265751972e-06
5.304331922e-06
5.481264923e-06
5.588030839e-06
5.812386108e-06
5.869305767e-06
6.199341845e-06
6.382648519e-06
6.693869213e-06
6.921001498e-06
4.894526934e-06
4.87391617e-06
4.761222812e-06
4.777699102e-06
4.837407919e-06
4.901281368e-06
4.984536225e-06
5.017545598e-06
4.927309146e-06
4.943301314e-06
5.069539328e-06
5.085955146e-06
5.131260743e-06
5.070883991e-06
5.067147681e-06
5.176659317e-06
5.142676707e-06
4.992537789e-06
4.981809228e-06
4.909289758e-06
5.004712428e-06
5.065514533e-06
5.161478505e-06
5.309849638e-06
5.437019469e-06
5.587040744e-06
5.695633419e-06
5.834095895e-06
6.064334318e-06
6.334039176e-06
4.700376283e-06
4.74811348e-06
4.758638648e-06
4.752414678e-06
4.702803283e-06
4.729286632e-06
4.762268249e-06
4.730096933e-06
4.786542816e-06
4.79491897e-06
4.687653857e-06
4.721953109e-06
4.756942842e-06
4.813938739e-06
4.811728622e-06
4.746554029e-06
4.8512805e-06
4.857180723e-06
4.924134701e-06
5.034626672e-06
5.06914991e-06
5.151796185e-06
5.096445994e-06
5.114508591e-06
5.234666907e-06
5.366121745e-06
5.560673698e-06
5.723684179e-06
5.912197088e-06
6.143801421e-06
4.862166927e-06
4.806065124e-06
4.831828487e-06
4.815012791e-06
4.802264104e-06
4.796401668e-06
4.748878612e-06
4.612485773e-06
4.539034599e-06
4.553430094e-06
4.632205788e-06
4.684524931e-06
4.597023814e-06
4.653356946e-06
4.737209451e-06
4.753134109e-06
4.842420578e-06
4.875642541e-06
4.846960607e-06
4.961104794e-06
4.894749738e-06
4.970961722e-06
5.135183009e-06
5.212689065e-06
5.266300221e-06
5.359709291e-06
5.403455548e-06
5.560021161e-06
5.69846019e-06
5.823776935e-06
4.758305553e-06
4.766277642e-06
4.735659701e-06
4.765799632e-06
4.63321778e-06
4.720307962e-06
4.712230089e-06
4.783958175e-06
4.810118181e-06
4.807824978e-06
4.798756876e-06
4.829407161e-06
4.794874043e-06
4.84510672e-06
4.889795183e-06
4.932415356e-06
4.962226979e-06
5.040870684e-06
4.913648893e-06
4.890925277e-06
4.937469544e-06
5.041365037e-06
5.056473762e-06
5.076676093e-06
5.193434222e-06
5.376694308e-06
5.485588381e-06
5.536651358e-06
5.605714875e-06
5.717518369e-06
4.766085631e-06
4.734189027e-06
4.775750402e-06
4.750758992e-06
4.789248202e-06
4.767498843e-06
4.786285083e-06
4.836921697e-06
4.891675135e-06
4.912184611e-06
4.87450997e-06
4.937199903e-06
5.003181083e-06
5.049972948e-06
5.086732069e-06
5.037719784e-06
5.021803879e-06
4.909977791e-06
5.037777086e-06
5.138329158e-06
5.086954955e-06
5.098620427e-06
5.012943116e-06
5.095309293e-06
5.170824698e-06
5.072197612e-06
5.099762843e-06
5.282174528e-06
5.402127217e-06
5.48794641e-06
4.950405746e-06
4.960821837e-06
4.93617997e-06
4.845334041e-06
4.855364171e-06
4.82501856e-06
4.778177184e-06
4.751023277e-06
4.735001366e-06
4.762262211e-06
4.795582721e-06
4.786667796e-06
4.735099365e-06
4.771139702e-06
4.789027832e-06
4.920707088e-06
4.976100182e-06
5.036976891e-06
5.050841525e-06
5.018008495e-06
5.038221622e-06
4.994884862e-06
5.030718063e-06
4.953563071e-06
4.856605761e-06
4.957855053e-06
4.948568433e-06
5.036897367e-06
5.010434496e-06
5.162120951e-06
4.916263555e-06
4.838784718e-06
4.92907054e-06
4.927916454e-06
4.8886868e-06
5.002137982e-06
5.047498025e-06
5.020848127e-06
4.971150661e-06
4.965494768e-06
4.966011084e-06
4.973820397e-06
4.978998885e-06
4.965335957e-06
4.870065338e-06
4.896936711e-06
4.858424014e-06
4.837505162e-06
4.78944468e-06
4.818307808e-06
4.945418357e-06
4.962544771e-06
5.002888899e-06
5.063279163e-06
5.169409116e-06
5.137708091e-06
5.115752064e-06
5.208589176e-06
5.133983393e-06
5.158491884e-06
4.707059342e-06
4.703998254e-06
4.78556915e-06
4.88100309e-06
4.896075086e-06
4.883365013e-06
4.859862888e-06
4.919711968e-06
4.928725202e-06
4.828909226e-06
4.78510779e-06
4.763781854e-06
4.808428687e-06
4.822514462e-06
4.937306737e-06
4.883726723e-06
4.850536836e-06
4.870011185e-06
4.928815964e-06
4.922322058e-06
4.989402549e-06
4.925894363e-06
4.90088574e-06
4.931910459e-06
4.900361361e-06
5.073860422e-06
5.103083236e-06
5.156598104e-06
5.286649589e-06
5.331130554e-06
4.744150278e-06
4.75697664e-06
4.700869836e-06
4.634318701e-06
4.664726618e-06
4.698834662e-06
4.611876765e-06
4.686158596e-06
4.734509047e-06
4.863073856e-06
4.872598482e-06
4.828138255e-06
4.820398238e-06
4.780372003e-06
4.779877618e-06
4.6668959e-06
4.777050215e-06
4.872212599e-06
4.90306647e-06
4.856371187e-06
4.837468279e-06
4.969912864e-06
4.967153424e-06
5.015975183e-06
5.126018213e-06
5.177488046e-06
5.017616704e-06
4.952717858e-06
5.025761743e-06
5.050210444e-06
4.764271177e-06
4.850632723e-06
4.714625569e-06
4.767484679e-06
4.757272938e-06
4.720289332e-06
4.871672801e-06
4.915764269e-06
4.903556952e-06
4.936627102e-06
4.893333897e-06
4.92017613e-06
4.956266418e-06
4.868780571e-06
4.853573315e-06
4.926709932e-06
4.873573995e-06
4.780413491e-06
4.763249721e-06
4.759331045e-06
4.814184313e-06
4.834228043e-06
4.909691902e-06
4.807792018e-06
4.854733926e-06
4.915995843e-06
5.071177364e-06
5.267832616e-06
5.220425111e-06
5.188023233e-06
4.919835032e-06
4.894616454e-06
5.017850308e-06
5.023894867e-06
5.032806941e-06
4.98663606e-06
4.846568522e-06
4.790719816e-06
4.788270549e-06
4.638877697e-06
4.651432952e-06
4.641207256e-06
4.696326516e-06
4.78101275e-06
4.828709092e-06
4.890889506e-06
4.883713356e-06
4.952703972e-06
4.925161167e-06
4.867052026e-06
4.76863391e-06
4.828431284e-06
4.821610977e-06
4.802986433e-06
4.830713131e-06
4.859478576e-06
4.81253889e-06
4.755108784e-06
4.786005786e-06
4.963423356e-06
4.830299121e-06
4.759994098e-06
4.771795169e-06
4.753777671e-06
4.737316617e-06
4.870491337e-06
4.915626291e-06
4.917173168e-06
4.829460629e-06
4.898297694e-06
4.968716119e-06
4.998763406e-06
5.022927347e-06
4.892958863e-06
4.823486794e-06
4.795242741e-06
4.78426833e-06
4.768496815e-06
4.800707345e-06
4.808352059e-06
4.896974186e-06
4.762390869e-06
4.85162483e-06
4.937966465e-06
5.03451612e-06
4.989559701e-06
5.109115803e-06
4.978755906e-06
5.090290907e-06
5.063476488e-06
4.778422931e-06
4.796289879e-06
4.755448022e-06
4.781488049e-06
4.699866736e-06
4.676534696e-06
4.679961169e-06
4.745804378e-06
4.795584893e-06
4.814545306e-06
4.833336495e-06
4.751927178e-06
4.707434703e-06
4.755133443e-06
4.718263044e-06
4.860078803e-06
4.744276846e-06
4.784861344e-06
4.740808681e-06
4.828951156e-06
4.808789634e-06
4.844125688e-06
4.757118261e-06
4.847253734e-06
4.678990456e-06
4.659500992e-06
4.672066041e-06
4.816375547e-06
4.796105397e-06
4.941629292e-06
)
;

boundaryField
{
    flow
    {
        type            calculated;
        value           nonuniform List<scalar> 
55
(
1.005096625e-05
1.026003225e-05
1.020441472e-05
9.508453072e-06
9.19371861e-06
9.246939029e-06
8.707968349e-06
8.43750349e-06
7.73398865e-06
7.254816597e-06
7.055194338e-06
6.921001498e-06
6.334039176e-06
6.143801421e-06
5.823776935e-06
5.717518369e-06
5.48794641e-06
5.162120951e-06
5.158491884e-06
5.331130554e-06
5.050210444e-06
5.188023233e-06
4.963423356e-06
5.063476488e-06
4.941629292e-06
4.778422931e-06
4.796289879e-06
4.755448022e-06
4.781488049e-06
4.699866736e-06
4.676534696e-06
4.679961169e-06
4.745804378e-06
4.795584893e-06
4.814545306e-06
4.833336495e-06
4.751927178e-06
4.707434703e-06
4.755133443e-06
4.718263044e-06
4.860078803e-06
4.744276846e-06
4.784861344e-06
4.740808681e-06
4.828951156e-06
4.808789634e-06
4.844125688e-06
4.757118261e-06
4.847253734e-06
4.678990456e-06
4.659500992e-06
4.672066041e-06
4.816375547e-06
4.796105397e-06
4.941629292e-06
)
;
    }
    obstacle
    {
        type            calculated;
        value           nonuniform List<scalar> 0();
    }
    frontAndBack
    {
        type            empty;
    }
    procBoundary3to1
    {
        type            processor;
        value           nonuniform List<scalar> 
36
(
9.964019617e-06
1.040873063e-05
1.013388368e-05
1.033446666e-05
1.025484576e-05
1.025484576e-05
8.384139951e-06
8.619250633e-06
9.090389594e-06
9.32175904e-06
9.52164587e-06
9.656599756e-06
9.656599756e-06
6.600051786e-06
6.981894788e-06
7.25341626e-06
7.757742368e-06
7.917632521e-06
7.917632521e-06
5.455184671e-06
5.255993037e-06
5.533458942e-06
5.752284816e-06
5.858812023e-06
6.165401149e-06
6.165401149e-06
5.066351303e-06
5.006645886e-06
5.097036869e-06
5.101892775e-06
5.040805229e-06
5.034873845e-06
5.101259964e-06
5.101259964e-06
4.782758541e-06
4.782758541e-06
)
;
    }
    procBoundary3to2
    {
        type            processor;
        value           nonuniform List<scalar> 
19
(
4.777845516e-06
4.720870474e-06
4.873273978e-06
4.870127989e-06
4.791444875e-06
4.889066997e-06
4.829189677e-06
4.675494886e-06
4.839818985e-06
4.783149497e-06
4.801674682e-06
4.856248055e-06
4.840236338e-06
4.726073313e-06
4.688483171e-06
4.799564313e-06
4.790427105e-06
4.89292873e-06
4.778122563e-06
)
;
    }
}


// ************************************************************************* //
