/*--------------------------------*- C++ -*----------------------------------*\
| =========                 |                                                 |
| \\      /  F ield         | OpenFOAM: The Open Source CFD Toolbox           |
|  \\    /   O peration     | Version:  2406                                  |
|   \\  /    A nd           | Website:  www.openfoam.com                      |
|    \\/     M anipulation  |                                                 |
\*---------------------------------------------------------------------------*/
FoamFile
{
    version     2.0;
    format      ascii;
    arch        "LSB;label=32;scalar=64";
    class       volScalarField;
    location    "0.001";
    object      rhoN;
}
// * * * * * * * * * * * * * * * * * * * * * * * * * * * * * * * * * * * * * //

dimensions      [0 -3 0 0 0 0 0];

internalField   nonuniform List<scalar> 
654
(
2.136728851e+20
1.648022032e+20
1.940103145e+20
1.817986973e+20
1.834753248e+20
2.564074597e+20
1.303181954e+20
2.1029995e+20
1.590913621e+20
2.006020524e+20
2.56336022e+20
2.450045928e+20
3.57071434e+20
1.662945538e+20
1.398451518e+20
2.258157844e+20
2.991420391e+20
1.624949217e+20
1.386279961e+20
1.27071904e+20
2.050174096e+20
1.421396072e+20
2.60636393e+20
2.234436969e+20
2.121218143e+20
2.674694032e+20
2.698273915e+20
2.450045928e+20
2.472033026e+20
2.355839534e+20
1.53829667e+20
2.399292731e+20
2.848971801e+20
1.310722282e+20
6.004581855e+19
9.683319584e+19
6.100324947e+19
1.106883124e+20
2.231701474e+20
8.749726551e+19
1.764356329e+20
7.624314304e+19
1.793902334e+20
1.550613897e+20
6.51590977e+19
2.497311907e+20
1.723489756e+20
1.471081718e+20
2.293532828e+20
3.53895526e+20
3.296044064e+20
1.662945538e+20
1.957832107e+20
1.975888113e+20
2.136728851e+20
1.016979766e+20
9.1070651e+19
6.881488497e+19
1.964477853e+20
1.164367461e+20
9.386356265e+19
9.458876315e+19
7.149394266e+19
1.080824742e+20
1.331456463e+20
1.464077999e+20
7.379220824e+19
1.363817578e+20
1.749945324e+20
1.26025451e+20
1.524862836e+20
5.125435156e+19
1.421396061e+20
1.824454736e+20
1.70868708e+20
2.651522657e+20
2.540959309e+20
2.023705437e+20
2.450045928e+20
2.060027504e+20
2.078681923e+20
2.097677277e+20
2.399292709e+20
1.424485887e+20
1.906881674e+20
1.242975251e+20
7.968681846e+19
9.175317928e+19
6.933451245e+19
8.150572167e+19
5.866472577e+19
9.458876172e+19
7.149394211e+19
1.921466194e+20
8.472904636e+19
7.320389879e+19
1.598831153e+20
1.487800971e+20
9.999687567e+19
1.63833089e+20
1.270719051e+20
8.96951167e+19
9.045247808e+19
1.563818371e+20
1.708687108e+20
1.458337486e+20
9.361429112e+19
9.443958786e+19
1.497250315e+20
2.884038556e+20
2.078681941e+20
2.796903036e+20
2.68156244e+20
1.851831671e+20
7.851865717e+19
6.779865055e+19
7.968681962e+19
1.490989174e+20
1.155575207e+20
6.986204714e+19
1.407953429e+20
3.547078618e+19
9.532525688e+19
6.004581855e+19
6.05207474e+19
7.320389936e+19
2.213766247e+20
1.487800982e+20
1.249960936e+20
1.386279961e+20
8.895033282e+19
1.025087048e+20
1.162960423e+20
7.819091724e+19
1.051499741e+20
1.193185206e+20
1.604816419e+20
1.484050653e+20
1.497250289e+20
2.609368195e+20
1.662945553e+20
3.775819098e+20
2.82269733e+20
3.133868981e+20
1.12169511e+20
1.468970762e+20
1.479898068e+20
5.734573747e+19
1.040017687e+20
8.150572227e+19
1.525282882e+20
4.729438122e+19
7.149394266e+19
9.607330968e+19
1.452497949e+20
1.098058499e+20
1.721818192e+20
6.19917076e+19
1.374957029e+20
2.016407233e+20
3.812157152e+19
1.153222929e+20
1.938267371e+20
1.433500149e+20
1.314374688e+20
1.458337486e+20
2.006020524e+20
1.888791741e+20
1.633363966e+20
2.060027522e+20
3.325891077e+20
1.118761214e+20
1.552483518e+20
1.4244859e+20
1.009525592e+20
7.909842564e+19
5.691915687e+19
8.028403246e+19
1.040017687e+20
5.821837262e+19
1.407953429e+20
9.458876315e+19
1.549035424e+20
1.20091638e+20
3.631244872e+19
1.098058482e+20
1.229870128e+20
8.678839064e+19
1.62494923e+20
8.821781643e+19
1.143647127e+20
1.537630559e+20
1.292178248e+20
9.122273754e+19
1.182937229e+20
1.32576134e+20
1.471081705e+20
1.618964349e+20
1.769477615e+20
1.922692354e+20
2.078681941e+20
1.957832125e+20
1.693618383e+20
1.709383065e+20
1.458203633e+20
1.355973001e+20
9.107064967e+19
1.261606215e+20
6.933451296e+19
1.16436747e+20
7.039767198e+19
9.458876315e+19
1.191565711e+20
4.803665484e+19
1.089373462e+20
9.760519991e+19
1.106883124e+20
1.735767813e+20
1.249960936e+20
8.821781643e+19
1.270719051e+20
5.12543524e+19
2.325920846e+20
1.433500149e+20
1.051499741e+20
1.060609072e+20
1.337347016e+20
8.094821746e+19
1.361136627e+20
1.236016502e+20
1.662945524e+20
2.097677258e+20
1.552483518e+20
2.706523211e+20
4.486780442e+19
5.649887586e+19
1.366059765e+20
8.028403187e+19
1.617805278e+20
1.630114433e+20
9.386356124e+19
8.276516651e+19
1.429878842e+20
1.321008008e+20
4.841659792e+19
9.760519839e+19
9.838961021e+19
7.439004912e+19
1.374957029e+20
1.26025451e+20
2.033150464e+20
1.28135881e+20
1.292178248e+20
1.303181954e+20
1.445812157e+20
9.280329456e+19
1.471081718e+20
5.396547831e+19
1.497250302e+20
1.922692371e+20
1.385787961e+20
1.53829667e+20
1.129078932e+20
1.709383081e+20
8.973560883e+19
1.129977509e+20
1.138383137e+20
1.261606224e+20
8.089026452e+19
1.164367452e+20
9.386356194e+19
1.300595493e+20
1.191565711e+20
8.406414597e+19
8.472904702e+19
8.540454992e+19
1.229870137e+20
1.115850737e+20
1.124964851e+20
8.821781714e+19
1.143647136e+20
1.15322292e+20
1.679831722e+20
1.694136554e+20
3.943124063e+19
6.628806698e+19
1.337347016e+20
1.75387806e+20
1.225022975e+20
5.493406725e+19
8.314727766e+19
1.39845153e+20
1.552483532e+20
2.136728831e+20
1.682542654e+20
7.909842506e+19
1.024544816e+20
9.175317996e+19
8.089026452e+19
1.164367461e+20
1.290623977e+20
1.18235953e+20
1.07240914e+20
3.602749113e+19
1.210414948e+20
1.09805849e+20
8.609090894e+19
6.199170711e+19
6.249804679e+19
1.638330863e+20
1.27071904e+20
1.153222929e+20
5.168713033e+19
1.303181965e+20
7.886248126e+19
1.856065891e+20
8.024082096e+19
8.094821746e+19
1.361136639e+20
6.866758407e+19
1.247209154e+20
1.258606366e+20
2.117022979e+20
1.28203731e+20
1.570373155e+20
6.779865104e+19
7.968681904e+19
1.146914741e+19
4.62230083e+19
3.493102357e+19
9.386356194e+19
1.655303355e+20
9.532525688e+19
9.607331042e+19
8.472904767e+19
1.09805849e+20
7.379220766e+19
8.678839064e+19
7.499765615e+19
1.386279972e+20
1.01657524e+20
1.153222929e+20
1.292178248e+20
6.515909824e+19
1.314374688e+20
9.280329298e+19
1.203612304e+20
9.443958704e+19
1.088909301e+20
6.866758407e+19
1.385787961e+20
1.53829667e+20
1.411348652e+20
1.851831654e+20
1.121695102e+20
1.355973001e+20
9.107065033e+19
1.261606224e+20
1.733362811e+20
8.150572227e+19
1.525282893e+20
8.276516776e+19
7.149394266e+19
1.080824734e+20
1.331456443e+20
6.100324947e+19
1.106883124e+20
2.479668304e+19
7.499765615e+19
1.134229059e+20
1.27071904e+20
1.025087048e+20
1.679831722e+20
7.819091724e+19
1.05149975e+20
1.325761351e+20
6.68673508e+19
6.745684789e+19
6.805683133e+19
8.240110016e+19
1.247209154e+20
8.390709107e+19
4.234045996e+19
1.282037322e+20
1.009525592e+20
1.24297526e+20
1.479898079e+20
1.032223275e+20
1.386690259e+20
1.164367461e+19
1.759941773e+20
1.418831437e+20
9.532525688e+19
1.321008008e+20
9.683319584e+19
9.760519915e+19
8.609090961e+19
4.959336608e+19
1.249960946e+20
6.301272653e+19
1.016575232e+20
1.409494679e+20
9.045247734e+19
5.212727816e+19
1.577249625e+20
7.954568105e+19
8.024082096e+19
1.079309566e+20
9.52795647e+19
1.098681355e+20
1.247209154e+20
8.390709032e+19
1.129078922e+20
1.282037299e+20
1.346034132e+20
9.039820073e+19
5.691915646e+19
6.881488497e+19
6.933451245e+19
9.314939619e+19
7.039767146e+19
8.276516713e+19
1.310722272e+20
1.561191282e+20
1.089373462e+20
7.320389936e+19
8.609090894e+19
1.239834152e+20
7.499765615e+19
5.041018041e+19
1.779006656e+20
1.665766453e+20
1.162960423e+20
7.819091789e+19
9.200622814e+19
1.32576134e+20
1.471081718e+20
8.094821816e+19
8.166819831e+19
1.785357186e+20
8.314727766e+19
1.118761214e+20
1.411348652e+20
9.971401303e+19
7.851865717e+19
9.039820073e+19
1.366059755e+20
9.175317928e+19
8.089026452e+19
1.280804207e+20
1.407953429e+20
1.53706739e+20
7.149394266e+19
1.561191294e+20
3.631244872e+19
1.708090985e+20
1.721818192e+20
9.918673295e+19
7.499765675e+19
1.26025452e+20
8.895033354e+19
8.969511596e+19
1.292178237e+20
3.909545862e+19
1.314374688e+20
7.954568038e+19
6.686735023e+19
1.618964349e+20
1.76947763e+20
1.236016513e+20
6.928939743e+19
1.817986973e+20
7.056743262e+19
9.971401212e+19
1.121695102e+20
6.779865006e+19
1.479898068e+20
6.881488497e+19
1.040017687e+20
8.150572167e+19
1.055965072e+20
1.064123585e+20
9.532525688e+19
1.561191282e+20
1.331456453e+20
4.880259996e+19
8.609090961e+19
4.959336608e+19
1.37495704e+20
3.780763561e+19
8.89503321e+19
1.15322292e+20
7.753069486e+19
9.122273678e+19
9.200622737e+19
1.458337474e+20
8.024082096e+19
1.484050653e+20
1.225022964e+20
1.373351681e+19
1.385787961e+20
5.593806071e+19
2.258157864e+20
1.282037322e+20
5.608475592e+19
1.129977517e+20
1.593736392e+20
1.490989174e+20
1.61780529e+20
1.746551179e+20
9.386356194e+19
9.458876315e+19
1.07240914e+20
3.602749113e+19
9.683319584e+19
1.098058482e+20
1.475844153e+20
1.363817567e+20
1.374957029e+20
6.301272602e+19
7.624314304e+19
8.96951167e+19
1.421396072e+20
9.122273754e+19
1.445812169e+20
9.280329456e+19
6.68673508e+19
1.079309566e+20
8.16681976e+19
1.373351681e+20
9.700515727e+19
8.390709107e+19
9.879440567e+19
1.994280242e+20
1.346034123e+20
7.909842506e+19
7.968681904e+19
1.261606224e+20
1.040017687e+20
3.493102383e+19
7.039767146e+19
1.18235953e+20
1.310722282e+20
7.205498226e+19
4.84165983e+19
8.540454992e+19
1.475844153e+20
9.918673137e+19
7.499765615e+19
5.041018041e+19
2.541438081e+19
1.28135881e+20
7.75306955e+19
1.433500161e+20
9.200622737e+19
6.628806698e+19
8.024082096e+19
9.443958704e+19
8.166819831e+19
8.240110088e+19
8.314727692e+19
9.789160625e+19
9.879440567e+19
4.273457701e+19
1.009525592e+20
9.039820073e+19
6.830298775e+19
1.261606215e+20
1.040017694e+20
1.513677699e+20
9.386356194e+19
5.911797652e+19
1.668191983e+20
7.205498281e+19
7.262489744e+19
9.760519915e+19
1.475844165e+20
8.678839064e+19
9.999687487e+19
1.134229068e+20
1.01657524e+20
5.12543524e+19
6.460891238e+19
1.69413654e+20
1.182937219e+20
3.977284019e+19
1.069877604e+20
1.618964363e+20
9.52795647e+19
5.493406725e+19
1.385787949e+20
8.390709032e+19
9.879440567e+19
8.546915325e+19
5.608475552e+19
7.909842564e+19
5.691915646e+19
6.881488497e+19
5.777876037e+19
8.150572227e+19
8.21306167e+19
1.300595484e+20
1.310722282e+20
1.080824734e+20
1.089373462e+20
1.220064989e+20
8.609090894e+19
9.918673216e+19
1.62494923e+20
8.821781643e+19
1.524862836e+20
1.02508704e+20
9.045247734e+19
5.212727859e+19
9.200622814e+19
1.32576134e+20
1.337347016e+20
8.094821746e+19
1.225022975e+20
5.493406725e+19
1.108630359e+20
2.657057884e+20
1.411348665e+20
8.546915481e+19
5.608475512e+19
1.016979758e+20
1.479898079e+20
9.175317996e+19
6.933451245e+19
1.513677688e+20
5.866472621e+19
1.182359539e+20
1.191565711e+20
1.321008008e+20
6.05207474e+19
7.320389936e+19
1.352857151e+20
1.115850737e+20
1.124964842e+20
5.041018082e+19
1.01657524e+20
7.68815286e+19
9.045247734e+19
1.042545563e+20
7.886248126e+19
1.060609081e+20
1.203612314e+20
1.079309566e+20
1.633363952e+20
4.120055044e+19
5.543151844e+19
8.390709107e+19
5.64539461e+19
8.546915325e+19
)
;

boundaryField
{
    flow
    {
        type            zeroGradient;
    }
    obstacle
    {
        type            calculated;
        value           nonuniform List<scalar> 0();
    }
    frontAndBack
    {
        type            empty;
    }
    procBoundary3to1
    {
        type            processor;
        value           nonuniform List<scalar> 
36
(
2.564074621e+20
3.296044006e+20
3.464469872e+20
1.678141821e+20
2.258157844e+20
2.258157844e+20
1.563818345e+20
1.971562015e+20
2.253794258e+20
2.273489908e+20
2.833187636e+20
2.858386966e+20
2.858386966e+20
8.749726621e+19
2.016407249e+20
2.033150464e+20
1.922038199e+20
3.359663444e+20
3.359663444e+20
7.149394266e+19
8.406414597e+19
6.052074787e+19
8.540454926e+19
9.838961021e+19
1.487800982e+20
1.487800982e+20
1.581968501e+20
1.593736381e+20
1.146914749e+20
9.244601728e+19
8.150572227e+19
2.346589049e+20
1.537067401e+20
1.537067401e+20
4.486780442e+19
4.486780442e+19
)
;
    }
    procBoundary3to2
    {
        type            processor;
        value           nonuniform List<scalar> 
19
(
6.681199412e+19
1.336239882e+20
1.224886559e+20
7.794732592e+19
1.113533235e+20
1.113533235e+20
5.567666217e+19
8.908265883e+19
1.002179912e+20
1.224886559e+20
1.113533235e+20
1.002179912e+20
5.567666177e+19
1.002179905e+20
8.908265946e+19
1.781653177e+20
5.567666177e+19
1.113533235e+20
1.447593206e+20
)
;
    }
}


// ************************************************************************* //
