/*--------------------------------*- C++ -*----------------------------------*\
| =========                 |                                                 |
| \\      /  F ield         | OpenFOAM: The Open Source CFD Toolbox           |
|  \\    /   O peration     | Version:  2406                                  |
|   \\  /    A nd           | Website:  www.openfoam.com                      |
|    \\/     M anipulation  |                                                 |
\*---------------------------------------------------------------------------*/
FoamFile
{
    version     2.0;
    format      ascii;
    arch        "LSB;label=32;scalar=64";
    class       volScalarField;
    location    "0.001";
    object      rhoNMean;
}
// * * * * * * * * * * * * * * * * * * * * * * * * * * * * * * * * * * * * * //

dimensions      [0 -3 0 0 0 0 0];

internalField   nonuniform List<scalar> 
654
(
2.097697937e+20
2.058104848e+20
2.103348967e+20
2.089845948e+20
2.126902419e+20
2.139008009e+20
1.721503361e+20
1.766782455e+20
1.82318701e+20
1.90464962e+20
1.955978761e+20
2.017748935e+20
2.022397668e+20
2.057895104e+20
2.069148866e+20
2.086255578e+20
2.128466832e+20
1.32695853e+20
1.389304572e+20
1.419393168e+20
1.467155837e+20
1.552681382e+20
1.632105093e+20
1.696069097e+20
1.757959536e+20
1.808093166e+20
1.860459865e+20
1.887896501e+20
1.950434058e+20
1.963384383e+20
1.965104073e+20
1.984356223e+20
1.985733345e+20
1.094572262e+20
1.133665054e+20
1.141179213e+20
1.175654624e+20
1.187316631e+20
1.208094398e+20
1.254710787e+20
1.278402185e+20
1.317735655e+20
1.36720985e+20
1.429407578e+20
1.487973155e+20
1.561214254e+20
1.587466642e+20
1.621399522e+20
1.686421197e+20
1.767572039e+20
1.82436039e+20
1.834228929e+20
1.912242588e+20
1.918869628e+20
1.917642919e+20
1.008165941e+20
1.012477962e+20
1.004926703e+20
1.019448448e+20
1.043506119e+20
1.023347492e+20
1.059867091e+20
1.047147947e+20
1.089711523e+20
1.110918857e+20
1.14368893e+20
1.158783643e+20
1.178586354e+20
1.196212625e+20
1.226479689e+20
1.279105776e+20
1.301347986e+20
1.337404475e+20
1.369644234e+20
1.38114491e+20
1.492807256e+20
1.538751463e+20
1.60439367e+20
1.676375869e+20
1.693067938e+20
1.73860956e+20
1.777431879e+20
1.908143378e+20
1.931602863e+20
9.868673511e+19
9.833064213e+19
9.821969567e+19
9.902461874e+19
9.815455812e+19
9.755070516e+19
1.020766228e+20
1.047807008e+20
1.09504888e+20
1.105563611e+20
1.098330524e+20
1.096838417e+20
1.130742586e+20
1.14461488e+20
1.148464117e+20
1.177581833e+20
1.17261954e+20
1.183206725e+20
1.22550186e+20
1.271384335e+20
1.328044196e+20
1.358905385e+20
1.397795101e+20
1.422530021e+20
1.476288811e+20
1.584573184e+20
1.674586172e+20
1.73240174e+20
1.716764501e+20
1.817074215e+20
1.010647287e+20
1.011781862e+20
1.001549484e+20
1.029011913e+20
1.036782076e+20
1.055848406e+20
1.063943475e+20
1.0362199e+20
1.047624573e+20
1.061369889e+20
1.080658466e+20
1.08170962e+20
1.085729357e+20
1.103204428e+20
1.070216553e+20
1.072728639e+20
1.099680257e+20
1.139640526e+20
1.205343869e+20
1.225512309e+20
1.23892957e+20
1.289170327e+20
1.322903668e+20
1.428466211e+20
1.504872654e+20
1.537329872e+20
1.590330264e+20
1.635628895e+20
1.709707773e+20
1.757530704e+20
1.017153126e+20
1.009521907e+20
1.0432143e+20
1.034746487e+20
1.049031173e+20
1.036519914e+20
1.024755437e+20
1.029598679e+20
9.942424292e+19
9.734628103e+19
1.008759826e+20
1.020950391e+20
1.0370265e+20
1.044684256e+20
1.102715538e+20
1.117089607e+20
1.125094647e+20
1.118113698e+20
1.111531729e+20
1.144975665e+20
1.224734334e+20
1.261594501e+20
1.288132646e+20
1.306774057e+20
1.348614181e+20
1.407136133e+20
1.456740292e+20
1.517879277e+20
1.570266511e+20
1.614227422e+20
1.009525592e+20
1.025793583e+20
1.034334919e+20
1.025571169e+20
1.010203846e+20
1.012533937e+20
1.025459414e+20
1.026051608e+20
1.040236866e+20
1.037831936e+20
1.023768971e+20
1.031442934e+20
1.045389609e+20
1.038485086e+20
1.040467491e+20
1.041474336e+20
1.068674704e+20
1.083260729e+20
1.135307808e+20
1.142108674e+20
1.154020986e+20
1.158980563e+20
1.226347203e+20
1.233381007e+20
1.243534422e+20
1.335447175e+20
1.371930081e+20
1.428658071e+20
1.485585592e+20
1.512234218e+20
9.998790142e+19
9.821764438e+19
9.897102853e+19
9.74418764e+19
9.776166327e+19
9.834247649e+19
9.942497873e+19
9.950737884e+19
9.894761664e+19
1.004926819e+20
1.019169394e+20
1.000209286e+20
1.012675071e+20
1.036253384e+20
1.037717569e+20
1.047271506e+20
1.079094618e+20
1.109656729e+20
1.094991847e+20
1.098321751e+20
1.142980219e+20
1.192920053e+20
1.216450846e+20
1.264950812e+20
1.311591253e+20
1.326932383e+20
1.391053931e+20
1.408520356e+20
1.420945823e+20
1.471778832e+20
9.980843092e+19
9.923462557e+19
1.00860746e+20
1.008826206e+20
1.025226316e+20
1.010438075e+20
9.897912532e+19
9.9838438e+19
1.017120483e+20
1.0152547e+20
1.025221461e+20
1.02461057e+20
1.016364674e+20
1.004017696e+20
1.020968092e+20
1.038197666e+20
1.018354239e+20
1.037900636e+20
1.074575431e+20
1.101449387e+20
1.097502864e+20
1.105950119e+20
1.14289676e+20
1.166193986e+20
1.211956063e+20
1.22475504e+20
1.294325956e+20
1.329927393e+20
1.394694751e+20
1.442149526e+20
1.021191229e+20
1.016301772e+20
9.933531257e+19
9.962101514e+19
1.008123811e+20
1.021383129e+20
1.03930429e+20
1.045915249e+20
1.028321209e+20
1.030386246e+20
1.055966009e+20
1.058528393e+20
1.069249097e+20
1.056834631e+20
1.056716984e+20
1.078273776e+20
1.071724439e+20
1.040463345e+20
1.037360697e+20
1.022737206e+20
1.042824877e+20
1.056101483e+20
1.076029409e+20
1.106562142e+20
1.134371275e+20
1.164052885e+20
1.187343125e+20
1.218051283e+20
1.266544292e+20
1.322207801e+20
9.812588755e+19
9.894082998e+19
9.919870587e+19
9.913931094e+19
9.815455812e+19
9.85986366e+19
9.926071675e+19
9.851419608e+19
9.961489344e+19
9.984418708e+19
9.765627801e+19
9.841044204e+19
9.902914268e+19
1.002777854e+20
1.00121871e+20
9.877874851e+19
1.008696774e+20
1.010223286e+20
1.025472666e+20
1.048800845e+20
1.056757249e+20
1.073071237e+20
1.061853531e+20
1.066627679e+20
1.091087129e+20
1.11900695e+20
1.15796441e+20
1.191201003e+20
1.229566946e+20
1.278903441e+20
1.012890685e+20
1.002064062e+20
1.007013716e+20
1.003091633e+20
1.001421475e+20
9.990272741e+19
9.907298963e+19
9.62677137e+19
9.482479928e+19
9.508855899e+19
9.666373925e+19
9.770280435e+19
9.588067515e+19
9.695503069e+19
9.879691237e+19
9.923244094e+19
1.012254796e+20
1.018936526e+20
1.013843053e+20
1.036811571e+20
1.022320632e+20
1.037805968e+20
1.070412542e+20
1.084975941e+20
1.097076121e+20
1.115985576e+20
1.124982667e+20
1.157358476e+20
1.184968329e+20
1.21024321e+20
9.911297924e+19
9.932502233e+19
9.876612029e+19
9.927694071e+19
9.642119531e+19
9.836576311e+19
9.818128653e+19
9.955467322e+19
1.000438571e+20
1.000123154e+20
9.993185811e+19
1.006309603e+20
9.998844217e+19
1.011704668e+20
1.018968155e+20
1.02836768e+20
1.034365299e+20
1.049945409e+20
1.02237143e+20
1.018045742e+20
1.027578131e+20
1.049737838e+20
1.053561979e+20
1.057723375e+20
1.082103618e+20
1.120654962e+20
1.143829373e+20
1.154841263e+20
1.169443504e+20
1.193719195e+20
9.947192168e+19
9.887303205e+19
9.969959518e+19
9.923106412e+19
1.000728137e+20
9.943698117e+19
9.984736327e+19
1.008552679e+20
1.019741935e+20
1.023420931e+20
1.01626439e+20
1.029490838e+20
1.043175851e+20
1.052867162e+20
1.060216874e+20
1.050296126e+20
1.046055914e+20
1.023036865e+20
1.049507173e+20
1.070694293e+20
1.060174623e+20
1.062730299e+20
1.04420055e+20
1.061231131e+20
1.076931308e+20
1.056931463e+20
1.065393775e+20
1.103937618e+20
1.128514383e+20
1.143862168e+20
1.032856858e+20
1.033929421e+20
1.029098349e+20
1.009514362e+20
1.011590537e+20
1.005081985e+20
9.965963689e+19
9.917631742e+19
9.892378457e+19
9.945989385e+19
1.001255253e+20
1.000453291e+20
9.888155826e+19
9.953388572e+19
9.994687643e+19
1.026603324e+20
1.039194031e+20
1.050457952e+20
1.053383707e+20
1.045412572e+20
1.048871001e+20
1.040987804e+20
1.048480061e+20
1.032899264e+20
1.014046796e+20
1.036056508e+20
1.030471928e+20
1.049398019e+20
1.044962542e+20
1.078050929e+20
1.024556306e+20
1.008617925e+20
1.027504612e+20
1.026947459e+20
1.019217333e+20
1.042807498e+20
1.05197587e+20
1.046861128e+20
1.037138795e+20
1.036150653e+20
1.035873121e+20
1.036567215e+20
1.038010396e+20
1.036501359e+20
1.016718233e+20
1.021814365e+20
1.013525515e+20
1.010479549e+20
1.001179698e+20
1.008662832e+20
1.034938629e+20
1.038336281e+20
1.046607766e+20
1.057723375e+20
1.078564672e+20
1.071488982e+20
1.06705672e+20
1.0874359e+20
1.070366818e+20
1.075201948e+20
9.812588755e+19
9.812724618e+19
9.983620043e+19
1.018001532e+20
1.021990713e+20
1.019287268e+20
1.014430446e+20
1.026761024e+20
1.028082895e+20
1.006127736e+20
9.976240079e+19
9.936209351e+19
1.002344162e+20
1.00525753e+20
1.030217812e+20
1.020050009e+20
1.014796217e+20
1.016886343e+20
1.029349192e+20
1.028471198e+20
1.043087743e+20
1.029586256e+20
1.023605406e+20
1.030470808e+20
1.023030289e+20
1.058579476e+20
1.066502415e+20
1.07820612e+20
1.105368275e+20
1.114802676e+20
9.882133994e+19
9.916682691e+19
9.799202047e+19
9.657022191e+19
9.732254397e+19
9.808631419e+19
9.623361688e+19
9.785207548e+19
9.880462875e+19
1.014774333e+20
1.016990639e+20
1.007773673e+20
1.007509609e+20
9.978185255e+19
9.964688581e+19
9.731685407e+19
9.959895919e+19
1.01663008e+20
1.023922043e+20
1.015178751e+20
1.009702644e+20
1.038071138e+20
1.037513815e+20
1.048549244e+20
1.069853389e+20
1.080278433e+20
1.045715595e+20
1.030379078e+20
1.045244812e+20
1.050130996e+20
9.927001656e+19
1.010425881e+20
9.824246405e+19
9.936869389e+19
9.91252413e+19
9.824932636e+19
1.014665105e+20
1.024632769e+20
1.022840006e+20
1.03062643e+20
1.020863975e+20
1.025586638e+20
1.031861037e+20
1.013936361e+20
1.009968436e+20
1.026351273e+20
1.014033794e+20
9.943344365e+19
9.892916746e+19
9.891151113e+19
1.001027754e+20
1.005192248e+20
1.020663243e+20
9.986311761e+19
1.009691158e+20
1.022322992e+20
1.056247574e+20
1.098623512e+20
1.08899662e+20
1.08203949e+20
1.025004985e+20
1.019691704e+20
1.046629449e+20
1.04644501e+20
1.047644491e+20
1.037451408e+20
1.008798632e+20
9.974384999e+19
9.956723005e+19
9.648162199e+19
9.66395302e+19
9.653154196e+19
9.775007852e+19
9.968266582e+19
1.007468514e+20
1.019293856e+20
1.016829384e+20
1.032006386e+20
1.025472657e+20
1.014136197e+20
9.928786391e+19
1.004927095e+20
1.00461507e+20
9.997104943e+19
1.006424431e+20
1.0129842e+20
1.003033317e+20
9.926208785e+19
9.978234973e+19
1.036455932e+20
1.007506548e+20
9.932502305e+19
9.947191783e+19
9.911637265e+19
9.870923422e+19
1.014396932e+20
1.023816802e+20
1.024632769e+20
1.006396399e+20
1.020058366e+20
1.034662706e+20
1.040715436e+20
1.045881557e+20
1.016911971e+20
1.001718702e+20
9.961051729e+19
9.949730004e+19
9.917717108e+19
9.993706567e+19
1.001104385e+20
1.019954758e+20
9.914043298e+19
1.010231936e+20
1.029391499e+20
1.05025303e+20
1.040176563e+20
1.065116617e+20
1.037651026e+20
1.060769657e+20
1.054119576e+20
9.953922338e+19
9.98900118e+19
9.903933296e+19
9.957513855e+19
9.796966609e+19
9.745755576e+19
9.747730908e+19
9.88452575e+19
9.992470052e+19
1.00276517e+20
1.007065237e+20
9.897167194e+19
9.797145514e+19
9.901315538e+19
9.8296928e+19
1.012488482e+20
9.876028461e+19
9.966408824e+19
9.874826169e+19
1.005274559e+20
1.001027762e+20
1.009434693e+20
9.909741389e+19
1.008884617e+20
9.737571427e+19
9.698609574e+19
9.731003062e+19
1.002969429e+20
9.983880367e+19
1.029903297e+20
)
;

boundaryField
{
    flow
    {
        type            calculated;
        value           nonuniform List<scalar> 
55
(
2.097697937e+20
2.139008009e+20
2.128466832e+20
1.985733345e+20
1.917642919e+20
1.931602863e+20
1.817074215e+20
1.757530704e+20
1.614227422e+20
1.512234218e+20
1.471778832e+20
1.442149526e+20
1.322207801e+20
1.278903441e+20
1.21024321e+20
1.193719195e+20
1.143862168e+20
1.078050929e+20
1.075201948e+20
1.114802676e+20
1.050130996e+20
1.08203949e+20
1.036455932e+20
1.054119576e+20
1.029903297e+20
9.953922338e+19
9.98900118e+19
9.903933296e+19
9.957513855e+19
9.796966609e+19
9.745755576e+19
9.747730908e+19
9.88452575e+19
9.992470052e+19
1.00276517e+20
1.007065237e+20
9.897167194e+19
9.797145514e+19
9.901315538e+19
9.8296928e+19
1.012488482e+20
9.876028461e+19
9.966408824e+19
9.874826169e+19
1.005274559e+20
1.001027762e+20
1.009434693e+20
9.909741389e+19
1.008884617e+20
9.737571427e+19
9.698609574e+19
9.731003062e+19
1.002969429e+20
9.983880367e+19
1.029903297e+20
)
;
    }
    obstacle
    {
        type            calculated;
        value           nonuniform List<scalar> 0();
    }
    frontAndBack
    {
        type            empty;
    }
    procBoundary3to1
    {
        type            processor;
        value           nonuniform List<scalar> 
36
(
2.074051471e+20
2.167698275e+20
2.110555046e+20
2.155013789e+20
2.138193208e+20
2.138193208e+20
1.747827637e+20
1.798064558e+20
1.897959918e+20
1.948247116e+20
1.987278756e+20
2.015298925e+20
2.015298925e+20
1.372707111e+20
1.453829626e+20
1.510884939e+20
1.616049718e+20
1.647785701e+20
1.647785701e+20
1.136753688e+20
1.09595628e+20
1.154251703e+20
1.199323885e+20
1.222244933e+20
1.288931584e+20
1.288931584e+20
1.056076972e+20
1.043441976e+20
1.062272441e+20
1.062435854e+20
1.050725197e+20
1.049394623e+20
1.063177698e+20
1.063177698e+20
9.971869532e+19
9.971869532e+19
)
;
    }
    procBoundary3to2
    {
        type            processor;
        value           nonuniform List<scalar> 
19
(
9.966122457e+19
9.832498468e+19
1.01754667e+20
1.01442877e+20
9.988393121e+19
1.018660204e+20
1.008192998e+20
9.761232341e+19
1.009083818e+20
9.96389539e+19
1.002402618e+20
1.013092538e+20
1.007524871e+20
9.859223196e+19
9.770140677e+19
9.995074321e+19
9.997301387e+19
1.020441857e+20
9.954987124e+19
)
;
    }
}


// ************************************************************************* //
