/*--------------------------------*- C++ -*----------------------------------*\
| =========                 |                                                 |
| \\      /  F ield         | OpenFOAM: The Open Source CFD Toolbox           |
|  \\    /   O peration     | Version:  2406                                  |
|   \\  /    A nd           | Website:  www.openfoam.com                      |
|    \\/     M anipulation  |                                                 |
\*---------------------------------------------------------------------------*/
FoamFile
{
    version     2.0;
    format      ascii;
    arch        "LSB;label=32;scalar=64";
    class       volScalarField;
    location    "0.001";
    object      translationalT;
}
// * * * * * * * * * * * * * * * * * * * * * * * * * * * * * * * * * * * * * //

dimensions      [1 2 -2 0 0 0 0];

internalField   nonuniform List<scalar> 
654
(
724.4669795
746.6323754
733.2041738
722.801289
730.8137605
707.1426419
688.8507146
691.2120497
705.7606489
687.4504152
704.6277438
715.9446017
696.4240924
719.8805549
702.9774508
692.1257297
708.7417796
553.8557947
609.1411079
609.3624459
625.9175299
646.8484963
661.7161198
681.912648
684.0823925
689.345173
705.3467094
701.2014863
716.4882068
708.8623982
691.4235157
693.8266314
689.9931532
438.3823412
423.0332848
440.5520855
487.215977
492.6752658
515.2662721
570.2595003
569.7082746
582.8527175
597.644668
631.4708218
661.5058471
663.9838715
676.2145396
664.428748
679.6824128
692.9440604
707.7033026
680.9711273
685.2812714
683.8060741
692.1735496
334.3878162
333.9330959
336.749569
350.5204612
363.5034044
365.9899296
395.8019967
400.6593236
433.3706874
431.5072429
445.8899754
477.4705857
470.8807437
490.5997226
501.8098171
552.7503461
549.3536013
583.4453368
598.7694752
611.7662192
660.0701792
645.1884947
650.3941182
687.1920855
683.4779051
682.5557701
678.9698203
687.3292115
675.1300704
330.6571382
328.5450713
335.9921809
335.070217
337.9138173
356.3604351
356.5870629
361.6530888
388.4623331
410.2525601
413.8420092
402.7655867
437.2906534
443.8047145
455.4102374
479.8366495
495.8279361
519.4108624
524.3730209
558.1292616
598.5473721
625.1311274
632.9986962
631.0901416
672.6137652
670.2028849
672.7801028
660.1863669
661.8690598
665.2273024
324.5144589
317.0911172
317.0758546
318.1509359
323.9157134
338.3939697
341.0766982
345.1252199
361.9094463
373.5599469
370.7968359
411.736871
402.7950471
437.1001964
439.411486
436.3806527
471.7442555
499.5627111
506.1214226
532.9994751
554.2421011
581.1634085
577.4685326
590.607981
618.7398742
647.4701645
662.5428527
654.456001
658.6383979
671.8247767
305.6960292
307.1536399
316.2509985
318.5673212
326.1903462
341.6211859
340.7077897
326.5503463
348.3353925
353.1719933
377.0993908
379.192424
380.5358372
399.5924022
430.477034
442.5715166
442.3723025
448.3965761
455.65306
473.9090242
511.4404157
538.3507848
560.7830879
572.4289615
583.6472011
620.2346425
632.7471171
651.4164704
656.2693332
664.0510395
309.909519
309.8332035
318.7440515
314.3847646
321.8799142
321.2048394
329.4472346
328.8353946
338.2936411
350.5817411
347.6824946
348.2271669
355.9812965
384.7194929
391.6882048
407.7326968
434.3111
423.5117179
448.5937889
465.9482277
467.6613268
494.2659716
548.8657952
556.1530545
559.080542
601.6583844
620.3119773
622.9804306
624.7990838
633.9622219
326.4566638
318.835712
318.3242473
307.8393942
310.00791
325.6112022
327.2751549
332.2520572
332.0721643
335.5771819
352.2565629
338.5921108
341.5084795
355.2082568
360.7710707
345.501945
375.8671879
403.1671036
405.2064076
409.6081606
432.2238562
456.5913322
491.9300106
504.995286
518.104261
525.7749649
568.0395388
589.035396
601.2130954
608.8914554
310.708222
299.52465
307.1136188
312.4236713
304.7100372
310.4309067
314.1918709
326.3245729
322.9071823
325.9676696
332.5611417
343.2033015
326.0020166
340.7145647
358.4446489
389.3915909
376.599714
389.2819718
407.4897976
415.1898071
414.5495097
420.6397612
441.9657065
470.9061439
514.0309642
507.7747429
536.802279
555.66125
577.4423399
577.9766648
304.2566121
300.2469912
297.7793518
298.9031706
302.7663942
306.2691675
317.5640405
310.9853891
308.0224717
314.3994381
321.9408801
337.0433286
344.7987368
323.6935182
343.1198565
370.9795012
351.3718583
355.364147
375.5697058
385.8978022
408.6150286
417.0258874
428.0573785
449.7767861
478.770767
496.8403442
517.4446141
525.1870255
553.6257813
583.3481392
303.7120675
311.3395453
305.123938
309.1971633
309.3001767
305.9767876
308.0324439
313.085966
321.3577221
324.6248554
320.6262544
330.1843077
336.473328
345.1614102
335.5105325
355.2703703
366.5558818
353.4591432
361.4968976
369.5947204
385.9201673
392.8878897
406.4241054
413.0435058
431.4992885
455.9796048
478.5905609
483.895022
521.326208
534.5441662
302.2358613
303.781727
307.8967033
306.3532891
310.7213797
302.9899513
301.006035
308.2980912
312.0554457
310.5086897
315.1501106
321.9936285
326.3874217
324.4844795
325.8618128
332.2149054
354.1941723
344.0152289
349.8404496
366.932888
365.7465194
384.1302427
403.0793856
400.7897809
403.5880353
429.9158357
433.0491706
451.0606896
467.7812056
483.2224427
293.3625873
296.2686508
295.0145488
296.7303719
298.9891025
296.9219446
300.5266619
298.2811323
304.9237948
311.8910747
310.4298188
307.106897
324.7785057
325.0443133
323.5087677
329.4765769
324.5598635
343.5546074
338.1672782
341.630772
353.9608952
355.2917069
359.7312772
378.1800322
380.3448715
394.446447
416.2041647
423.1141966
442.1756712
459.408862
290.4400316
297.943325
299.4180021
296.7174044
294.9819832
298.3391686
303.4968666
300.6182658
306.4446818
303.5161518
299.5227224
304.9117914
309.9554866
312.3253995
324.7210657
331.9167019
325.812054
327.9288194
338.8067111
330.7854683
350.829684
347.3226965
350.8668151
360.528004
360.8609872
361.7101576
378.7674986
382.4265295
406.3966801
431.6334451
306.9342413
297.9789216
297.6445451
298.2393408
303.9418172
304.7538399
303.5077863
300.0180333
304.3252734
305.0233552
314.3204085
308.2631212
315.4583767
312.6449083
324.4261583
324.759088
327.5883645
317.39275
324.8205921
327.9573103
325.72212
331.9992305
337.2800222
347.4897589
342.3672348
363.4492187
366.2369946
388.4638165
400.8440214
414.9467811
307.4764205
305.1507766
309.4198628
305.1738173
300.6073015
302.0909252
300.7057837
303.6399105
297.4495589
304.0840086
295.1920349
298.7362784
301.0474636
303.9241746
311.7837091
311.4623704
323.4685436
322.0107066
329.5132194
316.2510206
326.8222796
326.9469074
327.8399143
338.8464655
353.4332174
350.3410164
341.8833452
370.4168247
365.2784882
373.896787
288.4214029
288.3465887
291.0923907
302.5014538
297.8997053
294.7057188
297.039955
299.7334087
303.7637653
304.2038692
306.1142738
305.3568247
304.9053532
305.817579
305.5108345
302.2520227
302.7699589
304.4557145
305.7123493
315.4405548
309.5810108
314.392578
315.9599954
319.948299
328.5596945
366.117857
348.8743586
358.2315386
370.2335541
376.4673046
305.4530584
301.3567603
302.5894128
301.2363286
302.8454514
308.3304144
307.1963341
301.9453395
301.1052627
308.975719
303.432538
301.6527344
298.2186011
297.221741
298.7140047
299.7690105
308.7251493
301.7783696
310.9570767
309.4320941
307.0541084
315.1384577
309.9665847
325.3149916
326.1377039
369.3811819
345.6100019
353.1460257
368.854518
357.2274162
301.1092997
306.0996312
303.9636936
303.4958086
306.6580799
298.1213677
298.7930333
300.7985399
302.5200375
299.6811179
293.7327232
301.4758929
302.3028565
298.0465589
301.6735593
301.8575826
303.2580177
305.2132424
302.0440802
302.2306238
301.5223294
312.1223134
314.066389
307.3973436
311.4418963
331.0426615
323.2680817
338.7102623
342.6396972
350.1395189
299.5065587
303.2708457
296.9160793
301.4611844
309.7485685
307.0704368
307.5588389
306.8124173
304.3697506
308.5946994
305.8797852
302.9902069
299.6232572
302.4814393
305.7157966
304.0035175
302.5098289
302.2346984
297.2427824
304.2606327
306.0068384
304.087491
310.3167027
308.0039904
304.0265481
322.6403066
317.7483627
328.533164
338.1764742
349.2658944
291.1554633
297.5643619
302.8181599
299.2630804
298.873893
306.122599
302.9370841
295.661121
296.1925216
300.1847542
301.3930231
295.9380012
302.8254676
298.8816126
298.955665
300.9575185
298.4162515
313.5177387
307.0651986
306.2615638
313.1611094
308.8292795
304.1836669
304.1403034
315.4362094
315.3401994
315.4680546
320.9560778
332.1437125
332.5437346
303.9453867
301.5893275
301.5100907
292.7534593
295.2596383
290.5802366
293.6236085
299.227847
297.4639542
303.8241865
300.8609338
300.7463365
297.1542136
292.9854535
284.4959885
294.373862
301.0370317
300.0875513
298.4632019
295.779492
296.1960124
305.856515
317.7126824
316.3089272
307.8165832
299.9271217
306.3837209
312.9368496
311.439652
322.3146464
)
;

boundaryField
{
    flow
    {
        type            calculated;
        value           nonuniform List<scalar> 
55
(
724.4669795
707.1426419
708.7417796
689.9931532
692.1735496
675.1300704
665.2273024
671.8247767
664.0510395
633.9622219
608.8914554
577.9766648
583.3481392
534.5441662
483.2224427
459.408862
431.6334451
414.9467811
373.896787
376.4673046
357.2274162
350.1395189
349.2658944
332.5437346
322.3146464
303.9453867
301.5893275
301.5100907
292.7534593
295.2596383
290.5802366
293.6236085
299.227847
297.4639542
303.8241865
300.8609338
300.7463365
297.1542136
292.9854535
284.4959885
294.373862
301.0370317
300.0875513
298.4632019
295.779492
296.1960124
305.856515
317.7126824
316.3089272
307.8165832
299.9271217
306.3837209
312.9368496
311.439652
322.3146464
)
;
    }
    obstacle
    {
        type            calculated;
        value           nonuniform List<scalar> 0();
    }
    frontAndBack
    {
        type            empty;
    }
    procBoundary3to1
    {
        type            processor;
        value           nonuniform List<scalar> 
36
(
746.3093914
737.5883224
715.9465888
755.3300944
736.9467115
736.9467115
720.2862719
702.2945183
723.0188052
725.3199516
734.4246724
734.8164787
734.8164787
620.7006437
642.8579133
623.475861
671.1273323
658.5482222
658.5482222
458.4084495
464.3425974
503.2759887
531.0307059
529.7070344
532.0092571
532.0092571
345.5369674
336.2761885
344.2619226
373.0039953
374.9907778
377.7080725
397.3372206
397.3372206
340.5329321
340.5329321
)
;
    }
    procBoundary3to2
    {
        type            processor;
        value           nonuniform List<scalar> 
19
(
313.7037226
319.7254556
303.3429671
298.9879292
315.5440982
301.6498009
297.8024139
308.0581434
306.1360687
295.4025071
294.9533569
303.3755012
311.8091878
287.8479837
295.2021736
297.3252808
300.21129
294.8418246
300.0495251
)
;
    }
}


// ************************************************************************* //
