/*--------------------------------*- C++ -*----------------------------------*\
| =========                 |                                                 |
| \\      /  F ield         | OpenFOAM: The Open Source CFD Toolbox           |
|  \\    /   O peration     | Version:  2406                                  |
|   \\  /    A nd           | Website:  www.openfoam.com                      |
|    \\/     M anipulation  |                                                 |
\*---------------------------------------------------------------------------*/
FoamFile
{
    version     2.0;
    format      ascii;
    arch        "LSB;label=32;scalar=64";
    class       volVectorField;
    location    "0.001";
    object      UMean;
}
// * * * * * * * * * * * * * * * * * * * * * * * * * * * * * * * * * * * * * //

dimensions      [0 1 -1 0 0 0 0];

internalField   nonuniform List<vector> 
654
(
(1383.053212 369.6362073 1.344255051)
(1429.202447 390.2401505 0.2025530968)
(1425.028668 379.0760618 1.333557904)
(1425.290076 373.0658224 -0.1540480416)
(1421.599684 390.123634 3.532510242)
(1426.299079 383.6171371 4.081206427)
(1501.449245 313.7977299 13.11501962)
(1498.581879 317.9818142 14.95970747)
(1478.153633 326.6279541 8.517796147)
(1473.865067 342.635708 9.333476987)
(1459.056437 360.9055128 17.71277795)
(1434.632912 351.9033486 2.13276605)
(1456.068065 362.7467878 4.77984172)
(1443.478475 367.2804567 14.96244475)
(1455.017814 379.5686212 6.889079398)
(1442.539853 385.5017186 12.99425512)
(1431.98755 383.2439821 -2.971128228)
(1606.976173 174.8976943 7.218007872)
(1586.927384 196.060089 4.203282457)
(1576.986014 220.0109794 2.273756796)
(1570.416852 233.5107836 -4.565305855)
(1552.183492 257.3599464 0.03570730171)
(1534.639361 274.6393044 3.914939097)
(1520.95952 300.7021604 6.570196983)
(1507.120619 305.5895509 18.35919075)
(1496.353443 318.2135724 9.896184625)
(1485.69642 330.063229 9.050668619)
(1480.726152 365.2148458 18.40373072)
(1456.143342 353.0377157 14.10871187)
(1462.971405 374.3320765 6.63895891)
(1459.413344 374.6478982 9.10640531)
(1464.291187 375.5777658 -0.2087670598)
(1465.06586 391.6817711 6.792175614)
(1665.062938 87.83510417 3.02006144)
(1676.66168 80.29891107 3.026975996)
(1665.267795 85.52537132 2.772807907)
(1652.357113 99.19828234 8.015336336)
(1650.808357 109.6943461 -1.6164974)
(1639.124773 124.7879672 -13.61268184)
(1627.109041 145.986372 -4.606446003)
(1622.31684 164.3726766 -12.1251393)
(1616.741409 178.40795 0.06339289041)
(1596.811902 207.3329512 -4.252267916)
(1576.104325 213.4986854 -15.5785133)
(1562.009423 239.7522396 -7.767719089)
(1545.953436 265.6282677 -10.39657206)
(1535.818533 293.9234369 -7.252657584)
(1537.905721 305.5672463 -6.372961002)
(1510.039941 327.2901483 -8.968055396)
(1495.146502 328.5654912 -13.25436487)
(1475.585754 356.5237134 0.9812947382)
(1477.674703 355.6818006 3.698061403)
(1473.164619 383.7612855 10.37512799)
(1464.600073 374.3422272 7.22302223)
(1470.848105 375.4871874 12.59144686)
(1719.432521 8.92763722 9.224031162)
(1719.466669 14.9834657 6.581810532)
(1718.640306 19.7787813 5.709159053)
(1711.551748 28.73215456 4.159904485)
(1709.726119 38.60952925 0.5127554781)
(1707.878562 46.18880017 -3.145182992)
(1696.987656 53.53332382 6.781206284)
(1688.889614 51.05233294 0.001903682745)
(1679.436122 59.43138569 -10.89410351)
(1683.341336 64.22120572 -6.91505475)
(1681.358198 77.74126066 -4.931053474)
(1666.030582 91.20043933 0.3651098367)
(1668.979136 98.66299586 -0.1314497098)
(1653.472247 113.1133696 -5.055822254)
(1642.211804 124.9863645 -7.360224498)
(1625.312739 154.5042484 -10.90545711)
(1628.1689 162.1207094 0.712043417)
(1607.082295 202.0105546 6.323442994)
(1590.486379 220.0541186 12.72050037)
(1576.953722 241.3688147 9.585636568)
(1554.599713 265.2304321 -9.193985636)
(1558.879721 268.922168 4.4649191)
(1559.539992 291.2281019 4.482224506)
(1521.953966 321.8292834 1.734261571)
(1529.300705 345.2554349 -3.256480686)
(1512.581096 345.8370293 12.86756038)
(1512.484546 351.1784527 18.45453351)
(1492.278525 362.3267268 14.96720918)
(1487.713112 372.3071653 11.80418162)
(1715.289625 11.94453906 -12.11407622)
(1717.055559 15.98072625 -3.200094832)
(1708.757828 19.87483228 3.911727456)
(1719.631622 18.12769001 -0.7190169083)
(1721.325728 21.40838629 -0.9087953219)
(1715.31312 28.13887772 5.87196745)
(1713.258488 17.14088178 3.246189842)
(1712.081915 15.63559658 -1.85011145)
(1699.816614 26.67601899 5.299834564)
(1684.097689 37.94450373 9.140388495)
(1683.536921 49.40496108 2.088594841)
(1685.639717 52.76313565 6.554270258)
(1667.091532 69.772773 4.428694955)
(1668.947392 76.50606333 9.847144256)
(1665.433387 87.21639649 16.60255575)
(1664.73049 114.0928502 14.55020637)
(1652.419461 130.6780925 8.163182653)
(1628.012435 156.122724 7.400134506)
(1632.503797 166.4982474 2.479676758)
(1616.922575 186.8616721 -1.834256503)
(1602.007887 204.952676 6.509928019)
(1583.596286 215.7190629 1.696294965)
(1571.678788 250.6593843 -0.8616084231)
(1561.814564 271.3645017 13.21552848)
(1552.062507 294.2702649 4.610640406)
(1533.177585 308.1076789 -8.297195464)
(1534.451334 314.2026255 -5.052933069)
(1530.789902 319.4392492 -2.534989263)
(1519.81812 346.0008997 5.212021397)
(1511.299973 357.1273906 8.061483622)
(1725.246637 12.12680421 -1.25446025)
(1732.411207 15.00558198 -1.244075725)
(1732.572067 19.07165186 -4.731606658)
(1733.946827 18.30973215 -1.325806491)
(1732.756228 10.63291638 2.302740907)
(1719.22827 -0.6732856987 8.880993396)
(1720.537602 3.452342417 4.525711605)
(1720.029978 5.876835496 6.026592618)
(1717.503177 21.57927923 10.3777834)
(1707.806551 34.10021991 7.341787709)
(1704.461612 34.69510369 4.242756672)
(1697.972722 54.9038752 -2.146649288)
(1699.864975 59.53880363 -4.817154602)
(1681.562929 75.23779338 -0.06819438142)
(1673.128127 81.57335172 -2.90933065)
(1667.175991 85.18405747 7.917356862)
(1651.727428 105.632438 2.613351394)
(1657.378131 126.6648304 -5.794097378)
(1640.139789 138.4100305 2.093841558)
(1630.553523 150.6183447 11.47993826)
(1616.263088 181.0396507 7.9241487)
(1591.886031 207.8061934 8.32515404)
(1592.325493 226.4556556 3.165471964)
(1582.220812 228.2109393 -4.907183377)
(1565.788982 233.6982646 9.874205157)
(1554.062862 259.4552369 1.769927092)
(1538.094302 292.6836682 -2.159851177)
(1533.885823 301.0291474 -13.78177554)
(1533.958155 309.1021947 -16.70114119)
(1512.674198 322.0446283 -14.80186137)
(1733.368928 6.351551258 4.237327648)
(1731.025232 0.5345495572 7.954006524)
(1727.789879 -1.677974103 4.722179644)
(1726.859406 -2.863533003 8.640773085)
(1721.121277 5.856309707 1.015810893)
(1724.881828 15.66286548 -1.176147703)
(1722.333805 18.31231377 1.210793445)
(1723.54124 20.1617707 -2.815967681)
(1715.498314 20.72444478 -15.18810019)
(1709.206208 19.4933803 -10.72045534)
(1699.0844 20.75994359 -5.07829624)
(1694.375164 26.23621126 0.3704134028)
(1683.193718 43.43415665 -0.4731159384)
(1684.109746 63.97593932 1.604204699)
(1676.717375 73.19689706 0.5103394033)
(1673.354216 86.54974241 -0.09686056528)
(1685.951602 82.42262489 -1.662009436)
(1684.487648 93.68028161 8.508808955)
(1683.227848 110.5998883 -11.30895743)
(1663.620903 131.353141 -16.54109334)
(1652.179844 140.9176382 -8.556476579)
(1638.304719 165.0801203 0.6557500541)
(1633.391887 173.9691078 4.981745516)
(1628.732857 182.3445479 -3.953731338)
(1604.175148 220.3107226 -9.170720321)
(1577.165783 242.6579925 -3.793140806)
(1569.961875 256.0615802 2.83627716)
(1561.638241 274.2643931 7.046093829)
(1552.824965 285.2253279 -3.316967893)
(1547.101751 302.6744546 -12.00226008)
(1729.619601 -9.614105292 -4.246471063)
(1722.758298 -1.059027015 -2.578658884)
(1726.822895 1.570501861 -5.982798664)
(1719.740201 1.798582363 -7.405999718)
(1718.453782 8.12990891 -3.51145109)
(1711.22181 15.97576445 -5.319608228)
(1713.804292 16.15198976 -12.09241374)
(1715.05867 13.70508158 -8.341243722)
(1710.686755 19.59823642 -8.554700528)
(1711.144172 20.20852538 -9.365512725)
(1710.303854 28.96454113 -15.06185325)
(1717.174913 32.79247662 -14.3372621)
(1724.40834 31.74915241 -11.51731901)
(1706.570775 40.81872706 -10.8046498)
(1712.182708 43.98300961 -13.53940981)
(1709.541457 50.12256685 -8.765859489)
(1681.589076 79.45837806 -4.770789627)
(1684.828322 78.48574273 -4.537544621)
(1679.313561 90.96441534 -4.366848458)
(1671.355993 95.9047827 1.88223293)
(1667.763374 111.0238954 0.5859351495)
(1653.705024 134.3826829 3.25037441)
(1623.197054 160.9922946 2.227736311)
(1619.307678 177.9490932 0.7992020001)
(1618.181133 190.6117798 3.453551354)
(1597.621549 216.150871 -4.758767118)
(1585.60182 224.6096868 -8.189352578)
(1572.04197 233.1956278 -4.73663637)
(1563.001422 252.6329865 6.478076086)
(1564.39408 279.9346487 -3.56788984)
(1720.174481 -6.577857706 -1.034393705)
(1716.592647 -11.02090494 1.957559614)
(1716.266009 -8.516033943 -0.3664030718)
(1717.702182 -6.102443726 -1.434817121)
(1715.396616 2.811247636 1.278733513)
(1717.883691 4.853800819 6.293378321)
(1720.875739 6.313206484 11.96475016)
(1732.513147 15.8664871 5.142117461)
(1731.856358 17.27626786 5.055236457)
(1731.750702 12.9623779 2.812411595)
(1723.37151 25.58410766 0.7459641521)
(1733.600559 22.47134536 2.721137407)
(1729.887267 21.82075393 -7.30014789)
(1718.957161 22.71312062 -7.969458342)
(1715.410017 49.35859888 -9.46417091)
(1716.722838 49.7502886 -16.33262265)
(1706.58409 56.64398398 -11.51740195)
(1693.126256 58.70788973 -15.15003237)
(1693.687186 65.50531568 -10.70364776)
(1690.721305 77.20091921 -11.86783667)
(1676.687429 89.29533447 -14.54640244)
(1654.459923 105.1979067 -10.55259945)
(1649.235456 133.5162119 -10.14837396)
(1643.308567 146.5542349 -12.41197211)
(1631.296505 155.1077142 -13.69163949)
(1626.171727 168.7087466 -2.49898452)
(1606.965171 202.1288432 -6.141616259)
(1587.681658 225.2418308 -10.38000683)
(1589.896452 238.2894053 -10.4163478)
(1574.220882 241.4569317 -1.842234463)
(1733.223246 4.582597604 -2.1659154)
(1738.04771 4.612831533 -0.1640906584)
(1743.547322 10.75152944 0.7465427404)
(1744.778514 6.422830611 0.8538486319)
(1752.127817 -3.236688538 -6.031511502)
(1747.65828 0.1214626551 -3.924585722)
(1747.795455 7.566198027 -3.599317482)
(1731.381409 4.131879119 1.864621292)
(1731.051112 2.416151853 1.614870935)
(1725.459014 20.78203948 4.251094114)
(1718.511148 22.148457 1.410890417)
(1711.564584 23.16540482 4.415677639)
(1713.694201 20.66461027 11.52401812)
(1721.470626 29.56823014 3.734009101)
(1720.928957 21.03387543 -3.166907661)
(1717.973252 22.1262755 -8.166820381)
(1719.26493 25.3695665 1.199024263)
(1713.785578 46.297284 -1.765128766)
(1698.440633 53.74979577 1.766474377)
(1687.311935 63.79983405 0.4576273086)
(1688.904415 69.11300556 -5.378791374)
(1691.87201 78.7403386 -6.872499363)
(1657.914142 89.1747273 -1.966043398)
(1643.754041 107.4941665 -7.233270087)
(1622.496861 128.4805206 -13.11052711)
(1619.588856 143.9994031 -10.66710134)
(1618.584054 167.4043822 0.2084124902)
(1620.844935 198.0257163 7.051513105)
(1595.509764 222.2643075 1.649584013)
(1591.833335 228.7033921 -7.386193076)
(1740.196971 2.187508947 -6.465797719)
(1742.868956 3.564781875 -7.776380199)
(1739.466336 2.020169645 -2.871850646)
(1736.442826 2.145721054 -2.515069766)
(1734.677857 5.104016054 -0.3446363042)
(1734.606002 -0.9488184339 0.1153259963)
(1724.255361 1.665122955 2.59118411)
(1718.981068 2.130135572 -1.026802846)
(1725.997781 15.36191868 -4.265222261)
(1726.695718 13.51726975 3.487404836)
(1728.208651 15.37317847 8.057298292)
(1720.704276 26.48181704 4.020396742)
(1719.895125 26.89341609 8.546618061)
(1722.25277 18.42020019 2.047000938)
(1712.720303 28.84586806 2.338512481)
(1697.695469 38.85212764 -3.844523996)
(1698.70861 31.55845946 -7.151953518)
(1698.577482 24.75925175 1.066373499)
(1697.935149 37.44088168 -7.023922687)
(1695.733843 53.04169789 0.01888237967)
(1689.152372 62.40395758 3.708432808)
(1690.186306 58.06221698 0.1823046141)
(1691.713263 64.71295512 -1.024869966)
(1679.77019 89.2041727 3.761349492)
(1668.940969 109.6739916 -2.485954012)
(1656.361424 128.3832058 -7.699474793)
(1630.588199 142.7775485 -10.75831804)
(1632.029679 149.5928612 -2.000073857)
(1628.501026 174.205091 2.290854091)
(1609.445514 210.0761118 5.02083389)
(1732.140416 -1.24097937 7.113165462)
(1733.154077 -10.93436878 -3.248367617)
(1736.386825 -7.188140791 -3.659067851)
(1729.387675 -7.400585426 -3.483034843)
(1724.514403 -8.697849755 -10.57625333)
(1727.618591 -5.808738298 -6.352862907)
(1734.399902 -3.047386678 -7.25742067)
(1735.155499 9.148862353 -6.80193984)
(1727.158439 -4.366608605 -6.765504964)
(1721.579996 4.990648215 -3.383186609)
(1723.267314 5.703700125 -1.93152935)
(1725.842617 4.406877524 -6.347499785)
(1721.889895 15.00155874 -7.513827382)
(1714.569579 19.19777606 -3.579795004)
(1720.355797 23.41396859 2.791291386)
(1709.96767 32.43335459 3.155005671)
(1704.808727 36.83720978 5.977211177)
(1711.442374 30.8925611 9.69256056)
(1699.343716 33.7782708 6.991380233)
(1698.29514 33.45315547 -0.2203044548)
(1691.733052 41.80769548 -8.379933649)
(1692.582598 60.14468698 -7.523380517)
(1686.843409 68.05305962 -4.136183202)
(1686.556036 69.25001018 -5.071042177)
(1679.404918 78.4337858 5.043312353)
(1675.599293 97.39288646 9.211711654)
(1670.643918 109.8006949 2.185537685)
(1661.444873 125.4615278 -6.999840973)
(1641.893596 156.0684755 -4.567569693)
(1628.261604 169.7324877 16.37726006)
(1738.811866 -5.691113868 -10.67117161)
(1742.082835 5.196703762 -3.331250804)
(1738.709191 2.239888345 -1.233097406)
(1735.014501 0.208656675 -6.833606718)
(1736.021492 5.343571469 2.072159386)
(1730.924726 3.556172888 0.0006143978478)
(1728.20287 -3.37711706 -5.762490412)
(1724.798807 1.569736141 -5.01523752)
(1731.39515 10.07290149 -12.55897778)
(1725.851676 8.31186293 -19.14314418)
(1726.761289 6.236384596 -13.88255447)
(1723.5822 7.989098315 -8.411917636)
(1726.047947 6.251446285 -6.95341183)
(1732.149298 10.09633496 -6.757075793)
(1721.030818 9.898203508 -5.379176727)
(1720.119202 14.2415502 -8.261635339)
(1712.648408 29.04228159 -15.49720596)
(1715.671917 28.40946862 -7.275370218)
(1715.534469 18.44559682 -4.432861147)
(1704.597146 18.69172919 3.117734242)
(1705.34076 30.1605746 7.529868063)
(1700.451641 37.56281319 0.7655906809)
(1699.22655 49.14152154 2.721250424)
(1698.132074 56.44613797 1.629728561)
(1689.296776 68.74627668 -1.92020097)
(1676.405766 82.72055873 2.024809313)
(1673.78515 84.38012469 0.7031331664)
(1674.55673 98.11730626 3.496672508)
(1664.97555 117.6535506 0.9005773051)
(1649.030456 128.9074447 -1.176075946)
(1735.557105 4.861931277 -10.3281173)
(1739.561514 1.620474019 -7.744836019)
(1737.930511 -1.13150301 -10.41840603)
(1737.754596 -2.406818399 -3.528169338)
(1737.512308 11.14942471 -9.131759649)
(1742.232012 16.00172084 -2.429835141)
(1743.655042 13.46476642 -2.344795498)
(1742.226834 13.47278125 4.294739504)
(1739.85923 8.521270782 7.896347314)
(1739.465364 10.75920448 4.787118191)
(1738.22666 9.944915073 0.3258795649)
(1738.559803 10.25131976 -0.04613976379)
(1730.338312 15.52905167 1.395525964)
(1727.359345 12.86192111 -2.033450572)
(1723.704733 10.04413638 -0.5311130274)
(1723.362678 3.635597918 2.635868465)
(1728.717986 1.135038686 1.254355945)
(1710.986727 16.73676998 -3.713176016)
(1713.160776 21.67366399 0.8784153239)
(1712.20572 30.80371661 0.9131655132)
(1707.650584 20.19160142 -5.084362198)
(1707.446219 23.6815292 -6.53304876)
(1699.603166 32.2693313 -1.021997825)
(1698.461622 44.7970908 -0.8022683097)
(1693.669684 38.19451107 6.334968494)
(1687.329819 47.64991691 -0.4054580301)
(1675.842197 72.08894507 -3.707025559)
(1660.981463 90.4463256 -5.542245868)
(1659.752474 96.52004606 -9.367877057)
(1668.703495 114.6391178 -9.423462283)
(1736.160884 1.554726493 2.706587013)
(1734.652122 3.701528359 2.74056015)
(1736.447639 10.62562001 -4.031779156)
(1741.494278 14.62436176 -5.207424919)
(1744.327383 0.6312925025 -6.499187731)
(1743.736426 2.45823395 -4.392669354)
(1741.985455 4.025329098 -4.102444269)
(1744.553844 0.3938821038 -3.235979655)
(1743.42737 5.828706588 -8.229950018)
(1741.815407 10.9650646 -2.823758659)
(1743.012725 3.234810301 -1.986019238)
(1735.732288 0.7178839503 -4.236418708)
(1729.402418 7.81756541 0.2041118686)
(1726.289495 9.206259575 1.147818565)
(1725.622775 16.49931302 -5.697594113)
(1712.5328 24.83229321 -7.789602862)
(1721.096215 19.45943249 -7.434890632)
(1728.906086 17.49238966 -7.128149043)
(1725.260752 12.74032626 -10.99570337)
(1736.608773 13.57034455 -14.50216446)
(1726.086841 31.38649438 -3.54573271)
(1726.757982 31.30264313 2.23746613)
(1726.616954 35.7130193 3.115166121)
(1720.730708 30.37833315 -0.8303264265)
(1714.323272 41.91401201 -1.011142272)
(1716.934396 39.45241537 -3.231195912)
(1706.874344 51.17134291 2.213624451)
(1711.490992 54.74152041 2.959973156)
(1692.575832 76.51452088 3.075391763)
(1688.053469 85.29870436 2.045489779)
(1727.122176 16.1194444 -7.175085786)
(1723.466048 10.57158594 -1.145826102)
(1725.390527 9.623579597 -3.905635783)
(1725.13521 4.936150796 -10.72882479)
(1724.837056 4.933897248 -3.449548334)
(1724.402215 0.4429146026 -6.944139949)
(1727.907122 2.837298169 -7.113578281)
(1735.027046 1.75235339 -9.318433995)
(1727.35563 -1.625325542 -9.676408925)
(1723.987066 -10.03886811 -11.48825192)
(1727.110773 1.147128867 -13.29571824)
(1730.380616 10.66042302 -8.361129252)
(1736.464146 9.572308936 -14.58452956)
(1735.851161 4.918240337 -18.06686461)
(1732.876683 2.987063434 -14.48219754)
(1733.769446 -2.192282973 -10.12131253)
(1726.309456 7.03253137 -10.24154153)
(1721.001819 9.871018621 -11.49601318)
(1724.73265 22.26838747 -2.291560382)
(1720.070327 18.06219537 -0.3827121689)
(1729.863771 18.61918661 -3.187951735)
(1724.635452 18.48879742 -6.551482239)
(1727.995616 25.3403479 -2.824927033)
(1724.441262 37.67131284 -3.837077647)
(1724.866864 36.28247769 -1.610183539)
(1721.223675 38.9059337 1.99458846)
(1716.989863 46.97949731 5.779023141)
(1705.18498 57.29981944 10.09431021)
(1697.815891 60.96178849 10.34988551)
(1681.120749 71.11719437 2.790629419)
(1728.521457 10.83340896 -6.828381995)
(1728.944743 10.36341456 -4.879168392)
(1729.147812 10.71243725 0.9141925421)
(1730.641406 10.32795983 -0.4642080135)
(1735.196108 12.04973817 -4.936003892)
(1730.07273 10.16206593 -1.564248302)
(1724.778912 8.88988068 1.860712462)
(1718.516857 7.929973962 0.3198753732)
(1720.806907 3.041277237 2.744083496)
(1722.201944 0.8652846857 3.126040424)
(1724.65117 1.256558087 -2.918759946)
(1723.52994 -5.193806615 -2.498499898)
(1723.88805 -0.9034622938 -2.771020152)
(1725.505941 -3.620597851 -2.495117104)
(1721.558556 3.310205912 2.064928339)
(1719.892817 -0.08846244907 0.771753262)
(1726.66069 5.140772262 1.593866974)
(1728.485923 6.567001674 -1.87505819)
(1729.31633 6.842493436 -4.286784049)
(1731.179099 11.53035623 -2.606023714)
(1727.265984 21.54416787 -4.195418086)
(1728.041606 24.86022415 -5.696662641)
(1728.495608 34.58473421 -13.45623116)
(1731.687635 34.40314476 -6.47771733)
(1731.561213 38.43202327 -1.545701283)
(1724.249224 45.56514238 -2.781265447)
(1717.566167 37.61090326 -0.5293092071)
(1698.127483 45.74918814 0.7756576727)
(1692.460156 39.57735378 -13.30723317)
(1690.330952 59.32504064 -11.00812599)
(1738.011638 -3.191780243 7.078038926)
(1738.305244 1.159258969 9.286050163)
(1732.436636 3.539277258 3.986026723)
(1728.330244 7.112765922 4.277708607)
(1736.214734 1.98462659 6.004945956)
(1735.315437 0.2543443954 -0.7048979597)
(1728.463944 4.631999023 -3.904374498)
(1731.997473 9.105784437 -2.120778125)
(1729.891463 9.830600996 -4.045429051)
(1725.866112 11.23024796 -3.024245108)
(1728.213219 2.861906907 -0.3298485719)
(1724.317429 -3.100377001 -2.266858855)
(1727.566839 -10.49935027 -0.7148802496)
(1726.729808 -4.427057737 -3.208552544)
(1735.35926 -4.491530932 -3.103087895)
(1735.514554 8.489225426 3.132551275)
(1734.597977 7.767712027 0.6133819632)
(1734.609553 14.30057921 4.192068144)
(1730.333833 12.43307407 12.54296343)
(1724.778184 13.32715104 10.42081933)
(1726.869895 11.7041986 7.902219068)
(1726.15159 10.29142304 10.61127495)
(1724.024269 12.57842393 15.50781402)
(1722.085787 16.8784904 7.697103764)
(1712.508687 26.19749286 1.314591381)
(1702.755036 35.23208141 -1.583710887)
(1703.993656 36.71385043 -9.677128374)
(1716.578359 37.8406814 -5.624030854)
(1718.057358 40.27880675 -1.323855365)
(1713.415844 38.13486956 -6.984387061)
(1738.793777 0.1101099039 -13.01498808)
(1734.849372 -6.615083766 -15.30958955)
(1734.367758 -9.043647609 -13.5017679)
(1726.410913 -14.96382625 -11.6837938)
(1722.020148 -3.890635753 -12.63635086)
(1718.190475 2.496424825 -11.6629639)
(1724.245119 0.9845020266 -8.44922628)
(1730.066983 0.8945063424 -7.290147698)
(1734.626451 0.5684377201 -4.24461489)
(1727.246329 -2.273509618 -5.612232698)
(1728.610625 3.97136117 0.5208511111)
(1734.942753 -6.216666264 0.1900827676)
(1733.088749 1.230153582 -2.490875778)
(1728.457108 -3.406490069 3.319665696)
(1727.022653 -0.7814525056 3.654156727)
(1727.98119 -0.4560055707 1.984331565)
(1741.797922 4.133729758 -1.485176786)
(1732.270959 4.128788748 4.164228681)
(1734.655324 10.39002688 0.03560548156)
(1725.450575 4.081804666 -2.512879421)
(1728.083131 6.125412332 0.382695996)
(1720.030078 15.11555396 1.041277906)
(1715.389303 16.31672751 -13.47144846)
(1714.843464 21.32136007 -16.79218987)
(1716.784471 17.4673836 -11.98914707)
(1697.358076 21.56604458 -0.740499795)
(1720.285809 34.12032076 -12.74018716)
(1719.245709 35.28221753 -20.05353207)
(1710.749956 35.36529861 -9.546818805)
(1712.772434 32.95651747 -13.88474901)
(1739.939292 8.205616513 -4.839236371)
(1736.004229 3.465202484 -1.4805649)
(1736.267753 7.543607073 -1.811306336)
(1732.534372 6.780729112 -6.073244307)
(1736.267607 0.24006358 -3.023580149)
(1741.195312 -13.21105338 4.377582989)
(1738.291878 -16.49289732 6.335901023)
(1729.080826 -11.91795521 4.085259837)
(1729.55631 -8.968628968 2.980487967)
(1728.743515 -5.88290458 4.484014436)
(1733.013427 -2.372362085 -1.029036129)
(1725.892883 6.430136384 1.334260631)
(1723.577576 1.014735258 3.047634454)
(1728.039599 2.65477344 2.145248325)
(1730.885587 4.329092576 1.447620965)
(1723.485585 5.552031154 -3.684082043)
(1718.224671 3.260010181 -5.0378766)
(1729.14189 -4.498138663 -8.073116597)
(1727.343003 -4.629866778 -8.114981609)
(1731.026215 9.897935663 -11.62936789)
(1730.742946 6.542285447 -8.216274425)
(1729.518092 3.886477902 -11.38700176)
(1732.641313 8.217406942 -5.183105564)
(1738.026974 4.425856994 -3.419886543)
(1735.398128 16.03055789 -4.307304108)
(1729.015659 18.41015434 1.683214622)
(1725.110624 23.51072082 -5.678330392)
(1718.414057 26.19407152 -0.03308498489)
(1712.913539 30.3365563 0.8153124525)
(1714.411451 34.61381233 -0.7598810468)
(1727.389776 -6.26451263 0.9119741917)
(1730.515748 -4.358106565 -3.281867752)
(1732.297226 -5.103444851 -7.268190518)
(1731.670531 -1.943909923 -2.004183354)
(1729.624905 0.8313193661 -3.603584746)
(1726.182032 6.470769407 -6.160695771)
(1730.135083 4.421217427 -7.573363125)
(1726.985684 2.296521275 -6.491842191)
(1729.389068 2.357228959 -6.814686015)
(1732.449745 -2.10850056 -6.457866086)
(1728.286458 -6.120591678 -3.859695692)
(1733.318098 -4.808631008 -2.7772929)
(1733.230765 4.045829341 -1.539115273)
(1734.685352 7.619964622 0.9182782488)
(1735.680789 10.54608479 1.735650448)
(1737.300968 -0.601316214 0.8252977661)
(1736.027637 0.0214805815 -1.271863473)
(1736.58717 4.51438009 -3.895363211)
(1731.703744 4.573026043 -9.337285846)
(1733.003571 -4.514906014 -17.43519619)
(1734.018348 3.419920387 -19.32850513)
(1736.287031 6.945402614 -11.55192679)
(1734.752977 4.321818676 -11.95074729)
(1739.12594 4.122604179 -7.101027379)
(1739.207817 -1.33824215 -8.410069984)
(1725.588805 7.738695425 -2.987713254)
(1734.472402 6.167603874 -0.5011487316)
(1734.490621 17.27029966 -0.9052030802)
(1727.296166 26.25269084 -7.669483481)
(1723.928958 35.39423554 -0.943953715)
(1737.409039 -4.733093077 9.126895497)
(1734.085124 -10.40826972 14.75459821)
(1735.779708 -9.278053516 7.561244894)
(1736.101722 -3.041472294 10.98749801)
(1740.292175 -0.3843831713 7.201502227)
(1739.190065 3.951269288 0.9665170354)
(1748.166812 -0.03489101212 -4.379074176)
(1757.099903 5.608556963 -8.345457426)
(1758.267128 3.553696965 -6.198857411)
(1754.129077 7.523820705 -5.300089912)
(1749.686794 9.138356337 -10.4773976)
(1758.09139 1.021472142 -13.82444317)
(1747.386306 -8.534642781 -15.12593084)
(1751.460583 -12.41387172 -20.70862455)
(1750.972774 -10.03990286 -19.77718715)
(1746.699016 -0.4427550933 -14.38883586)
(1743.116197 10.62192055 -10.25202444)
(1736.659384 11.90503673 -4.751330455)
(1739.466917 9.200245988 0.1846628033)
(1744.279002 13.59206913 6.426710515)
(1738.422493 7.142236808 3.375766631)
(1733.643393 9.329997919 2.007360552)
(1736.211217 3.295705459 -1.485324518)
(1730.086076 -0.9700973937 -2.58720301)
(1728.345508 -1.239969874 -4.379873779)
(1728.27646 -3.976058138 1.298873314)
(1722.97699 0.862363553 -0.7318380364)
(1725.819905 8.778539878 -0.8111754855)
(1732.475857 15.99760937 -0.7654196826)
(1729.02217 10.34997556 -6.497772252)
(1734.685285 5.007597537 -3.532771916)
(1746.216062 3.886154322 -1.040946884)
(1746.822528 4.071891761 -0.6180257642)
(1752.778462 -1.480669667 -7.434963624)
(1752.548541 -6.90665209 -3.222202128)
(1750.875546 -2.803375559 -4.453289174)
(1746.656615 2.823222365 -4.929202882)
(1732.738646 9.668053747 0.1308853396)
(1736.702637 8.143037337 -2.517142087)
(1732.524137 9.916253702 -3.965942176)
(1732.342832 8.018102319 -0.9235698101)
(1732.860556 9.621863941 -5.995751103)
(1741.73032 8.388266716 -1.661561755)
(1739.692462 15.19458144 -2.919834605)
(1740.494227 21.04077654 -1.025383301)
(1739.969527 15.910342 -5.632089642)
(1740.097961 7.738073435 -13.3073663)
(1742.220901 10.89638333 -19.06652205)
(1736.928177 18.39005158 -15.30415281)
(1737.321862 8.637230804 -11.7232051)
(1731.728926 4.071951593 -6.142376459)
(1730.452699 0.05886570449 -6.227295432)
(1733.287144 8.58135034 1.302720378)
(1738.075423 6.687418927 2.484337136)
(1739.306787 12.65303218 5.149482868)
(1744.648837 9.561297372 -5.727583256)
(1733.5892 2.984975389 -14.65852286)
(1729.581791 5.338053669 -7.035622081)
(1731.283478 17.88363277 -2.785682905)
(1729.728479 33.95222177 1.128263377)
)
;

boundaryField
{
    flow
    {
        type            calculated;
        value           nonuniform List<vector> 
55
(
(1383.053212 369.6362073 1.344255051)
(1426.299079 383.6171371 4.081206427)
(1431.98755 383.2439821 -2.971128228)
(1465.06586 391.6817711 6.792175614)
(1470.848105 375.4871874 12.59144686)
(1487.713112 372.3071653 11.80418162)
(1511.299973 357.1273906 8.061483622)
(1512.674198 322.0446283 -14.80186137)
(1547.101751 302.6744546 -12.00226008)
(1564.39408 279.9346487 -3.56788984)
(1574.220882 241.4569317 -1.842234463)
(1591.833335 228.7033921 -7.386193076)
(1609.445514 210.0761118 5.02083389)
(1628.261604 169.7324877 16.37726006)
(1649.030456 128.9074447 -1.176075946)
(1668.703495 114.6391178 -9.423462283)
(1688.053469 85.29870436 2.045489779)
(1681.120749 71.11719437 2.790629419)
(1690.330952 59.32504064 -11.00812599)
(1713.415844 38.13486956 -6.984387061)
(1712.772434 32.95651747 -13.88474901)
(1714.411451 34.61381233 -0.7598810468)
(1723.928958 35.39423554 -0.943953715)
(1729.02217 10.34997556 -6.497772252)
(1729.728479 33.95222177 1.128263377)
(1734.685285 5.007597537 -3.532771916)
(1746.216062 3.886154322 -1.040946884)
(1746.822528 4.071891761 -0.6180257642)
(1752.778462 -1.480669667 -7.434963624)
(1752.548541 -6.90665209 -3.222202128)
(1750.875546 -2.803375559 -4.453289174)
(1746.656615 2.823222365 -4.929202882)
(1732.738646 9.668053747 0.1308853396)
(1736.702637 8.143037337 -2.517142087)
(1732.524137 9.916253702 -3.965942176)
(1732.342832 8.018102319 -0.9235698101)
(1732.860556 9.621863941 -5.995751103)
(1741.73032 8.388266716 -1.661561755)
(1739.692462 15.19458144 -2.919834605)
(1740.494227 21.04077654 -1.025383301)
(1739.969527 15.910342 -5.632089642)
(1740.097961 7.738073435 -13.3073663)
(1742.220901 10.89638333 -19.06652205)
(1736.928177 18.39005158 -15.30415281)
(1737.321862 8.637230804 -11.7232051)
(1731.728926 4.071951593 -6.142376459)
(1730.452699 0.05886570449 -6.227295432)
(1733.287144 8.58135034 1.302720378)
(1738.075423 6.687418927 2.484337136)
(1739.306787 12.65303218 5.149482868)
(1744.648837 9.561297372 -5.727583256)
(1733.5892 2.984975389 -14.65852286)
(1729.581791 5.338053669 -7.035622081)
(1731.283478 17.88363277 -2.785682905)
(1729.728479 33.95222177 1.128263377)
)
;
    }
    obstacle
    {
        type            calculated;
        value           nonuniform List<vector> 0();
    }
    frontAndBack
    {
        type            empty;
    }
    procBoundary3to1
    {
        type            processor;
        value           nonuniform List<vector> 
36
(
(1391.234153 356.3146258 -8.082641359)
(1410.398901 382.2303951 -5.609290323)
(1417.775099 378.144835 -4.389092461)
(1404.119969 379.8489104 -1.944685971)
(1387.430955 369.4935066 2.824241449)
(1387.430955 369.4935066 2.824241449)
(1481.368196 337.2351433 4.339561469)
(1475.165879 343.4755678 -0.0955014306)
(1461.774012 358.4023113 0.5070677428)
(1450.626765 366.3219888 -0.3975826495)
(1439.854362 369.6246104 -4.993515887)
(1447.060169 377.0935016 -3.671248927)
(1447.060169 377.0935016 -3.671248927)
(1576.335155 225.1081868 -11.07127303)
(1558.413943 243.9910942 -0.3081889341)
(1566.550592 244.3679555 -1.243301405)
(1525.807344 281.1759846 2.161053165)
(1506.605066 305.5882487 18.31031134)
(1506.605066 305.5882487 18.31031134)
(1664.613129 93.19249081 -2.721348455)
(1655.648711 103.087634 -1.220245988)
(1638.165194 128.157509 -5.167588258)
(1620.185871 137.3664984 -5.948842231)
(1618.051568 146.5381454 7.786846218)
(1613.511715 154.5670299 18.31571978)
(1613.511715 154.5670299 18.31571978)
(1722.441857 29.68632978 -0.1710391981)
(1724.885324 35.58112259 5.144472131)
(1710.041016 33.27689551 2.056901296)
(1702.359337 46.16258386 6.837925129)
(1702.556641 50.29269061 10.71775369)
(1695.205216 57.92457797 8.86030405)
(1679.352778 71.32265614 8.885910166)
(1679.352778 71.32265614 8.885910166)