/*--------------------------------*- C++ -*----------------------------------*\
| =========                 |                                                 |
| \\      /  F ield         | OpenFOAM: The Open Source CFD Toolbox           |
|  \\    /   O peration     | Version:  2406                                  |
|   \\  /    A nd           | Website:  www.openfoam.com                      |
|    \\/     M anipulation  |                                                 |
\*---------------------------------------------------------------------------*/
FoamFile
{
    version     2.0;
    format      ascii;
    arch        "LSB;label=32;scalar=64";
    class       volScalarField;
    location    "0.009";
    object      dsmcRhoNMean;
}
// * * * * * * * * * * * * * * * * * * * * * * * * * * * * * * * * * * * * * //

dimensions      [0 -3 0 0 0 0 0];

internalField   nonuniform List<scalar> 
546
(
7.422444444
9.575555556
9.676888889
9.610222222
9.608
9.591777778
9.604888889
9.561777778
9.524888889
9.602888889
9.638222222
9.694444444
9.666
9.604222222
9.602444444
9.588888889
9.598
9.573111111
9.502444444
9.505555556
7.462222222
9.588444444
9.643333333
9.688666667
9.697333333
9.671777778
9.637555556
9.652
9.603333333
9.580444444
9.582222222
9.563333333
9.587333333
9.554444444
9.569777778
9.558888889
9.569555556
9.640666667
9.674888889
9.678444444
7.408
9.519555556
9.562444444
9.535777778
9.536888889
9.586666667
9.635777778
9.623555556
9.626444444
9.658
9.607111111
9.611555556
9.562888889
9.537111111
9.567111111
9.566
9.524444444
9.532666667
9.502666667
9.504666667
7.441333333
9.600888889
9.635555556
9.571777778
9.593777778
9.529555556
9.54
9.553555556
9.600888889
9.534666667
9.603111111
9.632222222
9.704666667
9.669111111
9.668444444
9.641555556
9.616888889
9.598222222
9.673333333
9.649777778
7.453555556
9.592
9.605777778
9.604666667
9.580222222
9.594
9.528888889
9.546666667
9.485555556
9.428666667
9.414666667
9.397555556
9.410444444
9.451111111
9.532444444
9.593777778
9.654888889
9.660888889
9.606444444
9.61
7.441555556
9.583777778
9.605777778
9.608
9.638
9.647555556
9.624222222
9.608666667
9.672666667
9.703111111
9.742888889
9.699777778
9.688222222
9.640444444
9.630666667
9.675111111
9.659777778
9.597111111
9.652
9.677111111
7.430888889
9.517555556
9.596888889
9.633555556
9.609333333
9.618444444
9.636222222
9.681777778
9.637111111
9.671111111
9.67
9.705777778
9.741777778
9.691777778
9.691111111
9.627777778
9.681555556
9.644444444
9.658444444
9.654666667
7.430888889
9.617555556
9.683111111
9.664
9.666888889
9.666666667
9.692
9.674444444
9.724666667
9.654666667
9.646666667
9.604444444
9.595555556
9.600888889
9.615777778
9.668
9.635777778
9.674444444
9.71
9.698444444
7.447555556
9.578222222
9.572888889
9.579111111
9.586444444
9.541555556
9.549777778
9.594888889
9.550888889
9.658888889
9.695555556
9.710222222
9.684888889
9.693333333
9.640222222
9.569777778
9.588888889
9.576222222
9.534666667
9.524666667
7.416666667
9.520444444
9.573111111
9.598222222
9.557777778
9.597555556
9.585111111
9.621555556
9.586
9.53
9.493555556
9.514
9.565555556
9.595333333
9.623555556
9.636222222
9.611777778
9.543555556
9.524222222
9.500444444
7.476888889
9.594
9.606444444
9.584888889
9.582888889
9.558222222
9.601333333
9.535555556
9.570222222
9.634666667
9.619777778
9.623555556
9.613333333
9.569111111
9.504444444
9.521777778
9.532888889
9.613555556
9.676444444
9.704222222
7.408888889
9.592222222
9.625555556
9.633777778
9.590888889
9.562666667
9.577111111
9.536666667
9.525555556
9.518666667
9.462888889
9.514
9.504666667
9.577111111
9.649111111
9.607555556
9.67
9.581333333
9.616
9.604222222
7.447111111
9.583555556
9.668444444
9.631777778
9.638888889
9.627777778
9.611777778
9.620888889
9.653333333
9.625111111
9.614666667
9.661333333
9.657111111
9.618888889
9.579555556
9.628222222
9.522666667
9.596666667
9.593555556
9.574444444
7.421111111
9.491777778
9.560444444
9.576
9.589777778
9.603777778
9.609333333
9.644666667
9.638
9.647777778
9.58
9.513111111
9.469777778
9.517111111
9.520888889
9.567333333
9.575333333
9.543333333
9.537111111
9.560888889
7.477777778
9.613777778
9.601777778
9.534666667
9.578666667
9.568888889
9.554222222
9.588
9.550444444
9.515111111
9.501111111
9.564666667
9.604222222
9.560888889
9.558222222
9.524444444
9.501333333
9.542666667
9.601333333
9.622
7.398888889
9.521333333
9.604222222
9.647111111
9.674222222
9.592888889
9.528444444
9.493333333
9.518444444
9.570222222
9.588666667
9.554666667
9.544666667
9.565111111
9.645333333
9.634
9.631555556
9.566444444
9.506
9.521333333
7.464444444
9.664444444
9.680666667
9.625333333
9.546
9.656888889
9.713111111
9.748222222
9.701111111
9.731333333
9.708
9.672666667
9.708
9.642444444
9.630888889
9.586444444
9.596222222
9.574
9.623333333
9.596
7.291111111
9.338222222
9.417777778
9.482222222
9.473111111
9.485333333
9.488444444
9.488222222
9.491555556
9.486222222
9.569333333
9.558888889
9.558
9.542888889
9.533111111
9.546
9.533777778
9.552444444
9.577777778
9.549777778
9.402222222
9.348888889
9.302666667
9.214
9.15
9.122
9.516222222
9.491777778
9.459555556
9.331555556
9.321777778
9.299333333
9.289555556
9.24
9.117555556
9.023333333
9.654444444
9.622666667
9.588444444
9.518666667
9.403555556
9.312
9.230666667
9.150888889
9.099333333
9.106444444
9.503777778
9.415333333
9.342666667
9.255333333
9.261333333
9.159333333
9.127777778
9.110888889
9.082444444
9.059777778
9.632888889
9.57
9.466
9.474888889
9.360888889
9.298
9.189777778
9.117555556
9.003777778
8.99
9.593777778
9.520444444
9.453777778
9.350444444
9.313555556
9.226888889
9.220444444
9.213777778
9.092666667
8.985777778
9.618222222
9.533111111
9.484222222
9.445777778
9.483333333
9.402
9.266222222
9.180666667
9.177777778
9.118444444
9.621111111
9.552
9.471555556
9.400222222
9.289333333
9.231555556
9.198444444
9.135111111
9
8.917777778
9.696
9.641777778
9.502
9.340444444
9.212888889
9.166
9.103111111
9.027777778
8.966888889
8.916888889
9.408222222
9.348888889
9.299777778
9.224444444
9.232666667
9.173111111
9.142444444
9.011777778
8.999333333
8.955777778
9.467111111
9.478444444
9.449777778
9.435111111
9.339333333
9.274666667
9.237555556
9.178666667
9.104888889
8.956888889
9.664666667
9.565333333
9.451555556
9.372222222
9.341333333
9.259333333
9.152444444
9.078222222
9.066888889
9.042
9.59
9.514222222
9.464
9.374
9.258666667
9.178444444
9.143777778
9.137555556
9.071555556
9.004222222
9.494222222
9.454888889
9.417333333
9.369555556
9.282666667
9.265333333
9.165333333
9.115333333
8.994888889
8.940666667
9.554888889
9.545111111
9.434
9.427111111
9.385777778
9.285111111
9.197555556
9.128888889
9.031333333
8.893111111
9.538222222
9.487777778
9.416666667
9.343333333
9.300222222
9.228444444
9.115777778
9.066888889
9.081777778
9.060222222
9.465111111
9.442666667
9.385777778
9.332666667
9.286222222
9.177555556
9.173777778
9.096666667
9.056
9.013555556
9.529111111
9.463555556
9.369555556
9.283333333
9.248666667
9.229555556
9.190222222
9.175777778
9.121777778
9.006444444
9.551333333
9.415777778
9.362
9.357333333
9.19
9.123333333
9.079333333
8.929777778
8.829777778
8.836
)
;

boundaryField
{
    flow
    {
        type            calculated;
        value           nonuniform List<scalar> 
48
(
7.422444444
7.462222222
7.408
7.441333333
7.453555556
7.441555556
7.430888889
7.430888889
7.447555556
7.416666667
7.476888889
7.408888889
7.447111111
7.421111111
7.477777778
7.398888889
7.464444444
7.291111111
7.291111111
9.338222222
9.417777778
9.482222222
9.473111111
9.485333333
9.488444444
9.488222222
9.491555556
9.486222222
9.569333333
9.558888889
9.558
9.542888889
9.533111111
9.546
9.533777778
9.552444444
9.577777778
9.549777778
9.551333333
9.415777778
9.362
9.357333333
9.19
9.123333333
9.079333333
8.929777778
8.829777778
8.836
)
;
    }
    obstacle
    {
        type            calculated;
        value           nonuniform List<scalar> 0();
    }
    frontAndBack
    {
        type            empty;
    }
    procBoundary2to0
    {
        type            processor;
        value           nonuniform List<scalar> 
31
(
7.44
9.550222222
9.595111111
9.521111111
9.560666667
9.539555556
9.635111111
9.681111111
9.736222222
9.718222222
9.650666667
9.610666667
9.639777778
9.661111111
9.642
9.634888889
9.642
9.622888889
9.663333333
9.649777778
9.284888889
9.191555556
9.107777778
9.110888889
9.171777778
9.121555556
9.594666667
9.482888889
9.422666667
9.434666667
9.434666667
)
;
    }
    procBoundary2to3
    {
        type            processor;
        value           nonuniform List<scalar> 
19
(
9.087777778
8.987777778
9.028444444
9.028222222
8.920666667
8.893333333
9.094888889
8.846888889
8.888888889
8.843555556
8.906444444
8.949777778
8.961777778
8.872888889
8.892
8.930888889
9.000666667
8.949777778
8.724
)
;
    }
}


// ************************************************************************* //
