/*--------------------------------*- C++ -*----------------------------------*\
| =========                 |                                                 |
| \\      /  F ield         | OpenFOAM: The Open Source CFD Toolbox           |
|  \\    /   O peration     | Version:  2406                                  |
|   \\  /    A nd           | Website:  www.openfoam.com                      |
|    \\/     M anipulation  |                                                 |
\*---------------------------------------------------------------------------*/
FoamFile
{
    version     2.0;
    format      ascii;
    arch        "LSB;label=32;scalar=64";
    class       volScalarField;
    location    "0.009";
    object      iDofMean;
}
// * * * * * * * * * * * * * * * * * * * * * * * * * * * * * * * * * * * * * //

dimensions      [0 -3 0 0 0 0 0];

internalField   nonuniform List<scalar> 
546
(
1.545946444e+20
1.994396343e+20
2.015502046e+20
2.001616715e+20
2.001153871e+20
1.997775107e+20
2.000505889e+20
1.991526708e+20
1.983843492e+20
2.000089329e+20
2.007448554e+20
2.019158517e+20
2.013234109e+20
2.000367036e+20
1.99999676e+20
1.997173409e+20
1.999071071e+20
1.993887215e+20
1.979168764e+20
1.979816746e+20
1.554231358e+20
1.997080841e+20
2.008513096e+20
2.017955121e+20
2.019760214e+20
2.014437504e+20
2.007309701e+20
2.010318189e+20
2.000181898e+20
1.995414601e+20
1.995784876e+20
1.991850699e+20
1.996849418e+20
1.989999322e+20
1.993192948e+20
1.990925011e+20
1.993146664e+20
2.007957683e+20
2.015085486e+20
2.015826037e+20
1.542937955e+20
1.982732665e+20
1.991665562e+20
1.986111429e+20
1.986342851e+20
1.996710565e+20
2.006939425e+20
2.004393782e+20
2.004995479e+20
2.011567869e+20
2.000968733e+20
2.001894422e+20
1.99175813e+20
1.986389136e+20
1.992637535e+20
1.992406113e+20
1.983750923e+20
1.985463447e+20
1.979215048e+20
1.979631608e+20
1.549880621e+20
1.999672769e+20
2.006893141e+20
1.993609508e+20
1.998191667e+20
1.984815465e+20
1.986990834e+20
1.989814184e+20
1.999672769e+20
1.985880007e+20
2.000135613e+20
2.006198875e+20
2.021287601e+20
2.013882091e+20
2.013743238e+20
2.008142821e+20
2.003005248e+20
1.999117356e+20
2.014761495e+20
2.009855345e+20
1.552426265e+20
1.997821392e+20
2.000691027e+20
2.000459604e+20
1.995368316e+20
1.998237952e+20
1.984676612e+20
1.988379367e+20
1.975651147e+20
1.963802331e+20
1.960886412e+20
1.95732251e+20
1.960007007e+20
1.968477059e+20
1.985417163e+20
1.998191667e+20
2.010919887e+20
2.012169567e+20
2.00082988e+20
2.001570431e+20
1.549926905e+20
1.996108867e+20
2.000691027e+20
2.001153871e+20
2.00740227e+20
2.009392501e+20
2.004532635e+20
2.001292724e+20
2.014622642e+20
2.02096361e+20
2.029248524e+20
2.020269343e+20
2.017862552e+20
2.007911399e+20
2.005874883e+20
2.015131771e+20
2.011938145e+20
1.998885934e+20
2.010318189e+20
2.015548331e+20
1.547705252e+20
1.982316106e+20
1.998839649e+20
2.006476581e+20
2.001431578e+20
2.003329239e+20
2.007031994e+20
2.016520304e+20
2.007217132e+20
2.014298651e+20
2.014067229e+20
2.021519023e+20
2.029017101e+20
2.018603103e+20
2.01846425e+20
2.005273186e+20
2.016474019e+20
2.008744518e+20
2.011660438e+20
2.010873603e+20
1.547705252e+20
2.003144102e+20
2.01679801e+20
2.012817549e+20
2.013419247e+20
2.013372962e+20
2.018649388e+20
2.014992917e+20
2.0254532e+20
2.010873603e+20
2.009207363e+20
2.00041332e+20
1.998561943e+20
1.999672769e+20
2.002773826e+20
2.013650669e+20
2.006939425e+20
2.014992917e+20
2.022398427e+20
2.019991636e+20
1.551176585e+20
1.994951757e+20
1.99384093e+20
1.995136894e+20
1.996664281e+20
1.987314825e+20
1.989027349e+20
1.998423089e+20
1.989258771e+20
2.011753007e+20
2.019389939e+20
2.022444712e+20
2.017168286e+20
2.018927094e+20
2.007865114e+20
1.993192948e+20
1.997173409e+20
1.994535197e+20
1.985880007e+20
1.983797208e+20
1.544743048e+20
1.982917803e+20
1.993887215e+20
1.999117356e+20
1.990693588e+20
1.998978502e+20
1.996386574e+20
2.003977222e+20
1.996571712e+20
1.984908034e+20
1.977317386e+20
1.981575555e+20
1.992313544e+20
1.998515658e+20
2.004393782e+20
2.007031994e+20
2.001940706e+20
1.987731385e+20
1.983704639e+20
1.978752204e+20
1.557286131e+20
1.998237952e+20
2.00082988e+20
1.99634029e+20
1.99592373e+20
1.990786157e+20
1.999765338e+20
1.986065145e+20
1.993285517e+20
2.006708003e+20
2.003606946e+20
2.004393782e+20
2.002264697e+20
1.993054095e+20
1.979585324e+20
1.98319551e+20
1.985509732e+20
2.002310982e+20
2.015409477e+20
2.021195032e+20
1.543123093e+20
1.997867676e+20
2.004810341e+20
2.006522866e+20
1.997589969e+20
1.991711846e+20
1.994720334e+20
1.986296567e+20
1.983982345e+20
1.982547528e+20
1.970930134e+20
1.981575555e+20
1.979631608e+20
1.994720334e+20
2.009716492e+20
2.001061302e+20
2.014067229e+20
1.995599739e+20
2.002820111e+20
2.000367036e+20
1.551084016e+20
1.996062583e+20
2.013743238e+20
2.006106306e+20
2.007587408e+20
2.005273186e+20
2.001940706e+20
2.003838368e+20
2.010595896e+20
2.004717773e+20
2.002542404e+20
2.012262136e+20
2.011382731e+20
2.003421808e+20
1.995229463e+20
2.005365755e+20
1.983380648e+20
1.998793365e+20
1.998145383e+20
1.994164921e+20
1.545668737e+20
1.976947111e+20
1.991249002e+20
1.994488912e+20
1.997358547e+20
2.000274467e+20
2.001431578e+20
2.008790803e+20
2.00740227e+20
2.009438785e+20
1.995322032e+20
1.981390417e+20
1.972364952e+20
1.982223537e+20
1.983010372e+20
1.992683819e+20
1.994350059e+20
1.9876851e+20
1.986389136e+20
1.991341571e+20
1.557471268e+20
2.002357266e+20
1.999857907e+20
1.985880007e+20
1.995044325e+20
1.99300781e+20
1.989953037e+20
1.996988272e+20
1.989166202e+20
1.981806977e+20
1.978891057e+20
1.992128406e+20
2.000367036e+20
1.991341571e+20
1.990786157e+20
1.983750923e+20
1.978937342e+20
1.987546247e+20
1.999765338e+20
2.00406979e+20
1.541040294e+20
1.983102941e+20
2.000367036e+20
2.009299932e+20
2.014946633e+20
1.998006529e+20
1.984584043e+20
1.977271102e+20
1.982501243e+20
1.993285517e+20
1.997127125e+20
1.990045606e+20
1.987962807e+20
1.992220975e+20
2.008929656e+20
2.00656915e+20
2.006060021e+20
1.992498681e+20
1.979909315e+20
1.983102941e+20
1.554694202e+20
2.012910118e+20
2.016288882e+20
2.004764057e+20
1.988240513e+20
2.011336447e+20
2.023046409e+20
2.03035935e+20
2.02054705e+20
2.026841733e+20
2.021981867e+20
2.014622642e+20
2.021981867e+20
2.008327959e+20
2.005921168e+20
1.996664281e+20
1.998700796e+20
1.994072352e+20
2.004347497e+20
1.998654511e+20
1.518592342e+20
1.944964566e+20
1.961534394e+20
1.97495688e+20
1.973059218e+20
1.975604862e+20
1.976252844e+20
1.97620656e+20
1.976900827e+20
1.97579e+20
1.993100379e+20
1.990925011e+20
1.990739873e+20
1.987592531e+20
1.985556016e+20
1.988240513e+20
1.985694869e+20
1.989582762e+20
1.994859188e+20
1.989027349e+20
2.020430377e+20
2.023174224e+20
2.027507008e+20
2.022584886e+20
2.023045397e+20
2.031530035e+20
1.989067212e+20
1.997599783e+20
2.004602282e+20
1.991264366e+20
2.003143783e+20
2.012450006e+20
2.024649469e+20
2.028292201e+20
2.015871985e+20
2.009556312e+20
2.017958237e+20
2.02514611e+20
2.031915507e+20
2.031192081e+20
2.020716881e+20
2.015191188e+20
2.011814694e+20
2.00873123e+20
2.011843105e+20
2.028065709e+20
1.986466092e+20
1.981511605e+20
1.979832014e+20
1.974999276e+20
1.990154961e+20
1.982152888e+20
1.989390162e+20
1.999950759e+20
2.008108994e+20
2.017672718e+20
2.013452712e+20
2.01406209e+20
2.005967944e+20
2.021850338e+20
2.011548315e+20
2.012161462e+20
2.002902987e+20
2.001414145e+20
1.990715963e+20
2.002132757e+20
2.005277764e+20
2.003632836e+20
2.003377896e+20
1.995295088e+20
2.001376921e+20
1.99677245e+20
2.00958677e+20
2.022536119e+20
2.01036912e+20
2.00119244e+20
2.010387107e+20
2.006298623e+20
2.009829468e+20
2.015638292e+20
2.03786023e+20
2.034667907e+20
2.019563992e+20
2.015267814e+20
2.029187004e+20
2.030738203e+20
2.010990951e+20
2.010273899e+20
2.007145238e+20
2.005917188e+20
1.996171842e+20
1.997782354e+20
2.004791892e+20
2.005267816e+20
1.989880704e+20
1.986048388e+20
2.026644107e+20
2.029168154e+20
2.013596823e+20
1.993161184e+20
1.979744802e+20
1.983595608e+20
1.984014072e+20
1.981706846e+20
1.982559922e+20
1.985850427e+20
1.966493206e+20
1.967527973e+20
1.970743289e+20
1.96840787e+20
1.983994807e+20
1.985134523e+20
1.992586761e+20
1.978194666e+20
1.98973332e+20
1.994511241e+20
1.978802077e+20
1.994793705e+20
2.002530258e+20
2.013362142e+20
2.006916285e+20
2.007111956e+20
2.013316106e+20
2.014828776e+20
2.013071413e+20
1.994758693e+20
2.020094872e+20
2.013079977e+20
2.002906979e+20
1.999942256e+20
2.007346049e+20
2.003793687e+20
1.994766237e+20
1.992780029e+20
2.004669708e+20
2.013713503e+20
2.004488138e+20
2.002323333e+20
2.005544104e+20
2.000321603e+20
1.989581924e+20
1.986288685e+20
1.992877332e+20
2.005804402e+20
2.005701498e+20
2.005300141e+20
1.984468803e+20
1.989836302e+20
1.99565486e+20
1.999373215e+20
1.994739251e+20
2.005092148e+20
1.997575372e+20
2.000926368e+20
1.988750648e+20
1.991145882e+20
1.997149263e+20
2.008824079e+20
1.999186716e+20
2.011655005e+20
2.016896653e+20
2.009372204e+20
2.004598146e+20
2.003901949e+20
1.996808437e+20
1.980554972e+20
1.993665621e+20
1.996757959e+20
1.995513585e+20
1.993777631e+20
1.998511726e+20
1.997109084e+20
1.986774774e+20
1.990292224e+20
2.00796161e+20
2.017771713e+20
1.978384053e+20
1.987264064e+20
1.988967816e+20
1.991501481e+20
1.995503299e+20
1.986096322e+20
1.999415802e+20
1.996828794e+20
2.002262198e+20
2.007378736e+20
1.991761229e+20
1.991660252e+20
1.985530117e+20
1.980974207e+20
1.987433038e+20
1.997349552e+20
2.002999881e+20
2.014194644e+20
2.01680551e+20
2.005795044e+20
1.996406086e+20
1.981605128e+20
1.983928997e+20
1.99676511e+20
1.974826241e+20
1.9743622e+20
1.978831729e+20
1.960194656e+20
1.952244949e+20
1.967835934e+20
)
;

boundaryField
{
    flow
    {
        type            calculated;
        value           nonuniform List<scalar> 
48
(
1.545946444e+20
1.554231358e+20
1.542937955e+20
1.549880621e+20
1.552426265e+20
1.549926905e+20
1.547705252e+20
1.547705252e+20
1.551176585e+20
1.544743048e+20
1.557286131e+20
1.543123093e+20
1.551084016e+20
1.545668737e+20
1.557471268e+20
1.541040294e+20
1.554694202e+20
1.518592342e+20
1.518592342e+20
1.944964566e+20
1.961534394e+20
1.97495688e+20
1.973059218e+20
1.975604862e+20
1.976252844e+20
1.97620656e+20
1.976900827e+20
1.97579e+20
1.993100379e+20
1.990925011e+20
1.990739873e+20
1.987592531e+20
1.985556016e+20
1.988240513e+20
1.985694869e+20
1.989582762e+20
1.994859188e+20
1.989027349e+20
1.996406086e+20
1.981605128e+20
1.983928997e+20
1.99676511e+20
1.974826241e+20
1.9743622e+20
1.978831729e+20
1.960194656e+20
1.952244949e+20
1.967835934e+20
)
;
    }
    obstacle
    {
        type            calculated;
        value           nonuniform List<scalar> 0();
    }
    frontAndBack
    {
        type            empty;
    }
    procBoundary2to0
    {
        type            processor;
        value           nonuniform List<scalar> 
31
(
1.549602914e+20
1.989119918e+20
1.998469374e+20
1.983056657e+20
1.991295286e+20
1.986898265e+20
2.006800572e+20
2.01638145e+20
2.027859991e+20
2.024110951e+20
2.010040483e+20
2.001709284e+20
2.007772545e+20
2.012215851e+20
2.00823539e+20
2.006754288e+20
2.00823539e+20
2.004254928e+20
2.012678696e+20
2.009855345e+20
1.995216781e+20
1.989126034e+20
1.985031182e+20
1.999950759e+20
2.027860417e+20
2.031431054e+20
2.005463558e+20
1.995729051e+20
1.996785049e+20
2.013267301e+20
2.013267301e+20
)
;
    }
    procBoundary2to3
    {
        type            processor;
        value           nonuniform List<scalar> 
19
(
2.038743165e+20
2.016309263e+20
2.025432398e+20
2.02538253e+20
2.001253622e+20
1.995121703e+20
2.040338479e+20
1.984702388e+20
1.994124641e+20
1.983954591e+20
1.998063023e+20
2.007784395e+20
2.010476448e+20
1.990535202e+20
1.994822599e+20
2.003546865e+20
2.019200744e+20
2.007784395e+20
1.957133615e+20
)
;
    }
}


// ************************************************************************* //
