/*--------------------------------*- C++ -*----------------------------------*\
| =========                 |                                                 |
| \\      /  F ield         | OpenFOAM: The Open Source CFD Toolbox           |
|  \\    /   O peration     | Version:  2406                                  |
|   \\  /    A nd           | Website:  www.openfoam.com                      |
|    \\/     M anipulation  |                                                 |
\*---------------------------------------------------------------------------*/
FoamFile
{
    version     2.0;
    format      ascii;
    arch        "LSB;label=32;scalar=64";
    class       volScalarField;
    location    "0.009";
    object      iDof;
}
// * * * * * * * * * * * * * * * * * * * * * * * * * * * * * * * * * * * * * //

dimensions      [0 -3 0 0 0 0 0];

internalField   nonuniform List<scalar> 
546
(
1.24967977e+20
1.874519654e+20
1.874519654e+20
2.082799616e+20
2.915919462e+20
1.457959731e+20
1.666239693e+20
2.082799616e+20
2.499359539e+20
2.499359539e+20
1.874519654e+20
2.291079578e+20
1.874519654e+20
1.874519654e+20
2.082799616e+20
1.666239693e+20
2.291079578e+20
1.874519654e+20
2.082799616e+20
3.540759347e+20
1.457959731e+20
2.291079578e+20
2.082799616e+20
2.291079578e+20
1.457959731e+20
2.291079578e+20
2.499359539e+20
1.041399808e+20
2.291079578e+20
1.24967977e+20
2.707639501e+20
1.874519654e+20
1.666239693e+20
1.666239693e+20
1.24967977e+20
2.082799616e+20
3.124199424e+20
1.874519654e+20
1.24967977e+20
1.874519654e+20
1.457959731e+20
1.874519654e+20
1.874519654e+20
1.666239693e+20
2.082799616e+20
1.24967977e+20
2.915919462e+20
1.457959731e+20
3.124199424e+20
2.499359539e+20
1.24967977e+20
2.291079578e+20
1.457959731e+20
2.082799616e+20
8.331198464e+19
2.499359539e+20
3.124199424e+20
2.082799616e+20
1.874519654e+20
1.874519654e+20
1.666239693e+20
2.082799616e+20
2.291079578e+20
2.499359539e+20
2.082799616e+20
8.331198464e+19
8.331198464e+19
1.666239693e+20
2.082799616e+20
2.499359539e+20
1.874519654e+20
1.457959731e+20
2.291079578e+20
1.041399808e+20
1.457959731e+20
1.666239693e+20
2.082799616e+20
1.457959731e+20
1.874519654e+20
1.874519654e+20
1.874519654e+20
1.041399808e+20
2.082799616e+20
2.915919462e+20
2.082799616e+20
2.291079578e+20
2.707639501e+20
1.457959731e+20
2.082799616e+20
3.540759347e+20
1.24967977e+20
1.874519654e+20
1.457959731e+20
1.874519654e+20
2.499359539e+20
1.041399808e+20
2.082799616e+20
3.124199424e+20
2.082799616e+20
3.332479385e+20
1.24967977e+20
2.082799616e+20
2.291079578e+20
2.291079578e+20
2.707639501e+20
1.666239693e+20
1.874519654e+20
3.332479385e+20
1.874519654e+20
3.332479385e+20
2.291079578e+20
1.457959731e+20
2.082799616e+20
1.666239693e+20
2.499359539e+20
1.666239693e+20
2.082799616e+20
1.041399808e+20
1.666239693e+20
1.874519654e+20
1.666239693e+20
1.666239693e+20
2.291079578e+20
2.915919462e+20
1.24967977e+20
2.499359539e+20
1.874519654e+20
2.082799616e+20
1.041399808e+20
1.666239693e+20
1.457959731e+20
1.24967977e+20
8.331198464e+19
1.666239693e+20
2.707639501e+20
1.666239693e+20
1.457959731e+20
2.915919462e+20
2.082799616e+20
1.666239693e+20
1.666239693e+20
1.457959731e+20
2.291079578e+20
2.082799616e+20
1.457959731e+20
2.082799616e+20
1.457959731e+20
1.874519654e+20
1.457959731e+20
3.332479385e+20
2.707639501e+20
1.874519654e+20
2.915919462e+20
2.291079578e+20
1.666239693e+20
1.666239693e+20
2.499359539e+20
1.666239693e+20
2.707639501e+20
1.874519654e+20
1.666239693e+20
2.499359539e+20
2.291079578e+20
1.874519654e+20
1.874519654e+20
1.666239693e+20
1.666239693e+20
8.331198464e+19
2.082799616e+20
2.499359539e+20
1.666239693e+20
2.499359539e+20
2.915919462e+20
2.707639501e+20
1.666239693e+20
2.707639501e+20
2.291079578e+20
2.707639501e+20
2.915919462e+20
1.24967977e+20
1.24967977e+20
1.457959731e+20
2.707639501e+20
1.666239693e+20
2.499359539e+20
2.082799616e+20
2.291079578e+20
2.291079578e+20
3.124199424e+20
2.291079578e+20
1.874519654e+20
2.291079578e+20
1.24967977e+20
3.124199424e+20
1.457959731e+20
2.707639501e+20
2.082799616e+20
1.24967977e+20
2.499359539e+20
1.24967977e+20
1.24967977e+20
1.874519654e+20
1.874519654e+20
1.666239693e+20
1.666239693e+20
2.915919462e+20
2.707639501e+20
2.082799616e+20
1.041399808e+20
1.666239693e+20
2.915919462e+20
1.874519654e+20
1.666239693e+20
1.24967977e+20
2.082799616e+20
2.082799616e+20
1.666239693e+20
2.499359539e+20
8.331198464e+19
2.082799616e+20
1.666239693e+20
1.874519654e+20
2.082799616e+20
2.291079578e+20
1.874519654e+20
1.457959731e+20
1.041399808e+20
1.666239693e+20
2.915919462e+20
2.082799616e+20
2.291079578e+20
1.24967977e+20
1.24967977e+20
1.666239693e+20
2.707639501e+20
2.082799616e+20
1.24967977e+20
8.331198464e+19
1.457959731e+20
3.124199424e+20
1.24967977e+20
1.874519654e+20
1.24967977e+20
2.291079578e+20
1.457959731e+20
1.24967977e+20
4.165599232e+19
1.666239693e+20
2.082799616e+20
1.874519654e+20
2.707639501e+20
1.874519654e+20
2.707639501e+20
6.248398848e+19
1.874519654e+20
8.331198464e+19
1.666239693e+20
2.499359539e+20
3.749039309e+20
3.332479385e+20
1.457959731e+20
1.666239693e+20
2.915919462e+20
2.082799616e+20
2.499359539e+20
2.499359539e+20
2.915919462e+20
1.874519654e+20
1.041399808e+20
1.874519654e+20
1.666239693e+20
1.874519654e+20
2.291079578e+20
2.707639501e+20
2.707639501e+20
3.332479385e+20
1.041399808e+20
2.915919462e+20
1.041399808e+20
2.082799616e+20
1.457959731e+20
2.291079578e+20
2.707639501e+20
2.291079578e+20
1.666239693e+20
2.291079578e+20
8.331198464e+19
3.540759347e+20
2.499359539e+20
2.915919462e+20
2.291079578e+20
1.24967977e+20
1.874519654e+20
1.457959731e+20
1.457959731e+20
1.666239693e+20
3.124199424e+20
1.041399808e+20
1.457959731e+20
2.082799616e+20
1.24967977e+20
1.874519654e+20
1.457959731e+20
1.457959731e+20
1.666239693e+20
1.666239693e+20
2.915919462e+20
2.291079578e+20
1.666239693e+20
1.24967977e+20
2.291079578e+20
1.874519654e+20
2.082799616e+20
2.915919462e+20
2.707639501e+20
2.499359539e+20
1.666239693e+20
1.666239693e+20
2.291079578e+20
1.457959731e+20
1.24967977e+20
2.082799616e+20
2.499359539e+20
2.082799616e+20
2.082799616e+20
1.666239693e+20
1.666239693e+20
1.874519654e+20
2.499359539e+20
2.915919462e+20
2.499359539e+20
1.24967977e+20
1.457959731e+20
1.666239693e+20
1.457959731e+20
1.874519654e+20
1.874519654e+20
1.874519654e+20
1.874519654e+20
1.666239693e+20
1.457959731e+20
1.457959731e+20
2.499359539e+20
2.291079578e+20
2.082799616e+20
1.24967977e+20
1.457959731e+20
1.041399808e+20
1.666239693e+20
1.457959731e+20
2.082799616e+20
2.499359539e+20
1.874519654e+20
1.666239693e+20
2.291079578e+20
1.457959731e+20
2.915919462e+20
2.291079578e+20
2.291079578e+20
2.291079578e+20
1.719108806e+20
1.514855908e+20
1.961541108e+20
1.756097144e+20
1.989880718e+20
2.227066471e+20
2.299204329e+20
2.735925533e+20
2.119129457e+20
1.066951997e+20
1.933997406e+20
1.947671882e+20
1.307694081e+20
1.756097144e+20
1.547684992e+20
1.55894653e+20
1.881167191e+20
2.525469723e+20
3.178694185e+20
1.707123195e+20
2.148885992e+20
3.462527814e+20
2.179490135e+20
2.414633573e+20
1.326587145e+20
2.004359824e+20
1.463130028e+20
2.315013913e+20
1.48339062e+20
2.133903993e+20
2.148886007e+19
1.514855908e+20
1.743592108e+20
1.756097156e+20
1.989880704e+20
2.004359809e+20
1.463130028e+20
1.68364647e+20
2.331042402e+20
2.56068481e+20
2.578663208e+20
1.082039934e+20
1.08974506e+20
8.780485658e+19
1.989880704e+20
2.227066471e+20
2.299204329e+20
1.68364647e+20
3.178694185e+20
2.133904008e+20
1.289331604e+20
2.164079869e+20
2.397439148e+20
2.195121445e+20
3.095370006e+20
1.336239882e+20
1.881167178e+20
2.104558102e+20
1.907216511e+20
2.347294393e+20
3.438217611e+20
2.596895861e+20
2.397439148e+20
2.853657859e+20
1.989880718e+20
1.336239892e+20
3.135278652e+20
1.262734861e+20
2.754868294e+20
2.133904008e+20
1.719108806e+20
1.947671882e+20
1.525643094e+20
1.756097144e+20
2.874272128e+20
1.781653177e+20
2.299204329e+20
1.894102292e+20
1.271477683e+20
1.066952004e+20
1.933997406e+20
1.514855908e+20
1.525643084e+20
8.78048572e+19
1.768782861e+20
2.895186412e+20
1.672148603e+20
1.68364647e+20
2.331042386e+20
1.066951989e+20
3.223328988e+20
1.947671896e+20
1.30769409e+20
1.536585012e+20
1.547685003e+20
2.004359824e+20
1.672148603e+20
1.894102292e+20
2.119129471e+20
2.987465611e+20
2.578663226e+20
1.29844793e+20
2.179490119e+20
3.292682122e+20
2.653174272e+20
2.672479765e+20
1.881167191e+20
1.683646482e+20
2.754868294e+20
1.066952004e+20
2.148886007e+20
1.298447921e+20
2.615388162e+20
2.853657879e+20
1.547685003e+20
1.781653177e+20
2.71724148e+20
1.473190662e+20
2.331042386e+20
2.133903993e+20
1.504220205e+20
1.082039934e+20
1.525643084e+20
1.756097144e+20
1.989880718e+20
8.908265883e+19
3.553315781e+20
1.052279051e+20
1.695303577e+20
2.56068481e+20
1.504220205e+20
2.164079884e+20
1.961541135e+20
2.634145734e+20
1.326587136e+20
2.4497731e+20
1.881167178e+20
2.104558088e+20
2.542955331e+20
1.707123195e+20
1.074443004e+20
1.731263895e+20
2.833337155e+20
1.975609273e+20
1.989880704e+20
1.558946541e+20
1.463130028e+20
3.156837153e+20
2.119129471e+20
1.066951997e+20
1.719108794e+20
1.298447921e+20
2.179490135e+20
1.975609301e+20
8.843914303e+19
1.781653177e+20
1.463130037e+20
2.315013913e+20
1.695303565e+20
1.280342405e+20
3.223329011e+20
1.298447921e+20
2.615388143e+20
1.756097144e+20
3.095370006e+20
2.227066471e+20
2.508222905e+20
2.735925533e+20
2.331042402e+20
1.920513594e+20
2.578663208e+20
1.731263907e+20
1.30769409e+20
1.317072858e+20
2.21097856e+20
2.004359824e+20
2.71724148e+20
1.894102279e+20
2.331042402e+20
2.133904008e+20
2.148886007e+20
2.164079869e+20
2.615388143e+20
1.975609287e+20
4.421957151e+19
1.55894653e+20
)
;

boundaryField
{
    flow
    {
        type            zeroGradient;
    }
    obstacle
    {
        type            calculated;
        value           nonuniform List<scalar> 0();
    }
    frontAndBack
    {
        type            empty;
    }
    procBoundary2to0
    {
        type            processor;
        value           nonuniform List<scalar> 
31
(
1.24967977e+20
2.082799616e+20
2.499359539e+20
1.457959731e+20
2.291079578e+20
1.874519654e+20
2.291079578e+20
1.24967977e+20
1.041399808e+20
1.041399808e+20
1.666239693e+20
1.874519654e+20
2.082799616e+20
2.915919462e+20
1.041399808e+20
2.291079578e+20
1.457959731e+20
1.24967977e+20
1.457959731e+20
2.291079578e+20
2.793551809e+20
1.298447921e+20
8.717960539e+19
1.975609301e+20
2.432076433e+20
2.227066471e+20
1.463130028e+20
2.315013897e+20
1.48339062e+20
1.066952004e+20
1.066952004e+20
)
;
    }
    procBoundary2to3
    {
        type            processor;
        value           nonuniform List<scalar> 
19
(
1.570373143e+20
1.570373143e+20
2.019051199e+20
2.692068246e+20
3.365085307e+20
2.019051199e+20
1.12169511e+20
1.794712164e+20
1.12169511e+20
6.730170614e+19
1.121695102e+20
1.346034132e+20
4.486780409e+20
1.570373143e+20
1.79471219e+20
2.692068246e+20
2.243390205e+20
2.467729243e+20
1.570373143e+20
)
;
    }
}


// ************************************************************************* //
