/*--------------------------------*- C++ -*----------------------------------*\
| =========                 |                                                 |
| \\      /  F ield         | OpenFOAM: The Open Source CFD Toolbox           |
|  \\    /   O peration     | Version:  2406                                  |
|   \\  /    A nd           | Website:  www.openfoam.com                      |
|    \\/     M anipulation  |                                                 |
\*---------------------------------------------------------------------------*/
FoamFile
{
    version     2.0;
    format      ascii;
    arch        "LSB;label=32;scalar=64";
    class       volScalarField;
    location    "0.009";
    object      internalT;
}
// * * * * * * * * * * * * * * * * * * * * * * * * * * * * * * * * * * * * * //

dimensions      [1 2 -2 0 0 0 0];

internalField   nonuniform List<scalar> 
546
(
301.0313936
303.8967661
303.3666432
301.3212488
300.2067146
298.5762074
298.2496205
298.3066059
298.6312936
298.4956357
297.9623416
300.3166568
300.8942208
299.5725117
299.9190709
298.8359297
296.9757804
296.5753009
296.5442724
298.0332825
303.831036
302.6029177
301.9507586
301.6479056
300.4498056
299.8167887
299.8223279
300.0561244
299.8379797
300.0011144
299.020087
296.094287
298.4328503
298.3566166
299.2261673
300.0751872
302.0206544
302.9105616
301.6347181
302.3438129
298.797926
299.6058678
300.0792372
299.7322155
303.7498086
305.4412101
305.6292775
304.3389628
302.8586889
301.206987
299.9832373
300.2344566
298.8862823
299.5872849
299.1032477
300.2771372
299.8702701
300.734247
303.0522491
302.0302294
300.9570227
300.7070959
300.8594676
300.6936556
299.3031619
297.6589271
300.3733473
300.3715143
300.5862484
299.9789676
301.3391564
302.4328536
303.3347985
303.7900753
301.5050654
299.4590501
299.3734584
298.7933205
298.991475
297.9687147
301.4682998
301.3307331
302.6127786
303.1640589
302.1697239
302.5779443
299.7070423
298.1981681
300.3431091
301.1425058
300.704168
300.0240671
298.2142904
298.6791895
298.6231465
300.2722918
299.5259086
299.6001698
297.504872
298.682577
301.1132269
301.1426853
299.9222464
301.0454291
300.6962965
301.5078564
303.2350167
303.8732357
304.0895017
303.877668
302.3136797
302.3817705
301.3067771
301.6504427
299.4079508
298.4092123
299.4290139
301.3127017
301.026671
301.8071205
296.2170954
297.5432889
297.2784672
298.7587558
300.4919733
299.9638516
302.174604
301.1542389
299.9479762
299.0875543
301.6850149
300.7596934
300.7050708
301.2090212
301.1007666
300.8355354
299.4684288
298.9304515
300.7895814
301.3832411
300.3612919
301.1855996
300.0802667
300.0017516
300.9612293
300.8618203
299.4578506
298.2789229
299.1092142
298.4632971
298.4374668
298.4779006
300.8910393
299.6906807
300.3085999
300.4118768
300.5200158
300.1539809
299.6391421
299.5702619
302.0322853
303.5929562
304.5432957
303.8282362
302.9066676
301.5436231
301.4036763
302.3959336
300.9213484
303.0930148
301.4835061
303.1715822
302.2216998
301.8219139
300.7085657
300.7744254
300.3480043
299.699985
301.1423083
300.6409044
300.6442419
300.1752761
298.614059
298.1295085
296.8550534
297.0610609
297.8969157
299.2224082
299.994004
299.928025
301.0031482
299.4759353
299.8649606
298.7535915
298.4549589
298.2756712
298.319752
300.2534136
298.0127616
297.4274067
297.1882223
298.5794939
299.7262833
302.1269171
301.4612501
301.5402156
300.5028656
298.7536516
299.81799
299.0053066
298.4675642
298.4419043
296.6927258
298.7302435
297.3050708
297.3825898
298.9632382
299.1363144
301.423158
302.3003514
302.9202582
302.6050628
300.6466901
299.8828985
299.7535076
300.7558447
297.729995
299.1083312
297.101451
297.0809934
296.4436683
298.0436538
298.5197976
298.6984568
299.1620631
299.4355227
299.8584759
300.2099361
299.1205567
298.4517817
301.152755
301.301395
301.940962
303.4313473
303.8200476
304.2030912
303.107667
301.2194972
300.4451597
300.1645903
301.5960666
301.3726253
301.510815
303.2638498
302.5124023
303.7996915
304.2887351
303.2423091
303.6110466
301.8373791
302.7999024
302.8963767
304.2510225
301.4696667
301.7662071
301.4466508
302.2062172
304.4579014
304.2653117
304.2476621
300.6010287
300.4911989
299.8187017
298.1115026
298.4090269
298.141361
296.1420677
299.1897076
298.7841249
300.4155471
302.8839505
303.3085449
303.0384014
304.7905314
304.0668618
305.3066828
306.4137932
304.1868357
302.5845161
303.4233806
305.6391018
304.1861295
304.7872669
305.1943394
304.1395181
301.7477589
304.0521852
304.1151279
303.1326358
303.0975089
298.0466722
298.7008271
298.0138527
298.8729184
299.5204567
299.8678091
300.6440312
300.4773537
300.7432763
300.6232278
301.6733655
300.8737203
301.446909
301.9358033
300.6432431
302.5029425
302.3633731
302.1166546
299.2556579
300.7236832
298.7336069
300.3765167
302.8205177
301.6318183
301.6583041
301.7030545
300.2938362
301.0395108
301.4740458
300.5865756
300.7388852
299.6742969
300.8258151
301.513134
302.2049343
301.3547034
300.3597272
299.8786901
299.5531914
298.8468385
301.1046048
299.5821586
300.9447452
302.2199537
302.7774008
301.3596686
301.7575523
301.368767
300.0633571
298.3964372
297.2383225
298.0964737
298.2048465
296.1101906
295.8285721
293.955014
296.7504066
296.9275354
295.7295338
298.4174228
303.896803
304.9134454
305.0512156
304.0693405
304.9897403
302.9582982
297.7782339
299.2674755
300.9465907
301.397976
300.2208105
301.0706175
300.8633643
300.9879566
301.0553201
302.2420707
300.3453992
302.3118695
301.3517824
300.1655625
301.5833633
302.0289131
301.657735
302.4388609
303.4535355
305.808453
304.8196451
303.1264485
299.7466962
300.1029988
299.2099526
298.9376133
299.047549
300.6919273
299.0798504
299.1853456
295.1495256
296.4623393
298.5264922
298.7153197
297.1929857
299.0183384
299.2471888
297.2612784
296.5868667
297.5584017
299.0157741
298.2778467
299.4248444
298.8509599
299.6043649
300.3671481
300.5595563
303.0854226
302.0616061
301.4416456
300.9410123
301.8687668
301.7498495
301.3005929
300.0698143
299.66483
300.5632095
298.3772508
299.9007815
300.3597556
302.8499807
302.8669053
301.6852208
300.5842054
300.6740228
302.1269098
299.0926888
299.2113416
300.0424072
299.389968
298.5350281
299.4515343
300.3032357
300.9113842
303.0889726
300.6890434
303.8660155
302.7053256
301.2390937
300.6670569
300.6314271
299.8812681
300.3235826
300.4664036
299.124688
299.9185055
299.8339101
300.122972
301.511244
302.5762427
297.9041328
298.9328349
300.0586413
301.6048809
300.4925851
301.3827945
301.2478922
302.5948072
301.3077461
300.0523037
303.9127904
301.5563606
300.8581895
300.754813
300.9431808
299.9478515
299.5881171
297.9448673
297.839371
298.3458587
298.4444682
299.81385
299.2385941
300.123737
300.2631089
301.0845441
301.7505966
302.0669875
302.6396178
304.3303205
300.7543181
300.360428
298.5657063
298.2332032
301.4258798
300.554967
303.2919104
304.866501
304.7198395
303.270238
300.5221417
302.1019204
302.1405905
302.0095182
302.3626983
302.5283546
302.8617439
300.5945162
302.2807783
303.6087792
301.0206363
302.1865544
302.1312172
302.0122635
299.9736927
298.3590736
298.0309732
300.1572242
299.2662684
299.4731778
300.5908437
300.5154611
299.3461036
300.0193223
300.4964947
300.9335269
301.7262987
301.1050538
300.3920697
299.752449
301.048708
300.7199564
298.9203074
299.4947982
298.7735977
299.276685
299.9300153
302.6483174
301.5114455
301.7063564
298.5662638
299.1351928
299.8423484
299.9559376
299.8391958
298.5607392
298.8155391
297.0516476
299.9258919
298.9525319
)
;

boundaryField
{
    flow
    {
        type            calculated;
        value           nonuniform List<scalar> 
48
(
301.0313936
303.831036
298.797926
300.9570227
301.4682998
301.1132269
296.2170954
300.3612919
302.0322853
300.6442419
297.1882223
302.9202582
301.152755
302.7999024
302.8839505
298.0466722
298.7336069
301.1046048
301.1046048
299.5821586
300.9447452
302.2199537
302.7774008
301.3596686
301.7575523
301.368767
300.0633571
298.3964372
297.2383225
298.0964737
298.2048465
296.1101906
295.8285721
293.955014
296.7504066
296.9275354
295.7295338
298.4174228
298.5662638
299.1351928
299.8423484
299.9559376
299.8391958
298.5607392
298.8155391
297.0516476
299.9258919
298.9525319
)
;
    }
    obstacle
    {
        type            calculated;
        value           nonuniform List<scalar> 0();
    }
    frontAndBack
    {
        type            empty;
    }
    procBoundary2to0
    {
        type            processor;
        value           nonuniform List<scalar> 
31
(
300.6412264
299.8672675
300.2843022
301.6874248
302.5500147
302.7506106
302.9419923
303.0760286
302.4566519
301.7314401
303.2366603
302.297525
300.6526333
301.8764615
301.9756977
301.7089673
300.908582
300.7058067
300.5125407
299.5951124
301.6555664
301.1497618
304.0609287
304.1081977
305.4070979
306.7041474
300.5052675
298.2789564
300.0656594
301.5593445
301.5593445
)
;
    }
    procBoundary2to3
    {
        type            processor;
        value           nonuniform List<scalar> 
19
(
303.735841
302.6428476
305.297296
300.1475534
299.6426457
299.3217559
299.479511
302.3249389
301.2751058
302.5495513
300.2909093
300.3619674
302.3294011
303.5057486
302.9276027
298.0604624
299.0406026
303.2509149
299.7767627
)
;
    }
}


// ************************************************************************* //
