/*--------------------------------*- C++ -*----------------------------------*\
| =========                 |                                                 |
| \\      /  F ield         | OpenFOAM: The Open Source CFD Toolbox           |
|  \\    /   O peration     | Version:  2406                                  |
|   \\  /    A nd           | Website:  www.openfoam.com                      |
|    \\/     M anipulation  |                                                 |
\*---------------------------------------------------------------------------*/
FoamFile
{
    version     2.0;
    format      ascii;
    arch        "LSB;label=32;scalar=64";
    class       volScalarField;
    location    "0.009";
    object      internalEMean;
}
// * * * * * * * * * * * * * * * * * * * * * * * * * * * * * * * * * * * * * //

dimensions      [1 -1 -2 0 0 0 0];

internalField   nonuniform List<scalar> 
546
(
0.3212623525
0.4183994927
0.4220896188
0.4163554744
0.4147195289
0.4117706578
0.4118824955
0.4101121232
0.4089745887
0.4121364065
0.4129138064
0.418604061
0.4181785263
0.4136806921
0.4140825944
0.412004718
0.4098291717
0.4082151981
0.4051594473
0.4073271524
0.325987842
0.4171789224
0.41866282
0.4202090671
0.4189144509
0.4169301943
0.4154626213
0.4164097591
0.4140089569
0.4132469104
0.4119719929
0.4071368498
0.4113822457
0.4098662928
0.4117205208
0.4124189286
0.4155559479
0.419877472
0.4195931639
0.4207341244
0.3182582298
0.4100795177
0.4125779016
0.4109515625
0.4165084592
0.4210138172
0.4234311664
0.4211086908
0.4191862583
0.4182667418
0.4143724676
0.4149113392
0.4109568116
0.4108102868
0.4114367085
0.4130035016
0.4106522004
0.4121908863
0.4140607814
0.4127512466
0.3220003409
0.4151033235
0.416813266
0.4138261806
0.4128592791
0.4078426582
0.4120129432
0.412595862
0.4149365027
0.4112419514
0.4160721169
0.4188481015
0.4232568044
0.4223390347
0.4191334378
0.4151314546
0.4139510449
0.4123469397
0.4158493716
0.4134177037
0.3230771439
0.415579091
0.4179466891
0.4186596447
0.4162244818
0.4173861871
0.4106201915
0.409315151
0.4096203597
0.4082474048
0.40704787
0.4053891177
0.4034964114
0.4058718431
0.4092878387
0.4141960986
0.4157983532
0.4161599024
0.4109205381
0.412699904
0.322177088
0.4149637353
0.4142307223
0.4158781683
0.4166928915
0.4182317621
0.4196102455
0.4198137593
0.422910764
0.42394633
0.4234933934
0.4217144485
0.4197146056
0.4181211284
0.4145918598
0.4151158137
0.4158743224
0.4157756516
0.4177566574
0.4199294178
0.3164841589
0.4071708421
0.41019939
0.4138170104
0.4151712052
0.4148344858
0.4186642318
0.4192230769
0.4156175642
0.4158874401
0.4194510669
0.4197116919
0.4211919486
0.4197324178
0.4195527042
0.416443687
0.4168667692
0.4145228393
0.4177063388
0.4183670508
0.3209118999
0.4164856069
0.4177855769
0.4168519162
0.4183101181
0.4181623352
0.4173017434
0.4149059775
0.4182207787
0.4143137121
0.4139345788
0.4121786766
0.4151265108
0.4137002394
0.4151961118
0.4175945584
0.4163525886
0.4175141831
0.4183298602
0.4177359694
0.3234209964
0.4180976151
0.4191728563
0.4184604654
0.4175105783
0.4136856178
0.4138499447
0.4171737632
0.4132357462
0.420924484
0.4202786678
0.4232712295
0.4208442298
0.4206539842
0.4168059738
0.4138508479
0.4140894132
0.412650169
0.4128367782
0.4117171382
0.3205994268
0.4108972479
0.4110214064
0.4114308522
0.4079457995
0.4099278766
0.4105482912
0.4139429556
0.4134767459
0.4109708691
0.4108667763
0.409662459
0.4124174285
0.4121680198
0.4129670939
0.4132622434
0.41227483
0.4120019296
0.4080989454
0.4062805182
0.319487309
0.4118705903
0.4139888023
0.4163682378
0.4153641776
0.4144035383
0.414840602
0.4096003448
0.4125539989
0.4142062812
0.4128224163
0.4129490305
0.4100926545
0.4110095195
0.4062843966
0.4071314681
0.4097730671
0.4134797732
0.4193662862
0.4217940757
0.3226877587
0.4173462464
0.4160862098
0.4153836657
0.4133559791
0.4135177765
0.4099757855
0.4101344058
0.4069079524
0.406585678
0.4033360214
0.4077031965
0.4079539284
0.4113093625
0.4150447431
0.4136350339
0.4169115183
0.4135729275
0.4135631224
0.4121330722
0.3224599368
0.4151728044
0.4197393938
0.4202115546
0.4210604905
0.4211053616
0.4188916792
0.4166768466
0.4170072495
0.4153998165
0.4169279361
0.4186411918
0.4186501136
0.419417592
0.4166675081
0.420566353
0.4166252122
0.4184189022
0.4187918817
0.4155159461
0.3230916657
0.4133735939
0.4182261838
0.4150771716
0.4160832549
0.4162494339
0.4175396703
0.4221974077
0.4216386898
0.4220419605
0.4140540739
0.4110128653
0.4082249998
0.4079293597
0.408498573
0.4101230944
0.4077135042
0.4105327734
0.4097089504
0.4129731022
0.3256491181
0.4192565103
0.4183602436
0.4178381368
0.4187696921
0.4200479919
0.4209250188
0.4193431287
0.4155003305
0.4151107662
0.4175268435
0.418321645
0.4208817651
0.4195423784
0.4179757323
0.4132232953
0.4153687066
0.4172620319
0.4184709682
0.4193231215
0.3170676056
0.4089171123
0.4115283346
0.4145576516
0.4166233809
0.4135998298
0.4118847217
0.4101394706
0.4115882771
0.413662018
0.4159070481
0.4133337679
0.4136877791
0.4152462549
0.4169363683
0.4190224925
0.4187228931
0.4155528942
0.4090169168
0.4116863731
0.3206141334
0.4173918465
0.4214942501
0.4174399609
0.4140357153
0.4189073999
0.4193782135
0.421939332
0.420506292
0.4205745804
0.4197787438
0.4167703428
0.4199000827
0.4180175069
0.4184745143
0.4153714326
0.4144222727
0.4128004089
0.4144771285
0.4123253113
0.3156546594
0.4022362811
0.407508145
0.4120352333
0.4123985961
0.4109971569
0.4116747761
0.411134744
0.4094976827
0.4069940105
0.4089663496
0.4096994138
0.4098102476
0.4062882959
0.4054859986
0.4034627022
0.4067779825
0.4078177127
0.4072494867
0.4097495937
0.42386116
0.4258566764
0.4269615099
0.424554053
0.4259361099
0.424873556
0.4088801337
0.4126877748
0.416458039
0.4143075573
0.4151514108
0.4182607147
0.4205065385
0.421437562
0.4189506392
0.4192843941
0.4183952634
0.4226347108
0.4227007426
0.4208869509
0.420694129
0.4201635528
0.4189440657
0.4193851292
0.421444036
0.4281393144
0.4180013755
0.4146427279
0.4096720631
0.4091578403
0.4110707074
0.4090452124
0.4106897036
0.4151400882
0.4145987969
0.4167202844
0.4102391705
0.412188611
0.4133904771
0.4169270786
0.4126887451
0.4153500359
0.4137553239
0.4107039763
0.4075818314
0.4112621012
0.4139255542
0.4125653413
0.4140991242
0.4116379341
0.4139335473
0.4140326673
0.4169566507
0.4231700633
0.4192035324
0.4164335461
0.4176520999
0.4180876675
0.4186584616
0.4192433553
0.4221339728
0.420903863
0.4190318554
0.4150993741
0.4201005704
0.4210651353
0.4204276482
0.4203012248
0.4180097734
0.4162294043
0.4143310063
0.4166689929
0.4139317083
0.4141942224
0.4121575723
0.4104692907
0.417663369
0.419467369
0.4174323768
0.4140326982
0.414221797
0.4117412162
0.4161793053
0.414107478
0.4122790404
0.4121791152
0.4081130013
0.4073088586
0.4085762274
0.4082861173
0.4096815361
0.4110047177
0.4124312747
0.4098471001
0.4141445844
0.4166054197
0.4069419739
0.4116472433
0.4148000757
0.4191928486
0.4163097848
0.4175838125
0.4186871059
0.4208750851
0.418719397
0.4131815622
0.42381307
0.4190666728
0.4159836096
0.415225144
0.417023334
0.4149085276
0.4125439229
0.409872586
0.4121720474
0.4147355826
0.4129720177
0.4144188499
0.414289021
0.4144324683
0.4123988117
0.4128425313
0.4151282668
0.4182591456
0.4190305435
0.4212871467
0.4120118898
0.4125852195
0.4113191772
0.4116266309
0.4150689747
0.4160177372
0.4182323318
0.4211088952
0.4183450809
0.4168563999
0.4143244869
0.418937265
0.4169807754
0.4193993317
0.4209838729
0.4196430909
0.4191074149
0.415825504
0.4166779668
0.4151020021
0.4142878444
0.4165375542
0.4162017392
0.4156759509
0.413850488
0.4113340283
0.4087555285
0.4124005619
0.4148267702
0.417141657
0.4105253233
0.412264559
0.4110124402
0.4124615418
0.4139476887
0.412595497
0.4164567322
0.4150615245
0.4152054189
0.4153800755
0.4139307054
0.413457722
0.4097184308
0.4095639343
0.4099098207
0.4126487774
0.4147194985
0.4208170253
0.4197796909
0.4177578464
0.4114747786
0.4092024535
0.4106508229
0.4134643261
0.4087623575
0.4069238329
0.4081930866
0.4019617868
0.4042051741
0.406110973
)
;

boundaryField
{
    flow
    {
        type            calculated;
        value           nonuniform List<scalar> 
48
(
0.3212623525
0.325987842
0.3182582298
0.3220003409
0.3230771439
0.322177088
0.3164841589
0.3209118999
0.3234209964
0.3205994268
0.319487309
0.3226877587
0.3224599368
0.3230916657
0.3256491181
0.3170676056
0.3206141334
0.3156546594
0.3156546594
0.4022362811
0.407508145
0.4120352333
0.4123985961
0.4109971569
0.4116747761
0.411134744
0.4094976827
0.4069940105
0.4089663496
0.4096994138
0.4098102476
0.4062882959
0.4054859986
0.4034627022
0.4067779825
0.4078177127
0.4072494867
0.4097495937
0.4114747786
0.4092024535
0.4106508229
0.4134643261
0.4087623575
0.4069238329
0.4081930866
0.4019617868
0.4042051741
0.406110973
)
;
    }
    obstacle
    {
        type            calculated;
        value           nonuniform List<scalar> 0();
    }
    frontAndBack
    {
        type            empty;
    }
    procBoundary2to0
    {
        type            processor;
        value           nonuniform List<scalar> 
31
(
0.3216048284
0.4117595019
0.4142702326
0.4129960821
0.4158976301
0.4152544161
0.4196790547
0.4218692617
0.4234037583
0.4216076493
0.4207654879
0.4177237774
0.4167092346
0.4193314328
0.4186395076
0.4179612502
0.4171601277
0.4160527301
0.4175328515
0.4156742547
0.4154846985
0.4135218168
0.4166597533
0.4198566457
0.4275341257
0.430105838
0.4160259925
0.4109394125
0.4136196987
0.4191098156
0.4191098156
)
;
    }
    procBoundary2to3
    {
        type            processor;
        value           nonuniform List<scalar> 
19
(
0.427476418
0.4212512101
0.4268687004
0.4196579636
0.4139609315
0.4122505832
0.4218158912
0.4142122775
0.4147335308
0.4143638337
0.4141951117
0.416308824
0.4195975804
0.41705217
0.4171543043
0.4122469754
0.4168341175
0.420312974
0.4050158722
)
;
    }
}


// ************************************************************************* //
