/*--------------------------------*- C++ -*----------------------------------*\
| =========                 |                                                 |
| \\      /  F ield         | OpenFOAM: The Open Source CFD Toolbox           |
|  \\    /   O peration     | Version:  2406                                  |
|   \\  /    A nd           | Website:  www.openfoam.com                      |
|    \\/     M anipulation  |                                                 |
\*---------------------------------------------------------------------------*/
FoamFile
{
    version     2.0;
    format      ascii;
    arch        "LSB;label=32;scalar=64";
    class       volScalarField;
    location    "0.009";
    object      internalE;
}
// * * * * * * * * * * * * * * * * * * * * * * * * * * * * * * * * * * * * * //

dimensions      [1 -1 -2 0 0 0 0];

internalField   nonuniform List<scalar> 
546
(
0.489988225
0.495222415
0.3045705673
0.3625436529
0.6759175001
0.2273244906
0.3133111875
0.2670215737
0.6221141568
0.7286990985
0.3280803579
0.2961122829
0.4060418259
0.4722176055
0.3522675525
0.2509861279
0.6301156603
0.2572320899
0.5905841668
0.8579275848
0.5473736058
0.6495808291
0.4070954899
0.3187142524
0.361373988
0.424649298
0.4481767609
0.265152752
0.3789672192
0.3891859213
0.5320782105
0.6341589591
0.3505844357
0.4728413173
0.3205751363
0.4414688336
0.5790741712
0.3658558292
0.2518365041
0.4546937596
0.4209772905
0.5495164575
0.2973029888
0.3734136667
0.5147609001
0.3197444067
0.2781653498
0.4837413349
0.8363419399
0.7721787172
0.1944307783
0.3266246824
0.1817698946
0.4450235771
0.1365971924
0.3820074301
0.7353685327
0.689457749
0.2847050426
0.4682317935
0.2718538001
0.5096094707
0.2343911868
0.4239957719
0.2914427636
0.2686121589
0.4444295611
0.2427826427
0.5178151345
0.3982382784
0.3126295432
0.9195015828
0.4831681805
0.250665976
0.2709073512
0.2826515904
0.2554577451
0.1940177608
0.3709297358
0.3956201034
0.3810616279
0.2294411045
0.469527064
0.4934679256
0.7245737145
0.5868091016
0.653898447
0.6264689312
0.4811977011
0.5339046499
0.2093438992
0.4345319955
0.2844221775
0.3044172582
0.3136258639
0.2506218176
0.588053817
0.4608715763
0.4901282654
0.9394437558
0.3960246517
0.347154458
0.5594328494
0.4109722412
0.3716176264
0.3381824042
0.2922457364
0.9041822207
0.3534089002
0.5501538361
0.1906919054
0.3289064615
0.2205004651
0.4385233846
0.6552421604
0.5115043756
0.2682169214
0.3026699277
0.4130637388
0.4054970603
0.1684306546
0.2434969244
0.2526697543
0.4905555244
0.2077600123
0.5411891073
0.5417420647
0.5448558374
0.1597542513
0.4656876779
0.3512285565
0.1974041266
0.1900321172
0.2395883903
0.4410734201
0.2043812403
0.1698089708
0.5232235357
0.4003473249
0.3361031185
0.3402141017
0.2217416405
0.3526306851
0.6633723282
0.1565779127
0.3082566898
0.3435779574
0.334698457
0.0730008874
0.5877399598
0.3737657363
0.3642280426
1.213017098
0.5962078407
0.2669066354
0.3363466484
0.4888486742
0.3623741958
0.8873637721
0.3326309503
0.2305664043
0.6429119767
0.6560742313
0.3380581474
0.3266824484
0.1503513177
0.3261034063
0.2605354169
0.5033395632
0.6277012248
0.2044731119
0.5301299449
0.5954288975
0.6020623327
0.4151523189
0.3059631745
0.5419359026
0.3486644306
0.800508332
0.2437661559
0.2069461471
0.1680615408
0.7561507416
0.2168821337
0.4445476099
0.3188261018
0.5303881631
0.2140739665
0.6466069168
0.2716666863
0.2634464261
0.4211043398
0.3082375122
0.6261425918
0.2746783537
0.4759629134
0.3652992358
0.3130546076
0.427271261
0.1608275439
0.2558798606
0.3002414413
0.4994929358
0.2988675682
0.302653259
0.6271746584
0.4419507849
0.2330285062
0.2532401873
0.35348443
0.5300541834
0.2875008603
0.4176830597
0.4405646369
0.4029544027
0.4126391939
0.2778135163
0.8059581655
0.1889785252
0.6705352316
0.3131023954
0.2213280684
0.5943801865
0.3197241351
0.4013109369
0.1419563098
0.2817519355
0.4223821198
0.6018373101
0.3816902541
0.5995636913
0.1624943315
0.1781704603
0.1577104657
0.58594533
0.3044725604
0.3200875774
0.08557076887
0.4666022797
0.7191638235
0.4094349585
0.4222703028
0.2506581094
0.458336398
0.2189733832
0.2919946946
0.2337497883
0.3429527055
0.358724481
0.4354495995
0.5918089697
0.1009945214
0.541434122
0.1424582991
0.3810598202
0.1078060124
0.2080825623
0.5537842604
0.7567370259
0.3993852108
0.2105812737
0.4110790088
0.7308263886
0.6202820648
0.50651544
0.5758642657
0.3986979628
0.5552447712
0.1344364208
0.3874142123
0.3145661743
0.2452673765
0.3725025569
0.7834410506
0.2745014486
0.8158253984
0.294338891
0.4726580843
0.2214443305
0.2807959969
0.3932741529
0.3029626676
0.5123147916
0.7346431949
0.2987753905
0.5513688422
0.2134633029
0.6852614654
0.5353770968
0.7231921224
0.4555572233
0.3297318696
0.2736043189
0.4189440023
0.4207962199
0.3460243674
0.4308024407
0.1021608106
0.2725975099
0.2246000961
0.3657383214
0.4921944582
0.4205280244
0.2735386497
0.2444958121
0.4685144364
0.5228727691
0.4440454848
0.5403886961
0.2421623657
0.4871770747
0.3290395313
0.262545479
0.4019564792
0.3616229453
0.5637354365
0.2899643719
0.391181763
0.6641105746
0.2008341094
0.2671855023
0.61151087
0.5280700003
0.2757955036
0.5245154769
0.4775998879
0.3505589585
0.3772103044
0.5352217297
0.3934466248
0.4419150443
0.1825952012
0.4205453426
0.3780956791
0.1714588024
0.4046295616
0.1195307579
0.3689513346
0.4251652549
0.5701465668
0.196884035
0.2679076735
0.571842484
0.454247318
0.3403387269
0.2551808192
0.4573488244
0.3755242125
0.4137539326
0.3731555498
0.5272453919
0.6608631454
0.4453480621
0.2413811095
0.5191165865
0.3442003254
0.5602313329
0.38978838
0.2858632257
0.6370690732
0.5128276098
0.2019942985
0.2938970873
0.3021297626
0.3858699004
0.4475048764
0.3407172078
0.7124509365
0.4500067386
0.1007099149
0.5660588402
0.4233979814
0.3332132595
0.392555054
0.2008593326
0.1885139954
0.3442962897
0.6210693339
0.696236114
0.5371454442
0.5079748333
0.5766461423
0.3858466898
0.8094926224
0.2310223411
0.4395973548
0.1495487048
0.3559075235
0.4107855893
0.6628909287
0.05283300532
0.1590507633
0.3234684847
0.2246304862
0.2851832369
0.5607458814
0.1947846212
0.275757004
0.5319788842
0.2601111755
0.3979323395
0.3039315068
0.3115715937
0.1565889655
0.4609966615
0.5611004319
0.4860370118
0.2473467133
0.7824730225
0.3814882556
0.2317941609
0.3467151176
0.3838531425
0.8617118804
0.8356066153
0.2944273429
0.376049264
0.2060890037
0.2180464796
0.5212395573
0.7640267972
0.3169746349
0.686044866
0.4393175258
0.4506619165
0.1256002588
0.9488642221
0.1914892471
0.6174283852
0.5658347875
0.2629993866
0.4771433382
0.3516830506
0.5743088964
0.4539985112
0.5412993919
0.5577273239
0.2667211945
0.3366235259
0.08994560358
0.3016508194
0.2796545217
0.2860953357
0.05680180014
0.2321990877
0.6964135967
0.3542035828
0.2063808534
0.1964978533
0.1267632401
0.5696422835
0.3188744594
0.3472938608
0.3576711511
0.1466391725
0.2987667028
0.3245453041
0.5022474589
0.3009377732
0.5189595403
0.7312945598
0.2374526022
0.3699387261
0.6404066772
0.552303813
0.5026812111
0.236983049
0.1905828104
0.7194187965
0.1649865771
0.1739183587
0.2061461163
0.3261119141
0.5637935548
0.3860348259
0.4454791926
0.7847586841
0.2916446886
0.541976265
0.4949069895
0.3078246447
0.3872344162
0.2369537881
0.5266137468
0.4570632037
0.1169015932
0.5566292139
0.311634749
0.2087558677
0.5218476766
0.1739911494
0.7855659274
0.3579218765
0.6370309505
0.2941255729
0.4231758366
0.3018553066
0.2905078514
0.8562222176
0.2381742496
0.2827403269
0.308261883
0.9550342587
0.4087457012
0.3725947132
0.2535526472
0.255104737
0.9623570622
0.3457811642
0.1593959186
0.3577322648
0.1870182056
0.3214520758
0.2259317283
0.272782551
0.1996108807
0.3988844712
0.5374215338
0.3994522171
0.1717118977
0.6761207888
0.2556613395
0.4936708175
0.5509357648
0.4826997153
0.6243484401
0.5407395388
0.6567656716
0.3956127313
0.3679280915
0.6944166102
0.1620928583
0.2968233257
0.3045500874
0.5524441314
0.5668644402
0.7576061412
0.3952710615
0.5903517245
0.4688451344
0.6629068688
0.2625265384
0.638525055
0.3053922624
0.06439351254
0.6515662658
)
;

boundaryField
{
    flow
    {
        type            zeroGradient;
    }
    obstacle
    {
        type            calculated;
        value           nonuniform List<scalar> 0();
    }
    frontAndBack
    {
        type            empty;
    }
    procBoundary2to0
    {
        type            processor;
        value           nonuniform List<scalar> 
31
(
0.2462413432
0.5820787336
0.5460163814
0.2643094643
0.4022261865
0.3892021244
0.4747988304
0.1968417543
0.1869322228
0.05773368114
0.2503691318
0.3148359693
0.6837896991
0.5713986432
0.2478949792
0.2085542316
0.439915656
0.2635156068
0.2234073855
0.3319843669
0.8494642714
0.3883236154
0.2780899207
0.3508916034
0.2599356243
0.3030366372
0.2212302195
0.4606877694
0.4465466387
0.2036274382
0.2036274382
)
;
    }
    procBoundary2to3
    {
        type            processor;
        value           nonuniform List<scalar> 
19
(
0.4150067999
0.4009471818
0.4997970874
0.456279364
0.7122354566
0.3343793936
0.2729802941
0.2177019344
0.1710470079
0.128897712
0.2596427877
0.5867222655
0.8192345461
0.2569861984
0.3960826363
0.8381470051
0.3538355597
0.5392614981
0.5011110628
)
;
    }
}


// ************************************************************************* //
