/*--------------------------------*- C++ -*----------------------------------*\
| =========                 |                                                 |
| \\      /  F ield         | OpenFOAM: The Open Source CFD Toolbox           |
|  \\    /   O peration     | Version:  2406                                  |
|   \\  /    A nd           | Website:  www.openfoam.com                      |
|    \\/     M anipulation  |                                                 |
\*---------------------------------------------------------------------------*/
FoamFile
{
    version     2.0;
    format      ascii;
    arch        "LSB;label=32;scalar=64";
    class       volScalarField;
    location    "0.009";
    object      linearKE;
}
// * * * * * * * * * * * * * * * * * * * * * * * * * * * * * * * * * * * * * //

dimensions      [1 -1 -2 0 0 0 0];

internalField   nonuniform List<scalar> 
546
(
4.74207189
7.187912411
6.120415993
7.853101144
12.3192617
5.777282329
6.531655952
8.333120437
8.672501152
9.886492171
6.021340205
9.328484991
6.387626294
7.492867398
9.601118807
7.24858334
7.975935609
7.241562726
9.286973096
12.80752731
5.539705389
8.826315605
8.486961053
8.808169733
4.28261882
9.190743443
9.043390087
3.328152859
9.528172547
5.253815201
9.823288767
9.580369155
7.396479127
6.540078942
4.439171482
8.244671717
11.20062105
7.092532644
5.354712146
8.081184775
4.901132389
7.689647091
7.213792969
5.512743982
8.91774868
4.62869583
12.45652108
6.636661701
10.24933761
9.269025659
5.489955156
8.847493328
6.963869572
7.230192307
2.729287949
9.62263939
14.96105835
7.479033931
6.695150379
8.869694128
6.469136962
8.84707042
9.362864371
10.31161237
7.573670117
2.88897637
3.376123012
6.925601744
8.017945092
9.34827455
6.559183006
6.50621233
10.00722332
4.358799901
4.991057537
7.181948145
7.968143473
4.583714656
6.286018307
6.813862023
7.767609012
3.54126336
8.74426529
12.01594156
7.704714084
9.103421132
12.39543445
4.74895168
7.503492967
15.53346871
5.070662598
7.146443661
5.572945097
6.585572734
8.956824584
4.645381711
8.743982553
13.03620628
7.269658361
11.76300269
5.644020128
8.230771798
9.34611478
7.650401286
10.44175623
5.931678206
6.685006027
13.18920104
5.993803644
14.43204584
11.59303463
6.08925526
8.887565582
7.486431601
9.468680826
6.615911007
8.196947049
5.112489956
7.592227696
7.598029076
5.543747032
7.138482965
11.06183256
12.18741053
4.448465333
9.253603701
7.457684052
6.635177594
3.275451388
5.957946731
4.756157345
3.955553562
3.878829369
5.634959493
10.44995584
7.305166198
7.304790061
11.69114952
6.843546089
6.102308003
5.52860197
5.284691033
9.035946341
7.954421797
6.055948902
7.847349718
5.850094084
7.703229262
6.687780889
10.75462586
12.26068657
8.045390024
10.91716649
9.633711324
5.583168142
6.038615262
10.0062459
6.318632894
10.13800118
6.970510907
7.557978406
11.4319717
8.662094043
7.875817755
9.054835751
7.148714177
8.024705389
3.293345193
7.893253469
9.397723862
6.665990643
8.931735873
12.68927992
13.17187783
7.467839668
10.29689811
10.57829688
12.08879984
12.97233582
4.745418324
4.709314103
6.520480342
11.60692376
5.649237317
11.40100868
8.002934253
8.839601458
9.777805297
13.67790157
8.723386783
5.730713161
9.205732667
6.175823651
10.97035678
6.529496108
8.640539533
8.884896785
5.50955795
9.826492951
4.893235817
4.709891088
7.014213903
8.774854742
6.206239015
6.305090051
10.30501377
11.2611278
9.294355376
4.226736513
6.56794214
10.21104548
7.868218227
7.003267539
4.066308528
7.703314354
9.38385779
7.866754693
9.013173863
3.250678405
9.033024098
7.454420283
7.400521419
7.326247304
8.118847398
7.931498053
6.541720861
5.089528417
6.188822251
10.46851418
8.240530698
9.284949827
4.73834549
5.159438324
7.383673306
11.12459008
7.705494382
5.146062168
2.886024059
6.844292435
12.67838308
4.840330973
6.777979018
5.441785495
8.57700687
5.533182941
5.084808387
2.348243274
7.385874074
6.217828694
5.675781053
10.02668711
6.552327939
11.10768618
2.059214739
6.394752114
1.94479354
7.056477098
9.560035176
15.37481065
14.65577356
5.747876863
7.584014441
11.04658943
8.991320303
9.625460243
10.20221878
10.89484007
7.707752436
3.610996371
7.583377366
6.394716423
7.472407575
10.08162394
9.511884749
12.0254264
12.85271378
3.525947994
10.99251064
4.031890508
7.593335881
5.070169474
9.541560376
12.44748989
9.065196821
5.160156643
8.923346277
2.661228705
14.50695089
10.80144782
12.08131375
9.691300066
4.704585517
6.384106453
5.340390851
4.901990186
6.905534785
12.42672833
3.635112622
4.574282139
7.811896327
5.42009669
8.04191765
5.017004269
4.521863565
6.748911806
6.843140299
11.6130989
9.091288293
6.702620887
4.366412341
8.512507803
7.499290856
6.804108794
9.107876106
10.54268507
9.442646058
5.45027852
7.153529747
9.800505586
6.740955086
4.577509296
8.705727341
9.407064986
8.692451913
7.830013684
6.603000527
8.405729013
7.526348755
10.48392845
12.67259101
10.06763211
5.295815436
6.126306696
6.135441565
6.559537539
6.199137907
6.686639867
7.444067937
6.961906722
7.026714534
6.187685167
5.673972285
11.64212712
9.283005309
8.084770308
5.312977459
6.020707977
3.040508163
6.47715642
6.150975271
8.029306512
9.591098747
7.095010946
6.903798985
9.262117039
6.112291793
12.44052942
9.702446184
9.394306016
10.44169422
6.021526809
5.613154931
8.333131012
5.188975703
7.214903827
8.191485896
9.004119958
10.16494414
7.805084603
4.052137744
8.071613311
8.684798253
5.619631114
6.835645426
6.634606025
5.776069243
8.356798663
11.09205375
13.41604706
5.757458601
8.088217288
13.96267433
8.543892909
9.104251518
6.678041215
7.579398226
5.292836728
10.96511697
5.476794341
8.577827809
0.5053970238
6.541717908
7.729849405
8.41129734
7.037056882
8.698365314
5.297520558
6.932410624
9.54064575
9.120276424
9.57756061
4.379824751
4.923708865
3.455259124
8.808499373
8.339239084
8.582124977
7.298453738
13.08333531
8.344647134
4.672191846
7.980959578
9.002115521
7.562228402
14.21879909
5.132847516
8.333218448
7.466520334
6.465589229
10.88567198
13.68352446
9.936404733
11.03624337
11.6492462
7.808946652
5.078150479
13.23056624
4.920815416
8.930567314
7.871822517
6.021129613
6.931475453
6.154255797
6.551044496
13.58984057
6.671988296
8.573438983
7.685508156
5.149656724
3.032111282
6.654740638
5.776358445
6.45019275
3.085609288
7.500540784
12.02062253
6.223468898
8.302353617
8.305826452
4.272582718
11.58650362
9.65424888
4.057735888
6.029808097
6.098323161
6.349200049
5.923974306
6.713859832
9.030837807
12.48784695
9.556434209
4.985063068
9.44081902
13.9700368
9.543163813
10.35687002
7.034495676
8.188070667
9.896415525
3.369010119
7.309983928
3.677024432
9.406305307
10.40580178
5.668501352
6.599073161
10.38240874
5.700665178
11.39012849
8.342424361
7.268370073
4.265987499
6.454032142
6.624935949
7.812141333
3.578371185
13.68398206
3.884644401
7.455158593
8.937996319
6.035334644
7.478989213
7.023073431
11.3379017
5.035563466
10.80191968
7.239320783
8.508344589
9.004505023
6.638558929
3.488490546
6.24842743
9.488717757
7.069075466
6.312753156
6.243615686
6.186774015
11.04488826
7.931290317
3.964885754
6.600948115
6.155268628
6.209792159
7.434307449
3.361235747
6.720880037
6.349903023
8.422029304
6.044465382
4.675995646
12.57506127
5.824626702
10.41287627
5.680893585
11.99924872
9.874921931
9.012298452
10.13945211
10.12569255
6.766320094
10.33463716
6.541894947
4.872076569
4.376877282
8.434894338
7.320380745
8.971399454
6.546912518
8.45826261
8.630577309
7.568440365
7.397668147
12.03995377
7.370301997
1.665311676
5.924726483
)
;

boundaryField
{
    flow
    {
        type            zeroGradient;
    }
    obstacle
    {
        type            calculated;
        value           nonuniform List<scalar> 0();
    }
    frontAndBack
    {
        type            empty;
    }
    procBoundary2to0
    {
        type            processor;
        value           nonuniform List<scalar> 
31
(
4.27205121
8.7565895
10.10253534
5.4730956
9.738203192
7.871852975
8.530570578
4.72918061
4.726529597
4.302350891
5.330895366
8.692066832
9.325260194
11.01533717
3.451607574
9.674006962
5.014808231
5.035258514
7.115688609
7.926577865
10.5666676
4.093640139
2.97622544
7.318909754
8.945911898
9.847217858
5.479014338
8.352010125
6.244970642
4.024208778
4.024208778
)
;
    }
    procBoundary2to3
    {
        type            processor;
        value           nonuniform List<scalar> 
19
(
5.873551257
6.191567921
6.227060703
12.14280806
11.61063299
7.457514138
5.533618402
7.587433964
4.995485077
2.542681151
5.180396223
5.710141974
19.67441094
6.45758564
6.825753192
10.50580262
9.882809632
10.41040494
5.392572916
)
;
    }
}


// ************************************************************************* //
