/*--------------------------------*- C++ -*----------------------------------*\
| =========                 |                                                 |
| \\      /  F ield         | OpenFOAM: The Open Source CFD Toolbox           |
|  \\    /   O peration     | Version:  2406                                  |
|   \\  /    A nd           | Website:  www.openfoam.com                      |
|    \\/     M anipulation  |                                                 |
\*---------------------------------------------------------------------------*/
FoamFile
{
    version     2.0;
    format      ascii;
    arch        "LSB;label=32;scalar=64";
    class       volScalarField;
    location    "0.009";
    object      linearKEMean;
}
// * * * * * * * * * * * * * * * * * * * * * * * * * * * * * * * * * * * * * //

dimensions      [1 -1 -2 0 0 0 0];

internalField   nonuniform List<scalar> 
546
(
5.870210578
7.886053645
7.890721332
7.824496022
7.830321384
7.826089504
7.843240013
7.812034556
7.797832741
7.867211464
7.897993812
7.957475811
7.937677519
7.87505135
7.872755803
7.857936546
7.861310266
7.849345114
7.786907205
7.784735388
5.917588901
7.9442143
7.912339193
7.937296111
7.929907839
7.898678872
7.881355879
7.890811413
7.845104249
7.824253067
7.837967427
7.820220997
7.835219954
7.83078717
7.840446007
7.829242936
7.836338178
7.886107692
7.912044744
7.918084276
5.86965469
7.872882302
7.8325892
7.805152752
7.823845484
7.874891781
7.897720231
7.898720229
7.90291867
7.908530514
7.864618578
7.866570338
7.804925
7.788707778
7.822349758
7.81946964
7.791548056
7.792898586
7.784815012
7.782026518
5.899639227
7.95456081
7.906553411
7.84867401
7.868870051
7.822202737
7.826505291
7.833974076
7.872563098
7.810295039
7.860490413
7.901125384
7.968606861
7.931055267
7.936846868
7.904495889
7.891573502
7.867874385
7.915326237
7.905441226
5.918020466
7.933851728
7.857556365
7.843556162
7.829375617
7.827021653
7.779059573
7.807364584
7.757915891
7.728228833
7.734679544
7.716168462
7.726237917
7.752544548
7.799862385
7.851277981
7.90013507
7.903666273
7.852709492
7.854776301
5.894857192
7.922777746
7.849907232
7.851358847
7.867331914
7.882933638
7.856404028
7.842862974
7.894249582
7.920508588
7.938691595
7.907274509
7.903907226
7.88082903
7.881645179
7.915643826
7.893397181
7.837442795
7.875657396
7.914849465
5.875073874
7.864718458
7.846930462
7.882802649
7.860839666
7.864474452
7.876449044
7.92664931
7.888858793
7.897805446
7.911761847
7.926487441
7.948827891
7.905457865
7.887932541
7.845476089
7.876335072
7.8582823
7.866940225
7.866757425
5.897730473
7.968911984
7.9352097
7.917242162
7.923544444
7.925260124
7.935869102
7.91005101
7.951743511
7.900533101
7.89396472
7.847706203
7.833657282
7.851811053
7.8589337
7.893874019
7.88147801
7.899044258
7.916110807
7.909438219
5.895753174
7.910292298
7.813016663
7.809294184
7.810766156
7.775446199
7.792372604
7.837538856
7.806275343
7.886355751
7.907218035
7.926022853
7.90740391
7.91254987
7.872888663
7.804573515
7.819691256
7.809085247
7.794427939
7.800659113
5.86927444
7.867694419
7.833362648
7.863594384
7.838899182
7.853780242
7.846650191
7.870623288
7.846805105
7.806742045
7.764017104
7.787310596
7.824440717
7.855704053
7.88198888
7.887661443
7.861275957
7.800373218
7.793450894
7.777415234
5.923838265
7.944998913
7.883340542
7.848985662
7.850956751
7.809700551
7.84275468
7.797692383
7.822361631
7.852244801
7.846124797
7.847013902
7.828330961
7.801805626
7.763336415
7.781067638
7.803574214
7.870951761
7.927413158
7.949702729
5.86877287
7.92322576
7.864819809
7.868933973
7.843176855
7.830040738
7.832551028
7.804868443
7.808138946
7.795953873
7.758749888
7.806500268
7.811170103
7.860583105
7.901580314
7.868494848
7.903549021
7.824648282
7.853348623
7.827801946
5.916159373
7.943822673
7.904254252
7.878209361
7.877610665
7.87775349
7.870385084
7.864012979
7.88596712
7.878407077
7.858952292
7.899410599
7.900855793
7.869847539
7.841085863
7.87491963
7.79854587
7.864579071
7.86019109
7.836882558
5.86811878
7.862188165
7.836651412
7.83620079
7.847420757
7.839413326
7.85681719
7.861033804
7.883361609
7.891553394
7.834286327
7.775353217
7.736389058
7.762324127
7.77434335
7.811450419
7.820944534
7.806613327
7.815147409
7.826300157
5.901278432
7.908987127
7.812348451
7.767561599
7.794818311
7.789521317
7.789262675
7.817394063
7.786299886
7.751623141
7.731931441
7.794104201
7.828835992
7.806567676
7.802465302
7.77523162
7.763440783
7.775116275
7.832671839
7.847216175
5.851594065
7.859313845
7.85914855
7.894999448
7.919606518
7.86053466
7.795456665
7.771670442
7.808336379
7.840177426
7.87016568
7.819355418
7.815893559
7.808944233
7.875202723
7.869083976
7.874072504
7.813705665
7.764276257
7.777259357
5.91207108
8.012821479
7.937508787
7.888507362
7.835242884
7.90942334
7.94970631
7.989695846
7.920041564
7.956968812
7.922827395
7.905730319
7.934080923
7.87742799
7.882711937
7.837760904
7.856710124
7.830695693
7.878930994
7.852256211
5.792343136
7.730738511
7.704551107
7.746914128
7.750482659
7.777928738
7.762917225
7.750368401
7.754441867
7.745276359
7.803074378
7.793223442
7.796488594
7.788106242
7.770120775
7.782818011
7.763227429
7.767972209
7.801253411
7.788742516
7.9262795
7.932346806
7.954469046
7.933401624
7.942715991
7.971877757
7.811536009
7.85292585
7.891944471
7.832675265
7.872213259
7.905975192
7.940554225
7.95531351
7.906483572
7.899774044
7.925620061
7.945644632
7.953171983
7.954930067
7.916603782
7.899966105
7.90451769
7.890738131
7.913957466
7.942956831
7.797298814
7.773302342
7.773635792
7.762752496
7.824608766
7.787831182
7.820578572
7.855902126
7.88514329
7.904830157
7.923826929
7.927138713
7.897733436
7.948125218
7.90719416
7.889065187
7.84856276
7.847624495
7.802627713
7.844863284
7.858877256
7.855850425
7.86041854
7.838103409
7.872282456
7.85490302
7.890254254
7.941137282
7.882258936
7.838580277
7.90294625
7.891123681
7.903046066
7.891428986
7.964907985
7.943636193
7.896176568
7.891385109
7.952994932
7.934944355
7.848473868
7.832486405
7.828195453
7.843490498
7.811992488
7.826339957
7.86073827
7.86919025
7.816661922
7.81996596
7.934026677
7.950739294
7.903736989
7.815087281
7.780586596
7.780413136
7.784681771
7.777832987
7.77722464
7.764257862
7.722441753
7.718919948
7.749159769
7.736732169
7.786548348
7.795537008
7.7985791
7.742753572
7.799951974
7.82652404
7.793625917
7.855360013
7.85808394
7.895634198
7.869076732
7.881282532
7.904243485
7.912432098
7.901481458
7.826112084
7.927210433
7.897544408
7.880454091
7.875017704
7.899605856
7.877910623
7.83543474
7.827707017
7.870140296
7.907156385
7.85552678
7.863217133
7.851514052
7.837088872
7.799982047
7.790323071
7.827841668
7.872411173
7.880007714
7.884077815
7.793140481
7.802474084
7.832238579
7.837475497
7.836212924
7.875371929
7.845098894
7.860236546
7.819338629
7.824248557
7.861927024
7.898667369
7.85333666
7.896081464
7.902970301
7.871843125
7.852752886
7.86160869
7.826918952
7.770177518
7.819903795
7.826492461
7.820533872
7.824851301
7.854911386
7.853915865
7.797354753
7.824847264
7.863773245
7.912126247
7.755538657
7.787808213
7.802392653
7.803843824
7.830647948
7.778211125
7.832894351
7.803213446
7.82701951
7.852376237
7.797644508
7.789683135
7.764024843
7.744852255
7.775965286
7.810725119
7.841406426
7.884852432
7.903391846
7.862470126
7.827252161
7.790441348
7.804539782
7.867218446
7.783342184
7.776482722
7.799762779
7.717462787
7.6781164
7.743187752
)
;

boundaryField
{
    flow
    {
        type            calculated;
        value           nonuniform List<scalar> 
48
(
5.870210578
5.917588901
5.86965469
5.899639227
5.918020466
5.894857192
5.875073874
5.897730473
5.895753174
5.86927444
5.923838265
5.86877287
5.916159373
5.86811878
5.901278432
5.851594065
5.91207108
5.792343136
5.792343136
7.730738511
7.704551107
7.746914128
7.750482659
7.777928738
7.762917225
7.750368401
7.754441867
7.745276359
7.803074378
7.793223442
7.796488594
7.788106242
7.770120775
7.782818011
7.763227429
7.767972209
7.801253411
7.788742516
7.827252161
7.790441348
7.804539782
7.867218446
7.783342184
7.776482722
7.799762779
7.717462787
7.6781164
7.743187752
)
;
    }
    obstacle
    {
        type            calculated;
        value           nonuniform List<scalar> 0();
    }
    frontAndBack
    {
        type            empty;
    }
    procBoundary2to0
    {
        type            processor;
        value           nonuniform List<scalar> 
31
(
5.888865413
7.913511222
7.858683604
7.815898719
7.838394546
7.808636443
7.872810377
7.917202965
7.94764695
7.925997117
7.861392806
7.81643753
7.839086734
7.865370944
7.855631278
7.872440671
7.874300968
7.867974614
7.910807162
7.905199948
7.851666604
7.820923318
7.801793062
7.84124561
7.924649752
7.934458779
7.884379122
7.853136612
7.82872637
7.902707892
7.902707892
)
;
    }
    procBoundary2to3
    {
        type            processor;
        value           nonuniform List<scalar> 
19
(
7.983867594
7.916779258
7.947852752
7.940482365
7.839331709
7.822227648
7.992369351
7.813908619
7.800014821
7.781599484
7.842934952
7.883757202
7.891579042
7.803243151
7.843161312
7.852742282
7.900050577
7.878286802
7.672055295
)
;
    }
}


// ************************************************************************* //
