/*--------------------------------*- C++ -*----------------------------------*\
| =========                 |                                                 |
| \\      /  F ield         | OpenFOAM: The Open Source CFD Toolbox           |
|  \\    /   O peration     | Version:  2406                                  |
|   \\  /    A nd           | Website:  www.openfoam.com                      |
|    \\/     M anipulation  |                                                 |
\*---------------------------------------------------------------------------*/
FoamFile
{
    version     2.0;
    format      ascii;
    arch        "LSB;label=32;scalar=64";
    class       volVectorField;
    location    "0.009";
    object      momentum;
}
// * * * * * * * * * * * * * * * * * * * * * * * * * * * * * * * * * * * * * //

dimensions      [1 -2 -1 0 0 0 0];

internalField   nonuniform List<vector> 
546
(
(0.005188833593 -3.534568466e-05 -0.0002891334327)
(0.007842954492 -0.0002839467422 0.0001743099683)
(0.007274761832 0.0003786177917 0.0003966593034)
(0.008495306938 -0.0003560830801 -0.0006893940834)
(0.01257197523 7.827838973e-05 -5.240482012e-05)
(0.006273917966 8.514816334e-05 -0.0001183111814)
(0.006960743325 -2.480494895e-05 0.0001427355088)
(0.008819991444 -0.0004132613028 -9.198906028e-05)
(0.009805961192 0.0002508131169 -0.00054328931)
(0.01051119108 -0.0004916991181 -1.613635209e-05)
(0.007047677447 0.0005738643795 0.000501115786)
(0.009939073123 -1.954787798e-05 0.0002943229685)
(0.007466810026 7.063342809e-05 0.0001840643146)
(0.007879052558 -0.0001900769438 -0.0002790513295)
(0.009580536257 0.001132234351 -0.000155882197)
(0.007362540738 0.0006452741996 0.0001518175855)
(0.009096158734 -0.0004298470502 0.0002041179704)
(0.007757707303 9.271608086e-05 -0.00056544324)
(0.00950280303 -0.0001269242594 0.0004346955599)
(0.01419162285 1.113748205e-05 -0.0001477970883)
(0.005970156364 5.651955742e-05 -0.0003511081609)
(0.009455177909 -0.0002478382668 -0.0001420836507)
(0.008828774126 0.0004421036293 0.0003378218861)
(0.009549551035 -0.0004158019679 -0.0003117318907)
(0.005200632433 0.0003085386412 -0.0002519807187)
(0.009610528284 -0.0008578354693 0.000507125515)
(0.009772891768 -0.001459596455 -0.000714973367)
(0.004003068116 -6.25903812e-05 -7.713835977e-05)
(0.009873257683 0.0003230535518 -0.0001523672342)
(0.005638744308 -0.0003717742051 -0.0003099957174)
(0.01050344069 -0.0006524795293 -0.0001219060546)
(0.009117816117 0.0001685615239 0.0004067878584)
(0.007327705306 -0.0005235388858 -0.0005136242608)
(0.00694628567 9.1157036e-05 -3.814083881e-05)
(0.004972793299 0.0001120976548 0.001106164745)
(0.008785355032 -0.0001938642626 -9.635682262e-05)
(0.01240936155 -0.0003849316204 -0.0008707347653)
(0.007754128029 0.0008330370358 -0.0001135715689)
(0.005419606267 3.116701488e-05 -0.0003873543516)
(0.008159442451 -0.0003683908257 -0.0003458122643)
(0.005619924074 0.0004305352025 1.721786873e-05)
(0.007960741037 -0.0006890809591 -0.0008445785302)
(0.007734910238 0.0006863336333 0.000192787317)
(0.00629490181 0.0002295330506 -0.0002516794942)
(0.008947283423 5.605569938e-05 -0.0003392259417)
(0.005011003413 0.0001063259559 3.662755466e-05)
(0.01294201515 -0.0005872123687 0.001124463224)
(0.006506849696 -5.321556056e-06 -0.0004754237395)
(0.01165390724 0.0001473590776 -0.0002540470594)
(0.01006381707 -0.0001636976735 0.0001069855377)
(0.005533677854 -0.0004837447099 0.0007319200769)
(0.00950840787 0.0005594708152 0.0006548913868)
(0.006877357014 -0.000508738863 -0.0001002077775)
(0.008139749038 -0.0003401708285 -0.0001007719133)
(0.003265205312 -0.0002440038166 -3.295757317e-06)
(0.01027403414 0.001201847397 -3.986099483e-05)
(0.01442308821 0.0003036415043 -0.0005841173859)
(0.00817892879 -0.0004772389222 -0.001219839599)
(0.007299752088 0.0003613542485 9.295897738e-05)
(0.008520415752 -0.0001986040669 2.006222496e-05)
(0.007009362557 -0.0004908501743 0.0004371287475)
(0.009029139782 -0.0007486638951 0.0002925947879)
(0.00989650476 0.0002714708654 -0.0001483726026)
(0.01083136595 -0.0001845959891 -0.0001863433915)
(0.008251038197 0.0006415235799 -0.0004891452471)
(0.003241093986 -0.0003655071815 -0.0001254058499)
(0.003596905658 0.0001281652468 0.0002067575197)
(0.007156252727 -4.073400748e-05 0.0002658126501)
(0.008407206041 0.0001512743279 -0.0007218116186)
(0.01010337002 0.0003210622536 -0.0001137404329)
(0.00740283223 0.0002208134075 -0.0001896443572)
(0.006456852477 -0.0007300304936 0.0001904494303)
(0.009970141636 0.0004377102899 0.0002816465381)
(0.004519297721 -0.0002723084607 3.280840695e-05)
(0.00575674336 2.985041454e-05 0.0001470749827)
(0.007366693924 1.63112462e-05 7.46052208e-05)
(0.008838594264 -8.10009953e-05 0.0001596517806)
(0.005416123245 -0.0005531037541 -0.0006482692256)
(0.006952818064 0.0005153276311 0.0006565839416)
(0.00750762237 5.503207353e-05 0.0003976545225)
(0.008073720543 4.258170684e-05 0.0004023265673)
(0.004017978277 -3.159291907e-05 0.0002034284262)
(0.008993996185 -0.0001589403915 -0.0008720877685)
(0.01247269334 -0.0002472343662 2.425261203e-05)
(0.008839928778 -0.0002126662274 0.0004799627498)
(0.009414824533 0.0004646790705 -0.000640619563)
(0.0123079333 -0.000136654719 4.085343455e-05)
(0.005489035192 -4.735461945e-05 -0.0002012409192)
(0.008267518853 -0.0005642873652 0.0004743372476)
(0.01572784072 0.0008139521852 -0.0005106295152)
(0.005222705601 -0.0004348695962 0.0003400705836)
(0.007595292108 0.0005009039391 -0.0006508913051)
(0.006031787371 0.000380439714 -0.000415594378)
(0.007371390346 -4.298793285e-05 -0.0007135500997)
(0.009622507946 -0.0001621661012 0.0008361891298)
(0.0047306255 0.0003477608261 -0.0002761448469)
(0.008986676805 0.000544337267 0.0003372610007)
(0.01356154813 -0.0004800462424 -0.0005358246389)
(0.008090152748 -0.0003533838268 0.0006884355674)
(0.01321978392 -0.0009468796497 0.0003830195489)
(0.005663844352 1.558590646e-05 -0.0001811697291)
(0.008724458178 -0.0002769216801 -7.808590366e-05)
(0.00957826367 0.0004400220638 1.230901583e-05)
(0.008559286117 0.0003658557827 0.0002202747595)
(0.01105722097 -0.0005833435756 -7.052102347e-05)
(0.006467147918 0.000965383574 -0.0004932536169)
(0.007232306045 0.0003120006222 0.000601904036)
(0.01409117381 -0.0004991748309 0.0005189532574)
(0.007004395832 -0.0001175236154 2.172987259e-05)
(0.01451542058 0.0003984270964 0.0008480968579)
(0.0108727967 0.0003193860784 0.001069222285)
(0.006263493096 0.000253091832 -0.0001415617706)
(0.008901366788 -0.000202309723 -0.0003128937762)
(0.007573566591 0.0003376329451 0.0009232177516)
(0.01018875659 -0.0004156398441 0.0001650862708)
(0.007107002929 -0.0003929689895 0.0003090372326)
(0.008750838006 -0.0004052659001 -0.0002677927612)
(0.004842686577 5.252769802e-05 -0.000476163423)
(0.007596538615 0.000192031927 -0.0006958812905)
(0.007997641722 -0.0004183805871 0.0002341670284)
(0.006319523878 -0.000274969398 0.000201059017)
(0.007303264706 -0.0002418860209 0.0002526638641)
(0.01040094526 0.0002491566962 -0.0002011459801)
(0.01257504434 -5.679927427e-05 0.0003325357552)
(0.004993131729 0.0002176875055 0.0001695202531)
(0.01002991826 0.0009784362009 5.268025853e-05)
(0.007921498205 -1.010555234e-05 0.0005419526204)
(0.007937323718 -0.0006732381503 -0.0007171408843)
(0.003959372874 0.0001574302315 -0.0001138608202)
(0.006646029729 3.45752324e-05 -0.0003024498842)
(0.005511044625 -0.0005591292703 -0.0004875845821)
(0.004675427285 -0.0007028311223 1.185244785e-05)
(0.003656015801 0.0001431107664 -0.0002465000277)
(0.006589454866 5.781893487e-05 -0.0008153479168)
(0.01112160173 0.0007917719076 0.0005310272177)
(0.007527162317 -0.0001684312603 -0.0005484392745)
(0.007154110053 -0.0006129559461 0.0003072701014)
(0.0120941942 -0.0002715706216 -0.0008015545897)
(0.007716939462 -5.953464065e-05 0.0003813514707)
(0.006521624748 0.0004160396847 -0.0002301240006)
(0.006367169638 -7.455208718e-05 0.0005155641656)
(0.005827830664 -0.0001387785273 -0.0005374380735)
(0.009550741236 -0.0003744852037 0.0001011901887)
(0.0084859075 -0.0003007693403 8.67047889e-05)
(0.006248316253 0.0001048163118 -0.0003211092335)
(0.008625750666 -0.0005214579765 -0.0004218985185)
(0.006125455812 -0.0005890051334 7.38819493e-05)
(0.008184788758 1.843489179e-05 0.0003049735456)
(0.006669728689 0.0001114886831 0.0003541307169)
(0.01230422068 0.00102868054 -0.00036437801)
(0.01218403535 -0.0001386618641 -0.00126945294)
(0.008135128318 0.0001357767433 -3.709156667e-05)
(0.01177469809 0.0002506037416 0.0004926996783)
(0.009911110845 0.0008513837729 0.0003523339283)
(0.006278423954 -0.0002424658798 -2.712907465e-05)
(0.006757510696 0.0004826052774 8.346690399e-05)
(0.01042187331 -0.0002136721231 -0.0006142747342)
(0.006704779611 -0.0003853596429 0.0001876273742)
(0.01105984271 0.0005481501201 -0.0009883227578)
(0.007641641826 -0.000142250876 9.648940396e-05)
(0.007433126452 8.552352492e-05 -0.00046850681)
(0.01132795533 -8.084815697e-05 0.0003882476108)
(0.009538093486 -0.0003482586484 -0.0003934355338)
(0.008153972838 4.245976001e-05 2.676282347e-05)
(0.008459276976 -0.0006268191431 -6.740906645e-05)
(0.007177320575 -4.989713983e-05 0.0005002849816)
(0.007601997936 -8.42566275e-06 -0.001020535877)
(0.003420813811 0.0001366224429 0.0005022491145)
(0.008482667755 0.0006249348003 -3.450333195e-05)
(0.009879369878 0.0004936683166 -9.381596861e-05)
(0.006974862587 1.897712908e-06 0.0002822013559)
(0.009951416327 0.0003633015399 0.000114321439)
(0.01299438673 -0.0003880647392 -0.0004381316025)
(0.0128261484 -0.0007855276054 0.0001803348772)
(0.007558248185 1.182008128e-05 8.549752812e-05)
(0.011349644 -0.0002107686353 0.000629853092)
(0.01045684726 -0.0004312337039 7.498950196e-05)
(0.01200529849 0.0002802577192 -0.0001935314868)
(0.01290491492 0.0005738411259 -1.289496822e-05)
(0.005084537198 0.0001069385858 0.0002233162393)
(0.005155962839 7.427406685e-05 0.0002701360308)
(0.006629419305 -2.317430768e-06 0.000371254333)
(0.01185644629 -0.00118474064 0.0009279193715)
(0.006512672005 0.0002856190506 0.0001577135239)
(0.0111715189 -0.0003320307892 -0.0002424934706)
(0.008719284927 -0.0006899382873 0.0005405240616)
(0.009421200985 -0.0005737518787 -0.0002602016392)
(0.009928739376 -0.0006539969473 -0.001059345871)
(0.0134454816 0.0003648755389 -4.530081959e-05)
(0.009646492868 0.0001381217862 -0.0006600791164)
(0.006731723694 -0.0002471961882 3.574968485e-05)
(0.009671451233 6.705430213e-05 -0.0005307221654)
(0.005908274227 0.0008779779566 0.0001474232694)
(0.01224547654 0.0003225918473 -0.0003442342716)
(0.006557243028 0.0001682252014 0.0002609166723)
(0.009957901293 -7.499537135e-05 -0.001405141745)
(0.008903295404 0.0004585951454 0.0009597831434)
(0.005473894604 1.12841806e-05 -0.0002627543809)
(0.01048072823 0.0001731321289 0.0001797341599)
(0.005367344113 2.982084147e-05 -2.903026804e-05)
(0.00519681782 -0.0002694637381 0.0002286291911)
(0.007554256642 -7.672155895e-05 -0.0007072582861)
(0.008433443164 -5.069691302e-07 0.0005583278855)
(0.006739491021 9.404096987e-09 -0.0003600117788)
(0.006806197267 -2.64018206e-05 -0.0001909369322)
(0.01117810936 6.446631566e-06 -0.0004880892683)
(0.01159667825 -0.0007990346884 -0.0005877918775)
(0.009468679554 -0.0006450887132 0.0003075411546)
(0.004482330804 -0.0002055075717 0.0003436987257)
(0.006911842334 0.00043320227 -7.23262857e-05)
(0.0115142195 -2.74997185e-05 -0.0005012907543)
(0.008226946353 0.000193058581 0.0003586115953)
(0.007068423464 -0.001173219863 -0.0008584895396)
(0.004690556106 0.0005699176174 -0.0003865616549)
(0.008391990969 -0.0001508383366 -0.0004506633975)
(0.009452668317 -0.0002683767116 0.0006386503148)
(0.007806381491 -0.0003117080074 0.0002282950973)
(0.009946177074 6.536713837e-05 5.596831404e-05)
(0.003248635065 -0.0006853567951 0.0004398110927)
(0.009006003156 0.000544652625 -0.0009151209908)
(0.007401098978 -0.0002361591567 -0.0005196481984)
(0.007928622314 0.0001188158716 -0.0001403379451)
(0.008163075089 -0.0003654325922 -0.0005005064066)
(0.00907826324 0.0004065689201 -0.0004781506468)
(0.0082403082 -0.0005035950346 0.0001053765639)
(0.006591455267 0.0001110953908 -0.0002806135046)
(0.00503878015 -6.124869967e-05 -0.0003177355218)
(0.006828414937 0.001055489713 0.0002771775683)
(0.01187892629 -0.0005627412208 -0.0003894712141)
(0.008681259276 -0.0007770320928 -0.0005843344603)
(0.00954243213 0.0001865934599 0.0001397044631)
(0.00531068 0.0004099754677 0.0002696807278)
(0.005401934117 0.000269541398 -0.0005928709201)
(0.007388968942 -0.0004032536097 4.235747189e-06)
(0.01142642732 -0.0005539953054 0.000401072949)
(0.008510126419 0.0008391259839 -0.000186390854)
(0.005160034875 0.0005061020614 -0.000262887352)
(0.00326432478 -0.0001829414195 0.0002263753589)
(0.006785907346 -0.000291898265 0.0001304634718)
(0.01321178594 -0.0009938607547 0.001016212288)
(0.005159674022 -0.0006978099468 -0.0007587013041)
(0.007488079485 -0.0002409752214 0.0001104480766)
(0.005497574154 -6.733040881e-05 -0.0002849793329)
(0.009104344479 -0.0001222591332 6.264851557e-05)
(0.006159559034 -0.000230041059 -0.0001224385846)
(0.005141632851 0.0001021161218 -0.0001078187417)
(0.00219878702 -9.738246738e-05 -0.0001483083178)
(0.007315953029 0.0005402712307 -0.0008502769911)
(0.007527789844 -9.749755439e-05 0.0007496303755)
(0.00663484919 6.302516699e-05 -0.0002991962001)
(0.01108359612 -9.528152993e-05 0.001045696067)
(0.007388168756 0.00083148299 -0.0002431896882)
(0.01157862833 -4.454319011e-05 -0.000427596588)
(0.002375967965 -0.0003201788402 -0.000409805226)
(0.007091893972 -0.0002330753524 -5.424217852e-05)
(0.00268413626 0.0005644548994 -0.0002456616104)
(0.007273633078 -0.0007270327695 0.0007341182499)
(0.01016320133 -7.879779878e-05 -0.0003383477672)
(0.01605088658 -7.961799013e-05 0.0001651107665)
(0.01435560303 -0.0002459555802 -0.001911169059)
(0.006060241732 0.0004004755444 -0.0007126012454)
(0.007583174533 0.0001180043644 0.0003601602082)
(0.01186161472 0.0001560178095 -5.370724665e-05)
(0.009352337064 -0.0007910134977 0.0003878570453)
(0.01056145263 -0.0001345906012 -0.0003985839314)
(0.01063094982 -0.0002798148568 0.0007032894616)
(0.01181900224 0.0001240556957 -0.000792381073)
(0.008087393539 8.041715384e-05 -3.910734594e-05)
(0.004133027361 -0.0002189118808 9.616419093e-07)
(0.007958239846 0.0004382740904 0.0004721779148)
(0.007127547338 0.0002869863791 -0.000444619185)
(0.00800193281 -0.000897469215 0.000135444756)
(0.01015111236 -0.0003962893371 0.0001501359743)
(0.01055023934 8.67516719e-05 -0.0005336541468)
(0.0122816112 -0.0002755004906 -0.001315914102)
(0.0138501083 -0.000437988128 3.795113418e-05)
(0.004139805251 0.0001379528511 0.0003296806891)
(0.01180931962 -0.0006383347839 0.0004086544821)
(0.004258865942 -7.076572909e-05 -0.0001777651438)
(0.008228976584 -0.0001967172638 2.834952875e-05)
(0.005766066456 -0.000161804132 -0.0004889279734)
(0.009938527698 -0.0004489900762 0.0002663943022)
(0.01214668496 -0.0001792537292 -0.0001287218019)
(0.009321466515 0.000308410057 -0.0002139675713)
(0.006029332193 -7.952059858e-05 -0.0004328814751)
(0.009378940854 -5.651870028e-05 0.0002603491848)
(0.003072438073 0.0004782814043 0.0002277466614)
(0.014924116 0.0007165069076 -1.270094239e-05)
(0.01101580191 -0.0003020865001 -0.0008017815227)
(0.01262414925 2.306145261e-05 0.0003049782612)
(0.009666727871 0.0001382162838 0.0001338434244)
(0.005163743216 -0.0004741353056 0.0002073434353)
(0.007147173721 -2.329340052e-05 -0.0005997638141)
(0.005905536121 -2.214086067e-05 -0.0003580216873)
(0.005782640197 0.0004482576938 -0.0004314587457)
(0.007216879316 0.0002425552693 0.0003846510676)
(0.01293959245 0.0003493969889 0.0001261538687)
(0.004059229241 0.0005625316862 -6.550554813e-05)
(0.005310734699 0.0002231960887 -0.0004131216465)
(0.008202777257 -0.00111840463 -9.54289441e-05)
(0.005526946932 -0.0002692025199 0.0001276806959)
(0.008278245499 -0.0003182440874 -5.656798171e-05)
(0.005655711663 2.923852631e-05 -0.0002158306196)
(0.005382092241 0.0006624128612 0.000486591322)
(0.007063791808 -0.0003545360578 -0.0001655513847)
(0.007163064851 0.0001771141128 -0.0002075615026)
(0.01213392422 0.0003045050206 -0.0004951971725)
(0.009640219164 0.0002719606147 0.0004931139686)
(0.007067890926 0.0002245655365 5.429343029e-05)
(0.004758889876 -5.112568592e-06 -0.0002901311623)
(0.009313872173 -0.0001685698577 -0.0007084448626)
(0.007950788676 0.0004112945882 9.564282392e-05)
(0.007889892533 -0.000637934124 -5.205858385e-05)
(0.01063507947 0.0001424206038 -0.0006483026146)
(0.01126310713 7.101868599e-05 -9.697508854e-05)
(0.01020477918 -0.0002882405289 0.0005538711078)
(0.006305446945 0.0003573890189 0.0005206095067)
(0.007311463215 -0.0002184130311 0.0007127584918)
(0.009826237955 0.00104177962 0.0003253649241)
(0.006442787332 -0.0005359387826 0.0004449022787)
(0.005097591587 -0.0003743008332 0.0001772340533)
(0.009108661425 0.0005424412197 -0.0001723961115)
(0.01007691381 -0.0001737326359 -0.0006947712559)
(0.00897879043 0.000360456138 0.0002666372461)
(0.008721605339 0.0001983133868 0.0002308777546)
(0.007022854505 2.073726622e-05 0.0001013636555)
(0.00802536141 0.0005938223956 -0.0001426756839)
(0.008203525605 -0.000113609339 0.000183531207)
(0.01068694701 -0.0002947159744 -0.001081787466)
(0.01290191792 -0.0001985528295 -0.0002201236145)
(0.01056912736 0.0002715058985 3.499016942e-05)
(0.005488893889 5.134662137e-05 -0.0001575804431)
(0.006221165256 0.0002330623004 -0.0008292391907)
(0.006790605062 4.83325022e-05 -0.0001878226205)
(0.006502597411 0.0004316741204 -0.0004098104607)
(0.007097733986 -2.767988128e-05 -0.0005024002824)
(0.007394244372 -0.0001486462021 0.0003172263999)
(0.007555972204 -0.0007449918688 0.0002257692031)
(0.007568139082 0.0002040869192 6.236921627e-05)
(0.007261592494 -2.451411113e-05 0.0002225052402)
(0.006306759798 -0.0003523149354 -0.0002449232986)
(0.006009836251 -0.0001283364251 0.0004740277412)
(0.0110656871 -0.0003144183335 0.001620907231)
(0.009345211542 -0.0002046791469 0.0004128332442)
(0.008676928823 -4.35789278e-05 0.0001228193019)
(0.005441638303 -0.0001473151016 0.0001176610456)
(0.006262834442 1.066445896e-05 0.0001325382167)
(0.003717154412 0.0003880730272 9.043887188e-05)
(0.006774046472 3.37824974e-05 -4.436437865e-05)
(0.006387222327 0.000544883084 -0.0002704345921)
(0.008613080533 0.0002325026459 -0.0002078186628)
(0.01031411524 -0.0001426354117 0.0005025305522)
(0.007469559656 0.0005214899649 -6.344430735e-05)
(0.007301227013 -0.0007150297869 -0.0002163601617)
(0.0096465299 0.0003974612318 -0.0003952155474)
(0.006142930429 0.0006605449151 8.030333517e-05)
(0.01271634236 0.0006809626799 0.0001871960067)
(0.01010280196 0.0002159467895 -3.401448038e-05)
(0.009898044009 0.0001438692127 -0.0003814940457)
(0.01034060415 3.198375968e-05 3.978469437e-05)
(0.006622238361 -0.000155452655 0.0007495803913)
(0.006272771377 -0.0005524124639 -3.780794685e-05)
(0.008489543728 0.000163773695 0.0003923209926)
(0.00616202748 0.00100736552 0.0001089363027)
(0.007921374351 -2.01251568e-05 3.290792148e-05)
(0.008827354964 -0.0001265566909 0.0003157510548)
(0.009582136627 -2.279464538e-06 -0.0001253092728)
(0.01128646447 0.0002761696523 -5.077998527e-05)
(0.008324637551 0.0001373688201 -0.0002339078413)
(0.004311236342 0.0002306212772 -0.0004706565142)
(0.008407508093 -1.545937763e-05 0.0005396021072)
(0.008780705111 2.189818821e-05 -0.0008378191565)
(0.005861051484 -0.0006866436073 0.0001070043283)
(0.007282935188 0.0005541208676 0.0004835145945)
(0.006762205389 0.0002801337899 0.0003503950495)
(0.006484142362 -0.0002488117344 -7.56320752e-05)
(0.008380966578 0.0005794341777 -0.0006551519382)
(0.01106730903 0.000989585451 -0.000126987086)
(0.01395480562 0.0001367619567 0.000294664692)
(0.006605577035 0.0002547667116 1.505948059e-06)
(0.008629960981 -0.0003353675091 -0.0003187690039)
(0.01454654729 7.907158547e-05 -0.0007521041753)
(0.009315179001 0.0005619114473 -2.008818325e-05)
(0.01016648683 -0.001131308795 0.001137070767)
(0.006320334508 0.0008225476089 0.0003141702739)
(0.008188907898 0.0003088420723 -0.0005290607455)
(0.006046157041 -0.0001014561138 0.000263813034)
(0.01062751569 8.772390887e-05 -0.0004916053881)
(0.006052476346 -0.0002351483807 0.0001245913434)
(0.008878775875 0.0004352970534 -2.703903133e-06)
(0.0007495137695 -0.0001114056244 -5.21791044e-05)
(0.006734164338 -5.841033711e-05 -0.0002778489594)
(0.007526116461 0.0004311216573 0.0002331857306)
(0.008278275544 -0.0002228602166 0.0005560217991)
(0.007976447924 -0.0004588534014 0.0003427674196)
(0.008939382559 -0.0001820535172 0.0002318695079)
(0.005973019218 -0.0001398391561 -5.203332477e-05)
(0.007250687669 0.0006852363193 0.0005353731616)
(0.01000748074 -9.461051861e-05 -0.001346252373)
(0.01016986883 -0.0001342146682 -6.529697386e-05)
(0.01028729407 -0.0004056263124 0.0007773095816)
(0.004614683964 0.0006558279908 -0.0001233353877)
(0.004910096713 0.0004527363665 -0.0001567980363)
(0.003619287709 -0.0005608617719 0.0001679304196)
(0.008709352667 -0.0003199055388 -0.0004296691524)
(0.009071823509 0.0006094228812 -0.0001234255406)
(0.00940650916 -0.0001798168918 0.0006011481481)
(0.007535711424 0.0001922577171 0.0001121469739)
(0.01367039272 0.0001503836043 0.0003186314842)
(0.008806961677 -9.009753216e-05 -0.001132176541)
(0.005132620206 0.0001647738525 -0.0005977635723)
(0.008811123823 8.494419046e-05 -1.358265933e-05)
(0.009889744255 -1.746450586e-05 -0.0002223727443)
(0.008526841629 0.0004484161807 -0.0002005428629)
(0.01378688214 -0.001168931842 0.0001466293364)
(0.00559473675 -2.790219139e-05 0.0004813522728)
(0.008331041526 -0.0003327901096 0.0007774882139)
(0.0083559922 -0.0003567371343 -0.0003051818375)
(0.007418640043 -0.0004906369341 0.000285577786)
(0.01080399809 0.000261838674 -0.0002151089572)
(0.01440338427 -0.001067064899 0.0009747118407)
(0.01071970034 0.001001885239 5.711201818e-05)
(0.0108323364 -6.16265208e-05 0.0002960773921)
(0.01190953038 0.001215640431 -0.0001392190456)
(0.008449445275 0.000740287247 0.0002811695623)
(0.005364674596 -0.0005251920009 -0.0001104749731)
(0.01372541069 2.250363664e-05 -0.001017604034)
(0.005278959059 -0.0003863045742 1.221479765e-05)
(0.01059966009 0.0001384347292 0.0001938824304)
(0.008773475876 -0.0003605539105 0.0004866940766)
(0.006766574996 -0.000113621607 0.0001208786985)
(0.007758693644 -0.000164947379 -9.050046543e-05)
(0.006291275039 -0.0002290944501 0.0007798465439)
(0.00706110603 7.743532564e-05 -0.0006909705899)
(0.01315270004 9.011464696e-05 9.781198923e-05)
(0.00735201722 -0.0003933283469 0.0001144951978)
(0.009183247796 -0.0003311960369 0.0005031228055)
(0.008004222226 4.139166701e-05 -0.0002025231264)
(0.005313926167 0.0003480542073 0.0003211777884)
(0.003777933394 -0.0002387529774 0.0002347525401)
(0.007485853526 -0.0006081794241 -0.0001571271285)
(0.006249443665 -0.0001956752092 -0.0002718242579)
(0.006726710041 4.395195632e-05 9.809805716e-05)
(0.003463292622 -0.000413976427 0.000100663666)
(0.007698757277 -0.0005563643173 -0.0001001953104)
(0.01220385422 -0.000384396459 -0.0001692164352)
(0.006760810606 -0.0004423035633 0.000193904041)
(0.008160101517 -0.0004156161465 0.000312795613)
(0.008993963101 -0.0003153086451 -0.000117546317)
(0.004407048881 0.0004101739048 -0.0002033173488)
(0.01289646221 0.0006091530799 -0.0004608503234)
(0.0093932072 -0.0002255143474 3.839092718e-05)
(0.004744417847 0.0008167245424 0.000325629424)
(0.006241461693 0.001117333194 0.0004360439757)
(0.006423187886 0.0004843208272 8.46972652e-06)
(0.007320592103 -4.233639107e-05 -0.0001511679452)
(0.006692711706 -0.0001132986465 -0.0002852794848)
(0.007465606803 0.0001201775696 0.0007915145906)
(0.009121749834 0.0007122890031 0.0003301095179)
(0.01278094137 0.0002895237671 0.001126280769)
(0.0104073652 -0.0005909665227 8.706809279e-05)
(0.005433307622 0.000302356184 0.000307866944)
(0.009589015341 0.0002263737268 0.0001072167178)
(0.01442497548 0.0002204124083 -0.000919355628)
(0.01051440396 -0.001119861052 0.0002275829183)
(0.01107068297 2.566073777e-05 -0.0001969342598)
(0.007692033108 0.0002589496005 -0.0001558708488)
(0.007907374543 -0.000314570979 0.000282615518)
(0.01079591324 -0.0008710587792 0.0001703632469)
(0.003952194529 0.000166832239 0.0002270933735)
(0.008290019189 -0.0001880603412 0.0002519571133)
(0.004541154967 0.0006782557513 -0.0001296156061)
(0.01049996256 0.0002082101698 -0.0004659577985)
(0.01153944036 -0.0009808225018 0.0002488294245)
(0.006180069398 0.0009271230469 -0.0001047738199)
(0.006903400359 -0.0003379388597 -0.001083181121)
(0.01096126087 -0.000245058713 -0.000436533017)
(0.006223638012 0.0001748864262 -0.0002246009432)
(0.01086288801 -0.0003418880942 0.0003477280956)
(0.008654206974 0.0002465156802 -0.0001679476023)
(0.006906649644 4.74940136e-06 0.000812182844)
(0.004450273331 -0.0001214391369 0.0004526954586)
(0.006658716719 -0.0006064401133 0.0003562590022)
(0.007226940357 0.0003731057463 8.677518911e-05)
(0.008153479252 0.0006427573252 0.0007513954348)
(0.003729695586 -0.0002902156355 -0.0004284189352)
(0.01475607171 -0.000280039342 0.0009643685848)
(0.004341041027 0.00032527778 -0.0002476569872)
(0.007404065432 5.468822569e-05 -0.0006859139313)
(0.0100975709 6.092203086e-05 0.0002785940684)
(0.006478577685 -0.0001425688591 8.019362532e-05)
(0.00840095925 2.696138608e-05 0.0007678935386)
(0.007603666208 -0.0001193254001 4.475583821e-05)
(0.01152450667 0.0005541098871 0.0002688445801)
(0.005410986606 -0.0002661487515 0.0001055998345)
(0.01075064689 0.0001334380986 0.0004985031081)
(0.007793248812 0.0001510534858 0.0002309934056)
(0.009001790371 0.000724357975 0.0005152945462)
(0.01024439596 -0.000395410368 0.000201348169)
(0.007070975242 0.000201758028 0.000604917054)
(0.003957717257 0.0002222045335 -0.0003064797153)
(0.006944684718 -0.0003302571753 -0.0005943217358)
(0.01107531889 -0.0001987365043 0.0008945077083)
(0.00777727607 7.7174024e-05 -0.0005490266595)
(0.007498135962 0.0003150499932 0.0002104801425)
(0.00668480507 1.999216427e-05 -0.0001373816022)
(0.006261686855 -0.0005791937724 -0.0004726404218)
(0.01220661965 0.001043260703 -6.626044302e-05)
(0.008634038771 -3.389496376e-05 0.0007810767105)
(0.004473141276 0.0002509462694 -2.814080348e-05)
(0.007129435592 0.0005833972915 -0.0004431434707)
(0.005903256774 0.0001236564746 0.0001563608597)
(0.007547873163 9.611704924e-06 -0.000787797454)
(0.008002185866 -0.0003971270254 -0.0002480583676)
(0.003654984144 0.0004042099944 -3.595374255e-05)
(0.007433554101 0.0002246841684 -0.0005773676772)
(0.006427526937 0.0004009391423 0.0002429957353)
(0.009420421153 -0.0004786017561 0.0005023410412)
(0.006731899207 1.319304667e-06 0.0004506253665)
(0.00515322013 0.000330926857 -0.0008294453453)
(0.01358639013 -0.0004770712643 -0.0001989893669)
(0.005853789846 -0.0002332278034 0.0001054015979)
(0.01097819959 -0.0004546124922 0.0002420298115)
(0.006510123289 0.000125549701 5.0435624e-05)
(0.01270801533 -0.000208705182 -0.000156935829)
(0.009840596505 -0.0004338018085 -0.000833888763)
(0.009979953574 0.0003723362521 3.757769576e-06)
(0.01101242182 0.0008118589674 0.0004070699197)
(0.009989858371 4.231107982e-05 -0.0001493687179)
(0.007421457699 0.0003812699019 0.0003930013083)
(0.01123192419 -0.0008490040678 0.0002543676696)
(0.007186130543 0.0003098749341 0.0005506181238)
(0.005286819459 -6.191973904e-05 -0.0005351474749)
(0.005192682555 0.0003153120518 -0.0002976841332)
(0.009100708433 -0.0006340417284 -2.328487512e-05)
(0.007958417188 -5.984247888e-05 -0.0006476555949)
(0.01047143978 -0.0002230554231 0.0002532731)
(0.007268784871 0.000202269969 0.0001104642222)
(0.00930976625 0.0008017004025 -0.000112528291)
(0.009069367157 0.000337533098 0.000258760212)
(0.008280390416 0.001275166929 0.0003977068682)
(0.008375093701 -0.000132009593 -0.0001147521569)
(0.01157797021 0.0003974728998 -0.0005795993466)
(0.008115038346 -0.0005578850456 0.0008216745988)
(0.001836284761 0.0001285990253 0.0001927878365)
(0.006502202193 0.000159082676 -0.0004716479067)
)
;

boundaryField
{
    flow
    {
        type            zeroGradient;
    }
    obstacle
    {
        type            calculated;
        value           nonuniform List<vector> 0();
    }
    frontAndBack
    {
        type            empty;
    }
    procBoundary2to0
    {
        type            processor;
        value           nonuniform List<vector> 
31
(
(0.004888567244 -0.0003288047002 0.000101009012)
(0.009017137986 -5.090171517e-05 0.0008538362853)
(0.01054098332 0.0002109846043 -0.0005629764132)
(0.005946273451 0.001205166754 -0.0003318631622)
(0.01022150576 -0.0002723482461 0.0002471857296)
(0.00803152083 0.000264021143 -0.0002297160437)
(0.009524850154 -6.36421815e-05 0.0002880478178)
(0.005040195932 -2.056787977e-05 -5.302387415e-05)
(0.004479797985 0.0003656883372 -0.0001379647715)
(0.004268735752 0.000439166998 -0.000771454751)
(0.006226854842 -0.000218948945 -0.0002877966464)
(0.008569696813 0.0002744750908 -0.0005931050857)
(0.009130358558 -0.0008604355862 5.069783721e-05)
(0.01184318103 -0.0002657575299 0.0001905428782)
(0.003985010132 -0.0001731183121 0.0001939115442)
(0.009932604912 -0.0004715727852 -0.0008740129094)
(0.005751675403 0.0005742119493 5.471652156e-05)
(0.005311831645 6.650763569e-05 0.0003805807299)
(0.006824532973 -0.0007145778679 0.000803043364)
(0.008857588228 -0.0002507375075 -0.0004645065436)
(0.01137619047 0.001026456184 0.0007240040976)
(0.004809340181 -0.0004387377977 0.0005272862391)
(0.003556093721 -0.0001437290452 -0.0004225258257)
(0.007827633562 0.000410123563 -0.000274069586)
(0.009690687484 -0.0006989590722 -0.0006681526971)
(0.009783179353 -1.127789588e-05 -0.0004003697144)
(0.005958621928 -0.0005658831019 0.0002081992804)
(0.009313379248 0.0008974815363 0.0001545910441)
(0.006072393548 0.0003643705367 0.0007822433561)
(0.00438282277 0.0001238278516 -0.0002047390162)
(0.00438282277 0.0001238278516 -0.0002047390162)
)
;
    }
    procBoundary2to3
    {
        type            processor;
        value           nonuniform List<vector> 
19
(
(0.006352582316 0.0005958278318 0.0001057942905)
(0.006576399191 0.0006526862903 -0.0002296387069)