/*--------------------------------*- C++ -*----------------------------------*\
| =========                 |                                                 |
| \\      /  F ield         | OpenFOAM: The Open Source CFD Toolbox           |
|  \\    /   O peration     | Version:  2406                                  |
|   \\  /    A nd           | Website:  www.openfoam.com                      |
|    \\/     M anipulation  |                                                 |
\*---------------------------------------------------------------------------*/
FoamFile
{
    version     2.0;
    format      ascii;
    arch        "LSB;label=32;scalar=64";
    class       volVectorField;
    location    "0.009";
    object      momentumMean;
}
// * * * * * * * * * * * * * * * * * * * * * * * * * * * * * * * * * * * * * //

dimensions      [1 -2 -1 0 0 0 0];

internalField   nonuniform List<vector> 
546
(
(0.006334263457 7.091951057e-06 3.345783006e-06)
(0.008332742465 1.725835739e-05 5.303626997e-06)
(0.008383366122 2.094114455e-05 1.058943596e-05)
(0.008316568307 1.385862846e-05 6.227003997e-06)
(0.00832005317 -3.888997274e-06 2.948293893e-06)
(0.008312960009 -1.409279718e-05 7.592465512e-06)
(0.008325547146 -8.563857441e-07 1.15273493e-05)
(0.008289688889 -3.583370035e-06 8.257598935e-06)
(0.008267092412 -9.926982358e-06 9.52164703e-06)
(0.008337515266 -1.154138368e-05 2.092018688e-06)
(0.00836709555 -1.269230471e-05 -1.227878678e-05)
(0.00842312411 7.252196584e-07 -1.29622955e-06)
(0.008401959826 7.249115952e-06 -3.207798419e-07)
(0.008342369498 1.063143501e-05 6.284067812e-06)
(0.008341993286 1.09934392e-05 1.374717814e-05)
(0.00832757915 9.037683264e-06 -1.585003608e-06)
(0.008334168343 3.027445333e-06 -9.027068979e-06)
(0.008318171455 -1.334298602e-06 -2.495891588e-06)
(0.00825519904 1.000609074e-05 -6.068196096e-06)
(0.008252641227 1.686871249e-05 -9.301476978e-06)
(0.006376944493 2.736403015e-06 1.222564559e-05)
(0.008371964842 -3.323378487e-07 1.486780279e-05)
(0.008382741751 7.045087256e-06 2.107453241e-05)
(0.008413116069 4.85359181e-06 1.130617058e-05)
(0.00841106033 1.21309293e-05 9.018441226e-06)
(0.008383745407 1.276563396e-05 4.522435591e-07)
(0.008360099747 -1.223102838e-05 -3.333926727e-06)
(0.008370423824 -1.978682287e-05 -1.237572737e-05)
(0.008323242695 -1.464547829e-05 -1.065681878e-05)
(0.008302047277 -5.227516821e-06 -1.762065204e-06)
(0.008314071714 3.504442091e-06 -3.731572305e-06)
(0.008294526447 1.064054093e-06 -9.323866744e-06)
(0.008311145727 -6.119235337e-07 -1.608595641e-05)
(0.00829659362 1.638738257e-06 -1.664930917e-05)
(0.008308606468 9.477793435e-06 -1.266462793e-05)
(0.008300655892 9.308705729e-06 1.509257303e-06)
(0.008309075247 1.24862742e-05 4.310976521e-06)
(0.00836460628 2.019947424e-05 1.512745367e-06)
(0.008393850627 9.3058054e-06 7.253202209e-06)
(0.008401001524 4.875962373e-06 9.359912772e-06)
(0.006324304544 3.301720996e-06 -1.564731832e-05)
(0.008298635917 1.466496321e-06 -2.154293574e-05)
(0.008303415677 -1.196022261e-05 -9.583368424e-06)
(0.008276331605 -1.771097796e-05 -6.517542752e-06)
(0.008287544965 -1.581230683e-05 2.713689518e-06)
(0.008333834484 -1.622271829e-05 6.30805567e-06)
(0.008368142257 8.137575364e-06 8.164373482e-07)
(0.008363865787 2.259673816e-05 4.944758105e-06)
(0.008369903213 2.367720383e-05 -2.132447437e-06)
(0.00838565901 1.480092966e-05 -4.201197134e-06)
(0.008340078275 1.594824599e-05 -7.624227376e-06)
(0.008341589089 1.360942275e-05 -3.490506131e-06)
(0.008289738326 7.041157224e-06 6.245752642e-06)
(0.008269208664 6.767105399e-06 5.139306529e-06)
(0.008298576314 4.136495457e-06 4.519642587e-06)
(0.008297325632 4.745468516e-06 -4.801011179e-06)
(0.008264631724 2.018941981e-07 -3.90967559e-06)
(0.008270245975 -4.824724593e-06 -2.853751034e-06)
(0.008254413316 -1.090708785e-06 2.115335667e-06)
(0.008252613191 -1.236723809e-05 -1.004689194e-05)
(0.006355106653 1.783371273e-06 1.049062593e-06)
(0.008378297921 -3.795491335e-06 5.381479836e-06)
(0.008374201754 4.351628736e-08 -3.612280401e-06)
(0.008317196693 2.673825613e-07 -1.088991734e-06)
(0.008340329144 -9.395772198e-07 -4.782111512e-07)
(0.008287873332 3.302120176e-06 1.048207688e-05)
(0.008295076959 -1.16179759e-05 6.986520832e-06)
(0.008305217771 -1.204313407e-05 3.060990225e-06)
(0.008344702509 -4.551642513e-06 5.432952582e-06)
(0.008283458151 2.523837113e-06 5.241094579e-06)
(0.008338601462 -1.881138658e-06 7.271292706e-06)
(0.008373110186 1.315703849e-06 1.406343511e-05)
(0.008440156909 1.912270243e-05 3.347018857e-06)
(0.0084043182 2.262155906e-05 6.461371373e-06)
(0.008406135214 2.145886685e-05 9.512123463e-06)
(0.008374143104 1.145634001e-05 8.530210736e-06)
(0.008357318459 1.233295786e-05 1.18855238e-05)
(0.008333006091 5.684136287e-06 7.835732767e-06)
(0.008387139465 -2.001558434e-06 2.601043439e-06)
(0.008374935883 -7.627524997e-06 8.469241405e-06)
(0.006373197007 -6.968584818e-06 -1.803697177e-06)
(0.008364685828 5.132437919e-06 6.656176473e-07)
(0.00833231419 7.860648188e-06 3.197847516e-06)
(0.008322632683 1.233778562e-06 -5.496099061e-06)
(0.008305044928 7.808073267e-06 -6.352701335e-06)
(0.0083093364 1.464742926e-05 -1.220750834e-05)
(0.008256841552 1.830846723e-05 -3.615259786e-06)
(0.008280844289 1.587748133e-05 1.090279981e-05)
(0.008227803276 -5.498153679e-07 1.131323072e-05)
(0.008190176779 2.822162121e-06 1.223896557e-05)
(0.008189115711 1.664243746e-05 6.521099612e-06)
(0.008172256023 5.756925138e-06 7.563563747e-06)
(0.008179909571 1.766400105e-07 6.268931425e-06)
(0.008211063082 -3.222543653e-06 3.454870165e-07)
(0.008270720806 -4.453361587e-06 -6.256541894e-06)
(0.008323394587 -1.236546763e-06 -2.018800708e-06)
(0.008374702129 -1.013859988e-05 2.900223816e-06)
(0.008379671547 -1.149326253e-05 4.081677553e-06)
(0.008330154007 -1.171614975e-05 4.281738471e-06)
(0.008331412556 6.351850375e-07 6.386047031e-06)
(0.006352794225 7.811383909e-06 4.371713094e-06)
(0.008351772069 1.321869264e-05 1.108424083e-06)
(0.00833078691 1.500232531e-05 5.040427607e-07)
(0.00833345349 2.854679586e-05 1.126483286e-05)
(0.008354290774 2.052727265e-05 1.54403009e-05)
(0.008366852681 1.847185603e-05 1.669150372e-05)
(0.008343190186 1.051973965e-05 1.441566331e-05)
(0.008327752985 2.854941696e-06 8.934168463e-07)
(0.008382644629 1.476983773e-05 5.472847109e-06)
(0.008407691959 -4.925469978e-06 4.201478082e-07)
(0.008430792555 -1.713488525e-05 4.289758022e-06)
(0.008397514798 -1.761080616e-05 -1.173909866e-06)
(0.008390714697 -1.927607238e-05 -7.152139709e-07)
(0.008357532832 -1.808188532e-05 6.055723814e-06)
(0.008352457561 -1.592428851e-05 6.070525791e-06)
(0.008388577134 -1.838798624e-05 2.548883259e-06)
(0.008368460208 -9.27611704e-06 -2.17900898e-06)
(0.008314837042 -1.708549101e-09 -3.355184466e-06)
(0.008358660046 6.315062997e-06 3.371124715e-06)
(0.008391097165 6.893791267e-07 -2.006474475e-06)
(0.006341039387 7.428198504e-06 6.851457339e-06)
(0.008301226341 1.274887636e-05 8.078525493e-06)
(0.008329662841 3.620714349e-06 8.247858383e-06)
(0.008362201973 1.189238173e-06 2.484439867e-06)
(0.0083395519 -5.319932354e-06 -2.678249182e-06)
(0.008343569687 -6.433708e-06 -2.031973231e-06)
(0.008357814337 -5.15731376e-06 -9.091095096e-07)
(0.008402984779 -2.144881441e-06 -2.04301747e-06)
(0.008363688734 1.432767215e-06 -2.22875161e-06)
(0.008383829651 -7.937376899e-07 7.530964382e-07)
(0.00839272418 4.05979858e-06 6.697897406e-06)
(0.008415883213 4.544957949e-06 1.650479376e-06)
(0.008441652172 2.984991891e-06 -5.901421826e-06)
(0.008399108739 1.31310183e-06 -6.082744892e-06)
(0.008387287655 -2.090430419e-06 5.543968671e-07)
(0.0083384432 1.932945773e-06 -6.655428538e-07)
(0.008377086744 -4.68215101e-06 3.217498792e-06)
(0.008348607737 -6.318719263e-06 4.574285897e-06)
(0.008356883015 -7.309753175e-06 3.644770336e-06)
(0.008354776871 -5.823469685e-06 -1.879598198e-06)
(0.006351985774 -6.144436132e-06 5.219938523e-06)
(0.008393991796 -1.522755509e-05 -3.903568446e-06)
(0.008408363991 -1.399449503e-05 -3.134998155e-06)
(0.008390903173 -8.320601871e-06 -5.176504637e-06)
(0.008395821979 -1.251202981e-05 4.714780058e-06)
(0.008399502587 -6.555519537e-06 -3.269715045e-06)
(0.008412723002 4.087181985e-06 -1.29621035e-05)
(0.0083905544 8.764087212e-06 -1.300778986e-05)
(0.008435223922 -6.565045446e-07 -1.509708631e-05)
(0.008376271391 1.065560341e-05 -1.25526637e-05)
(0.008369005124 1.201328735e-05 -1.41558606e-05)
(0.008327254489 3.594199908e-06 -1.949164332e-05)
(0.008317303006 -6.709965908e-07 -1.033681853e-05)
(0.008329313125 -4.768035794e-06 -1.417834512e-05)
(0.008339504794 -1.835318461e-06 -8.881916345e-06)
(0.008378406108 -6.844609334e-06 -1.110492191e-05)
(0.008358429514 -1.135387425e-05 -1.09877393e-05)
(0.008384000075 -6.519326627e-06 -1.89058917e-05)
(0.008408029788 -9.765819305e-06 -1.515673831e-05)
(0.008398197506 -6.206396671e-06 -1.306501023e-05)
(0.006355290883 -7.257901553e-06 -4.376006173e-06)
(0.00834579912 -1.627936998e-05 -7.177059751e-06)
(0.008296971447 -2.768061362e-05 -2.894367436e-06)
(0.00829784587 -1.887836428e-05 -1.350392227e-05)
(0.008302287579 8.236917856e-07 -1.024348161e-05)
(0.008262528501 8.035485174e-06 -3.281755487e-06)
(0.008277402404 4.194213703e-06 1.406273881e-06)
(0.008320294114 -9.15020534e-06 3.925129145e-06)
(0.008281188774 -3.011181732e-06 8.660098206e-06)
(0.008370581064 -9.657501893e-06 1.124149436e-06)
(0.008398042174 -1.024154032e-05 1.745704785e-06)
(0.008413833698 -5.261402481e-06 1.107561372e-05)
(0.008390899708 1.3667063e-06 1.583279564e-05)
(0.008397097307 6.435167556e-06 1.235784811e-05)
(0.008353176248 -1.854865952e-07 5.174262623e-06)
(0.008286295285 5.068342897e-06 -1.126204886e-06)
(0.008304124526 -4.038830393e-06 1.169062616e-06)
(0.008292831115 -1.144276467e-06 -2.28471285e-06)
(0.008269522995 3.030953051e-06 -3.780461218e-06)
(0.008268219719 8.668943602e-09 -3.40331211e-06)
(0.006329866457 -9.419608152e-09 1.127081226e-07)
(0.008296529999 6.848977356e-06 6.582711825e-06)
(0.008305576058 6.929578896e-06 2.420615115e-06)
(0.00833424785 -6.044303946e-06 5.343859274e-06)
(0.008302810988 -1.313494609e-05 1.282257503e-05)
(0.008327598134 -1.804150869e-05 1.502444015e-05)
(0.008318948598 -1.161016253e-05 1.661419403e-05)
(0.008345724514 -5.45988567e-06 5.512746219e-06)
(0.008316255744 -6.251602715e-06 4.602308444e-06)
(0.008272148735 -1.118752573e-05 2.106384872e-06)
(0.008232804061 -2.416627976e-06 1.676611547e-06)
(0.008250785158 5.395901789e-06 -4.30596954e-06)
(0.008297275372 -2.335829752e-07 -1.456405074e-05)
(0.008325367318 6.415981358e-06 -1.336228528e-05)
(0.00835173495 2.965196889e-06 -3.91074481e-06)
(0.008361342965 1.004410598e-05 -4.484367782e-06)
(0.008335602108 1.977201421e-05 -4.7051486e-06)
(0.008273557998 2.105403485e-05 2.446175825e-06)
(0.00826377765 1.696563617e-05 1.644032529e-06)
(0.008247101452 1.131254189e-05 -1.579125071e-06)
(0.006383022688 1.290639243e-06 2.189382631e-06)
(0.008371499874 -3.541409708e-06 9.999688181e-07)
(0.008351865311 4.657877725e-06 1.106349478e-05)
(0.008322672292 -1.021832438e-06 1.878420424e-05)
(0.008323213997 -2.699270581e-06 1.669086242e-06)
(0.008287265841 -9.662017842e-06 -2.830196637e-06)
(0.0083260637 -7.266896769e-06 -1.224727819e-06)
(0.008276348469 -4.439859102e-06 1.779731909e-06)
(0.00830364908 -2.326591134e-06 3.734530836e-06)
(0.008345183492 4.761490439e-06 4.453556152e-06)
(0.008336586975 -1.146721781e-06 3.434277878e-06)
(0.008338843023 -1.326082168e-06 7.234076101e-06)
(0.008322062986 3.881636635e-07 1.131103391e-05)
(0.008288981713 -7.429676987e-07 6.925243111e-06)
(0.008243563999 3.231447399e-06 2.402524001e-06)
(0.008259691134 7.176240239e-06 1.094598345e-05)
(0.008276380098 1.048825911e-05 5.300019297e-06)
(0.008348886673 4.36709107e-06 3.341626457e-06)
(0.008405874054 7.399792148e-06 5.159962504e-06)
(0.008428899888 1.217598332e-05 1.232248596e-05)
(0.006327802457 -1.402651486e-06 4.720039008e-06)
(0.008360815193 4.979426614e-06 4.667668181e-06)
(0.008350105605 -4.639909423e-06 -1.315516939e-05)
(0.008351942568 3.651820052e-06 -1.591138269e-05)
(0.008321610707 -1.694422794e-06 -1.118560297e-05)
(0.008302652174 -2.47806574e-06 -1.100735037e-05)
(0.008309053217 -5.525659324e-06 -1.119420608e-05)
(0.008276181256 -1.217453498e-05 -1.64045745e-05)
(0.008275333466 -1.010428637e-05 -9.374833312e-06)
(0.008264683179 -1.543886452e-06 -1.036384271e-05)
(0.008221949627 -3.632461418e-06 -1.988624974e-05)
(0.00826945423 -3.074167805e-08 -1.710993066e-05)
(0.008267657109 5.097495294e-06 -8.272888579e-06)
(0.008323178975 2.036062814e-06 1.734766993e-06)
(0.008374446653 1.120791526e-06 -1.450230006e-06)
(0.008340307253 -7.799075399e-06 -2.059564576e-06)
(0.008383451525 -5.694741785e-06 -4.218960428e-06)
(0.008303225239 -3.153708804e-06 3.803857971e-06)
(0.008330352561 -5.080363017e-06 -3.671976641e-07)
(0.008313303133 -5.826322155e-08 -9.767954328e-07)
(0.006367804656 2.266613095e-06 -1.5158019e-05)
(0.008366389384 -1.049699705e-06 -2.038742977e-05)
(0.008386577815 2.442611442e-06 -1.471960043e-05)
(0.008354667414 7.474606506e-06 -1.677404943e-05)
(0.008356807376 9.21783873e-06 -1.524943689e-05)
(0.008355287029 2.399130433e-06 -1.264348154e-05)
(0.008343741418 6.89338546e-06 -1.021814167e-05)
(0.008343632934 7.256477425e-06 -8.835359701e-06)
(0.008368611343 2.926429085e-06 -7.574959565e-06)
(0.008355255129 -1.303474964e-05 -6.390147394e-07)
(0.008339678131 -3.21393599e-06 2.979887713e-06)
(0.008378530678 -1.469634476e-05 5.693651639e-06)
(0.008376585374 -1.408899366e-05 -3.067973338e-06)
(0.008345293224 -5.035007133e-06 -5.98757773e-06)
(0.008314193165 -4.861726393e-06 -4.897267549e-06)
(0.008350065009 1.566738358e-06 -2.141017913e-06)
(0.008266268442 2.397225124e-06 -5.99226345e-06)
(0.008334101845 6.2849685e-06 -5.823716952e-06)
(0.008330770205 1.589211432e-05 -4.76904793e-06)
(0.008308106378 1.994082633e-05 4.5584022e-07)
(0.006333157118 5.180170834e-06 -1.623773624e-05)
(0.008286724588 8.171082832e-07 -1.402789638e-05)
(0.008306456726 -1.913343104e-06 -1.08228532e-05)
(0.008310540502 -1.521443283e-06 -8.961497731e-06)
(0.008323937213 -7.919033151e-06 -4.42881746e-06)
(0.008325223154 1.069453961e-05 -1.76853077e-06)
(0.008335316509 9.36209587e-06 6.321833201e-07)
(0.008350235327 1.427086694e-05 2.516184834e-06)
(0.008359367607 1.860670971e-06 -8.00397366e-06)
(0.008366156552 5.411970544e-06 -5.554923538e-06)
(0.008309038079 -1.366461776e-06 -1.552169651e-05)
(0.008251020666 8.228799377e-07 -1.380077762e-05)
(0.008214242039 3.067863071e-07 -1.926665341e-05)
(0.008248004131 2.849606336e-06 -1.01534873e-05)
(0.008256672246 8.173623781e-06 -5.935443228e-06)
(0.008296144844 8.960754334e-06 -6.28908098e-06)
(0.008303331727 1.523762204e-06 -7.634936247e-06)
(0.008282861219 1.777591887e-06 -1.258681835e-05)
(0.008285539789 -4.312059673e-06 -5.361904805e-06)
(0.008302002858 -5.574358539e-07 -1.326320745e-05)
(0.006367707113 -5.41333432e-06 -7.380569575e-06)
(0.008354790832 -3.933154625e-06 -7.672359261e-06)
(0.008306318622 -8.112422081e-06 -7.854240768e-06)
(0.008254799888 -1.470840233e-06 3.683117551e-08)
(0.008285524298 2.516394144e-06 2.085459705e-07)
(0.008276550915 5.864566515e-06 -1.810262024e-06)
(0.008272012769 -8.261660531e-06 2.384665381e-06)
(0.008300334968 -1.053267207e-05 3.760270434e-06)
(0.008269147274 4.690020876e-06 2.93821767e-06)
(0.008235721391 2.296945984e-05 8.484411029e-06)
(0.008219689802 2.445293844e-05 6.209590064e-06)
(0.008280756802 2.168194035e-05 2.400341989e-06)
(0.008316007735 1.470513866e-05 1.366364735e-05)
(0.008286431568 -3.020201794e-06 1.415799973e-05)
(0.008284343062 -1.248296528e-05 -3.735452701e-06)
(0.008256671101 -1.451027718e-05 -9.451941332e-06)
(0.008240343252 -1.435279667e-05 -3.647239719e-06)
(0.00826217411 -1.37979478e-05 -7.388358129e-06)
(0.008318833507 -1.952257433e-05 -1.945888346e-05)
(0.008336757435 -1.64465924e-05 -1.694406186e-05)
(0.00631075568 8.349788494e-06 -7.835125766e-06)
(0.008292425614 1.212666843e-05 -8.805082271e-06)
(0.008333121028 1.849671636e-05 -7.512402819e-06)
(0.008367641076 1.512886977e-05 -4.335169487e-06)
(0.008393634178 8.000116194e-06 -8.226984057e-06)
(0.008331399025 9.066332671e-06 -4.101958077e-06)
(0.008266794577 1.321769626e-05 -4.908425055e-06)
(0.00824222303 2.412728561e-05 -3.095266119e-06)
(0.008274641814 9.257939689e-06 -6.935328253e-06)
(0.008311939765 -6.763290515e-06 -9.266015247e-06)
(0.008335511855 -7.753507058e-06 -5.516205487e-06)
(0.008291476615 -3.535185853e-06 -1.658918074e-06)
(0.008285607249 1.019313113e-06 -1.597731511e-05)
(0.008288067709 6.56838207e-06 -1.371598678e-05)
(0.008357989725 4.649717554e-06 -1.079850774e-05)
(0.008349949742 -5.446362547e-06 -4.461035979e-06)
(0.008352657858 -1.098106883e-05 3.654208218e-06)
(0.008295650497 -1.068338716e-05 -2.28629327e-06)
(0.008242845714 8.573683704e-07 -6.335640204e-07)
(0.008254138065 -6.148185221e-06 3.855607043e-06)
(0.006374173955 7.959069974e-06 3.042020766e-07)
(0.008440385296 6.678797821e-06 -4.652323465e-06)
(0.008412677598 2.341592074e-06 -1.56372582e-05)
(0.008363509842 6.892481463e-06 -1.233101544e-05)
(0.008301469019 9.985340155e-06 -1.085394972e-05)
(0.008387173524 1.529783143e-05 -1.010728163e-05)
(0.008430544569 1.406427177e-05 -1.471129142e-05)
(0.008468005396 5.141815685e-06 -1.449163969e-05)
(0.008407527529 1.392718884e-05 -5.224376158e-06)
(0.00843951061 1.34395064e-05 -1.177149588e-06)
(0.008410888188 1.099733857e-06 -2.840415635e-06)
(0.008386831438 -4.844124554e-06 -5.880873963e-06)
(0.008416975986 -3.92142423e-06 -9.674987348e-06)
(0.008359805965 3.376621821e-06 -8.059381143e-06)
(0.008358676747 1.064545452e-06 -9.163772972e-06)
(0.008316732935 1.651680606e-05 -1.049884362e-05)
(0.008332324963 2.834752375e-05 -1.632747866e-05)
(0.008306525464 1.683560473e-05 -1.962156305e-06)
(0.008352424208 2.950207482e-06 -4.78006819e-06)
(0.008329565058 3.786084322e-06 -9.460729424e-06)
(0.006234427814 1.768597842e-05 -1.719805959e-06)
(0.008150438783 2.263245918e-05 2.11758183e-06)
(0.008174714557 3.12333448e-05 1.043458239e-05)
(0.008226830561 3.142876484e-05 4.148653621e-06)
(0.00822832654 3.191854339e-05 -5.259467225e-06)
(0.008246750771 3.185850141e-05 -9.082636296e-06)
(0.008238210502 2.841302352e-05 -5.403634259e-06)
(0.00823087276 2.889846787e-05 1.764260613e-06)
(0.008232591077 2.371765503e-05 -5.131488438e-06)
(0.008224846757 2.982122266e-05 -1.44502084e-05)
(0.008289924533 4.621212098e-05 -1.88266145e-05)
(0.008281581709 5.139677517e-05 -5.47627872e-06)
(0.008281555353 4.033457192e-05 1.59301503e-06)
(0.008271868624 3.224658626e-05 6.259607614e-06)
(0.008257847381 3.811808698e-05 4.625848157e-06)
(0.008268477294 3.849963345e-05 6.186224268e-06)
(0.008252187001 2.280180031e-05 6.35204953e-06)
(0.008261934922 2.995693322e-05 1.223422319e-06)
(0.008293515527 2.905566891e-05 2.90081213e-06)
(0.008276363131 3.292903068e-05 1.062763538e-05)
(0.008404565376 3.317728896e-05 -6.060484075e-06)
(0.008410030335 2.472675055e-05 -9.563543185e-06)
(0.008434977837 2.47086514e-05 -1.16772077e-05)
(0.00841139036 1.587140501e-05 -1.306243667e-05)
(0.008410596665 2.600792139e-05 -1.384963465e-05)
(0.008437415453 4.73559576e-05 -3.27965045e-06)
(0.008283240637 1.238462655e-05 -1.791472282e-06)
(0.008322955617 1.647427415e-05 -2.669077855e-06)
(0.008359603229 1.114761152e-05 -3.042925106e-06)
(0.008298576276 1.093141201e-05 -2.82147307e-06)
(0.008344228519 -9.868069138e-07 3.060637626e-06)
(0.008381274511 1.384390053e-06 1.093859038e-05)
(0.008420946324 8.638375145e-06 1.226269353e-05)
(0.008430416602 2.476278139e-05 1.264241882e-05)
(0.008381025005 2.816560242e-05 3.380365236e-06)
(0.008361074821 3.482157223e-05 1.201025505e-06)
(0.008408674221 3.680346421e-06 6.979314405e-06)
(0.00843237295 1.982846402e-06 1.116614151e-05)
(0.008449972676 2.422196393e-06 2.189556594e-05)
(0.008447194394 -9.340476561e-06 1.914168215e-05)
(0.008400514774 2.791628996e-07 1.146408199e-05)
(0.008377925449 1.573865168e-05 1.61413181e-05)
(0.008374309582 1.576284178e-05 1.10788639e-05)
(0.008358796214 2.684355296e-05 1.594680665e-05)
(0.008377345957 2.717411571e-05 1.766765691e-05)
(0.008420587761 3.51241052e-05 1.534927236e-05)
(0.008272540672 -1.015280023e-05 -8.620597853e-06)
(0.008246380396 -8.462892441e-06 -6.122666812e-06)
(0.00824117726 -7.19352797e-06 -6.66720825e-06)
(0.008227830512 -9.072247621e-06 -7.75799413e-06)
(0.008292675922 -1.504130614e-05 -5.119270577e-06)
(0.008255977411 -6.20396e-06 -1.223883047e-05)
(0.008285828582 -1.15171712e-06 -9.688286712e-06)
(0.008322823833 3.276216244e-08 -1.437598844e-05)
(0.008350378201 1.859518576e-06 -8.354468237e-06)
(0.00837904307 5.902676264e-06 -5.806986595e-06)
(0.008393938697 -1.299853536e-05 -7.312075755e-07)
(0.008393832208 -4.310913333e-06 -2.114699462e-06)
(0.008363142971 7.18202712e-06 -3.776582033e-06)
(0.008421953697 9.780274787e-06 -1.178585206e-05)
(0.008381219492 1.153112528e-05 -4.306685948e-06)
(0.008369447993 7.657181159e-06 -5.720170486e-06)
(0.00832760446 -7.224508263e-06 6.441346694e-06)
(0.008328256486 -1.258408099e-05 7.706219166e-06)
(0.008278545809 -6.433514581e-06 4.049336363e-06)
(0.008322357821 1.311127689e-06 -5.318669547e-06)
(0.008340990994 1.480124948e-06 1.668375856e-05)
(0.008337576892 8.751628298e-06 1.156385226e-05)
(0.008339544991 2.715160789e-06 1.157877608e-05)
(0.008311688711 4.240100599e-06 1.168887478e-05)
(0.008344254166 4.780930918e-06 3.423979015e-06)
(0.008324165174 -6.20048017e-06 7.553099948e-06)
(0.008364413898 6.872352307e-06 7.560868888e-06)
(0.008416869352 7.562063399e-06 4.6350133e-06)
(0.008361100927 3.25502239e-07 5.158396846e-06)
(0.008317256378 1.009289479e-05 7.7215135e-06)
(0.008374520505 7.145337277e-07 -8.182944477e-06)
(0.008360536617 -1.714715059e-06 -5.438347713e-06)
(0.008373592299 1.378581131e-06 -8.286437735e-06)
(0.008373681338 -8.11518818e-07 -1.811251014e-06)
(0.008454185617 -5.696848117e-06 -6.550591163e-08)
(0.008441063954 8.761095206e-06 -1.968984893e-06)
(0.008385508367 8.221247555e-06 -1.106081162e-05)
(0.008374900383 1.09956963e-05 -1.717079683e-05)
(0.00843762533 1.792730311e-05 -1.832186666e-05)
(0.008431409982 1.686780912e-05 -2.19691809e-05)
(0.008344762674 -1.684822688e-06 5.804371318e-06)
(0.008333675003 -6.781034448e-06 -3.46072308e-07)
(0.00832355279 -1.978935155e-05 -1.644038968e-06)
(0.008335651329 -1.095061827e-05 -8.456859421e-06)
(0.008299295332 -2.700057921e-06 -1.738544684e-05)
(0.008310768684 -5.238081911e-06 -1.764045302e-05)
(0.008343716551 -2.199598128e-06 -1.013342503e-05)
(0.008345998757 1.831313978e-06 -8.936661546e-06)
(0.008286191026 2.927226245e-06 -6.159388976e-06)
(0.008280089711 3.056159582e-06 1.016657564e-07)
(0.00842663586 -4.897772006e-07 -6.161444679e-06)
(0.008438008048 3.895500439e-06 -1.248020354e-05)
(0.008385555685 1.005666548e-05 -7.943909728e-07)
(0.008295155333 4.762969462e-06 1.358598492e-07)
(0.008246746689 8.322759525e-06 -1.079500318e-06)
(0.008253502672 1.534114087e-05 1.692814688e-06)
(0.008257268183 7.590468808e-06 -6.946946754e-06)
(0.008250032851 9.740478247e-06 -8.856570082e-06)
(0.008249692958 -6.615331703e-07 -1.483449903e-05)
(0.008248039706 -8.189896334e-06 -2.01421088e-05)
(0.00819215399 3.933110464e-06 -8.278338824e-06)
(0.008189727173 1.235384564e-05 -9.644192167e-06)
(0.008212319975 1.585856281e-05 -8.622092987e-06)
(0.008205655222 2.106626904e-05 -4.250234972e-06)
(0.008262851392 1.380055259e-05 -4.940558727e-06)
(0.008271922281 1.112693788e-05 -1.011951413e-05)
(0.008288512073 -1.554590475e-06 -3.369362151e-06)
(0.008226083062 6.425364852e-07 4.364889021e-06)
(0.008278773407 -1.164599602e-07 6.619391366e-06)
(0.008305219519 1.95838406e-06 2.297037186e-06)
(0.008256461101 9.965297103e-06 -5.306268911e-06)
(0.008321878118 9.672677786e-06 2.798204173e-06)
(0.008336787734 1.056778736e-05 -9.357904366e-06)
(0.008377164113 4.129387165e-06 -3.432627924e-06)
(0.008353513957 2.838356051e-07 -6.398090356e-06)
(0.008358476955 -6.601753993e-06 -5.261226321e-06)
(0.00838153133 5.004358869e-06 -7.302543027e-06)
(0.008389456003 5.258189497e-06 -1.374468887e-05)
(0.008378435303 1.386415855e-05 -6.180536828e-06)
(0.008301064704 2.02525546e-05 9.968371471e-06)
(0.008414162466 9.560914782e-06 1.047122998e-05)
(0.008383216864 -5.192460498e-06 4.186729521e-06)
(0.008354151355 -1.150160421e-05 4.555052337e-06)
(0.008342340285 -2.599994049e-06 4.615081532e-06)
(0.008369425501 1.007126473e-05 6.156620856e-06)
(0.008350625134 1.768068199e-05 6.201750998e-06)
(0.008307887521 6.128295837e-06 7.511803188e-06)
(0.008298191691 1.539524101e-05 2.015905114e-05)
(0.008346725861 1.165785184e-05 1.268469621e-05)
(0.008380629121 1.762379201e-05 9.849506673e-07)
(0.008336788987 4.05151178e-06 -9.054883325e-07)
(0.00834017864 1.514789657e-05 3.178216398e-06)
(0.00833941902 2.064259104e-05 3.00869375e-06)
(0.00832026609 1.755997964e-05 6.17392097e-06)
(0.008276616067 1.086654608e-05 1.145891406e-05)
(0.008266636598 3.256108659e-06 3.512873067e-06)
(0.008301998269 -1.589574276e-07 2.32660929e-06)
(0.008354693701 -3.501643597e-06 -5.764907875e-06)
(0.008359766331 -4.897719679e-06 -1.440936571e-05)
(0.008360791654 -9.504852926e-07 -2.321461505e-05)
(0.008261266847 1.254897721e-05 -6.31992399e-06)
(0.008275230631 8.208654447e-06 -9.041799308e-06)
(0.008299792579 2.271864666e-06 -1.115385188e-05)
(0.008313496674 4.442531871e-06 -1.841386193e-05)
(0.008306876697 -2.730339151e-06 -1.388317228e-05)
(0.008348428542 1.181964217e-06 -1.290966098e-05)
(0.008317458628 7.258574119e-06 -1.766886631e-05)
(0.008329891235 -2.089181912e-06 -1.750408336e-05)
(0.008284939991 -4.486295372e-06 -1.113543158e-05)
(0.008295929998 -1.751505622e-05 -2.23432014e-06)
(0.008334283173 -3.455336414e-06 -7.090602898e-06)
(0.008377891163 6.125768884e-07 -5.317203703e-06)
(0.008335735832 1.809796805e-06 2.270155965e-07)
(0.008380443042 7.06952093e-06 8.768471452e-07)
(0.008390281283 1.600360746e-05 3.057579393e-06)
(0.008362670076 1.487974887e-05 2.950974459e-06)
(0.00834272258 9.664242601e-06 9.039329063e-06)
(0.008343495041 1.24400266e-05 1.466591028e-05)
(0.008313429029 2.769565013e-05 1.478403693e-05)
(0.008249497783 2.489803023e-05 9.47887066e-06)
(0.008299835986 -7.197268852e-06 -8.953864795e-06)
(0.008308853944 -8.28609764e-07 -1.006591559e-05)
(0.008303574042 6.071554214e-06 -5.747828396e-06)
(0.008302801197 2.41488756e-06 -4.22690208e-06)
(0.008329514886 1.646650035e-06 2.233446498e-06)
(0.008324793395 6.935930842e-06 -1.41432309e-06)
(0.008273351858 2.36439481e-05 -1.243165016e-05)
(0.008300020182 2.999436306e-05 -1.368125847e-05)
(0.008353417101 2.133985663e-05 -1.414044053e-05)
(0.008399027891 1.01253112e-05 -8.235925199e-06)
(0.008234300506 -7.362664417e-06 -1.119929082e-05)
(0.008270040508 -1.300801058e-05 -4.86148979e-06)
(0.008282885064 -9.202811663e-06 -1.249460606e-05)
(0.008287594964 -5.695073055e-06 -1.385968468e-05)
(0.008309365116 2.862651505e-06 -1.745589672e-05)
(0.008262716232 6.902806886e-06 -3.403816283e-06)
(0.008318422636 5.654209304e-06 -7.282136843e-07)
(0.008295214787 -6.630818872e-06 -7.441120657e-06)
(0.008317626014 -9.717643149e-06 -9.39001535e-06)
(0.008340752936 9.336244122e-06 -4.778171666e-06)
(0.008285175202 8.359547416e-07 -4.272510992e-06)
(0.008279249829 -1.984492513e-07 -6.07720084e-06)
(0.008255555352 -1.096001977e-05 -1.008240472e-05)
(0.008236395052 -8.180299791e-06 -3.298156518e-06)
(0.008266312275 -9.967447707e-06 -8.300647516e-06)
(0.008303281787 -1.26745933e-05 -1.897975869e-05)
(0.008328973584 -1.235473657e-05 -9.570963218e-06)
(0.008375603155 -1.769510867e-05 -4.220635541e-06)
(0.008390210332 -1.252084929e-05 -4.087970167e-06)
(0.008346425232 -1.133801225e-05 -3.032596311e-06)
(0.008310824017 2.957254163e-05 8.167702848e-06)
(0.008263311856 3.583988832e-05 -3.687835812e-06)
(0.008275444028 2.940525335e-05 5.24311706e-06)
(0.008335694851 2.351422827e-05 8.192457571e-06)
(0.008244909199 2.056209191e-05 1.718992368e-06)
(0.00824191455 2.239735554e-05 1.254965409e-05)
(0.008265193439 1.809305622e-05 1.758318774e-05)
(0.00818178215 2.016251896e-05 1.020948891e-05)
(0.008146046463 2.896634585e-05 1.264423656e-05)
(0.008209903861 2.247382051e-05 1.024050842e-05)
)
;

boundaryField
{
    flow
    {
        type            calculated;
        value           nonuniform List<vector> 
48
(
(0.006334263457 7.091951057e-06 3.345783006e-06)
(0.006376944493 2.736403015e-06 1.222564559e-05)
(0.006324304544 3.301720996e-06 -1.564731832e-05)
(0.006355106653 1.783371273e-06 1.049062593e-06)
(0.006373197007 -6.968584818e-06 -1.803697177e-06)
(0.006352794225 7.811383909e-06 4.371713094e-06)
(0.006341039387 7.428198504e-06 6.851457339e-06)
(0.006351985774 -6.144436132e-06 5.219938523e-06)
(0.006355290883 -7.257901553e-06 -4.376006173e-06)
(0.006329866457 -9.419608152e-09 1.127081226e-07)
(0.006383022688 1.290639243e-06 2.189382631e-06)
(0.006327802457 -1.402651486e-06 4.720039008e-06)
(0.006367804656 2.266613095e-06 -1.5158019e-05)
(0.006333157118 5.180170834e-06 -1.623773624e-05)
(0.006367707113 -5.41333432e-06 -7.380569575e-06)
(0.00631075568 8.349788494e-06 -7.835125766e-06)
(0.006374173955 7.959069974e-06 3.042020766e-07)
(0.006234427814 1.768597842e-05 -1.719805959e-06)
(0.006234427814 1.768597842e-05 -1.719805959e-06)
(0.008150438783 2.263245918e-05 2.11758183e-06)
(0.008174714557 3.12333448e-05 1.043458239e-05)
(0.008226830561 3.142876484e-05 4.148653621e-06)
(0.00822832654 3.191854339e-05 -5.259467225e-06)
(0.008246750771 3.185850141e-05 -9.082636296e-06)
(0.008238210502 2.841302352e-05 -5.403634259e-06)
(0.00823087276 2.889846787e-05 1.764260613e-06)
(0.008232591077 2.371765503e-05 -5.131488438e-06)
(0.008224846757 2.982122266e-05 -1.44502084e-05)
(0.008289924533 4.621212098e-05 -1.88266145e-05)
(0.008281581709 5.139677517e-05 -5.47627872e-06)
(0.008281555353 4.033457192e-05 1.59301503e-06)
(0.008271868624 3.224658626e-05 6.259607614e-06)
(0.008257847381 3.811808698e-05 4.625848157e-06)
(0.008268477294 3.849963345e-05 6.186224268e-06)
(0.008252187001 2.280180031e-05 6.35204953e-06)
(0.008261934922 2.995693322e-05 1.223422319e-06)
(0.008293515527 2.905566891e-05 2.90081213e-06)
(0.008276363131 3.292903068e-05 1.062763538e-05)