/*--------------------------------*- C++ -*----------------------------------*\
| =========                 |                                                 |
| \\      /  F ield         | OpenFOAM: The Open Source CFD Toolbox           |
|  \\    /   O peration     | Version:  2406                                  |
|   \\  /    A nd           | Website:  www.openfoam.com                      |
|    \\/     M anipulation  |                                                 |
\*---------------------------------------------------------------------------*/
FoamFile
{
    version     2.0;
    format      ascii;
    arch        "LSB;label=32;scalar=64";
    class       volScalarField;
    location    "0.009";
    object      overallT;
}
// * * * * * * * * * * * * * * * * * * * * * * * * * * * * * * * * * * * * * //

dimensions      [1 2 -2 0 0 0 0];

internalField   nonuniform List<scalar> 
546
(
292.9765662
304.0098395
300.3320639
300.7645505
299.9908288
298.6180222
299.2828518
300.2467462
299.8340019
300.15477
301.125515
301.9595255
301.3172117
300.3612341
299.4478338
299.6634987
298.0900637
297.4139147
297.5218973
299.0243095
294.9874439
303.9063386
299.8961443
300.3176649
300.1123502
300.3123617
300.0902974
300.2407324
300.2757878
300.3796384
298.7808877
298.4467468
299.7676228
299.9152675
300.0875784
299.0202298
299.814276
301.0485289
300.315646
300.2636665
294.2026465
303.4960682
299.130624
299.7903387
302.167502
303.464031
302.6715537
302.6781226
301.202673
300.5810403
300.1408344
300.9263743
299.6048323
299.2476192
299.8969042
300.0793987
300.1671379
299.3812974
300.5357491
300.2703728
295.8183548
305.1089189
301.1269801
300.1370284
298.5483228
297.9171639
298.7588854
298.2804997
298.9067323
298.5419437
299.05806
299.7408854
300.7254255
301.1259775
300.8545529
300.5967699
300.2232778
301.5156066
302.6283193
300.9105109
294.4444207
304.2161266
301.0429186
301.8234547
300.7563999
300.9319478
299.4433196
299.1173153
300.5729387
300.0779219
299.8590786
298.952535
299.146394
300.0152962
300.0756583
302.1182396
302.1790912
301.8479103
300.3454952
301.0754972
295.2604511
304.9945982
299.1569956
298.8586124
299.2191253
299.0569038
299.3464524
300.1505579
299.5668402
300.8446216
301.0359559
300.7382582
301.2583214
301.497781
301.3126532
301.5808048
302.3342929
302.0719087
302.4896199
303.6435177
291.3013135
300.624321
297.3905254
299.3718477
300.2855911
300.2927072
301.4805661
301.7075052
300.993463
300.122036
300.4881099
299.4044637
299.6539317
298.946272
299.3308668
298.8332775
298.5245106
299.6776793
300.8259367
300.5532884
293.8019495
304.3039494
299.9525854
299.9535945
300.4223003
300.1751529
300.2830553
299.7117758
299.815147
300.5176783
300.355815
299.6896975
299.9250609
299.6490082
299.5536924
300.0896512
300.044225
299.4021859
299.6832809
300.4433795
295.78777
304.8641931
300.8876117
300.4675571
299.9433986
299.8704457
299.5278883
300.4073945
300.7638875
301.8767463
300.9876458
302.789256
302.5602309
302.3875338
301.404859
300.8865646
300.8248944
300.5332202
300.1661889
300.7455529
293.7769078
304.4904117
300.0660245
298.7946522
298.4195033
297.93091
298.3488932
299.8411736
300.9745624
300.1084052
300.0998787
300.0717257
299.0505137
299.9036098
301.0028738
300.2205035
300.216005
301.2253709
299.3899202
297.9591941
294.4005919
303.6336877
298.8998609
300.3435645
300.563684
301.7122438
300.0974856
298.2930131
298.6107103
298.9639279
298.6007626
298.5398018
298.8915893
299.0594612
297.3649468
297.8367651
299.5016989
298.6110498
299.8947401
300.5734519
294.0317343
303.5984391
298.6349561
300.020787
299.2223855
299.4558467
298.2038611
298.5513804
297.5498386
297.962574
297.5280376
298.1287574
298.4937197
299.7739761
300.2689382
300.0180869
300.4920812
300.9996146
300.7541888
300.1436845
294.9010904
304.2216856
299.9292253
301.0731106
301.256591
300.9825857
300.9846173
300.0157878
299.7377123
298.6571572
300.2893403
301.2128358
301.6636629
301.2640925
300.8882106
302.1991845
301.3767679
301.3674337
301.8843564
302.0064038
293.8106185
304.0681109
301.4188388
301.0788639
301.1799683
300.65104
301.3522642
302.8621015
303.4809457
303.9248685
300.4264975
299.7120274
298.8356862
299.0784902
299.3536285
298.8303419
298.4778414
298.9399947
298.5281464
299.1082476
297.379702
306.7629082
300.9338517
301.0641726
301.6153865
303.0143112
304.1029127
304.1057948
303.0370221
303.529974
303.4374327
303.1470028
302.6737698
302.0077414
300.6972411
299.9497448
301.4025277
302.1702204
301.7259084
300.1472829
293.7492111
302.8285091
298.9955377
301.4263799
301.3130073
300.3683069
300.3012936
298.7591363
298.2924571
299.6735044
300.7180708
300.5162961
300.7735966
301.9878245
301.1842833
300.6677132
300.4358574
299.1822933
298.352289
300.0993847
293.3961036
303.271438
300.4482307
298.8806494
298.3810763
298.835833
298.9177983
299.404113
300.0393611
300.2622355
300.0054868
300.1135152
300.849713
300.7604806
301.163414
300.7804225
299.7918501
299.8584404
300.0754827
298.2731252
295.3340827
302.4509412
299.0826958
298.6725599
297.8166957
298.4283495
298.7755365
298.944167
298.5878804
298.2810319
298.1643756
296.9968855
297.997902
296.2342155
296.0087526
295.7387922
297.0644785
297.8401886
296.4655496
297.3152721
304.7391547
306.7017621
305.2083313
305.8066381
310.2123579
312.7955922
300.16316
301.9536014
301.7633235
302.4312516
302.9632399
302.777129
304.0258608
307.1805254
306.0904636
308.9104573
299.5731361
300.2430374
300.2481977
300.8053698
303.1054504
304.5943723
304.6058654
305.354274
306.9677653
309.3902292
302.4786449
303.0713827
302.5400507
301.3015477
300.479619
300.7662112
301.5527499
303.1451892
304.762876
306.0581978
299.0264249
300.8720287
301.4033416
301.5128286
300.2551263
302.3647842
302.5318079
300.4236639
301.5976607
302.7348652
301.35197
300.8281048
301.1965063
301.2448764
301.485571
301.9038479
303.7334309
304.7895864
304.4286847
304.0749705
302.567814
302.5012459
301.4416664
302.3759705
303.2892171
301.2611433
301.4970879
300.4166434
301.3629132
301.0290335
301.6038686
301.5934768
302.3977489
300.0945379
300.5537017
301.1855357
300.2561016
301.882216
302.3323923
302.3268863
299.4575829
300.9120671
299.871624
299.8768585
301.6005378
300.4757594
301.5025152
301.7649464
301.7998583
301.2359391
300.0401495
300.5459739
301.5419262
299.7120957
300.1650204
300.5191794
299.7653186
300.6952044
302.1558585
301.6553769
298.8076185
299.8205478
300.8935652
302.4113693
300.3361926
301.289444
301.7234847
302.3982417
301.7062806
300.7424192
301.0354769
300.2591692
299.5348211
300.0070095
300.2317506
299.8946401
299.4073325
299.2172744
299.0164779
300.8354669
299.7250722
299.6967816
299.3159387
300.5635738
301.0037845
300.1228543
300.8605711
300.6392713
300.8772251
301.901412
302.3884092
302.4582227
303.5899342
302.0969598
301.938981
302.0096267
302.7993199
303.1745793
301.9817902
300.5717354
299.1245345
299.8096592
298.9161867
300.5376328
302.0256382
300.0715738
299.9755154
300.4577639
299.390449
300.3543241
299.4611536
300.0881941
300.4421325
299.3192802
298.9403262
299.417092
298.7953517
298.5119927
299.2487796
300.0337712
299.4121807
299.2068559
298.1730273
299.1787056
299.4152287
298.480303
299.9383179
300.2688599
300.3307735
300.481804
298.7607345
299.4443104
297.7963311
298.1025638
298.306308
299.1730659
300.237248
301.0796006
301.3852734
300.6137863
298.707535
297.462751
297.7198324
298.1684943
298.5688284
297.6443632
297.4710799
296.0051532
297.181922
298.069071
)
;

boundaryField
{
    flow
    {
        type            calculated;
        value           nonuniform List<scalar> 
48
(
292.9765662
294.9874439
294.2026465
295.8183548
294.4444207
295.2604511
291.3013135
293.8019495
295.78777
293.7769078
294.4005919
294.0317343
294.9010904
293.8106185
297.379702
293.7492111
293.3961036
295.3340827
295.3340827
302.4509412
299.0826958
298.6725599
297.8166957
298.4283495
298.7755365
298.944167
298.5878804
298.2810319
298.1643756
296.9968855
297.997902
296.2342155
296.0087526
295.7387922
297.0644785
297.8401886
296.4655496
297.3152721
298.707535
297.462751
297.7198324
298.1684943
298.5688284
297.6443632
297.4710799
296.0051532
297.181922
298.069071
)
;
    }
    obstacle
    {
        type            calculated;
        value           nonuniform List<scalar> 0();
    }
    frontAndBack
    {
        type            empty;
    }
    procBoundary2to0
    {
        type            processor;
        value           nonuniform List<scalar> 
31
(
294.171699
303.7351503
299.203768
300.1116801
299.6619179
300.131347
300.5136185
301.6620642
301.392704
300.5140651
300.8410064
300.2921111
301.0623082
301.6911675
302.3071003
300.7278651
300.0430179
301.8956283
301.7542595
301.3019151
304.4090881
306.3175291
309.3042679
314.6642187
318.6335286
321.0958053
299.0882061
299.6246763
301.1384283
303.2317279
303.2317279
)
;
    }
    procBoundary2to3
    {
        type            processor;
        value           nonuniform List<scalar> 
19
(
317.2448551
313.1683885
312.0316097
309.0275979
306.4085257
304.8048223
302.6666205
304.1116248
301.8014282
301.1763095
300.9148076
302.6243457
301.6356607
300.6434657
301.1545196
300.3393386
300.6496958
301.2061994
298.4204993
)
;
    }
}


// ************************************************************************* //
