/*--------------------------------*- C++ -*----------------------------------*\
| =========                 |                                                 |
| \\      /  F ield         | OpenFOAM: The Open Source CFD Toolbox           |
|  \\    /   O peration     | Version:  2406                                  |
|   \\  /    A nd           | Website:  www.openfoam.com                      |
|    \\/     M anipulation  |                                                 |
\*---------------------------------------------------------------------------*/
FoamFile
{
    version     2.0;
    format      ascii;
    arch        "LSB;label=32;scalar=64";
    class       volScalarField;
    location    "0.009";
    object      p;
}
// * * * * * * * * * * * * * * * * * * * * * * * * * * * * * * * * * * * * * //

dimensions      [1 -1 -2 0 0 0 0];

internalField   nonuniform List<scalar> 
546
(
0.3069354261
0.418658955
0.4150526751
0.4150734298
0.4142224712
0.41186677
0.4142606482
0.4145576334
0.4117197637
0.4159543833
0.4202196401
0.4224206521
0.4191583042
0.4154959412
0.4129982403
0.4139063319
0.4123920395
0.4101390206
0.4073856126
0.4095845748
0.3101736605
0.4201738248
0.413914857
0.4171205922
0.4181302658
0.418078781
0.4160814949
0.4168367492
0.4150164814
0.4141159286
0.4114227355
0.412527999
0.4144488299
0.4134349442
0.4136959531
0.4100023985
0.4104962846
0.4155757314
0.4165349745
0.4159096579
0.3101006235
0.418953907
0.41040416
0.4110843801
0.4128923028
0.4164716461
0.4166015829
0.4172785632
0.4153661096
0.4168180553
0.4147352872
0.4165050075
0.4126034413
0.4100340068
0.4132562555
0.4125502164
0.4113297679
0.4091002644
0.4083302846
0.4087429116
0.3128370569
0.4252306279
0.4174309561
0.4125494276
0.4111239019
0.4084323712
0.4083220965
0.4078087681
0.4110724286
0.407958585
0.4108227681
0.4126344591
0.4171885104
0.4161661728
0.4176262683
0.4177601015
0.4159094887
0.4186083825
0.4242798204
0.4202203788
0.3105315751
0.4222113893
0.4143330622
0.4155740937
0.412979837
0.4136019492
0.410017993
0.4114178963
0.4101427782
0.4058420452
0.4051412794
0.4029760478
0.40559837
0.4088978773
0.4126058189
0.4184399376
0.4219368814
0.4213636125
0.4174597612
0.4182105366
0.3117400936
0.4238100631
0.4124692079
0.4108432176
0.4132812169
0.4125654298
0.4106420561
0.4112420306
0.412427654
0.4168938819
0.4205102471
0.4178942617
0.4196021091
0.4177684515
0.4189876132
0.422469129
0.4225995163
0.4175216772
0.4211403922
0.4241879721
0.3077306293
0.4141978668
0.4104570956
0.4152323545
0.4146959628
0.4155924696
0.4170615776
0.420506705
0.4180319978
0.4182848872
0.4166775169
0.4165596419
0.4187380973
0.4144772122
0.4154424177
0.411824177
0.4146768437
0.4162497906
0.4177904832
0.4164468772
0.309231683
0.4236724701
0.417489304
0.4167403924
0.4170616769
0.4165716912
0.4192183144
0.4182278081
0.4198658621
0.4190667157
0.4183691799
0.4149676987
0.4129053121
0.4136043634
0.4134565976
0.4168480295
0.4152539555
0.4157712717
0.4184325646
0.4197651683
0.3122764518
0.4210154537
0.4107867277
0.4107460664
0.410703222
0.4098599169
0.4095572811
0.412601577
0.4128753615
0.4181093022
0.4191265899
0.4223815922
0.421629905
0.4219678398
0.4184145037
0.4141080112
0.4151852261
0.4145622737
0.4106065039
0.4119559923
0.308394174
0.4207419256
0.4143522883
0.4129607278
0.4115289777
0.4119284496
0.41158645
0.4153696177
0.4157292248
0.411382807
0.4088118508
0.4110207928
0.410550521
0.4148123438
0.4188429386
0.4177531994
0.4166425001
0.4142247647
0.4112420824
0.407491205
0.3144926488
0.4234904649
0.4120863463
0.4122721039
0.4133030129
0.4147975659
0.4139078982
0.4085477625
0.4097852741
0.4141107459
0.4131294697
0.4131747956
0.4151581521
0.4117644459
0.4064207698
0.4081677821
0.4110031331
0.4122696988
0.4158221715
0.4177782243
0.3069068296
0.4196296508
0.4114459084
0.4157019934
0.4121352956
0.4105387693
0.4110633125
0.4088615967
0.4079314665
0.4085965665
0.4057949776
0.407897223
0.4078945321
0.4137776889
0.417604129
0.4149762739
0.4183797517
0.4153860457
0.4173275466
0.416026996
0.3113032989
0.4218794072
0.4150784103
0.4147684874
0.4151393852
0.4136751711
0.4140016247
0.4139016951
0.4153707295
0.4119229051
0.4139172275
0.4182712485
0.4190038311
0.4148081108
0.4129390224
0.4168735722
0.4099802136
0.4141072604
0.414822308
0.4159037512
0.3071055163
0.4160387736
0.4117376086
0.4141803796
0.4147360524
0.4144184158
0.4155732465
0.4185091989
0.4198271181
0.42129568
0.4136534023
0.4092366097
0.4059942545
0.4101347014
0.4106537156
0.4117026974
0.4130731305
0.4099617012
0.4091239311
0.4099779202
0.3157858593
0.4272146569
0.4135178435
0.4093240117
0.4131426206
0.4147914953
0.4156342028
0.4191569275
0.4165359441
0.4153538154
0.4125140907
0.4159399388
0.4160175396
0.4122414954
0.4100912573
0.4091195293
0.4093358341
0.4128145054
0.4152343511
0.4125205913
0.3094480737
0.4183350073
0.4137876881
0.4204607012
0.4207790153
0.4147503689
0.411102133
0.4062306415
0.4059980803
0.4114839623
0.4137119932
0.4125153986
0.4121477561
0.4153654944
0.4181869054
0.4147856063
0.4142740798
0.4088260094
0.4069590711
0.4102619471
0.3110667252
0.4240963017
0.4159909608
0.4110942121
0.4065388814
0.4122722868
0.4161753488
0.4181190215
0.4171710467
0.4198182303
0.4180725846
0.4177884101
0.4199556782
0.4162783769
0.4160707941
0.4140521685
0.4131163892
0.4127539507
0.4156815768
0.4110060374
0.3055723815
0.4086559362
0.4033058215
0.4039745961
0.4011373648
0.4043342223
0.404894384
0.4056219115
0.4061417008
0.4067316679
0.4110899237
0.4071806508
0.409336256
0.406571917
0.4058976146
0.4075431903
0.4074955188
0.4099068653
0.4089387669
0.4072273672
0.4258192817
0.4300194237
0.4273280185
0.4285968631
0.4380922641
0.447866853
0.4143380481
0.4188613564
0.418341734
0.4166748254
0.4214718889
0.4222119842
0.4278733956
0.4358887555
0.4306288726
0.4347022257
0.4166022653
0.417814301
0.4201207783
0.4223821621
0.4242328583
0.4261117276
0.4257680344
0.426123025
0.4295784564
0.4364969384
0.4126509915
0.4145171883
0.4160349873
0.4118813257
0.4139779338
0.4132154204
0.4164237984
0.4207851093
0.4277289337
0.4326750371
0.4192202452
0.4224070181
0.4200301007
0.4234347082
0.4197756718
0.4230973109
0.4213244769
0.417986034
0.4190585623
0.4231862773
0.4193155218
0.4184443572
0.4181827513
0.4171335768
0.4182653394
0.4175630352
0.4242950084
0.427135673
0.4246786168
0.4224966589
0.4214149479
0.4195476382
0.4179458214
0.4217372374
0.4296823234
0.4246407849
0.4212018084
0.4198280108
0.4235141569
0.4226288691
0.4175444825
0.417355907
0.4196552175
0.415099305
0.4140546674
0.4145052147
0.4166152323
0.4203563147
0.4174003573
0.4171802413
0.4198145258
0.4228771909
0.4164324502
0.4116603083
0.4108314718
0.4112544575
0.4107841648
0.4119633792
0.4135581544
0.4134788993
0.4067752165
0.4088135683
0.4113387268
0.4065778096
0.4120562704
0.412376645
0.412274025
0.4111494984
0.4156202818
0.4144922462
0.4089989346
0.4136846272
0.4167237359
0.4210610444
0.4159486682
0.4173682415
0.4197887702
0.4204194179
0.4196424517
0.4147654138
0.4171256083
0.4160622058
0.4129340026
0.4135044353
0.4153802608
0.4147858515
0.4121290112
0.412789931
0.4148869927
0.4205036595
0.4159254069
0.4141491527
0.4144674906
0.4154447321
0.41409429
0.410644774
0.4130875378
0.414964317
0.4149635702
0.4156832144
0.4157428696
0.4173878888
0.4228552267
0.4205146705
0.4162465576
0.4193735528
0.417100214
0.4172138391
0.4120800394
0.4106744103
0.4111130605
0.4136393087
0.4095641706
0.4159926633
0.420201717
0.4139633418
0.4124506934
0.4155102116
0.4100376915
0.4076860395
0.4107107102
0.4117168794
0.4123237332
0.4094984513
0.411474395
0.4137650976
0.4105027962
0.4086331231
0.414786367
0.4184430916
0.4078424348
0.4092725246
0.4083279837
0.4105354323
0.4114651995
0.4069896679
0.4123436413
0.4131404238
0.4150642117
0.417064574
0.4086875755
0.4105345942
0.40715078
0.4063907628
0.4088413047
0.4124106571
0.415427527
0.4171816577
0.4194869188
0.4152364668
0.4117992713
0.4053894213
0.4058059827
0.4093579226
0.4058759304
0.4048422062
0.4051321182
0.399601643
0.398041836
0.4041107493
)
;

boundaryField
{
    flow
    {
        type            calculated;
        value           nonuniform List<scalar> 
48
(
0.3069354261
0.3101736605
0.3101006235
0.3128370569
0.3105315751
0.3117400936
0.3077306293
0.309231683
0.3122764518
0.308394174
0.3144926488
0.3069068296
0.3113032989
0.3071055163
0.3157858593
0.3094480737
0.3110667252
0.3055723815
0.3055723815
0.4086559362
0.4033058215
0.4039745961
0.4011373648
0.4043342223
0.404894384
0.4056219115
0.4061417008
0.4067316679
0.4110899237
0.4071806508
0.409336256
0.406571917
0.4058976146
0.4075431903
0.4074955188
0.4099068653
0.4089387669
0.4072273672
0.4117992713
0.4053894213
0.4058059827
0.4093579226
0.4058759304
0.4048422062
0.4051321182
0.399601643
0.398041836
0.4041107493
)
;
    }
    obstacle
    {
        type            calculated;
        value           nonuniform List<scalar> 0();
    }
    frontAndBack
    {
        type            empty;
    }
    procBoundary2to0
    {
        type            processor;
        value           nonuniform List<scalar> 
31
(
0.3100704199
0.4206114046
0.4117857362
0.4094008799
0.4092808033
0.4092667554
0.4140721638
0.418588962
0.4209214216
0.4187725972
0.415225214
0.413105209
0.4176555943
0.4189024516
0.4194052329
0.4156960279
0.4151601913
0.4187964337
0.4204082633
0.4196211033
0.4218056278
0.4253486263
0.4286348117
0.4441463317
0.4583932124
0.4637426839
0.4127563083
0.4140294133
0.4160842612
0.4229836374
0.4229836374
)
;
    }
    procBoundary2to3
    {
        type            processor;
        value           nonuniform List<scalar> 
19
(
0.4591639578
0.4456688633
0.4425619702
0.4403510156
0.429539544
0.4248368013
0.4292976129
0.4182921441
0.4159410847
0.4112292411
0.4156293633
0.4215350075
0.4179928639
0.4104969878
0.4130848542
0.4175001591
0.4205723218
0.4155896001
0.4019618872
)
;
    }
}


// ************************************************************************* //
