/*--------------------------------*- C++ -*----------------------------------*\
| =========                 |                                                 |
| \\      /  F ield         | OpenFOAM: The Open Source CFD Toolbox           |
|  \\    /   O peration     | Version:  2406                                  |
|   \\  /    A nd           | Website:  www.openfoam.com                      |
|    \\/     M anipulation  |                                                 |
\*---------------------------------------------------------------------------*/
FoamFile
{
    version     2.0;
    format      ascii;
    arch        "LSB;label=32;scalar=64";
    class       volScalarField;
    location    "0.009";
    object      rhoMMean;
}
// * * * * * * * * * * * * * * * * * * * * * * * * * * * * * * * * * * * * * //

dimensions      [1 -3 0 0 0 0 0];

internalField   nonuniform List<scalar> 
546
(
3.708353346e-06
4.783294235e-06
4.834892818e-06
4.801904697e-06
4.801180947e-06
4.793478523e-06
4.798969662e-06
4.778659913e-06
4.75923378e-06
4.798537366e-06
4.816444212e-06
4.843700515e-06
4.82922154e-06
4.798478307e-06
4.797096531e-06
4.791206327e-06
4.795051546e-06
4.782324992e-06
4.748472278e-06
4.749166869e-06
3.729193746e-06
4.79152731e-06
4.81870479e-06
4.840289815e-06
4.843827889e-06
4.833030564e-06
4.81529409e-06
4.82169134e-06
4.79584176e-06
4.784344151e-06
4.786415333e-06
4.776778127e-06
4.787894583e-06
4.77307116e-06
4.780756783e-06
4.775345947e-06
4.780833013e-06
4.816846609e-06
4.834261359e-06
4.837867519e-06
3.70034748e-06
4.753142794e-06
4.776715365e-06
4.764399493e-06
4.766714687e-06
4.789747211e-06
4.814218718e-06
4.809341865e-06
4.811614061e-06
4.827446393e-06
4.802006754e-06
4.804204941e-06
4.781495992e-06
4.766040971e-06
4.78075234e-06
4.780520686e-06
4.760167568e-06
4.763521061e-06
4.749882102e-06
4.750084596e-06
3.718649318e-06
4.796956058e-06
4.816164006e-06
4.784038627e-06
4.795871799e-06
4.763745679e-06
4.769079173e-06
4.7752911e-06
4.798411472e-06
4.766067538e-06
4.799135222e-06
4.813753189e-06
4.850764816e-06
4.833378484e-06
4.83308629e-06
4.817797939e-06
4.805163677e-06
4.795542161e-06
4.832052666e-06
4.820523306e-06
3.724874344e-06
4.791977519e-06
4.797331887e-06
4.79670191e-06
4.78327137e-06
4.790418196e-06
4.758198675e-06
4.768462156e-06
4.738884365e-06
4.710968185e-06
4.704801478e-06
4.695488957e-06
4.700229039e-06
4.721928848e-06
4.762938525e-06
4.795304953e-06
4.82548023e-06
4.828293815e-06
4.801178355e-06
4.801996248e-06
3.718098163e-06
4.786034921e-06
4.798802622e-06
4.79934253e-06
4.815156949e-06
4.818558624e-06
4.806968353e-06
4.798746155e-06
4.829079447e-06
4.844940567e-06
4.863115262e-06
4.843019995e-06
4.839124743e-06
4.814379695e-06
4.809200513e-06
4.831718585e-06
4.823420156e-06
4.793717212e-06
4.822457347e-06
4.836838847e-06
3.713775428e-06
4.756770337e-06
4.797470278e-06
4.815900231e-06
4.803848875e-06
4.806958726e-06
4.816885164e-06
4.839037404e-06
4.81638108e-06
4.833902701e-06
4.833288044e-06
4.85007726e-06
4.867111969e-06
4.842638981e-06
4.841626741e-06
4.809915746e-06
4.836815612e-06
4.81754231e-06
4.822866409e-06
4.819213919e-06
3.712611097e-06
4.804000456e-06
4.836573082e-06
4.827624912e-06
4.829437503e-06
4.832041558e-06
4.842869154e-06
4.833479291e-06
4.858902499e-06
4.824177647e-06
4.819476352e-06
4.798693159e-06
4.794480627e-06
4.796971378e-06
4.803828973e-06
4.828841869e-06
4.812472221e-06
4.830798265e-06
4.849808533e-06
4.844228065e-06
3.720957708e-06
4.784646851e-06
4.782692305e-06
4.786119066e-06
4.790191125e-06
4.766982905e-06
4.772573139e-06
4.795046362e-06
4.771012335e-06
4.826069061e-06
4.844882018e-06
4.853838102e-06
4.839027268e-06
4.843085857e-06
4.815252573e-06
4.779255408e-06
4.790838644e-06
4.784245195e-06
4.76317203e-06
4.758881046e-06
3.705340969e-06
4.755871262e-06
4.782600755e-06
4.794193988e-06
4.772969473e-06
4.792048056e-06
4.786466107e-06
4.805140812e-06
4.787356157e-06
4.758813332e-06
4.739265378e-06
4.746729715e-06
4.775188534e-06
4.791048544e-06
4.807978372e-06
4.814204138e-06
4.80097276e-06
4.767507123e-06
4.757853856e-06
4.745542797e-06
3.736449294e-06
4.793727348e-06
4.800534909e-06
4.78988213e-06
4.79020052e-06
4.777658179e-06
4.799530583e-06
4.766819706e-06
4.783132146e-06
4.815473118e-06
4.808646164e-06
4.810705359e-06
4.805770558e-06
4.781858723e-06
4.749731863e-06
4.758294067e-06
4.765405809e-06
4.805479846e-06
4.83720542e-06
4.850901956e-06
3.701743095e-06
4.791977889e-06
4.810141846e-06
4.813771101e-06
4.792358671e-06
4.777650264e-06
4.783878992e-06
4.762210193e-06
4.75813184e-06
4.754596727e-06
4.727295205e-06
4.75242881e-06
4.747265689e-06
4.784261996e-06
4.819909389e-06
4.799923955e-06
4.82974909e-06
4.786704935e-06
4.800841914e-06
4.796869691e-06
3.720650565e-06
4.787091641e-06
4.829608616e-06
4.80983049e-06
4.81305957e-06
4.809747224e-06
4.801662167e-06
4.805660587e-06
4.821325878e-06
4.80753668e-06
4.804470567e-06
4.8267319e-06
4.824258321e-06
4.804600164e-06
4.785997246e-06
4.808782796e-06
4.756074126e-06
4.794513119e-06
4.794308773e-06
4.784747797e-06
3.708688167e-06
4.743628658e-06
4.778841533e-06
4.786267084e-06
4.794808043e-06
4.801296473e-06
4.802516022e-06
4.819856023e-06
4.816842166e-06
4.820688495e-06
4.785293259e-06
4.753162697e-06
4.733434743e-06
4.75923614e-06
4.761754939e-06
4.783648218e-06
4.78698602e-06
4.769820095e-06
4.766408654e-06
4.778826953e-06
3.735332404e-06
4.801941262e-06
4.796605175e-06
4.762773706e-06
4.783896904e-06
4.778717722e-06
4.774495563e-06
4.791970854e-06
4.774060304e-06
4.75744035e-06
4.749220744e-06
4.781698116e-06
4.799320915e-06
4.776237848e-06
4.774410307e-06
4.759646683e-06
4.748868751e-06
4.769757703e-06
4.799270141e-06
4.807546816e-06
3.696180539e-06
4.754310088e-06
4.796685849e-06
4.819293251e-06
4.833218479e-06
4.794721306e-06
4.75985251e-06
4.742512879e-06
4.755285764e-06
4.782565301e-06
4.792048565e-06
4.773822217e-06
4.769010349e-06
4.779661277e-06
4.819045166e-06
4.810446999e-06
4.809753519e-06
4.778713649e-06
4.748815246e-06
4.756500869e-06
3.730637543e-06
4.828744023e-06
4.838529988e-06
4.809528669e-06
4.768890009e-06
4.824089429e-06
4.85120785e-06
4.869757773e-06
4.845350879e-06
4.860323061e-06
4.848257865e-06
4.831607271e-06
4.849682639e-06
4.81775346e-06
4.812739837e-06
4.792259345e-06
4.79676444e-06
4.783889128e-06
4.807656279e-06
4.794374127e-06
3.643468167e-06
4.666511614e-06
4.706399957e-06
4.738986051e-06
4.735523837e-06
4.741733542e-06
4.742382172e-06
4.742979287e-06
4.742755039e-06
4.740540051e-06
4.781598651e-06
4.77464122e-06
4.774517178e-06
4.766127198e-06
4.761269739e-06
4.766729868e-06
4.760857206e-06
4.771382611e-06
4.784692071e-06
4.771546689e-06
4.846474536e-06
4.852904478e-06
4.864279864e-06
4.852331726e-06
4.854728644e-06
4.876128582e-06
4.771346029e-06
4.794143932e-06
4.809949417e-06
4.777310996e-06
4.808432855e-06
4.829451046e-06
4.857860524e-06
4.867005966e-06
4.837269839e-06
4.822811819e-06
4.842392033e-06
4.857616375e-06
4.875229624e-06
4.873109486e-06
4.846587439e-06
4.833500265e-06
4.825951626e-06
4.817619295e-06
4.827024493e-06
4.864552043e-06
4.766789749e-06
4.75443237e-06
4.749724276e-06
4.737438479e-06
4.77319165e-06
4.754553203e-06
4.77039991e-06
4.793926993e-06
4.813171057e-06
4.838078573e-06
4.829226153e-06
4.830065806e-06
4.811862002e-06
4.849569192e-06
4.826155673e-06
4.827936527e-06
4.804847154e-06
4.80289985e-06
4.776554058e-06
4.803111239e-06
4.81143398e-06
4.808635185e-06
4.807601516e-06
4.789272272e-06
4.805225858e-06
4.792921137e-06
4.822535154e-06
4.852024589e-06
4.824410625e-06
4.800728426e-06
4.822882717e-06
4.812758795e-06
4.818299305e-06
4.829883705e-06
4.881798689e-06
4.875791051e-06
4.839848685e-06
4.829442268e-06
4.864503036e-06
4.86847221e-06
4.820935022e-06
4.81861115e-06
4.812105231e-06
4.811300326e-06
4.789283129e-06
4.793422675e-06
4.810633588e-06
4.811375248e-06
4.7743844e-06
4.764945159e-06
4.860710992e-06
4.865775653e-06
4.830113532e-06
4.78004162e-06
4.746348387e-06
4.754676171e-06
4.755704204e-06
4.753092237e-06
4.754696456e-06
4.761356068e-06
4.718000494e-06
4.719582914e-06
4.72806302e-06
4.723902809e-06
4.762172798e-06
4.766977219e-06
4.783972016e-06
4.747978077e-06
4.775163878e-06
4.786865531e-06
4.747079855e-06
4.786133703e-06
4.804524054e-06
4.830430586e-06
4.815718137e-06
4.814747888e-06
4.828480527e-06
4.832813306e-06
4.826611448e-06
4.782657514e-06
4.848189929e-06
4.831157076e-06
4.805914312e-06
4.796482544e-06
4.813239961e-06
4.805393355e-06
4.781680902e-06
4.776334704e-06
4.806150497e-06
4.826236008e-06
4.805416243e-06
4.802463592e-06
4.809691934e-06
4.798165024e-06
4.771148059e-06
4.762608967e-06
4.780880221e-06
4.813882223e-06
4.814696813e-06
4.81391548e-06
4.759640014e-06
4.771171137e-06
4.785156294e-06
4.795159524e-06
4.784103024e-06
4.809096754e-06
4.7912581e-06
4.795646309e-06
4.765886087e-06
4.773897338e-06
4.79350381e-06
4.82186584e-06
4.799322233e-06
4.828862987e-06
4.839839254e-06
4.822470253e-06
4.810648036e-06
4.808716288e-06
4.791694839e-06
4.75333604e-06
4.781299354e-06
4.788316644e-06
4.786791838e-06
4.780219176e-06
4.793016284e-06
4.790520211e-06
4.76558561e-06
4.77623407e-06
4.818016278e-06
4.842076439e-06
4.745662091e-06
4.766847065e-06
4.771027366e-06
4.777689631e-06
4.785911049e-06
4.762496002e-06
4.795713443e-06
4.789494033e-06
4.801431237e-06
4.813227713e-06
4.777163759e-06
4.777470687e-06
4.76384526e-06
4.753731689e-06
4.769992818e-06
4.793100885e-06
4.805312905e-06
4.831952511e-06
4.838757238e-06
4.811232905e-06
4.790223101e-06
4.753566195e-06
4.758579506e-06
4.78992757e-06
4.737520763e-06
4.73760187e-06
4.749266233e-06
4.702269078e-06
4.685677812e-06
4.722077e-06
)
;

boundaryField
{
    flow
    {
        type            calculated;
        value           nonuniform List<scalar> 
48
(
3.708353346e-06
3.729193746e-06
3.70034748e-06
3.718649318e-06
3.724874344e-06
3.718098163e-06
3.713775428e-06
3.712611097e-06
3.720957708e-06
3.705340969e-06
3.736449294e-06
3.701743095e-06
3.720650565e-06
3.708688167e-06
3.735332404e-06
3.696180539e-06
3.730637543e-06
3.643468167e-06
3.643468167e-06
4.666511614e-06
4.706399957e-06
4.738986051e-06
4.735523837e-06
4.741733542e-06
4.742382172e-06
4.742979287e-06
4.742755039e-06
4.740540051e-06
4.781598651e-06
4.77464122e-06
4.774517178e-06
4.766127198e-06
4.761269739e-06
4.766729868e-06
4.760857206e-06
4.771382611e-06
4.784692071e-06
4.771546689e-06
4.790223101e-06
4.753566195e-06
4.758579506e-06
4.78992757e-06
4.737520763e-06
4.73760187e-06
4.749266233e-06
4.702269078e-06
4.685677812e-06
4.722077e-06
)
;
    }
    obstacle
    {
        type            calculated;
        value           nonuniform List<scalar> 0();
    }
    frontAndBack
    {
        type            empty;
    }
    procBoundary2to0
    {
        type            processor;
        value           nonuniform List<scalar> 
31
(
3.718585816e-06
4.771486149e-06
4.794020282e-06
4.757542269e-06
4.776206838e-06
4.766412727e-06
4.814707851e-06
4.837289796e-06
4.864881291e-06
4.856823541e-06
4.82398714e-06
4.804877546e-06
4.816569365e-06
4.828692509e-06
4.818932371e-06
4.815136445e-06
4.818319565e-06
4.807747459e-06
4.826735232e-06
4.81992582e-06
4.783680076e-06
4.769858442e-06
4.759752277e-06
4.797188553e-06
4.862508341e-06
4.870312425e-06
4.809267666e-06
4.785955391e-06
4.789467419e-06
4.829142751e-06
4.829142751e-06
)
;
    }
    procBoundary2to3
    {
        type            processor;
        value           nonuniform List<scalar> 
19
(
4.892369106e-06
4.839038686e-06
4.857972785e-06
4.854837088e-06
4.802862723e-06
4.784893202e-06
4.894164053e-06
4.761592369e-06
4.781700458e-06
4.759259692e-06
4.791665763e-06
4.813310874e-06
4.82258965e-06
4.775137162e-06
4.786904012e-06
4.807385946e-06
4.84290664e-06
4.816231618e-06
4.696587396e-06
)
;
    }
}


// ************************************************************************* //
