/*--------------------------------*- C++ -*----------------------------------*\
| =========                 |                                                 |
| \\      /  F ield         | OpenFOAM: The Open Source CFD Toolbox           |
|  \\    /   O peration     | Version:  2406                                  |
|   \\  /    A nd           | Website:  www.openfoam.com                      |
|    \\/     M anipulation  |                                                 |
\*---------------------------------------------------------------------------*/
FoamFile
{
    version     2.0;
    format      ascii;
    arch        "LSB;label=32;scalar=64";
    class       volScalarField;
    location    "0.009";
    object      rhoM;
}
// * * * * * * * * * * * * * * * * * * * * * * * * * * * * * * * * * * * * * //

dimensions      [1 -3 0 0 0 0 0];

internalField   nonuniform List<scalar> 
546
(
3.043386799e-06
4.496139531e-06
4.565080198e-06
4.980390442e-06
6.986334752e-06
3.52763771e-06
4.01188862e-06
4.911449774e-06
5.948892263e-06
5.948892263e-06
4.427198864e-06
5.602522687e-06
4.565080198e-06
4.427198864e-06
5.118271776e-06
4.01188862e-06
5.53358202e-06
4.496139531e-06
5.187212443e-06
8.645909486e-06
3.458697042e-06
5.53358202e-06
4.980390442e-06
5.602522687e-06
3.52763771e-06
5.395700685e-06
6.086773598e-06
2.559135888e-06
5.395700685e-06
3.112327466e-06
6.364202506e-06
4.565080198e-06
3.942947953e-06
3.942947953e-06
3.112327466e-06
4.980390442e-06
7.470585662e-06
4.496139531e-06
2.974446132e-06
4.496139531e-06
3.52763771e-06
4.427198864e-06
4.358258196e-06
4.01188862e-06
4.911449774e-06
3.043386799e-06
7.193156754e-06
3.458697042e-06
7.332704328e-06
5.948892263e-06
3.043386799e-06
5.395700685e-06
3.52763771e-06
5.049331109e-06
2.00594431e-06
6.01783293e-06
7.53952633e-06
4.980390442e-06
4.358258196e-06
4.427198864e-06
4.01188862e-06
4.980390442e-06
5.53358202e-06
6.01783293e-06
4.980390442e-06
2.00594431e-06
2.00594431e-06
3.874007286e-06
4.980390442e-06
6.01783293e-06
4.565080198e-06
3.458697042e-06
5.395700685e-06
2.490195221e-06
3.458697042e-06
4.01188862e-06
5.118271776e-06
3.52763771e-06
4.427198864e-06
4.358258196e-06
4.496139531e-06
2.490195221e-06
4.980390442e-06
6.986334752e-06
5.325093778e-06
5.395700685e-06
6.433143174e-06
3.389756375e-06
4.911449774e-06
8.576968818e-06
2.905505464e-06
4.427198864e-06
3.596578377e-06
4.496139531e-06
5.948892263e-06
2.490195221e-06
4.911449774e-06
7.470585662e-06
4.911449774e-06
7.885895906e-06
2.974446132e-06
5.049331109e-06
5.464641352e-06
5.464641352e-06
6.433143174e-06
3.942947953e-06
4.358258196e-06
8.02377724e-06
4.427198864e-06
8.02377724e-06
5.53358202e-06
3.458697042e-06
4.842509107e-06
4.080829287e-06
6.01783293e-06
4.01188862e-06
4.980390442e-06
2.421254554e-06
4.080829287e-06
4.496139531e-06
4.01188862e-06
4.080829287e-06
5.464641352e-06
6.917394084e-06
2.974446132e-06
6.155714265e-06
4.496139531e-06
5.049331109e-06
2.559135888e-06
3.942947953e-06
3.458697042e-06
3.043386799e-06
1.937003643e-06
4.080829287e-06
6.502083841e-06
4.080829287e-06
3.665519044e-06
6.848453417e-06
4.980390442e-06
4.01188862e-06
4.01188862e-06
3.458697042e-06
5.53358202e-06
4.911449774e-06
3.458697042e-06
5.187212443e-06
3.389756375e-06
4.496139531e-06
3.52763771e-06
8.02377724e-06
6.502083841e-06
4.496139531e-06
6.917394084e-06
5.53358202e-06
3.942947953e-06
4.01188862e-06
5.879951596e-06
3.942947953e-06
6.502083841e-06
4.496139531e-06
3.942947953e-06
6.01783293e-06
5.671463354e-06
4.496139531e-06
4.427198864e-06
3.874007286e-06
4.01188862e-06
2.00594431e-06
4.980390442e-06
5.879951596e-06
3.874007286e-06
6.01783293e-06
7.055275419e-06
6.571024508e-06
4.149769955e-06
6.502083841e-06
5.602522687e-06
6.364202506e-06
6.986334752e-06
2.905505464e-06
2.974446132e-06
3.52763771e-06
6.502083841e-06
3.942947953e-06
5.948892263e-06
5.118271776e-06
5.464641352e-06
5.464641352e-06
7.401644995e-06
5.671463354e-06
4.427198864e-06
5.464641352e-06
2.974446132e-06
7.401644995e-06
3.52763771e-06
6.502083841e-06
4.980390442e-06
2.974446132e-06
6.155714265e-06
3.043386799e-06
2.974446132e-06
4.496139531e-06
4.496139531e-06
4.01188862e-06
4.01188862e-06
6.848453417e-06
6.433143174e-06
5.187212443e-06
2.490195221e-06
4.080829287e-06
7.055275419e-06
4.496139531e-06
4.01188862e-06
2.974446132e-06
4.911449774e-06
5.049331109e-06
4.149769955e-06
6.01783293e-06
1.937003643e-06
4.980390442e-06
4.01188862e-06
4.565080198e-06
4.911449774e-06
5.53358202e-06
4.496139531e-06
3.596578377e-06
2.559135888e-06
4.149769955e-06
7.193156754e-06
4.980390442e-06
5.395700685e-06
3.112327466e-06
2.974446132e-06
3.942947953e-06
6.433143174e-06
5.049331109e-06
2.905505464e-06
2.00594431e-06
3.52763771e-06
7.608466997e-06
3.043386799e-06
4.427198864e-06
2.974446132e-06
5.326760018e-06
3.52763771e-06
2.974446132e-06
1.037442489e-06
3.942947953e-06
4.980390442e-06
4.358258196e-06
6.502083841e-06
4.496139531e-06
6.433143174e-06
1.521693399e-06
4.427198864e-06
2.074884977e-06
4.01188862e-06
5.948892263e-06
8.992279062e-06
8.02377724e-06
3.52763771e-06
4.01188862e-06
7.055275419e-06
5.118271776e-06
6.224654932e-06
6.01783293e-06
6.917394084e-06
4.565080198e-06
2.490195221e-06
4.427198864e-06
4.149769955e-06
4.565080198e-06
5.464641352e-06
6.433143174e-06
6.639965176e-06
8.02377724e-06
2.559135888e-06
6.986334752e-06
2.490195221e-06
4.980390442e-06
3.52763771e-06
5.464641352e-06
6.502083841e-06
5.395700685e-06
4.01188862e-06
5.395700685e-06
2.074884977e-06
8.370146817e-06
6.086773598e-06
7.193156754e-06
5.464641352e-06
3.112327466e-06
4.427198864e-06
3.596578377e-06
3.665519044e-06
4.149769955e-06
7.401644995e-06
2.490195221e-06
3.389756375e-06
4.980390442e-06
2.974446132e-06
4.496139531e-06
3.458697042e-06
3.52763771e-06
3.942947953e-06
4.01188862e-06
6.917394084e-06
5.464641352e-06
3.942947953e-06
2.905505464e-06
5.602522687e-06
4.358258196e-06
4.842509107e-06
6.986334752e-06
6.571024508e-06
6.01783293e-06
3.874007286e-06
3.942947953e-06
5.53358202e-06
3.389756375e-06
2.974446132e-06
4.980390442e-06
5.948892263e-06
4.980390442e-06
5.118271776e-06
4.01188862e-06
4.080829287e-06
4.634020865e-06
5.948892263e-06
7.193156754e-06
5.879951596e-06
2.974446132e-06
3.458697042e-06
3.942947953e-06
3.458697042e-06
4.427198864e-06
4.565080198e-06
4.358258196e-06
4.565080198e-06
4.080829287e-06
3.52763771e-06
3.458697042e-06
6.01783293e-06
5.395700685e-06
4.980390442e-06
2.974446132e-06
3.458697042e-06
2.421254554e-06
3.942947953e-06
3.52763771e-06
4.980390442e-06
5.948892263e-06
4.427198864e-06
4.149769955e-06
5.395700685e-06
3.458697042e-06
7.055275419e-06
5.53358202e-06
5.602522687e-06
5.464641352e-06
4.0680561e-06
3.736933118e-06
4.777006444e-06
4.155584379e-06
4.772839451e-06
5.251645445e-06
5.484020362e-06
6.848652976e-06
4.926975987e-06
2.551295614e-06
4.638800223e-06
4.671599213e-06
3.184670985e-06
4.155584379e-06
3.744734387e-06
3.845698382e-06
4.512084017e-06
6.150360598e-06
7.81132309e-06
4.110325872e-06
5.138416185e-06
8.265270301e-06
5.42802018e-06
6.049974173e-06
3.157498504e-06
4.881284291e-06
3.60933276e-06
5.521729093e-06
3.519026376e-06
5.102591229e-06
5.707441235e-07
3.59367103e-06
4.125992774e-06
4.228242928e-06
4.846022808e-06
4.881284256e-06
3.470962463e-06
3.984138917e-06
5.700246325e-06
6.236121073e-06
6.137648213e-06
2.587373891e-06
2.750080633e-06
2.041462915e-06
4.846022808e-06
5.251645445e-06
5.484020362e-06
4.123460662e-06
7.600893535e-06
5.173223487e-06
2.99769598e-06
5.174747783e-06
5.718328266e-06
5.17631588e-06
7.269918655e-06
3.180473627e-06
4.442898838e-06
4.962758461e-06
4.574564758e-06
5.739988352e-06
8.278368454e-06
6.181044964e-06
5.646187143e-06
6.85273008e-06
4.846022842e-06
3.106757749e-06
7.497078312e-06
3.005519426e-06
6.685641523e-06
5.173223487e-06
4.139184227e-06
4.671599213e-06
3.619261318e-06
4.08292586e-06
6.975416259e-06
4.363491336e-06
5.484020362e-06
4.403787829e-06
3.026328797e-06
2.551295632e-06
4.567672097e-06
3.59367103e-06
3.691402415e-06
2.04146293e-06
4.185603542e-06
6.878740208e-06
3.887745502e-06
4.123460662e-06
5.419673548e-06
2.480663375e-06
7.84988053e-06
4.814861334e-06
3.040388759e-06
3.645218672e-06
3.598367632e-06
4.66013659e-06
4.095300947e-06
4.543109575e-06
5.067262391e-06
7.087121991e-06
6.137648256e-06
3.162153526e-06
5.139455651e-06
8.091437046e-06
6.388180354e-06
6.360947254e-06
4.442898868e-06
4.053799817e-06
6.545355153e-06
2.480663409e-06
5.067288093e-06
3.090522461e-06
6.297200846e-06
6.998047168e-06
3.817917805e-06
4.216059536e-06
6.386771589e-06
3.564490034e-06
5.559959918e-06
5.102591229e-06
3.497311977e-06
2.515742848e-06
3.691402415e-06
4.228242898e-06
4.699656061e-06
2.144887718e-06
8.399829489e-06
2.58587054e-06
3.941580816e-06
6.16548885e-06
3.710696357e-06
5.174747818e-06
4.704865386e-06
6.342364392e-06
3.084315091e-06
5.769438358e-06
4.650454284e-06
5.0324193e-06
6.192943882e-06
4.03969365e-06
2.498079983e-06
4.240081687e-06
6.876073378e-06
4.738608597e-06
4.846022808e-06
3.698266608e-06
3.401777314e-06
7.548629001e-06
4.997119205e-06
2.621927837e-06
4.139184198e-06
3.162153504e-06
5.139455687e-06
4.738608664e-06
2.129393466e-06
4.363491336e-06
3.540147635e-06
5.661050839e-06
4.081867159e-06
3.118060536e-06
7.849880584e-06
3.090522461e-06
6.225059679e-06
4.08292586e-06
7.489468827e-06
5.399077245e-06
6.039173698e-06
6.50034861e-06
5.48981677e-06
4.465194106e-06
6.422160721e-06
4.168450672e-06
3.184671007e-06
3.207511433e-06
5.213708543e-06
4.80756839e-06
6.525141886e-06
4.473448672e-06
5.63010314e-06
5.031959041e-06
5.067288093e-06
5.103116739e-06
6.225059679e-06
4.738608631e-06
1.101288429e-06
3.698266581e-06
)
;

boundaryField
{
    flow
    {
        type            zeroGradient;
    }
    obstacle
    {
        type            calculated;
        value           nonuniform List<scalar> 0();
    }
    frontAndBack
    {
        type            empty;
    }
    procBoundary2to0
    {
        type            processor;
        value           nonuniform List<scalar> 
31
(
2.974446132e-06
5.049331109e-06
5.879951596e-06
3.52763771e-06
5.602522687e-06
4.427198864e-06
5.602522687e-06
2.905505464e-06
2.421254554e-06
2.421254554e-06
3.942947953e-06
4.565080198e-06
4.980390442e-06
6.986334752e-06
2.421254554e-06
5.602522687e-06
3.458697042e-06
2.974446132e-06
3.596578377e-06
5.53358202e-06
6.708392337e-06
3.162153504e-06
2.243349196e-06
4.665950144e-06
5.654577707e-06
5.251645445e-06
3.470962463e-06
5.521729056e-06
3.519026376e-06
2.551295632e-06
2.551295632e-06
)
;
    }
    procBoundary2to3
    {
        type            processor;
        value           nonuniform List<scalar> 
19
(
3.79962999e-06
3.725373774e-06
4.768550253e-06
6.704595966e-06
7.97233577e-06
4.917062686e-06
2.682197348e-06
4.321218212e-06
2.682197348e-06
1.639020884e-06
2.607941113e-06
3.203785574e-06
1.087730175e-05
3.873886206e-06
4.395474491e-06
6.407571103e-06
5.290138442e-06
5.960239139e-06
3.873886206e-06
)
;
    }
}


// ************************************************************************* //
