/*--------------------------------*- C++ -*----------------------------------*\
| =========                 |                                                 |
| \\      /  F ield         | OpenFOAM: The Open Source CFD Toolbox           |
|  \\    /   O peration     | Version:  2406                                  |
|   \\  /    A nd           | Website:  www.openfoam.com                      |
|    \\/     M anipulation  |                                                 |
\*---------------------------------------------------------------------------*/
FoamFile
{
    version     2.0;
    format      ascii;
    arch        "LSB;label=32;scalar=64";
    class       volScalarField;
    location    "0.009";
    object      rhoN;
}
// * * * * * * * * * * * * * * * * * * * * * * * * * * * * * * * * * * * * * //

dimensions      [0 -3 0 0 0 0 0];

internalField   nonuniform List<scalar> 
546
(
6.248398848e+19
9.372598272e+19
9.372598272e+19
1.041399808e+20
1.457959731e+20
7.289798656e+19
8.331198464e+19
1.041399808e+20
1.24967977e+20
1.24967977e+20
9.372598272e+19
1.145539789e+20
9.372598272e+19
9.372598272e+19
1.041399808e+20
8.331198464e+19
1.145539789e+20
9.372598272e+19
1.041399808e+20
1.770379674e+20
7.289798656e+19
1.145539789e+20
1.041399808e+20
1.145539789e+20
7.289798656e+19
1.145539789e+20
1.24967977e+20
5.20699904e+19
1.145539789e+20
6.248398848e+19
1.35381975e+20
9.372598272e+19
8.331198464e+19
8.331198464e+19
6.248398848e+19
1.041399808e+20
1.562099712e+20
9.372598272e+19
6.248398848e+19
9.372598272e+19
7.289798656e+19
9.372598272e+19
9.372598272e+19
8.331198464e+19
1.041399808e+20
6.248398848e+19
1.457959731e+20
7.289798656e+19
1.562099712e+20
1.24967977e+20
6.248398848e+19
1.145539789e+20
7.289798656e+19
1.041399808e+20
4.165599232e+19
1.24967977e+20
1.562099712e+20
1.041399808e+20
9.372598272e+19
9.372598272e+19
8.331198464e+19
1.041399808e+20
1.145539789e+20
1.24967977e+20
1.041399808e+20
4.165599232e+19
4.165599232e+19
8.331198464e+19
1.041399808e+20
1.24967977e+20
9.372598272e+19
7.289798656e+19
1.145539789e+20
5.20699904e+19
7.289798656e+19
8.331198464e+19
1.041399808e+20
7.289798656e+19
9.372598272e+19
9.372598272e+19
9.372598272e+19
5.20699904e+19
1.041399808e+20
1.457959731e+20
1.041399808e+20
1.145539789e+20
1.35381975e+20
7.289798656e+19
1.041399808e+20
1.770379674e+20
6.248398848e+19
9.372598272e+19
7.289798656e+19
9.372598272e+19
1.24967977e+20
5.20699904e+19
1.041399808e+20
1.562099712e+20
1.041399808e+20
1.666239693e+20
6.248398848e+19
1.041399808e+20
1.145539789e+20
1.145539789e+20
1.35381975e+20
8.331198464e+19
9.372598272e+19
1.666239693e+20
9.372598272e+19
1.666239693e+20
1.145539789e+20
7.289798656e+19
1.041399808e+20
8.331198464e+19
1.24967977e+20
8.331198464e+19
1.041399808e+20
5.20699904e+19
8.331198464e+19
9.372598272e+19
8.331198464e+19
8.331198464e+19
1.145539789e+20
1.457959731e+20
6.248398848e+19
1.24967977e+20
9.372598272e+19
1.041399808e+20
5.20699904e+19
8.331198464e+19
7.289798656e+19
6.248398848e+19
4.165599232e+19
8.331198464e+19
1.35381975e+20
8.331198464e+19
7.289798656e+19
1.457959731e+20
1.041399808e+20
8.331198464e+19
8.331198464e+19
7.289798656e+19
1.145539789e+20
1.041399808e+20
7.289798656e+19
1.041399808e+20
7.289798656e+19
9.372598272e+19
7.289798656e+19
1.666239693e+20
1.35381975e+20
9.372598272e+19
1.457959731e+20
1.145539789e+20
8.331198464e+19
8.331198464e+19
1.24967977e+20
8.331198464e+19
1.35381975e+20
9.372598272e+19
8.331198464e+19
1.24967977e+20
1.145539789e+20
9.372598272e+19
9.372598272e+19
8.331198464e+19
8.331198464e+19
4.165599232e+19
1.041399808e+20
1.24967977e+20
8.331198464e+19
1.24967977e+20
1.457959731e+20
1.35381975e+20
8.331198464e+19
1.35381975e+20
1.145539789e+20
1.35381975e+20
1.457959731e+20
6.248398848e+19
6.248398848e+19
7.289798656e+19
1.35381975e+20
8.331198464e+19
1.24967977e+20
1.041399808e+20
1.145539789e+20
1.145539789e+20
1.562099712e+20
1.145539789e+20
9.372598272e+19
1.145539789e+20
6.248398848e+19
1.562099712e+20
7.289798656e+19
1.35381975e+20
1.041399808e+20
6.248398848e+19
1.24967977e+20
6.248398848e+19
6.248398848e+19
9.372598272e+19
9.372598272e+19
8.331198464e+19
8.331198464e+19
1.457959731e+20
1.35381975e+20
1.041399808e+20
5.20699904e+19
8.331198464e+19
1.457959731e+20
9.372598272e+19
8.331198464e+19
6.248398848e+19
1.041399808e+20
1.041399808e+20
8.331198464e+19
1.24967977e+20
4.165599232e+19
1.041399808e+20
8.331198464e+19
9.372598272e+19
1.041399808e+20
1.145539789e+20
9.372598272e+19
7.289798656e+19
5.20699904e+19
8.331198464e+19
1.457959731e+20
1.041399808e+20
1.145539789e+20
6.248398848e+19
6.248398848e+19
8.331198464e+19
1.35381975e+20
1.041399808e+20
6.248398848e+19
4.165599232e+19
7.289798656e+19
1.562099712e+20
6.248398848e+19
9.372598272e+19
6.248398848e+19
1.145539789e+20
7.289798656e+19
6.248398848e+19
2.082799616e+19
8.331198464e+19
1.041399808e+20
9.372598272e+19
1.35381975e+20
9.372598272e+19
1.35381975e+20
3.124199424e+19
9.372598272e+19
4.165599232e+19
8.331198464e+19
1.24967977e+20
1.874519654e+20
1.666239693e+20
7.289798656e+19
8.331198464e+19
1.457959731e+20
1.041399808e+20
1.24967977e+20
1.24967977e+20
1.457959731e+20
9.372598272e+19
5.20699904e+19
9.372598272e+19
8.331198464e+19
9.372598272e+19
1.145539789e+20
1.35381975e+20
1.35381975e+20
1.666239693e+20
5.20699904e+19
1.457959731e+20
5.20699904e+19
1.041399808e+20
7.289798656e+19
1.145539789e+20
1.35381975e+20
1.145539789e+20
8.331198464e+19
1.145539789e+20
4.165599232e+19
1.770379674e+20
1.24967977e+20
1.457959731e+20
1.145539789e+20
6.248398848e+19
9.372598272e+19
7.289798656e+19
7.289798656e+19
8.331198464e+19
1.562099712e+20
5.20699904e+19
7.289798656e+19
1.041399808e+20
6.248398848e+19
9.372598272e+19
7.289798656e+19
7.289798656e+19
8.331198464e+19
8.331198464e+19
1.457959731e+20
1.145539789e+20
8.331198464e+19
6.248398848e+19
1.145539789e+20
9.372598272e+19
1.041399808e+20
1.457959731e+20
1.35381975e+20
1.24967977e+20
8.331198464e+19
8.331198464e+19
1.145539789e+20
7.289798656e+19
6.248398848e+19
1.041399808e+20
1.24967977e+20
1.041399808e+20
1.041399808e+20
8.331198464e+19
8.331198464e+19
9.372598272e+19
1.24967977e+20
1.457959731e+20
1.24967977e+20
6.248398848e+19
7.289798656e+19
8.331198464e+19
7.289798656e+19
9.372598272e+19
9.372598272e+19
9.372598272e+19
9.372598272e+19
8.331198464e+19
7.289798656e+19
7.289798656e+19
1.24967977e+20
1.145539789e+20
1.041399808e+20
6.248398848e+19
7.289798656e+19
5.20699904e+19
8.331198464e+19
7.289798656e+19
1.041399808e+20
1.24967977e+20
9.372598272e+19
8.331198464e+19
1.145539789e+20
7.289798656e+19
1.457959731e+20
1.145539789e+20
1.145539789e+20
1.145539789e+20
8.595544028e+19
7.574279541e+19
9.807705538e+19
8.78048572e+19
9.949403591e+19
1.113533235e+20
1.149602165e+20
1.367962766e+20
1.059564728e+20
5.334759983e+19
9.669987032e+19
9.73835941e+19
6.538470404e+19
8.78048572e+19
7.73842496e+19
7.794732648e+19
9.405835955e+19
1.262734861e+20
1.589347092e+20
8.535615974e+19
1.074442996e+20
1.731263907e+20
1.089745067e+20
1.207316786e+20
6.632935727e+19
1.002179912e+20
7.315650138e+19
1.157506956e+20
7.416953098e+19
1.066951997e+20
1.074443004e+19
7.574279541e+19
8.717960539e+19
8.780485781e+19
9.94940352e+19
1.002179905e+20
7.315650138e+19
8.418232352e+19
1.165521201e+20
1.280342405e+20
1.289331604e+20
5.410199672e+19
5.448725299e+19
4.390242829e+19
9.94940352e+19
1.113533235e+20
1.149602165e+20
8.418232352e+19
1.589347092e+20
1.066952004e+20
6.446658021e+19
1.082039934e+20
1.198719574e+20
1.097560723e+20
1.547685003e+20
6.681199412e+19
9.405835892e+19
1.052279051e+20
9.536082555e+19
1.173647196e+20
1.719108806e+20
1.29844793e+20
1.198719574e+20
1.426828929e+20
9.949403591e+19
6.68119946e+19
1.567639326e+20
6.313674307e+19
1.377434147e+20
1.066952004e+20
8.595544028e+19
9.73835941e+19
7.628215471e+19
8.78048572e+19
1.437136064e+20
8.908265883e+19
1.149602165e+20
9.47051146e+19
6.357388413e+19
5.33476002e+19
9.669987032e+19
7.574279541e+19
7.628215418e+19
4.39024286e+19
8.843914303e+19
1.447593206e+20
8.360743015e+19
8.418232352e+19
1.165521193e+20
5.334759947e+19
1.611664494e+20
9.738359478e+19
6.53847045e+19
7.682925059e+19
7.738425015e+19
1.002179912e+20
8.360743015e+19
9.47051146e+19
1.059564735e+20
1.493732806e+20
1.289331613e+20
6.492239652e+19
1.08974506e+20
1.646341061e+20
1.326587136e+20
1.336239882e+20
9.405835955e+19
8.418232409e+19
1.377434147e+20
5.33476002e+19
1.074443004e+20
6.492239607e+19
1.307694081e+20
1.426828939e+20
7.738425015e+19
8.908265883e+19
1.35862074e+20
7.365953308e+19
1.165521193e+20
1.066951997e+20
7.521101025e+19
5.410199672e+19
7.628215418e+19
8.78048572e+19
9.949403591e+19
4.454132941e+19
1.776657891e+20
5.261395256e+19
8.476517884e+19
1.280342405e+20
7.521101025e+19
1.082039942e+20
9.807705674e+19
1.317072867e+20
6.63293568e+19
1.22488655e+20
9.405835892e+19
1.052279044e+20
1.271477665e+20
8.535615974e+19
5.372215018e+19
8.656319476e+19
1.416668578e+20
9.878046365e+19
9.94940352e+19
7.794732703e+19
7.315650138e+19
1.578418577e+20
1.059564735e+20
5.334759983e+19
8.595543969e+19
6.492239607e+19
1.089745067e+20
9.878046504e+19
4.421957151e+19
8.908265883e+19
7.315650187e+19
1.157506956e+20
8.476517826e+19
6.401712024e+19
1.611664505e+20
6.492239607e+19
1.307694072e+20
8.78048572e+19
1.547685003e+20
1.113533235e+20
1.254111452e+20
1.367962766e+20
1.165521201e+20
9.60256797e+19
1.289331604e+20
8.656319536e+19
6.53847045e+19
6.58536429e+19
1.10548928e+20
1.002179912e+20
1.35862074e+20
9.470511396e+19
1.165521201e+20
1.066952004e+20
1.074443004e+20
1.082039934e+20
1.307694072e+20
9.878046435e+19
2.210978576e+19
7.794732648e+19
)
;

boundaryField
{
    flow
    {
        type            zeroGradient;
    }
    obstacle
    {
        type            calculated;
        value           nonuniform List<scalar> 0();
    }
    frontAndBack
    {
        type            empty;
    }
    procBoundary2to0
    {
        type            processor;
        value           nonuniform List<scalar> 
31
(
6.248398848e+19
1.041399808e+20
1.24967977e+20
7.289798656e+19
1.145539789e+20
9.372598272e+19
1.145539789e+20
6.248398848e+19
5.20699904e+19
5.20699904e+19
8.331198464e+19
9.372598272e+19
1.041399808e+20
1.457959731e+20
5.20699904e+19
1.145539789e+20
7.289798656e+19
6.248398848e+19
7.289798656e+19
1.145539789e+20
1.396775905e+20
6.492239607e+19
4.358980269e+19
9.878046504e+19
1.216038217e+20
1.113533235e+20
7.315650138e+19
1.157506948e+20
7.416953098e+19
5.33476002e+19
5.33476002e+19
)
;
    }
    procBoundary2to3
    {
        type            processor;
        value           nonuniform List<scalar> 
19
(
7.851865717e+19
7.851865717e+19
1.009525599e+20
1.346034123e+20
1.682542654e+20
1.009525599e+20
5.608475552e+19
8.973560819e+19
5.608475552e+19
3.365085307e+19
5.608475512e+19
6.730170662e+19
2.243390205e+20
7.851865717e+19
8.973560948e+19
1.346034123e+20
1.121695102e+20
1.233864621e+20
7.851865717e+19
)
;
    }
}


// ************************************************************************* //
