/*--------------------------------*- C++ -*----------------------------------*\
| =========                 |                                                 |
| \\      /  F ield         | OpenFOAM: The Open Source CFD Toolbox           |
|  \\    /   O peration     | Version:  2406                                  |
|   \\  /    A nd           | Website:  www.openfoam.com                      |
|    \\/     M anipulation  |                                                 |
\*---------------------------------------------------------------------------*/
FoamFile
{
    version     2.0;
    format      ascii;
    arch        "LSB;label=32;scalar=64";
    class       volScalarField;
    location    "0.009";
    object      rhoNMean;
}
// * * * * * * * * * * * * * * * * * * * * * * * * * * * * * * * * * * * * * //

dimensions      [0 -3 0 0 0 0 0];

internalField   nonuniform List<scalar> 
546
(
7.729732219e+19
9.971981717e+19
1.007751023e+20
1.000808358e+20
1.000576935e+20
9.988875536e+19
1.000252944e+20
9.957633542e+19
9.91921746e+19
1.000044664e+20
1.003724277e+20
1.009579258e+20
1.006617054e+20
1.000183518e+20
9.9999838e+19
9.985867047e+19
9.995355357e+19
9.969436073e+19
9.89584382e+19
9.89908373e+19
7.771156789e+19
9.985404203e+19
1.004256548e+20
1.008977561e+20
1.009880107e+20
1.007218752e+20
1.00365485e+20
1.005159095e+20
1.000090949e+20
9.977073005e+19
9.978924382e+19
9.959253497e+19
9.984247092e+19
9.94999661e+19
9.96596474e+19
9.954625053e+19
9.965733318e+19
1.003978842e+20
1.007542743e+20
1.007913019e+20
7.714689777e+19
9.913663327e+19
9.958327808e+19
9.930557147e+19
9.931714257e+19
9.983552826e+19
1.003469713e+20
1.002196891e+20
1.00249774e+20
1.005783935e+20
1.000484367e+20
1.000947211e+20
9.958790652e+19
9.93194568e+19
9.963187674e+19
9.962030563e+19
9.918754615e+19
9.927317236e+19
9.896075242e+19
9.898158041e+19
7.749403104e+19
9.998363845e+19
1.003446571e+20
9.96804754e+19
9.990958335e+19
9.924077326e+19
9.934954168e+19
9.949070921e+19
9.998363845e+19
9.929400036e+19
1.000067807e+20
1.003099437e+20
1.0106438e+20
1.006941045e+20
1.006871619e+20
1.00407141e+20
1.001502624e+20
9.995586779e+19
1.007380748e+20
1.004927672e+20
7.762131324e+19
9.989106958e+19
1.000345513e+20
1.000229802e+20
9.976841582e+19
9.991189758e+19
9.923383059e+19
9.941896833e+19
9.878255734e+19
9.819011656e+19
9.804432059e+19
9.786612551e+19
9.800035037e+19
9.842385296e+19
9.927085814e+19
9.990958335e+19
1.005459943e+20
1.006084783e+20
1.00041494e+20
1.000785215e+20
7.749634527e+19
9.980544337e+19
1.000345513e+20
1.000576935e+20
1.003701135e+20
1.00469625e+20
1.002266317e+20
1.000646362e+20
1.007311321e+20
1.010481805e+20
1.014624262e+20
1.010134672e+20
1.008931276e+20
1.003955699e+20
1.002937442e+20
1.007565885e+20
1.005969072e+20
9.994429668e+19
1.005159095e+20
1.007774165e+20
7.738526262e+19
9.911580528e+19
9.994198246e+19
1.003238291e+20
1.000715789e+20
1.00166462e+20
1.003515997e+20
1.008260152e+20
1.003608566e+20
1.007149325e+20
1.007033614e+20
1.010759511e+20
1.014508551e+20
1.009301552e+20
1.009232125e+20
1.002636593e+20
1.00823701e+20
1.004372259e+20
1.005830219e+20
1.005436801e+20
7.738526262e+19
1.001572051e+20
1.008399005e+20
1.006408774e+20
1.006709623e+20
1.006686481e+20
1.009324694e+20
1.007496459e+20
1.0127266e+20
1.005436801e+20
1.004603681e+20
1.00020666e+20
9.992809713e+19
9.998363845e+19
1.001386913e+20
1.006825334e+20
1.003469713e+20
1.007496459e+20
1.011199214e+20
1.009995818e+20
7.755882925e+19
9.974758783e+19
9.969204651e+19
9.975684472e+19
9.983321404e+19
9.936574123e+19
9.945136744e+19
9.992115446e+19
9.946293855e+19
1.005876503e+20
1.009694969e+20
1.011222356e+20
1.008584143e+20
1.009463547e+20
1.003932557e+20
9.96596474e+19
9.985867047e+19
9.972675983e+19
9.929400036e+19
9.918986038e+19
7.723715242e+19
9.914589016e+19
9.969436073e+19
9.995586779e+19
9.953467942e+19
9.994892512e+19
9.98193287e+19
1.001988611e+20
9.982858559e+19
9.92454017e+19
9.886586932e+19
9.907877773e+19
9.961567719e+19
9.992578291e+19
1.002196891e+20
1.003515997e+20
1.000970353e+20
9.938656923e+19
9.918523193e+19
9.89376102e+19
7.786430653e+19
9.991189758e+19
1.00041494e+20
9.981701448e+19
9.979618649e+19
9.953930787e+19
9.99882669e+19
9.930325724e+19
9.966427584e+19
1.003354002e+20
1.001803473e+20
1.002196891e+20
1.001132349e+20
9.965270474e+19
9.897926619e+19
9.915977549e+19
9.927548658e+19
1.001155491e+20
1.007704739e+20
1.010597516e+20
7.715615466e+19
9.98933838e+19
1.002405171e+20
1.003261433e+20
9.987949847e+19
9.95855923e+19
9.973601672e+19
9.931482835e+19
9.919911726e+19
9.912737639e+19
9.854650672e+19
9.907877773e+19
9.898158041e+19
9.973601672e+19
1.004858246e+20
1.000530651e+20
1.007033614e+20
9.977998693e+19
1.001410055e+20
1.000183518e+20
7.755420081e+19
9.980312915e+19
1.006871619e+20
1.003053153e+20
1.003793704e+20
1.002636593e+20
1.000970353e+20
1.001919184e+20
1.005297948e+20
1.002358886e+20
1.001271202e+20
1.006131068e+20
1.005691366e+20
1.001710904e+20
9.976147316e+19
1.002682877e+20
9.916903238e+19
9.993966824e+19
9.990726913e+19
9.970824606e+19
7.728343686e+19
9.884735555e+19
9.956245009e+19
9.972444561e+19
9.986792736e+19
1.000137233e+20
1.000715789e+20
1.004395401e+20
1.003701135e+20
1.004719393e+20
9.97661016e+19
9.906952084e+19
9.861824759e+19
9.911117684e+19
9.915051861e+19
9.963419096e+19
9.971750295e+19
9.938425501e+19
9.93194568e+19
9.956707853e+19
7.787356342e+19
1.001178633e+20
9.999289534e+19
9.929400036e+19
9.975221627e+19
9.965039051e+19
9.949765187e+19
9.984941359e+19
9.94583101e+19
9.909034884e+19
9.894455287e+19
9.96064203e+19
1.000183518e+20
9.956707853e+19
9.953930787e+19
9.918754615e+19
9.894686709e+19
9.937731234e+19
9.99882669e+19
1.002034895e+20
7.705201468e+19
9.915514705e+19
1.000183518e+20
1.004649966e+20
1.007473316e+20
9.990032647e+19
9.922920215e+19
9.88635551e+19
9.912506217e+19
9.966427584e+19
9.985635625e+19
9.950228032e+19
9.939814034e+19
9.961104874e+19
1.004464828e+20
1.003284575e+20
1.003030011e+20
9.962493407e+19
9.899546575e+19
9.915514705e+19
7.773471011e+19
1.006455059e+20
1.008144441e+20
1.002382028e+20
9.941202567e+19
1.005668223e+20
1.011523205e+20
1.015179675e+20
1.010273525e+20
1.013420866e+20
1.010990934e+20
1.007311321e+20
1.010990934e+20
1.004163979e+20
1.002960584e+20
9.983321404e+19
9.993503979e+19
9.970361761e+19
1.002173749e+20
9.993272557e+19
7.592961711e+19
9.724822829e+19
9.807671969e+19
9.874784401e+19
9.865296092e+19
9.878024312e+19
9.881264222e+19
9.8810328e+19
9.884504133e+19
9.878950001e+19
9.965501896e+19
9.954625053e+19
9.953699365e+19
9.937962656e+19
9.92778008e+19
9.941202567e+19
9.928474347e+19
9.94791381e+19
9.974295939e+19
9.945136744e+19
1.010215188e+20
1.011587112e+20
1.013753504e+20
1.011292443e+20
1.011522698e+20
1.015765017e+20
9.945336059e+19
9.987998914e+19
1.002301141e+20
9.956321832e+19
1.001571891e+20
1.006225003e+20
1.012324734e+20
1.014146101e+20
1.007935993e+20
1.004778156e+20
1.008979119e+20
1.012573055e+20
1.015957753e+20
1.015596041e+20
1.010358441e+20
1.007595594e+20
1.005907347e+20
1.004365615e+20
1.005921553e+20
1.014032854e+20
9.932330459e+19
9.907558026e+19
9.899160068e+19
9.87499638e+19
9.950774803e+19
9.91076444e+19
9.946950809e+19
9.999753793e+19
1.004054497e+20
1.008836359e+20
1.006726356e+20
1.007031045e+20
1.002983972e+20
1.010925169e+20
1.005774157e+20
1.006080731e+20
1.001451493e+20
1.000707072e+20
9.953579813e+19
1.001066379e+20
1.002638882e+20
1.001816418e+20
1.001688948e+20
9.976475438e+19
1.00068846e+20
9.983862249e+19
1.004793385e+20
1.01126806e+20
1.00518456e+20
1.00059622e+20
1.005193553e+20
1.003149311e+20
1.004914734e+20
1.007819146e+20
1.018930115e+20
1.017333953e+20
1.009781996e+20
1.007633907e+20
1.014593502e+20
1.015369102e+20
1.005495476e+20
1.00513695e+20
1.003572619e+20
1.002958594e+20
9.980859208e+19
9.988911768e+19
1.002395946e+20
1.002633908e+20
9.94940352e+19
9.930241941e+19
1.013322053e+20
1.014584077e+20
1.006798412e+20
9.965805918e+19
9.898724009e+19
9.917978039e+19
9.920070361e+19
9.908534232e+19
9.912799612e+19
9.929252134e+19
9.832466029e+19
9.837639863e+19
9.853716447e+19
9.842039351e+19
9.919974036e+19
9.925672614e+19
9.962933806e+19
9.89097333e+19
9.948666598e+19
9.972556204e+19
9.894010387e+19
9.973968526e+19
1.001265129e+20
1.006681071e+20
1.003458143e+20
1.003555978e+20
1.006658053e+20
1.007414388e+20
1.006535706e+20
9.973793463e+19
1.010047436e+20
1.006539988e+20
1.001453489e+20
9.999711282e+19
1.003673024e+20
1.001896843e+20
9.973831187e+19
9.963900143e+19
1.002334854e+20
1.006856751e+20
1.002244069e+20
1.001161666e+20
1.002772052e+20
1.000160802e+20
9.947909622e+19
9.931443425e+19
9.964386661e+19
1.002902201e+20
1.002850749e+20
1.00265007e+20
9.922344016e+19
9.949181509e+19
9.978274302e+19
9.996866076e+19
9.973696254e+19
1.002546074e+20
9.98787686e+19
1.000463184e+20
9.943753242e+19
9.955729409e+19
9.985746317e+19
1.00441204e+20
9.995933579e+19
1.005827502e+20
1.008448327e+20
1.004686102e+20
1.002299073e+20
1.001950975e+20
9.984042184e+19
9.902774859e+19
9.968328103e+19
9.983789797e+19
9.977567926e+19
9.968888156e+19
9.992558629e+19
9.985545422e+19
9.933873868e+19
9.951461121e+19
1.003980805e+20
1.008885856e+20
9.891920267e+19
9.93632032e+19
9.944839081e+19
9.957507403e+19
9.977516496e+19
9.930481612e+19
9.997079012e+19
9.98414397e+19
1.001131099e+20
1.003689368e+20
9.958806145e+19
9.95830126e+19
9.927650586e+19
9.904871036e+19
9.937165192e+19
9.986747758e+19
1.00149994e+20
1.007097322e+20
1.008402755e+20
1.002897522e+20
9.982030432e+19
9.908025639e+19
9.919644986e+19
9.983825552e+19
9.874131203e+19
9.871811002e+19
9.894158646e+19
9.800973282e+19
9.761224747e+19
9.839179668e+19
)
;

boundaryField
{
    flow
    {
        type            calculated;
        value           nonuniform List<scalar> 
48
(
7.729732219e+19
7.771156789e+19
7.714689777e+19
7.749403104e+19
7.762131324e+19
7.749634527e+19
7.738526262e+19
7.738526262e+19
7.755882925e+19
7.723715242e+19
7.786430653e+19
7.715615466e+19
7.755420081e+19
7.728343686e+19
7.787356342e+19
7.705201468e+19
7.773471011e+19
7.592961711e+19
7.592961711e+19
9.724822829e+19
9.807671969e+19
9.874784401e+19
9.865296092e+19
9.878024312e+19
9.881264222e+19
9.8810328e+19
9.884504133e+19
9.878950001e+19
9.965501896e+19
9.954625053e+19
9.953699365e+19
9.937962656e+19
9.92778008e+19
9.941202567e+19
9.928474347e+19
9.94791381e+19
9.974295939e+19
9.945136744e+19
9.982030432e+19
9.908025639e+19
9.919644986e+19
9.983825552e+19
9.874131203e+19
9.871811002e+19
9.894158646e+19
9.800973282e+19
9.761224747e+19
9.839179668e+19
)
;
    }
    obstacle
    {
        type            calculated;
        value           nonuniform List<scalar> 0();
    }
    frontAndBack
    {
        type            empty;
    }
    procBoundary2to0
    {
        type            processor;
        value           nonuniform List<scalar> 
31
(
7.748014571e+19
9.945599588e+19
9.992346869e+19
9.915283283e+19
9.956476431e+19
9.934491324e+19
1.003400286e+20
1.008190725e+20
1.013929995e+20
1.012055476e+20
1.005020241e+20
1.000854642e+20
1.003886273e+20
1.006107926e+20
1.004117695e+20
1.003377144e+20
1.004117695e+20
1.002127464e+20
1.006339348e+20
1.004927672e+20
9.976083905e+19
9.945630171e+19
9.925155908e+19
9.999753793e+19
1.013930208e+20
1.015715527e+20
1.002731779e+20
9.978645255e+19
9.983925246e+19
1.006633651e+20
1.006633651e+20
)
;
    }
    procBoundary2to3
    {
        type            processor;
        value           nonuniform List<scalar> 
19
(
1.019371582e+20
1.008154631e+20
1.012716199e+20
1.012691265e+20
1.000626811e+20
9.975608515e+19
1.02016924e+20
9.923511938e+19
9.970623204e+19
9.919772954e+19
9.990315113e+19
1.003892197e+20
1.005238224e+20
9.95267601e+19
9.974112993e+19
1.001773433e+20
1.009600372e+20
1.003892197e+20
9.785668073e+19
)
;
    }
}


// ************************************************************************* //
