/*--------------------------------*- C++ -*----------------------------------*\
| =========                 |                                                 |
| \\      /  F ield         | OpenFOAM: The Open Source CFD Toolbox           |
|  \\    /   O peration     | Version:  2406                                  |
|   \\  /    A nd           | Website:  www.openfoam.com                      |
|    \\/     M anipulation  |                                                 |
\*---------------------------------------------------------------------------*/
FoamFile
{
    version     2.0;
    format      ascii;
    arch        "LSB;label=32;scalar=64";
    class       volScalarField;
    location    "0.009";
    object      translationalT;
}
// * * * * * * * * * * * * * * * * * * * * * * * * * * * * * * * * * * * * * //

dimensions      [1 2 -2 0 0 0 0];

internalField   nonuniform List<scalar> 
546
(
287.6066814
304.0852217
298.3090111
300.3934183
299.846905
298.6458987
299.9716726
301.540173
300.6358074
301.2608595
303.2342973
303.0547713
301.5992056
300.8870491
299.1336757
300.2152114
298.8329192
297.9729907
298.1736472
299.6849942
289.0917159
304.7752858
298.5264014
299.4308378
299.8873799
300.6427436
300.2689436
300.3638045
300.5676599
300.6319877
298.6214215
300.0150534
300.6574711
300.9543681
300.6618525
298.3169248
298.343357
299.8071737
299.4362646
298.8769023
291.1391269
306.089535
298.4982152
299.8290875
301.1126309
302.1459115
300.6997379
301.5708958
300.0986623
300.1637424
300.2458991
301.3876527
300.0838656
299.0211754
300.4260086
299.947573
300.3650497
298.4793309
298.8580824
299.0971351
292.3925763
308.0434676
301.3053217
299.7659436
298.0450967
298.0893218
297.6825775
296.88649
297.787055
297.5839277
297.5373291
297.94624
298.9858435
299.3499122
300.4208779
301.3552498
300.7898242
303.3304641
305.0528821
302.8717084
289.7618347
306.1397222
299.9963453
300.9297185
299.8141839
299.8346169
299.2675044
299.7300801
300.7261584
299.3681993
299.2956857
298.2381803
299.7677964
300.9060339
301.0439995
303.3488714
303.9478796
303.346404
302.2392441
302.6707774
291.3586007
307.5625401
298.6468283
297.4007346
298.2343445
297.4229354
296.7540762
297.6687727
296.5517325
298.8225907
300.1841401
299.6425833
301.2260176
301.3960066
302.5824547
303.6951998
304.2711455
302.5780468
303.4649192
304.8677825
288.0241256
302.6783424
297.4652309
299.7805757
300.148003
300.5119442
301.0178742
302.0763495
301.6904542
300.8116905
299.6901732
298.5009772
298.9531724
297.4377725
298.1509336
297.4984389
297.8952318
300.1758311
300.8501736
299.9999865
289.4290546
306.3828492
299.8674646
299.9214897
300.0630143
299.7173746
300.8331917
300.6670111
300.2857689
301.8872657
301.6347139
300.4975622
299.2810752
299.6212266
299.0504207
299.8748341
299.7270311
298.9009892
299.7127067
301.0254578
291.6247598
305.7116844
298.4504889
298.2271043
297.9678859
298.7549941
298.277363
299.0817018
300.6589135
301.0659007
300.6570723
302.5343719
302.7859183
302.7646137
301.8690546
300.961324
301.1428211
301.0887103
299.5154427
300.8153186
289.198685
307.3671687
301.0340015
299.2380813
299.4624698
298.5108095
298.6502115
300.2536838
301.628268
300.2286587
299.497699
300.4689194
298.5075491
300.6702887
302.7014837
301.5170584
301.4801736
301.8733424
300.308026
298.3137191
292.5421716
307.0031502
298.3489126
299.1546627
299.9653067
301.8269293
299.8272322
297.9859208
297.8058571
298.9363421
298.6895616
298.6050668
300.3574983
299.2789397
297.4048641
298.1395486
299.8606727
298.2608733
298.8757948
299.4221856
288.1060516
304.2606899
297.2938001
300.1127127
298.8683041
298.5891814
298.5197719
298.1800799
297.8487638
298.5502944
298.2509504
298.1854932
298.4763344
300.490989
301.006855
300.406463
300.9144847
301.526067
301.8432769
301.2716197
290.7333141
306.168546
298.5880676
299.5009528
299.54762
298.835582
299.5692509
299.2133149
299.2660807
297.6522019
299.4181894
301.1063094
301.7655615
299.9309209
299.8054162
301.1321798
299.4354565
300.1175167
300.7332295
302.1190869
287.8177627
304.849267
299.5307164
300.8183286
300.7891425
300.1206327
300.7829621
301.7982349
302.958035
303.7096727
300.3101433
299.1925797
298.1803426
299.7231486
299.9833629
299.2896625
300.035024
298.7735194
298.3574941
298.2367145
293.7102029
309.0658171
299.5308186
298.5799334
299.9810695
301.4860634
302.5623258
304.0517675
303.3386927
303.6010363
301.9696533
302.4542516
301.2647717
299.8833428
298.4023897
298.7510687
299.6360893
300.8736154
300.7880902
298.1804656
290.8842371
305.580297
299.6499943
303.1286876
302.5080411
300.701972
300.0728019
297.613658
296.6585777
299.0403556
300.0812077
300.2780133
300.3247217
302.0225053
301.5449768
299.4442271
299.150847
297.2260524
297.750043
299.6831857
289.837768
305.2013855
298.866706
297.0465368
296.1962578
296.9243519
298.0004398
298.3138478
299.0829047
300.0460088
299.5165545
300.4063274
300.8656449
300.2587116
300.4690672
300.3975686
299.4132654
299.8449406
300.4236769
297.8906497
291.487068
304.363463
297.8413295
296.3076307
294.509559
296.4741367
296.7875259
297.3277669
297.6042292
298.204095
298.7817444
296.2638268
297.8599391
296.3168988
296.1288729
296.9279776
297.2738597
298.4486241
296.9562267
296.580505
305.3007224
307.8939731
305.313075
306.9648366
313.6941029
319.3537882
301.7531107
303.744352
302.3078121
303.120102
304.7915262
303.9148032
306.1341918
311.3089047
309.4472259
313.3560483
299.058294
298.863816
299.5124745
301.231908
304.1201752
306.3046785
306.5712857
307.2978828
309.3105851
311.7780801
300.9179781
303.0346722
304.402287
302.1005803
301.3260632
301.9852764
303.2228838
304.7806972
308.5515598
310.6400993
301.6110245
303.8118216
303.3212412
303.3778345
302.2965533
304.595748
304.721554
302.5319208
304.93819
306.1858409
302.9094339
302.5282769
302.3776143
302.8408207
302.7397084
302.9283144
305.8493473
305.9256955
306.006737
305.8305204
303.6523485
302.9228987
301.236211
303.0928888
305.4354857
302.3253521
302.1196736
301.7762384
302.3376676
301.4752188
300.7731271
300.7445245
302.8727676
299.7680929
300.4734876
300.557953
301.0317101
303.6627989
303.859049
304.2848318
300.0726195
301.8857556
299.5838829
299.1871747
300.608248
300.3335701
299.9268484
301.1380269
302.1737014
301.6151939
299.6459644
300.9891111
302.3541553
299.2092238
300.8585754
300.9196288
299.7195909
301.0766926
302.5856015
301.0414665
299.4099423
300.4123564
301.4501812
302.9490282
300.2319309
301.2272104
302.0405463
302.267198
301.9719703
301.2024962
299.1172679
299.394375
298.6525756
299.5084738
299.7574638
299.8591659
299.2868095
300.0655457
299.8012158
302.4952057
300.5788082
299.6187359
299.3675017
300.8567984
301.4975683
299.4817278
300.2672208
299.6874605
299.7022967
300.2821397
303.4778033
303.8567525
306.9394194
304.6727975
302.2810484
302.9793998
302.4709262
302.0466315
300.156424
298.7727337
298.1927965
298.281485
296.7665841
299.5563758
301.8009314
298.43372
298.051363
300.3665956
297.4635628
298.1846874
298.4214985
298.6892873
299.316076
297.523958
298.2514152
300.1224375
299.3049374
297.4151717
299.2371205
300.4075001
298.6264053
298.3344524
297.3909764
298.6182945
298.6943846
296.8448203
298.7463308
299.7113974
300.2899094
300.9680406
297.2354188
298.5938796
297.0470136
297.1744075
297.9947816
299.1039865
300.4420699
300.0337894
301.3011586
299.8854062
298.8017158
296.3477898
296.3048217
296.9768653
297.7219168
297.0334459
296.5747738
295.3074902
295.3526088
297.480097
)
;

boundaryField
{
    flow
    {
        type            calculated;
        value           nonuniform List<scalar> 
48
(
287.6066814
289.0917159
291.1391269
292.3925763
289.7618347
291.3586007
288.0241256
289.4290546
291.6247598
289.198685
292.5421716
288.1060516
290.7333141
287.8177627
293.7102029
290.8842371
289.837768
291.487068
291.487068
304.363463
297.8413295
296.3076307
294.509559
296.4741367
296.7875259
297.3277669
297.6042292
298.204095
298.7817444
296.2638268
297.8599391
296.3168988
296.1288729
296.9279776
297.2738597
298.4486241
296.9562267
296.580505
298.8017158
296.3477898
296.3048217
296.9768653
297.7219168
297.0334459
296.5747738
295.3074902
295.3526088
297.480097
)
;
    }
    obstacle
    {
        type            calculated;
        value           nonuniform List<scalar> 0();
    }
    frontAndBack
    {
        type            empty;
    }
    procBoundary2to0
    {
        type            processor;
        value           nonuniform List<scalar> 
31
(
289.8586808
306.3137389
298.4834119
299.0611836
297.73652
298.3851713
298.8947027
300.7194213
300.6834054
299.7024818
299.2439038
298.9551685
301.3354248
301.5676382
302.5280355
300.0737969
299.4659752
302.6888428
302.582072
302.4397836
306.2447692
309.7627074
312.7998274
321.7015661
327.451149
330.690244
298.1434985
300.5218228
301.8536076
304.3466502
304.3466502
)
;
    }
    procBoundary2to3
    {
        type            processor;
        value           nonuniform List<scalar> 
19
(
326.2508644
320.1854158
316.5211521
314.9476275
310.9191124
308.4602
304.7913601
305.3027488
302.1523098
300.2608149
301.3307398
304.1325978
301.1731671
298.7352772
299.9724642
301.8585894
301.7224246
299.8430557
297.5163236
)
;
    }
}


// ************************************************************************* //
