/*--------------------------------*- C++ -*----------------------------------*\
| =========                 |                                                 |
| \\      /  F ield         | OpenFOAM: The Open Source CFD Toolbox           |
|  \\    /   O peration     | Version:  2406                                  |
|   \\  /    A nd           | Website:  www.openfoam.com                      |
|    \\/     M anipulation  |                                                 |
\*---------------------------------------------------------------------------*/
FoamFile
{
    version     2.0;
    format      ascii;
    arch        "LSB;label=32;scalar=64";
    class       volVectorField;
    location    "0.009";
    object      UMean;
}
// * * * * * * * * * * * * * * * * * * * * * * * * * * * * * * * * * * * * * //

dimensions      [0 1 -1 0 0 0 0];

internalField   nonuniform List<vector> 
546
(
(1708.10677 1.91242592 0.9022287506)
(1742.050992 3.608048459 1.108781258)
(1733.930086 4.331253109 2.190211109)
(1731.931146 2.886069035 1.296777923)
(1732.918059 -0.8100084784 0.6140768127)
(1734.222855 -2.939993808 1.583915621)
(1734.861383 -0.1784520021 2.402046712)
(1734.730874 -0.7498692312 1.728015612)
(1737.063737 -2.085836254 2.000668064)
(1737.511794 -2.405187831 0.4359700735)
(1737.193494 -2.635202268 -2.549346829)
(1738.985324 0.1497242978 -0.2676114153)
(1739.816605 1.501094098 -0.06642475174)
(1738.544798 2.215584678 1.309595962)
(1738.967151 2.291686051 2.865728895)
(1738.096542 1.886306422 -0.3308151433)
(1738.076904 0.6313686734 -1.882580175)
(1739.35721 -0.2790062582 -0.5218992)
(1738.495785 2.107223156 -1.277925981)
(1737.702939 3.551930887 -1.958549201)
(1710.006218 0.7337787204 3.278361603)
(1747.243478 -0.06935948127 3.102936043)
(1739.625504 1.46202923 4.373484852)
(1738.143043 1.002748182 2.33584579)
(1736.449049 2.504409648 1.861841798)
(1734.676679 2.641331105 0.09357349455)
(1736.155589 -2.54003767 -0.6923620167)
(1735.993292 -4.10370998 -2.566677645)
(1735.512369 -3.053786806 -2.22209558)
(1735.252945 -1.092629764 -0.3682981717)
(1737.014266 0.7321642289 -0.7796173223)
(1736.426986 0.2227556032 -1.951915391)
(1735.866482 -0.1278063924 -3.35971399)
(1738.208659 0.3433299445 -3.488175351)
(1737.927036 1.982488101 -2.64908434)
(1738.231321 1.94932594 0.3160519301)
(1737.997379 2.611736107 0.9017207899)
(1736.531586 4.19350581 0.3140530495)
(1736.325367 1.924969444 1.500374446)
(1736.509214 1.007874307 1.934718703)
(1709.11099 0.8922732294 -4.228607828)
(1745.92607 0.3085319303 -4.5323561)
(1738.310752 -2.503859178 -2.006267423)
(1737.119571 -3.717357872 -1.367967309)
(1738.628282 -3.317233749 0.569299758)
(1739.932008 -3.386967531 1.316991355)
(1738.213976 1.690321076 0.1695887528)
(1739.087389 4.698509441 1.028156917)
(1739.520898 4.920844343 -0.4431875478)
(1737.079675 3.065995654 -0.8702731822)
(1736.790201 3.321162757 -1.58771692)
(1736.310002 2.832814778 -0.7265522961)
(1733.712282 1.472584571 1.306234001)
(1735.026769 1.419858839 1.07831774)
(1735.830623 0.8652394357 0.9453831251)
(1735.653117 0.9926677087 -1.004286247)
(1736.206049 0.04241325442 -0.8213315045)
(1736.162362 -1.012848381 -0.5990843744)
(1737.814358 -0.2296286016 0.4453448784)
(1737.361309 -2.603582702 -2.115097476)
(1708.982512 0.4795750069 0.2821085032)
(1746.586339 -0.791229123 1.121853061)
(1738.770055 0.009035466257 -0.7500326808)
(1738.530422 0.05589055235 -0.2276302135)
(1739.06424 -0.1959137482 -0.09971308061)
(1739.780813 0.6931772598 2.200385491)
(1739.345617 -2.43610464 1.464962224)
(1739.206594 -2.521968571 0.6410059955)
(1739.055218 -0.9485727808 1.132239829)
(1738.006876 0.5295428764 1.09966855)
(1737.521674 -0.391974506 1.515125615)
(1739.414103 0.2733218337 2.921511462)
(1739.964156 3.942203582 0.6899981723)
(1738.808212 4.680278843 1.336822969)
(1739.289288 4.439992494 1.96812614)
(1738.168186 2.377920402 1.770562162)
(1739.237 2.566605154 2.473489896)
(1737.656726 1.185295864 1.633961814)
(1735.730143 -0.4142252935 0.5382895467)
(1737.349941 -1.582302276 1.756913279)
(1710.983088 -1.870824134 -0.4842303421)
(1745.560323 1.071047996 0.1389024979)
(1736.864237 1.638545836 0.6665887604)
(1735.073982 0.2572139327 -1.145807925)
(1736.268818 1.632370958 -1.328108076)
(1734.574323 3.057651475 -2.548317879)
(1735.287262 3.847772758 -0.7597958878)
(1736.58593 3.329685927 2.286439413)
(1736.232126 -0.116022111 2.38731943)
(1738.533664 0.5990620208 2.597972452)
(1740.586877 3.537330436 1.386052024)
(1740.448353 1.226054452 1.610814937)
(1740.321483 0.03758114957 1.333750201)
(1738.921391 -0.6824634077 0.07316650199)
(1736.474398 -0.9350029532 -1.31358863)
(1735.738325 -0.2578661367 -0.4209952709)
(1735.516825 -2.101055107 0.6010228367)
(1735.534719 -2.38039833 0.8453664399)
(1735.022819 -2.440265468 0.8918099171)
(1734.989393 0.1322752049 1.32987339)
(1708.613906 2.100908466 1.175792812)
(1745.029488 2.761929835 0.2315954858)
(1736.013661 3.126264298 0.1050351099)
(1736.37398 5.948063861 2.347161676)
(1734.998643 4.263053701 3.206603868)
(1736.3808 3.833481643 3.464003455)
(1735.644917 2.188435386 2.998909552)
(1735.401856 0.5949349275 0.1861771424)
(1735.868031 3.058520343 1.133310638)
(1735.355025 -1.016621341 0.08671887764)
(1733.619727 -3.523438028 0.8821008326)
(1733.941798 -3.636327369 -0.2423921164)
(1733.9323 -3.983379931 -0.1477982092)
(1735.95216 -3.755807906 1.257840926)
(1736.766338 -3.31121326 1.262273381)
(1736.147705 -3.805682372 0.5275313978)
(1734.963975 -1.923140995 -0.4517559967)
(1734.528066 -0.0003564142451 -0.6999128896)
(1733.27817 1.309511426 0.6990470776)
(1734.830833 0.1425267925 -0.4148317812)
(1707.437488 2.00017439 1.844876587)
(1745.139192 2.680153855 1.698321533)
(1736.261479 0.7547132424 1.719209897)
(1736.37359 0.2469399523 0.5158827524)
(1736.014624 -1.107431248 -0.5575215315)
(1735.727341 -1.338415486 -0.422714932)
(1735.107658 -1.070674011 -0.1887338973)
(1736.499241 -0.4432454767 -0.4221950151)
(1736.508925 0.2974779593 -0.462744034)
(1734.381134 -0.1642022479 0.1557947035)
(1736.441963 0.8399661975 1.385784862)
(1735.20601 0.9370898039 0.340299605)
(1734.427362 0.6132983811 -1.212509978)
(1734.40737 0.2711541858 -1.256080603)
(1732.328431 -0.4317619948 0.1145063213)
(1733.594441 0.4018668674 -0.1383689214)
(1731.942546 -0.9680234654 0.6652101404)
(1732.95992 -1.311606387 0.949506118)
(1732.762699 -1.515644962 0.7557269945)
(1733.638932 -1.208385804 -0.39002174)
(1710.921399 -1.655017445 1.406001972)
(1747.292048 -3.169765538 -0.8125662105)
(1738.496214 -2.893473291 -0.6481858336)
(1738.101722 -1.723539426 -1.072267364)
(1738.46788 -2.590784083 0.9762586337)
(1738.292704 -1.356676978 -0.6766736183)
(1737.136135 0.8439587887 -2.676533907)
(1735.924351 1.813204668 -2.691185599)
(1736.034819 -0.1351137515 -3.107098015)
(1736.310726 2.208791673 -2.602031812)
(1736.496771 2.492654072 -2.937219641)
(1735.31714 0.748995568 -4.061864903)
(1734.766214 -0.1399518828 -2.155982958)
(1736.369152 -0.9939679474 -2.955686828)
(1736.012011 -0.3820532479 -1.848924347)
(1735.075684 -1.417443255 -2.299707097)
(1736.826548 -2.359260215 -2.283179788)
(1735.530986 -1.349534025 -3.913616479)
(1733.682831 -2.013650485 -3.125224059)
(1733.650314 -1.281194153 -2.697026245)
(1707.971813 -1.950546639 -1.176042975)
(1744.28738 -3.402418295 -1.5000187)
(1734.790975 -5.787663485 -0.6051753388)
(1733.731601 -3.944399213 -2.821476458)
(1733.185036 0.1719538457 -2.138428581)
(1733.282595 1.685654288 -0.6884344988)
(1734.368895 0.878816014 0.2946573766)
(1735.185332 -1.908262121 0.8185800196)
(1735.729902 -0.6311410493 1.815148987)
(1734.451157 -2.001111416 0.2329327289)
(1733.384248 -2.113888487 0.3603193594)
(1733.439295 -1.083967444 2.281825946)
(1734.005461 0.2824340977 3.271896347)
(1733.832014 1.328732908 2.551647538)
(1734.732731 -0.03852063675 1.074556847)
(1733.804657 1.060487977 -0.2356444236)
(1733.334212 -0.8430320229 0.244020453)
(1733.36248 -0.2391759661 -0.4775492804)
(1736.137797 0.6363307963 -0.7936856351)
(1737.429375 0.001821634859 -0.7151496491)
(1708.308766 -0.002542170405 0.03041774657)
(1744.481619 1.440109914 1.384123216)
(1736.623332 1.448914357 0.5061294552)
(1738.404385 -1.26075498 1.114652283)
(1739.548312 -2.751944291 2.686498436)
(1737.795205 -3.764884759 3.135285785)
(1738.01473 -2.425623052 3.471077337)
(1736.832455 -1.136259245 1.147260077)
(1737.129111 -1.305857035 0.9613465748)
(1738.279726 -2.350906612 0.4426281776)
(1737.147723 -0.5099161543 0.3537703448)
(1738.204122 1.136761963 -0.9071444549)
(1737.580687 -0.0489159692 -3.049942559)
(1737.692124 1.339160165 -2.789010623)
(1737.057512 0.616724257 -0.8133865228)
(1736.8069 2.086348168 -0.9314868364)
(1736.231911 4.118335013 -0.9800406782)
(1735.405482 4.416151734 0.5130932713)
(1736.870846 3.565817001 0.3455407792)
(1737.862623 2.383824648 -0.3327596311)
(1708.312407 0.3454186426 0.5859527211)
(1746.344601 -0.7387591014 0.2085994354)
(1739.77806 0.9702830649 2.304637917)
(1737.55263 -0.2133314371 3.921642273)
(1737.550226 -0.5634984526 0.3484376561)
(1734.587434 -2.022333428 -0.5923815667)
(1734.766256 -1.514084897 -0.2551765839)
(1736.241137 -0.9314090685 0.3733583435)
(1736.027529 -0.4864158177 0.7807709931)
(1732.993475 0.9887897454 0.9248429059)
(1733.666128 -0.2384708173 0.7141881022)
(1733.393006 -0.2756523357 1.50374541)
(1731.681295 0.08077032783 2.353635857)
(1733.422544 -0.1553721559 1.448232479)
(1735.585131 0.6803431209 0.5058230802)
(1735.85134 1.508154002 2.300400795)
(1736.762918 2.200916256 1.112186351)
(1737.367951 0.9087731528 0.6953783107)
(1737.754204 1.529765951 1.066723874)
(1737.594362 2.51004523 2.540246344)
(1709.411565 -0.3789164862 1.275085517)
(1744.752456 1.039117193 0.9740587894)
(1735.937499 -0.9646096877 -2.734881801)
(1735.010326 0.7586193809 -3.305388303)
(1736.433201 -0.3535676085 -2.334049628)
(1737.810789 -0.5186787653 -2.30392552)
(1736.886161 -1.155058339 -2.339985207)
(1737.886595 -2.55648837 -3.444739698)
(1739.198018 -2.12358268 -1.970276072)
(1738.25114 -0.3247144901 -2.179752207)
(1739.250305 -0.7684016464 -4.206686674)
(1740.047997 -0.006468624628 -3.600249754)
(1741.561912 1.073775017 -1.742663908)
(1739.699662 0.4255751076 0.3625986609)
(1737.469728 0.2325337336 -0.3008832508)
(1737.591539 -1.624833117 -0.4290827512)
(1735.794421 -1.179096818 -0.8735361505)
(1734.643215 -0.658847547 0.7946714958)
(1735.185768 -1.058223351 -0.0764860978)
(1733.068369 -0.0121460922 -0.2036318465)
(1711.476137 0.609198057 -4.074023812)
(1747.69777 -0.2192771278 -4.258834235)
(1736.492226 0.5057576371 -3.047783289)
(1736.998306 1.554027012 -3.487451265)
(1736.27757 1.915172375 -3.168345762)
(1737.157202 0.4988059291 -2.628720585)
(1737.677731 1.435624836 -2.128042607)
(1736.209369 1.509985421 -1.838531778)
(1735.748953 0.6069759978 -1.571136189)
(1737.949325 -2.711315693 -0.1329193685)
(1735.81626 -0.6689469619 0.6202322756)
(1735.859967 -3.044781659 1.179608016)
(1736.346774 -2.920447605 -0.6359471517)
(1736.93813 -1.047955493 -1.246217693)
(1737.191381 -1.015823065 -1.023249136)
(1736.419664 0.3258076782 -0.445230738)
(1738.044493 0.5040344326 -1.25991801)
(1738.258221 1.31086689 -1.214662846)
(1737.637394 3.314787402 -0.9947310771)
(1736.372894 4.167581485 0.09526943514)
(1707.654252 1.39676635 -4.378296451)
(1746.916798 0.1722538466 -2.95720795)
(1738.173712 -0.4003780187 -2.264744108)
(1736.330288 -0.3178768038 -1.872335491)
(1736.031378 -1.651585023 -0.9236693982)
(1733.953152 2.22742746 -0.368344421)
(1735.614513 1.949414812 0.1316358586)
(1732.465718 2.960849219 0.5220456424)
(1735.445613 0.3862843968 -1.661664091)
(1735.46923 1.122655104 -1.152309166)
(1736.36967 -0.2855544483 -3.24362493)
(1735.901166 0.1731226112 -2.903493631)
(1735.366068 0.06481261996 -4.070332531)
(1733.052088 0.5987528781 -2.133427928)
(1733.955727 1.716515 -1.246482296)
(1734.271515 1.87320512 -1.314703902)
(1734.563605 0.3183134853 -1.594935982)
(1736.514387 0.3726748288 -2.638845512)
(1738.319223 -0.9046768722 -1.124936025)
(1737.247014 -0.1166470055 -2.775410698)
(1704.723014 -1.449224255 -1.975880263)
(1739.877765 -0.8190759549 -1.597761997)
(1731.707805 -1.691284103 -1.637458261)
(1733.191707 -0.3088200959 0.007733135729)
(1731.961299 0.526013456 0.04359332458)
(1731.960621 1.227225975 -0.3788175258)
(1732.541723 -1.730373486 0.499459126)
(1732.133859 -2.197983333 0.7847022756)
(1732.09946 0.9823966554 0.6154546618)
(1731.124467 4.82811305 1.783398299)
(1730.744946 5.148831726 1.307496619)
(1731.760684 4.534359933 0.5019852636)
(1732.746754 3.064004037 2.84699598)
(1734.928584 -0.6323390689 2.964257681)
(1735.15524 -2.614556453 -0.7823903813)
(1734.723531 -3.048603845 -1.985849363)
(1735.222362 -3.022361203 -0.7680228516)
(1732.199961 -2.892798473 -1.549000723)
(1733.353877 -4.067821514 -4.054550565)
(1734.098024 -3.420994745 -3.524471526)
(1707.372141 2.259031561 -2.119789789)
(1744.191157 2.550668385 -1.852021031)
(1737.266373 3.856145043 -1.566165276)
(1736.279708 3.139229962 -0.8995446555)
(1736.655236 1.655235787 -1.702175081)
(1737.619038 1.89089878 -0.8555154336)
(1736.775364 2.776912988 -1.031213687)
(1737.944259 5.087447567 -0.6526637245)
(1740.093493 1.946873469 -1.458446158)
(1737.966811 -1.414155394 -1.937457131)
(1739.446448 -1.617994257 -1.151116357)
(1736.863301 -0.7405357158 -0.3475031115)
(1737.385043 0.2137368214 -3.350237039)
(1734.028256 1.37423589 -2.869656653)
(1734.36634 0.9648628294 -2.240798201)
(1735.794978 -1.13219469 -0.9273641265)
(1736.608295 -2.283083485 0.7597495804)
(1735.958902 -2.235619864 -0.4784327829)
(1735.768879 0.1805436358 -0.1334151757)
(1735.338286 -1.292585745 0.8105973591)
(1708.601782 2.133434268 0.08154157918)
(1747.94631 1.383133541 -0.9634645039)
(1738.684604 0.4839470004 -3.231820044)
(1738.945834 1.433088757 -2.563871907)
(1740.754977 2.09384996 -2.275990785)
(1738.602414 3.171133467 -2.095168793)
(1737.823822 2.899127847 -3.032500745)
(1738.896633 1.055866827 -2.975844049)
(1735.174137 2.874340618 -1.078224527)
(1736.409392 2.765146726 -0.2421957499)
(1734.826905 0.2268307271 -0.585863152)
(1735.826396 -1.002590708 -1.217167214)
(1735.572534 -0.8085939888 -1.994973294)
(1735.208336 0.700870613 -1.672850471)
(1736.781341 0.2211932264 -1.904065726)
(1735.451347 3.44655931 -2.190792038)
(1737.071951 5.909717708 -3.403852507)
(1736.354092 3.519229706 -0.4101592349)
(1737.317255 0.6136477549 -0.9942616345)
(1737.362341 0.7896931324 -1.973298114)
(1711.124546 4.85416027 -0.472024423)
(1746.580628 4.849973825 0.4537826123)
(1736.935796 6.636355831 2.217104897)
(1735.989613 6.631959769 0.8754306462)
(1737.574727 6.740234974 -1.110641062)
(1739.184772 6.718745608 -1.915467458)
(1737.146059 5.991297726 -1.139434584)
(1735.380288 6.092893541 0.3719730799)
(1735.824644 5.000818054 -1.081963626)
(1735.00206 6.290680457 -3.048219874)
(1733.714002 9.664575461 -3.937305466)
(1734.492986 10.76453136 -1.146950832)
(1734.532528 8.447884973 0.3336494498)
(1735.553475 6.765783815 1.313353034)
(1734.379238 8.005865886 0.9715576748)
(1734.622587 8.076739088 1.297792079)
(1733.340582 4.789431676 1.334223913)
(1731.559926 6.278459654 0.256408345)
(1733.343631 6.072630898 0.6062693454)
(1734.524185 6.901123017 2.227293594)
(1734.160638 6.84565424 -1.250493329)
(1732.989053 5.095247735 -1.970684407)
(1734.065077 5.07961139 -2.40060359)
(1733.473892 3.270882104 -2.691991687)
(1732.454537 5.357234831 -2.852813341)
(1730.351305 9.711794266 -0.6725931023)
(1736.038549 2.595625318 -0.375464758)
(1736.067113 3.436332822 -0.5567371136)
(1737.981526 2.317615125 -0.632631415)
(1737.081024 2.288193509 -0.5905985757)
(1735.332232 -0.2052242266 0.6365145815)
(1735.450765 0.2866557793 2.264975931)
(1733.468115 1.778226259 2.524299219)
(1732.15662 5.087888028 2.597576192)
(1732.594063 5.822623785 0.6988167599)
(1733.651475 7.220180578 0.2490301406)
(1736.471183 0.7600265315 1.441294789)
(1735.907552 0.4081932883 2.29868739)
(1733.246089 0.4968373963 4.491186597)
(1733.430045 -1.916738499 3.92802218)
(1733.284477 0.05759988923 2.365392586)
(1733.304022 3.256160301 3.339467719)
(1735.26596 3.266266013 2.295684823)
(1735.047064 5.571953971 3.310101042)
(1735.509312 5.629578998 3.660154808)
(1731.009903 7.220419247 3.155331103)
(1735.453231 -2.129903093 -1.808470335)
(1734.461604 -1.780000594 -1.287780819)
(1735.085403 -1.514514854 -1.403704271)
(1736.767781 -1.915011174 -1.637592586)
(1737.34401 -3.151205157 -1.072504721)
(1736.436014 -1.304846057 -2.574128409)
(1736.92536 -0.2414298889 -2.030917092)
(1736.118186 0.006834097075 -2.998791692)
(1734.901607 0.3863395989 -1.735751366)
(1731.894789 1.220045556 -1.200267112)
(1738.153988 -2.691639396 -0.1514129909)
(1737.829782 -0.8925164803 -0.4378200105)
(1738.026354 1.492567143 -0.7848483667)
(1736.639558 2.016730642 -2.430288464)
(1736.624357 2.389298246 -0.8923636616)
(1733.545573 1.586015292 -1.184806481)
(1733.167402 -1.50358753 1.340593465)
(1734.00586 -2.620100645 1.604492995)
(1733.162801 -1.34689454 0.8477526504)
(1732.701453 0.2729746667 -1.107338407)
(1733.576939 0.3076265733 3.467523118)
(1733.875948 1.819981754 2.404809643)
(1734.658117 0.5647641096 2.408430907)
(1735.480515 0.8853329604 2.440636932)
(1736.495726 0.9949440588 0.7125531903)
(1736.762391 -1.293674566 1.575886549)
(1734.443323 1.425049707 1.567820378)
(1734.712839 1.558537732 0.9552740748)
(1733.082355 0.0674698454 1.069228398)
(1732.498829 2.10236737 1.608404562)
(1736.413883 0.1481549044 -1.696691576)
(1737.160945 -0.3562852684 -1.129985512)
(1737.873006 0.2861136354 -1.719784764)
(1733.723181 -0.168020364 -0.3750092393)
(1731.776781 -1.166956788 -0.01341839674)
(1731.219379 1.796856164 -0.4038288091)
(1732.597218 1.698657973 -2.285363106)
(1734.134072 2.276804586 -3.555440956)
(1734.529769 3.685330851 -3.766441612)
(1731.838987 3.464702763 -4.512541091)
(1730.942781 -0.3494804804 1.203992855)
(1729.476553 -1.407259112 -0.07181992845)
(1729.711299 -4.112410391 -0.341646512)
(1732.515279 -2.27602052 -1.757707656)
(1732.88885 -0.5637707875 -3.630072889)
(1733.785908 -1.092764454 -3.680137184)
(1734.431941 -0.4572366795 -2.1064637)
(1734.638919 0.3806217317 -1.857402735)
(1735.551713 0.6131107173 -1.290090713)
(1737.709341 0.6413839992 0.02133618605)
(1733.622072 -0.1007624608 -1.267601528)
(1734.154768 0.8005918719 -2.564894979)
(1736.099086 2.082076418 -0.1644663148)
(1735.373035 0.9964284499 0.02842231512)
(1737.492914 1.753507928 -0.2274380704)
(1735.87062 3.22653748 0.3560315418)
(1736.287168 1.596076728 -1.4607609)
(1735.719073 2.049292915 -1.863328048)
(1735.061961 -0.1391325769 -3.119967629)
(1732.287942 -1.720076427 -4.230330291)
(1736.36141 0.833639265 -1.754628647)
(1735.265027 2.617571481 -2.043441622)
(1736.931158 3.354135243 -1.823599421)
(1737.049968 4.459505178 -0.8997295549)
(1735.101128 2.897952926 -1.037458937)
(1735.255257 2.334170559 -2.122836687)
(1732.558645 -0.3249581039 -0.7043022283)
(1732.544449 0.135328444 0.9193153277)
(1733.715035 -0.02438868345 1.386212397)
(1735.001634 0.4091161633 0.4798624844)
(1739.271584 2.099247834 -1.117796429)
(1738.747522 2.020979435 0.5846481413)
(1735.195337 2.199549267 -1.947727654)
(1734.247903 0.8548693728 -0.7106256601)
(1734.635151 0.05893941403 -1.328584891)
(1736.015499 -1.371152581 -1.092731425)
(1735.852776 1.036425194 -1.512389454)
(1735.93629 1.088018337 -2.844034727)
(1735.883527 2.872441402 -1.280512611)
(1735.659449 4.234581829 2.084274578)
(1735.526576 1.972058628 2.159822559)
(1735.239971 -1.074786105 0.8666101009)
(1738.306348 -2.393218743 0.947801405)
(1739.262096 -0.5420626523 0.9621804081)
(1738.834043 2.092408609 1.279101168)
(1737.760994 3.679341249 1.290581341)
(1737.440806 1.281619573 1.570954512)
(1737.355568 3.223233287 4.220611072)
(1736.675925 2.425611069 2.639263214)
(1736.473125 3.651663943 0.204082574)
(1734.873436 0.8431135984 -0.1884307803)
(1736.645886 3.154192902 0.6617887544)
(1733.877998 4.291873851 0.6255481207)
(1734.051674 3.659728156 1.286725434)
(1734.722118 2.277553735 2.401710012)
(1735.736999 0.6836817135 0.7375942664)
(1736.499951 -0.03324856935 0.4866487305)
(1735.541776 -0.7274053321 -1.197558978)
(1736.301714 -1.017243633 -2.992787764)
(1736.79652 -0.1974453636 -4.822397723)
(1735.691528 2.636539145 -1.327815543)
(1734.423351 1.720469506 -1.895090126)
(1734.487249 0.4747733462 -2.330927392)
(1733.72682 0.9264617473 -3.84009371)
(1736.349877 -0.5707107763 -2.9019384)
(1735.966018 0.2457767597 -2.684425296)
(1735.965472 1.514962035 -3.687730017)
(1736.969471 -0.4356413666 -3.649994648)
(1738.383973 -0.9413349985 -2.336487146)
(1737.768831 -3.668921843 -0.4680285272)
(1738.662053 -0.7208373147 -1.479210861)
(1737.479109 0.1270414625 -1.102727425)
(1736.856878 0.3770942473 0.047301595)
(1735.489921 1.464013568 0.1815845982)
(1733.586767 3.306640288 0.6317522612)
(1734.105062 3.085503506 0.6119217547)
(1734.220113 2.008927389 1.879025236)
(1735.077418 2.586974538 3.049859756)
(1734.966292 5.779927783 3.085346089)
(1735.517479 5.238011793 1.994151177)
(1735.89549 -1.505295594 -1.872684417)
(1735.234856 -0.1730482392 -2.102182529)
(1734.684591 1.268397377 -1.200768404)
(1736.908056 0.5051834385 -0.884248593)
(1737.844062 0.3435519384 0.465979326)
(1737.763965 1.447845022 -0.2952337174)
(1736.061952 4.961394051 -2.608630119)
(1737.775004 6.279918995 -2.864444721)
(1733.787646 4.429179022 -2.934909247)
(1734.592173 2.091109326 -1.700907721)
(1735.121538 -1.551451468 -2.359900602)
(1734.907874 -2.728849992 -1.019854366)
(1736.079974 -1.928895174 -2.618850218)
(1734.644902 -1.192014027 -2.900917755)
(1736.213864 0.5981413937 -3.647350846)
(1734.954996 1.449409487 -0.7147126804)
(1734.553729 1.179013169 -0.1518467884)
(1731.960564 -1.384450805 -1.553633976)
(1732.322219 -2.023905513 -1.955670067)
(1732.881433 1.93970547 -0.9927167281)
(1734.329326 0.1749897604 -0.8943614259)
(1732.97763 -0.04153855969 -1.27205403)
(1732.960435 -2.30066662 -2.116442531)
(1732.616729 -1.720816471 -0.6938036755)
(1732.982122 -2.089614825 -1.740180296)
(1732.340292 -2.644341023 -3.959807887)
(1733.284335 -2.571057664 -1.991746096)
(1733.378616 -3.662103183 -0.8734844829)
(1733.959759 -2.587616753 -0.8448388638)
(1734.778881 -2.356571065 -0.6303158403)
(1734.955521 6.173520733 1.705077754)
(1738.339494 7.539579096 -0.7758040301)
(1739.057636 6.179418315 1.10182399)
(1740.254884 4.909098921 1.710351034)
(1740.342599 4.340264232 0.3628464031)
(1739.680703 4.727572336 2.648946543)
(1740.309562 3.809652972 3.702295656)
(1739.964688 4.287827562 2.171183472)
(1738.499058 6.181890221 2.698486125)
(1738.621344 4.759308354 2.168644946)
)
;

boundaryField
{
    flow
    {
        type            calculated;
        value           nonuniform List<vector> 
48
(
(1708.10677 1.91242592 0.9022287506)
(1710.006218 0.7337787204 3.278361603)
(1709.11099 0.8922732294 -4.228607828)
(1708.982512 0.4795750069 0.2821085032)
(1710.983088 -1.870824134 -0.4842303421)
(1708.613906 2.100908466 1.175792812)
(1707.437488 2.00017439 1.844876587)
(1710.921399 -1.655017445 1.406001972)
(1707.971813 -1.950546639 -1.176042975)
(1708.308766 -0.002542170405 0.03041774657)
(1708.312407 0.3454186426 0.5859527211)
(1709.411565 -0.3789164862 1.275085517)
(1711.476137 0.609198057 -4.074023812)
(1707.654252 1.39676635 -4.378296451)
(1704.723014 -1.449224255 -1.975880263)
(1707.372141 2.259031561 -2.119789789)
(1708.601782 2.133434268 0.08154157918)
(1711.124546 4.85416027 -0.472024423)
(1711.124546 4.85416027 -0.472024423)
(1746.580628 4.849973825 0.4537826123)
(1736.935796 6.636355831 2.217104897)
(1735.989613 6.631959769 0.8754306462)
(1737.574727 6.740234974 -1.110641062)
(1739.184772 6.718745608 -1.915467458)
(1737.146059 5.991297726 -1.139434584)
(1735.380288 6.092893541 0.3719730799)
(1735.824644 5.000818054 -1.081963626)
(1735.00206 6.290680457 -3.048219874)
(1733.714002 9.664575461 -3.937305466)
(1734.492986 10.76453136 -1.146950832)
(1734.532528 8.447884973 0.3336494498)
(1735.553475 6.765783815 1.313353034)
(1734.379238 8.005865886 0.9715576748)
(1734.622587 8.076739088 1.297792079)
(1733.340582 4.789431676 1.334223913)
(1731.559926 6.278459654 0.256408345)
(1733.343631 6.072630898 0.6062693454)
(1734.524185 6.901123017 2.227293594)
(1734.955521 6.173520733 1.705077754)
(1738.339494 7.539579096 -0.7758040301)
(1739.057636 6.179418315 1.10182399)
(1740.254884 4.909098921 1.710351034)
(1740.342599 4.340264232 0.3628464031)
(1739.680703 4.727572336 2.648946543)
(1740.309562 3.809652972 3.702295656)
(1739.964688 4.287827562 2.171183472)
(1738.499058 6.181890221 2.698486125)
(1738.621344 4.759308354 2.168644946)
)
;
    }
    obstacle
    {
        type            calculated;
        value           nonuniform List<vector> 0();
    }
    frontAndBack
    {
        type            empty;
    }
    procBoundary2to0
    {
        type            processor;
        value           nonuniform List<vector> 
31
(
(1707.947322 4.965398917 0.3659138089)
(1747.152009 2.6384715 -0.6484823981)
(1738.055364 -2.63369242 -2.308248154)
(1739.97854 -0.5132642119 -1.707344873)
(1739.307311 -0.3863724989 -1.660898936)
(1737.506263 1.641916233 -0.7755187304)
(1735.599594 1.544955802 -2.020879267)
(1736.029203 2.123683867 1.098608939)
(1734.295159 2.447756892 1.382694358)
(1733.545474 3.133809493 0.2070002105)
(1732.351013 3.169068229 4.147822259)
(1730.78091 -0.7304723781 3.333730349)
(1730.578184 -1.179029335 3.295188471)
(1731.328446 -2.211906861 1.694632869)
(1731.820677 -4.181585119 -1.192658808)
(1735.184606 -3.645285471 -0.325797902)
(1734.933041 -1.554000625 0.8179421479)
(1735.426773 2.68401202 -0.7912349824)
(1736.836155 3.389830694 -1.057171174)
(1737.529863 5.014539429 -1.511955714)
(1737.280375 4.216412285 0.2327021024)
(1735.441174 5.608875149 0.351678433)
(1734.373765 4.344266498 1.280428544)
(1729.540222 5.992641371 -1.003037997)
(1725.286721 7.768368114 1.739118229)
(1724.100971 10.44083076 2.765791939)
(1738.197742 3.86283798 -2.334173743)
(1738.438993 6.410159865 -1.87874953)
(1734.50156 3.95651902 -2.626452771)
(1734.972893 4.436396142 -1.920652653)
(1734.972893 4.436396142 -1.920652653)
)
;
    }
    procBoundary2to3
    {
        type            processor;
        value           nonuniform List<vector> 
19
(
(1726.8787 11.59169448 -0.768653495)
(1730.795628 9.635297705 2.005459608)
(1731.679216 8.436808532 1.292318903)
(1731.772288 4.151844006 0.287297382)
(1730.935676 -0.661736674 -0.5883391831)
(1732.968922 2.193068596 2.052592827)
(1732.884867 5.079498768 -4.130025527)
(1737.387204 0.3090418621 1.094424924)
(1732.475953 -0.9863573156 -3.460260015)
(1735.185304 1.014767474 -0.8512752727)
(1735.893285 3.694098034 3.761788197)
(1735.820612 2.51391814 -2.087383483)
(1735.718267 -1.011560919 -3.874191315)
(1735.045455 0.8899021339 0.4812959051)
(1737.250589 0.6233768173 0.2465685223)
(1733.89556 4.039834319 -1.461713425)
(1732.625129 2.268042253 -0.7544570466)
(1735.709709 -0.3256083351 0.1810186401)
(1735.023323 3.240418783 1.510999557)
)
;
    }
}


// ************************************************************************* //
