/*--------------------------------*- C++ -*----------------------------------*\
| =========                 |                                                 |
| \\      /  F ield         | OpenFOAM: The Open Source CFD Toolbox           |
|  \\    /   O peration     | Version:  2406                                  |
|   \\  /    A nd           | Website:  www.openfoam.com                      |
|    \\/     M anipulation  |                                                 |
\*---------------------------------------------------------------------------*/
FoamFile
{
    version     2.0;
    format      ascii;
    arch        "LSB;label=32;scalar=64";
    class       volScalarField;
    location    "0.004";
    object      dsmcRhoNMean;
}
// * * * * * * * * * * * * * * * * * * * * * * * * * * * * * * * * * * * * * //

dimensions      [0 -3 0 0 0 0 0];

internalField   nonuniform List<scalar> 
546
(
7.416
9.5315
9.6875
9.6165
9.6255
9.559
9.546
9.464
9.422
9.441
9.5
9.6355
9.6105
9.558
9.595
9.509
9.5505
9.4865
9.412
9.4035
7.49
9.593
9.612
9.627
9.653
9.7255
9.6985
9.714
9.651
9.642
9.627
9.5535
9.6145
9.495
9.5005
9.486
9.574
9.684
9.725
9.7145
7.397
9.4995
9.5435
9.5055
9.563
9.5955
9.6145
9.6025
9.622
9.692
9.6515
9.7
9.646
9.632
9.6015
9.58
9.479
9.517
9.5005
9.463
7.46
9.6515
9.69
9.615
9.535
9.5265
9.5985
9.5755
9.626
9.55
9.5575
9.4895
9.5945
9.6135
9.705
9.6825
9.6055
9.572
9.766
9.6895
7.435
9.614
9.6475
9.7225
9.723
9.6785
9.584
9.594
9.5305
9.446
9.468
9.499
9.526
9.548
9.569
9.614
9.675
9.7365
9.6305
9.6375
7.4465
9.51
9.5205
9.5055
9.544
9.6325
9.5735
9.5715
9.6435
9.704
9.7115
9.6825
9.637
9.5885
9.5915
9.664
9.678
9.554
9.632
9.6315
7.4015
9.5165
9.639
9.639
9.622
9.642
9.657
9.7125
9.6275
9.677
9.652
9.668
9.723
9.652
9.6195
9.5765
9.561
9.515
9.453
9.489
7.4385
9.6355
9.6955
9.673
9.6775
9.6645
9.693
9.6905
9.7355
9.6655
9.6995
9.6295
9.6665
9.752
9.73
9.811
9.8205
9.8465
9.8745
9.8915
7.4905
9.5955
9.6245
9.557
9.56
9.4575
9.46
9.5015
9.5
9.6175
9.6365
9.6955
9.599
9.6385
9.6315
9.5955
9.585
9.5695
9.5265
9.4645
7.396
9.476
9.512
9.605
9.5395
9.637
9.6485
9.6755
9.628
9.5435
9.5715
9.586
9.6205
9.6005
9.595
9.6015
9.5375
9.5245
9.463
9.497
7.502
9.6205
9.6565
9.662
9.685
9.652
9.65
9.5485
9.5805
9.641
9.5615
9.603
9.5545
9.5715
9.473
9.541
9.5715
9.763
9.874
9.91
7.3985
9.5935
9.587
9.6025
9.487
9.452
9.499
9.453
9.4785
9.45
9.4415
9.5335
9.532
9.613
9.7415
9.6575
9.6835
9.5585
9.53
9.5435
7.383
9.5885
9.631
9.606
9.612
9.575
9.577
9.6625
9.6695
9.6465
9.614
9.5585
9.581
9.5695
9.5215
9.5635
9.479
9.484
9.514
9.504
7.436
9.4635
9.552
9.5535
9.6485
9.6235
9.597
9.5675
9.565
9.6065
9.5575
9.6095
9.5455
9.4975
9.4645
9.5255
9.5695
9.5345
9.523
9.5845
7.4925
9.6255
9.6125
9.5505
9.578
9.6495
9.6265
9.6365
9.57
9.521
9.5285
9.4685
9.555
9.508
9.6005
9.567
9.543
9.565
9.546
9.5135
7.4235
9.562
9.581
9.656
9.7325
9.627
9.582
9.593
9.6285
9.6725
9.605
9.5915
9.5375
9.6205
9.7
9.611
9.608
9.5
9.465
9.5205
7.4775
9.6945
9.7485
9.717
9.5965
9.644
9.7065
9.7225
9.72
9.7525
9.73
9.799
9.785
9.6925
9.5475
9.5725
9.5905
9.569
9.611
9.6015
7.2945
9.2905
9.335
9.4275
9.415
9.4705
9.5065
9.497
9.4885
9.5315
9.606
9.5735
9.561
9.6005
9.609
9.573
9.541
9.533
9.541
9.528
9.312
9.259
9.18
9.1715
9.119
9.1135
9.472
9.471
9.4955
9.339
9.317
9.2475
9.239
9.146
9.0415
9.0315
9.6505
9.5455
9.53
9.4105
9.391
9.305
9.2555
9.1245
9.136
9.1565
9.5
9.4895
9.462
9.396
9.3605
9.261
9.255
9.252
9.2065
9.1895
9.702
9.613
9.4935
9.468
9.394
9.339
9.2675
9.1815
9.053
8.962
9.632
9.519
9.4465
9.4105
9.313
9.244
9.2405
9.284
9.1895
9.1355
9.5735
9.4655
9.4215
9.3495
9.4335
9.295
9.0925
9.013
8.9315
8.9515
9.479
9.433
9.3895
9.352
9.2595
9.291
9.252
9.2035
9.0435
8.924
9.8995
9.7785
9.7025
9.4785
9.3285
9.222
9.163
9.054
9.033
8.9825
9.386
9.301
9.1925
9.119
9.1895
9.124
9.121
9.0165
8.989
8.94
9.4825
9.567
9.572
9.5885
9.41
9.292
9.2945
9.1855
9.139
8.977
9.798
9.7005
9.5065
9.4395
9.45
9.3795
9.2445
9.182
9.1475
9.0895
9.518
9.4145
9.3605
9.2465
9.1355
9.0615
9.022
9.0345
8.9995
9.026
9.4665
9.411
9.4325
9.3805
9.324
9.295
9.1955
9.1655
9.045
8.947
9.5505
9.59
9.4865
9.4715
9.405
9.291
9.1795
9.08
8.9775
8.7395
9.4145
9.3635
9.2935
9.2025
9.2005
9.029
8.973
8.9685
8.957
8.986
9.5125
9.4685
9.402
9.3035
9.262
9.2345
9.2235
9.0775
9.04
8.998
9.524
9.4475
9.394
9.328
9.3295
9.255
9.187
9.1975
9.144
9.106
9.542
9.398
9.2885
9.2765
9.109
9.066
9.021
8.915
8.8285
8.7275
)
;

boundaryField
{
    flow
    {
        type            calculated;
        value           nonuniform List<scalar> 
48
(
7.416
7.49
7.397
7.46
7.435
7.4465
7.4015
7.4385
7.4905
7.396
7.502
7.3985
7.383
7.436
7.4925
7.4235
7.4775
7.2945
7.2945
9.2905
9.335
9.4275
9.415
9.4705
9.5065
9.497
9.4885
9.5315
9.606
9.5735
9.561
9.6005
9.609
9.573
9.541
9.533
9.541
9.528
9.542
9.398
9.2885
9.2765
9.109
9.066
9.021
8.915
8.8285
8.7275
)
;
    }
    obstacle
    {
        type            calculated;
        value           nonuniform List<scalar> 0();
    }
    frontAndBack
    {
        type            empty;
    }
    procBoundary2to0
    {
        type            processor;
        value           nonuniform List<scalar> 
31
(
7.3945
9.479
9.517
9.425
9.4435
9.388
9.504
9.6245
9.6625
9.6585
9.5795
9.5555
9.5425
9.559
9.5715
9.599
9.573
9.5725
9.646
9.6545
9.304
9.2175
9.116
9.0395
9.096
9.008
9.599
9.4755
9.375
9.349
9.349
)
;
    }
    procBoundary2to3
    {
        type            processor;
        value           nonuniform List<scalar> 
19
(
9.0365
9.043
9.0715
9.1155
8.9315
9.0065
8.9585
8.84
8.922
8.812
8.9355
9.103
8.9715
8.8375
8.758
8.875
9.087
8.996
8.6405
)
;
    }
}


// ************************************************************************* //
