/*--------------------------------*- C++ -*----------------------------------*\
| =========                 |                                                 |
| \\      /  F ield         | OpenFOAM: The Open Source CFD Toolbox           |
|  \\    /   O peration     | Version:  2406                                  |
|   \\  /    A nd           | Website:  www.openfoam.com                      |
|    \\/     M anipulation  |                                                 |
\*---------------------------------------------------------------------------*/
FoamFile
{
    version     2.0;
    format      ascii;
    arch        "LSB;label=32;scalar=64";
    class       volScalarField;
    location    "0.004";
    object      iDof;
}
// * * * * * * * * * * * * * * * * * * * * * * * * * * * * * * * * * * * * * //

dimensions      [0 -3 0 0 0 0 0];

internalField   nonuniform List<scalar> 
546
(
1.666239693e+20
1.666239693e+20
3.124199424e+20
1.666239693e+20
1.874519654e+20
3.332479385e+20
2.499359539e+20
2.499359539e+20
1.666239693e+20
2.707639501e+20
2.915919462e+20
1.666239693e+20
1.666239693e+20
2.291079578e+20
2.291079578e+20
1.874519654e+20
1.874519654e+20
2.291079578e+20
2.707639501e+20
1.24967977e+20
1.457959731e+20
1.874519654e+20
2.499359539e+20
1.24967977e+20
1.666239693e+20
2.291079578e+20
2.082799616e+20
1.874519654e+20
2.082799616e+20
1.874519654e+20
1.666239693e+20
1.874519654e+20
3.332479385e+20
2.915919462e+20
3.95731927e+20
2.707639501e+20
2.082799616e+20
2.291079578e+20
2.082799616e+20
1.24967977e+20
1.457959731e+20
1.666239693e+20
2.291079578e+20
1.666239693e+20
1.666239693e+20
1.666239693e+20
1.457959731e+20
1.041399808e+20
1.24967977e+20
1.874519654e+20
2.915919462e+20
3.540759347e+20
2.082799616e+20
2.915919462e+20
2.915919462e+20
1.874519654e+20
2.499359539e+20
1.666239693e+20
1.041399808e+20
3.124199424e+20
1.24967977e+20
2.082799616e+20
2.291079578e+20
2.499359539e+20
1.24967977e+20
1.24967977e+20
3.124199424e+20
2.707639501e+20
1.666239693e+20
2.082799616e+20
2.499359539e+20
2.291079578e+20
1.666239693e+20
2.499359539e+20
1.874519654e+20
2.082799616e+20
1.666239693e+20
2.707639501e+20
2.707639501e+20
3.95731927e+20
1.457959731e+20
1.666239693e+20
2.291079578e+20
1.24967977e+20
2.707639501e+20
2.499359539e+20
1.666239693e+20
2.499359539e+20
1.24967977e+20
1.041399808e+20
2.291079578e+20
2.707639501e+20
1.874519654e+20
2.082799616e+20
1.874519654e+20
1.041399808e+20
1.24967977e+20
8.331198464e+19
2.499359539e+20
2.915919462e+20
1.666239693e+20
2.499359539e+20
1.666239693e+20
1.874519654e+20
8.331198464e+19
2.082799616e+20
2.291079578e+20
1.24967977e+20
2.915919462e+20
1.041399808e+20
2.082799616e+20
8.331198464e+19
2.915919462e+20
2.707639501e+20
1.874519654e+20
6.248398848e+19
2.082799616e+20
1.041399808e+20
2.707639501e+20
1.457959731e+20
1.24967977e+20
2.707639501e+20
1.666239693e+20
1.874519654e+20
2.291079578e+20
2.082799616e+20
2.707639501e+20
2.915919462e+20
2.082799616e+20
2.707639501e+20
2.291079578e+20
1.24967977e+20
1.24967977e+20
1.666239693e+20
2.082799616e+20
1.457959731e+20
2.499359539e+20
2.499359539e+20
1.874519654e+20
1.24967977e+20
1.24967977e+20
1.041399808e+20
3.332479385e+20
2.915919462e+20
2.082799616e+20
2.082799616e+20
1.041399808e+20
2.499359539e+20
1.874519654e+20
1.457959731e+20
1.24967977e+20
2.291079578e+20
1.457959731e+20
2.291079578e+20
1.666239693e+20
1.666239693e+20
1.874519654e+20
2.082799616e+20
1.874519654e+20
2.915919462e+20
1.24967977e+20
2.915919462e+20
1.666239693e+20
2.499359539e+20
1.24967977e+20
1.874519654e+20
2.915919462e+20
2.291079578e+20
2.707639501e+20
1.457959731e+20
1.874519654e+20
1.874519654e+20
2.915919462e+20
1.666239693e+20
1.666239693e+20
1.666239693e+20
2.499359539e+20
6.248398848e+19
1.874519654e+20
2.499359539e+20
1.874519654e+20
1.24967977e+20
1.666239693e+20
1.874519654e+20
2.291079578e+20
2.707639501e+20
2.291079578e+20
1.666239693e+20
1.874519654e+20
1.24967977e+20
8.331198464e+19
1.041399808e+20
2.291079578e+20
1.457959731e+20
1.666239693e+20
1.874519654e+20
2.707639501e+20
1.457959731e+20
2.499359539e+20
1.041399808e+20
2.082799616e+20
1.874519654e+20
3.540759347e+20
1.041399808e+20
1.666239693e+20
1.874519654e+20
2.082799616e+20
8.331198464e+19
1.666239693e+20
2.707639501e+20
1.457959731e+20
3.124199424e+20
2.082799616e+20
2.291079578e+20
2.291079578e+20
2.915919462e+20
2.499359539e+20
2.915919462e+20
6.248398848e+19
1.457959731e+20
1.874519654e+20
1.24967977e+20
1.874519654e+20
1.041399808e+20
3.124199424e+20
1.874519654e+20
1.457959731e+20
1.457959731e+20
1.666239693e+20
1.874519654e+20
1.457959731e+20
1.666239693e+20
2.915919462e+20
1.666239693e+20
2.499359539e+20
3.332479385e+20
2.291079578e+20
1.666239693e+20
1.24967977e+20
3.332479385e+20
2.291079578e+20
1.666239693e+20
2.499359539e+20
2.291079578e+20
2.082799616e+20
1.24967977e+20
1.666239693e+20
2.499359539e+20
1.457959731e+20
2.082799616e+20
1.24967977e+20
2.291079578e+20
2.291079578e+20
2.291079578e+20
2.082799616e+20
2.291079578e+20
2.291079578e+20
2.915919462e+20
1.666239693e+20
2.707639501e+20
1.457959731e+20
1.874519654e+20
1.457959731e+20
2.291079578e+20
2.291079578e+20
2.499359539e+20
3.540759347e+20
2.291079578e+20
2.291079578e+20
1.24967977e+20
1.457959731e+20
2.707639501e+20
2.291079578e+20
2.499359539e+20
2.291079578e+20
2.499359539e+20
2.915919462e+20
1.041399808e+20
2.082799616e+20
8.331198464e+19
1.666239693e+20
1.666239693e+20
2.291079578e+20
8.331198464e+19
1.041399808e+20
2.499359539e+20
2.291079578e+20
1.874519654e+20
1.666239693e+20
2.082799616e+20
2.499359539e+20
1.874519654e+20
1.457959731e+20
4.165599232e+19
3.332479385e+20
1.041399808e+20
2.291079578e+20
2.291079578e+20
2.707639501e+20
1.457959731e+20
1.666239693e+20
2.082799616e+20
2.499359539e+20
2.291079578e+20
1.666239693e+20
2.499359539e+20
1.666239693e+20
2.082799616e+20
1.24967977e+20
2.082799616e+20
2.291079578e+20
2.291079578e+20
1.24967977e+20
2.082799616e+20
1.041399808e+20
1.666239693e+20
1.24967977e+20
1.666239693e+20
2.707639501e+20
2.915919462e+20
1.457959731e+20
2.499359539e+20
1.666239693e+20
2.291079578e+20
2.082799616e+20
8.331198464e+19
1.874519654e+20
2.499359539e+20
2.082799616e+20
2.291079578e+20
1.666239693e+20
2.707639501e+20
2.291079578e+20
1.874519654e+20
2.499359539e+20
2.082799616e+20
1.874519654e+20
1.041399808e+20
1.874519654e+20
1.457959731e+20
1.24967977e+20
1.666239693e+20
2.082799616e+20
2.291079578e+20
1.874519654e+20
1.041399808e+20
1.666239693e+20
1.666239693e+20
1.041399808e+20
2.082799616e+20
2.915919462e+20
1.666239693e+20
2.291079578e+20
2.082799616e+20
2.291079578e+20
2.499359539e+20
2.291079578e+20
2.082799616e+20
1.666239693e+20
1.874519654e+20
6.446658021e+19
2.164079869e+20
1.307694072e+20
1.317072858e+20
8.843914303e+19
2.227066471e+20
1.254111452e+20
1.894102292e+20
1.271477674e+20
1.920513594e+20
3.653106212e+20
2.164079869e+20
1.307694081e+20
1.317072858e+20
3.537565696e+20
6.681199412e+19
3.135278652e+20
3.367292964e+20
1.695303565e+20
1.280342396e+20
1.719108794e+20
3.462527814e+20
2.179490135e+20
2.634145716e+20
1.768782861e+20
1.781653177e+20
1.672148603e+20
2.104558102e+20
2.119129457e+20
2.347294393e+20
1.504220205e+20
1.731263895e+20
8.717960539e+19
1.756097156e+20
1.768782848e+20
1.558946518e+20
2.299204329e+20
3.156837132e+20
2.542955348e+20
1.280342405e+20
1.933997406e+20
1.514855908e+20
1.525643084e+20
1.975609273e+20
1.326587136e+20
2.227066471e+20
2.090185754e+20
1.473190662e+20
1.48339062e+20
1.493732806e+20
2.363774608e+20
1.731263895e+20
1.961541121e+20
2.195121445e+20
1.105489288e+20
1.336239882e+20
2.299204329e+20
1.683646482e+20
1.907216511e+20
1.493732795e+20
1.504220205e+20
1.29844793e+20
1.743592108e+20
2.414633573e+20
2.432076433e+20
1.113533243e+20
2.090185768e+20
1.894102292e+20
1.271477674e+20
8.535616032e+19
4.082883413e+20
8.656319476e+19
1.743592108e+20
1.975609287e+20
1.768782848e+20
1.55894653e+20
1.881167178e+20
1.052279051e+20
1.907216524e+20
1.707123206e+20
1.933997406e+20
1.298447921e+20
2.397439131e+20
2.19512143e+20
2.210978576e+20
1.336239882e+20
2.299204329e+20
1.894102279e+20
1.907216498e+20
2.133903979e+20
1.933997393e+20
2.380487872e+20
1.74359212e+20
1.536585012e+20
1.989880718e+20
2.895186412e+20
1.254111452e+20
1.683646482e+20
1.695303577e+20
1.493732806e+20
2.363774624e+20
1.514855919e+20
1.525643084e+20
1.53658499e+20
1.547684992e+20
1.781653177e+20
2.717241498e+20
2.315013913e+20
1.907216511e+20
6.401712024e+19
2.148886007e+20
1.947671882e+20
1.961541121e+20
1.975609301e+20
1.989880718e+20
1.336239882e+20
2.090185754e+20
2.735925515e+20
1.059564721e+20
1.707123195e+20
1.504220205e+20
2.164079869e+20
2.179490119e+20
1.975609287e+20
1.989880718e+20
2.449773118e+20
1.254111452e+20
2.946381343e+20
2.754868312e+20
1.493732806e+20
2.148886007e+20
1.947671896e+20
1.30769409e+20
2.853657879e+20
2.653174272e+20
2.004359809e+20
1.672148603e+20
2.104558088e+20
2.331042386e+20
3.627636789e+20
2.148886007e+20
1.298447921e+20
1.525643084e+20
2.195121415e+20
2.653174272e+20
1.558946541e+20
1.672148603e+20
2.315013913e+20
2.119129471e+20
2.560684792e+20
1.933997393e+20
2.164079869e+20
1.307694081e+20
2.41463359e+20
1.326587145e+20
2.004359824e+20
1.672148614e+20
1.683646482e+20
2.119129457e+20
2.77407521e+20
1.504220205e+20
2.380487856e+20
1.743592096e+20
3.512194288e+20
1.105489288e+20
1.781653177e+20
2.090185754e+20
1.052279051e+20
2.331042402e+20
2.347294393e+20
1.933997406e+20
1.947671896e+20
3.05128621e+20
2.634145716e+20
1.768782848e+20
1.336239882e+20
2.090185754e+20
2.315013897e+20
2.754868294e+20
1.066952004e+20
1.504220205e+20
2.81330383e+20
1.961541108e+20
2.853657859e+20
1.989880718e+20
1.55894653e+20
)
;

boundaryField
{
    flow
    {
        type            zeroGradient;
    }
    obstacle
    {
        type            calculated;
        value           nonuniform List<scalar> 0();
    }
    frontAndBack
    {
        type            empty;
    }
    procBoundary2to0
    {
        type            processor;
        value           nonuniform List<scalar> 
31
(
1.666239693e+20
8.331198464e+19
1.874519654e+20
2.291079578e+20
2.291079578e+20
1.666239693e+20
1.666239693e+20
1.666239693e+20
1.666239693e+20
1.457959731e+20
1.874519654e+20
3.124199424e+20
2.082799616e+20
1.457959731e+20
4.165599232e+19
2.499359539e+20
2.291079578e+20
2.707639501e+20
2.915919462e+20
2.291079578e+20
1.074443004e+20
2.81330383e+20
1.743592108e+20
2.634145734e+20
2.210978576e+20
1.781653177e+20
1.672148603e+20
2.525469706e+20
1.695303565e+20
1.920513607e+20
1.920513607e+20
)
;
    }
    procBoundary2to3
    {
        type            processor;
        value           nonuniform List<scalar> 
19
(
1.346034123e+20
2.019051184e+20
2.916407287e+20
2.916407266e+20
2.019051184e+20
2.243390221e+20
2.019051199e+20
2.243390205e+20
2.243390221e+20
1.570373143e+20
1.794712164e+20
2.467729243e+20
1.346034123e+20
1.794712164e+20
3.140746332e+20
3.140746287e+20
8.973560819e+19
2.467729243e+20
2.916407266e+20
)
;
    }
}


// ************************************************************************* //
