/*--------------------------------*- C++ -*----------------------------------*\
| =========                 |                                                 |
| \\      /  F ield         | OpenFOAM: The Open Source CFD Toolbox           |
|  \\    /   O peration     | Version:  2406                                  |
|   \\  /    A nd           | Website:  www.openfoam.com                      |
|    \\/     M anipulation  |                                                 |
\*---------------------------------------------------------------------------*/
FoamFile
{
    version     2.0;
    format      ascii;
    arch        "LSB;label=32;scalar=64";
    class       volScalarField;
    location    "0.004";
    object      iDofMean;
}
// * * * * * * * * * * * * * * * * * * * * * * * * * * * * * * * * * * * * * //

dimensions      [0 -3 0 0 0 0 0];

internalField   nonuniform List<scalar> 
546
(
1.544604195e+20
1.985220454e+20
2.017712128e+20
2.002924251e+20
2.00479877e+20
1.990948153e+20
1.988240513e+20
1.971161557e+20
1.962413798e+20
1.966371117e+20
1.978659635e+20
2.00688157e+20
2.001674571e+20
1.990739873e+20
1.998446231e+20
1.980534155e+20
1.989177773e+20
1.975847856e+20
1.960330999e+20
1.958560619e+20
1.560016912e+20
1.998029672e+20
2.001986991e+20
2.00511119e+20
2.010526469e+20
2.025626766e+20
2.020003208e+20
2.023231547e+20
2.010109909e+20
2.00823539e+20
2.00511119e+20
1.989802613e+20
2.002507691e+20
1.977618235e+20
1.978763775e+20
1.975743716e+20
1.994072352e+20
2.016983148e+20
2.025522626e+20
2.023335687e+20
1.540646876e+20
1.978555495e+20
1.987719813e+20
1.979805175e+20
1.991781273e+20
1.998550371e+20
2.002507691e+20
2.000008331e+20
2.00406979e+20
2.018649388e+20
2.010214049e+20
2.020315627e+20
2.00906851e+20
2.00615259e+20
1.999800051e+20
1.995322032e+20
1.974285756e+20
1.982200394e+20
1.978763775e+20
1.970953277e+20
1.553768513e+20
2.010214049e+20
2.018232828e+20
2.002611831e+20
1.985949434e+20
1.984179054e+20
1.999175211e+20
1.994384772e+20
2.00490291e+20
1.989073633e+20
1.990635733e+20
1.976472696e+20
1.998342092e+20
2.002299411e+20
2.021357027e+20
2.016670728e+20
2.000633171e+20
1.993655792e+20
2.034062105e+20
2.018128688e+20
1.548561514e+20
2.002403551e+20
2.009380929e+20
2.025001927e+20
2.025106067e+20
2.015837608e+20
1.996155152e+20
1.998237952e+20
1.985012174e+20
1.967412517e+20
1.971994676e+20
1.978451355e+20
1.984074914e+20
1.988657073e+20
1.993030952e+20
2.002403551e+20
2.015108628e+20
2.027917846e+20
2.00584017e+20
2.00729813e+20
1.550956734e+20
1.980742435e+20
1.982929374e+20
1.979805175e+20
1.987823953e+20
2.00625673e+20
1.993968212e+20
1.993551652e+20
2.00854781e+20
2.021148747e+20
2.022710847e+20
2.016670728e+20
2.00719399e+20
1.997092412e+20
1.997717252e+20
2.012817549e+20
2.015733468e+20
1.989906753e+20
2.00615259e+20
2.00604845e+20
1.541584136e+20
1.982096255e+20
2.00761055e+20
2.00761055e+20
2.00406979e+20
2.00823539e+20
2.011359589e+20
2.022919127e+20
2.00521533e+20
2.015525188e+20
2.010318189e+20
2.013650669e+20
2.025106067e+20
2.010318189e+20
2.003549091e+20
1.994593052e+20
1.991364713e+20
1.981783835e+20
1.968870477e+20
1.976368556e+20
1.549290494e+20
2.00688157e+20
2.019378368e+20
2.014692068e+20
2.015629328e+20
2.012921689e+20
2.018857668e+20
2.018336968e+20
2.027709566e+20
2.013129969e+20
2.020211487e+20
2.00563189e+20
2.013338249e+20
2.031146185e+20
2.026564026e+20
2.043434703e+20
2.045413363e+20
2.050828642e+20
2.056660481e+20
2.06020124e+20
1.560121052e+20
1.998550371e+20
2.00459049e+20
1.990531593e+20
1.991156433e+20
1.969807737e+20
1.970328437e+20
1.978972055e+20
1.978659635e+20
2.003132531e+20
2.00708985e+20
2.019378368e+20
1.999279351e+20
2.00750641e+20
2.00604845e+20
1.998550371e+20
1.996363432e+20
1.993135092e+20
1.984179054e+20
1.971265696e+20
1.540438596e+20
1.973660916e+20
1.981158995e+20
2.000529031e+20
1.986886694e+20
2.00719399e+20
2.009589209e+20
2.015212768e+20
2.00531947e+20
1.987719813e+20
1.993551652e+20
1.996571712e+20
2.003757371e+20
1.999591771e+20
1.998446231e+20
1.999800051e+20
1.986470134e+20
1.983762494e+20
1.970953277e+20
1.978034795e+20
1.562516272e+20
2.003757371e+20
2.011255449e+20
2.012400989e+20
2.017191428e+20
2.010318189e+20
2.009901629e+20
1.988761213e+20
1.995426172e+20
2.00802711e+20
1.991468853e+20
2.000112471e+20
1.990010893e+20
1.993551652e+20
1.973036076e+20
1.987199114e+20
1.993551652e+20
2.033437265e+20
2.056556341e+20
2.064054419e+20
1.540959296e+20
1.998133812e+20
1.996779992e+20
2.000008331e+20
1.975951996e+20
1.968662197e+20
1.978451355e+20
1.968870477e+20
1.974181616e+20
1.968245637e+20
1.966475257e+20
1.985637014e+20
1.985324594e+20
2.002195271e+20
2.028959246e+20
2.011463729e+20
2.016879008e+20
1.990844013e+20
1.984908034e+20
1.987719813e+20
1.537730956e+20
1.997092412e+20
2.00594431e+20
2.000737311e+20
2.001986991e+20
1.994280632e+20
1.994697192e+20
2.012505129e+20
2.013963089e+20
2.00917265e+20
2.002403551e+20
1.990844013e+20
1.995530312e+20
1.993135092e+20
1.983137654e+20
1.991885413e+20
1.974285756e+20
1.975327156e+20
1.981575555e+20
1.979492755e+20
1.548769794e+20
1.971057417e+20
1.989490193e+20
1.989802613e+20
2.009589209e+20
2.00438221e+20
1.998862791e+20
1.992718533e+20
1.992197833e+20
2.000841451e+20
1.990635733e+20
2.001466291e+20
1.988136373e+20
1.978138935e+20
1.971265696e+20
1.983970774e+20
1.993135092e+20
1.985845294e+20
1.983450074e+20
1.996259292e+20
1.560537612e+20
2.00479877e+20
2.002091131e+20
1.989177773e+20
1.994905472e+20
2.009797489e+20
2.00500705e+20
2.00708985e+20
1.993239232e+20
1.983033514e+20
1.984595614e+20
1.972098816e+20
1.990115033e+20
1.980325875e+20
1.999591771e+20
1.992614393e+20
1.987615673e+20
1.992197833e+20
1.988240513e+20
1.981471415e+20
1.546166295e+20
1.991572993e+20
1.995530312e+20
2.011151309e+20
2.027084726e+20
2.00511119e+20
1.995738592e+20
1.998029672e+20
2.00542361e+20
2.014587929e+20
2.000529031e+20
1.997717252e+20
1.986470134e+20
2.003757371e+20
2.020315627e+20
2.001778711e+20
2.001153871e+20
1.978659635e+20
1.971369836e+20
1.982929374e+20
1.557413413e+20
2.019170088e+20
2.030417206e+20
2.023856387e+20
1.998758651e+20
2.00865195e+20
2.021669447e+20
2.025001927e+20
2.024481227e+20
2.031250325e+20
2.026564026e+20
2.040935344e+20
2.038019424e+20
2.018753528e+20
1.988552933e+20
1.993759932e+20
1.997508972e+20
1.993030952e+20
2.001778711e+20
1.999800051e+20
1.51929818e+20
1.935024983e+20
1.944293441e+20
1.963559338e+20
1.960955838e+20
1.972515376e+20
1.980013455e+20
1.978034795e+20
1.976264416e+20
1.985220454e+20
2.000737311e+20
1.993968212e+20
1.991364713e+20
1.999591771e+20
2.001362151e+20
1.993864072e+20
1.987199114e+20
1.985532874e+20
1.987199114e+20
1.984491474e+20
2.00104265e+20
2.003721551e+20
2.00077193e+20
2.013255619e+20
2.016191363e+20
2.029637028e+20
1.979823946e+20
1.993226979e+20
2.012219375e+20
1.992852939e+20
2.002117093e+20
2.001232859e+20
2.013630935e+20
2.00765806e+20
1.999056265e+20
2.011375083e+20
2.017133775e+20
2.008905937e+20
2.019530372e+20
2.008110353e+20
2.018018835e+20
2.013676332e+20
2.017227094e+20
2.002938549e+20
2.019950027e+20
2.039213414e+20
1.985676466e+20
1.997120411e+20
2.005120292e+20
2.005016192e+20
2.011464747e+20
2.004154367e+20
2.01711812e+20
2.030926361e+20
2.035537411e+20
2.046562719e+20
2.027898218e+20
2.02311169e+20
2.01179555e+20
2.020380315e+20
2.018663515e+20
2.02103419e+20
2.019842468e+20
2.015450727e+20
2.00159889e+20
1.995896971e+20
2.013266918e+20
2.003328844e+20
2.001835641e+20
2.008110367e+20
2.001257538e+20
2.000475431e+20
2.013957859e+20
2.03795075e+20
2.031778762e+20
2.034536574e+20
2.001039331e+20
1.992069472e+20
1.996537818e+20
1.995093539e+20
2.027151615e+20
2.011512252e+20
1.981701405e+20
1.978462945e+20
1.974735515e+20
1.993558565e+20
1.981287089e+20
1.985229658e+20
1.989756603e+20
1.995627028e+20
1.989760998e+20
2.010646606e+20
2.016464273e+20
2.020280008e+20
1.999498461e+20
1.987434118e+20
2.069179387e+20
2.05794214e+20
2.056085369e+20
2.022620914e+20
2.004588312e+20
1.995714455e+20
1.997066796e+20
1.987462943e+20
1.997176947e+20
2.000462457e+20
1.961848349e+20
1.957449478e+20
1.94800974e+20
1.945907038e+20
1.974718783e+20
1.974506486e+20
1.987912966e+20
1.979231251e+20
1.987448642e+20
1.990997425e+20
1.982018641e+20
2.013430736e+20
2.02843073e+20
2.046093858e+20
2.022101747e+20
2.010863028e+20
2.025727092e+20
2.016328775e+20
2.020613306e+20
1.999237571e+20
2.047964015e+20
2.041526587e+20
2.014550418e+20
2.014298688e+20
2.030697277e+20
2.029798713e+20
2.014829655e+20
2.015560511e+20
2.022492652e+20
2.024292069e+20
1.9894388e+20
1.981336212e+20
1.983611114e+20
1.973114327e+20
1.963114812e+20
1.960980973e+20
1.966335986e+20
1.983182456e+20
1.989770169e+20
2.010150196e+20
1.978674344e+20
1.98059963e+20
1.998868873e+20
2.001708655e+20
2.003621313e+20
2.011512252e+20
2.004150167e+20
2.011938561e+20
1.999830108e+20
1.992556357e+20
1.996231904e+20
2.018271206e+20
2.010312145e+20
2.021127167e+20
2.02102729e+20
2.010646606e+20
2.000662955e+20
1.993170244e+20
1.984906002e+20
1.946344756e+20
1.967805378e+20
1.970602979e+20
1.969412974e+20
1.96372515e+20
1.977082557e+20
1.953947714e+20
1.955656498e+20
1.968694668e+20
1.98037351e+20
2.001241931e+20
1.988289212e+20
1.992700839e+20
1.992405515e+20
1.985277594e+20
1.99029822e+20
1.998419555e+20
2.010252712e+20
1.992621478e+20
1.998724632e+20
2.00391441e+20
1.990692912e+20
1.988281267e+20
1.990710212e+20
1.990505645e+20
2.0048032e+20
2.002855933e+20
2.002297601e+20
2.018962935e+20
2.021718795e+20
2.027966728e+20
1.994455246e+20
1.977863691e+20
1.968353396e+20
1.979516053e+20
1.957420264e+20
1.961954809e+20
1.966118037e+20
1.956950755e+20
1.951962436e+20
1.943672262e+20
)
;

boundaryField
{
    flow
    {
        type            calculated;
        value           nonuniform List<scalar> 
48
(
1.544604195e+20
1.560016912e+20
1.540646876e+20
1.553768513e+20
1.548561514e+20
1.550956734e+20
1.541584136e+20
1.549290494e+20
1.560121052e+20
1.540438596e+20
1.562516272e+20
1.540959296e+20
1.537730956e+20
1.548769794e+20
1.560537612e+20
1.546166295e+20
1.557413413e+20
1.51929818e+20
1.51929818e+20
1.935024983e+20
1.944293441e+20
1.963559338e+20
1.960955838e+20
1.972515376e+20
1.980013455e+20
1.978034795e+20
1.976264416e+20
1.985220454e+20
2.000737311e+20
1.993968212e+20
1.991364713e+20
1.999591771e+20
2.001362151e+20
1.993864072e+20
1.987199114e+20
1.985532874e+20
1.987199114e+20
1.984491474e+20
1.994455246e+20
1.977863691e+20
1.968353396e+20
1.979516053e+20
1.957420264e+20
1.961954809e+20
1.966118037e+20
1.956950755e+20
1.951962436e+20
1.943672262e+20
)
;
    }
    obstacle
    {
        type            calculated;
        value           nonuniform List<scalar> 0();
    }
    frontAndBack
    {
        type            empty;
    }
    procBoundary2to0
    {
        type            processor;
        value           nonuniform List<scalar> 
31
(
1.540126176e+20
1.974285756e+20
1.982200394e+20
1.963038638e+20
1.966891817e+20
1.955332279e+20
1.979492755e+20
2.00459049e+20
2.012505129e+20
2.011672009e+20
1.995217892e+20
1.990219173e+20
1.987511534e+20
1.990948153e+20
1.993551652e+20
1.999279351e+20
1.993864072e+20
1.993759932e+20
2.00906851e+20
2.010838889e+20
1.999323541e+20
1.994740619e+20
1.986823207e+20
1.984280031e+20
2.011106112e+20
2.006141477e+20
2.006369305e+20
1.994174016e+20
1.986683866e+20
1.994986857e+20
1.994986857e+20
)
;
    }
    procBoundary2to3
    {
        type            processor;
        value           nonuniform List<scalar> 
19
(
2.027239558e+20
2.028697762e+20
2.035091439e+20
2.044962341e+20
2.003683961e+20
2.020509402e+20
2.009741129e+20
1.983156941e+20
2.001552755e+20
1.976875448e+20
2.004581317e+20
2.042158118e+20
2.012657522e+20
1.982596093e+20
1.96476117e+20
1.991008807e+20
2.038568679e+20
2.018153843e+20
1.938401306e+20
)
;
    }
}


// ************************************************************************* //
