/*--------------------------------*- C++ -*----------------------------------*\
| =========                 |                                                 |
| \\      /  F ield         | OpenFOAM: The Open Source CFD Toolbox           |
|  \\    /   O peration     | Version:  2406                                  |
|   \\  /    A nd           | Website:  www.openfoam.com                      |
|    \\/     M anipulation  |                                                 |
\*---------------------------------------------------------------------------*/
FoamFile
{
    version     2.0;
    format      ascii;
    arch        "LSB;label=32;scalar=64";
    class       volScalarField;
    location    "0.004";
    object      internalEMean;
}
// * * * * * * * * * * * * * * * * * * * * * * * * * * * * * * * * * * * * * //

dimensions      [1 -1 -2 0 0 0 0];

internalField   nonuniform List<scalar> 
546
(
0.3210250189
0.415166397
0.420971288
0.4178297601
0.4184811799
0.4142775343
0.4115210625
0.4059269302
0.4052236566
0.4003703815
0.4017935619
0.4074423251
0.4075455172
0.4039654333
0.4083633558
0.4046239894
0.4040155435
0.4017620358
0.3997713123
0.399927669
0.3258365167
0.4172559166
0.4164849301
0.4173055742
0.415623729
0.4177373657
0.4157745643
0.4153965893
0.4134343865
0.4142299259
0.4127958975
0.4068068655
0.4113237808
0.4089739034
0.4098003928
0.4113907135
0.419320948
0.4275613755
0.4241169905
0.424815822
0.3167430872
0.4066412731
0.4081066242
0.4039639674
0.4149472764
0.4187889729
0.4191795428
0.4183182063
0.4197185936
0.4204098783
0.4183704845
0.4213585521
0.4168950005
0.4116913851
0.4097731133
0.4119771616
0.4037949511
0.4086863657
0.4132065241
0.4093491927
0.3203319912
0.4131209149
0.4164436087
0.4136164685
0.4073413043
0.4026438839
0.4099049234
0.4086178489
0.4120197299
0.4080865946
0.410100069
0.4085276235
0.4143018331
0.4203676092
0.4199473546
0.4188255725
0.4142479434
0.4093591471
0.4155175554
0.414115411
0.3223528137
0.4148061481
0.4149577245
0.4189330961
0.4179636425
0.4181622493
0.4097550148
0.405933551
0.4053464936
0.404251115
0.4043626799
0.4055256702
0.4044615027
0.4065470316
0.406020714
0.4085899211
0.4127006805
0.4195426858
0.4130201068
0.4125839783
0.3186723623
0.4104656045
0.4104342543
0.4134143182
0.4138932644
0.4164212319
0.4164853865
0.4165169968
0.4231830077
0.4263609968
0.4223664257
0.4180303204
0.4149851766
0.4161263033
0.413795035
0.4153137555
0.4160051468
0.4092983427
0.4094857036
0.411026566
0.3200435176
0.4117717135
0.4151327568
0.4172823173
0.4195256117
0.4177239057
0.4243974581
0.4277381841
0.4196290834
0.417896997
0.4227556569
0.423167291
0.4256474649
0.4227463406
0.4180240761
0.4172923405
0.4147208821
0.4120415045
0.4125734164
0.4156762443
0.3221210294
0.4219086944
0.4234274845
0.4244484032
0.4251750237
0.42407705
0.4213045363
0.4144713421
0.4153150077
0.4176678094
0.4181825767
0.4136897567
0.4167730663
0.4221889183
0.4197205118
0.4247506909
0.4265684918
0.4261603549
0.4278878158
0.4276338989
0.3270758061
0.4194406768
0.4212701105
0.4159875365
0.4135648261
0.4086247224
0.4087405457
0.4141899903
0.4139209592
0.4209940196
0.4187110157
0.4234950421
0.4165401136
0.4174249161
0.4168942815
0.4114126953
0.4122359594
0.4078126225
0.4070375652
0.4046212182
0.3176349352
0.4095938167
0.4072242389
0.4088698125
0.4057647522
0.4091238495
0.4138646315
0.4170062043
0.4159675684
0.41248567
0.4176808406
0.4152578883
0.4148759703
0.4108209325
0.4106594461
0.4076905263
0.4050753316
0.4091906393
0.4016414087
0.403508885
0.3195088706
0.413447426
0.4160222274
0.4186324352
0.4217789097
0.4217392646
0.418903665
0.4110942428
0.4122475396
0.4153996473
0.408310191
0.4109720014
0.4054144201
0.4107497492
0.4038521704
0.4070372598
0.4103531826
0.4164292456
0.42460861
0.4274193284
0.3212471183
0.4156635933
0.4139799151
0.4151326606
0.403683723
0.404815604
0.4060118752
0.408705027
0.4062393765
0.406732607
0.4041407172
0.4091377167
0.409604576
0.4125920452
0.4194405732
0.4171356664
0.4168568463
0.413233563
0.4117843926
0.4137237426
0.3165950532
0.4133314615
0.4144254475
0.4168611069
0.4199729779
0.4165090576
0.4112290163
0.4115854842
0.4111790283
0.4063608061
0.4085285305
0.404894138
0.4068539042
0.4118424965
0.4081312271
0.4099124004
0.4083928322
0.4093215098
0.4106076772
0.4087712337
0.32278173
0.4090922449
0.4133471652
0.4083134334
0.4125242527
0.4112092396
0.4111173769
0.4143675715
0.413959976
0.4194874013
0.4116112024
0.4161364262
0.4124811971
0.4060052461
0.4083555147
0.4108041778
0.4099818274
0.4110865454
0.4076429401
0.4150955455
0.3241289645
0.4162221437
0.4164680726
0.4158821844
0.4178775136
0.4227135193
0.4246592414
0.4195014099
0.4148924959
0.4130936842
0.416657902
0.410579942
0.4156309633
0.4133200381
0.4166394631
0.4130714952
0.4123842045
0.4153141384
0.4152492864
0.4111184026
0.3211096887
0.4144385204
0.4141869632
0.4166839861
0.4225370152
0.4169476682
0.4160559091
0.4145541027
0.4181038208
0.4195808007
0.4192147589
0.41726245
0.4157022166
0.4173774132
0.4162384855
0.4156708922
0.4143686483
0.408204266
0.4029805492
0.4085928835
0.3223312819
0.4191555951
0.4222945589
0.4194711916
0.4151413816
0.4158728126
0.4174165011
0.4174745537
0.4179703843
0.4180395231
0.4194224024
0.4220171722
0.4220629452
0.4190309786
0.4119428218
0.4140533166
0.4133762965
0.4110770824
0.4109984606
0.4115638012
0.3143342579
0.3978550416
0.4022771706
0.4098643749
0.4054826553
0.4057305878
0.407698821
0.4073166634
0.4073414549
0.4057604365
0.4060724203
0.4064911345
0.4074374519
0.4054084388
0.4059786028
0.4016582376
0.4040030296
0.4032847185
0.4044178846
0.4082961531
0.4196164104
0.4207029051
0.4193726245
0.4207583536
0.4154341225
0.4173888026
0.4054020457
0.4105228756
0.4124542978
0.4075890748
0.4088465999
0.410629265
0.4115320203
0.4114979867
0.4098007383
0.4176379175
0.4142675315
0.415556692
0.4164100116
0.4144199481
0.4183851215
0.4208232575
0.421501002
0.418042344
0.4233815597
0.4308548904
0.4205072129
0.4181683511
0.4169055843
0.4180867308
0.4162327171
0.4127428521
0.4155928909
0.4237760263
0.4237775818
0.4249777942
0.4141424225
0.4143598659
0.4134532792
0.4148760927
0.413335783
0.4173916872
0.4183258386
0.4148020826
0.4107962172
0.4103273654
0.4148125705
0.4119438904
0.4108592528
0.4120365139
0.412404661
0.4117333319
0.4126954787
0.4234258933
0.4201967678
0.423676045
0.4089945492
0.4102781338
0.4119827672
0.4127781507
0.4142149324
0.411556878
0.4073236681
0.4010594537
0.3996529233
0.4040855774
0.4162279589
0.4142166651
0.4115485413
0.4113626413
0.4110389158
0.4181872088
0.4138062546
0.4199933087
0.4156620367
0.4120206205
0.4280282957
0.4259186035
0.4290225704
0.421659973
0.4186609756
0.4129314497
0.4178815281
0.4149147978
0.4141641502
0.4147430658
0.403699856
0.4019599437
0.4003641576
0.3993939435
0.4026325281
0.404116639
0.4098426919
0.4042792951
0.4076106373
0.4118106987
0.4044956871
0.4128275967
0.4146786931
0.4211567161
0.4143395591
0.414806956
0.4186022785
0.4177717528
0.4180699542
0.4104519791
0.4281809194
0.4210812346
0.4169920603
0.4167237993
0.4183022639
0.4147915979
0.4131044352
0.4110586455
0.4135169094
0.4158350579
0.4113454394
0.4118312723
0.4098537488
0.4079123054
0.4083682837
0.4088767596
0.4113985586
0.4174169526
0.4188366163
0.4241126128
0.408784354
0.4074039889
0.4111391614
0.412215812
0.4188069611
0.4186104219
0.4209554837
0.4219193814
0.4216031417
0.4175163749
0.4141045472
0.4197139651
0.4172333067
0.4202015718
0.4191931296
0.4173986822
0.4173514795
0.4146254984
0.4173699976
0.413457684
0.4043820294
0.4079699097
0.4070658285
0.4054298587
0.4063486598
0.4006755097
0.4004825176
0.4049692005
0.4043644281
0.4069532659
0.4114026193
0.410578112
0.4099798951
0.4101271735
0.4119453368
0.4144403063
0.4165948607
0.4135738607
0.4151804762
0.4146561692
0.4146367733
0.4114969086
0.4096855415
0.4099301738
0.4136410106
0.4121274158
0.4113293499
0.4161980842
0.4152205668
0.4158873231
0.4073655956
0.4056149626
0.4055101359
0.407121577
0.3996433431
0.4004953114
0.3990264564
0.3965960553
0.4015395844
0.3998757194
)
;

boundaryField
{
    flow
    {
        type            calculated;
        value           nonuniform List<scalar> 
48
(
0.3210250189
0.3258365167
0.3167430872
0.3203319912
0.3223528137
0.3186723623
0.3200435176
0.3221210294
0.3270758061
0.3176349352
0.3195088706
0.3212471183
0.3165950532
0.32278173
0.3241289645
0.3211096887
0.3223312819
0.3143342579
0.3143342579
0.3978550416
0.4022771706
0.4098643749
0.4054826553
0.4057305878
0.407698821
0.4073166634
0.4073414549
0.4057604365
0.4060724203
0.4064911345
0.4074374519
0.4054084388
0.4059786028
0.4016582376
0.4040030296
0.4032847185
0.4044178846
0.4082961531
0.4073655956
0.4056149626
0.4055101359
0.407121577
0.3996433431
0.4004953114
0.3990264564
0.3965960553
0.4015395844
0.3998757194
)
;
    }
    obstacle
    {
        type            calculated;
        value           nonuniform List<scalar> 0();
    }
    frontAndBack
    {
        type            empty;
    }
    procBoundary2to0
    {
        type            processor;
        value           nonuniform List<scalar> 
31
(
0.3190109355
0.407974289
0.4107963888
0.4075529792
0.4054647944
0.4062939258
0.4112567133
0.4165558121
0.4140626902
0.4154575588
0.4126232321
0.4108454368
0.4088603914
0.4119310188
0.4124498887
0.4106178899
0.4062878823
0.4065178806
0.4097648093
0.4132223682
0.418387447
0.4141652759
0.4190176838
0.4171846246
0.427162272
0.4258790776
0.4135254296
0.4075548818
0.4099280555
0.4142022585
0.4142022585
)
;
    }
    procBoundary2to3
    {
        type            processor;
        value           nonuniform List<scalar> 
19
(
0.4231238574
0.4224606944
0.4279844218
0.4284205528
0.4145927914
0.4171785856
0.406428209
0.4157384109
0.4139047163
0.4098585143
0.4111686343
0.4216579445
0.4237814566
0.4141121031
0.4174844864
0.4036798893
0.4226500899
0.4154412586
0.4034444101
)
;
    }
}


// ************************************************************************* //
