/*--------------------------------*- C++ -*----------------------------------*\
| =========                 |                                                 |
| \\      /  F ield         | OpenFOAM: The Open Source CFD Toolbox           |
|  \\    /   O peration     | Version:  2406                                  |
|   \\  /    A nd           | Website:  www.openfoam.com                      |
|    \\/     M anipulation  |                                                 |
\*---------------------------------------------------------------------------*/
FoamFile
{
    version     2.0;
    format      ascii;
    arch        "LSB;label=32;scalar=64";
    class       volScalarField;
    location    "0.004";
    object      internalE;
}
// * * * * * * * * * * * * * * * * * * * * * * * * * * * * * * * * * * * * * //

dimensions      [1 -1 -2 0 0 0 0];

internalField   nonuniform List<scalar> 
546
(
0.2831978684
0.318892217
0.7238804713
0.2443757491
0.408951738
0.6092491596
0.7914287513
0.2447464191
0.2104973651
0.9326039091
0.5460684073
0.2673297997
0.2027103302
0.3398428775
0.3458792701
0.3959635537
0.3123785929
0.5210912553
0.4633575004
0.1609862246
0.2199698577
0.5741152277
0.7730527799
0.08911587095
0.5399657466
0.4540274431
0.720823539
0.4194514325
0.4409614341
0.3187885955
0.4413402658
0.4178230899
0.4096056647
0.486990691
0.6309695199
0.5637084672
0.4355706815
0.4428692952
0.4074635044
0.1355182736
0.1907842391
0.1825460979
0.2164283955
0.5036696357
0.1457405634
0.4195891006
0.2299374469
0.2734729759
0.3077327295
0.2948135405
0.4319371469
0.5719801433
0.5986510751
0.7731971184
0.447140281
0.5370390442
0.5468105251
0.2546464981
0.1544354054
0.5631230595
0.2947449741
0.3570464404
0.2710966889
0.8274551793
0.3533823221
0.1164131333
1.036091939
0.5467053541
0.2788185354
0.3089848828
0.7215782945
0.4658492225
0.4951142213
0.5477130348
0.3366191128
0.6274267831
0.2082049142
0.5735089665
0.5565815283
0.797197583
0.2283250188
0.2685166895
0.3760714006
0.1276321289
0.294863395
0.5231053908
0.4080260101
0.5544072293
0.0888884034
0.137767882
0.2256385414
0.8032734697
0.4115800822
0.2231265412
0.4661804562
0.09561863054
0.2537703249
0.05383110243
0.5384626423
0.7563745524
0.3127037169
0.2780677474
0.40146827
0.4498633596
0.04762864816
0.3181536869
0.3943525836
0.08201289222
1.016953684
0.3279195125
0.5038150129
0.2633746932
0.5995904651
0.7629766171
0.2850298449
0.2303909397
0.3813387855
0.2313172611
0.7630487115
0.4078829989
0.2573350648
0.5273282762
0.2342679051
0.3693674415
0.3084843444
0.4132994464
0.3864468771
0.6838570778
0.5143122271
0.4021127204
0.4102459246
0.1915796288
0.3278737402
0.4021057274
0.4002334011
0.2586646881
0.5742822996
0.4259696504
0.3482588865
0.3343262189
0.2270867044
0.3058137215
0.7376965725
1.018953561
0.6056368513
0.5176675479
0.2276594303
0.4716188066
0.3198417242
0.3847814447
0.2740957395
0.49850388
0.2618139976
0.5844903956
0.4318105622
0.3689405145
0.1860667127
0.3140492238
0.4428499916
0.4321599666
0.308578983
0.5748482095
0.3518665595
0.4391712442
0.3276678997
0.3382076546
0.5454674159
0.6063477485
0.6516616078
0.2234450416
0.525857832
0.3468950483
0.7959708119
0.2910847205
0.1807508267
0.2013294382
0.662801742
0.09449303491
0.3436083331
0.6346524678
0.3010590488
0.2876551309
0.2995730148
0.2241090572
0.3742811748
0.2543705254
0.4965141605
0.3102789117
0.3634332272
0.219624031
0.1358996396
0.4007724825
0.4282469644
0.1633087795
0.2672274521
0.5740111062
0.5440159331
0.4756584249
0.5936647988
0.4081875259
0.3094502931
0.3432320422
0.6359601283
0.2674248754
0.3559913978
0.335105228
0.3173945486
0.1114936331
0.1805444898
0.4181464411
0.2694523949
0.6699113245
0.4715441142
0.361445436
0.6699504531
0.9225409896
0.8076439132
0.424487729
0.0563171453
0.2152314816
0.6123281538
0.2932644591
0.290971707
0.1176561952
0.5665125917
0.5800209589
0.4510515095
0.3761410033
0.3056199063
0.2590325505
0.3885443948
0.3167659371
0.4879935641
0.3293530501
0.4938856448
0.6201495126
0.8196030529
0.3163097031
0.215975307
0.7675933339
0.5123115441
0.6645293121
0.4718709317
0.3742294054
0.5201439499
0.3900622636
0.490218191
0.3501506527
0.1872586744
0.405286394
0.2133868493
0.5722708484
0.5929676156
0.4309390675
0.370326634
0.4924760876
0.4377036198
0.433649867
0.2954457652
0.613605069
0.3390345795
0.4083993278
0.1539584561
0.6677431257
0.8613332278
0.5578966575
0.5694022884
0.5349320576
0.4627235856
0.1480652485
0.4710439938
0.4655410822
0.4153419547
0.4521758982
0.6886012931
0.4015256048
0.7079020608
0.1714878756
0.6036482932
0.2669349435
0.2267369249
0.3739627204
0.539044373
0.1311046705
0.1616152525
0.8356884725
0.4601819762
0.5179294553
0.5352977859
0.3603319584
0.5323416221
0.5225919982
0.4263897476
0.1577144676
0.9398647295
0.4421137816
0.3985760387
0.5852852831
0.6083355814
0.2818077027
0.5032770749
0.3429818873
0.6802007922
0.5836801581
0.2998797133
0.6235067482
0.3136141481
0.4546189663
0.1622107648
0.3321939548
0.3595488293
0.2538078407
0.2097171504
0.3757477046
0.217898354
0.07894048165
0.4969355917
0.4643891082
0.4386067135
0.8442697707
0.4897675569
0.6149942933
0.4046098826
0.4160454051
0.5286352505
0.1959660416
0.3951422804
0.6618885143
0.6606809783
0.352474778
0.3904240435
0.6781980128
0.3018024026
0.2672860296
0.6175640201
0.3296866095
0.3671254146
0.3340236082
0.1919791252
0.3992368338
0.2406488468
0.1997034587
0.4344491216
0.3282639475
0.4138435805
0.179239409
0.4514987034
0.4223223018
0.2308056642
0.5587576098
0.3752935445
0.2454083426
0.5089322952
0.3642469705
0.2477610023
0.8244208971
0.6103504412
0.3996476232
0.3273157984
0.4394477028
0.1706156759
0.4761690678
0.1038199176
0.1805883074
0.2084262716
0.2699588592
0.1182522846
0.1778344732
0.1547725458
0.3526570923
0.5334963292
0.8339266757
0.2179376642
0.1504022065
0.3939739351
0.09519893136
0.7335740393
0.7503675401
0.2589639856
0.2523698004
0.1407004835
0.8280474169
0.5312214211
0.4668902131
0.4923191149
0.2453985039
0.2419137921
0.371313877
0.3285689493
0.3768567096
0.2239817438
0.2174536278
0.0726628196
0.2348376767
0.1926006311
0.4331354374
0.5731953252
0.8685904968
0.3098199843
0.4887788688
0.7015512853
0.1350176412
0.2043761175
0.2419695437
0.2307683276
0.4560327378
0.331798799
0.4798653242
0.3677943459
0.4464303574
0.3924789546
0.3749413638
0.5484446899
0.2778541959
0.1606112119
0.2750009948
0.2657630519
0.4494810298
0.3889291267
0.3874172451
0.1394179821
0.2324338541
0.3226807913
0.4562526137
0.5101702477
0.4161073519
0.4533967833
0.3788116292
0.2921485445
0.2024748585
0.9776058563
0.4768437213
0.3365506891
0.1899025848
0.2882885641
0.155159148
0.2104937285
0.05664053842
0.40758614
0.1374526542
0.2209310638
0.3198715733
0.3976293347
0.4695194987
0.6844500052
0.1587638338
0.6552458674
0.3849530303
0.7120512277
0.4344809918
0.2260750746
0.3726560332
0.7865777178
0.3919976683
0.3672137195
0.7300438816
0.2521679284
0.3316590924
0.3805382908
0.3055005092
0.558268304
0.186649426
0.3576196732
0.300741034
0.2960551619
0.1528168267
0.4961150019
0.4196217826
0.4533912275
0.3350931483
0.4404858041
0.3323258317
0.3872042972
0.3459033736
0.3952178069
0.2945226896
0.1500989505
0.4743179378
0.2310613881
0.2266395948
0.3937016532
0.5412485172
0.4600243816
0.400711486
0.317219791
0.5690996738
0.2727320845
0.5273170095
0.2525516796
0.3243747455
0.4757405596
0.5913920496
0.284028203
0.3876671536
0.4804418166
0.4488850158
0.2274294669
0.2727814966
0.4541390272
0.8697615472
0.3661964814
0.2376748731
0.2301810845
0.5339854623
0.3808640302
0.7709484212
0.3634628471
0.47738326
0.3337824098
0.401190027
0.2907705761
0.4954324852
0.4370914998
0.3969585832
0.2158246952
0.2868689154
0.3214434476
0.4119257258
0.391519901
0.5055702716
0.4775468723
0.529995611
0.2848124726
0.6903778858
0.1381092693
0.2172529479
0.2864208083
0.2080811272
0.649128177
0.1804551641
0.5491760337
0.5296006712
0.5562459162
1.017389558
0.587050015
0.1495018888
0.3438471924
0.3775854081
0.7684399223
0.231066609
0.2493942342
0.4993443461
0.2267332925
0.5318774012
0.3696089686
0.1158182732
)
;

boundaryField
{
    flow
    {
        type            zeroGradient;
    }
    obstacle
    {
        type            calculated;
        value           nonuniform List<scalar> 0();
    }
    frontAndBack
    {
        type            empty;
    }
    procBoundary2to0
    {
        type            processor;
        value           nonuniform List<scalar> 
31
(
0.4376102677
0.0547564182
0.5197983762
0.3928131606
0.5182213158
0.4361525566
0.2654200264
0.2603185955
0.419041682
0.3921148
0.5274943755
0.7715186192
0.2801641334
0.3474844593
0.05957284988
0.4731583688
0.6013101039
0.4909851111
0.3982116096
0.672295764
0.1977136513
0.713376903
0.3513949133
0.5085902662
0.6706805675
0.3343123882
0.3794165541
0.3658031334
0.2367807629
0.2780565751
0.2780565751
)
;
    }
    procBoundary2to3
    {
        type            processor;
        value           nonuniform List<scalar> 
19
(
0.3968827121
0.429208845
0.4198227365
0.6313424613
0.2474335522
0.3788657909
0.441991819
0.6908484425
0.3662116407
0.5403471546
0.3681790511
0.6042406225
0.216225152
0.4597198378
0.8218465355
0.5697576585
0.2429697756
0.5209635154
0.5317041527
)
;
    }
}


// ************************************************************************* //
