/*--------------------------------*- C++ -*----------------------------------*\
| =========                 |                                                 |
| \\      /  F ield         | OpenFOAM: The Open Source CFD Toolbox           |
|  \\    /   O peration     | Version:  2406                                  |
|   \\  /    A nd           | Website:  www.openfoam.com                      |
|    \\/     M anipulation  |                                                 |
\*---------------------------------------------------------------------------*/
FoamFile
{
    version     2.0;
    format      ascii;
    arch        "LSB;label=32;scalar=64";
    class       volScalarField;
    location    "0.004";
    object      internalT;
}
// * * * * * * * * * * * * * * * * * * * * * * * * * * * * * * * * * * * * * //

dimensions      [1 2 -2 0 0 0 0];

internalField   nonuniform List<scalar> 
546
(
301.0704063
302.942254
302.2314607
302.1908033
302.3789417
301.4240013
299.8261773
298.3129057
299.1235461
294.946233
294.1563837
294.097136
294.9368563
293.9517758
296.0061229
295.9481911
294.219108
294.5518769
295.4123291
295.7950026
302.5637165
302.5150383
301.3591894
301.4825109
299.458702
298.7378802
298.161975
297.4155948
297.9430019
298.7949503
298.2244938
296.1588229
297.5473076
299.5708399
300.0024611
301.6270406
304.6155332
307.0736805
303.3157559
304.1439208
297.8176526
297.7211027
297.4163748
295.5742336
301.7850156
303.5474141
303.2300834
302.9851619
303.3833663
301.6882641
301.4845996
302.1196607
300.5926374
297.2721436
296.8269179
299.0932015
296.2765444
298.6682034
302.4959867
300.8596927
298.6485396
297.7016741
298.9037293
299.1902545
297.123267
293.9589208
297.0151998
296.7937711
297.6946743
297.1993578
298.4313512
299.4173808
300.3263356
304.1211497
300.9526832
300.8462446
299.943389
297.440922
295.9181252
297.2479959
301.5431047
300.0820213
299.1492895
299.68543
298.9765521
300.4939125
297.355778
294.275525
295.8078156
297.6474695
297.0378046
296.9199458
295.3014119
296.1401511
295.1077029
295.585034
296.6764822
299.6899611
298.2780317
297.7466458
297.6398763
300.189269
299.835293
302.4889102
301.6177096
300.6718408
302.5714423
302.657635
305.2055633
305.5804672
302.4837047
300.2750077
299.49504
301.837646
300.0527792
298.8947616
298.9592501
297.9570452
295.6794757
296.8075015
300.7379265
300.9387877
299.5393843
301.0904014
303.243874
301.3152499
305.6535556
306.2992258
303.1453861
300.3498496
304.628845
304.4208253
304.4729218
304.6221319
302.2370532
303.0627151
301.6834562
301.1834343
303.5501788
304.6727891
301.1845018
304.5391484
303.7440248
305.1846077
305.5649059
305.1857767
302.2990846
297.4727792
296.7004967
300.5422884
299.8579008
298.7926703
299.8674312
301.1008951
300.0172756
301.1062206
302.1023357
301.0163391
301.3795051
300.683003
303.6942166
304.0197834
304.4257463
302.7315206
300.8739668
300.5018832
300.5076232
303.1840402
303.0349514
304.4476605
302.1996594
303.792487
301.8073062
301.2089183
301.0446534
298.2009267
299.1249679
296.394627
297.1666234
297.3376381
298.6965933
300.6264921
297.7561142
296.0646715
295.8336796
295.2649169
298.3303392
299.7560855
300.4846555
300.6076975
303.5033298
301.2862944
299.9297508
297.6169225
297.6704661
295.3183566
295.3929696
298.8012524
295.1946968
295.5055035
296.2134468
298.8970014
299.637179
301.3455276
302.8894484
303.8964541
301.9157408
299.4367854
299.2738748
299.6697807
297.0045481
297.6488548
295.1142202
298.4669261
296.5062099
296.7147797
298.1787651
296.6585314
299.0849659
299.9710979
301.991328
301.3448802
300.3277437
300.6778918
295.9451639
297.8738927
297.2759379
300.704018
298.0858166
299.3478142
297.7080101
298.4805634
298.8681777
298.5113288
299.4632357
300.4080164
299.4011687
300.6801463
300.5217374
301.5099692
298.2429358
299.8104047
299.2774134
301.8197844
303.8830629
302.5412361
298.643573
296.2575672
295.7507453
292.9820099
295.5406224
294.6121505
295.3429151
299.323504
298.1215446
298.1076382
299.6501485
300.1732114
300.1669191
299.1388417
301.9037263
300.6549578
300.9674712
297.255617
297.36414
297.1862578
297.9402984
301.2216608
301.0040148
303.7054912
299.5310086
301.1853556
300.5414543
297.3180341
300.0818019
299.9480064
297.9711861
299.870849
297.7179709
301.2156419
300.8776994
300.7466461
301.331317
302.8608361
303.4401741
304.6773972
306.8111044
302.770117
301.5244622
301.7622432
304.1263109
301.5889707
302.5353392
302.3404097
301.8321244
300.2951805
300.5494986
301.9886711
302.5424881
300.5560706
300.8455599
301.446527
300.6661208
300.1293464
301.9529363
301.2239416
301.9913041
300.556194
302.0121472
301.7003253
303.5554988
302.5670856
303.1424099
301.7381398
298.4485052
300.8014642
299.9527195
298.8497131
296.1163418
298.490113
299.8091914
300.7106173
301.2843681
300.2402041
300.8722045
299.917797
299.092735
298.642056
299.0736528
298.1263027
299.8041862
299.5347924
299.9958899
300.6832467
300.0863092
300.8359977
299.7803967
298.7828189
297.4202453
298.1240366
299.7057646
297.8411415
299.7160319
302.3726735
299.5372698
297.9639695
298.2755894
298.2940901
298.5794803
296.0788303
294.0084559
295.3107428
296.3852171
293.6958718
293.8487588
291.8149443
294.5029406
294.2260235
294.8053542
298.038555
303.7683467
304.1477025
303.6329438
302.747263
298.4810843
297.8988419
296.6236411
298.3506607
296.9250959
296.2740957
295.8130406
297.2341266
296.0534702
296.9096866
296.9573761
300.7829775
297.5038522
299.6519283
298.6875854
298.9506316
300.3291002
302.7307011
302.6845244
302.342394
303.6251286
306.0657591
306.7689214
303.314595
301.1921709
302.0611686
299.7575889
298.3285312
298.4579679
302.2655178
301.5819105
300.8067503
295.8352797
296.6908978
297.7069655
297.4621272
296.6097816
299.1689611
300.0154288
298.1364951
297.3005978
297.8096465
298.4674327
297.8737416
297.3110517
297.2312886
298.5155663
298.1461484
296.8422607
300.9747944
299.5868106
301.6579715
296.0794692
298.3460483
298.9151368
299.7090364
295.9960516
296.3831984
297.7472968
293.6481274
293.1706268
293.6234584
304.3198199
302.247844
299.6177308
298.6014202
299.2460496
301.2876973
297.2712556
301.1460724
301.1380859
300.3119466
299.6544524
299.8056741
302.2632838
301.9911956
302.5406153
299.7270618
303.1146881
302.417057
300.4016805
300.3275178
298.0846138
297.4668767
297.7216828
297.3211366
295.3588575
296.4794294
298.6525502
295.8907295
297.0954447
299.6217425
295.6327608
297.0150293
296.1405907
298.170434
296.8245334
298.8201915
299.3415824
300.1401689
299.7175313
297.4023171
302.8666037
298.7839372
299.8444699
299.6890206
298.3949213
296.0215827
297.0078458
295.4298298
296.1779476
297.5735497
299.5177063
301.0977727
299.3083117
299.475263
301.3371687
302.0406837
303.0759233
304.8974624
304.9215545
305.6321792
299.2721756
297.9716746
297.9551792
298.3116252
302.7921748
301.4628168
304.2652191
303.7813863
305.3916332
303.5353647
300.5006429
301.2453096
300.6504594
301.169114
300.4611857
300.7195943
302.1860593
301.3408507
304.5984438
307.721398
297.6844181
299.8992611
299.4154804
299.0759054
297.7285111
297.047744
296.6452411
297.9819981
295.7823354
294.5719182
299.7325405
298.4695893
298.078892
299.2565759
299.8249948
300.4150693
300.1992824
300.6593217
300.9056597
299.7473561
301.7240611
299.8024341
298.118544
298.3272135
298.8809549
298.0768123
297.5825567
298.6194761
297.5120132
297.0716822
295.8737597
297.0735648
298.431759
297.9281161
295.7569111
295.70239
293.9940239
293.5721758
297.99111
298.0220487
)
;

boundaryField
{
    flow
    {
        type            calculated;
        value           nonuniform List<scalar> 
48
(
301.0704063
302.5637165
297.8176526
298.6485396
301.5431047
297.6398763
300.7379265
301.1845018
303.6942166
298.6965933
296.2134468
301.991328
298.2429358
301.9037263
300.8776994
300.8455599
299.8091914
299.7057646
299.7057646
297.8411415
299.7160319
302.3726735
299.5372698
297.9639695
298.2755894
298.2940901
298.5794803
296.0788303
294.0084559
295.3107428
296.3852171
293.6958718
293.8487588
291.8149443
294.5029406
294.2260235
294.8053542
298.038555
295.8737597
297.0735648
298.431759
297.9281161
295.7569111
295.70239
293.9940239
293.5721758
297.99111
298.0220487
)
;
    }
    obstacle
    {
        type            calculated;
        value           nonuniform List<scalar> 0();
    }
    frontAndBack
    {
        type            empty;
    }
    procBoundary2to0
    {
        type            processor;
        value           nonuniform List<scalar> 
31
(
300.0514065
299.3430508
300.2102094
300.7472208
298.6201273
300.9997661
300.957716
301.0190156
298.0406501
299.1685182
299.5778809
299.0363344
297.9969238
299.7167012
299.7023143
297.5163139
295.1784991
295.3610255
295.4515756
297.6822537
303.1391054
300.7694014
305.5058468
304.5592054
307.6835659
307.5184282
298.5642092
296.0529854
298.8995603
300.7591316
300.7591316
)
;
    }
    procBoundary2to3
    {
        type            processor;
        value           nonuniform List<scalar> 
19
(
302.3492109
301.6583539
304.6424592
303.4809123
299.736011
299.0938823
292.9477194
303.6752976
299.5571791
300.3316154
297.1273963
299.100625
305.0130823
302.5729336
307.805924
293.704318
300.3322826
298.1959595
301.4993687
)
;
    }
}


// ************************************************************************* //
