/*--------------------------------*- C++ -*----------------------------------*\
| =========                 |                                                 |
| \\      /  F ield         | OpenFOAM: The Open Source CFD Toolbox           |
|  \\    /   O peration     | Version:  2406                                  |
|   \\  /    A nd           | Website:  www.openfoam.com                      |
|    \\/     M anipulation  |                                                 |
\*---------------------------------------------------------------------------*/
FoamFile
{
    version     2.0;
    format      ascii;
    arch        "LSB;label=32;scalar=64";
    class       volScalarField;
    location    "0.004";
    object      linearKEMean;
}
// * * * * * * * * * * * * * * * * * * * * * * * * * * * * * * * * * * * * * //

dimensions      [1 -1 -2 0 0 0 0];

internalField   nonuniform List<scalar> 
546
(
5.869850317
7.863101858
7.892965179
7.812612622
7.831559638
7.796225304
7.786353282
7.730903085
7.717130019
7.73607754
7.791095178
7.915006261
7.915095719
7.848277467
7.878909622
7.805291549
7.833452157
7.794152628
7.73974276
7.711235989
5.929417038
7.955421336
7.910229003
7.907766
7.899498323
7.930753454
7.919851367
7.92364047
7.866765773
7.862133594
7.863810307
7.805392568
7.839348086
7.777549735
7.777368825
7.773787675
7.839452101
7.897782225
7.919127013
7.922338631
5.845224786
7.824466516
7.812164375
7.766525409
7.85452403
7.901101121
7.902773123
7.893595373
7.905231461
7.939320119
7.901434491
7.934296632
7.855118434
7.865283964
7.839543709
7.833196413
7.741839983
7.778310909
7.787665866
7.762863364
5.912394669
7.993321341
7.925829191
7.876719675
7.823635744
7.821525685
7.879392857
7.866096426
7.908033291
7.853334136
7.869117436
7.829822213
7.914020923
7.895485581
7.954905593
7.952661857
7.894947393
7.832322153
7.978546371
7.916260006
5.922999139
7.988334239
7.915193878
7.951842162
7.962426834
7.908532016
7.82833457
7.849454228
7.793525561
7.726454198
7.77081761
7.797957749
7.823237498
7.838049375
7.840020275
7.867120912
7.913893429
7.974822002
7.888637536
7.877033911
5.915699655
7.889446403
7.816442023
7.805457735
7.82574952
7.897577008
7.84624717
7.838309916
7.876970314
7.920108212
7.911373965
7.893893357
7.871480095
7.863184749
7.874111589
7.92539318
7.93617828
7.847586399
7.884046165
7.936422323
5.844151615
7.86036558
7.873289
7.871400309
7.859117451
7.861974321
7.876646215
7.938733365
7.879855807
7.899720942
7.905408015
7.903118026
7.932691621
7.894753239
7.839032225
7.807660026
7.784726891
7.741025609
7.704906883
7.746743601
5.889509142
7.936650249
7.895756913
7.87251668
7.872740618
7.886050895
7.910630822
7.911763206
7.951943069
7.901131628
7.925493308
7.855535662
7.882982171
7.941522066
7.932361812
7.981162623
8.008960779
8.037484936
8.036693192
8.059882005
5.893201495
7.900990073
7.82896442
7.776602416
7.777794428
7.706589114
7.708413492
7.754261074
7.746613098
7.845977726
7.835547964
7.887246272
7.803973031
7.852219309
7.840942503
7.822925078
7.795501193
7.794466391
7.768661101
7.732924243
5.860033737
7.826670715
7.76403702
7.8699919
7.822129257
7.874806237
7.884779896
7.8748172
7.859807868
7.782761341
7.80006543
7.819014697
7.843065257
7.820536175
7.827919588
7.850870597
7.792193362
7.768502264
7.708865672
7.752498615
5.935082678
7.961070122
7.931317463
7.917688724
7.931566806
7.888549147
7.889417598
7.844412914
7.858309288
7.882664188
7.833262092
7.866256496
7.815402506
7.827659307
7.756608923
7.788435954
7.830233031
7.986409741
8.107139743
8.121249418
5.880161529
7.966127826
7.849294578
7.873030315
7.800527432
7.754463109
7.805381139
7.752588713
7.799445246
7.772832745
7.762082443
7.815776535
7.853673434
7.912127815
7.997663011
7.927669908
7.918812162
7.818688722
7.768770444
7.758180024
5.892245056
7.977004463
7.91363573
7.882646531
7.884449741
7.866298084
7.853853729
7.920000271
7.914318289
7.897196399
7.85976559
7.836510506
7.862952243
7.840269331
7.789270124
7.8206527
7.76681558
7.769493687
7.808589573
7.793354084
5.860641195
7.822629648
7.797039549
7.791192133
7.873987424
7.817027716
7.822165213
7.787136156
7.802517653
7.844869173
7.792215299
7.81960936
7.774793621
7.715879676
7.694662919
7.75140262
7.796322273
7.767632454
7.77472672
7.810425563
5.896204779
7.896495014
7.797182601
7.758964982
7.794855164
7.833687454
7.82722742
7.830448125
7.782391186
7.73417762
7.720100643
7.685906739
7.749440477
7.728457347
7.804622444
7.772859386
7.777845995
7.784126973
7.775825076
7.753947092
5.859673432
7.877862685
7.840690061
7.899763328
7.940473923
7.887154193
7.825788472
7.850116678
7.893202962
7.918783915
7.891768291
7.861101365
7.813507307
7.861623112
7.922557094
7.873820361
7.869237044
7.77551186
7.748923517
7.797444744
5.913802743
8.040697761
8.00058848
7.987628319
7.885952534
7.93179992
7.97022266
7.99208492
7.947786553
7.985121627
7.961141454
8.033306682
8.023123951
7.952810093
7.85023129
7.847670167
7.877042556
7.845772165
7.885675316
7.892614587
5.800013433
7.698112378
7.627028521
7.691961197
7.684020459
7.736742388
7.748273827
7.743242548
7.720829158
7.777566637
7.828561657
7.803087101
7.813112341
7.853319331
7.847723697
7.833766668
7.795638495
7.779303927
7.807108885
7.810528791
7.862717834
7.853802106
7.846137882
7.881726158
7.89257565
7.933080036
7.774798346
7.839367313
7.920537308
7.817518792
7.844354979
7.832217234
7.874841657
7.869297305
7.835164846
7.897103678
7.911679785
7.864443629
7.890645491
7.860499881
7.901808168
7.904203842
7.941125649
7.872179661
7.95693979
8.008263547
7.8053004
7.847374384
7.878553552
7.890575529
7.92878463
7.892373166
7.948785557
8.002956691
8.003484172
8.040755722
7.960194786
7.954460809
7.913513438
7.945058111
7.923403888
7.915056015
7.892897139
7.864414144
7.827825561
7.793604499
7.889607709
7.851710386
7.848315307
7.880721977
7.890179686
7.856066446
7.90392415
7.990333915
7.960056109
7.968334444
7.922292798
7.866952116
7.873435923
7.821345866
7.936904313
7.876277038
7.779323912
7.780587135
7.766699729
7.825899417
7.728350804
7.73777698
7.775418546
7.802820101
7.792029213
7.876074795
7.906305842
7.918122959
7.821875757
7.801414369
8.090219241
8.046297838
8.052537187
7.923243033
7.86310469
7.826141732
7.841444571
7.800879523
7.857057756
7.836731826
7.701035332
7.660049329
7.674694962
7.633670064
7.739718887
7.742867666
7.72911994
7.716214576
7.749054587
7.762708363
7.790533936
7.918299469
7.940488328
7.994208716
7.879317625
7.862811416
7.929920689
7.908118068
7.913412738
7.831014821
8.035286879
8.013346069
7.913630761
7.932961906
8.00731306
7.990993629
7.924901457
7.90631804
7.939096491
7.954727731
7.792253496
7.758005173
7.760247128
7.714112613
7.66854773
7.671746784
7.71866836
7.792057127
7.827335802
7.902612265
7.778977362
7.763293584
7.855384161
7.843459448
7.871912788
7.884415253
7.84451261
7.890459885
7.847048593
7.819579278
7.843649254
7.913052162
7.88950125
7.921948638
7.913080408
7.883594279
7.839070324
7.805869283
7.793369639
7.658339197
7.702469373
7.711930972
7.700399294
7.694700476
7.77204409
7.685171615
7.694394347
7.749279596
7.754307653
7.838615968
7.799140895
7.816676704
7.81213464
7.776953419
7.819148675
7.829818748
7.876413001
7.793404255
7.824433621
7.830958837
7.830610158
7.799189556
7.830692073
7.824925182
7.863848888
7.849878723
7.867821779
7.923518285
7.943255637
7.964235447
7.838702751
7.793585547
7.769246964
7.823669741
7.743212178
7.741427495
7.760629244
7.722378545
7.686906834
7.679558065
)
;

boundaryField
{
    flow
    {
        type            calculated;
        value           nonuniform List<scalar> 
48
(
5.869850317
5.929417038
5.845224786
5.912394669
5.922999139
5.915699655
5.844151615
5.889509142
5.893201495
5.860033737
5.935082678
5.880161529
5.892245056
5.860641195
5.896204779
5.859673432
5.913802743
5.800013433
5.800013433
7.698112378
7.627028521
7.691961197
7.684020459
7.736742388
7.748273827
7.743242548
7.720829158
7.777566637
7.828561657
7.803087101
7.813112341
7.853319331
7.847723697
7.833766668
7.795638495
7.779303927
7.807108885
7.810528791
7.838702751
7.793585547
7.769246964
7.823669741
7.743212178
7.741427495
7.760629244
7.722378545
7.686906834
7.679558065
)
;
    }
    obstacle
    {
        type            calculated;
        value           nonuniform List<scalar> 0();
    }
    frontAndBack
    {
        type            empty;
    }
    procBoundary2to0
    {
        type            processor;
        value           nonuniform List<scalar> 
31
(
5.877345851
7.887525266
7.827651704
7.77561039
7.782895473
7.732114172
7.77811123
7.907972169
7.901823269
7.88146106
7.820066259
7.781335114
7.781114783
7.784647709
7.803591935
7.833764773
7.794699435
7.799411505
7.867584748
7.882771527
7.843758055
7.812123271
7.771886627
7.748448789
7.862163828
7.840492545
7.875448794
7.825183886
7.770542737
7.816687218
7.816687218
)
;
    }
    procBoundary2to3
    {
        type            processor;
        value           nonuniform List<scalar> 
19
(
7.923013584
7.950348891
8.013143758
8.038090839
7.811451029
7.933165047
7.90278532
7.775354093
7.833574691
7.71491955
7.85163209
8.009105632
7.897361628
7.761083696
7.757460831
7.791117608
7.981478621
7.928465223
7.613372027
)
;
    }
}


// ************************************************************************* //
