/*--------------------------------*- C++ -*----------------------------------*\
| =========                 |                                                 |
| \\      /  F ield         | OpenFOAM: The Open Source CFD Toolbox           |
|  \\    /   O peration     | Version:  2406                                  |
|   \\  /    A nd           | Website:  www.openfoam.com                      |
|    \\/     M anipulation  |                                                 |
\*---------------------------------------------------------------------------*/
FoamFile
{
    version     2.0;
    format      ascii;
    arch        "LSB;label=32;scalar=64";
    class       volScalarField;
    location    "0.004";
    object      linearKE;
}
// * * * * * * * * * * * * * * * * * * * * * * * * * * * * * * * * * * * * * //

dimensions      [1 -1 -2 0 0 0 0];

internalField   nonuniform List<scalar> 
546
(
7.175428944
6.499121604
10.77822639
6.673605335
8.009950856
14.64770618
9.583670088
7.952057566
7.200505784
10.92793543
9.650643274
6.692308549
6.732280028
9.68309253
10.17113528
7.775424847
7.603030573
7.708868255
11.55734504
4.678080504
5.88845483
8.030168019
9.360822271
4.605664591
6.637639193
11.00363239
10.08177192
8.102331956
9.74511892
7.786479679
6.098417936
7.366060247
11.7329037
9.501594099
16.26505761
8.693396468
8.537890966
9.322873721
9.241844265
4.791747754
6.156888952
7.154850945
9.266991764
7.328041511
6.893943353
6.119570038
5.753178579
3.827476782
4.356770569
8.966889629
12.0230664
14.33788828
7.795151519
11.34762037
11.23292189
7.556269218
9.406414646
6.230323728
4.235132091
12.00008577
4.507750962
9.148768255
9.501622207
8.172557459
4.411975971
5.622182989
11.86920933
11.09762617
7.029787674
6.926821503
8.596935551
9.125984241
6.777988058
10.13578408
7.162542175
8.418799183
6.418410402
9.866898146
10.01257242
15.16184488
4.402717413
5.997789061
8.490844164
4.456409223
9.86572103
10.42146798
7.143644383
10.62488698
5.510916854
3.875185294
9.003321464
9.165184873
8.431027315
8.31471602
7.627290574
5.521775928
4.417691676
2.666572056
10.04649801
11.79410489
5.849231423
10.15909763
6.571038754
6.953182129
3.855192209
9.463078927
9.513555136
4.890345652
9.855598759
3.99717891
6.907030162
3.086653437
11.60229488
11.72558346
8.605742117
2.372275438
7.092497316
3.069030225
10.10148066
7.147235601
5.936544499
10.54489655
6.15030417
7.848714888
8.414924156
7.226116768
9.813123617
11.29831538
9.251302419
11.77814578
10.61122761
4.541457997
5.613833068
7.23747924
7.654092659
6.108007394
8.191254173
10.31338266
7.194140628
4.652434963
4.496121854
4.100572813
11.6891263
13.94977352
7.756334196
8.251778212
2.88758947
9.55186635
8.212329375
5.5699426
5.523112828
8.951318857
5.535405827
8.920002608
7.025554522
7.418993058
8.599062544
7.528072661
8.263266162
13.12429729
6.143103248
12.38345875
7.218713096
10.60356633
5.290951861
7.173016736
11.97938066
9.71550308
11.27431818
3.934573243
7.419061224
7.832846191
11.57387954
6.475352381
6.1974616
5.633118879
9.760562963
1.810985187
7.508090316
9.861327663
6.940125855
4.523396913
6.441411037
6.158505059
9.756645022
11.39029578
8.56106287
7.486298921
6.400153692
5.018335142
2.980767914
4.23221602
7.815425345
5.670841535
6.094656067
7.40398588
9.086715491
7.376741192
9.318878563
4.29114854
6.536136605
7.77470161
14.1564333
3.706542159
6.831938882
8.444236046
8.031507902
2.636912018
8.390357831
12.33931553
4.684190888
13.53627214
8.585775731
8.874047041
10.15556721
11.36038898
9.436176563
11.480401
1.788666203
5.057029174
7.119392326
4.35268055
6.120461994
3.511206956
12.08519118
5.912103514
6.394631393
5.479192139
6.362121017
6.894553886
6.737374942
5.390026829
12.25145958
7.596635994
10.34716372
14.24675724
7.638696271
6.863592238
5.557826487
13.14272611
7.335346554
6.625284129
9.120916115
9.601497773
7.110771727
4.477180487
6.593829268
10.31298567
6.05425595
8.466671781
5.044928758
9.899067188
9.312211744
9.131398806
7.315415557
9.356764321
8.500429493
11.89737399
5.509334127
10.02630903
5.942592131
8.90158357
5.867754141
9.206288745
9.64046071
10.13073457
13.06912209
8.2423624
8.683465236
4.44709323
5.741222601
9.449325271
8.793152839
9.280083358
9.0590434
9.344442323
11.41589197
5.345194259
8.370834613
3.838343242
6.381985983
5.818946294
8.941537464
3.162499649
3.712230339
9.215460072
6.751877415
6.670072548
7.215809495
9.21407859
10.00116928
7.661696346
5.110066525
2.318394447
14.06029863
3.541277166
8.699849208
8.697667725
11.14958919
6.135218901
6.145705095
7.548874403
8.954634868
8.063009789
6.645225704
12.34675587
5.985160372
8.279335477
5.764402712
7.586414045
9.379838533
7.984946129
4.765493327
8.598426376
3.430421946
6.360291277
4.258650215
8.164661072
9.491858196
11.83016149
5.03834621
9.557959053
4.892496451
10.72331438
8.2033161
2.62089357
6.746998986
11.96716005
8.363991101
8.4622323
7.285772687
9.677854248
10.3306444
7.326605645
9.827671903
8.044479076
7.747142752
3.526960732
8.105844749
6.547058262
5.045509003
8.284379995
9.243070256
8.333095047
6.093593337
3.842929265
6.647147328
6.59907305
3.914720936
7.473350512
11.55003203
7.09827289
9.516447722
7.52393015
9.056002244
8.850256692
9.927344522
9.945485459
5.728680436
8.932848998
1.631641722
7.154455318
5.336796013
5.407308892
3.386719728
8.548982606
5.494276993
6.679304447
5.140932174
6.175609906
13.49578704
9.279840211
5.584813718
5.15230352
13.79883688
2.627780975
14.06855523
13.71115516
6.622469269
4.481947889
7.296695409
12.29369273
9.040343252
10.7829847
6.677268112
6.701964735
6.206333616
8.777433665
9.058160244
9.214458302
5.520648033
6.887674062
3.896924453
6.634126546
5.921790027
6.39328885
8.922274077
10.94164377
10.05380509
5.203474923
6.772331819
6.06738896
6.577199914
7.895562085
4.558421178
10.36075891
8.554470152
5.826666842
5.505284878
4.466904768
9.3746836
6.191660606
7.661956363
10.47860284
5.28370491
4.60867088
8.735576314
6.943363161
6.333073857
5.657695492
5.834002909
5.534014129
7.290355697
9.781714032
7.547547506
4.258904304
8.145349021
6.971729047
5.743200207
3.593406754
16.78456727
3.626420012
7.629316158
6.274092061
6.048342145
5.310642231
7.009715279
3.584289167
7.18028972
6.146074596
7.521518382
4.818494182
9.270740905
8.748019956
8.01263631
4.294535332
8.821874688
6.736274947
7.756265605
9.154830562
7.287608526
9.189828112
7.619009779
7.384231641
8.135213934
11.91768982
4.901489289
7.36307889
5.986545977
5.195316484
9.86982371
5.962782028
5.497349392
7.379814474
6.419489226
5.77049703
10.47068023
8.630840914
9.802279937
2.696581
9.590063665
8.090430231
7.142715546
7.187163044
6.514915134
4.861301858
10.50936314
9.222750809
4.143676953
8.285178537
6.916128806
8.344468185
8.405686551
6.808168189
7.87222445
9.1966936
5.652287311
12.60616017
10.16785574
5.661020969
8.869002041
6.376148056
5.226042633
12.35389564
10.0591086
8.067590796
8.671562749
8.548751247
9.118087467
14.88845361
7.446979734
5.167077614
5.426863446
8.605821631
10.04415756
5.844262206
7.12163666
7.994947372
8.980188543
9.614136794
7.64866974
8.281394407
4.145888695
10.2357884
5.211013258
8.363235788
7.563199167
6.953556659
9.666195857
11.06091597
4.868649675
9.368861925
6.834600567
12.92978552
4.055528041
7.605704778
9.005417876
4.251763226
8.838248614
9.04435414
8.067017133
7.519405658
11.55125319
9.812448368
7.208765653
4.871681203
8.209032586
9.083133149
11.82780907
3.954053844
6.967307916
10.94167073
7.383144825
12.03441328
8.65413072
6.468017606
)
;

boundaryField
{
    flow
    {
        type            zeroGradient;
    }
    obstacle
    {
        type            calculated;
        value           nonuniform List<scalar> 0();
    }
    frontAndBack
    {
        type            empty;
    }
    procBoundary2to0
    {
        type            processor;
        value           nonuniform List<scalar> 
31
(
6.123162975
3.313434701
6.988190431
10.23417553
8.648083471
7.203299316
6.681957082
5.744871194
6.364146671
4.902301777
6.644001762
11.5303437
9.162818049
5.918386466
1.88390582
10.38277521
10.5315997
11.48953799
11.85747567
8.550051542
3.312429627
13.87465712
8.131586185
9.517985699
8.942757793
6.297743989
6.371307439
11.11496551
7.220816305
6.981004577
6.981004577
)
;
    }
    procBoundary2to3
    {
        type            processor;
        value           nonuniform List<scalar> 
19
(
5.466665282
7.130133817
13.12146828
13.95462027
8.068418623
8.822976844
8.787074716
8.468157725
8.66417862
7.703711551
5.725680446
8.721885066
4.47192587
8.038591411
13.21188579
11.94872626
3.504181774
9.384962945
11.83510149
)
;
    }
}


// ************************************************************************* //
