/*--------------------------------*- C++ -*----------------------------------*\
| =========                 |                                                 |
| \\      /  F ield         | OpenFOAM: The Open Source CFD Toolbox           |
|  \\    /   O peration     | Version:  2406                                  |
|   \\  /    A nd           | Website:  www.openfoam.com                      |
|    \\/     M anipulation  |                                                 |
\*---------------------------------------------------------------------------*/
FoamFile
{
    version     2.0;
    format      ascii;
    arch        "LSB;label=32;scalar=64";
    class       volVectorField;
    location    "0.004";
    object      momentum;
}
// * * * * * * * * * * * * * * * * * * * * * * * * * * * * * * * * * * * * * //

dimensions      [1 -2 -1 0 0 0 0];

internalField   nonuniform List<vector> 
546
(
(0.007343492659 -0.0008091773049 0.0003543730161)
(0.006982566792 2.124424439e-05 -0.0004596438017)
(0.01250390436 0.0002360888591 2.732519924e-05)
(0.007125331936 -9.69070368e-05 -0.0001242874873)
(0.008126148804 3.109401566e-05 -0.0003120163858)
(0.01471199494 -0.0002371001806 -0.000113407395)
(0.01011618238 -0.0005958308447 -0.0001145384313)
(0.009042914264 -0.0008242642198 -0.0004413476191)
(0.00741673177 -0.0003678017724 -0.0003656144299)
(0.01155509198 0.0001851401999 0.0009902143181)
(0.01102940978 0.0002555219029 0.000332440697)
(0.006960174385 -0.0008149915329 0.0004754985327)
(0.007025197248 -0.0002487423299 -7.950492278e-05)
(0.0100328834 0.0004629491901 -0.0004305291687)
(0.01022644764 0.0003552365493 2.421221633e-05)
(0.007876020999 -0.0004339097077 0.0004768105292)
(0.007769677039 -0.0002382847804 -0.0005231534899)
(0.008792517723 0.0001127404303 0.0003301303191)
(0.0118257763 2.196419073e-05 -0.0005065518371)
(0.004993064014 -0.0009175811323 0.0001569681991)
(0.006173340559 -0.0001932511332 -0.0003044794298)
(0.007985178166 -0.00011834567 0.000447764067)
(0.01007898611 -0.0008983728957 -0.0005770812593)
(0.005049055313 -0.0003963793933 0.0003995343517)
(0.006963404817 -0.0007166154316 -0.0004326187811)
(0.01053378209 0.0002208606641 -0.0001933797514)
(0.009572827787 3.703126817e-05 0.0008548914726)
(0.008170734161 -1.934584806e-05 0.0005730687382)
(0.009461593109 0.0002537103554 -0.0001978392169)
(0.008165248962 0.0006659501062 0.0008732452113)
(0.006576752533 5.205723165e-05 -1.277590203e-05)
(0.007682891927 -0.0002361595804 -0.0001781024437)
(0.01309477384 -0.001280862711 -0.0002298995614)
(0.01111362038 -0.0004672023121 0.0003223295361)
(0.01698196033 0.0005479168436 -0.0002199409804)
(0.01007735652 -0.0005488968803 0.0006652418264)
(0.008743277874 -0.0001287796084 -6.69979829e-05)
(0.009869885736 -0.001062416446 -9.005941447e-05)
(0.009175745848 -0.000648985891 0.0002013449883)
(0.005046725482 -0.00054721609 -0.000358666111)
(0.006422901612 -0.000311105279 -0.0004140843911)
(0.007402835033 0.0001275920113 0.000108645317)
(0.009558030873 0.0003947952618 0.0003330660711)
(0.007453110187 0.0006575612239 -2.25556109e-05)
(0.007226177204 -0.000378606775 0.0001973060177)
(0.006765379603 -0.0008769165673 -0.0002205914631)
(0.006189662776 0.0002400969296 0.0002077547576)
(0.004146115134 0.0004254338881 -0.0008435426723)
(0.004951219406 7.2988614e-05 -0.000286829922)
(0.008907509025 0.001649532339 -0.0001866368664)
(0.01230325334 -5.637379589e-05 0.0001461594189)
(0.01499256924 0.000747872139 0.0007161456606)
(0.008480354835 -0.0007400742095 -0.0004190679922)
(0.01219390078 -0.0009111352336 -0.0001752927018)
(0.01181371163 0.0007069802475 0.0008737770407)
(0.00807823083 -0.0004824737967 -0.0002007157642)
(0.01020393988 0.0004299315311 0.001096695366)
(0.006906024692 -1.163435796e-05 0.0003758203192)
(0.004592675045 2.589994537e-05 0.0004363716544)
(0.01279948728 0.00108680843 -0.0002065214538)
(0.004949255329 0.0003610330499 0.0007092431094)
(0.008967174683 -0.0001691681401 0.0002359699936)
(0.009933306294 0.0003177431757 -0.0003480063569)
(0.009548383391 -0.001193975013 -0.0003597873722)
(0.004965098707 -0.0004174389108 -0.0002602322117)
(0.005527842276 -0.0001142623587 -0.000240297532)
(0.01284931733 0.0004711346698 0.0009072934401)
(0.01158930627 -0.0005684058259 -0.0002858477881)
(0.007353315238 -3.0304976e-05 -0.0001670701098)
(0.007855879629 0.0007875255834 0.0002017148709)
(0.009877198195 -1.67919725e-05 -1.119745404e-05)
(0.009691128179 -0.0004679743948 -0.001008609623)
(0.007163428265 0.0003368002665 -0.0001964861272)
(0.01066158593 0.0001282924255 0.0007040043864)
(0.007821285505 -0.0002353909905 -0.0003383985945)
(0.008703515589 0.0003922154688 0.0002950817915)
(0.006856082593 -0.0007658721079 -0.0003767393186)
(0.0109892512 -0.0003097366246 -0.0002931586073)
(0.0107625887 -0.0002319521201 1.689485933e-05)
(0.01654242421 -6.716742279e-05 0.0008421887035)
(0.005238272539 0.0001512055998 -0.000600006048)
(0.006692750967 -5.033732465e-06 -0.0003587496589)
(0.009502397606 0.0002001685004 0.0004609526304)
(0.005087932903 0.0001131992165 0.0004594434437)
(0.01045614824 0.0001004435885 0.001103009968)
(0.0108291405 0.000115812255 -0.0001416107603)
(0.007146937271 -0.0001519278934 -0.0004964702472)
(0.01080730587 0.000623100985 0.0004400927274)
(0.005523909804 0.0001398395051 0.0001528806271)
(0.004273666358 0.0005476320889 -0.0001058949174)
(0.009712624686 -0.000416002749 9.599331177e-05)
(0.01056978124 0.0003579142907 0.0002944697054)
(0.008316259343 3.356833431e-05 -7.25092231e-05)
(0.008564915238 0.0002674321845 0.000309018162)
(0.008063989642 -5.954324746e-05 0.000683774734)
(0.005106025879 -0.0008729045668 -0.0002335698449)
(0.004956364555 -0.0005827419056 0.0004216764889)
(0.003117410359 0.0004266230366 0.000276900933)
(0.010383433 0.0004088515362 -0.0001921298566)
(0.01236914851 -0.000577395552 -0.0007313429389)
(0.006660042623 0.0005801462216 -0.0004999861616)
(0.01069183126 0.0003021970903 -0.0003121995766)
(0.006710496539 4.979770294e-05 0.0002066423409)
(0.007761828604 0.0003078842941 -0.001008345366)
(0.003750384724 0.0002342964203 -0.0001643083293)
(0.009509936668 -0.0003852485637 0.0007270927828)
(0.009921090113 0.0001403186079 0.001158304875)
(0.005049788963 3.015430152e-05 -0.0001859153555)
(0.01119263662 0.000262406084 -0.0007262169426)
(0.004301164893 -4.293809333e-05 -3.199968768e-05)
(0.007958558935 -0.0003682683664 5.612429104e-05)
(0.003322811032 0.0002423793936 0.0002857832625)
(0.01235624884 -0.0006105323403 -3.310125787e-05)
(0.01225430241 -0.001199031905 -0.000336722621)
(0.008252671191 0.0004453290662 -0.0002485634107)
(0.002403153308 -0.0002295079188 -0.0001110875907)
(0.007914625327 0.0009716051485 0.0004199825336)
(0.003799255754 0.0003296677055 -0.0001802945378)
(0.01116874437 -0.0004544849892 -0.0006375340142)
(0.006730599433 -0.0001252393096 8.996741679e-05)
(0.005847600712 6.770734949e-05 0.0005364940674)
(0.01116604624 0.0006947133477 -0.000635290543)
(0.006686381652 -0.0003026316428 -0.0005508249226)
(0.008009900582 -4.572953365e-05 0.000799495915)
(0.008995656883 -0.000596009554 -0.0004723929793)
(0.008352758504 -0.000130832833 0.0005153564885)
(0.01075628101 -0.0003474877013 1.788315959e-05)
(0.01211530629 0.000106777154 0.0002063217444)
(0.009491177445 -0.0002045427477 0.0003397631015)
(0.01196144151 -0.0006426686917 -0.0001247310678)
(0.01069219813 -0.0006029704676 3.738086474e-05)
(0.004974170302 -0.0004261717367 -0.0003740719932)
(0.005269890028 -6.501214723e-05 -0.0008367018359)
(0.007353272171 -0.0006000420651 -2.932551366e-05)
(0.008177098687 0.0003433610505 -0.0007067792084)
(0.00611345563 -0.0003942251324 -0.0002244822485)
(0.009374359186 -0.0001811285432 0.0001906763853)
(0.01058063243 0.001137115031 -0.0005985013257)
(0.007779830683 0.0003779584809 0.0006436474206)
(0.005051200185 -0.0004511251026 0.0003901006491)
(0.005122179322 -0.0004482017857 -0.0002273830249)
(0.004329226326 -0.0001132926174 0.0002311813097)
(0.01308574093 0.0004633208014 0.001009107871)
(0.01321637678 -0.0002316306406 -0.0002997680785)
(0.008474577475 0.0002395564089 -0.00035444385)
(0.008748316029 -0.0007807814804 4.93069741e-05)
(0.003636820215 -0.0001345835311 0.0002495712965)
(0.01020726419 -0.0002544670622 0.0002253785999)
(0.008253224037 0.0008684355209 0.0008011354397)
(0.005965105343 7.323595558e-06 -0.0003974001415)
(0.005602572388 0.0002310105586 -0.0001596575231)
(0.009381512313 0.001016972784 -9.939011065e-05)
(0.005683283018 -0.0009101058974 0.0002608909965)
(0.009580248201 -0.0004764970957 0.0006362177315)
(0.007218466924 -0.0003593146378 0.0001516400497)
(0.007470036787 6.082311622e-05 3.03942216e-05)
(0.008483179634 0.0008726800819 0.000728245471)
(0.008128318792 0.0001084087895 1.45573991e-05)
(0.008504236778 -0.0001871382293 -0.0002474989746)
(0.01294458946 0.0001862030494 -0.001321275276)
(0.005780951883 -0.0005423925475 -0.0002357657211)
(0.01267515258 0.000300161976 -0.0002494380922)
(0.007371092504 -0.000296067928 0.0002316953099)
(0.01067885306 0.0004762384107 0.0002911483595)
(0.005447870734 -7.301353073e-05 0.0001255024396)
(0.007478230093 -0.0005007379443 -0.0003091799371)
(0.012432863 -0.000351853622 -0.0002883796291)
(0.009860599285 0.0005029922959 7.5287101e-05)
(0.01168844262 0.000188889467 -3.938308832e-06)
(0.005128490901 4.449693707e-05 0.0001370590201)
(0.008044289095 0.0004966257164 0.0001206534926)
(0.008070334564 0.0002545057984 -0.0004625245179)
(0.01208325532 -0.0002059234889 0.0003756409527)
(0.006809875341 0.0005362544885 -0.0002189870174)
(0.006654561963 -0.000423275298 -0.0001068114315)
(0.006376666298 0.0003342238522 0.0002075754808)
(0.01062817135 0.0004520782571 0.000307361862)
(0.002170203762 -0.0003902336386 0.0002703052409)
(0.008126629992 4.495537284e-05 0.0001569879612)
(0.01059852732 -3.601330759e-05 -9.43515348e-05)
(0.007481797933 0.0003174550154 -0.0001678118128)
(0.005010584225 0.0004401859827 0.0001858140522)
(0.006726478354 -0.0002248543404 0.0004061648855)
(0.00691512245 -0.0005706042185 -0.0009130999912)
(0.01009107699 0.0005520144215 0.0009394964852)
(0.01161737897 0.000251179118 -0.0001688177958)
(0.009461035917 -0.0004302321956 0.0006415623382)
(0.007427042103 -0.0002172088655 -0.0003064637269)
(0.007337154953 -0.0003430895417 -0.0002647558586)
(0.00518896572 -8.500966675e-05 0.0001327717375)
(0.003403194507 4.228879077e-05 -0.0002545150857)
(0.004530491542 -0.0006873936909 0.0002202955447)
(0.00875746335 0.001006126212 0.0001373466387)
(0.005966819329 0.0005252849901 9.011907664e-05)
(0.006767348056 0.0007637971391 0.0004899407074)
(0.007686923902 -0.0003744540798 0.0009668514908)
(0.01062039009 0.001263305906 0.000396923885)
(0.006830713751 0.0003169429312 -0.0003806179811)
(0.01004694465 4.823905795e-05 0.0003756975032)
(0.004539083213 0.0001700196034 0.000409413339)
(0.007827642977 0.0004443398613 0.0002020127833)
(0.008216200027 0.0001986572127 0.0004092057488)
(0.01500906365 -2.390934746e-05 0.000413272434)
(0.003933820185 -0.00044269378 -7.767319991e-05)
(0.007262722453 -0.0003197260609 0.0001256941694)
(0.008354973773 -4.899916893e-05 0.0001498657588)
(0.008638873129 -0.0006891387614 0.0002439902788)
(0.002851635237 0.0008356714265 -0.0001179579426)
(0.008027806847 0.0005480939398 -0.0001308067572)
(0.01229512241 0.0004325190393 0.0001050209864)
(0.005365830748 0.0004118938508 0.0003248111036)
(0.01381628867 -0.000142035699 -0.0003177883077)
(0.00899651563 -6.674750131e-05 -1.599108032e-06)
(0.009558253682 -0.0003519723849 0.0003697153668)
(0.01007027518 -0.0001054806736 0.0004664103259)
(0.01212216063 0.0002744589571 -0.001068233264)
(0.0101299101 -0.001009469191 -0.0002245965284)
(0.01216849843 0.0006267172564 0.0001630669236)
(0.002145084977 -0.0003014134348 0.0001491529806)
(0.005664068901 0.0001703710055 -0.0004149080953)
(0.007568737562 -0.0003202543055 -0.0005828264109)
(0.004924676138 -0.0001634055679 -0.000107415687)
(0.006969944969 -0.0006302283291 -0.0003550391313)
(0.004002332428 -0.0002055369791 0.0006369838982)
(0.01283774928 -0.0001500928914 0.0006685633517)
(0.006921010377 -0.0001952130002 0.0009621244693)
(0.006395600662 7.928294207e-05 -0.0002269651865)
(0.005941089058 0.0004166280436 0.0003805809615)
(0.006709219533 -0.0003042372916 -0.0002154810167)
(0.007768091412 0.0002890788275 8.078771291e-05)
(0.006622195777 -7.86709767e-05 -1.610981026e-06)
(0.00612673897 0.0002197187481 -0.0005699776719)
(0.01243020229 0.0004455164024 7.911166633e-05)
(0.00741097072 -0.0008291487263 -1.208214122e-05)
(0.01073729029 -0.0002547765313 -0.0006649101334)
(0.01460038415 0.0001360564779 0.0001965053149)
(0.008710339525 -0.0001824135469 -0.0009098482665)
(0.007207760126 -0.0004531509484 -0.0003704589637)
(0.005612155317 0.0002666312706 -0.0001717075089)
(0.01400248155 0.0005553294944 -3.918960487e-05)
(0.008597357432 0.0002837022008 0.0001831974166)
(0.006815000253 -0.0008867895267 -0.0001961782794)
(0.0100321276 0.0001368465104 0.0001118974107)
(0.009744227797 0.001166354751 -0.00114004602)
(0.008130105737 0.0002808252169 -0.000376470981)
(0.004991401987 -0.0001413966932 -0.000304261197)
(0.006884959314 -0.0007521903948 -7.789951043e-05)
(0.01061511173 0.0009141390362 -3.59201123e-06)
(0.006189409407 -0.000230470646 -0.0002244157089)
(0.009017245508 -0.0005871047884 -4.561219782e-05)
(0.005314027999 3.889648256e-05 -0.0004792215447)
(0.009851687567 -0.001096957534 -0.0006742794606)
(0.009753694207 0.0008996669837 -0.0004289064685)
(0.009667825209 0.0006004697414 0.0003406790165)
(0.008111990415 -0.0004338000488 0.0002838988007)
(0.00969676887 -0.000329531729 0.0007934949476)
(0.009231996558 0.0001216120891 0.0003154612195)
(0.0125246073 -0.0002554702416 -0.0003607335304)
(0.006517556776 -0.0004048310661 -0.0002091650038)
(0.01109349429 -0.0006288718533 0.0003035153091)
(0.006167034638 0.000169934026 0.0002181133134)
(0.008755443601 -5.778359086e-05 2.069300893e-05)
(0.005911354467 -0.0003091363808 -0.0005300008922)
(0.009883609095 -0.0001141313999 -0.0006640011011)
(0.01006722844 -9.895579266e-05 0.000517931318)
(0.01068221071 -0.0001320088567 0.0004488714902)
(0.01436378976 0.0003155807002 0.0001029741318)
(0.008904819975 0.0009200483385 4.93743601e-05)
(0.009423515144 -0.0003533499491 0.0002889441356)
(0.004822903124 -0.0006086151977 0.0004927778112)
(0.006006328229 -0.0005157333755 0.0005417207676)
(0.010620605 0.0001287864122 -0.0003567922451)
(0.009217185714 0.0002537081237 0.0004322393376)
(0.009797340006 -0.0004035279905 5.834540202e-06)
(0.009688977337 0.0004585430208 -0.0005458901208)
(0.01020287883 0.0006137299 0.0004631629978)
(0.0122325416 -0.0004899840648 0.0009975538471)
(0.005110526042 0.0003666238948 0.0003314250889)
(0.00889727249 0.0007057835853 0.0003796675017)
(0.003834981882 0.0001230764757 -0.0004255081382)
(0.00696830434 -5.464067634e-05 0.0002386772714)
(0.006529538454 0.0004443811809 0.0001521758179)
(0.009682731503 0.0004881309146 -0.0005123557914)
(0.00347576632 0.0001625231502 -0.0003800760993)
(0.004164614115 -0.0001053917963 -0.0002659062353)
(0.01016776095 -0.001120933146 6.142381007e-06)
(0.008302081579 0.0009236058744 -0.0003068862387)
(0.007463408362 0.0006403150792 -0.0007870061246)
(0.007342271204 0.000293782663 0.000405647008)
(0.009340980217 -0.0002691871858 -0.0005605987791)
(0.0104250556 -9.358070794e-05 0.0001793019327)
(0.008062003683 0.0005974205529 -0.001128823499)
(0.005836384889 0.000177026673 -0.0002784659813)
(0.002057425562 -0.0001462128247 0.0001163762964)
(0.01456621171 -0.0007840369897 0.000550447955)
(0.004008921129 -0.0003044441006 0.000132363906)
(0.009439160882 0.0001339225293 -6.567499182e-05)
(0.00941828863 0.0001701423813 -0.0003600018564)
(0.01162389141 -0.0006430630759 -0.0005608822597)
(0.006269214231 -0.0003302755875 -0.0002536447644)
(0.00672448917 0.0006294805911 0.0002738718811)
(0.008259707883 0.0002350728283 -0.001464422801)
(0.009740393504 -0.0005097111872 -0.0007416909369)
(0.009183023554 0.0002751654578 0.0003912646476)
(0.0069048459 -0.0004189639567 -0.0002819422592)
(0.01186813003 0.0004010737256 0.0001429502373)
(0.006647515986 -0.000261572347 3.252732628e-05)
(0.008714808685 -0.0003757926327 0.0005900285805)
(0.005555119743 0.0002684163856 -0.0007342388687)
(0.00837833278 -0.0001410544773 -0.000241801722)
(0.009568408567 0.0002908189697 0.0001735815694)
(0.009087131438 0.0001063703278 -0.0001952082471)
(0.005238295896 -9.400826724e-05 0.0002147604716)
(0.008866058359 0.0007786260911 0.0002016217492)
(0.00396903681 -6.183302599e-05 -0.0002232444948)
(0.006869272416 -0.0002817291116 0.0002442216431)
(0.004847376377 -0.0004925164301 -1.838354843e-05)
(0.007677324858 -0.0006299310603 0.0005189270177)
(0.01048874419 -0.0005833157341 -0.001018678963)
(0.01239819773 3.490345272e-05 0.001380958891)
(0.005776815119 -0.0001092965834 -0.0002937760171)
(0.01030631464 -0.0002488088289 6.274705157e-05)
(0.00585038048 0.0001587207028 0.0003094269737)
(0.01044574718 0.001243769027 0.0003474733707)
(0.008820298366 -0.0004343710846 -0.0002654146388)
(0.003045420349 -0.0002675799693 -0.0001035878134)
(0.007366490025 0.0002470558088 0.000132342286)
(0.01139964792 0.0004997281192 0.0004896888403)
(0.008675803404 -0.001258943049 -0.0004875912823)
(0.00944409647 -3.884880738e-05 0.0002763157794)
(0.007389691181 0.0003574909108 -0.0002222989749)
(0.01061703034 -0.000796664885 -0.001003201582)
(0.01042995801 0.0003728360185 -0.0004268573768)
(0.007773531025 0.0004362365126 0.0001302034048)
(0.01052402095 -0.0005200547408 0.0005373264284)
(0.008637186672 0.0001786693509 0.0007892877638)
(0.008147133681 -0.0003677896569 0.0005606525989)
(0.004052614455 0.0002050584342 0.000152931317)
(0.008279945006 8.552751645e-05 -0.0001320903059)
(0.0066602584 1.016052267e-05 -0.0001617134709)
(0.005247035559 0.0002981030735 -0.000387823045)
(0.007946368128 -0.0004339935827 0.0001403889948)
(0.009296881651 -0.0005626755408 0.0004035419597)
(0.00937821421 0.0001742776247 0.000168058483)
(0.007075077511 0.0001985920902 -0.0002489795521)
(0.004191741323 0.0002532212884 -0.0001405816354)
(0.006910177983 -4.931586327e-05 -0.0002673311733)
(0.006726816099 1.881864018e-05 -4.145424491e-05)
(0.004347021264 -0.0004194739952 -4.498036908e-05)
(0.008224838672 -0.0004104049018 0.0004298099393)
(0.01219045248 -0.0002252924987 0.0001156174508)
(0.007281215772 -0.0001453608637 0.0002141588186)
(0.009940861465 0.0002584388411 -0.0007155703037)
(0.008324004932 2.834734075e-06 0.0005985913405)
(0.009659432567 -0.0001409352516 3.183526945e-05)
(0.01004311382 0.000199558994 0.001156638745)
(0.009894585455 -7.275407693e-05 0.0002746867399)
(0.009760526482 0.0003146753846 -0.000336146051)
(0.006537587099 0.0002079802121 -0.0005176608772)
(0.008549143286 0.0002347224126 0.0003140007459)
(0.002104881841 -6.857430365e-05 0.00013786111)
(0.008126412597 -0.0006033914712 -0.0002540057604)
(0.005622635492 -1.693431671e-05 -0.00017611471)
(0.00579255108 -0.0002719547532 0.0002174272229)
(0.003645127768 0.0004393976506 0.0001844417847)
(0.009132466997 -0.0002148733215 -0.001169407914)
(0.005530058472 -0.0005178933071 0.0001538850266)
(0.007509348093 -2.465417366e-05 0.0002794520319)
(0.005471927417 0.0001566291986 -6.43906135e-05)
(0.007293094304 0.0004800819553 -0.0001649206005)
(0.01467821026 -0.0001338753699 -0.0009069162676)
(0.009569786369 -0.0004214588997 -0.000549105335)
(0.005633883125 -0.0003836052137 0.000346490897)
(0.005604561804 0.0004036467456 -8.75565031e-05)
(0.0147624679 -2.231801072e-06 -1.979898298e-05)
(0.002688962772 0.0002840589637 0.0006464421604)
(0.01404804769 -0.0009846401426 0.0003786713283)
(0.01422187816 0.0005251310947 -3.73062285e-05)
(0.006887270438 0.0004091363286 -0.0003799601512)
(0.005078917526 -0.0001469245437 -8.011690025e-05)
(0.007462207431 -0.0001072042252 -0.000360774898)
(0.01406695828 0.0002097915312 -0.0003606037593)
(0.009545431656 0.0003645676013 -0.0004686517885)
(0.01136016513 -3.035076195e-05 -0.000552658212)
(0.007247336156 0.000635257677 -0.0004675068928)
(0.007412672601 0.0006768643747 -0.0002962105453)
(0.006787585423 -0.000444853462 -0.0002443723754)
(0.009145422354 -6.053424428e-05 0.0003459572332)
(0.009346840104 -0.0007755754293 -0.0001849106406)
(0.009689260345 -0.0006308741377 0.0004425732806)
(0.006009339378 -0.00113407226 -3.356638625e-05)
(0.007359343558 -0.0006022798291 0.0004900165693)
(0.003842386167 3.813957296e-05 0.0003363127652)
(0.007120733222 4.224715408e-05 -2.600161136e-05)
(0.006700810851 -0.0006930537472 0.0006181028462)
(0.006699727218 7.957619716e-06 0.0003952927866)
(0.009582790073 0.0001880220147 -0.001307230826)
(0.01229113031 -4.085900725e-05 0.0003305413034)
(0.01077109424 -0.0003027613773 -0.0007659339602)
(0.00534506369 0.0004530898036 -0.0003418521668)
(0.007597568545 0.000658804385 -0.0002583192553)
(0.006425053267 -0.000434479422 8.938504743e-05)
(0.006984719406 0.0003200127772 -8.857675847e-05)
(0.008274179678 4.533253028e-05 0.0005165535284)
(0.005169908139 -0.0001737515251 0.0002821694454)
(0.01003029476 -0.0007443798415 0.0001505866304)
(0.009028729588 0.0009174568173 -0.0006950969545)
(0.006045211522 0.0007774662368 -0.000582298967)
(0.005955954578 -0.0001048906804 0.0005852751841)
(0.005628015972 0.0005494430439 -3.396132564e-05)
(0.009921272967 0.0006576593198 0.0002826278427)
(0.006988155585 0.0003987894971 -0.0001201889823)
(0.008476031881 -6.275670079e-05 -0.0005123046785)
(0.01000335815 -6.350285035e-05 0.0003812827223)
(0.004873971667 -0.0001504796321 -0.000285806114)
(0.005246111137 0.0005530949552 0.0002028002839)
(0.009720427373 0.0003991937923 -0.0001086299076)
(0.007029184786 0.0004430794138 -0.0003953362129)
(0.007361426396 -0.0002071807502 -3.83996699e-05)
(0.006239802332 0.0002078551363 5.585821847e-05)
(0.00616426934 0.0001513438691 -0.0003060353067)
(0.005707847022 1.307999941e-05 0.0002177533373)
(0.007432447171 9.346919563e-05 0.000297877829)
(0.01039700661 -0.0003926110523 -0.0003803770605)
(0.008979086815 -0.0004387214387 -0.000280529842)
(0.004577454612 -0.0005670102567 -0.0001795070002)
(0.008621543112 0.0001013876872 -0.0001831252722)
(0.007696770687 -0.0005187356325 -0.0002281678068)
(0.005665694019 0.0001520593322 -0.0001698465708)
(0.003725607135 0.000170485571 0.000677745551)
(0.01748309372 -0.0002596001014 0.001137984015)
(0.003694096902 -0.0006303352125 -0.0001013928107)
(0.007962925803 0.0002578408256 4.745610787e-05)
(0.006998866306 -0.0001898117534 -0.0001388456879)
(0.006856183862 -0.0005142280884 9.002341864e-05)
(0.006206664725 0.000767819302 0.000135625266)
(0.007563168381 -0.0005091142783 -9.208237768e-05)
(0.003968054389 -9.407771122e-05 -0.0001282349172)
(0.007834946505 -0.0005193761327 -0.00020544643)
(0.00671120266 -0.0008801061919 -0.000516668416)
(0.008058523925 -0.0006711762866 0.0001130867112)
(0.005255459949 -0.000207037698 -0.0002794280823)
(0.00990757698 -0.001232205471 -0.0008031115199)
(0.009142363094 0.0001988691231 5.343123357e-05)
(0.008843929274 -0.0002435256623 2.569863991e-05)
(0.005043248133 -0.0002133515829 -0.0003587280293)
(0.009518603981 0.000771083196 -4.546639761e-05)
(0.007405269497 0.0001537438102 -0.0001448453923)
(0.00796411773 -0.0004394476043 0.000254767834)
(0.009325454311 6.564086296e-05 0.0004590742928)
(0.008039603573 0.0001474562182 -0.0002218923048)
(0.01001446366 0.0007987395263 0.000521258453)
(0.007801825066 0.0008466532505 0.0002974139788)
(0.007197438306 0.0003704144187 -0.0005107960634)
(0.008391823601 0.0009075767224 2.599850167e-05)
(0.01234994441 -0.001101604109 -0.0008193027712)
(0.005308910393 1.232720449e-05 -0.0001977970082)
(0.007507572352 3.360305525e-05 0.0004414155581)
(0.006683685513 -0.0003460910598 0.0003159633026)
(0.005730531317 -0.0007073303375 0.0005939295821)
(0.01000978499 6.067010019e-05 -0.0001687633028)
(0.006231482272 0.0009920949214 0.0008602556716)
(0.006071084682 0.000585982311 -0.001085929262)
(0.00721245735 0.0001538716457 0.0003674899396)
(0.006597543277 -0.0001337778387 0.001117725063)
(0.006816438637 0.0001657237099 0.0007052347102)
(0.01120459114 4.636874162e-05 -0.000109387227)
(0.009244141706 0.0004703599535 0.0009584696745)
(0.009324712848 1.887191474e-05 -0.0002028823798)
(0.002756313094 -0.0002090357037 0.0002024717507)
(0.00959275986 0.000860349725 -0.0001747295524)
(0.008077052649 -0.000525487907 -0.0004611496827)
(0.007769237189 0.0005570241599 -0.0005213712468)
(0.007965640328 -0.0001627057982 0.0001136476366)
(0.007579027446 5.442534e-05 -5.119942255e-05)
(0.005352925804 7.82755995e-05 -0.0008880800624)
(0.01020962628 -0.000329794656 0.0001058927554)
(0.01050786118 0.0001862246753 -0.001302715349)
(0.004446893346 0.0005483877256 0.0002631805777)
(0.007945503498 0.0001808469107 0.000364116812)
(0.006787630973 0.0003057205254 -0.000353475521)
(0.009131780912 -0.0002964132819 6.671396093e-05)
(0.008862447313 0.000212871654 0.0002567765585)
(0.007733753524 -0.0006355156724 0.0006143656001)
(0.008307213019 -3.213134406e-05 -0.0002512896887)
(0.01001653168 -0.0005506378278 1.034994971e-05)
(0.005551471338 3.45673203e-05 -0.0003756320776)
(0.01313008051 -0.0002329428273 0.0004082044042)
(0.01109568525 0.0003566060934 0.0003155340723)
(0.006192156664 -9.89868021e-05 -0.000119977818)
(0.009224093397 -0.0004399053249 0.000229876219)
(0.007440425362 0.0001446692411 0.0004640753741)
(0.005337196703 -2.324258542e-05 0.0004994616378)
(0.01260503777 -0.0005747349275 6.608517185e-06)
(0.01086307267 -0.0002355147165 -0.0002210337159)
(0.008328878381 -4.802877953e-05 -0.0004157083474)
(0.007943483883 -0.0004600573995 0.000406824819)
(0.00894101129 -0.0006336412385 -0.0005465051134)
(0.009762721221 0.0001191585247 0.0004836685573)
(0.01492235151 -0.0003222642882 -8.768504667e-05)
(0.008395580558 -0.0002716840363 0.0003539731824)
(0.005520708096 -0.0002238835827 -9.930989372e-05)
(0.006068239041 0.0007385086993 0.0001889642727)
(0.009106380819 -0.0001804937905 0.0007222975178)
(0.01101216177 -2.696075669e-05 0.0003844284528)
(0.006355462109 -0.0007201635272 -0.000265955425)
(0.007116807474 -0.0001558419388 0.0005836975451)
(0.009022696739 -0.0004470777159 0.0004868278107)
(0.009216031337 0.0007210432926 -0.0006166551242)
(0.01042865219 0.0007803959307 0.0005902819171)
(0.008165239669 0.0006437943495 -4.596316452e-05)
(0.00873544603 0.0005134932207 -0.000375898167)
(0.004946033003 0.0001495193822 -0.0003087650635)
(0.01063235712 0.0001593590983 3.894191509e-05)
(0.005780020813 0.0001040673923 0.0003655763174)
(0.008572396857 4.390411651e-05 -0.0002054543621)
(0.007575356162 2.26956476e-05 0.0002750879825)
(0.007127556395 0.0006304745923 0.0001592133468)
(0.009512407441 0.0001424239004 -0.0002578367677)
(0.01160288124 0.0005560463047 -0.0005470102516)
(0.005845743995 0.0001709544052 -0.0003142948452)
(0.009928843187 -0.0001595941436 -0.0002770666543)
(0.007269878361 0.0001139431688 0.0002961869986)
(0.01407093424 -0.0005117295749 2.784608895e-05)
(0.004458833924 -0.0003537069402 0.0001417755689)
(0.007657723041 0.0007180994085 -0.0006753070391)
(0.009226101166 -0.000130505618 0.0005053248419)
(0.004333762981 0.0007183651712 -0.0005690108102)
(0.009732910074 -7.498301583e-05 0.0002880081935)
(0.009398823557 -0.0009753112183 0.0003884010192)
(0.00825750977 -0.0005416212783 -0.0009359537667)
(0.007949818551 0.0009846531791 -0.0001593585798)
(0.01255708007 -0.0001920215315 -0.001407036093)
(0.01053777932 -0.0004957931208 0.0003930327667)
(0.007652583233 0.0004882858286 -6.128596164e-05)
(0.005391927289 -1.91698411e-05 -0.0001908230723)
(0.008949383423 -7.388631735e-05 3.400761664e-05)
(0.00949097229 7.147373295e-05 -0.0008314976902)
(0.01208814948 0.0002442237221 -0.0009946616408)
(0.004459337028 9.31924086e-05 0.0001173181093)
(0.006882172433 -8.900795614e-05 0.0002005011047)
(0.01176514181 -0.00116196883 -0.0009733854989)
(0.008051150839 0.0004006623558 0.0002457697126)
(0.01256002729 7.384113716e-05 1.144484317e-05)
(0.008629553535 -0.0004274149557 -0.000254412085)
(0.006682180998 -0.0003323859433 -0.0007090787196)
)
;

boundaryField
{
    flow
    {
        type            zeroGradient;
    }
    obstacle
    {
        type            calculated;
        value           nonuniform List<vector> 0();
    }
    frontAndBack
    {
        type            empty;
    }
    procBoundary2to0
    {
        type            processor;
        value           nonuniform List<vector> 
31
(
(0.006824339107 0.0007641329032 0.0005668322106)
(0.003500579686 0.000520888551 -4.712648118e-05)
(0.007570932066 2.551096979e-06 -0.0002110369187)
(0.01027537941 0.0007871400828 7.975736557e-05)
(0.009263886214 -0.0001144390172 0.0004977387709)
(0.007291468226 8.940180744e-05 -0.0001629647011)
(0.006987434202 5.061676475e-05 -0.0002655043557)
(0.006659871981 -0.0002312781778 -0.0004472827989)
(0.006657948059 2.513871688e-05 -0.0001101436427)
(0.00557403324 -0.0002177559985 -4.77317383e-05)
(0.007325037237 0.0009600744857 0.0008971872206)
(0.01271903905 0.0002387980825 -0.0002018673665)
(0.009324991656 -3.797455208e-06 0.001148543629)
(0.006198923606 7.931581292e-05 -5.331449967e-05)
(0.00196412975 -7.838915413e-05 -4.456326292e-05)
(0.01065591341 0.000874355096 -0.0004358875418)
(0.01042854184 0.0002483469719 0.0002189764423)
(0.01163946656 0.00037826477 -0.0002301819993)
(0.01238063007 0.0005898976197 -1.107457254e-05)
(0.009237953689 -4.431480122e-05 0.0005705584058)
(0.003989292848 -0.0001121342713 5.548537776e-05)
(0.0133640365 0.0008614745682 0.0008390809601)
(0.007886985746 -0.000221558534 -0.0001449343203)
(0.01033373519 -5.16313694e-05 -0.0001490694619)
(0.009179660299 -0.0001646759388 4.642095145e-05)
(0.006624016956 0.0004638189421 -0.0002309761412)
(0.006794655706 0.0009861953539 0.0005950858156)
(0.01116159941 -7.542653336e-05 0.0003519438196)
(0.007553655936 -0.0004898770185 1.606674285e-05)
(0.007673314669 0.0001317996282 -0.0001213642165)
(0.007673314669 0.0001317996282 -0.0001213642165)
)
;
    }
    procBoundary2to3
    {
        type            processor;
        value           nonuniform List<vector> 
19
(
(0.005781530927 4.622390637e-05 0.0005471868767)
(0.008092781166 -0.000457918192 -0.0002133263197)