/*--------------------------------*- C++ -*----------------------------------*\
| =========                 |                                                 |
| \\      /  F ield         | OpenFOAM: The Open Source CFD Toolbox           |
|  \\    /   O peration     | Version:  2406                                  |
|   \\  /    A nd           | Website:  www.openfoam.com                      |
|    \\/     M anipulation  |                                                 |
\*---------------------------------------------------------------------------*/
FoamFile
{
    version     2.0;
    format      ascii;
    arch        "LSB;label=32;scalar=64";
    class       volVectorField;
    location    "0.004";
    object      momentumMean;
}
// * * * * * * * * * * * * * * * * * * * * * * * * * * * * * * * * * * * * * //

dimensions      [1 -2 -1 0 0 0 0];

internalField   nonuniform List<vector> 
546
(
(0.00633624077 -1.318871312e-05 6.551411646e-06)
(0.008305535503 -1.505918557e-06 2.875665184e-06)
(0.008389191222 1.739322358e-05 3.516652313e-06)
(0.00831274792 2.010675143e-05 -4.837424347e-06)
(0.008327369773 7.462036269e-06 -4.65697491e-06)
(0.00828236885 9.306101426e-07 6.776900219e-06)
(0.008268194406 8.00089776e-06 5.219309748e-06)
(0.008202825366 -1.216051307e-06 -2.690157676e-06)
(0.008176580077 -1.434831287e-05 -6.971762151e-06)
(0.008198076663 -9.594446102e-06 -1.699229154e-05)
(0.008249042556 -2.391569003e-05 -2.259321882e-05)
(0.008374597515 -9.900234933e-07 -4.275834537e-06)
(0.008363736835 8.920687774e-07 -7.084783865e-06)
(0.008307685239 9.562477408e-06 4.339166999e-06)
(0.008340594197 1.71053786e-05 1.726339359e-05)
(0.008265206053 1.272391384e-05 -3.914221538e-08)
(0.00829729128 5.88495836e-07 -9.251891891e-06)
(0.008248440608 -1.491820964e-06 -5.458547551e-06)
(0.008188929625 9.716841832e-06 -2.925912234e-06)
(0.008165078046 1.950325846e-05 -1.487744961e-05)
(0.006392793649 1.626151696e-05 3.408917842e-06)
(0.008380666733 1.077551159e-05 1.10691654e-05)
(0.008372472889 1.592588117e-05 2.20875645e-05)
(0.008377549715 8.154678495e-07 9.254147227e-06)
(0.008381828616 1.054993141e-05 -1.275312101e-07)
(0.008429892454 9.854808441e-06 -1.310268401e-05)
(0.008411195639 -1.298020327e-05 -1.271977153e-05)
(0.008416389775 -1.681927495e-05 -1.917765927e-05)
(0.00835885672 -9.275982794e-07 -1.816302255e-05)
(0.008350689296 7.137251567e-06 -9.962814755e-06)
(0.008345421635 1.298840529e-05 -1.824600223e-05)
(0.008279697948 3.20773438e-06 -1.589557875e-05)
(0.008323301479 -3.531333032e-06 -2.135327365e-05)
(0.008238883896 -7.413887341e-06 -2.060845832e-05)
(0.008241890703 2.480365693e-06 -2.331751961e-05)
(0.008237395723 8.201145111e-06 -5.353635944e-06)
(0.008311209009 5.51819004e-06 -4.891827817e-06)
(0.008387848521 2.032983426e-05 -4.451843693e-06)
(0.008417125526 5.843154745e-06 1.081910588e-05)
(0.008417809138 5.749128208e-06 1.304072566e-05)
(0.006308471893 1.160297065e-05 -2.497783908e-05)
(0.008265893035 1.202890184e-05 -3.673738531e-05)
(0.008288277081 5.07566999e-06 -2.019105106e-05)
(0.008246210076 -9.693381538e-06 -1.628080191e-05)
(0.008318140919 -1.557746798e-05 3.644633863e-06)
(0.008355366362 -1.382690702e-05 2.519688449e-06)
(0.008366418159 1.555001191e-05 -9.298516135e-07)
(0.008357016408 2.169595959e-05 -6.331377862e-07)
(0.008373435628 1.956259194e-05 -3.665979779e-06)
(0.00841764938 2.439231363e-07 -1.00153896e-05)
(0.008382181653 1.85343236e-05 -1.634498506e-05)
(0.008418374762 2.100710661e-05 -1.228872525e-05)
(0.008353294421 1.736910716e-05 -1.18521533e-05)
(0.008354863486 8.861008154e-06 -1.454719378e-06)
(0.008327964473 1.065227301e-06 -2.730427582e-06)
(0.008315312562 -8.423551309e-07 -6.590411753e-06)
(0.008222907597 4.872615078e-06 -1.183440796e-05)
(0.008257676709 2.804901585e-06 -1.355451315e-05)
(0.008258283607 4.70765886e-07 -1.291185645e-05)
(0.008223723562 -5.369893247e-06 -2.460272041e-05)
(0.006371222474 1.068273153e-05 -2.062665178e-06)
(0.008423002253 -1.025928833e-06 1.360572818e-05)
(0.008407312262 -4.400768348e-06 -2.410827798e-06)
(0.008351299936 -5.134152949e-06 -1.595709711e-07)
(0.008292840876 -1.241243501e-06 -1.072562871e-07)
(0.008286816853 2.678404689e-06 1.00815687e-05)
(0.008347692371 -1.806113036e-05 5.39246933e-06)
(0.008331106526 -1.321375324e-05 -1.738136517e-06)
(0.008375295995 -1.208119763e-05 -5.161466224e-06)
(0.008316003242 6.056639117e-06 -2.084105672e-06)
(0.00832900279 -1.463305165e-05 -4.350740578e-06)
(0.008279574606 -9.478097237e-06 -9.878206745e-07)
(0.008367154769 8.589380574e-06 -1.720985317e-05)
(0.008361236795 2.529576324e-05 -4.631044326e-06)
(0.008431070421 2.933727239e-05 -8.814732698e-06)
(0.008419528325 9.268806294e-06 -8.186491765e-06)
(0.008359106159 9.524174081e-06 -4.056578756e-06)
(0.008305758962 -3.584534722e-06 -4.976351495e-06)
(0.008466084203 -1.869427377e-05 -9.30760851e-06)
(0.008403555425 -1.301202263e-05 1.598615879e-06)
(0.006370318731 -1.784072455e-05 2.744197531e-08)
(0.008402569965 -6.827142387e-06 -5.567391003e-06)
(0.00838005121 -1.834437445e-06 -7.322176147e-06)
(0.00842810287 6.223211633e-06 -1.0000944e-05)
(0.008435467392 3.881127752e-06 -1.19679376e-05)
(0.00838893656 8.738841642e-06 -1.920307048e-05)
(0.0083066883 1.937639818e-05 -1.195674967e-05)
(0.008328150639 1.649381963e-05 6.525627814e-06)
(0.008268662293 -3.708484371e-06 4.609479975e-06)
(0.008199186499 -2.040001483e-06 5.444632261e-06)
(0.008230952451 2.578139652e-05 9.806523888e-06)
(0.008259320943 6.886941278e-06 1.381707135e-05)
(0.00828208731 2.951450827e-06 2.877625517e-05)
(0.008300746159 -1.782767726e-05 1.952644623e-05)
(0.00830959964 -1.795999086e-05 9.712054289e-06)
(0.008339664203 -1.436951613e-05 1.286545134e-05)
(0.00838930248 -9.623663658e-06 1.890082547e-05)
(0.008451173706 -1.822303755e-05 1.459672219e-05)
(0.008361391332 -1.272929924e-05 1.553658242e-05)
(0.00835468478 -1.648957291e-06 1.441307144e-05)
(0.00636572928 -8.881025036e-07 5.891492602e-07)
(0.008303077579 -5.18569183e-06 3.1872604e-06)
(0.00827994109 -3.535420322e-06 5.299650142e-06)
(0.008266946981 1.993386751e-05 1.613932575e-05)
(0.008292255894 2.11550283e-05 1.834153532e-05)
(0.00836748607 1.373001774e-05 2.049446329e-05)
(0.008315181537 1.875746347e-05 1.99821862e-05)
(0.008305984316 4.807241442e-06 5.914701142e-07)
(0.008359911158 2.530375453e-05 2.026744356e-05)
(0.008407367743 -1.626419607e-06 1.923569472e-05)
(0.008402353294 -2.743202668e-05 2.368047794e-05)
(0.008382685639 -2.005836442e-05 1.41607992e-05)
(0.0083522247 -1.360727557e-05 1.080631209e-05)
(0.008326163633 -7.640365291e-06 7.947241357e-06)
(0.008332293586 -2.190061184e-05 1.578460189e-05)
(0.008389500554 -1.765192627e-05 1.403219493e-06)
(0.008399489634 -1.312205437e-05 -3.15228661e-06)
(0.008304464887 -8.560616137e-06 -1.084891109e-05)
(0.008357507252 -4.510292425e-06 -9.239661099e-06)
(0.008386704429 -5.233762995e-06 -6.275336408e-06)
(0.006313655992 4.345407852e-06 -1.201600447e-06)
(0.008301216492 1.174098568e-05 1.219727245e-05)
(0.008364495374 9.660332355e-06 1.95040199e-05)
(0.008361293741 3.597992667e-06 2.293789231e-06)
(0.008348568336 -1.13617663e-05 -4.516670632e-06)
(0.008353362737 -5.190675457e-06 -7.570364853e-06)
(0.008366472619 -1.930332628e-06 7.779189051e-06)
(0.008419827641 -6.47457368e-06 1.084339749e-05)
(0.008351319955 -1.08414893e-06 2.237705336e-06)
(0.00838590418 -1.890888168e-06 2.613446241e-06)
(0.008381163563 2.101944126e-05 7.139521694e-06)
(0.008386652388 1.714809863e-05 5.008539948e-06)
(0.008423798822 1.526505019e-06 -1.309146365e-06)
(0.008379049974 -5.364202169e-06 -5.368295753e-06)
(0.008329071652 9.126144501e-06 -6.299837351e-06)
(0.008293842367 1.056532409e-05 3.119349787e-06)
(0.008273748209 5.132666418e-06 5.609039116e-06)
(0.008224361774 -1.423969183e-05 1.478738263e-05)
(0.008178687215 -1.458163941e-05 1.42985753e-05)
(0.008217819884 -1.656191447e-05 3.655969392e-06)
(0.006350023529 2.679041966e-06 1.225406249e-05)
(0.008384783382 -1.244202147e-05 -3.016269338e-06)
(0.008392663799 -2.106378789e-05 -1.470369128e-05)
(0.00837333085 -1.946242105e-05 -8.739450455e-06)
(0.008374381566 -1.669510426e-05 1.335176453e-05)
(0.008381744983 -1.034336685e-05 5.647107294e-06)
(0.008406290315 -6.886716067e-06 -1.595158512e-05)
(0.008404245053 3.12702362e-06 -7.847108387e-06)
(0.008448298455 -3.779527415e-06 -1.482585759e-05)
(0.008386294699 7.934116939e-06 -1.373239895e-05)
(0.008411822086 5.555893719e-06 -1.36367095e-05)
(0.008345708085 -3.779193658e-06 -1.903590572e-05)
(0.008374736469 -1.482007713e-06 -8.445422269e-06)
(0.008438077503 2.548636513e-06 -1.545732524e-06)
(0.008429120981 -4.128516185e-06 -5.319787742e-06)
(0.008487541201 -6.56755906e-06 -6.320895104e-06)
(0.008506810052 -2.509843867e-06 -1.319018521e-05)
(0.008534910836 1.952678741e-05 -1.71867447e-05)
(0.008544383316 3.236385626e-06 -2.201667237e-05)
(0.008561949557 5.826085599e-06 -8.609191382e-06)
(0.006373472298 -1.194710502e-06 -1.000718729e-06)
(0.008350219431 -4.928789384e-06 2.269861126e-07)
(0.008328755402 -2.324007858e-05 3.608145508e-06)
(0.008273380734 -2.149496459e-05 -9.288784037e-06)
(0.008275201365 -7.437200746e-06 -5.358719712e-06)
(0.008192044414 -2.538513821e-06 1.72898159e-07)
(0.008196230723 -6.72211892e-06 5.255212369e-06)
(0.008239936096 -1.445230965e-05 8.437265788e-06)
(0.008229385321 -1.189309752e-05 1.361372356e-05)
(0.00832989842 -1.478826301e-05 9.703339531e-06)
(0.008332717995 -7.258792116e-06 5.810699011e-06)
(0.008386916735 -6.439311537e-07 1.775661375e-05)
(0.008297919754 3.639459686e-06 2.150355067e-05)
(0.008343881611 -4.185760441e-06 2.028475244e-05)
(0.008331442995 -1.636307856e-05 1.350289866e-05)
(0.008307563488 -2.335110449e-06 1.339400319e-05)
(0.008289051128 -1.755966713e-05 1.370691939e-05)
(0.008281859176 -1.63167711e-05 -2.4729677e-06)
(0.008251692555 -2.461519982e-06 4.238732905e-06)
(0.008205497372 -2.249420194e-06 -4.967323718e-06)
(0.00631701913 8.16031968e-07 4.835446846e-06)
(0.008255969727 1.563849922e-06 1.56353574e-05)
(0.008241386912 5.928117022e-06 1.630390641e-05)
(0.008338405512 5.427951956e-07 3.035631533e-05)
(0.008285856579 -4.539975883e-06 3.474107838e-05)
(0.00835485487 -4.704972248e-06 3.119844306e-05)
(0.008365156975 -3.769911211e-06 2.354000518e-05)
(0.008369706683 -1.054181528e-05 -2.774883133e-06)
(0.008341771365 -1.66356535e-05 3.281770677e-07)
(0.008265937355 -2.155883964e-05 -5.188032357e-06)
(0.008286890652 -1.785967039e-05 -7.541449259e-06)
(0.008299970462 -1.412456938e-05 -1.823863305e-05)
(0.008330098449 -1.333582232e-05 -2.96002212e-05)
(0.008308173675 2.485062544e-07 -3.165076275e-05)
(0.008310091721 5.390180534e-07 -2.486143448e-05)
(0.008329531777 7.541334688e-06 -2.483987053e-05)
(0.00827034994 2.597812278e-05 -2.16149593e-05)
(0.008248472346 3.702021436e-05 -2.293294786e-06)
(0.008193502871 2.948761479e-05 -1.127218931e-05)
(0.008230571986 1.189528212e-05 -8.41484224e-06)
(0.006399499621 -4.187887692e-06 3.563186016e-07)
(0.008390826162 -5.964443987e-06 -5.758648761e-06)
(0.008401578534 8.549013775e-06 -1.898933928e-06)
(0.008393591054 -1.084043311e-06 -5.298145034e-06)
(0.008409763176 -4.166048237e-06 -2.357255716e-05)
(0.008368225215 -1.264866011e-05 -1.638370624e-05)
(0.008368459282 -1.059250168e-05 -8.329723917e-06)
(0.008305179098 -9.312010615e-06 2.342164228e-07)
(0.008326427782 -2.480014324e-06 3.381454234e-06)
(0.008362160813 -4.152491052e-07 2.123921648e-06)
(0.008306665561 -9.444999293e-06 1.296929576e-05)
(0.008341272661 -4.702536949e-06 1.740549343e-05)
(0.008290177551 -3.663099929e-06 2.441109546e-05)
(0.008305657216 6.301171922e-06 7.221454085e-06)
(0.008227133982 2.467805902e-05 1.093039642e-05)
(0.008269796237 1.541835298e-05 1.396355273e-05)
(0.008303303206 4.481468138e-06 6.795594585e-06)
(0.008473523108 -1.621044315e-05 -5.371507929e-06)
(0.00858204245 -1.228986055e-05 2.672843965e-06)
(0.008604065998 -1.177295323e-05 4.308333599e-06)
(0.006329862696 1.023361786e-06 6.093661322e-06)
(0.00838436901 9.959169281e-06 6.240106756e-06)
(0.008324278915 -7.779232695e-06 -5.413443402e-06)
(0.008339758689 8.974728976e-07 -6.110041589e-06)
(0.008255489082 1.147061889e-06 -1.485059075e-06)
(0.008216135917 -9.873817281e-06 -9.708162159e-06)
(0.008263128415 -1.016557175e-05 -6.078155063e-06)
(0.008212791758 -8.462358714e-06 -1.374120515e-05)
(0.008252014547 -1.997419275e-05 -6.5232276e-06)
(0.008229177732 -1.401117247e-06 -4.377076304e-06)
(0.008216504175 3.882984311e-06 -2.020477997e-05)
(0.008284212416 1.174676023e-06 -9.234137042e-06)
(0.008304117918 -9.075496162e-06 3.108875193e-06)
(0.008365044247 -2.026880853e-05 2.431677967e-05)
(0.008464109692 -2.339237421e-05 2.190235761e-05)
(0.008393749397 -2.6680197e-05 2.391062195e-05)
(0.008397431037 -2.045574293e-05 2.81662882e-05)
(0.008286929312 -9.944425653e-06 3.269488399e-05)
(0.00824843227 -1.168445354e-05 3.124208892e-05)
(0.008250157157 -4.233680475e-06 2.869198064e-05)
(0.006327704922 5.397886751e-06 -1.022052442e-05)
(0.00838529684 -1.331739635e-05 -2.198118253e-05)
(0.00837462144 -4.256903125e-06 -1.552543381e-05)
(0.008344441469 9.699538053e-06 -1.485785184e-05)
(0.008347124001 7.98265116e-06 -1.59474303e-05)
(0.008327120317 3.818573167e-06 -9.580889791e-06)
(0.008318778531 -4.07063512e-06 -1.056310633e-05)
(0.008390343873 3.20454767e-06 -3.906025853e-06)
(0.008391249215 1.208272004e-05 3.830508767e-07)
(0.008371398129 -1.622214878e-05 7.346848278e-06)
(0.008337929213 -9.321789499e-06 1.065326017e-05)
(0.008300261306 -3.030683335e-05 1.677913115e-05)
(0.008323645215 -2.321633522e-05 -9.962492922e-07)
(0.008309169637 -1.834698432e-05 -1.556541649e-05)
(0.0082633311 -1.45635317e-05 -1.797104226e-05)
(0.008295652821 -8.068581521e-06 -1.987144523e-05)
(0.008232852225 -7.521362052e-06 -1.33235318e-05)
(0.008238286911 -4.829350459e-06 -6.379947539e-06)
(0.00827262997 1.954650283e-05 -4.702395643e-06)
(0.008261055716 2.565912728e-05 3.35958543e-06)
(0.006334633878 4.178736003e-06 -1.431594929e-05)
(0.008253034518 9.23952519e-07 -1.152862601e-05)
(0.008280202851 1.844046672e-07 -3.336514568e-06)
(0.008275225903 -9.085225327e-06 -5.398076675e-06)
(0.008361356476 -1.575728296e-05 5.982420714e-06)
(0.008318483666 7.143027876e-06 7.362915475e-06)
(0.008308947317 7.449515275e-06 8.332402784e-06)
(0.00827577984 1.169927893e-05 3.993878948e-06)
(0.008285900234 -2.74970891e-06 -1.285808289e-05)
(0.008325062313 -2.574910043e-07 -9.727346366e-06)
(0.008273930864 -2.792347238e-06 -2.013400875e-05)
(0.008312217531 6.154236318e-07 -2.670302256e-05)
(0.008263730901 4.736571508e-06 -2.212747609e-05)
(0.008212514666 5.847569468e-06 -1.788397242e-05)
(0.008188033884 1.221282124e-05 -1.030790077e-05)
(0.00824298875 -5.439276129e-07 -1.357107727e-05)
(0.008286821406 -5.947128698e-06 -9.945810282e-06)
(0.0082586941 -2.021353889e-06 -2.414960925e-05)
(0.008256482198 -1.687113094e-05 -1.729186371e-05)
(0.008303293503 -1.518353239e-05 -1.945988769e-05)
(0.006370355807 -1.072279092e-06 -7.574027466e-06)
(0.008352036253 -6.680382795e-06 -4.835221301e-06)
(0.008302465054 -7.67667947e-06 -6.123700549e-06)
(0.008255180207 1.054036679e-07 4.679679917e-06)
(0.008285020269 6.985724889e-06 1.366386392e-06)
(0.008331103228 1.828200099e-05 -4.424353984e-07)
(0.008317191149 2.787186796e-06 6.095893549e-06)
(0.008322931011 1.07694854e-06 5.946359567e-06)
(0.008269170194 -6.04648062e-07 4.753740852e-06)
(0.008222289602 4.506831489e-06 5.773186266e-06)
(0.008219980211 1.209131895e-05 5.273436367e-06)
(0.008180557654 1.131722498e-05 2.941770843e-06)
(0.008250227114 -4.020971525e-06 1.623756597e-05)
(0.008218970204 -1.280440678e-05 1.584484505e-05)
(0.008300301891 -2.734688868e-05 -6.151758192e-07)
(0.008269468674 -7.956388283e-06 -8.681541815e-06)
(0.008263259532 -1.336557488e-05 -4.345944399e-06)
(0.008272388855 -2.219014884e-05 -5.073143609e-06)
(0.008260490225 -2.523418168e-05 -1.429287728e-05)
(0.00823559339 -1.82968622e-05 -1.061448763e-05)
(0.006325046052 6.580922455e-07 -4.549915002e-07)
(0.008321332892 1.239504033e-05 -1.115913292e-05)
(0.008312765756 1.784247121e-05 -7.970600366e-06)
(0.00837178948 2.124211059e-05 -9.525907547e-06)
(0.008427711607 9.656694087e-06 -1.099218489e-05)
(0.00835941072 -1.565186048e-06 -2.139492126e-05)
(0.008307647005 1.018214632e-05 -1.041238939e-05)
(0.0083256745 2.720995786e-05 -7.644467266e-06)
(0.008365712556 2.369785341e-05 -4.011073763e-06)
(0.008392228199 9.040333976e-06 -2.637655984e-06)
(0.008351001479 5.174969185e-06 4.923678999e-06)
(0.008326366384 -2.509025428e-06 5.339148864e-06)
(0.00827870922 4.950058654e-06 -1.459589858e-05)
(0.008336667473 6.584751797e-06 -1.335246223e-06)
(0.008402189507 2.863787367e-06 2.802278443e-06)
(0.008341564582 -1.006834549e-05 7.247971546e-06)
(0.008339195097 -1.230889002e-05 1.340438453e-05)
(0.008246943201 -8.751870353e-06 7.388851853e-06)
(0.008217297751 7.314807604e-06 -4.901448229e-06)
(0.008265825415 -9.365925749e-06 2.643140124e-06)
(0.006379226714 7.912576093e-06 -1.435450645e-05)
(0.008466169727 5.893074046e-06 -1.743526288e-05)
(0.008476554648 -7.124619795e-06 -2.043446179e-05)
(0.008456357368 -3.211443269e-06 -1.572326362e-05)
(0.008348515441 2.518843096e-06 -7.950092309e-06)
(0.008394303103 2.398135046e-06 -8.641842473e-06)
(0.0084386671 9.423014174e-06 -1.082431085e-05)
(0.008461173426 -7.25455188e-06 -1.686742117e-05)
(0.00843604648 7.347271618e-06 -9.535185344e-06)
(0.008469705415 1.439845255e-05 -4.905357123e-06)
(0.008445416989 5.032933422e-06 -1.040584807e-05)
(0.008509768899 4.877788562e-06 -6.480309656e-06)
(0.008500139324 1.774871822e-05 -7.856662941e-06)
(0.008426708081 1.76918797e-05 -1.034143347e-05)
(0.008310428711 1.069329522e-05 -2.078837212e-05)
(0.008318958928 1.803969352e-05 -2.567637231e-05)
(0.008344807318 1.774112657e-05 -3.393912576e-05)
(0.008314561509 9.497788685e-06 -2.565071024e-06)
(0.008350936078 -4.974596718e-06 -9.610687673e-06)
(0.00835580858 4.986822812e-06 -1.114210559e-05)
(0.006238485683 1.178736629e-05 -4.241452973e-06)
(0.008110638723 1.975759102e-06 -4.040368644e-06)
(0.00809685772 1.277860041e-05 7.482938431e-06)
(0.008173056831 1.958075364e-05 4.671419598e-06)
(0.008170151848 1.823906337e-05 4.381902192e-07)
(0.008220058173 2.417059458e-05 4.776236531e-06)
(0.008236869823 2.337685677e-05 -2.247703062e-06)
(0.00822898049 2.381442684e-05 1.105605982e-06)
(0.008210295728 1.653832999e-05 -3.668794479e-06)
(0.008259343254 3.014987509e-05 -1.435609865e-05)
(0.008318764699 4.687573158e-05 -1.583793005e-05)
(0.008295854278 6.159338543e-05 -5.255929063e-06)
(0.008294536872 3.630441614e-05 -1.063983521e-06)
(0.008330083135 4.939124334e-05 6.202545406e-06)
(0.008330867038 6.252766931e-05 1.404433914e-05)
(0.00830751246 5.539512824e-05 2.068157875e-05)
(0.008271875887 3.433737654e-05 1.517359148e-05)
(0.008259476522 3.490380846e-05 5.664264593e-06)
(0.008284597773 3.016153882e-05 1.133983511e-05)
(0.008280063318 3.178080751e-05 2.131925134e-05)
(0.008328218304 3.360173042e-05 -2.363099993e-05)
(0.008322806143 2.272731771e-05 -2.327707497e-05)
(0.008321540893 1.798802313e-05 -1.413354058e-05)
(0.008358177923 1.052833353e-05 -1.891025259e-05)
(0.00836543914 2.499146299e-05 -3.104502211e-05)
(0.008404565459 5.589765915e-05 -4.573644066e-05)
(0.008243337345 1.006623179e-05 -1.170323929e-05)
(0.008301389028 1.485344729e-05 -5.907747409e-06)
(0.008384046309 1.534931467e-05 -3.191576499e-06)
(0.008287841737 1.425313922e-05 -4.091233004e-06)
(0.008322785729 9.502046872e-07 -1.998210433e-06)
(0.008314252071 1.079762504e-05 9.468606284e-06)
(0.008364589505 1.45485987e-05 -8.249540356e-06)
(0.008337884311 4.459975325e-05 -8.114138189e-06)
(0.008309531189 3.375962085e-05 -1.302966784e-05)
(0.008360267961 3.604212874e-05 -9.601106723e-06)
(0.008400964817 1.356610745e-06 2.270859766e-05)
(0.008359702081 1.467972218e-05 1.271337105e-05)
(0.008395754164 4.572725829e-06 2.120220808e-05)
(0.008351001927 -1.150784762e-07 2.049994257e-05)
(0.00838625732 1.637885704e-05 2.651781477e-06)
(0.008378172582 1.697468413e-05 4.008415643e-06)
(0.008410526531 1.500977496e-05 -6.756054117e-06)
(0.008342607647 1.921506223e-05 9.10958434e-07)
(0.008428859445 2.109716386e-05 1.148860466e-05)
(0.008482199751 3.067066759e-05 8.827292341e-06)
(0.008273364055 -1.038201271e-06 -2.888692198e-05)
(0.008318419747 -9.100908944e-06 -4.155332758e-05)
(0.008351670961 -5.984850535e-06 -4.083882676e-05)
(0.008365145013 -1.354244106e-05 -3.686995158e-05)
(0.008398542749 -1.707855878e-05 -3.133713542e-05)
(0.008360355086 -7.265237331e-07 -2.813291009e-05)
(0.008416404555 1.042167689e-05 -1.908677757e-05)
(0.00846821409 -1.283984254e-06 -2.33819149e-05)
(0.008472444809 -5.373055467e-07 -1.804801685e-05)
(0.008517599212 -3.730691451e-07 -5.63880641e-06)
(0.008448312203 -1.865320759e-05 -1.093057018e-05)
(0.008431728249 1.313872418e-07 -1.170078646e-05)
(0.008385755014 3.630731315e-06 -1.638408807e-06)
(0.008420471882 1.048334182e-05 -6.191111651e-06)
(0.008407633546 7.746029041e-06 7.742597296e-06)
(0.008401659738 8.04158942e-06 5.100511212e-06)
(0.008386247093 -1.745591813e-05 2.077609304e-05)
(0.008365851013 -3.068983822e-05 2.307313593e-05)
(0.008311548909 -2.356645356e-05 8.687689867e-06)
(0.008282258003 -2.009913225e-05 1.455860738e-07)
(0.00837202198 -4.585097043e-06 3.884978655e-05)
(0.008335655574 -9.377387756e-07 2.255482474e-05)
(0.008328679913 -6.406656377e-06 1.983062511e-05)
(0.008360634991 -1.598485337e-05 1.961653221e-05)
(0.008354072636 -1.362299871e-05 8.233129807e-06)
(0.00832786902 -1.625719368e-05 2.0891085e-05)
(0.008377433654 -1.612098468e-06 1.511453854e-05)
(0.008470906007 1.174510847e-05 6.201403777e-06)
(0.008445988463 -7.23945375e-06 1.306830487e-06)
(0.00845402783 1.35667388e-05 -5.089927811e-06)
(0.008368836489 -6.007424472e-06 -1.570192243e-05)
(0.008319696568 -3.18843056e-06 -1.093229302e-05)
(0.008326378356 -4.61581651e-06 -1.223361379e-05)
(0.008290408858 5.723486202e-07 -6.739051096e-06)
(0.008410623595 -1.72307764e-05 -1.267695128e-05)
(0.008352672373 -1.501400984e-05 -1.828304498e-05)
(0.008243562939 -1.567954734e-05 -2.304190461e-05)
(0.008238383972 -2.000435622e-05 -2.723137379e-05)
(0.008226968163 -1.465132429e-05 -2.93467253e-05)
(0.008295750636 -1.438109375e-05 -3.180582345e-05)
(0.008218125912 -1.445544445e-05 9.209015649e-06)
(0.008230252826 -2.043968624e-05 -4.588758465e-07)
(0.008260446699 -2.845669706e-05 -4.436780914e-06)
(0.008292742589 -1.731419788e-05 -1.795692913e-05)
(0.008273847397 -1.188445448e-06 -2.880438192e-05)
(0.008363995571 -6.586489e-06 -2.863250273e-05)
(0.00839390165 -1.328049374e-05 -1.73531549e-05)
(0.008401418558 -9.981741461e-06 -1.356402257e-05)
(0.008309778601 4.070320596e-06 -3.743533075e-06)
(0.008274310962 9.432739278e-06 6.64886715e-06)
(0.008599416767 2.487051828e-06 1.081221673e-06)
(0.008552131867 -2.376840247e-06 -7.070757269e-06)
(0.008553255586 2.375358641e-07 9.985486138e-06)
(0.008410803132 -9.666211717e-06 2.175656127e-05)
(0.008337522832 -2.579151464e-06 1.909543654e-05)
(0.008301018542 1.26763039e-05 1.584313248e-05)
(0.008311258393 7.624607608e-06 -1.215110553e-06)
(0.008270305718 2.584266124e-05 3.6867099e-06)
(0.008319931849 2.124680206e-06 -4.823692355e-06)
(0.008313095625 -2.546825934e-05 -1.420245827e-05)
(0.008171759938 6.909682149e-06 -1.1653343e-05)
(0.008134094307 1.483683755e-05 -1.452922319e-05)
(0.008126127293 2.130941388e-05 -2.102516338e-05)
(0.008105716223 2.583756645e-05 -2.047239174e-05)
(0.008217825212 4.155965508e-06 -9.583117226e-06)
(0.008222743671 -4.069564534e-06 -1.284664616e-05)
(0.008240665521 -1.368379402e-05 -6.058987807e-06)
(0.008212205074 -1.798290188e-05 -7.866823621e-06)
(0.008247720043 -1.008292688e-05 -5.196351711e-06)
(0.008262692411 -5.189767491e-07 -4.316042981e-06)
(0.008257963134 5.190183838e-06 -6.773563856e-06)
(0.008392271246 2.414541972e-06 -1.100932909e-05)
(0.008430736828 6.743017913e-07 -8.352276946e-06)
(0.008490867791 -3.090416997e-06 -8.433099835e-07)
(0.008388521588 8.141815226e-06 -1.01607681e-05)
(0.008355977953 -6.82918708e-06 -3.742360808e-06)
(0.008420385387 3.968330237e-06 3.164678441e-06)
(0.008391268637 1.079035343e-05 2.341900848e-06)
(0.008400027555 2.516363422e-05 6.917530421e-06)
(0.008311311689 2.530190466e-05 2.676838949e-05)
(0.008529073739 -4.245456735e-06 8.74078476e-06)
(0.008502657291 -1.3471102e-05 1.2837675e-05)
(0.008395439382 -1.642111709e-05 1.848384181e-05)
(0.008404509073 7.387497591e-06 2.614421628e-05)
(0.008475672812 1.570847761e-05 2.415272412e-05)
(0.008465249991 2.688267921e-05 1.902286669e-05)
(0.008398071345 2.651519217e-05 4.838309208e-06)
(0.008388532736 3.290893096e-05 1.687530457e-05)
(0.008422461183 2.560109254e-05 3.181247188e-06)
(0.008429597218 3.460981594e-05 -1.529541658e-05)
(0.008275017942 8.286288665e-06 1.944734736e-05)
(0.008239645079 2.363069856e-05 1.723293236e-05)
(0.008243430362 2.910995462e-05 4.998414964e-06)
(0.008194668668 1.382123783e-05 4.285753305e-06)
(0.008150167462 1.246107744e-05 1.401177068e-05)
(0.008147408575 6.918876059e-07 1.636199633e-05)
(0.008187581671 -2.127306447e-06 1.520713588e-05)
(0.008266005957 -7.629670654e-06 -3.894174232e-06)
(0.008298837324 -2.803083617e-05 -1.844683307e-05)
(0.008379393124 -1.598684691e-05 -1.850038134e-05)
(0.008244794862 2.252211958e-05 -8.518839985e-06)
(0.008237417769 6.291733153e-06 -1.089130874e-06)
(0.008321576028 2.909858204e-06 -4.656156209e-06)
(0.008324494204 8.787074218e-06 -1.026107288e-05)
(0.008345802887 -1.78998056e-05 -2.09039497e-05)
(0.008367771939 -7.993721476e-06 -1.983312208e-05)
(0.008331395279 -5.383822148e-06 -3.035292893e-05)
(0.008369183663 -1.902546354e-05 -1.681878235e-05)
(0.008323292771 -1.444291691e-06 6.198420547e-07)
(0.008299339172 -2.835783124e-05 9.977089879e-06)
(0.008323677995 -2.215139004e-05 -1.695488587e-05)
(0.008406070823 -8.335626438e-06 -1.782607112e-05)
(0.00838116963 -1.523805978e-05 -1.372412758e-05)
(0.008415797079 -4.727108628e-06 -1.032016991e-05)
(0.008407658249 1.281434236e-05 -8.023499753e-06)
(0.008374392843 6.631743064e-06 -2.895451171e-06)
(0.008330571829 1.351232741e-05 1.631630823e-06)
(0.008293863374 8.174096563e-06 7.598994732e-06)
(0.008271768291 2.610477135e-05 1.271257631e-05)
(0.008120384996 3.038063715e-05 1.22464936e-06)
(0.008178301206 -1.130611816e-05 7.676512883e-07)
(0.008188828382 -7.672519513e-06 -8.61999929e-06)
(0.008177825505 -7.178394492e-06 -1.365501848e-06)
(0.008166277497 -1.180742721e-05 -4.101332941e-06)
(0.008238318358 4.723985406e-07 -3.801603459e-07)
(0.008144748414 5.243791212e-06 1.265745223e-06)
(0.008155198231 1.961192507e-05 -9.359794974e-06)
(0.008215291241 3.664480934e-05 -1.820435101e-05)
(0.008237355958 3.61319176e-05 -1.92080229e-05)
(0.008325451923 2.474997654e-05 -1.459779071e-05)
(0.008278878121 -1.379185123e-05 -1.163382818e-05)
(0.00829538815 -1.455838394e-05 4.224980505e-06)
(0.008292926506 -2.809940594e-06 -1.325716701e-05)
(0.008258197966 -8.836736171e-06 -1.532564702e-05)
(0.008289466211 5.457653741e-06 -1.158939456e-05)
(0.008314339318 8.595128142e-06 1.219448699e-06)
(0.008361858337 5.584217218e-06 -4.606640734e-06)
(0.008280042576 -5.241670626e-06 -4.585940997e-06)
(0.008309829441 -2.992026736e-05 -1.219393004e-05)
(0.008321358474 -6.439250652e-06 -1.001844847e-05)
(0.008303132859 1.253273464e-05 -1.30083879e-05)
(0.008281529329 -7.525276969e-06 -2.516000977e-05)
(0.008309195924 -2.426481674e-05 -1.589142405e-05)
(0.00830513836 -1.568344052e-05 3.503174988e-07)
(0.008355355687 -5.270342821e-06 -9.713520797e-06)
(0.008341016146 -1.278264287e-05 -2.690136517e-05)
(0.008342142114 -4.886316344e-06 -1.633353249e-05)
(0.008407221586 -1.849231939e-05 -3.848857215e-06)
(0.008422868703 -6.104341761e-06 -1.082573852e-06)
(0.008445787948 -1.030815749e-05 2.801854651e-07)
(0.00831070787 2.714921712e-05 2.71982411e-05)
(0.0082521897 3.697986151e-05 1.248459123e-05)
(0.008217783194 3.634151323e-05 2.047526993e-05)
(0.008269337977 3.186484199e-05 1.938638541e-05)
(0.008181593772 9.951226819e-07 5.124692433e-06)
(0.008195665865 7.734916466e-06 2.375358372e-05)
(0.008218793875 4.911998318e-06 3.50249783e-05)
(0.008176479655 1.040580805e-05 2.525449595e-05)
(0.008149102896 2.446867388e-05 1.889510954e-05)
(0.008127376566 1.761986884e-05 2.350391016e-05)
)
;

boundaryField
{
    flow
    {
        type            calculated;
        value           nonuniform List<vector> 
48
(
(0.00633624077 -1.318871312e-05 6.551411646e-06)
(0.006392793649 1.626151696e-05 3.408917842e-06)
(0.006308471893 1.160297065e-05 -2.497783908e-05)
(0.006371222474 1.068273153e-05 -2.062665178e-06)
(0.006370318731 -1.784072455e-05 2.744197531e-08)
(0.00636572928 -8.881025036e-07 5.891492602e-07)
(0.006313655992 4.345407852e-06 -1.201600447e-06)
(0.006350023529 2.679041966e-06 1.225406249e-05)
(0.006373472298 -1.194710502e-06 -1.000718729e-06)
(0.00631701913 8.16031968e-07 4.835446846e-06)
(0.006399499621 -4.187887692e-06 3.563186016e-07)
(0.006329862696 1.023361786e-06 6.093661322e-06)
(0.006327704922 5.397886751e-06 -1.022052442e-05)
(0.006334633878 4.178736003e-06 -1.431594929e-05)
(0.006370355807 -1.072279092e-06 -7.574027466e-06)
(0.006325046052 6.580922455e-07 -4.549915002e-07)
(0.006379226714 7.912576093e-06 -1.435450645e-05)
(0.006238485683 1.178736629e-05 -4.241452973e-06)
(0.006238485683 1.178736629e-05 -4.241452973e-06)
(0.008110638723 1.975759102e-06 -4.040368644e-06)
(0.00809685772 1.277860041e-05 7.482938431e-06)
(0.008173056831 1.958075364e-05 4.671419598e-06)
(0.008170151848 1.823906337e-05 4.381902192e-07)
(0.008220058173 2.417059458e-05 4.776236531e-06)
(0.008236869823 2.337685677e-05 -2.247703062e-06)
(0.00822898049 2.381442684e-05 1.105605982e-06)
(0.008210295728 1.653832999e-05 -3.668794479e-06)
(0.008259343254 3.014987509e-05 -1.435609865e-05)
(0.008318764699 4.687573158e-05 -1.583793005e-05)
(0.008295854278 6.159338543e-05 -5.255929063e-06)
(0.008294536872 3.630441614e-05 -1.063983521e-06)
(0.008330083135 4.939124334e-05 6.202545406e-06)
(0.008330867038 6.252766931e-05 1.404433914e-05)
(0.00830751246 5.539512824e-05 2.068157875e-05)
(0.008271875887 3.433737654e-05 1.517359148e-05)
(0.008259476522 3.490380846e-05 5.664264593e-06)