/*--------------------------------*- C++ -*----------------------------------*\
| =========                 |                                                 |
| \\      /  F ield         | OpenFOAM: The Open Source CFD Toolbox           |
|  \\    /   O peration     | Version:  2406                                  |
|   \\  /    A nd           | Website:  www.openfoam.com                      |
|    \\/     M anipulation  |                                                 |
\*---------------------------------------------------------------------------*/
FoamFile
{
    version     2.0;
    format      ascii;
    arch        "LSB;label=32;scalar=64";
    class       volScalarField;
    location    "0.004";
    object      overallT;
}
// * * * * * * * * * * * * * * * * * * * * * * * * * * * * * * * * * * * * * //

dimensions      [1 2 -2 0 0 0 0];

internalField   nonuniform List<scalar> 
546
(
290.0782902
301.2319252
298.8292695
299.7995691
299.465826
298.2413591
299.0086712
299.7789102
300.7294366
298.6016892
300.1337725
299.3950671
299.5884225
298.0235377
297.611616
297.6485161
297.1801983
297.4951419
298.0725439
299.7566235
295.2404127
303.8193719
298.7788678
298.4416345
298.4869302
299.1549026
299.0367225
299.2291679
299.0953687
299.3331352
298.8619066
298.9160701
299.5697063
301.5248892
301.1083785
300.7298277
301.3512365
303.0110006
300.7292988
300.8176839
292.036183
300.7066616
295.389557
295.6016958
300.106268
301.409021
299.4389822
299.6185836
298.867243
299.3772862
299.0906318
300.5752666
299.3631974
296.8106426
296.4321559
297.5494888
296.3280879
297.2559766
298.5120829
300.1003051
294.6971268
303.4305745
300.7022451
299.0106216
295.9189602
295.1735819
297.1522012
297.2716577
297.443286
296.1147526
296.5399452
297.1706218
298.6033978
300.6504477
300.1166411
300.1239019
298.3932966
299.0917471
299.1706308
297.9469377
293.5911941
304.4302325
300.0348707
302.6431648
300.8122002
300.7736741
298.8894683
296.2818725
298.4184427
297.807505
298.2374046
297.8448697
298.2657762
299.0677604
298.665956
300.7211043
301.4892996
301.6580212
300.447181
300.8296917
294.6995152
304.7308041
298.6688636
298.7559927
299.8595778
299.6366873
299.5806298
301.2568974
300.3398202
301.4883038
300.9248239
299.2665926
299.7111745
301.8893375
301.9054509
302.1562083
303.5880479
300.7919043
300.1165667
301.7199641
291.9973008
300.2414528
296.4005286
297.9886545
298.5743753
298.8400531
302.1081284
303.8948865
301.9423944
300.6600626
301.518184
301.4771858
302.5446552
300.010602
300.867871
301.0334455
300.8042959
303.1546654
303.7866346
302.7832679
293.9388772
305.1496129
300.9124478
300.8870565
301.7631535
300.1953539
299.3508145
298.0260026
296.9356625
299.8782681
299.8617721
298.3873673
299.6196484
301.1738426
298.8368581
300.2559822
300.4994467
299.156876
300.0997869
301.0338094
294.2617161
303.5339168
299.8307994
299.1163853
298.394985
298.572797
298.1942559
299.5784531
301.3264878
303.6465231
301.7780763
302.911555
302.7665253
301.1207104
301.4430499
299.8480286
300.2146736
298.9591371
298.64405
299.6474556
292.3166114
303.8210049
298.5669391
297.7193723
296.1832216
296.0645078
297.0646409
298.2172893
298.7183755
298.2688555
299.8924215
299.8233281
299.1424642
298.8907082
300.4548965
298.7386515
298.3021986
300.5288941
297.0676119
297.9611185
294.1947136
304.155276
298.250939
299.965289
302.0651622
304.3525465
303.3788986
300.3072997
299.478405
300.0216021
296.8108037
296.7259507
296.8571532
297.1776269
295.6360148
296.1720787
298.8336238
296.6783068
299.8518851
300.2789988
293.7359025
304.2975851
299.5026021
301.8722266
298.7662246
298.0618598
298.1622318
299.3976871
298.6300185
297.1545813
297.7581461
297.9034972
298.1118461
300.5616524
300.7910805
300.1166296
299.8361265
302.5911701
301.1930465
301.2655025
294.5589045
304.8217603
300.2742792
301.4767041
302.3459724
300.7763695
299.8875927
298.5924499
297.8961747
297.4775467
299.0458179
299.5035063
300.2407925
299.7805974
298.539577
299.3805408
298.8210489
298.6856442
299.0497097
298.4891725
293.212573
303.0447086
299.9998471
299.6115741
300.4446655
299.5497457
300.288375
301.84472
301.3882892
302.6032588
300.0795868
300.7735846
299.7624897
298.8496585
299.8902587
300.2659064
299.2884194
298.3059715
297.6955767
298.1069399
296.6187355
305.7372375
299.9809842
300.1367334
301.4594705
303.6734267
306.3451597
305.7334362
304.9487143
305.3137605
303.8457441
301.8310858
301.949938
300.9570166
300.3737885
300.4630192
300.6920456
302.4622723
302.3447804
300.3100199
294.4488098
302.9407625
300.1463302
303.0835989
303.0232577
301.5463865
300.7269688
299.7391657
300.2189231
303.2175247
303.4372317
302.8124015
302.5949576
303.842011
301.8918268
300.2245063
299.6183805
298.1338051
298.3028935
300.7225366
294.7418617
305.5042545
300.1311127
299.2944843
299.4080036
298.715401
299.3878545
297.9543739
296.843959
297.5064694
299.1445913
301.5641801
301.3810016
300.1925539
300.0001325
300.7327186
299.6413434
300.1888545
300.7702156
297.7392334
295.6510717
302.2052422
298.6572387
298.7078422
295.258979
295.4503831
296.9868492
298.4073921
299.0557199
298.4305395
297.2216822
294.9595801
296.7175783
296.1965142
296.52514
295.602689
297.2288785
297.1897984
294.7926081
297.0642575
305.1719441
307.5634453
303.8091954
306.9150231
307.3318915
311.7759386
299.7696303
303.2758827
301.2980238
300.7905611
301.6954753
301.3444935
299.534901
306.1155518
303.5944469
309.9996164
297.5117033
297.1872009
297.2109697
299.5855498
303.1176967
305.68706
303.4352671
303.2629855
302.862008
309.5768148
304.195828
303.5635642
302.7165206
300.3862987
299.2229885
300.6043596
300.2461956
304.0662712
305.4885808
305.1704691
296.8269363
298.8686989
300.225361
299.5805988
299.0411303
303.2505991
303.8009258
300.6956464
303.2957045
302.2581436
302.2776312
300.915689
301.7901661
301.3164528
302.0672383
302.9852713
303.6413648
305.519713
303.9371787
304.5416573
301.0093704
301.2737346
302.0719952
302.4083964
303.402259
300.0045014
299.5000492
298.220576
296.8159738
298.205972
301.8094561
301.234506
301.4532279
299.4004881
301.3904264
302.6607644
300.3951455
304.6195466
302.2768395
301.7458708
299.5066664
299.4291454
300.0565207
301.3465759
303.2115379
301.2947709
303.2187202
303.3932633
303.9332466
303.2044404
299.6526598
301.8790741
301.7324252
298.3030525
299.5501171
298.4828356
298.6270281
298.9217956
299.8141056
300.9629004
298.3728306
299.4557456
300.3184832
302.8819472
298.298994
300.2485462
300.696387
300.6009436
300.0276918
299.0054589
299.7975137
299.3587289
298.4547347
298.4335401
299.1912863
298.4577894
297.7013905
296.4302155
296.8165051
298.9184328
299.0118152
299.7072722
299.8070434
301.2091805
300.7549521
300.0552473
300.8436522
300.6905413
301.5646715
302.727707
300.5925801
300.1044318
301.5017157
300.5484197
301.7602688
301.7126253
302.0903616
302.3073452
301.6478064
299.2639631
298.0132603
298.683885
297.3355234
299.4620792
299.5200274
298.4840012
299.8247407
300.9914128
300.9714793
303.1818726
299.2838827
300.7410242
301.7023901
300.0017406
299.8316339
299.7638365
298.0059584
297.4386054
298.0675001
298.1605393
300.7430436
300.5481939
299.8348903
300.8388092
301.5106839
299.4289612
301.2958966
301.2214373
300.7399851
300.2730169
298.6243767
298.2016246
296.4809359
297.4633655
296.8920986
297.8769908
300.3198165
300.4254894
301.3951203
300.4478255
298.9455907
299.3570344
300.1936388
300.2655663
300.0674203
297.6289831
295.2548263
295.5051852
296.8377274
297.7848382
)
;

boundaryField
{
    flow
    {
        type            calculated;
        value           nonuniform List<scalar> 
48
(
290.0782902
295.2404127
292.036183
294.6971268
293.5911941
294.6995152
291.9973008
293.9388772
294.2617161
292.3166114
294.1947136
293.7359025
294.5589045
293.212573
296.6187355
294.4488098
294.7418617
295.6510717
295.6510717
302.2052422
298.6572387
298.7078422
295.258979
295.4503831
296.9868492
298.4073921
299.0557199
298.4305395
297.2216822
294.9595801
296.7175783
296.1965142
296.52514
295.602689
297.2288785
297.1897984
294.7926081
297.0642575
298.9455907
299.3570344
300.1936388
300.2655663
300.0674203
297.6289831
295.2548263
295.5051852
296.8377274
297.7848382
)
;
    }
    obstacle
    {
        type            calculated;
        value           nonuniform List<scalar> 0();
    }
    frontAndBack
    {
        type            empty;
    }
    procBoundary2to0
    {
        type            processor;
        value           nonuniform List<scalar> 
31
(
295.6241552
304.6239125
299.7253227
299.6678347
297.5985264
298.8439203
298.041294
299.4837107
299.2890335
298.6326743
298.5779087
297.7008945
298.5361284
300.9890431
303.398149
299.7400912
298.160521
299.9900736
300.0770259
301.5384368
305.9297628
306.3802693
311.4780122
312.9065884
320.032573
322.017672
299.3945007
298.1345438
301.2139157
302.8323689
302.8323689
)
;
    }
    procBoundary2to3
    {
        type            processor;
        value           nonuniform List<scalar> 
19
(
318.2427901
312.8815432
312.7237646
310.1628844
307.8835394
305.4030224
300.3290128
304.049567
302.9325924
300.5665015
297.7434969
301.2270007
301.3682038
298.7596442
305.3724555
298.4586791
301.9899761
300.030139
299.6557126
)
;
    }
}


// ************************************************************************* //
