/*--------------------------------*- C++ -*----------------------------------*\
| =========                 |                                                 |
| \\      /  F ield         | OpenFOAM: The Open Source CFD Toolbox           |
|  \\    /   O peration     | Version:  2406                                  |
|   \\  /    A nd           | Website:  www.openfoam.com                      |
|    \\/     M anipulation  |                                                 |
\*---------------------------------------------------------------------------*/
FoamFile
{
    version     2.0;
    format      ascii;
    arch        "LSB;label=32;scalar=64";
    class       volScalarField;
    location    "0.004";
    object      p;
}
// * * * * * * * * * * * * * * * * * * * * * * * * * * * * * * * * * * * * * //

dimensions      [1 -1 -2 0 0 0 0];

internalField   nonuniform List<scalar> 
546
(
0.3014905833
0.4112598712
0.4130732308
0.4123192857
0.4117617742
0.406987155
0.4096509736
0.409251687
0.4088494986
0.408640456
0.4154012688
0.4196752525
0.4182581204
0.4132915157
0.4120548593
0.408498498
0.4107923892
0.4084529463
0.4057712736
0.4088548076
0.3126921789
0.4202543401
0.410541496
0.410290382
0.4133758318
0.4187092646
0.417807563
0.419618247
0.4160994826
0.4154734335
0.4142663858
0.4131191718
0.4159833237
0.4134200146
0.4123181799
0.409351191
0.4118317921
0.4181334265
0.4180893864
0.4170725686
0.306494979
0.4134376309
0.4034713842
0.4040265221
0.4111002126
0.4138719186
0.4104449648
0.4105713969
0.409305471
0.4150425394
0.4128336318
0.4177686739
0.4140531291
0.4106261659
0.408864824
0.4084332586
0.4039120321
0.4054656354
0.4041365688
0.4076271568
0.3132681477
0.4263709164
0.420619872
0.4132025784
0.4045895623
0.4054168101
0.4102200451
0.4097144183
0.4114398465
0.4056044625
0.4057681642
0.4034184615
0.4103404961
0.4123720527
0.4180030088
0.4171495469
0.4106799224
0.4131457834
0.4231293071
0.4157383127
0.3081850174
0.424823769
0.4170050789
0.4258241718
0.4222406455
0.4188111019
0.4132773794
0.4105462562
0.4113087463
0.4046133697
0.4070844069
0.4076310659
0.4112284375
0.4132454978
0.4141800202
0.4204226501
0.4238590361
0.4241345713
0.4180260754
0.4197042116
0.3134254633
0.4208154301
0.4077731123
0.4049112983
0.4098722863
0.4140318058
0.4096240334
0.4133041749
0.4119386748
0.4168450151
0.418738578
0.4156905314
0.415484309
0.4162450766
0.4180533211
0.4228667131
0.4267401867
0.4157886694
0.4197272291
0.4223647374
0.3045406475
0.4101814521
0.4078825037
0.4101177794
0.4087588413
0.4120048188
0.416192797
0.4221421981
0.4168536808
0.4186163642
0.4155608385
0.4163474993
0.4211546636
0.4120800802
0.4148678829
0.412635446
0.4127065956
0.4165361575
0.4131090522
0.4113796727
0.309205535
0.4233182575
0.416848658
0.4144867345
0.4163585107
0.412519479
0.4144563538
0.4157560267
0.4158636411
0.4161298123
0.4181915749
0.4127544945
0.4161990947
0.4223593906
0.4169681956
0.4227517323
0.4227963599
0.421772833
0.4248596526
0.428465432
0.3101446159
0.4183234677
0.4106724864
0.4077081915
0.4078857058
0.4042527457
0.4034962693
0.405980466
0.4100315899
0.4191476484
0.4177374789
0.4214483034
0.4187465615
0.4172211807
0.4178137974
0.4152000669
0.4147389037
0.4136935185
0.4104103538
0.4098599382
0.3063274457
0.4168478497
0.4090724381
0.4126784242
0.4065638038
0.410970393
0.41093819
0.4134383724
0.4118924006
0.4071368448
0.4093986295
0.4118972514
0.4130609546
0.4137514213
0.4170616749
0.4155601231
0.4117244231
0.413133811
0.4058885507
0.4090974019
0.315879713
0.4255698858
0.412814422
0.415436698
0.4198658546
0.4227941858
0.4222871816
0.4130861124
0.4127171043
0.4162124668
0.4078662708
0.4088482026
0.4094050227
0.4077925297
0.4018767752
0.4057964524
0.4118552085
0.4164755113
0.4264232586
0.4281505254
0.3066107618
0.4224516736
0.4120842526
0.4178809359
0.410097165
0.4052413546
0.4080293377
0.4057458381
0.407475465
0.4017659245
0.4042541504
0.4078193755
0.4078769641
0.4173151893
0.4225402969
0.4164613178
0.4178661674
0.4176108565
0.4133174742
0.4131646583
0.3100771783
0.424846244
0.4167261363
0.4160713594
0.4164324906
0.4124595659
0.4140840193
0.4169918374
0.4161503069
0.4167528546
0.4166039708
0.4160980281
0.4180991406
0.4128906962
0.4090850443
0.4128295714
0.406509534
0.4059407215
0.4080605681
0.4072916194
0.3072947538
0.4145116827
0.4111322821
0.4137070458
0.4196467853
0.4166597387
0.4165174245
0.4157960629
0.414840774
0.4169500056
0.4128676164
0.4151882122
0.4106993671
0.409491118
0.4079210902
0.4115298294
0.4130024872
0.4075111168
0.4075918356
0.4079555426
0.3164821502
0.4277334644
0.4133575954
0.4096477159
0.4133313595
0.4203919824
0.4235843796
0.4263444268
0.4227453494
0.4211966936
0.4160172669
0.4111292968
0.4142905642
0.4101680496
0.4132843957
0.4134562798
0.4127101859
0.4163996829
0.4147970194
0.4105574647
0.3097303261
0.4178623932
0.4129935546
0.4235198704
0.4250332674
0.4176915369
0.4131527671
0.4126759046
0.4139662728
0.4230974677
0.4189425445
0.417826298
0.4144510054
0.4222276912
0.4242423398
0.4143420833
0.4135988626
0.4065744796
0.4079399612
0.4136860305
0.3132512908
0.430291882
0.4196004625
0.4172690538
0.4117742243
0.4130940301
0.4181029537
0.4158723583
0.4127768699
0.4165909489
0.4178844602
0.4267825422
0.4253107915
0.4178912661
0.4117456571
0.4138164043
0.4130567219
0.4143012135
0.418713877
0.4106784255
0.3072465904
0.4075709563
0.3999086601
0.4015849462
0.3958301408
0.4000261013
0.4047629574
0.4075745175
0.4084243165
0.4111319258
0.4134690476
0.4056855167
0.4081989406
0.4111614508
0.4121413734
0.4103474138
0.4102354925
0.4100552795
0.4043887425
0.406071598
0.4228478887
0.4285774395
0.4197783506
0.4304122801
0.4359654476
0.4497943486
0.4125682002
0.4218178413
0.4225782479
0.4179446991
0.4223969008
0.4200933919
0.4195976819
0.4327625619
0.4250659848
0.4389667945
0.4142857522
0.4098598937
0.4129790157
0.4158868726
0.4248597261
0.4276726047
0.4232434034
0.4201638142
0.4216080395
0.4390925293
0.4146287148
0.4187404249
0.4204222201
0.4142230492
0.4149955051
0.4179906007
0.4197429713
0.4279837844
0.4329268888
0.4352528494
0.4164561372
0.4194290777
0.4192824948
0.4198005472
0.4189827278
0.426882655
0.427123004
0.4207363963
0.4246024856
0.420542728
0.4236383143
0.4189553157
0.4211755282
0.421474937
0.4205824929
0.4228712039
0.4284499712
0.4340825788
0.430366389
0.4304262318
0.4203445578
0.4169882705
0.4192343864
0.4189743649
0.4314885959
0.4199377634
0.4113199962
0.4114677369
0.4079352082
0.4145963613
0.4105054506
0.4119021104
0.4157505408
0.4131973427
0.4159480439
0.42136357
0.4210537609
0.4280671088
0.4182817465
0.4152994683
0.4276764651
0.4250270783
0.4238022252
0.4201598724
0.4202083663
0.4165311491
0.4181205637
0.4171470486
0.4222791075
0.4213646351
0.4072392311
0.4118967734
0.4093532997
0.4015923032
0.4121550542
0.408667881
0.4097843184
0.4111816025
0.4138272428
0.4148829233
0.4107441287
0.4184816039
0.4244290338
0.4322481658
0.4177699099
0.4181115712
0.4217598992
0.4188406902
0.4187910153
0.4141395357
0.4209493212
0.4224313407
0.4137708984
0.4138141798
0.4201628927
0.420481037
0.4147121728
0.4133785265
0.4150028085
0.4189673342
0.410187489
0.4086614736
0.410991968
0.4118485586
0.4070532628
0.4043972373
0.4063483767
0.4078178776
0.4111516587
0.4173952611
0.4117903172
0.4122640358
0.4192954219
0.4173672598
0.4164281599
0.419188561
0.4159405707
0.4185072428
0.412989016
0.4077241051
0.4083916561
0.4137660679
0.4095660326
0.4162320486
0.4170046767
0.4122270114
0.4119160876
0.4138241586
0.4090870368
0.4032920946
0.4080032845
0.4098784062
0.4122477181
0.4075216422
0.4111326666
0.4067815524
0.4035442191
0.4037383806
0.409571181
0.4152161099
0.4137142558
0.4153436982
0.41400525
0.4137412233
0.4158054316
0.4121729826
0.4191311972
0.4148625636
0.4147994883
0.4158681257
0.4075373333
0.4078348961
0.4059347722
0.407951824
0.4090534955
0.4116669532
0.4176352488
0.4203932743
0.4242529524
0.4237647439
0.4144145382
0.4108112594
0.4095002168
0.4124451564
0.4093510132
0.4048442307
0.4018785185
0.4009483293
0.3989493016
0.3993452514
)
;

boundaryField
{
    flow
    {
        type            calculated;
        value           nonuniform List<scalar> 
48
(
0.3014905833
0.3126921789
0.306494979
0.3132681477
0.3081850174
0.3134254633
0.3045406475
0.309205535
0.3101446159
0.3063274457
0.315879713
0.3066107618
0.3100771783
0.3072947538
0.3164821502
0.3097303261
0.3132512908
0.3072465904
0.3072465904
0.4075709563
0.3999086601
0.4015849462
0.3958301408
0.4000261013
0.4047629574
0.4075745175
0.4084243165
0.4111319258
0.4134690476
0.4056855167
0.4081989406
0.4111614508
0.4121413734
0.4103474138
0.4102354925
0.4100552795
0.4043887425
0.406071598
0.4144145382
0.4108112594
0.4095002168
0.4124451564
0.4093510132
0.4048442307
0.4018785185
0.4009483293
0.3989493016
0.3993452514
)
;
    }
    obstacle
    {
        type            calculated;
        value           nonuniform List<scalar> 0();
    }
    frontAndBack
    {
        type            empty;
    }
    procBoundary2to0
    {
        type            processor;
        value           nonuniform List<scalar> 
31
(
0.3111659377
0.419969756
0.4096905542
0.4051151231
0.4031529209
0.4014439383
0.4046145946
0.4130148389
0.4169532857
0.4142173416
0.4103277147
0.4077875064
0.4100933984
0.4148455327
0.4209268927
0.4157331429
0.4131287113
0.4171364721
0.4204566165
0.4221438557
0.4248068102
0.4270423985
0.4326695933
0.4362416736
0.4557361626
0.4593454978
0.415442084
0.4123307684
0.4152181226
0.4189609923
0.4189609923
)
;
    }
    procBoundary2to3
    {
        type            processor;
        value           nonuniform List<scalar> 
19
(
0.4601944163
0.4486567551
0.4469064548
0.4441419926
0.433375467
0.431845319
0.4234959064
0.4165923832
0.4216778537
0.4103927573
0.4125895805
0.4266540513
0.415341207
0.4054137635
0.4119835347
0.4145708877
0.4265381409
0.4197001685
0.399332667
)
;
    }
}


// ************************************************************************* //
