/*--------------------------------*- C++ -*----------------------------------*\
| =========                 |                                                 |
| \\      /  F ield         | OpenFOAM: The Open Source CFD Toolbox           |
|  \\    /   O peration     | Version:  2406                                  |
|   \\  /    A nd           | Website:  www.openfoam.com                      |
|    \\/     M anipulation  |                                                 |
\*---------------------------------------------------------------------------*/
FoamFile
{
    version     2.0;
    format      ascii;
    arch        "LSB;label=32;scalar=64";
    class       volScalarField;
    location    "0.004";
    object      rhoM;
}
// * * * * * * * * * * * * * * * * * * * * * * * * * * * * * * * * * * * * * //

dimensions      [1 -3 0 0 0 0 0];

internalField   nonuniform List<scalar> 
546
(
4.01188862e-06
3.942947953e-06
7.608466997e-06
4.01188862e-06
4.427198864e-06
7.954836573e-06
5.948892263e-06
5.811010928e-06
4.01188862e-06
6.502083841e-06
6.917394084e-06
3.942947953e-06
3.942947953e-06
5.602522687e-06
5.53358202e-06
4.496139531e-06
4.496139531e-06
5.464641352e-06
6.364202506e-06
3.043386799e-06
3.458697042e-06
4.565080198e-06
5.879951596e-06
2.974446132e-06
4.01188862e-06
5.53358202e-06
4.911449774e-06
4.496139531e-06
5.049331109e-06
4.634020865e-06
3.874007286e-06
4.358258196e-06
8.161658575e-06
6.917394084e-06
9.54547064e-06
6.502083841e-06
4.980390442e-06
5.602522687e-06
4.842509107e-06
2.974446132e-06
3.52763771e-06
4.01188862e-06
5.464641352e-06
4.01188862e-06
4.01188862e-06
4.080829287e-06
3.458697042e-06
2.490195221e-06
2.905505464e-06
4.7719022e-06
6.848453417e-06
8.576968818e-06
4.842509107e-06
7.193156754e-06
6.917394084e-06
4.565080198e-06
6.086773598e-06
4.01188862e-06
2.628076555e-06
7.470585662e-06
3.043386799e-06
4.842509107e-06
5.602522687e-06
6.086773598e-06
3.043386799e-06
2.974446132e-06
7.53952633e-06
6.571024508e-06
4.080829287e-06
4.980390442e-06
6.01783293e-06
5.53358202e-06
4.01188862e-06
5.948892263e-06
4.565080198e-06
4.911449774e-06
4.01188862e-06
6.571024508e-06
6.364202506e-06
9.476529973e-06
3.389756375e-06
4.01188862e-06
5.53358202e-06
3.043386799e-06
6.364202506e-06
6.01783293e-06
3.942947953e-06
5.879951596e-06
2.974446132e-06
2.490195221e-06
5.602522687e-06
6.502083841e-06
4.427198864e-06
4.842509107e-06
4.702961533e-06
2.628076555e-06
2.974446132e-06
2.00594431e-06
5.811010928e-06
7.055275419e-06
4.01188862e-06
6.155714265e-06
3.874007286e-06
4.634020865e-06
1.937003643e-06
5.049331109e-06
5.671463354e-06
2.974446132e-06
6.986334752e-06
2.490195221e-06
4.980390442e-06
2.00594431e-06
6.986334752e-06
6.846787177e-06
4.427198864e-06
1.521693399e-06
4.911449774e-06
2.559135888e-06
6.571024508e-06
3.389756375e-06
3.043386799e-06
6.433143174e-06
4.01188862e-06
4.358258196e-06
5.395700685e-06
5.118271776e-06
6.571024508e-06
6.986334752e-06
5.118271776e-06
6.571024508e-06
5.671463354e-06
3.043386799e-06
2.905505464e-06
4.01188862e-06
4.980390442e-06
3.458697042e-06
5.948892263e-06
5.879951596e-06
4.565080198e-06
3.043386799e-06
3.043386799e-06
2.490195221e-06
7.954836573e-06
7.055275419e-06
4.980390442e-06
4.980390442e-06
2.421254554e-06
5.879951596e-06
4.634020865e-06
3.458697042e-06
3.043386799e-06
5.395700685e-06
3.389756375e-06
5.464641352e-06
4.080829287e-06
4.01188862e-06
4.496139531e-06
4.842509107e-06
4.634020865e-06
6.917394084e-06
2.974446132e-06
7.055275419e-06
4.01188862e-06
6.01783293e-06
2.974446132e-06
4.427198864e-06
6.986334752e-06
5.464641352e-06
6.571024508e-06
3.52763771e-06
4.565080198e-06
4.358258196e-06
6.917394084e-06
3.942947953e-06
3.942947953e-06
3.874007286e-06
6.086773598e-06
1.521693399e-06
4.565080198e-06
6.086773598e-06
4.427198864e-06
2.974446132e-06
3.942947953e-06
4.358258196e-06
5.602522687e-06
6.571024508e-06
5.671463354e-06
4.01188862e-06
4.496139531e-06
2.974446132e-06
2.00594431e-06
2.559135888e-06
5.326760018e-06
3.389756375e-06
4.01188862e-06
4.427198864e-06
6.571024508e-06
3.389756375e-06
5.879951596e-06
2.559135888e-06
5.118271776e-06
4.565080198e-06
8.645909486e-06
2.421254554e-06
4.01188862e-06
4.496139531e-06
5.118271776e-06
1.937003643e-06
4.01188862e-06
6.571024508e-06
3.458697042e-06
7.53952633e-06
4.980390442e-06
5.602522687e-06
5.464641352e-06
6.986334752e-06
5.879951596e-06
6.917394084e-06
1.452752732e-06
3.458697042e-06
4.427198864e-06
2.974446132e-06
4.496139531e-06
2.421254554e-06
7.401644995e-06
4.496139531e-06
3.389756375e-06
3.458697042e-06
3.874007286e-06
4.634020865e-06
3.458697042e-06
3.942947953e-06
6.848453417e-06
4.080829287e-06
5.948892263e-06
7.954836573e-06
5.602522687e-06
4.149769955e-06
2.974446132e-06
7.885895906e-06
5.464641352e-06
3.942947953e-06
6.01783293e-06
5.395700685e-06
4.911449774e-06
3.043386799e-06
3.874007286e-06
5.948892263e-06
3.458697042e-06
4.980390442e-06
2.974446132e-06
5.464641352e-06
5.464641352e-06
5.53358202e-06
4.842509107e-06
5.395700685e-06
5.53358202e-06
6.986334752e-06
4.080829287e-06
6.502083841e-06
3.458697042e-06
4.565080198e-06
3.389756375e-06
5.602522687e-06
5.53358202e-06
6.155714265e-06
8.576968818e-06
5.395700685e-06
5.464641352e-06
2.905505464e-06
3.389756375e-06
6.364202506e-06
5.395700685e-06
5.811010928e-06
5.464641352e-06
6.01783293e-06
7.055275419e-06
2.559135888e-06
4.980390442e-06
2.074884977e-06
4.01188862e-06
4.01188862e-06
5.53358202e-06
2.074884977e-06
2.490195221e-06
6.01783293e-06
5.464641352e-06
4.634020865e-06
3.942947953e-06
5.049331109e-06
6.01783293e-06
4.702961533e-06
3.52763771e-06
9.685018214e-07
8.092717908e-06
2.490195221e-06
5.53358202e-06
5.53358202e-06
6.433143174e-06
3.458697042e-06
4.01188862e-06
4.980390442e-06
5.879951596e-06
5.602522687e-06
3.942947953e-06
6.01783293e-06
4.01188862e-06
5.049331109e-06
2.974446132e-06
5.049331109e-06
5.395700685e-06
5.671463354e-06
2.974446132e-06
5.118271776e-06
2.490195221e-06
3.942947953e-06
2.974446132e-06
3.942947953e-06
6.571024508e-06
6.986334752e-06
3.389756375e-06
6.086773598e-06
3.942947953e-06
5.464641352e-06
5.049331109e-06
1.937003643e-06
4.496139531e-06
6.01783293e-06
4.980390442e-06
5.671463354e-06
4.01188862e-06
6.502083841e-06
5.53358202e-06
4.496139531e-06
6.086773598e-06
5.049331109e-06
4.565080198e-06
2.559135888e-06
4.565080198e-06
3.596578377e-06
2.974446132e-06
4.01188862e-06
5.049331109e-06
5.464641352e-06
4.565080198e-06
2.490195221e-06
3.874007286e-06
3.942947953e-06
2.490195221e-06
4.842509107e-06
7.055275419e-06
4.01188862e-06
5.464641352e-06
4.980390442e-06
5.395700685e-06
6.293595599e-06
5.326760018e-06
5.049331109e-06
4.01188862e-06
4.496139531e-06
1.49884799e-06
5.103116739e-06
3.256812085e-06
3.280169953e-06
2.129393466e-06
5.325361345e-06
3.054179423e-06
4.473448702e-06
3.236758332e-06
4.606458551e-06
8.77798445e-06
5.174747783e-06
3.040388738e-06
3.207511433e-06
8.444390414e-06
1.553378863e-06
7.497078312e-06
8.03793876e-06
4.011723974e-06
3.118060515e-06
4.068056072e-06
8.480163433e-06
5.283737933e-06
6.342364347e-06
4.185603542e-06
4.363491336e-06
3.887745502e-06
5.032419334e-06
5.207548727e-06
5.457459463e-06
3.568440103e-06
4.240081687e-06
2.026925825e-06
4.082925888e-06
4.185603512e-06
3.698266555e-06
5.622390659e-06
7.478968078e-06
6.122800739e-06
3.047428314e-06
4.638800223e-06
3.59367103e-06
3.835684661e-06
4.811267116e-06
3.157498482e-06
5.325361345e-06
5.136422471e-06
3.494829161e-06
3.448883191e-06
3.755457664e-06
5.78028847e-06
4.168450643e-06
4.993429847e-06
5.2489744e-06
2.570262594e-06
3.180473627e-06
5.760760956e-06
3.984138943e-06
4.714851128e-06
3.614193194e-06
3.568440103e-06
3.090522482e-06
4.05385165e-06
5.904657134e-06
5.654577707e-06
2.662680691e-06
4.998052208e-06
4.543109575e-06
3.026328777e-06
2.125795173e-06
9.777216444e-06
2.084225322e-06
4.342416144e-06
4.593291592e-06
4.258786902e-06
3.845698382e-06
4.442898838e-06
2.446548794e-06
4.504421603e-06
3.969061455e-06
4.567672097e-06
3.162153504e-06
5.790469349e-06
5.176315844e-06
5.28689197e-06
3.106757727e-06
5.622390659e-06
4.543109545e-06
4.504421542e-06
5.173223416e-06
4.781056444e-06
5.82115848e-06
4.342416175e-06
3.717877192e-06
4.699656061e-06
6.952456108e-06
3.054179423e-06
4.053799817e-06
4.011724001e-06
3.472928773e-06
5.495776001e-06
3.593671055e-06
3.763543538e-06
3.790535659e-06
3.817917778e-06
4.363491336e-06
6.455956781e-06
5.45206822e-06
4.644707943e-06
1.488398046e-06
5.13841622e-06
4.671599213e-06
4.63272423e-06
4.665950144e-06
4.772839451e-06
3.180473627e-06
5.20560762e-06
6.639670312e-06
2.463487977e-06
4.03969365e-06
3.710696357e-06
5.31800987e-06
5.067314528e-06
4.665950111e-06
4.772839451e-06
5.769438399e-06
2.984994275e-06
7.198640989e-06
6.685641568e-06
3.543560996e-06
5.13841622e-06
4.599968201e-06
3.112529883e-06
6.925388648e-06
6.241813573e-06
4.733852456e-06
3.956930651e-06
5.0324193e-06
5.489816733e-06
8.504887756e-06
5.13841622e-06
3.090522461e-06
3.547120169e-06
5.103657289e-06
6.388180354e-06
3.698266608e-06
4.026115799e-06
5.521729093e-06
5.067262391e-06
6.094856586e-06
4.852184571e-06
5.103116739e-06
3.184670985e-06
5.831998656e-06
3.303865286e-06
4.73385249e-06
4.026115826e-06
3.984138943e-06
4.997119172e-06
6.661621532e-06
3.710696357e-06
5.534634265e-06
4.125992745e-06
8.311168758e-06
2.643445985e-06
4.142343636e-06
4.998052174e-06
2.446548794e-06
5.77038951e-06
5.457459463e-06
4.567672097e-06
4.671599245e-06
7.382804934e-06
6.197047309e-06
4.258786902e-06
3.254189527e-06
5.136422471e-06
5.452068183e-06
6.615498338e-06
2.621927855e-06
3.710696357e-06
6.827455578e-06
4.704865321e-06
6.998047119e-06
4.772839451e-06
3.698266581e-06
)
;

boundaryField
{
    flow
    {
        type            zeroGradient;
    }
    obstacle
    {
        type            calculated;
        value           nonuniform List<scalar> 0();
    }
    frontAndBack
    {
        type            empty;
    }
    procBoundary2to0
    {
        type            processor;
        value           nonuniform List<scalar> 
31
(
4.01188862e-06
1.937003643e-06
4.496139531e-06
5.53358202e-06
5.326760018e-06
4.01188862e-06
3.874007286e-06
4.01188862e-06
3.942947953e-06
3.389756375e-06
4.496139531e-06
7.470585662e-06
5.049331109e-06
3.458697042e-06
1.037442489e-06
5.948892263e-06
5.53358202e-06
6.433143174e-06
6.917394084e-06
5.395700685e-06
2.56920811e-06
6.899086622e-06
4.05385165e-06
6.269705872e-06
5.213708579e-06
4.363491336e-06
3.956930651e-06
6.080699684e-06
4.152010344e-06
4.535826359e-06
4.535826359e-06
)
;
    }
    procBoundary2to3
    {
        type            processor;
        value           nonuniform List<scalar> 
19
(
3.278041767e-06
4.917062651e-06
7.151928024e-06
7.151927973e-06
4.842806435e-06
5.364394696e-06
4.84280647e-06
5.215882226e-06
5.512907129e-06
3.725373774e-06
4.246961997e-06
6.108751571e-06
3.203785551e-06
4.321218212e-06
7.525003872e-06
7.376491332e-06
2.160609106e-06
5.811726706e-06
6.929159325e-06
)
;
    }
}


// ************************************************************************* //
