/*--------------------------------*- C++ -*----------------------------------*\
| =========                 |                                                 |
| \\      /  F ield         | OpenFOAM: The Open Source CFD Toolbox           |
|  \\    /   O peration     | Version:  2406                                  |
|   \\  /    A nd           | Website:  www.openfoam.com                      |
|    \\/     M anipulation  |                                                 |
\*---------------------------------------------------------------------------*/
FoamFile
{
    version     2.0;
    format      ascii;
    arch        "LSB;label=32;scalar=64";
    class       volScalarField;
    location    "0.004";
    object      rhoMMean;
}
// * * * * * * * * * * * * * * * * * * * * * * * * * * * * * * * * * * * * * //

dimensions      [1 -3 0 0 0 0 0];

internalField   nonuniform List<scalar> 
546
(
3.705336028e-06
4.759861431e-06
4.83812773e-06
4.802677335e-06
4.806346186e-06
4.773178331e-06
4.766055782e-06
4.727140025e-06
4.705663965e-06
4.71765683e-06
4.746641277e-06
4.813256915e-06
4.799323715e-06
4.774107364e-06
4.790507953e-06
4.748931316e-06
4.769475843e-06
4.73696709e-06
4.701855566e-06
4.69636062e-06
3.742239176e-06
4.794227417e-06
4.804979349e-06
4.812139702e-06
4.825591984e-06
4.865560492e-06
4.850348557e-06
4.855648344e-06
4.823589372e-06
4.816611368e-06
4.808244554e-06
4.770135778e-06
4.800709193e-06
4.74191051e-06
4.744401539e-06
4.738620833e-06
4.782544785e-06
4.838432131e-06
4.857941715e-06
4.855580237e-06
3.694894329e-06
4.74205589e-06
4.765948205e-06
4.748305018e-06
4.779837771e-06
4.794610756e-06
4.802811884e-06
4.798207334e-06
4.808132812e-06
4.842099316e-06
4.824210671e-06
4.849006713e-06
4.822891634e-06
4.814492016e-06
4.798826134e-06
4.788035566e-06
4.73771294e-06
4.755114835e-06
4.748296686e-06
4.728448231e-06
3.729228344e-06
4.823865968e-06
4.844681259e-06
4.805363521e-06
4.76469311e-06
4.759990981e-06
4.796511623e-06
4.785718555e-06
4.81051793e-06
4.772715221e-06
4.777415683e-06
4.744245329e-06
4.796160255e-06
4.803603035e-06
4.850221506e-06
4.837533403e-06
4.799797968e-06
4.782300161e-06
4.879933163e-06
4.841853858e-06
3.715743257e-06
4.802225055e-06
4.816758414e-06
4.856558736e-06
4.854456879e-06
4.833217946e-06
4.786180833e-06
4.794160142e-06
4.76347915e-06
4.721284546e-06
4.730972897e-06
4.746157026e-06
4.759231801e-06
4.77288424e-06
4.782674336e-06
4.805534207e-06
4.835107983e-06
4.866233757e-06
4.813903521e-06
4.81553529e-06
3.720691677e-06
4.749174274e-06
4.757774883e-06
4.747305378e-06
4.767913847e-06
4.811045815e-06
4.780475732e-06
4.778748883e-06
4.813925182e-06
4.844807997e-06
4.846785303e-06
4.832638616e-06
4.812190834e-06
4.788428903e-06
4.790088477e-06
4.826713363e-06
4.834906159e-06
4.773342352e-06
4.814147312e-06
4.815697644e-06
3.699624263e-06
4.755665527e-06
4.817571539e-06
4.817330247e-06
4.809477155e-06
4.816335606e-06
4.825874411e-06
4.85206093e-06
4.806935514e-06
4.835352608e-06
4.823108453e-06
4.831718226e-06
4.859661899e-06
4.824245974e-06
4.8064396e-06
4.784444819e-06
4.776594227e-06
4.752560698e-06
4.720468922e-06
4.736040556e-06
3.715921441e-06
4.814291025e-06
4.844069957e-06
4.834863358e-06
4.837800834e-06
4.833573793e-06
4.847478355e-06
4.845647261e-06
4.869851476e-06
4.832403467e-06
4.847696007e-06
4.812557511e-06
4.831198672e-06
4.871464604e-06
4.861845194e-06
4.902551742e-06
4.906324838e-06
4.91877748e-06
4.933301675e-06
4.941706292e-06
3.741826365e-06
4.793163002e-06
4.808619562e-06
4.776622032e-06
4.778074785e-06
4.725888262e-06
4.728753465e-06
4.75115939e-06
4.748123502e-06
4.807056733e-06
4.815843857e-06
4.847689342e-06
4.797753388e-06
4.817122592e-06
4.810871797e-06
4.792680417e-06
4.789146948e-06
4.780469067e-06
4.759542867e-06
4.72948484e-06
3.694513489e-06
4.732502921e-06
4.749418899e-06
4.794523174e-06
4.75970241e-06
4.808571449e-06
4.813761161e-06
4.828076868e-06
4.804316602e-06
4.76336293e-06
4.778266298e-06
4.783254187e-06
4.803201055e-06
4.793584977e-06
4.794161809e-06
4.799825774e-06
4.766799966e-06
4.758746717e-06
4.727758824e-06
4.744636999e-06
3.749463471e-06
4.807371965e-06
4.826700866e-06
4.829122954e-06
4.842983881e-06
4.826589957e-06
4.825759337e-06
4.77357448e-06
4.788450043e-06
4.816919935e-06
4.777491289e-06
4.79645018e-06
4.771895431e-06
4.779955345e-06
4.730808876e-06
4.762703828e-06
4.779576171e-06
4.876653483e-06
4.931473914e-06
4.949182709e-06
3.69606882e-06
4.793607784e-06
4.791321911e-06
4.799172504e-06
4.742483176e-06
4.722880179e-06
4.746019145e-06
4.720779155e-06
4.736643527e-06
4.72229085e-06
4.717312959e-06
4.763173916e-06
4.761103196e-06
4.801913156e-06
4.864449631e-06
4.823807024e-06
4.835294497e-06
4.774177138e-06
4.758686941e-06
4.767568311e-06
3.688873164e-06
4.789945597e-06
4.811284608e-06
4.796420709e-06
4.798671278e-06
4.783718443e-06
4.783963068e-06
4.825400991e-06
4.829376743e-06
4.818480264e-06
4.804603508e-06
4.776210888e-06
4.787554647e-06
4.78074483e-06
4.757983371e-06
4.778115087e-06
4.735196606e-06
4.739100085e-06
4.754868544e-06
4.750887793e-06
3.715744924e-06
4.729483174e-06
4.774269718e-06
4.774996095e-06
4.825205312e-06
4.810686116e-06
4.79609548e-06
4.780431264e-06
4.780909684e-06
4.800006457e-06
4.772003841e-06
4.800287218e-06
4.769674333e-06
4.748601921e-06
4.732897403e-06
4.762126476e-06
4.784260804e-06
4.765450624e-06
4.758261633e-06
4.788870352e-06
3.742656986e-06
4.807552648e-06
4.802119144e-06
4.769269021e-06
4.783482149e-06
4.817899267e-06
4.809312301e-06
4.816567734e-06
4.782917294e-06
4.759395821e-06
4.760959483e-06
4.733317712e-06
4.77458495e-06
4.748343654e-06
4.794619087e-06
4.78032702e-06
4.769084172e-06
4.779151697e-06
4.769364934e-06
4.750938093e-06
3.707658038e-06
4.774803436e-06
4.78469361e-06
4.823976877e-06
4.862883469e-06
4.812277583e-06
4.788831716e-06
4.793020955e-06
4.811831968e-06
4.834448881e-06
4.800762305e-06
4.791605172e-06
4.764938568e-06
4.807509846e-06
4.84456004e-06
4.797221858e-06
4.796803215e-06
4.745710578e-06
4.730554254e-06
4.759980984e-06
3.737633794e-06
4.846102041e-06
4.873871695e-06
4.856894275e-06
4.794646893e-06
4.818303747e-06
4.848879662e-06
4.858109901e-06
4.855417049e-06
4.873223424e-06
4.86243119e-06
4.897533549e-06
4.891753676e-06
4.846443411e-06
4.774469042e-06
4.788057539e-06
4.797635814e-06
4.784673615e-06
4.804495098e-06
4.797550732e-06
3.644672615e-06
4.641226623e-06
4.664706127e-06
4.711084972e-06
4.707272407e-06
4.733975981e-06
4.750409374e-06
4.747463567e-06
4.741658388e-06
4.763239524e-06
4.800281386e-06
4.783129948e-06
4.777283634e-06
4.794584617e-06
4.800286385e-06
4.780819602e-06
4.764806518e-06
4.761173803e-06
4.76601298e-06
4.760234773e-06
4.797774488e-06
4.80313242e-06
4.797952652e-06
4.827153573e-06
4.833938518e-06
4.866227317e-06
4.747998968e-06
4.781237168e-06
4.82336094e-06
4.77627207e-06
4.803153257e-06
4.799101172e-06
4.828318758e-06
4.81446621e-06
4.796734016e-06
4.827933243e-06
4.840486689e-06
4.819885062e-06
4.847162896e-06
4.818490933e-06
4.840622704e-06
4.832509189e-06
4.840864012e-06
4.80530981e-06
4.849885975e-06
4.894721407e-06
4.764442668e-06
4.792588207e-06
4.811870808e-06
4.813239396e-06
4.827127089e-06
4.810227356e-06
4.839095683e-06
4.871035402e-06
4.88045493e-06
4.910039358e-06
4.86499513e-06
4.852634795e-06
4.826689351e-06
4.846276957e-06
4.845037839e-06
4.85158606e-06
4.848856496e-06
4.83796089e-06
4.803450637e-06
4.788371411e-06
4.831184912e-06
4.809704756e-06
4.806127861e-06
4.821740049e-06
4.806987299e-06
4.801745461e-06
4.83261377e-06
4.888565971e-06
4.876253442e-06
4.880088245e-06
4.802513625e-06
4.779242573e-06
4.784867165e-06
4.777702639e-06
4.852005172e-06
4.813975251e-06
4.744054984e-06
4.737432594e-06
4.72997919e-06
4.776558194e-06
4.747768557e-06
4.756896375e-06
4.770538777e-06
4.786995077e-06
4.775136619e-06
4.828616841e-06
4.842661438e-06
4.850460494e-06
4.799006238e-06
4.768732137e-06
4.963948808e-06
4.935984062e-06
4.931907764e-06
4.850003074e-06
4.805520255e-06
4.784336846e-06
4.787534689e-06
4.766350027e-06
4.791303444e-06
4.796074389e-06
4.709180665e-06
4.697671342e-06
4.676247974e-06
4.672243685e-06
4.741479336e-06
4.741582559e-06
4.772600453e-06
4.749718064e-06
4.771466102e-06
4.780702619e-06
4.752582745e-06
4.83023107e-06
4.865751933e-06
4.907191061e-06
4.851146833e-06
4.824893792e-06
4.858173707e-06
4.836187781e-06
4.842755866e-06
4.790646471e-06
4.912651293e-06
4.898270697e-06
4.832322844e-06
4.830018209e-06
4.868997596e-06
4.868131317e-06
4.828833336e-06
4.828879521e-06
4.847783997e-06
4.849635338e-06
4.77056106e-06
4.751048513e-06
4.756250515e-06
4.731509912e-06
4.705715782e-06
4.69774357e-06
4.714823084e-06
4.757923724e-06
4.775729311e-06
4.82475366e-06
4.746156365e-06
4.74850003e-06
4.791339019e-06
4.800711065e-06
4.805476955e-06
4.825221325e-06
4.806600608e-06
4.822165962e-06
4.792568753e-06
4.778024427e-06
4.790748283e-06
4.844933375e-06
4.827694527e-06
4.852675115e-06
4.84996459e-06
4.826432094e-06
4.805201963e-06
4.786849025e-06
4.765005589e-06
4.674452541e-06
4.716527354e-06
4.724247734e-06
4.721591475e-06
4.707349211e-06
4.742600733e-06
4.68812456e-06
4.690858969e-06
4.723948985e-06
4.751832944e-06
4.802936203e-06
4.773941967e-06
4.78293965e-06
4.781782878e-06
4.764875028e-06
4.774927532e-06
4.792882581e-06
4.823638596e-06
4.780232743e-06
4.793950428e-06
4.80391589e-06
4.774860572e-06
4.771131606e-06
4.780226166e-06
4.781338811e-06
4.814448554e-06
4.809858847e-06
4.805142965e-06
4.8459088e-06
4.854657011e-06
4.86665625e-06
4.785130073e-06
4.744089476e-06
4.719338385e-06
4.745546339e-06
4.69468093e-06
4.707600629e-06
4.71860875e-06
4.694282983e-06
4.684276936e-06
4.664553197e-06
)
;

boundaryField
{
    flow
    {
        type            calculated;
        value           nonuniform List<scalar> 
48
(
3.705336028e-06
3.742239176e-06
3.694894329e-06
3.729228344e-06
3.715743257e-06
3.720691677e-06
3.699624263e-06
3.715921441e-06
3.741826365e-06
3.694513489e-06
3.749463471e-06
3.69606882e-06
3.688873164e-06
3.715744924e-06
3.742656986e-06
3.707658038e-06
3.737633794e-06
3.644672615e-06
3.644672615e-06
4.641226623e-06
4.664706127e-06
4.711084972e-06
4.707272407e-06
4.733975981e-06
4.750409374e-06
4.747463567e-06
4.741658388e-06
4.763239524e-06
4.800281386e-06
4.783129948e-06
4.777283634e-06
4.794584617e-06
4.800286385e-06
4.780819602e-06
4.764806518e-06
4.761173803e-06
4.76601298e-06
4.760234773e-06
4.785130073e-06
4.744089476e-06
4.719338385e-06
4.745546339e-06
4.69468093e-06
4.707600629e-06
4.71860875e-06
4.694282983e-06
4.684276936e-06
4.664553197e-06
)
;
    }
    obstacle
    {
        type            calculated;
        value           nonuniform List<scalar> 0();
    }
    frontAndBack
    {
        type            empty;
    }
    procBoundary2to0
    {
        type            processor;
        value           nonuniform List<scalar> 
31
(
3.69654474e-06
4.735920483e-06
4.756424708e-06
4.710632692e-06
4.718901927e-06
4.692405175e-06
4.748612751e-06
4.807861215e-06
4.825228639e-06
4.824498097e-06
4.785208165e-06
4.772896737e-06
4.764257492e-06
4.774867378e-06
4.780886044e-06
4.792962012e-06
4.779682081e-06
4.780129363e-06
4.813619114e-06
4.817597366e-06
4.79132364e-06
4.779386513e-06
4.760724487e-06
4.757896208e-06
4.819773441e-06
4.808319803e-06
4.805807967e-06
4.777761668e-06
4.762447729e-06
4.782398861e-06
4.782398861e-06
)
;
    }
    procBoundary2to3
    {
        type            processor;
        value           nonuniform List<scalar> 
19
(
4.859950872e-06
4.870135639e-06
4.88221633e-06
4.904237974e-06
4.809787994e-06
4.845491359e-06
4.819712562e-06
4.755899405e-06
4.799003827e-06
4.745861692e-06
4.802592319e-06
4.895007805e-06
4.828052555e-06
4.756488968e-06
4.717436099e-06
4.778313341e-06
4.88937271e-06
4.8432077e-06
4.65291927e-06
)
;
    }
}


// ************************************************************************* //
