/*--------------------------------*- C++ -*----------------------------------*\
| =========                 |                                                 |
| \\      /  F ield         | OpenFOAM: The Open Source CFD Toolbox           |
|  \\    /   O peration     | Version:  2406                                  |
|   \\  /    A nd           | Website:  www.openfoam.com                      |
|    \\/     M anipulation  |                                                 |
\*---------------------------------------------------------------------------*/
FoamFile
{
    version     2.0;
    format      ascii;
    arch        "LSB;label=32;scalar=64";
    class       volScalarField;
    location    "0.004";
    object      rhoN;
}
// * * * * * * * * * * * * * * * * * * * * * * * * * * * * * * * * * * * * * //

dimensions      [0 -3 0 0 0 0 0];

internalField   nonuniform List<scalar> 
546
(
8.331198464e+19
8.331198464e+19
1.562099712e+20
8.331198464e+19
9.372598272e+19
1.666239693e+20
1.24967977e+20
1.24967977e+20
8.331198464e+19
1.35381975e+20
1.457959731e+20
8.331198464e+19
8.331198464e+19
1.145539789e+20
1.145539789e+20
9.372598272e+19
9.372598272e+19
1.145539789e+20
1.35381975e+20
6.248398848e+19
7.289798656e+19
9.372598272e+19
1.24967977e+20
6.248398848e+19
8.331198464e+19
1.145539789e+20
1.041399808e+20
9.372598272e+19
1.041399808e+20
9.372598272e+19
8.331198464e+19
9.372598272e+19
1.666239693e+20
1.457959731e+20
1.978659635e+20
1.35381975e+20
1.041399808e+20
1.145539789e+20
1.041399808e+20
6.248398848e+19
7.289798656e+19
8.331198464e+19
1.145539789e+20
8.331198464e+19
8.331198464e+19
8.331198464e+19
7.289798656e+19
5.20699904e+19
6.248398848e+19
9.372598272e+19
1.457959731e+20
1.770379674e+20
1.041399808e+20
1.457959731e+20
1.457959731e+20
9.372598272e+19
1.24967977e+20
8.331198464e+19
5.20699904e+19
1.562099712e+20
6.248398848e+19
1.041399808e+20
1.145539789e+20
1.24967977e+20
6.248398848e+19
6.248398848e+19
1.562099712e+20
1.35381975e+20
8.331198464e+19
1.041399808e+20
1.24967977e+20
1.145539789e+20
8.331198464e+19
1.24967977e+20
9.372598272e+19
1.041399808e+20
8.331198464e+19
1.35381975e+20
1.35381975e+20
1.978659635e+20
7.289798656e+19
8.331198464e+19
1.145539789e+20
6.248398848e+19
1.35381975e+20
1.24967977e+20
8.331198464e+19
1.24967977e+20
6.248398848e+19
5.20699904e+19
1.145539789e+20
1.35381975e+20
9.372598272e+19
1.041399808e+20
9.372598272e+19
5.20699904e+19
6.248398848e+19
4.165599232e+19
1.24967977e+20
1.457959731e+20
8.331198464e+19
1.24967977e+20
8.331198464e+19
9.372598272e+19
4.165599232e+19
1.041399808e+20
1.145539789e+20
6.248398848e+19
1.457959731e+20
5.20699904e+19
1.041399808e+20
4.165599232e+19
1.457959731e+20
1.35381975e+20
9.372598272e+19
3.124199424e+19
1.041399808e+20
5.20699904e+19
1.35381975e+20
7.289798656e+19
6.248398848e+19
1.35381975e+20
8.331198464e+19
9.372598272e+19
1.145539789e+20
1.041399808e+20
1.35381975e+20
1.457959731e+20
1.041399808e+20
1.35381975e+20
1.145539789e+20
6.248398848e+19
6.248398848e+19
8.331198464e+19
1.041399808e+20
7.289798656e+19
1.24967977e+20
1.24967977e+20
9.372598272e+19
6.248398848e+19
6.248398848e+19
5.20699904e+19
1.666239693e+20
1.457959731e+20
1.041399808e+20
1.041399808e+20
5.20699904e+19
1.24967977e+20
9.372598272e+19
7.289798656e+19
6.248398848e+19
1.145539789e+20
7.289798656e+19
1.145539789e+20
8.331198464e+19
8.331198464e+19
9.372598272e+19
1.041399808e+20
9.372598272e+19
1.457959731e+20
6.248398848e+19
1.457959731e+20
8.331198464e+19
1.24967977e+20
6.248398848e+19
9.372598272e+19
1.457959731e+20
1.145539789e+20
1.35381975e+20
7.289798656e+19
9.372598272e+19
9.372598272e+19
1.457959731e+20
8.331198464e+19
8.331198464e+19
8.331198464e+19
1.24967977e+20
3.124199424e+19
9.372598272e+19
1.24967977e+20
9.372598272e+19
6.248398848e+19
8.331198464e+19
9.372598272e+19
1.145539789e+20
1.35381975e+20
1.145539789e+20
8.331198464e+19
9.372598272e+19
6.248398848e+19
4.165599232e+19
5.20699904e+19
1.145539789e+20
7.289798656e+19
8.331198464e+19
9.372598272e+19
1.35381975e+20
7.289798656e+19
1.24967977e+20
5.20699904e+19
1.041399808e+20
9.372598272e+19
1.770379674e+20
5.20699904e+19
8.331198464e+19
9.372598272e+19
1.041399808e+20
4.165599232e+19
8.331198464e+19
1.35381975e+20
7.289798656e+19
1.562099712e+20
1.041399808e+20
1.145539789e+20
1.145539789e+20
1.457959731e+20
1.24967977e+20
1.457959731e+20
3.124199424e+19
7.289798656e+19
9.372598272e+19
6.248398848e+19
9.372598272e+19
5.20699904e+19
1.562099712e+20
9.372598272e+19
7.289798656e+19
7.289798656e+19
8.331198464e+19
9.372598272e+19
7.289798656e+19
8.331198464e+19
1.457959731e+20
8.331198464e+19
1.24967977e+20
1.666239693e+20
1.145539789e+20
8.331198464e+19
6.248398848e+19
1.666239693e+20
1.145539789e+20
8.331198464e+19
1.24967977e+20
1.145539789e+20
1.041399808e+20
6.248398848e+19
8.331198464e+19
1.24967977e+20
7.289798656e+19
1.041399808e+20
6.248398848e+19
1.145539789e+20
1.145539789e+20
1.145539789e+20
1.041399808e+20
1.145539789e+20
1.145539789e+20
1.457959731e+20
8.331198464e+19
1.35381975e+20
7.289798656e+19
9.372598272e+19
7.289798656e+19
1.145539789e+20
1.145539789e+20
1.24967977e+20
1.770379674e+20
1.145539789e+20
1.145539789e+20
6.248398848e+19
7.289798656e+19
1.35381975e+20
1.145539789e+20
1.24967977e+20
1.145539789e+20
1.24967977e+20
1.457959731e+20
5.20699904e+19
1.041399808e+20
4.165599232e+19
8.331198464e+19
8.331198464e+19
1.145539789e+20
4.165599232e+19
5.20699904e+19
1.24967977e+20
1.145539789e+20
9.372598272e+19
8.331198464e+19
1.041399808e+20
1.24967977e+20
9.372598272e+19
7.289798656e+19
2.082799616e+19
1.666239693e+20
5.20699904e+19
1.145539789e+20
1.145539789e+20
1.35381975e+20
7.289798656e+19
8.331198464e+19
1.041399808e+20
1.24967977e+20
1.145539789e+20
8.331198464e+19
1.24967977e+20
8.331198464e+19
1.041399808e+20
6.248398848e+19
1.041399808e+20
1.145539789e+20
1.145539789e+20
6.248398848e+19
1.041399808e+20
5.20699904e+19
8.331198464e+19
6.248398848e+19
8.331198464e+19
1.35381975e+20
1.457959731e+20
7.289798656e+19
1.24967977e+20
8.331198464e+19
1.145539789e+20
1.041399808e+20
4.165599232e+19
9.372598272e+19
1.24967977e+20
1.041399808e+20
1.145539789e+20
8.331198464e+19
1.35381975e+20
1.145539789e+20
9.372598272e+19
1.24967977e+20
1.041399808e+20
9.372598272e+19
5.20699904e+19
9.372598272e+19
7.289798656e+19
6.248398848e+19
8.331198464e+19
1.041399808e+20
1.145539789e+20
9.372598272e+19
5.20699904e+19
8.331198464e+19
8.331198464e+19
5.20699904e+19
1.041399808e+20
1.457959731e+20
8.331198464e+19
1.145539789e+20
1.041399808e+20
1.145539789e+20
1.24967977e+20
1.145539789e+20
1.041399808e+20
8.331198464e+19
9.372598272e+19
3.223329011e+19
1.082039934e+20
6.538470358e+19
6.58536429e+19
4.421957151e+19
1.113533235e+20
6.270557261e+19
9.47051146e+19
6.35738837e+19
9.60256797e+19
1.826553106e+20
1.082039934e+20
6.538470404e+19
6.58536429e+19
1.768782848e+20
3.340599706e+19
1.567639326e+20
1.683646482e+20
8.476517826e+19
6.40171198e+19
8.595543969e+19
1.731263907e+20
1.089745067e+20
1.317072858e+20
8.843914303e+19
8.908265883e+19
8.360743015e+19
1.052279051e+20
1.059564728e+20
1.173647196e+20
7.521101025e+19
8.656319476e+19
4.358980269e+19
8.780485781e+19
8.84391424e+19
7.794732592e+19
1.149602165e+20
1.578418566e+20
1.271477674e+20
6.401712024e+19
9.669987032e+19
7.574279541e+19
7.628215418e+19
9.878046365e+19
6.63293568e+19
1.113533235e+20
1.045092877e+20
7.365953308e+19
7.416953098e+19
7.468664028e+19
1.181887304e+20
8.656319476e+19
9.807705606e+19
1.097560723e+20
5.527446439e+19
6.681199412e+19
1.149602165e+20
8.418232409e+19
9.536082555e+19
7.468663977e+19
7.521101025e+19
6.492239652e+19
8.717960539e+19
1.207316786e+20
1.216038217e+20
5.567666217e+19
1.045092884e+20
9.47051146e+19
6.35738837e+19
4.267808016e+19
2.041441707e+20
4.328159738e+19
8.717960539e+19
9.878046435e+19
8.84391424e+19
7.794732648e+19
9.405835892e+19
5.261395256e+19
9.536082619e+19
8.535616032e+19
9.669987032e+19
6.492239607e+19
1.198719566e+20
1.097560715e+20
1.105489288e+20
6.681199412e+19
1.149602165e+20
9.470511396e+19
9.53608249e+19
1.066951989e+20
9.669986965e+19
1.190243936e+20
8.717960599e+19
7.682925059e+19
9.949403591e+19
1.447593206e+20
6.270557261e+19
8.418232409e+19
8.476517884e+19
7.468664028e+19
1.181887312e+20
7.574279594e+19
7.628215418e+19
7.682924951e+19
7.73842496e+19
8.908265883e+19
1.358620749e+20
1.157506956e+20
9.536082555e+19
3.200856012e+19
1.074443004e+20
9.73835941e+19
9.807705606e+19
9.878046504e+19
9.949403591e+19
6.681199412e+19
1.045092877e+20
1.367962757e+20
5.297823606e+19
8.535615974e+19
7.521101025e+19
1.082039934e+20
1.08974506e+20
9.878046435e+19
9.949403591e+19
1.224886559e+20
6.270557261e+19
1.473190672e+20
1.377434156e+20
7.468664028e+19
1.074443004e+20
9.738359478e+19
6.53847045e+19
1.426828939e+20
1.326587136e+20
1.002179905e+20
8.360743015e+19
1.052279044e+20
1.165521193e+20
1.813818394e+20
1.074443004e+20
6.492239607e+19
7.628215418e+19
1.097560707e+20
1.326587136e+20
7.794732703e+19
8.360743015e+19
1.157506956e+20
1.059564735e+20
1.280342396e+20
9.669986965e+19
1.082039934e+20
6.538470404e+19
1.207316795e+20
6.632935727e+19
1.002179912e+20
8.360743071e+19
8.418232409e+19
1.059564728e+20
1.387037605e+20
7.521101025e+19
1.190243928e+20
8.717960478e+19
1.756097144e+20
5.527446439e+19
8.908265883e+19
1.045092877e+20
5.261395256e+19
1.165521201e+20
1.173647196e+20
9.669987032e+19
9.738359478e+19
1.525643105e+20
1.317072858e+20
8.84391424e+19
6.681199412e+19
1.045092877e+20
1.157506948e+20
1.377434147e+20
5.33476002e+19
7.521101025e+19
1.406651915e+20
9.807705538e+19
1.426828929e+20
9.949403591e+19
7.794732648e+19
)
;

boundaryField
{
    flow
    {
        type            zeroGradient;
    }
    obstacle
    {
        type            calculated;
        value           nonuniform List<scalar> 0();
    }
    frontAndBack
    {
        type            empty;
    }
    procBoundary2to0
    {
        type            processor;
        value           nonuniform List<scalar> 
31
(
8.331198464e+19
4.165599232e+19
9.372598272e+19
1.145539789e+20
1.145539789e+20
8.331198464e+19
8.331198464e+19
8.331198464e+19
8.331198464e+19
7.289798656e+19
9.372598272e+19
1.562099712e+20
1.041399808e+20
7.289798656e+19
2.082799616e+19
1.24967977e+20
1.145539789e+20
1.35381975e+20
1.457959731e+20
1.145539789e+20
5.372215018e+19
1.406651915e+20
8.717960539e+19
1.317072867e+20
1.105489288e+20
8.908265883e+19
8.360743015e+19
1.262734853e+20
8.476517826e+19
9.602568036e+19
9.602568036e+19
)
;
    }
    procBoundary2to3
    {
        type            processor;
        value           nonuniform List<scalar> 
19
(
6.730170614e+19
1.009525592e+20
1.458203644e+20
1.458203633e+20
1.009525592e+20
1.12169511e+20
1.009525599e+20
1.121695102e+20
1.12169511e+20
7.851865717e+19
8.973560819e+19
1.233864621e+20
6.730170614e+19
8.973560819e+19
1.570373166e+20
1.570373143e+20
4.486780409e+19
1.233864621e+20
1.458203633e+20
)
;
    }
}


// ************************************************************************* //
