/*--------------------------------*- C++ -*----------------------------------*\
| =========                 |                                                 |
| \\      /  F ield         | OpenFOAM: The Open Source CFD Toolbox           |
|  \\    /   O peration     | Version:  2406                                  |
|   \\  /    A nd           | Website:  www.openfoam.com                      |
|    \\/     M anipulation  |                                                 |
\*---------------------------------------------------------------------------*/
FoamFile
{
    version     2.0;
    format      ascii;
    arch        "LSB;label=32;scalar=64";
    class       volScalarField;
    location    "0.004";
    object      rhoNMean;
}
// * * * * * * * * * * * * * * * * * * * * * * * * * * * * * * * * * * * * * //

dimensions      [0 -3 0 0 0 0 0];

internalField   nonuniform List<scalar> 
546
(
7.723020976e+19
9.92610227e+19
1.008856064e+20
1.001462125e+20
1.002399385e+20
9.954740764e+19
9.941202567e+19
9.855807783e+19
9.812068991e+19
9.831855587e+19
9.893298176e+19
1.003440785e+20
1.000837285e+20
9.953699365e+19
9.992231157e+19
9.902670774e+19
9.945888866e+19
9.879239278e+19
9.801654993e+19
9.792803094e+19
7.800084562e+19
9.990148358e+19
1.000993495e+20
1.002555595e+20
1.005263235e+20
1.012813383e+20
1.010001604e+20
1.011615773e+20
1.005054955e+20
1.004117695e+20
1.002555595e+20
9.949013065e+19
1.001253845e+20
9.888091177e+19
9.893818876e+19
9.878718578e+19
9.970361761e+19
1.008491574e+20
1.012761313e+20
1.011667843e+20
7.70323438e+19
9.892777476e+19
9.938599067e+19
9.899025875e+19
9.958906364e+19
9.992751857e+19
1.001253845e+20
1.000004166e+20
1.002034895e+20
1.009324694e+20
1.005107025e+20
1.010157814e+20
1.004534255e+20
1.003076295e+20
9.999000256e+19
9.97661016e+19
9.87142878e+19
9.911001972e+19
9.893818876e+19
9.854766383e+19
7.768842567e+19
1.005107025e+20
1.009116414e+20
1.001305915e+20
9.929747169e+19
9.920895271e+19
9.995876057e+19
9.971923861e+19
1.002451455e+20
9.945368166e+19
9.953178665e+19
9.882363478e+19
9.991710458e+19
1.001149705e+20
1.010678514e+20
1.008335364e+20
1.000316586e+20
9.968278962e+19
1.017031052e+20
1.009064344e+20
7.742807572e+19
1.001201775e+20
1.004690465e+20
1.012500963e+20
1.012553033e+20
1.007918804e+20
9.98077576e+19
9.991189758e+19
9.92506087e+19
9.837062586e+19
9.859973382e+19
9.892256776e+19
9.920374571e+19
9.943285366e+19
9.965154762e+19
1.001201775e+20
1.007554314e+20
1.013958923e+20
1.002920085e+20
1.003649065e+20
7.75478367e+19
9.903712174e+19
9.914646872e+19
9.899025875e+19
9.939119767e+19
1.003128365e+20
9.969841062e+19
9.967758262e+19
1.004273905e+20
1.010574374e+20
1.011355424e+20
1.008335364e+20
1.003596995e+20
9.985462059e+19
9.988586258e+19
1.006408774e+20
1.007866734e+20
9.949533765e+19
1.003076295e+20
1.003024225e+20
7.707920679e+19
9.910481273e+19
1.003805275e+20
1.003805275e+20
1.002034895e+20
1.004117695e+20
1.005679795e+20
1.011459563e+20
1.002607665e+20
1.007762594e+20
1.005159095e+20
1.006825334e+20
1.012553033e+20
1.005159095e+20
1.001774545e+20
9.972965261e+19
9.956823564e+19
9.908919173e+19
9.844352385e+19
9.881842778e+19
7.746452472e+19
1.003440785e+20
1.009689184e+20
1.007346034e+20
1.007814664e+20
1.006460844e+20
1.009428834e+20
1.009168484e+20
1.013854783e+20
1.006564984e+20
1.010105744e+20
1.002815945e+20
1.006669124e+20
1.015573093e+20
1.013282013e+20
1.021717352e+20
1.022706681e+20
1.025414321e+20
1.02833024e+20
1.03010062e+20
7.800605262e+19
9.992751857e+19
1.002295245e+20
9.952657965e+19
9.955782164e+19
9.849038684e+19
9.851642183e+19
9.894860275e+19
9.893298176e+19
1.001566265e+20
1.003544925e+20
1.009689184e+20
9.996396757e+19
1.003753205e+20
1.003024225e+20
9.992751857e+19
9.981817159e+19
9.965675462e+19
9.920895271e+19
9.856328482e+19
7.70219298e+19
9.86830458e+19
9.905794973e+19
1.000264516e+20
9.934433468e+19
1.003596995e+20
1.004794605e+20
1.007606384e+20
1.002659735e+20
9.938599067e+19
9.967758262e+19
9.982858559e+19
1.001878685e+20
9.997958856e+19
9.992231157e+19
9.999000256e+19
9.932350668e+19
9.918812471e+19
9.854766383e+19
9.890173976e+19
7.812581359e+19
1.001878685e+20
1.005627725e+20
1.006200494e+20
1.008595714e+20
1.005159095e+20
1.004950815e+20
9.943806066e+19
9.97713086e+19
1.004013555e+20
9.957344264e+19
1.000056236e+20
9.950054465e+19
9.967758262e+19
9.865180381e+19
9.935995568e+19
9.967758262e+19
1.016718633e+20
1.02827817e+20
1.03202721e+20
7.704796479e+19
9.990669058e+19
9.983899959e+19
1.000004166e+20
9.879759978e+19
9.843310985e+19
9.892256776e+19
9.844352385e+19
9.87090808e+19
9.841228185e+19
9.832376287e+19
9.928185069e+19
9.92662297e+19
1.001097635e+20
1.014479623e+20
1.005731865e+20
1.008439504e+20
9.954220064e+19
9.92454017e+19
9.938599067e+19
7.688654782e+19
9.985462059e+19
1.002972155e+20
1.000368656e+20
1.000993495e+20
9.971403161e+19
9.973485961e+19
1.006252564e+20
1.006981544e+20
1.004586325e+20
1.001201775e+20
9.954220064e+19
9.97765156e+19
9.965675462e+19
9.915688272e+19
9.959427063e+19
9.87142878e+19
9.876635779e+19
9.907877773e+19
9.897463775e+19
7.743848972e+19
9.855287083e+19
9.947450966e+19
9.949013065e+19
1.004794605e+20
1.002191105e+20
9.994313957e+19
9.963592663e+19
9.960989163e+19
1.000420726e+20
9.953178665e+19
1.000733145e+20
9.940681867e+19
9.890694676e+19
9.856328482e+19
9.919853871e+19
9.965675462e+19
9.929226469e+19
9.917250371e+19
9.981296459e+19
7.802688061e+19
1.002399385e+20
1.001045565e+20
9.945888866e+19
9.974527361e+19
1.004898745e+20
1.002503525e+20
1.003544925e+20
9.966196162e+19
9.915167572e+19
9.92297807e+19
9.860494082e+19
9.950575165e+19
9.901629374e+19
9.997958856e+19
9.963071963e+19
9.938078367e+19
9.960989163e+19
9.941202567e+19
9.907357073e+19
7.730831474e+19
9.957864964e+19
9.97765156e+19
1.005575655e+20
1.013542363e+20
1.002555595e+20
9.97869296e+19
9.990148358e+19
1.002711805e+20
1.007293964e+20
1.000264516e+20
9.988586258e+19
9.932350668e+19
1.001878685e+20
1.010157814e+20
1.000889355e+20
1.000576935e+20
9.893298176e+19
9.856849182e+19
9.914646872e+19
7.787067064e+19
1.009585044e+20
1.015208603e+20
1.011928193e+20
9.993793257e+19
1.004325975e+20
1.010834724e+20
1.012500963e+20
1.012240613e+20
1.015625163e+20
1.013282013e+20
1.020467672e+20
1.019009712e+20
1.009376764e+20
9.942764667e+19
9.968799662e+19
9.987544858e+19
9.965154762e+19
1.000889355e+20
9.999000256e+19
7.596490899e+19
9.675124916e+19
9.721467207e+19
9.81779669e+19
9.804779192e+19
9.862576881e+19
9.900067274e+19
9.890173976e+19
9.881322078e+19
9.92610227e+19
1.000368656e+20
9.969841062e+19
9.956823564e+19
9.997958856e+19
1.000681075e+20
9.969320362e+19
9.935995568e+19
9.927664369e+19
9.935995568e+19
9.92245737e+19
1.000521325e+20
1.001860775e+20
1.000385965e+20
1.00662781e+20
1.008095682e+20
1.014818514e+20
9.89911973e+19
9.966134893e+19
1.006109688e+20
9.964264697e+19
1.001058546e+20
1.000616429e+20
1.006815468e+20
1.00382903e+20
9.995281325e+19
1.005687542e+20
1.008566888e+20
1.004452968e+20
1.009765186e+20
1.004055176e+20
1.009009418e+20
1.006838166e+20
1.008613547e+20
1.001469274e+20
1.009975013e+20
1.019606707e+20
9.928382331e+19
9.985602056e+19
1.002560146e+20
1.002508096e+20
1.005732373e+20
1.002077183e+20
1.00855906e+20
1.015463181e+20
1.017768706e+20
1.023281359e+20
1.013949109e+20
1.011555845e+20
1.005897775e+20
1.010190157e+20
1.009331758e+20
1.010517095e+20
1.009921234e+20
1.007725363e+20
1.000799445e+20
9.979484855e+19
1.006633459e+20
1.001664422e+20
1.000917821e+20
1.004055183e+20
1.000628769e+20
1.000237715e+20
1.006978929e+20
1.018975375e+20
1.015889381e+20
1.017268287e+20
1.000519666e+20
9.960347359e+19
9.982689088e+19
9.975467693e+19
1.013575807e+20
1.005756126e+20
9.908507025e+19
9.892314724e+19
9.873677574e+19
9.967792827e+19
9.906435446e+19
9.926148289e+19
9.948783016e+19
9.978135141e+19
9.948804991e+19
1.005323303e+20
1.008232136e+20
1.010140004e+20
9.997492304e+19
9.937170592e+19
1.034589693e+20
1.02897107e+20
1.028042685e+20
1.011310457e+20
1.002294156e+20
9.978572276e+19
9.985333982e+19
9.937314713e+19
9.985884737e+19
1.000231229e+20
9.809241743e+19
9.787247389e+19
9.740048699e+19
9.729535191e+19
9.873593913e+19
9.87253243e+19
9.939564828e+19
9.896156256e+19
9.937243209e+19
9.954987124e+19
9.910093205e+19
1.006715368e+20
1.014215365e+20
1.023046929e+20
1.011050873e+20
1.005431514e+20
1.012863546e+20
1.008164388e+20
1.010306653e+20
9.996187854e+19
1.023982008e+20
1.020763294e+20
1.007275209e+20
1.007149344e+20
1.015348638e+20
1.014899357e+20
1.007414827e+20
1.007780256e+20
1.011246326e+20
1.012146034e+20
9.947194002e+19
9.90668106e+19
9.918055572e+19
9.865571637e+19
9.815574059e+19
9.804904866e+19
9.831679929e+19
9.915912279e+19
9.948850846e+19
1.005075098e+20
9.893371719e+19
9.90299815e+19
9.994344367e+19
1.000854327e+20
1.001810656e+20
1.005756126e+20
1.002075084e+20
1.00596928e+20
9.999150538e+19
9.962781786e+19
9.981159521e+19
1.009135603e+20
1.005156073e+20
1.010563584e+20
1.010513645e+20
1.005323303e+20
1.000331478e+20
9.965851222e+19
9.924530012e+19
9.73172378e+19
9.83902689e+19
9.853014895e+19
9.847064869e+19
9.81862575e+19
9.885412786e+19
9.769738568e+19
9.778282489e+19
9.843473341e+19
9.901867551e+19
1.000620965e+20
9.941446058e+19
9.963504196e+19
9.962027575e+19
9.926387969e+19
9.951491099e+19
9.992097775e+19
1.005126356e+20
9.96310739e+19
9.993623162e+19
1.001957205e+20
9.95346456e+19
9.941406336e+19
9.953551058e+19
9.952528225e+19
1.0024016e+20
1.001427966e+20
1.0011488e+20
1.009481468e+20
1.010859398e+20
1.013983364e+20
9.972276231e+19
9.889318456e+19
9.841766979e+19
9.897580265e+19
9.787101319e+19
9.809774046e+19
9.830590184e+19
9.784753774e+19
9.759812178e+19
9.718361312e+19
)
;

boundaryField
{
    flow
    {
        type            calculated;
        value           nonuniform List<scalar> 
48
(
7.723020976e+19
7.800084562e+19
7.70323438e+19
7.768842567e+19
7.742807572e+19
7.75478367e+19
7.707920679e+19
7.746452472e+19
7.800605262e+19
7.70219298e+19
7.812581359e+19
7.704796479e+19
7.688654782e+19
7.743848972e+19
7.802688061e+19
7.730831474e+19
7.787067064e+19
7.596490899e+19
7.596490899e+19
9.675124916e+19
9.721467207e+19
9.81779669e+19
9.804779192e+19
9.862576881e+19
9.900067274e+19
9.890173976e+19
9.881322078e+19
9.92610227e+19
1.000368656e+20
9.969841062e+19
9.956823564e+19
9.997958856e+19
1.000681075e+20
9.969320362e+19
9.935995568e+19
9.927664369e+19
9.935995568e+19
9.92245737e+19
9.972276231e+19
9.889318456e+19
9.841766979e+19
9.897580265e+19
9.787101319e+19
9.809774046e+19
9.830590184e+19
9.784753774e+19
9.759812178e+19
9.718361312e+19
)
;
    }
    obstacle
    {
        type            calculated;
        value           nonuniform List<scalar> 0();
    }
    frontAndBack
    {
        type            empty;
    }
    procBoundary2to0
    {
        type            processor;
        value           nonuniform List<scalar> 
31
(
7.70063088e+19
9.87142878e+19
9.911001972e+19
9.81519319e+19
9.834459087e+19
9.776661397e+19
9.897463775e+19
1.002295245e+20
1.006252564e+20
1.005836005e+20
9.97608946e+19
9.951095865e+19
9.937557668e+19
9.954740764e+19
9.967758262e+19
9.996396757e+19
9.969320362e+19
9.968799662e+19
1.004534255e+20
1.005419445e+20
9.996617705e+19
9.973703096e+19
9.934116034e+19
9.921400153e+19
1.005553056e+20
1.003070738e+20
1.003184653e+20
9.970870082e+19
9.933419328e+19
9.974934285e+19
9.974934285e+19
)
;
    }
    procBoundary2to3
    {
        type            processor;
        value           nonuniform List<scalar> 
19
(
1.013619779e+20
1.014348881e+20
1.017545719e+20
1.022481171e+20
1.001841981e+20
1.010254701e+20
1.004870565e+20
9.915784705e+19
1.000776378e+20
9.884377242e+19
1.002290659e+20
1.021079059e+20
1.006328761e+20
9.912980467e+19
9.823805848e+19
9.955044033e+19
1.01928434e+20
1.009076921e+20
9.692006532e+19
)
;
    }
}


// ************************************************************************* //
