/*--------------------------------*- C++ -*----------------------------------*\
| =========                 |                                                 |
| \\      /  F ield         | OpenFOAM: The Open Source CFD Toolbox           |
|  \\    /   O peration     | Version:  2406                                  |
|   \\  /    A nd           | Website:  www.openfoam.com                      |
|    \\/     M anipulation  |                                                 |
\*---------------------------------------------------------------------------*/
FoamFile
{
    version     2.0;
    format      ascii;
    arch        "LSB;label=32;scalar=64";
    class       volScalarField;
    location    "0.004";
    object      translationalT;
}
// * * * * * * * * * * * * * * * * * * * * * * * * * * * * * * * * * * * * * //

dimensions      [1 2 -2 0 0 0 0];

internalField   nonuniform List<scalar> 
546
(
282.7502128
300.091706
296.561142
298.205413
297.523749
296.1195976
298.4636672
300.7562466
301.8000303
301.0386599
304.1186983
302.9270211
302.6894665
300.7380457
298.6819448
298.7820661
299.1542584
299.4573186
299.8460203
302.397704
290.3582101
304.6889276
297.0586533
296.4143836
297.8390824
299.4329174
299.6198875
300.4382167
299.8636132
299.6919251
299.2868485
300.754235
300.9179721
302.8275887
301.8456568
300.1316857
299.1750388
300.3025473
299.0049941
298.6001926
288.18187
302.6970342
294.0383452
295.6200039
298.9871029
299.9834255
296.9115813
297.3741981
295.8564942
297.8366344
297.4946532
299.5456705
298.5435708
296.5029753
296.1689813
296.520347
296.3624502
296.314492
295.856147
299.5940467
292.0628516
307.2498414
301.9012556
298.8908663
295.1160889
295.9833559
297.2435355
297.5902488
297.2756939
295.3916824
295.2790078
295.6727824
297.4547726
298.3366463
299.5592797
299.6423401
297.3599017
300.1922972
301.3389678
298.4128989
288.2899203
307.32904
300.6252582
304.6149879
302.0359655
300.9601819
299.9119285
297.6194375
300.1588608
297.9141953
299.037138
298.4614856
300.2420191
301.0194999
301.0381247
304.1451512
304.6978445
302.9700612
301.8932805
302.8850556
292.7392745
307.7584941
297.891244
296.2673811
298.6874899
298.946585
297.5867549
300.3230722
297.0959915
298.7601948
299.8855701
298.5943158
299.8552641
301.9237984
303.1405654
304.3305061
306.673913
302.6818103
303.0746274
304.9949391
286.170217
299.7765628
294.3079582
295.9208232
295.4613762
297.189922
299.7445102
302.2919937
301.1404
300.8668713
299.44441
299.5147594
301.2591441
296.9362488
299.9550829
299.6805991
300.218189
304.4688194
303.9442719
301.5235872
289.1084608
305.5565892
299.0247297
298.0220223
299.2286519
296.8684054
297.385301
298.3948181
297.0924396
299.4355879
299.864353
298.1171653
299.4544598
301.2224743
298.0499131
299.6891567
299.4308541
297.917234
299.2466415
301.2676804
287.9733824
303.2100057
296.7675014
296.7062952
296.7423305
297.2867395
296.652011
297.1747284
300.187512
303.1124315
301.4970209
302.3242671
303.4060047
301.0619052
301.7086475
300.9460965
300.941144
300.6688104
299.629001
301.1873339
288.0632901
305.9506802
299.1074891
298.8225062
296.4162496
296.5975684
296.220842
297.1914251
297.5408554
296.7096275
297.4851493
298.8480172
298.6176064
299.7398987
302.3111834
301.0188481
300.2416846
301.6806552
298.316222
299.5981952
292.8488915
307.6607925
297.326779
299.0451299
301.5156381
304.6566082
304.3543371
300.8876426
299.6147584
300.2561497
296.6816408
296.1106812
298.0191084
296.3180941
295.0558848
295.810278
299.2701962
296.6914904
300.3631645
300.484266
288.2322856
306.2660551
298.9525078
302.6684497
300.6469317
298.1871712
298.7530944
298.5267998
298.9928198
295.6924261
297.79157
297.5187864
297.607625
301.9285348
301.6763104
299.9223717
300.1260984
303.8651859
301.6405859
301.1025247
292.1028837
308.1626641
300.9388563
301.2479838
301.3212454
299.5997918
300.7169391
300.1490384
299.3264611
300.4745712
301.382615
302.7644102
303.5060441
300.0853263
298.8182652
300.2291426
298.2683158
297.6939327
298.3049035
298.0560598
287.4184708
304.6378757
299.3547644
301.1822122
302.4983491
301.1254043
301.8537593
302.2600928
301.6444722
301.8684372
300.4453057
300.4990706
299.2431799
299.8707414
299.7625632
300.4778398
300.166575
297.2627198
297.6806473
296.034472
293.7794263
309.0642984
299.0807623
298.3206649
300.1390014
303.004113
306.0345299
307.7089824
307.231549
307.6814387
303.6586995
301.9924959
301.5596705
300.0347545
299.4015646
300.5749117
300.787077
302.7780065
302.2129753
300.1459861
290.1843097
303.9369195
299.799803
305.0531005
303.7368053
301.7613497
299.8840785
299.1944802
299.0234404
304.228991
303.358387
302.9759454
302.2299895
305.2445918
304.1873746
299.8398677
299.3954879
297.656533
299.7605946
302.210819
291.3636419
308.7000126
299.3622758
298.6640045
298.4318696
297.9138037
299.5846009
297.4959192
295.3574964
297.0932471
298.7048613
302.9171052
302.3044094
299.8654254
299.9426814
300.6638659
299.5486412
301.1262115
303.0035291
297.4826979
292.9479431
305.1146426
297.9513765
296.2646213
292.4067851
293.7746589
296.127689
298.4829268
299.373213
299.9983457
299.3638331
294.7254716
296.9391524
297.8636091
298.3093942
298.1278521
299.0461705
299.1656484
294.7841107
296.4147259
306.1076757
309.8406072
303.9266964
309.6935299
313.2324296
321.0273364
301.8669565
306.5593641
304.213309
303.8015381
305.6170984
304.084738
301.8558549
312.2527953
308.0191607
316.1440423
297.5169374
295.5440493
296.2265593
300.0088287
304.976761
307.657966
303.9357622
303.8767131
302.3532609
311.9175187
302.4804325
303.7295436
303.7327538
299.2697187
298.8665882
302.1215785
301.4383475
305.2667734
308.0930277
308.0796149
297.4880407
300.3205663
301.9042913
300.9929132
300.6620295
305.9716912
306.3245904
302.4017473
307.2924422
305.2238084
304.8177636
302.943654
304.7762424
304.0398956
304.4350196
306.2113532
308.1741008
308.5496588
306.8374241
306.4641145
304.2959712
303.2255254
304.1765675
304.2079697
308.3397306
302.4187034
300.6685508
301.268875
299.2462052
301.260981
300.1358802
300.5589473
302.6768926
299.9332
302.8200109
303.5761425
302.4777387
306.9351961
303.0360085
302.7018202
299.4081425
299.1781262
298.5853452
300.9168295
303.6588197
302.3399103
303.288075
304.0440675
306.287624
305.1223888
300.6980238
304.820539
304.4062534
298.9576632
302.3442902
299.8184397
298.6100134
300.9425063
301.6265462
301.8570057
300.1995438
301.0828898
303.1037449
306.022956
299.2819677
301.2007826
301.5995901
300.9081267
300.2344655
300.0742201
297.7514538
299.7419234
297.5282445
297.5965531
299.7221963
300.0819272
298.1637536
297.0971394
297.2422101
299.8150215
298.6745545
298.7802719
300.1395312
302.3651255
300.3668077
298.7316231
299.3554714
297.8859273
299.3267494
300.7913922
301.4728498
301.52627
303.8660734
302.0396161
301.0723314
301.8791644
300.6404567
301.3246511
299.1519218
296.416362
296.3550052
296.9762686
295.1255661
298.3240561
298.8925885
296.9936057
298.2505283
300.7584543
298.5535029
300.1555224
300.3501924
301.3021996
303.2269965
300.618964
301.2337158
301.5745648
298.9131033
297.0763436
299.5909432
300.5529534
301.4167123
301.9339303
301.0055558
301.8936315
302.6344766
298.7715558
302.0269728
301.596181
300.6295353
300.6234574
296.5579205
297.1344183
295.3891973
296.8874668
295.5661943
297.7437764
302.1446563
301.6294982
303.9838584
302.6985877
300.9934781
300.8793475
301.3682253
301.8238664
302.9410931
298.9133785
296.0953613
296.7938582
296.0688057
297.6266979
)
;

boundaryField
{
    flow
    {
        type            calculated;
        value           nonuniform List<scalar> 
48
(
282.7502128
290.3582101
288.18187
292.0628516
288.2899203
292.7392745
286.170217
289.1084608
287.9733824
288.0632901
292.8488915
288.2322856
292.1028837
287.4184708
293.7794263
290.1843097
291.3636419
292.9479431
292.9479431
305.1146426
297.9513765
296.2646213
292.4067851
293.7746589
296.127689
298.4829268
299.373213
299.9983457
299.3638331
294.7254716
296.9391524
297.8636091
298.3093942
298.1278521
299.0461705
299.1656484
294.7841107
296.4147259
300.9934781
300.8793475
301.3682253
301.8238664
302.9410931
298.9133785
296.0953613
296.7938582
296.0688057
297.6266979
)
;
    }
    obstacle
    {
        type            calculated;
        value           nonuniform List<scalar> 0();
    }
    frontAndBack
    {
        type            empty;
    }
    procBoundary2to0
    {
        type            processor;
        value           nonuniform List<scalar> 
31
(
292.6726543
308.144487
299.4020649
298.9482439
296.9174592
297.4066898
296.0970127
298.4601742
300.1212891
298.2754451
297.9112606
296.8106012
298.895598
301.837271
305.8620388
301.2226094
300.1485357
303.0761057
303.1606594
304.1092255
307.790201
310.120848
315.4594558
318.4715104
328.2652444
331.6838345
299.9480284
299.5222494
302.7568194
304.2145272
304.2145272
)
;
    }
    procBoundary2to3
    {
        type            processor;
        value           nonuniform List<scalar> 
19
(
328.8385096
320.3636693
318.1113015
314.6175324
313.315225
309.6091158
305.249875
304.29908
305.1828679
300.7230922
298.1542306
302.6445845
298.9382848
296.2174513
303.7501433
301.6282531
303.0951052
301.2529253
298.4266085
)
;
    }
}


// ************************************************************************* //
