/*--------------------------------*- C++ -*----------------------------------*\
| =========                 |                                                 |
| \\      /  F ield         | OpenFOAM: The Open Source CFD Toolbox           |
|  \\    /   O peration     | Version:  2406                                  |
|   \\  /    A nd           | Website:  www.openfoam.com                      |
|    \\/     M anipulation  |                                                 |
\*---------------------------------------------------------------------------*/
FoamFile
{
    version     2.0;
    format      ascii;
    arch        "LSB;label=32;scalar=64";
    class       volVectorField;
    location    "0.004";
    object      UMean;
}
// * * * * * * * * * * * * * * * * * * * * * * * * * * * * * * * * * * * * * //

dimensions      [0 1 -1 0 0 0 0];

internalField   nonuniform List<vector> 
546
(
(1710.03135 -3.559383824 1.768101893)
(1744.911196 -0.3163786548 0.6041489286)
(1733.97473 3.595031912 0.7268622304)
(1730.857049 4.186571371 -1.007234925)
(1732.578023 1.552538244 -0.9689220729)
(1735.189485 0.1949665565 1.41978777)
(1734.808568 1.678725161 1.095100433)
(1735.26177 -0.2572488441 -0.5690877914)
(1737.603904 -3.049157988 -1.481568213)
(1737.743325 -2.033731246 -3.601849848)
(1737.869385 -5.038444793 -4.759832794)
(1739.902453 -0.2056868168 -0.8883453786)
(1742.690706 0.1858738502 -1.476204625)
(1740.154673 2.002987507 0.9088959815)
(1741.066768 3.570681599 3.603666617)
(1740.434953 2.679321514 -0.008242320803)
(1739.665228 0.1233879477 -1.939813136)
(1741.291517 -0.3149316716 -1.152329634)
(1741.637851 2.06659726 -0.6222888375)
(1738.596906 4.152845157 -3.167867805)
(1708.28035 4.345397555 0.9109299756)
(1748.074508 2.247601263 2.308852801)
(1742.457622 3.314453613 4.596807373)
(1740.919889 0.1694605519 1.923083659)
(1736.953444 2.186246049 -0.02642809639)
(1732.563487 2.025421009 -2.692944426)
(1734.142514 -2.676138245 -2.622444837)
(1733.319462 -3.463857709 -3.949556868)
(1732.912169 -0.1923045699 -3.765457867)
(1733.727024 1.481799344 -2.068428194)
(1735.648331 2.701278013 -3.794732573)
(1735.736326 0.6724618605 -3.332311593)
(1733.76498 -0.7355857 -4.447941499)
(1737.460856 -1.563481075 -4.346024302)
(1737.182369 0.5227984337 -4.914744129)
(1738.352996 1.730702962 -1.129787787)
(1737.82147 1.153818791 -1.022850394)
(1733.588132 4.20174009 -0.9201004732)
(1732.652638 1.202804621 2.227096683)
(1733.63609 1.184024962 2.685719322)
(1707.348393 3.140271308 -6.760095651)
(1743.10325 2.536642781 -7.747143046)
(1739.06151 1.064986393 -4.236523394)
(1736.663935 -2.041440367 -3.428760757)
(1740.255908 -3.258995121 0.7625015822)
(1742.657911 -2.883843491 0.5255251316)
(1741.983313 3.237689146 -0.1936056702)
(1741.69556 4.521680302 -0.1319529862)
(1741.515045 4.068646334 -0.7624539344)
(1738.429724 0.05037549218 -2.068398219)
(1737.523965 3.841939099 -3.388115937)
(1736.10293 4.332249439 -2.534276808)
(1732.009561 3.601388643 -2.457478667)
(1735.357221 1.840486623 -0.302154282)
(1735.417004 0.22197664 -0.5689782263)
(1736.68563 -0.1759291716 -1.376433333)
(1735.628077 1.028474105 -2.497915789)
(1736.588283 0.58987042 -2.850512263)
(1739.20969 0.09914415991 -2.719260674)
(1739.201353 -1.135656559 -5.203127793)
(1708.455983 2.864595715 -0.5531077715)
(1746.110342 -0.2126777236 2.820502948)
(1735.369535 -0.9083710801 -0.4976236144)
(1737.91221 -1.068421343 -0.03320684698)
(1740.477442 -0.2605085936 -0.02251063912)
(1740.931209 0.5626911269 2.11798063)
(1740.367381 -3.76547203 1.124248152)
(1740.826676 -2.761080303 -0.3631923811)
(1741.038308 -2.511413075 -1.072954368)
(1742.405079 1.269013305 -0.4366708624)
(1743.411782 -3.062963874 -0.9106891397)
(1745.182644 -1.997809257 -0.2082145012)
(1744.552793 1.790886901 -3.588256492)
(1740.617768 5.265997848 -0.9640772338)
(1738.285645 6.048645893 -1.817387657)
(1740.458954 1.916019079 -1.692286354)
(1741.553752 1.984286452 -0.8451561467)
(1736.770734 -0.749541978 -1.040576988)
(1734.877081 -3.830846274 -1.907322949)
(1735.606995 -2.687405074 0.330166074)
(1714.41305 -4.801387856 0.007385326006)
(1749.724319 -1.421662315 -1.159335712)
(1739.76988 -0.3808448104 -1.520146023)
(1735.40635 1.281403556 -2.059265531)
(1737.674801 0.7994978323 -2.46535048)
(1735.683483 1.808079366 -3.973143916)
(1735.556718 4.048404952 -2.498181762)
(1737.144858 3.440398139 1.361161835)
(1735.845174 -0.7785243209 0.9676708619)
(1736.643157 -0.4320861119 1.153209939)
(1739.801227 5.449491486 2.07283451)
(1740.212323 1.451056347 2.911212433)
(1740.215156 0.6201527789 6.046407567)
(1739.146759 -3.735200009 4.091120851)
(1737.437897 -3.755219276 2.03067439)
(1735.429162 -2.990201612 2.67721564)
(1735.080687 -1.990372023 3.909080322)
(1736.697029 -3.744792884 2.999593303)
(1736.925407 -2.644278013 3.227439511)
(1734.94415 -0.3424245056 2.9930362)
(1710.899433 -0.2386928509 0.1583440154)
(1748.320255 -1.091914411 0.6711188548)
(1740.296944 -0.7430827244 1.113892581)
(1741.397766 4.198985724 3.399681391)
(1739.179054 4.436956913 3.846868023)
(1739.223942 2.853853042 4.259876975)
(1739.404612 3.923765022 4.17995767)
(1738.108555 1.005962347 0.1237709134)
(1736.610114 5.256366391 4.210170037)
(1735.33559 -0.335703625 3.97037297)
(1733.593045 -5.659839453 4.885811204)
(1734.598075 -4.150603018 2.930241701)
(1735.638712 -2.827667489 2.245611709)
(1738.809075 -1.595589168 1.659676173)
(1739.486363 -4.572068332 3.295263117)
(1738.139376 -3.657131664 0.290719458)
(1737.260116 -2.714024624 -0.6519850656)
(1739.75891 -1.79342178 -2.272812274)
(1736.030643 -0.936882927 -1.919272615)
(1741.534675 -1.08681304 -1.303100168)
(1706.566814 1.174553831 -0.3247898601)
(1745.542542 2.468841766 2.564787701)
(1736.247258 2.005228626 4.048516922)
(1735.669616 0.7468852005 0.4761536191)
(1735.85778 -2.362370364 -0.9391188452)
(1734.381368 -1.077722958 -1.57181008)
(1733.669778 -0.399996449 1.61197503)
(1735.309544 -1.334396615 2.234802417)
(1737.348032 -0.2255384802 0.4655159881)
(1734.290105 -0.3910548664 0.5404872102)
(1737.709953 4.358069379 1.480273928)
(1735.749478 3.549068432 1.036596034)
(1733.412529 0.3141175354 -0.269390421)
(1736.862096 -1.111925511 -1.112774054)
(1732.898433 1.898732796 -1.310707691)
(1733.50152 2.208265428 0.6519773776)
(1732.143828 1.074545204 1.174275823)
(1730.511675 -2.996214616 3.111455816)
(1732.600585 -3.089023496 3.029058243)
(1735.166704 -3.496995912 0.7719463861)
(1708.869154 0.7209630258 3.297718395)
(1741.644478 -2.5843933 -0.6265240971)
(1732.564532 -4.348365749 -3.035400274)
(1731.865046 -4.025433526 -1.807589958)
(1731.030659 -3.450969735 2.759883052)
(1734.067864 -2.139900474 1.168308903)
(1734.15737 -1.420680107 -3.290697545)
(1734.390598 0.6453263005 -1.619413871)
(1734.816451 -0.7761073277 -3.044416789)
(1735.429327 1.641857306 -2.8417327)
(1735.220623 1.146089547 -2.813029011)
(1734.152385 -0.7852776095 -3.955465607)
(1733.469691 -0.3067577663 -1.748100801)
(1732.14386 0.523176646 -0.3173034498)
(1733.728789 -0.8491665243 -1.0941911)
(1731.249694 -1.33962055 -1.289307168)
(1733.845665 -0.5115527305 -2.688404386)
(1735.169129 3.969845656 -3.494109007)
(1731.980706 0.6560283233 -4.462867634)
(1732.589727 1.178962337 -1.742149548)
(1703.305198 -0.3192853931 -0.2674412523)
(1742.110466 -1.0282958 0.04735622646)
(1732.047066 -4.833004209 0.7503495465)
(1732.056813 -4.500034636 -1.944634508)
(1731.911227 -1.556526652 -1.121522779)
(1733.440141 -0.5371506223 0.03658532522)
(1733.275119 -1.421541421 1.111331434)
(1734.300077 -3.041849045 1.775833032)
(1733.186872 -2.504799531 2.867179751)
(1732.847953 -3.0763654 2.018561475)
(1730.271629 -1.507273145 1.206579612)
(1730.085437 -0.1328325947 3.662902571)
(1729.542785 0.7585758149 4.482004164)
(1732.129804 -0.8689337589 4.210968696)
(1731.794848 -3.401270964 2.806746725)
(1733.385656 -0.4872243182 2.794678974)
(1730.799079 -3.666554257 2.862079519)
(1732.436516 -3.413215496 -0.5173064955)
(1733.715356 -0.5171757144 0.8905756337)
(1734.966418 -0.4756163241 -1.050288538)
(1709.837885 0.2208767055 1.308818295)
(1744.525015 0.3304488023 3.30382414)
(1735.241108 1.248177335 3.432821311)
(1739.152197 0.1132115073 6.331456587)
(1740.835007 -0.9538360788 7.299002205)
(1737.492093 -0.9784553059 6.488089735)
(1737.75904 -0.783152941 4.890148138)
(1733.548763 -2.183439819 -0.5747388057)
(1736.307587 -3.462647214 0.06830879288)
(1735.315465 -4.525970403 -1.08915328)
(1734.288157 -3.737688373 -1.578281491)
(1735.214174 -2.952920506 -3.813017736)
(1734.280609 -2.776444744 -6.162602995)
(1733.185855 0.05184142047 -6.602733215)
(1733.377398 0.1124321779 -5.185772919)
(1735.38211 1.571168422 -5.175160872)
(1734.98993 5.449803426 -4.53448004)
(1733.328718 7.779404234 -0.4819115037)
(1733.062784 6.237123314 -2.384256415)
(1734.710577 2.507100568 -1.773548164)
(1706.777428 -1.116929855 0.09503189039)
(1745.40814 -1.240687018 -1.197878758)
(1740.646203 1.771191962 -0.39342275)
(1738.119144 -0.2244803708 -1.097123657)
(1736.483825 -0.8602234365 -4.8673623)
(1733.775873 -2.620620402 -3.394468225)
(1734.122798 -2.194991698 -1.726096006)
(1739.823927 -1.950741662 0.04906520758)
(1738.856563 -0.5179158813 0.7061688446)
(1735.997469 -0.08620635401 0.4409294066)
(1738.708678 -1.976978862 2.714666542)
(1739.051246 -0.9804202633 3.628828148)
(1737.292376 -0.7676404444 5.115597316)
(1737.601424 1.318249119 1.510778567)
(1739.054398 5.216456566 2.310470937)
(1736.365841 3.237310892 2.931854097)
(1737.246758 0.9376287723 1.421798574)
(1737.569245 -3.324091655 -1.101474187)
(1740.259119 -2.492127254 0.5419969793)
(1738.482191 -2.378767146 0.8705141538)
(1712.5933 0.2768784446 1.648687191)
(1749.072804 2.077593689 1.301755804)
(1737.365819 -1.623608858 -1.129843392)
(1737.749306 0.1870057592 -1.273144815)
(1740.752423 0.2418694693 -0.3131395557)
(1739.645218 -2.09063472 -2.055559699)
(1741.065125 -2.141915454 -1.280684902)
(1739.711071 -1.792576699 -2.910791779)
(1742.164995 -4.216950808 -1.377183561)
(1742.624076 -0.2967028697 -0.9268968056)
(1741.776356 0.8231347686 -4.283112048)
(1739.221066 0.246616236 -1.938652085)
(1744.158355 -1.906175058 0.6529737047)
(1742.023226 -4.220986069 5.063977393)
(1739.993285 -4.80884293 4.502535594)
(1740.06741 -5.530942026 4.956794878)
(1736.694847 -4.230506113 5.825144303)
(1735.781701 -2.082961182 6.848276267)
(1733.34207 -2.455394457 6.565275108)
(1730.474871 -0.8880167413 6.018158266)
(1715.349008 1.463288791 -2.7706359)
(1750.603774 -2.780281337 -4.589025509)
(1740.62067 -0.8847747477 -3.226879112)
(1739.722592 2.022245053 -3.097695708)
(1739.465681 1.663512814 -3.32330126)
(1740.721244 0.7982437119 -2.002812228)
(1738.888535 -0.8508918363 -2.208024222)
(1738.786867 0.6640997662 -0.8094717642)
(1737.542888 2.501921197 0.07931683466)
(1737.352375 -3.366652532 1.524723123)
(1735.404222 -1.940178723 2.217302666)
(1737.833924 -6.345371691 3.513063293)
(1738.600565 -4.849309706 -0.2080914716)
(1738.049181 -3.837683242 -3.255855949)
(1736.729714 -3.060862253 -3.777029229)
(1736.176854 -1.688653658 -4.158846086)
(1738.650559 -1.588394881 -2.813723042)
(1738.365252 -1.019043779 -1.346236084)
(1739.823066 4.110839795 -0.9889643846)
(1738.844628 5.400912082 0.7071489743)
(1704.808594 1.124602493 -3.85278042)
(1745.018264 0.1953601451 -2.437607998)
(1734.339143 0.03862468567 -0.6988533881)
(1733.03302 -1.902666546 -1.130488186)
(1732.849886 -3.265619168 1.239827184)
(1729.167829 1.48482518 1.530533337)
(1732.43993 1.553245824 1.737330464)
(1731.178503 2.447327089 0.8354641511)
(1733.122101 -0.5751434542 -2.689463668)
(1734.385649 -0.05364388707 -2.026527767)
(1733.848325 -0.585151926 -4.219193744)
(1731.608371 0.1282055852 -5.562796838)
(1732.556633 0.9930597305 -4.639200612)
(1729.459492 1.231429706 -3.766155328)
(1730.025645 2.580411152 -2.177926098)
(1730.947045 -0.1142194807 -2.849793541)
(1732.100683 -1.243061142 -2.07886039)
(1733.035289 -0.4241684677 -5.067644417)
(1735.18878 -3.545650121 -3.634071652)
(1733.873104 -3.170587481 -4.063565364)
(1702.094483 -0.2865021015 -2.023703346)
(1737.274007 -1.389559987 -1.005755247)
(1728.916923 -1.598602458 -1.275207958)
(1730.910999 0.02210059183 0.9812153387)
(1732.006102 1.460384856 0.2856468048)
(1729.198301 3.79460009 -0.09183160001)
(1729.393025 0.5795395727 1.267518757)
(1727.979647 0.2235925247 1.234563676)
(1728.896756 -0.1264182558 0.9938998649)
(1727.591045 0.9469335306 1.213008223)
(1726.538577 2.539681128 1.107641513)
(1728.292532 2.390970915 0.6215029333)
(1727.94645 -0.8421614794 3.400832982)
(1730.913094 -2.696604904 3.336920453)
(1731.170243 -5.703662414 -0.1283054624)
(1729.896017 -1.664402508 -1.81609789)
(1732.672193 -2.802545394 -0.9112744171)
(1730.932471 -4.643114563 -1.061515501)
(1731.98955 -5.290889256 -2.99680932)
(1733.466787 -3.851210402 -2.234187737)
(1705.941052 0.1774953997 -0.1227166841)
(1742.759258 2.595926827 -2.337087394)
(1737.366367 3.729072886 -1.66585387)
(1735.453899 4.403443702 -1.974700085)
(1733.068798 1.985795906 -2.260425314)
(1737.100692 -0.3252484963 -4.445903399)
(1734.796188 2.126227633 -2.174306805)
(1737.041123 5.676995388 -1.594916304)
(1738.571216 4.924912915 -0.8335855844)
(1735.92242 1.869982329 -0.5455960026)
(1739.515716 1.077947388 1.025603578)
(1737.698764 -0.523629418 1.114271454)
(1737.422026 1.038850467 -3.063187148)
(1734.092647 1.369680356 -0.2777417552)
(1734.355532 0.5911346631 0.5784381698)
(1738.832355 -2.098786713 1.510868532)
(1738.490141 -2.566061076 2.7944412)
(1737.767836 -1.844164369 1.556953744)
(1737.068705 1.54628976 -1.036125571)
(1736.524882 -1.96763932 0.5552837571)
(1706.755414 2.117001432 -3.840533139)
(1747.006079 1.216044152 -3.597791117)
(1739.182969 -1.4617988 -4.192654847)
(1741.10386 -0.6612133366 -3.237308191)
(1741.215908 0.5253448592 -1.658118416)
(1742.169764 0.4977135465 -1.79354456)
(1740.333374 1.943338427 -2.232332333)
(1741.659534 -1.493286901 -3.472013091)
(1737.450438 1.513211233 -1.963824167)
(1738.008845 2.954605463 -1.006593931)
(1736.87126 1.035065223 -2.140050454)
(1737.562145 0.9959683815 -1.323178206)
(1737.646637 3.628293532 -1.606103549)
(1738.740632 3.650487212 -2.13381909)
(1740.597465 2.239682596 -4.354069937)
(1737.439214 3.767643427 -5.362586414)
(1739.358226 3.697889389 -7.074135485)
(1737.748941 1.985044216 -0.5361015674)
(1738.150609 -1.035404682 -2.00035331)
(1741.682172 1.039451814 -2.322457066)
(1711.672444 3.23413583 -1.163740456)
(1747.520512 0.4256976145 -0.87053897)
(1735.770164 2.73942239 1.604160739)
(1734.856594 4.156315108 0.9915804163)
(1735.644582 3.874656444 0.09308792466)
(1736.396257 5.105770429 1.008927073)
(1733.92842 4.921019416 -0.4731598658)
(1733.342526 5.016242149 0.2328835106)
(1731.524091 3.487878846 -0.7737365662)
(1733.97605 6.329699554 -3.013935911)
(1732.974388 9.765204955 -3.299375344)
(1734.398682 12.87721348 -1.098847224)
(1736.245429 7.599384697 -0.2227172599)
(1737.394123 10.30146452 1.293656469)
(1735.493754 13.02582061 2.925729429)
(1737.675368 11.58695221 4.325948366)
(1736.03605 7.206457683 3.184513668)
(1734.756357 7.330925084 1.189678182)
(1738.265886 6.328463424 2.379312679)
(1739.423308 6.676310944 4.478613421)
(1735.850304 7.003607716 -4.925408643)
(1732.787151 4.731769962 -4.84622803)
(1734.394125 3.749103928 -2.945744072)
(1731.492027 2.181064549 -3.917474823)
(1730.563827 5.170000176 -6.422303882)
(1727.121425 11.48685738 -9.39874726)
(1736.170838 2.120099828 -2.464878229)
(1736.242888 3.106611692 -1.235610617)
(1738.216653 3.18228614 -0.6616914096)
(1735.211398 2.984155636 -0.8565745301)
(1732.775384 0.1978293501 -0.4160205445)
(1732.460261 2.249926529 1.972995764)
(1732.402089 3.013181074 -1.708574096)
(1731.839823 9.263696389 -1.68536611)
(1732.331032 7.038043122 -2.716362382)
(1731.645311 7.465332871 -1.988657722)
(1735.562012 0.2802632943 4.691387276)
(1734.419384 3.045658142 2.637691747)
(1732.096557 0.9433819178 4.374148039)
(1733.115625 -0.02388267982 4.254432115)
(1732.474897 3.383626042 0.5478182537)
(1733.710637 3.512602555 0.8294688094)
(1737.401941 3.100639664 -1.395629809)
(1736.122743 3.998714545 0.1895732991)
(1737.950024 4.350032964 2.368840159)
(1732.927994 6.266070126 1.803431004)
(1736.480976 -0.2179061316 -6.063022265)
(1735.684225 -1.898954918 -8.670331309)
(1735.639067 -1.243767918 -8.487099589)
(1737.944932 -2.813581446 -7.660111736)
(1739.863607 -3.538037941 -6.491881164)
(1738.037408 -0.151037296 -5.84856141)
(1739.251527 2.153641419 -3.944286044)
(1738.48338 -0.2635957549 -4.800193999)
(1735.994888 -0.1100933324 -3.698019368)
(1734.731351 -0.07598088689 -1.148423872)
(1736.551009 -3.834167783 -2.246779264)
(1737.556731 0.02707544402 -2.411223378)
(1737.372017 0.7522198036 -0.3394477431)
(1737.51355 2.163174312 -1.277498522)
(1735.308129 1.598755118 1.598046817)
(1731.73466 1.657517628 1.051307995)
(1729.530891 -3.600007165 4.284740754)
(1729.210137 -6.343548225 4.76918612)
(1730.328786 -4.906150877 1.808635192)
(1729.660732 -4.197488149 0.03040408967)
(1732.91276 -0.9490626268 8.041461309)
(1733.090906 -0.1949680538 4.689440597)
(1732.929326 -1.333018297 4.126112679)
(1733.94561 -3.315162826 4.068351262)
(1737.901957 -2.833999315 1.712742159)
(1734.34204 -3.385684187 4.350727286)
(1733.520213 -0.3335872769 3.127611529)
(1732.799773 2.402567244 1.268552744)
(1732.065112 -1.48463443 0.2679988854)
(1732.351426 2.780019156 -1.042999134)
(1742.595054 -1.250891708 -3.269521683)
(1740.798137 -0.6671413955 -2.287453054)
(1740.148278 -0.9646697286 -2.556730076)
(1735.229144 0.1197957812 -1.41052125)
(1733.432529 -3.551269174 -2.612724189)
(1735.08835 -3.118838185 -3.797910049)
(1737.661761 -3.305093931 -4.857006229)
(1738.997613 -4.222615482 -5.748129023)
(1739.324389 -3.097545191 -6.204408968)
(1736.76323 -3.010764899 -6.658732534)
(1730.94493 -3.044681786 1.939651341)
(1730.172822 -4.296853374 -0.09646538633)
(1731.554251 -5.965090818 -0.9300377004)
(1732.348259 -3.616924104 -3.751190223)
(1732.693336 -0.2488819783 -6.032158704)
(1732.172141 -1.36405294 -5.929752489)
(1733.324073 -2.742395665 -3.583392134)
(1732.086792 -2.057895631 -2.796440171)
(1731.562367 0.8481590549 -0.7800642235)
(1735.117579 1.978039237 1.394263079)
(1732.374184 0.5010228599 0.2178148315)
(1732.609295 -0.4815332094 -1.432491916)
(1734.26917 0.04816307916 2.02467009)
(1734.185114 -1.993032081 4.48588608)
(1734.988594 -0.5367059813 3.973646042)
(1735.040573 2.649542519 3.311458409)
(1736.020506 1.592595794 -0.2538071538)
(1735.144434 5.421897489 0.7734870245)
(1736.465232 0.4434451357 -1.006759937)
(1733.312487 -5.310230259 -2.961267303)
(1735.282742 1.467279054 -2.474600962)
(1731.516259 3.158338774 -3.092856467)
(1737.745162 4.556946936 -4.496160918)
(1734.865895 5.530012601 -4.38170462)
(1733.177481 0.8765124159 -2.021123904)
(1734.177053 -0.8582713647 -2.709358321)
(1726.661513 -2.867156838 -1.269535941)
(1728.987903 -3.786098804 -1.656271702)
(1728.550485 -2.113171647 -1.089047182)
(1728.342687 -0.1085565848 -0.9028051574)
(1737.573773 1.092076481 -1.42523849)
(1737.447158 0.4998812556 -2.279255161)
(1732.668855 0.1385812102 -1.71654393)
(1730.29085 -0.6297731143 -0.1718518747)
(1729.183197 1.678327931 -2.094508464)
(1731.847024 -1.415406717 -0.7756358937)
(1733.240904 0.8168358063 0.6514131918)
(1735.099838 2.231169242 0.4842452266)
(1734.555238 5.19613933 1.428428484)
(1734.903992 5.281521986 5.587636167)
(1736.144748 -0.8641884965 1.779239811)
(1735.848796 -2.750175078 2.620858624)
(1737.350681 -3.398182948 3.825042822)
(1740.05743 1.529496841 5.412860811)
(1740.742863 3.226224146 4.960512641)
(1738.911595 5.522176265 3.907632201)
(1739.151211 5.491014149 1.001962352)
(1737.159252 6.815024233 3.494662582)
(1737.383759 5.280988707 0.6562270905)
(1738.191973 7.136581109 -3.153931279)
(1734.600572 1.736963129 4.076532533)
(1734.279298 4.973785997 3.627185097)
(1733.178338 6.120357734 1.05091499)
(1731.935222 2.921105119 0.9057897762)
(1731.971891 2.648072688 2.977606665)
(1734.32382 0.1472808372 3.482947949)
(1736.561802 -0.4511953914 3.225388442)
(1737.313677 -1.603571452 -0.8184608368)
(1737.710993 -5.869435713 -3.862621156)
(1736.750457 -3.313505317 -3.834471693)
(1737.151966 4.745338722 -1.794892399)
(1734.741017 1.324993811 -0.2293631394)
(1736.795496 0.607316283 -0.971786006)
(1734.012752 1.830369314 -2.137406884)
(1736.727273 -3.724875964 -4.350026)
(1734.173704 -1.656653848 -4.110303081)
(1733.32381 -1.120089349 -6.314843151)
(1735.565248 -3.945418654 -3.487806617)
(1736.708058 -0.3013606617 0.1293339932)
(1736.981319 -5.935053634 2.088120317)
(1737.448412 -4.623784998 -3.539089275)
(1735.022997 -1.720483192 -3.67932224)
(1736.06047 -3.156384419 -2.842791213)
(1734.259327 -0.9741242748 -2.126697062)
(1733.55044 2.642151737 -1.654341925)
(1735.110467 1.374046694 -0.5999154477)
(1733.65696 2.812020704 0.3395550979)
(1732.635254 1.707615285 1.58747324)
(1735.940942 5.478434571 2.667903757)
(1737.184178 6.499293102 0.2619877621)
(1733.966665 -2.397127656 0.1627577305)
(1733.36134 -1.624072222 -1.824628973)
(1732.006157 -1.520333669 -0.2892037261)
(1734.79322 -2.508296427 -0.8712616714)
(1737.088746 0.09960748696 -0.08015862336)
(1737.31485 1.118526427 0.2699896744)
(1738.529827 4.180881412 -1.99532645)
(1739.072811 7.757240703 -3.853629891)
(1733.511269 7.603785324 -4.042234465)
(1733.408809 5.153092918 -3.039347202)
(1734.180721 -2.888985941 -2.43694378)
(1734.370232 -3.043815102 0.8833438876)
(1734.275001 -0.5876345008 -2.77243182)
(1733.140516 -1.854557805 -3.216379638)
(1736.040213 1.142981481 -2.427135174)
(1734.726269 1.79331081 0.2544290787)
(1733.516757 1.157677364 -0.9550136566)
(1732.142141 -1.096530422 -0.9593551702)
(1733.399118 -6.241255059 -2.543607871)
(1732.203199 -1.340417026 -2.085475412)
(1738.926767 2.624733111 -2.724349267)
(1735.75789 -1.577252021 -5.273384146)
(1738.243262 -5.076081319 -3.324408407)
(1736.990138 -3.280135783 0.07326765842)
(1735.475121 -1.094692936 -2.017577026)
(1734.149881 -2.6575921 -5.592963542)
(1736.086142 -1.01689302 -3.399177217)
(1734.911228 -3.816068388 -0.7942487928)
(1735.00799 -1.257419782 -0.22299698)
(1735.439594 -2.118119087 0.05757247908)
(1736.77784 5.67366335 5.683908417)
(1739.467551 7.794933401 2.631609562)
(1741.299844 7.700552551 4.33858907)
(1742.547093 6.714683562 4.08517461)
(1742.736918 0.2119681181 1.091595469)
(1740.943319 1.643069809 5.045794151)
(1741.78329 1.040984447 7.422734149)
(1741.795219 2.216698074 5.379840978)
(1739.67146 5.223575424 4.033730242)
(1742.369788 3.777396912 5.038834197)
)
;

boundaryField
{
    flow
    {
        type            calculated;
        value           nonuniform List<vector> 
48
(
(1710.03135 -3.559383824 1.768101893)
(1708.28035 4.345397555 0.9109299756)
(1707.348393 3.140271308 -6.760095651)
(1708.455983 2.864595715 -0.5531077715)
(1714.41305 -4.801387856 0.007385326006)
(1710.899433 -0.2386928509 0.1583440154)
(1706.566814 1.174553831 -0.3247898601)
(1708.869154 0.7209630258 3.297718395)
(1703.305198 -0.3192853931 -0.2674412523)
(1709.837885 0.2208767055 1.308818295)
(1706.777428 -1.116929855 0.09503189039)
(1712.5933 0.2768784446 1.648687191)
(1715.349008 1.463288791 -2.7706359)
(1704.808594 1.124602493 -3.85278042)
(1702.094483 -0.2865021015 -2.023703346)
(1705.941052 0.1774953997 -0.1227166841)
(1706.755414 2.117001432 -3.840533139)
(1711.672444 3.23413583 -1.163740456)
(1711.672444 3.23413583 -1.163740456)
(1747.520512 0.4256976145 -0.87053897)
(1735.770164 2.73942239 1.604160739)
(1734.856594 4.156315108 0.9915804163)
(1735.644582 3.874656444 0.09308792466)
(1736.396257 5.105770429 1.008927073)
(1733.92842 4.921019416 -0.4731598658)
(1733.342526 5.016242149 0.2328835106)
(1731.524091 3.487878846 -0.7737365662)
(1733.97605 6.329699554 -3.013935911)
(1732.974388 9.765204955 -3.299375344)
(1734.398682 12.87721348 -1.098847224)
(1736.245429 7.599384697 -0.2227172599)
(1737.394123 10.30146452 1.293656469)
(1735.493754 13.02582061 2.925729429)
(1737.675368 11.58695221 4.325948366)
(1736.03605 7.206457683 3.184513668)
(1734.756357 7.330925084 1.189678182)
(1738.265886 6.328463424 2.379312679)
(1739.423308 6.676310944 4.478613421)
(1736.77784 5.67366335 5.683908417)
(1739.467551 7.794933401 2.631609562)
(1741.299844 7.700552551 4.33858907)
(1742.547093 6.714683562 4.08517461)
(1742.736918 0.2119681181 1.091595469)
(1740.943319 1.643069809 5.045794151)
(1741.78329 1.040984447 7.422734149)
(1741.795219 2.216698074 5.379840978)
(1739.67146 5.223575424 4.033730242)
(1742.369788 3.777396912 5.038834197)
)
;
    }
    obstacle
    {
        type            calculated;
        value           nonuniform List<vector> 0();
    }
    frontAndBack
    {
        type            empty;
    }
    procBoundary2to0
    {
        type            processor;
        value           nonuniform List<vector> 
31
(
(1710.956918 2.194390582 1.533609065)
(1750.686166 1.346230901 0.2440548979)
(1741.539415 -6.115467839 -1.46364116)
(1744.50304 -3.214334194 0.5334181036)
(1744.218933 -1.970196202 -0.05956738865)
(1743.252848 -0.8205101087 0.2108338543)
(1737.90971 0.262398734 -0.09586590152)
(1741.227818 2.976038178 2.339672797)
(1736.650138 3.088412651 3.928766771)
(1734.843798 2.378365523 2.61070123)
(1735.261544 4.241232569 5.90528354)
(1733.295131 -0.1232452798 2.770818292)
(1734.421625 0.1873735893 2.16284392)
(1732.059999 -0.4678099661 -0.8693192595)
(1732.145509 -3.67802967 -4.839068936)
(1734.537512 -2.880366868 -4.264496617)
(1732.70897 -0.6602806011 -3.685832972)
(1732.46457 2.752573884 -5.354208083)
(1734.017628 2.508055324 -4.487364392)
(1734.804985 7.52772843 -3.101962077)
(1734.401126 3.388946606 2.646161743)
(1732.345152 4.165626038 0.8200745718)
(1729.836676 3.965678052 1.251606346)
(1726.833324 8.527316448 -0.6713682553)
(1725.86985 12.26681815 4.26966488)
(1724.635612 13.11736722 9.219681404)
(1737.269765 4.792582391 -2.137106804)
(1736.873223 5.652820122 -1.621771342)
(1732.525256 6.688901125 -3.125046447)
(1733.803049 5.178825401 -5.072326682)
(1733.803049 5.178825401 -5.072326682)
)
;
    }
    procBoundary2to3
    {
        type            processor;
        value           nonuniform List<vector> 
19
(
(1725.171454 13.55940365 -7.646950825)
(1728.716372 10.30622278 -0.8150645627)
(1734.322337 9.782984652 1.393422818)
(1733.869894 3.811066611 -3.201454959)
(1725.634172 -4.987161083 -1.059072683)
(1734.092965 1.964363569 0.7836607447)
(1736.582301 -2.193985769 -5.857419477)
(1734.064611 -0.7659711016 2.653862704)
(1732.355338 -2.002339105 -2.144195225)
(1729.673493 4.891495053 -1.989079028)
(1735.500379 2.189165212 7.199731048)
(1735.164909 6.581789417 -5.734507921)
(1735.89817 -3.526460101 -3.636455998)
(1734.257161 -2.737309458 3.123175684)
(1739.780491 2.553689546 -2.690284351)
(1732.254519 6.360765873 -1.889673961)
(1732.948591 1.423485965 -0.9941638222)
(1736.109141 -0.5653265356 2.778770956)
(1736.382232 2.804529577 3.266794745)
)
;
    }
}


// ************************************************************************* //
