/*--------------------------------*- C++ -*----------------------------------*\
| =========                 |                                                 |
| \\      /  F ield         | OpenFOAM: The Open Source CFD Toolbox           |
|  \\    /   O peration     | Version:  2406                                  |
|   \\  /    A nd           | Website:  www.openfoam.com                      |
|    \\/     M anipulation  |                                                 |
\*---------------------------------------------------------------------------*/
FoamFile
{
    version     2.0;
    format      ascii;
    arch        "LSB;label=32;scalar=64";
    class       volScalarField;
    location    "0.003";
    object      dsmcSigmaTcRMax;
}
// * * * * * * * * * * * * * * * * * * * * * * * * * * * * * * * * * * * * * //

dimensions      [0 3 -1 0 0 0 0];

internalField   nonuniform List<scalar> 
546
(
8.54301468e-16
8.492796512e-16
8.300316374e-16
8.573483993e-16
8.334507796e-16
8.381445216e-16
8.413191158e-16
8.747987568e-16
9.103820647e-16
8.061204497e-16
8.6136956e-16
8.12043955e-16
8.33718195e-16
8.067589119e-16
8.256145273e-16
8.575550077e-16
8.525204679e-16
8.248913189e-16
8.441068847e-16
8.02451021e-16
8.63217294e-16
8.206563079e-16
8.299169088e-16
8.563870167e-16
8.254540068e-16
8.520406946e-16
8.163373367e-16
8.379525782e-16
7.985274055e-16
8.47652801e-16
8.442621287e-16
8.450472186e-16
8.498064826e-16
8.847446614e-16
8.408872369e-16
8.467556637e-16
8.949216749e-16
8.325177531e-16
8.870292414e-16
8.154639136e-16
8.606811187e-16
8.404774896e-16
8.442426458e-16
8.254533877e-16
7.991759538e-16
8.536820477e-16
8.235916971e-16
8.398446898e-16
8.639327092e-16
8.80277852e-16
8.532494333e-16
8.609353969e-16
8.181589698e-16
8.501205921e-16
8.484247327e-16
8.304825063e-16
8.023496301e-16
7.825848552e-16
7.936358245e-16
7.737417115e-16
8.637312589e-16
8.800857809e-16
8.55385706e-16
8.919386604e-16
8.60075276e-16
8.513350287e-16
8.879130044e-16
9.195298302e-16
8.723398922e-16
8.366805363e-16
8.286913929e-16
8.771631714e-16
8.520491274e-16
8.43170837e-16
8.638174022e-16
9.528494011e-16
8.521753959e-16
8.601257825e-16
8.429300665e-16
8.288932752e-16
9.016080689e-16
8.388030415e-16
8.233061151e-16
8.295344209e-16
7.858453705e-16
8.467927528e-16
8.143428881e-16
8.558780009e-16
8.017419531e-16
7.548058668e-16
8.422206704e-16
9.007098158e-16
8.766887428e-16
8.416570919e-16
9.218517618e-16
8.999787222e-16
8.891388793e-16
8.248107652e-16
8.575612395e-16
9.043598206e-16
8.732982416e-16
8.322826775e-16
8.550315742e-16
8.401439716e-16
8.285402293e-16
8.114414166e-16
8.252361182e-16
8.050504063e-16
8.235577692e-16
8.484135848e-16
8.519880998e-16
7.997594977e-16
8.689303407e-16
8.629514406e-16
8.441474844e-16
8.248344296e-16
8.042214833e-16
8.068910051e-16
7.955603529e-16
7.773692333e-16
9.38730981e-16
8.728732961e-16
8.682219913e-16
8.578368054e-16
8.35685153e-16
8.377898314e-16
8.535691011e-16
8.43677779e-16
8.344874169e-16
8.133896842e-16
8.351286105e-16
8.186709228e-16
9.12142075e-16
8.518999353e-16
8.24437121e-16
8.658007736e-16
8.683258547e-16
9.048255068e-16
9.042062841e-16
8.297197455e-16
8.295694409e-16
8.033783028e-16
8.489664414e-16
8.194097704e-16
8.513212303e-16
9.016023559e-16
8.083985065e-16
8.008554223e-16
7.652672703e-16
7.69723514e-16
8.341688259e-16
8.566716111e-16
8.403139876e-16
8.114377254e-16
8.236434606e-16
8.345641248e-16
8.504591401e-16
8.560267845e-16
8.242682095e-16
8.969567486e-16
8.625225153e-16
8.307762925e-16
8.339204059e-16
8.545697894e-16
7.85969434e-16
8.522158365e-16
8.558343119e-16
8.695600595e-16
8.346585875e-16
8.66307674e-16
8.286309571e-16
8.235997028e-16
8.181727196e-16
8.3720888e-16
8.47741527e-16
8.421952315e-16
8.571506473e-16
8.206028784e-16
7.559649408e-16
7.805877607e-16
8.343970979e-16
8.343320206e-16
8.672829389e-16
8.335864985e-16
8.258961891e-16
8.607546083e-16
8.636840009e-16
7.898082212e-16
8.329294779e-16
8.065427542e-16
8.602061571e-16
8.394137462e-16
8.048397661e-16
8.465493169e-16
8.258398684e-16
9.036212813e-16
8.933592332e-16
8.038716027e-16
8.250578316e-16
8.364215485e-16
7.901572228e-16
8.207197613e-16
8.352867489e-16
8.612433594e-16
8.884322559e-16
8.139899358e-16
8.362054318e-16
7.955988223e-16
7.853290285e-16
7.612523157e-16
9.174333777e-16
8.540857128e-16
8.56484224e-16
8.203426212e-16
7.843263655e-16
8.342979782e-16
8.080454116e-16
8.349148088e-16
8.152679089e-16
8.829887113e-16
8.805227817e-16
8.167441063e-16
8.286020094e-16
7.898303145e-16
8.078104698e-16
8.913155547e-16
8.27372703e-16
8.465302887e-16
7.983012317e-16
8.237348174e-16
8.142536258e-16
8.323300413e-16
8.290469063e-16
8.386532705e-16
8.060153743e-16
7.993745197e-16
7.570098938e-16
7.967736751e-16
7.98163869e-16
7.352850876e-16
8.111939212e-16
7.855092995e-16
8.227973786e-16
8.201947192e-16
8.081830179e-16
8.3432835e-16
8.005947693e-16
8.472596394e-16
8.57948673e-16
8.673751019e-16
8.153014949e-16
8.688713148e-16
8.23205906e-16
8.63181513e-16
8.207114667e-16
8.205690177e-16
8.495964127e-16
8.215271428e-16
8.106539767e-16
8.447776694e-16
8.171962705e-16
8.608888127e-16
8.184531431e-16
8.098170747e-16
8.536880336e-16
8.556243027e-16
8.351256009e-16
7.800801036e-16
8.280320271e-16
7.953376186e-16
8.121631546e-16
8.57460449e-16
7.788870572e-16
8.512795711e-16
8.104791277e-16
8.190858296e-16
7.783491283e-16
8.127108745e-16
7.879926509e-16
8.142969765e-16
8.178238073e-16
8.545420335e-16
7.920921584e-16
8.296794438e-16
8.99991334e-16
8.066410817e-16
8.253970787e-16
8.35836166e-16
8.049274022e-16
8.168772418e-16
7.950782706e-16
7.992005133e-16
7.882564245e-16
9.00023708e-16
8.243235285e-16
8.101363861e-16
8.287846582e-16
7.818035858e-16
8.245867289e-16
7.939948893e-16
7.939525392e-16
7.860110533e-16
8.398221774e-16
8.053426715e-16
8.039057669e-16
7.963723956e-16
7.852022541e-16
7.993332209e-16
8.547694799e-16
8.879881674e-16
7.758217943e-16
7.905956581e-16
8.506900662e-16
8.069359264e-16
8.226140801e-16
8.193838215e-16
8.801417831e-16
8.10092868e-16
7.902425836e-16
8.048533793e-16
8.268130924e-16
7.76339613e-16
8.307706182e-16
8.411294351e-16
8.082793081e-16
8.150773908e-16
8.122566127e-16
8.243898434e-16
7.779876499e-16
8.109484752e-16
7.526168605e-16
7.941526122e-16
7.702117888e-16
7.824604763e-16
7.776891436e-16
7.692221002e-16
7.878968443e-16
7.591930634e-16
8.158225465e-16
7.69098652e-16
8.186059388e-16
8.00995131e-16
8.367451255e-16
7.892901469e-16
7.829066984e-16
8.879012993e-16
8.024975505e-16
8.303209824e-16
7.69773543e-16
8.547177957e-16
8.157085815e-16
8.327918575e-16
8.090011953e-16
8.150510052e-16
8.242968433e-16
8.333137985e-16
8.031844802e-16
7.807042893e-16
7.550948604e-16
7.708019783e-16
7.826106632e-16
7.787836586e-16
8.054615412e-16
8.146750718e-16
7.502785347e-16
8.143804079e-16
8.146588537e-16
7.738984327e-16
7.79099381e-16
7.712553887e-16
7.798966098e-16
7.458290199e-16
7.870257321e-16
7.926182687e-16
7.521841391e-16
8.693462661e-16
8.113858471e-16
8.341951896e-16
8.055322448e-16
8.122353726e-16
8.178800642e-16
7.91895741e-16
7.959871951e-16
7.875297885e-16
8.161421791e-16
8.308598001e-16
8.270474068e-16
7.73836806e-16
7.887629688e-16
8.268594704e-16
7.854921666e-16
7.82270154e-16
7.920607954e-16
7.887905248e-16
8.505907055e-16
8.115283998e-16
7.84815407e-16
7.842167125e-16
7.635342383e-16
7.932450986e-16
8.010227275e-16
8.101428423e-16
8.193325835e-16
7.910163906e-16
8.159760727e-16
7.751799781e-16
8.071221036e-16
8.144200388e-16
7.757931159e-16
7.617947386e-16
7.94789368e-16
7.738766388e-16
8.883572264e-16
8.441118383e-16
7.905735386e-16
7.685607152e-16
7.633939167e-16
8.36252361e-16
8.061846301e-16
8.04620013e-16
7.367926725e-16
7.41739061e-16
7.358808577e-16
7.600240189e-16
7.900418367e-16
7.787252794e-16
7.869813371e-16
7.606093205e-16
8.115728697e-16
7.981657959e-16
7.640866891e-16
8.22659532e-16
7.551319339e-16
7.645138132e-16
8.188021881e-16
7.826490885e-16
8.917997802e-16
7.968039518e-16
7.990742258e-16
8.23204529e-16
8.171167358e-16
7.920010011e-16
8.196276598e-16
7.996544239e-16
7.926524494e-16
7.852977501e-16
7.56377927e-16
8.01602802e-16
8.360534905e-16
8.304283798e-16
7.385003536e-16
7.968550212e-16
6.973950171e-16
8.480490361e-16
8.031026231e-16
7.264906484e-16
7.81133629e-16
7.731041246e-16
7.839297591e-16
7.703559603e-16
8.132210024e-16
7.860587281e-16
7.798117046e-16
7.250337853e-16
7.60045518e-16
7.573457443e-16
7.692207643e-16
7.753089235e-16
7.816699808e-16
7.780183577e-16
7.563026699e-16
7.525053916e-16
7.703113901e-16
8.025527268e-16
8.021609494e-16
7.861651072e-16
8.443678858e-16
8.550175374e-16
7.782082636e-16
7.351309976e-16
6.970360722e-16
7.309477977e-16
7.795768964e-16
8.240305891e-16
7.184343174e-16
7.743032856e-16
7.701093601e-16
7.562689376e-16
7.489598143e-16
7.572933474e-16
7.968822813e-16
7.926146897e-16
7.430483071e-16
7.758909295e-16
7.469467411e-16
8.076329616e-16
7.671716865e-16
8.00797763e-16
8.255629763e-16
7.634846041e-16
8.479082261e-16
7.976933791e-16
8.263047111e-16
8.040632581e-16
7.363758015e-16
7.022860554e-16
7.729199113e-16
7.111860998e-16
8.198368015e-16
7.358608196e-16
7.148049626e-16
7.614487447e-16
7.437617715e-16
7.808189887e-16
7.260433969e-16
7.387330469e-16
7.495060588e-16
7.552722279e-16
7.554691206e-16
7.78392521e-16
7.298440339e-16
7.916027984e-16
7.383477438e-16
7.607753432e-16
7.527200477e-16
7.127282697e-16
7.525701345e-16
7.218331277e-16
7.03745907e-16
7.436794189e-16
7.516604833e-16
7.955951648e-16
7.698622212e-16
7.476516988e-16
7.592152768e-16
7.585163218e-16
7.487583433e-16
7.82592707e-16
6.95027693e-16
6.862707241e-16
7.722660295e-16
7.618253115e-16
7.884482978e-16
7.619876632e-16
7.239351027e-16
6.966554078e-16
)
;

boundaryField
{
    flow
    {
        type            zeroGradient;
    }
    obstacle
    {
        type            zeroGradient;
    }
    frontAndBack
    {
        type            empty;
    }
    procBoundary1to0
    {
        type            processor;
        value           nonuniform List<scalar> 
21
(
8.861870315e-16
8.48577127e-16
8.178424391e-16
8.873199309e-16
8.44427099e-16
8.203835802e-16
8.175119747e-16
7.854303911e-16
7.855843253e-16
8.181151707e-16
7.885171468e-16
7.754961691e-16
7.567297755e-16
7.418016973e-16
7.77492275e-16
7.121637669e-16
6.895730359e-16
7.429580892e-16
7.400506274e-16
7.129952622e-16
7.494816948e-16
)
;
    }
    procBoundary1to3
    {
        type            processor;
        value           nonuniform List<scalar> 
36
(
7.980335999e-16
8.510499318e-16
7.586741795e-16
8.185395861e-16
7.980335999e-16
7.810106214e-16
7.465048382e-16
7.907778722e-16
8.40417898e-16
7.788348036e-16
7.834647386e-16
8.510499318e-16
8.169040204e-16
8.053215001e-16
8.211519486e-16
7.742464227e-16
7.564326096e-16
7.465048382e-16
7.378939604e-16
7.40146455e-16
7.811862649e-16
7.167792226e-16
7.731761726e-16
7.682004693e-16
8.053215001e-16
7.254783891e-16
6.499257812e-16
6.992722844e-16
7.473423118e-16
7.017822869e-16
8.236928249e-16
6.768001755e-16
7.40146455e-16
8.225295936e-16
6.499257812e-16
6.847267215e-16
)
;
    }
}


// ************************************************************************* //
