/*--------------------------------*- C++ -*----------------------------------*\
| =========                 |                                                 |
| \\      /  F ield         | OpenFOAM: The Open Source CFD Toolbox           |
|  \\    /   O peration     | Version:  2406                                  |
|   \\  /    A nd           | Website:  www.openfoam.com                      |
|    \\/     M anipulation  |                                                 |
\*---------------------------------------------------------------------------*/
FoamFile
{
    version     2.0;
    format      ascii;
    arch        "LSB;label=32;scalar=64";
    class       volScalarField;
    location    "0.003";
    object      dsmcRhoNMean;
}
// * * * * * * * * * * * * * * * * * * * * * * * * * * * * * * * * * * * * * //

dimensions      [0 -3 0 0 0 0 0];

internalField   nonuniform List<scalar> 
546
(
27.50666667
27.23866667
26.406
26.41133333
25.44133333
25.03133333
25.45266667
25.25066667
25.95133333
25.50666667
24.676
24.332
23.008
23.85733333
23.57866667
22.856
21.82933333
21.75333333
21.974
21.462
20.696
21.61
21.05933333
20.62733333
19.39733333
18.768
18.03933333
17.27266667
15.47466667
12.91
24.51933333
24.016
23.69866667
23.93066667
23.28
23.26533333
23.04666667
22.83133333
22.37533333
22.44
22.154
21.794
21.35333333
21.87866667
21.628
21.31066667
20.68266667
20.41133333
19.84266667
19.51933333
18.90066667
19.05666667
18.81533333
18.03933333
17.53066667
17.682
16.76266667
15.56933333
14.246
11.68333333
22.93133333
23.15066667
22.468
22.28333333
21.776
21.186
21.292
21.01733333
21.17533333
20.80533333
21.038
20.70466667
20.61266667
20.30066667
19.95333333
19.50066667
19.426
18.766
18.91133333
18.78066667
18.21666667
17.95533333
18.29066667
17.21533333
16.682
16.428
15.82466667
15.22266667
13.44
11.982
21.22866667
21.66133333
21.898
21.538
21.40466667
20.956
20.60266667
20.834
20.76
20.52466667
20.462
20.27066667
20.26733333
20.16733333
19.18133333
18.858
18.478
18.49733333
18.51733333
18.51866667
17.64
17.13
17.05666667
16.64866667
16.66533333
15.802
15.23133333
14.58466667
13.57533333
12.49466667
20.02066667
20.40933333
20.86066667
21.00333333
21.15933333
20.82266667
20.46133333
20.52266667
20.83533333
20.24333333
20.016
20.15933333
19.97466667
19.792
19.306
19.11133333
18.71533333
18.89133333
18.09266667
17.816
17.50266667
16.86333333
16.55066667
16.39266667
16.02133333
15.68733333
15.61533333
14.69333333
13.69733333
12.49
18.31733333
18.908
19.498
19.62733333
19.87933333
20.35133333
20.11333333
20.07066667
20.26066667
20.05266667
19.80466667
19.716
19.50866667
19.474
19.50266667
19.43133333
18.45933333
18.59533333
18.28
17.96866667
17.636
16.81866667
16.62666667
16.65
16.41933333
15.68466667
15.10266667
14.77066667
14.06066667
12.736
16.7
17.74
18.19133333
18.90266667
19.10533333
19.77266667
19.65333333
19.73133333
19.65866667
20.032
19.942
19.758
19.754
19.69866667
19.156
18.798
18.564
18.13
18.07333333
17.734
17.478
17.25333333
16.91933333
16.654
16.52466667
16.17333333
15.392
14.97266667
14.16333333
13.26666667
15.288
15.87066667
16.77
17.57333333
17.932
18.416
18.998
19.362
19.33333333
19.22466667
19.39466667
19.26666667
19.222
19.13533333
19.46
19.272
18.97333333
18.56933333
18.274
18.236
17.922
17.36266667
17.15733333
16.77066667
16.31933333
16.08266667
15.71533333
14.97866667
14.51866667
13.82466667
13.77933333
14.59
15.286
15.888
16.958
17.542
17.79266667
18.23066667
18.562
18.59133333
18.76133333
19.10666667
19.12466667
19.20066667
19.20466667
19.30266667
18.88133333
18.80733333
18.78466667
18.32866667
18.08133333
17.58266667
17.146
16.81733333
16.55066667
16.25533333
15.992
15.426
14.734
13.95866667
12.32666667
12.98866667
13.762
14.43066667
15.11066667
15.67466667
16.59
17.068
17.73666667
18.1
18.15466667
18.374
18.65266667
18.92533333
18.93533333
18.96266667
18.84733333
18.618
18.214
18.156
18.202
17.93
17.608
16.83933333
16.816
16.47466667
15.94933333
15.68266667
14.91933333
14.21333333
11.70133333
12.10866667
12.66133333
13.05466667
13.8
14.39333333
15.114
15.98666667
16.53666667
17.34
17.726
17.94466667
18.05133333
18.24666667
18.38
18.382
18.49333333
18.744
18.438
18.29933333
18.19866667
17.97666667
17.654
17.30933333
16.51
16.27333333
16.16133333
16.11666667
15.592
14.70866667
10.97866667
11.31866667
11.784
12.266
12.72066667
13.262
14.042
14.528
15.10666667
15.566
16.05733333
16.53866667
17.26333333
17.50933333
17.70933333
18.11
18.05333333
18.28666667
18.47
18.32733333
17.994
18.094
17.668
17.42
17.338
16.988
16.46533333
15.91333333
15.52533333
15.32066667
10.27066667
10.55866667
11.04
11.33866667
11.848
12.37733333
12.84733333
13.24466667
13.78533333
14.22666667
14.99733333
15.77466667
16.36133333
16.96866667
17.256
17.40666667
17.728
17.696
18.01
18.11
17.894
18.126
17.89066667
17.774
17.396
16.97933333
16.672
16.31066667
16.16333333
15.514
9.892666667
10.09866667
10.23466667
10.682
11.00466667
11.34733333
11.696
12.274
12.74866667
13.45733333
14.13533333
14.49733333
15.06333333
15.566
16.18933333
16.58133333
17.122
17.478
17.29266667
17.40266667
17.494
17.57
18.02933333
17.92733333
17.48066667
17.09466667
16.93533333
16.66
16.012
15.67666667
9.755333333
9.882666667
10.00666667
9.992666667
10.16933333
10.54266667
11.05866667
11.548
12.01133333
12.34133333
12.732
13.12666667
13.80333333
14.54133333
15.24866667
15.972
16.41533333
16.70533333
17.10066667
17.39666667
17.654
17.73866667
17.79133333
17.726
17.70133333
17.43133333
17.188
16.936
16.472
15.93333333
9.367333333
9.308
9.454666667
9.526666667
9.857333333
10.04133333
10.34466667
10.68733333
11.09333333
11.42666667
11.97733333
12.68066667
13.072
13.67266667
14.13466667
14.60666667
15.21066667
15.72066667
16.19533333
16.70333333
16.888
17.032
17.10866667
17.45533333
17.54333333
17.33133333
17.15933333
17.05733333
16.88666667
9.302666667
9.390666667
9.426666667
9.721333333
9.644666667
9.79
9.935333333
10.214
10.40933333
10.87066667
11.23133333
11.48266667
11.748
12.23533333
12.80933333
13.35666667
14.18933333
14.84666667
15.442
15.444
15.752
16.45
16.722
17.012
16.95466667
9.348666667
9.394
9.466
9.395333333
9.483333333
9.593333333
9.642666667
9.737333333
9.965333333
10.12533333
10.202
10.59266667
11.10066667
11.47733333
11.90933333
12.43133333
12.86133333
13.50333333
13.96333333
9.114
9.106666667
9.139333333
9.116
9.138666667
9.118
9.228
9.304666667
9.469333333
9.468
9.94
10.05666667
10.25866667
10.69866667
9.169333333
9.111333333
9.058666667
9.093333333
9.102
9.019333333
9.060666667
9.1
8.947333333
)
;

boundaryField
{
    flow
    {
        type            calculated;
        value           nonuniform List<scalar> 
15
(
12.91
11.68333333
11.982
12.49466667
12.49
12.736
13.26666667
13.82466667
13.95866667
14.21333333
14.70866667
15.32066667
15.514
15.67666667
15.93333333
)
;
    }
    obstacle
    {
        type            calculated;
        value           nonuniform List<scalar> 
30
(
27.50666667
27.23866667
26.406
26.41133333
25.44133333
25.03133333
25.45266667
25.25066667
25.95133333
25.50666667
24.676
24.332
23.008
23.85733333
23.57866667
22.856
21.82933333
21.75333333
21.974
21.462
20.696
21.61
21.05933333
20.62733333
19.39733333
18.768
18.03933333
17.27266667
15.47466667
12.91
)
;
    }
    frontAndBack
    {
        type            empty;
    }
    procBoundary1to0
    {
        type            processor;
        value           nonuniform List<scalar> 
21
(
27.57533333
24.428
23.158
21.242
19.58733333
17.65266667
16.09866667
14.37
13.10666667
11.80333333
11.37266667
10.52933333
10.23333333
9.786666667
9.589333333
9.418666667
9.333333333
9.286666667
9.138666667
9.145333333
9.070666667
)
;
    }
    procBoundary1to3
    {
        type            processor;
        value           nonuniform List<scalar> 
36
(
16.49866667
16.95866667
17.23866667
16.96933333
16.49866667
16.786
14.73066667
15.16066667
15.604
16.17
16.57333333
16.95866667
16.88533333
11.11866667
11.70066667
12.086
12.432
14.73066667
13.13
9.222
9.440666667
9.446
9.738666667
9.875333333
11.11866667
10.13733333
8.96
8.871333333
8.800666667
8.859333333
8.954666667
8.922666667
9.222
9.029333333
8.96
9.054666667
)
;
    }
}


// ************************************************************************* //
