/*--------------------------------*- C++ -*----------------------------------*\
| =========                 |                                                 |
| \\      /  F ield         | OpenFOAM: The Open Source CFD Toolbox           |
|  \\    /   O peration     | Version:  2406                                  |
|   \\  /    A nd           | Website:  www.openfoam.com                      |
|    \\/     M anipulation  |                                                 |
\*---------------------------------------------------------------------------*/
FoamFile
{
    version     2.0;
    format      ascii;
    arch        "LSB;label=32;scalar=64";
    class       volVectorField;
    location    "0.003";
    object      fD;
}
// * * * * * * * * * * * * * * * * * * * * * * * * * * * * * * * * * * * * * //

dimensions      [1 -1 -2 0 0 0 0];

internalField   uniform (0 0 0);

boundaryField
{
    flow
    {
        type            zeroGradient;
    }
    obstacle
    {
        type            calculated;
        value           nonuniform List<vector> 
30
(
(2.412472961 -5.051457806 -2.124637073)
(1.557711162 -1.945292724 0.7992672926)
(0.05109358696 -1.900742154 1.697859285)
(0.6156442635 -1.590768135 0.1538676677)
(0 0 0)
(-0.01153738135 -3.983422874 -0.0911324798)
(-0.783825 -1.44392658 0.6530115944)
(12.00021744 -11.64766046 3.965549313)
(0.215818398 -2.213819517 -2.230212222)
(7.537194965 -5.093540195 1.05114697)
(1.70277917 -3.942979572 -0.5197948595)
(0.5688566886 -1.759528472 -0.2452748562)
(4.82901009 -3.65991758 -0.6878042696)
(0.04609257928 -1.4148881 -0.5569459869)
(0 0 0)
(0 0 0)
(-1.127531286 -1.6777236 -1.40647617)
(7.290704772 -3.455994882 2.320113045)
(2.058235049 -5.148425655 -0.5382302887)
(1.611868283 -1.765966555 -0.1227078432)
(0.1968096732 -3.860771284 -1.767522657)
(0.6015014524 -2.206342623 1.205100095)
(4.094216527 -6.795420572 -0.6932591993)
(2.628794861 -3.084971993 -0.7396461497)
(0 0 0)
(3.791561245 -6.758259645 -1.68748892)
(0 0 0)
(2.341346908 -4.281224555 -0.8327713405)
(4.567610663 -7.554413795 0.2878196793)
(5.742005181 -8.001475492 -2.830333219)
)
;
    }
    frontAndBack
    {
        type            empty;
    }
    procBoundary1to0
    {
        type            processor;
        value           uniform (0 0 0);
    }
    procBoundary1to3
    {
        type            processor;
        value           uniform (0 0 0);
    }
}


// ************************************************************************* //
