/*--------------------------------*- C++ -*----------------------------------*\
| =========                 |                                                 |
| \\      /  F ield         | OpenFOAM: The Open Source CFD Toolbox           |
|  \\    /   O peration     | Version:  2406                                  |
|   \\  /    A nd           | Website:  www.openfoam.com                      |
|    \\/     M anipulation  |                                                 |
\*---------------------------------------------------------------------------*/
FoamFile
{
    version     2.0;
    format      ascii;
    arch        "LSB;label=32;scalar=64";
    class       volVectorField;
    location    "0.003";
    object      fDMean;
}
// * * * * * * * * * * * * * * * * * * * * * * * * * * * * * * * * * * * * * //

dimensions      [1 -1 -2 0 0 0 0];

internalField   uniform (0 0 0);

boundaryField
{
    flow
    {
        type            calculated;
        value           uniform (0 0 0);
    }
    obstacle
    {
        type            calculated;
        value           nonuniform List<vector> 
30
(
(2.417454334 -2.738216531 -0.01359622025)
(2.474945879 -2.797601334 -0.00921304943)
(2.159261344 -2.632239732 -0.0006355848833)
(2.253884794 -2.694586709 0.075870461)
(2.099233407 -2.64032872 -0.0045733956)
(2.088786927 -2.530951304 0.004516888954)
(2.060860021 -2.61888803 -0.004564691808)
(2.080385411 -2.667261775 -0.01043541111)
(1.95861602 -2.644230193 -0.02665351178)
(1.946501595 -2.626046868 0.05035146518)
(1.943058824 -2.565707404 -0.007142797993)
(1.964506569 -2.611928609 -0.08877993707)
(1.837755125 -2.462053482 -0.02286595473)
(1.762116811 -2.534451568 0.01513033381)
(1.866050443 -2.571023974 -0.06560714732)
(1.774836912 -2.495729697 -0.04259216063)
(1.779438216 -2.499613523 -0.03986165967)
(1.635654185 -2.298133778 0.008388401127)
(1.668416683 -2.386266155 -0.007138745567)
(1.68576552 -2.382814428 0.005596743158)
(1.662113463 -2.305969098 -0.02483392982)
(1.610887916 -2.36660303 0.02378559503)
(1.72450589 -2.378165164 -0.02093070997)
(1.674680869 -2.39088855 0.02138480426)
(1.616302334 -2.211792336 0.02561491362)
(1.58468138 -2.220350536 0.01985492917)
(1.591585867 -2.023359436 -0.01068798166)
(1.604268963 -1.991194106 -0.0126355229)
(1.466543457 -1.791046256 0.0001861903189)
(1.583713372 -1.621271338 0.02838158868)
)
;
    }
    frontAndBack
    {
        type            empty;
    }
    procBoundary1to0
    {
        type            processor;
        value           uniform (0 0 0);
    }
    procBoundary1to3
    {
        type            processor;
        value           uniform (0 0 0);
    }
}


// ************************************************************************* //
