/*--------------------------------*- C++ -*----------------------------------*\
| =========                 |                                                 |
| \\      /  F ield         | OpenFOAM: The Open Source CFD Toolbox           |
|  \\    /   O peration     | Version:  2406                                  |
|   \\  /    A nd           | Website:  www.openfoam.com                      |
|    \\/     M anipulation  |                                                 |
\*---------------------------------------------------------------------------*/
FoamFile
{
    version     2.0;
    format      ascii;
    arch        "LSB;label=32;scalar=64";
    class       volScalarField;
    location    "0.003";
    object      iDof;
}
// * * * * * * * * * * * * * * * * * * * * * * * * * * * * * * * * * * * * * //

dimensions      [0 -3 0 0 0 0 0];

internalField   nonuniform List<scalar> 
546
(
8.300543781e+20
7.457851555e+20
4.781209153e+20
7.56963733e+20
6.240106125e+20
5.12321681e+20
6.570449336e+20
7.803572925e+20
6.196141688e+20
8.406414616e+20
6.778323746e+20
5.612298956e+20
6.887272748e+20
7.439004912e+20
6.749789075e+20
5.545119881e+20
6.099451403e+20
6.150522273e+20
4.910277345e+20
6.2552734e+20
7.88624812e+20
6.893958983e+20
7.221673868e+20
6.475857408e+20
3.811182575e+20
6.317417734e+20
4.988836633e+20
3.356283637e+20
5.080855163e+20
4.27345769e+20
5.159797489e+20
8.587829063e+20
6.147268911e+20
5.046424887e+20
6.008991083e+20
6.753331254e+20
7.509084955e+20
5.675325763e+20
7.626020538e+20
6.244765139e+20
6.536240755e+20
6.34433795e+20
7.871168848e+20
5.207303434e+20
6.74978907e+20
5.545119881e+20
7.370170446e+20
6.406794029e+20
4.651841692e+20
7.819091756e+20
2.891624313e+20
4.50758857e+20
6.686735069e+20
5.666375232e+20
3.538955248e+20
4.944066057e+20
5.265994228e+20
6.153186673e+20
3.951776238e+20
1.424485897e+20
5.159797486e+20
5.197896538e+20
5.236562406e+20
4.587658988e+20
5.08453092e+20
5.12321681e+20
5.397154808e+20
5.91179767e+20
5.719515408e+20
5.524215319e+20
5.567908787e+20
4.392233965e+20
3.443636371e+20
5.455270264e+20
6.249804699e+20
5.293068977e+20
6.353595212e+20
4.612891701e+20
6.977762543e+20
5.734000621e+20
4.994623805e+20
3.71213176e+20
4.814449249e+20
3.507756096e+20
4.900091882e+20
5.493406725e+20
3.88020627e+20
2.237522425e+20
2.25815785e+20
4.558354873e+20
6.281492591e+20
5.875883039e+20
3.642826021e+20
4.817041941e+20
6.008991083e+20
6.054710775e+20
6.335790431e+20
4.965910043e+20
6.196141688e+20
3.842932396e+20
4.115410846e+20
5.124272955e+20
6.887272742e+20
4.215436117e+20
4.499859384e+20
5.293068977e+20
4.574588552e+20
5.125435223e+20
3.359663444e+20
4.952091446e+20
3.154499251e+20
5.037893108e+20
5.081918648e+20
4.047410877e+20
3.266727921e+20
5.493406725e+20
3.048733501e+20
6.992257589e+20
3.951776241e+20
5.413046392e+20
3.140746296e+20
2.711946018e+20
4.781209149e+20
4.587658984e+20
5.315645958e+20
3.958849356e+20
4.458519192e+20
4.492966229e+20
3.098070844e+20
5.76439859e+20
4.599576827e+20
5.61229896e+20
5.165454561e+20
5.455270269e+20
4.249867196e+20
3.780763555e+20
6.353595217e+20
4.612891708e+20
6.460891244e+20
4.952091441e+20
7.097623302e+20
5.568197636e+20
6.151796258e+20
4.04741088e+20
2.9945006e+20
4.120055037e+20
7.483254923e+20
3.076593345e+20
4.798585436e+20
1.13958872e+20
2.916407279e+20
3.163937025e+20
3.187472771e+20
3.670127193e+20
4.853415878e+20
3.958849356e+20
6.335790431e+20
4.965910043e+20
3.574697127e+20
4.323298942e+20
6.294157759e+20
6.588350943e+20
5.411428579e+20
4.46340294e+20
3.499890629e+20
6.301272592e+20
5.337019978e+20
3.587804656e+20
5.944019944e+20
2.606363921e+20
5.257498751e+20
4.242436308e+20
5.616857486e+20
5.936202624e+20
4.083409873e+20
4.39472538e+20
4.157363883e+20
2.237522429e+20
5.64539461e+20
2.564074597e+20
4.486780422e+20
3.841923525e+20
1.138383131e+20
3.440744238e+20
3.466725625e+20
3.958849356e+20
5.397154812e+20
4.729438136e+20
4.289636553e+20
4.323298946e+20
4.841659822e+20
6.832363951e+20
5.657402614e+20
3.967469286e+20
5.499828131e+20
3.024610842e+20
3.558013319e+20
4.612891701e+20
3.618099108e+20
5.212727877e+20
4.468873968e+20
5.568197674e+20
3.477102242e+20
4.85689309e+20
4.355637281e+20
4.669395758e+20
4.157363883e+20
5.034425464e+20
4.234045996e+20
2.564074644e+20
4.935458465e+20
2.71194602e+20
3.642826024e+20
4.587658991e+20
3.466725625e+20
6.054710775e+20
6.101131526e+20
4.965910043e+20
5.95782855e+20
3.842932396e+20
3.14707888e+20
5.612298951e+20
5.411428583e+20
5.455270269e+20
4.499859394e+20
6.805374416e+20
5.082876161e+20
4.612891678e+20
5.168712969e+20
5.994636988e+20
3.154499224e+20
6.09850211e+20
3.744571613e+20
3.777583482e+20
5.172319181e+20
4.669395676e+20
4.988836571e+20
4.475044817e+20
3.669506496e+20
3.703663307e+20
2.692068255e+20
4.06791903e+20
3.642826019e+20
3.211361291e+20
4.160070753e+20
4.191722847e+20
6.335790431e+20
4.965910043e+20
6.196141688e+20
5.043848766e+20
5.083742797e+20
3.660194974e+20
2.951688323e+20
4.959336616e+20
5.749820328e+20
5.041018041e+20
4.066300929e+20
5.381707002e+20
3.359663444e+20
3.909545862e+20
7.097623314e+20
5.037893133e+20
4.012041048e+20
4.317238265e+20
4.627864531e+20
5.218736389e+20
3.603048699e+20
5.314115768e+20
5.92766434e+20
4.843252062e+20
2.01905119e+20
1.58196851e+20
3.187472769e+20
2.523212443e+20
3.697840667e+20
3.027355387e+20
2.346589045e+20
5.438853865e+20
3.098070841e+20
5.524215298e+20
5.083742829e+20
4.880259958e+20
6.149350638e+20
4.215436117e+20
6.749789054e+20
4.536916273e+20
4.320444772e+20
3.331532906e+20
8.269940785e+20
7.558455396e+20
6.834748376e+20
5.03789309e+20
5.349388064e+20
5.126720439e+20
5.172319226e+20
3.021373699e+20
4.434521436e+20
4.754735161e+20
5.64539461e+20
4.843252017e+20
3.813763359e+20
1.807964008e+20
3.41514938e+20
3.670127182e+20
2.542265458e+20
2.561608411e+20
3.9892014e+20
6.384741513e+20
4.051323417e+20
5.764398581e+20
4.599576803e+20
3.660194968e+20
6.149350687e+20
4.711369778e+20
4.749851594e+20
4.788967178e+20
4.066300896e+20
4.100348158e+20
3.876534743e+20
4.430818643e+20
4.468873938e+20
3.712131782e+20
4.546979854e+20
6.475857397e+20
6.261228483e+20
3.570714372e+20
2.49441833e+20
3.076593339e+20
5.080855195e+20
3.703663375e+20
2.243390219e+20
1.355973016e+20
3.187472785e+20
2.293829499e+20
1.61780529e+20
3.027355376e+20
2.581247934e+20
3.547078565e+20
2.383131404e+20
4.083115693e+20
5.809991841e+20
4.880259996e+20
3.93558444e+20
5.207303438e+20
2.999906246e+20
5.797170794e+20
5.082876202e+20
3.84407643e+20
5.944019939e+20
7.297818942e+20
3.94312403e+20
3.446979454e+20
4.814449175e+20
4.317238265e+20
4.355637281e+20
3.021373726e+20
4.157363883e+20
5.034425464e+20
5.363124879e+20
3.988560485e+20
3.589424328e+20
1.581968501e+20
2.504442884e+20
2.064446549e+20
4.391185788e+20
2.794481907e+20
3.989201412e+20
2.128247171e+20
3.098070848e+20
3.362565839e+20
3.631244844e+20
5.368285911e+20
3.689610383e+20
5.207303438e+20
3.749882808e+20
3.780763531e+20
4.320444737e+20
3.331532906e+20
4.651841692e+20
5.994637038e+20
7.886248193e+20
4.242436323e+20
5.081918661e+20
6.745684789e+20
3.538955229e+20
4.944066009e+20
3.048733487e+20
4.475044857e+20
5.92766434e+20
3.988560485e+20
2.916407266e+20
2.937941524e+20
2.276766258e+20
1.605680637e+20
4.160070747e+20
2.328734905e+20
2.111930128e+20
2.364719061e+20
5.48120227e+20
3.842932387e+20
3.631244844e+20
4.148220964e+20
4.673506485e+20
2.975601941e+20
4.499859369e+20
4.284865369e+20
5.591163777e+20
6.406793997e+20
3.359663444e+20
4.691455034e+20
4.731748836e+20
6.628806698e+20
6.151796274e+20
8.364649138e+20
3.811182555e+20
3.845384708e+20
6.374624564e+20
5.873496322e+20
6.209934071e+20
5.128149242e+20
2.467729243e+20
2.259955035e+20
2.276766275e+20
2.293829499e+20
2.311150432e+20
2.328734922e+20
2.111930144e+20
3.31060671e+20
3.813010275e+20
3.362565839e+20
2.178746923e+20
2.928155997e+20
2.705714302e+20
3.719502456e+20
3.249898459e+20
4.536916273e+20
3.812157121e+20
6.40679405e+20
5.427148685e+20
4.691455073e+20
8.149123064e+20
3.712131782e+20
4.279510451e+20
5.936202614e+20
4.900091899e+20
3.296044064e+20
6.374624621e+20
6.153186678e+20
6.209934127e+20
4.273457701e+20
2.692068246e+20
1.129977501e+20
2.049089632e+20
2.064446549e+20
3.235610581e+20
1.862987938e+20
2.11193016e+20
2.601190987e+20
1.906505152e+20
3.122382589e+20
2.662912886e+20
4.392233927e+20
2.21376623e+20
4.215436117e+20
3.49989062e+20
4.284865369e+20
4.320444772e+20
3.587804668e+20
3.876534743e+20
4.43081868e+20
5.257498795e+20
6.363654484e+20
5.081918661e+20
5.666375222e+20
4.627864531e+20
4.944066009e+20
4.434521436e+20
4.195354554e+20
7.621282723e+20
2.692068246e+20
2.259955018e+20
1.593736392e+20
2.752595399e+20
2.311150415e+20
1.862987924e+20
2.111930128e+20
1.891775234e+20
1.906505123e+20
3.602749141e+20
3.147078914e+20
3.172168997e+20
2.213766247e+20
2.727635134e+20
2.249929685e+20
3.024610825e+20
5.082876161e+20
4.100348192e+20
5.68558429e+20
4.691455034e+20
4.731748836e+20
3.977283985e+20
3.209632811e+20
5.666375271e+20
3.538955291e+20
2.019051199e+20
2.259955018e+20
2.73211949e+20
1.605680637e+20
2.080035373e+20
3.027355399e+20
2.346589066e+20
2.364719079e+20
3.574697133e+20
3.122382565e+20
1.936663917e+20
9.760519915e+19
2.95168833e+20
2.975601965e+20
2.99990627e+20
2.520509061e+20
4.066300929e+20
4.100348158e+20
2.325920846e+20
1.570373155e+20
2.259955018e+20
1.593736392e+20
1.605680649e+20
2.080035373e+20
2.794481886e+20
2.346589031e+20
1.891775249e+20
2.383131422e+20
3.602749113e+20
1.69458094e+20
2.196116981e+20
1.475844153e+20
1.983734643e+20
2.692068246e+20
1.581968501e+20
2.959796136e+20
2.981978349e+20
1.848920346e+20
1.630114445e+20
2.346589049e+20
1.182359539e+20
2.692068265e+20
)
;

boundaryField
{
    flow
    {
        type            zeroGradient;
    }
    obstacle
    {
        type            calculated;
        value           nonuniform List<scalar> 
30
(
169.4777316
93.03783715
123.6092214
127.5733901
1e-300
254.5732931
179.3887608
796.6601299
96.72203733
413.8053704
224.5172579
157.8701269
622.8802738
249.9147147
1e-300
1e-300
161.2797229
2611.47405
583.8855724
114.4746
279.24768
108.618264
363.0294996
625.5754809
1e-300
325.1057531
1e-300
211.8407025
288.3656818
718.7752524
)
;
    }
    frontAndBack
    {
        type            empty;
    }
    procBoundary1to0
    {
        type            processor;
        value           nonuniform List<scalar> 
21
(
4.231426294e+20
4.454132941e+20
9.13097253e+20
3.340599706e+20
4.00871965e+20
4.231426297e+20
3.340599706e+20
3.117893059e+20
3.563306353e+20
2.227066471e+20
3.117893059e+20
2.895186424e+20
1.781653177e+20
1.781653164e+20
2.449773118e+20
2.004359824e+20
2.004359824e+20
1.55894653e+20
2.004359838e+20
1.781653177e+20
1.55894653e+20
)
;
    }
    procBoundary1to3
    {
        type            processor;
        value           nonuniform List<scalar> 
36
(
5.697943602e+20
3.845384742e+20
3.325891106e+20
5.593806071e+20
5.697943602e+20
3.951776227e+20
2.867000299e+20
6.571873439e+20
5.037893133e+20
4.279510451e+20
5.396547831e+20
3.845384742e+20
4.627864531e+20
3.49989062e+20
3.024610825e+20
2.287294272e+20
2.050174096e+20
2.867000299e+20
4.134970393e+20
2.859757706e+20
3.122382565e+20
3.147078865e+20
1.708090985e+20
2.95168833e+20
3.49989062e+20
2.231701474e+20
1.355973021e+20
2.049089647e+20
2.064446549e+20
6.933451245e+19
2.561608414e+20
3.519883599e+20
2.859757706e+20
2.364719079e+20
1.355973021e+20
8.973560819e+19
)
;
    }
}


// ************************************************************************* //
