/*--------------------------------*- C++ -*----------------------------------*\
| =========                 |                                                 |
| \\      /  F ield         | OpenFOAM: The Open Source CFD Toolbox           |
|  \\    /   O peration     | Version:  2406                                  |
|   \\  /    A nd           | Website:  www.openfoam.com                      |
|    \\/     M anipulation  |                                                 |
\*---------------------------------------------------------------------------*/
FoamFile
{
    version     2.0;
    format      ascii;
    arch        "LSB;label=32;scalar=64";
    class       volScalarField;
    location    "0.003";
    object      iDofMean;
}
// * * * * * * * * * * * * * * * * * * * * * * * * * * * * * * * * * * * * * //

dimensions      [0 -3 0 0 0 0 0];

internalField   nonuniform List<scalar> 
546
(
6.170818674e+20
6.155816138e+20
6.012028995e+20
6.058309537e+20
5.879874813e+20
5.829133986e+20
5.972694886e+20
5.971073295e+20
6.184543781e+20
6.126274728e+20
5.973639884e+20
5.937324269e+20
5.659370406e+20
5.915827328e+20
5.894482469e+20
5.760875454e+20
5.54778991e+20
5.574765049e+20
5.678864968e+20
5.593778238e+20
5.440459703e+20
5.729940524e+20
5.632727304e+20
5.565819557e+20
5.2804842e+20
5.155012871e+20
4.999738165e+20
4.830997375e+20
4.368030001e+20
3.678022585e+20
5.500643242e+20
5.427507968e+20
5.395632475e+20
5.489286901e+20
5.38035817e+20
5.417879405e+20
5.408105561e+20
5.398968928e+20
5.332335986e+20
5.389712681e+20
5.363106581e+20
5.31801928e+20
5.252365379e+20
5.425183622e+20
5.406831037e+20
5.371372791e+20
5.256371676e+20
5.230848341e+20
5.128052448e+20
5.087448612e+20
4.96851157e+20
5.052918403e+20
5.032525969e+20
4.867506267e+20
4.772326523e+20
4.85672089e+20
4.645900312e+20
4.354591562e+20
4.021214591e+20
3.328548712e+20
5.144392873e+20
5.231946527e+20
5.11543844e+20
5.111416722e+20
5.032761151e+20
4.933657788e+20
4.996357398e+20
4.970008889e+20
5.04636022e+20
4.997093092e+20
5.092941959e+20
5.052207787e+20
5.070180617e+20
5.033891964e+20
4.988177457e+20
4.915160656e+20
4.936997623e+20
4.80919587e+20
4.887362718e+20
4.894925197e+20
4.788705104e+20
4.760897367e+20
4.892193689e+20
4.645168496e+20
4.541296265e+20
4.512284284e+20
4.385926487e+20
4.257632253e+20
3.793705188e+20
3.413638006e+20
4.7624183e+20
4.89536389e+20
4.985662763e+20
4.940449968e+20
4.946940428e+20
4.880096885e+20
4.834599197e+20
4.926655706e+20
4.947380824e+20
4.929681653e+20
4.95350216e+20
4.946306142e+20
4.985237586e+20
5.000829724e+20
4.795183488e+20
4.753175941e+20
4.696069293e+20
4.74034419e+20
4.785539068e+20
4.826638462e+20
4.637113898e+20
4.542058365e+20
4.562136442e+20
4.492266303e+20
4.536759143e+20
4.340340654e+20
4.221479654e+20
4.079189847e+20
3.831905695e+20
3.55969528e+20
4.491416762e+20
4.612417522e+20
4.749486206e+20
4.817806543e+20
4.890240205e+20
4.849047089e+20
4.801434072e+20
4.85303412e+20
4.965333748e+20
4.862110088e+20
4.845533146e+20
4.91913937e+20
4.913249192e+20
4.907759507e+20
4.826349181e+20
4.817028837e+20
4.756386094e+20
4.841315272e+20
4.675790066e+20
4.643497954e+20
4.601012399e+20
4.471351086e+20
4.426796925e+20
4.423190495e+20
4.361444752e+20
4.308845114e+20
4.32790815e+20
4.109582868e+20
3.866342602e+20
3.558365779e+20
4.109292635e+20
4.273122948e+20
4.439238863e+20
4.502175612e+20
4.594412955e+20
4.73928605e+20
4.719772773e+20
4.746148818e+20
4.828383129e+20
4.816315144e+20
4.794372937e+20
4.810960266e+20
4.798625288e+20
4.828906048e+20
4.875514307e+20
4.897685126e+20
4.691325275e+20
4.765458823e+20
4.724203677e+20
4.683288451e+20
4.636062399e+20
4.459507633e+20
4.447124626e+20
4.492626077e+20
4.469791189e+20
4.308112668e+20
4.185818729e+20
4.131212244e+20
3.968900591e+20
3.628450453e+20
3.746461653e+20
4.009160196e+20
4.141741399e+20
4.335949428e+20
4.415529909e+20
4.604529923e+20
4.611829677e+20
4.665906017e+20
4.684918617e+20
4.81135136e+20
4.827619009e+20
4.82120882e+20
4.858970923e+20
4.884615936e+20
4.788850349e+20
4.738052883e+20
4.71792566e+20
4.64620703e+20
4.670793659e+20
4.622125808e+20
4.594528189e+20
4.574760501e+20
4.525403989e+20
4.493705418e+20
4.498465887e+20
4.442334944e+20
4.266009659e+20
4.187709685e+20
3.997880319e+20
3.779635957e+20
3.429694955e+20
3.586699275e+20
3.818137026e+20
4.031023034e+20
4.144354927e+20
4.288598217e+20
4.458049874e+20
4.57856906e+20
4.607387412e+20
4.617443396e+20
4.695118911e+20
4.701317092e+20
4.728112737e+20
4.744927955e+20
4.86484799e+20
4.857525027e+20
4.821955185e+20
4.758795733e+20
4.72265304e+20
4.752965222e+20
4.711244591e+20
4.603750405e+20
4.589061668e+20
4.525185241e+20
4.442568465e+20
4.417431423e+20
4.35562387e+20
4.18938779e+20
4.098180127e+20
3.938608513e+20
3.091242154e+20
3.297274369e+20
3.480264908e+20
3.6444363e+20
3.919248879e+20
4.085066788e+20
4.175207674e+20
4.311040509e+20
4.423568539e+20
4.465327319e+20
4.541799676e+20
4.66227502e+20
4.704171273e+20
4.761128462e+20
4.801016643e+20
4.865254545e+20
4.798573954e+20
4.819788452e+20
4.854627531e+20
4.777117528e+20
4.753129371e+20
4.662083982e+20
4.586030387e+20
4.537777186e+20
4.505543719e+20
4.464857873e+20
4.432304214e+20
4.314502623e+20
4.158962209e+20
3.976784771e+20
2.765352334e+20
2.935380237e+20
3.133285732e+20
3.310148882e+20
3.492302356e+20
3.650214352e+20
3.892991226e+20
4.036102512e+20
4.226880756e+20
4.347317256e+20
4.394936023e+20
4.483494823e+20
4.588071507e+20
4.692854921e+20
4.733685395e+20
4.779557277e+20
4.789933104e+20
4.771267665e+20
4.707146921e+20
4.732114351e+20
4.784849613e+20
4.754180164e+20
4.709601252e+20
4.543713389e+20
4.577774743e+20
4.525102233e+20
4.420478785e+20
4.386289801e+20
4.211276199e+20
4.049338549e+20
2.625065666e+20
2.73650419e+20
2.882689646e+20
2.994517937e+20
3.189387575e+20
3.351825793e+20
3.546634704e+20
3.780397567e+20
3.940904995e+20
4.164777975e+20
4.291163074e+20
4.378731909e+20
4.440159161e+20
4.524568099e+20
4.594856437e+20
4.633199719e+20
4.699966119e+20
4.803557867e+20
4.765036506e+20
4.769472194e+20
4.783973363e+20
4.766553977e+20
4.721904844e+20
4.670532263e+20
4.494473141e+20
4.469801939e+20
4.479236233e+20
4.507675392e+20
4.401149678e+20
4.190457694e+20
2.462943342e+20
2.557967762e+20
2.682941378e+20
2.813611263e+20
2.939937404e+20
3.088368231e+20
3.295080317e+20
3.435463826e+20
3.600117174e+20
3.738692875e+20
3.887207319e+20
4.035649666e+20
4.246331628e+20
4.341733889e+20
4.427194973e+20
4.564641873e+20
4.588142919e+20
4.686356288e+20
4.773306447e+20
4.776770013e+20
4.730171586e+20
4.797665095e+20
4.725649335e+20
4.700393161e+20
4.719877449e+20
4.666099714e+20
4.563492141e+20
4.450805031e+20
4.382331656e+20
4.364814691e+20
2.3041113e+20
2.386211155e+20
2.513549949e+20
2.600896808e+20
2.738251012e+20
2.882352838e+20
3.014741193e+20
3.131991596e+20
3.285226103e+20
3.417007381e+20
3.630599289e+20
3.849223674e+20
4.024463023e+20
4.207666489e+20
4.313865182e+20
4.387366035e+20
4.505461429e+20
4.5349851e+20
4.654426048e+20
4.720125077e+20
4.703884172e+20
4.806150049e+20
4.785205936e+20
4.795912057e+20
4.735666552e+20
4.663719155e+20
4.620771336e+20
4.561935311e+20
4.562419744e+20
4.419894812e+20
2.21931115e+20
2.282253241e+20
2.330194373e+20
2.450268653e+20
2.543343993e+20
2.642493121e+20
2.744570531e+20
2.902456175e+20
3.038174812e+20
3.232226382e+20
3.421923752e+20
3.537537768e+20
3.705188738e+20
3.859851651e+20
4.047206849e+20
4.179340058e+20
4.351450281e+20
4.479117819e+20
4.469041542e+20
4.53576823e+20
4.598734119e+20
4.658725347e+20
4.822295027e+20
4.837285591e+20
4.758715132e+20
4.695397842e+20
4.693756168e+20
4.659640416e+20
4.519702925e+20
4.466238127e+20
2.18850194e+20
2.233438229e+20
2.278284119e+20
2.292147357e+20
2.350285913e+20
2.455107604e+20
2.595014609e+20
2.730777592e+20
2.862458589e+20
2.964181848e+20
3.082200648e+20
3.20307731e+20
3.395261493e+20
3.605768336e+20
3.812047562e+20
4.02575704e+20
4.171855324e+20
4.281105208e+20
4.419421934e+20
4.53420445e+20
4.640794147e+20
4.703447736e+20
4.758637309e+20
4.782960343e+20
4.81878667e+20
4.78787023e+20
4.763784695e+20
4.736834981e+20
4.649547043e+20
4.539361736e+20
2.101458384e+20
2.103566116e+20
2.152606605e+20
2.185254903e+20
2.278178002e+20
2.33836036e+20
2.427468169e+20
2.527254104e+20
2.643687144e+20
2.744494234e+20
2.899508661e+20
3.094247464e+20
3.215372462e+20
3.390367816e+20
3.533556235e+20
3.681623539e+20
3.865696781e+20
4.028762946e+20
4.185451489e+20
4.35349655e+20
4.439431983e+20
4.516073466e+20
4.576044863e+20
4.709927062e+20
4.775774711e+20
4.760403113e+20
4.755839468e+20
4.770770738e+20
4.766594849e+20
2.086951128e+20
2.122248426e+20
2.146231675e+20
2.229908117e+20
2.229027537e+20
2.279831472e+20
2.331414422e+20
2.415324031e+20
2.480680916e+20
2.610952333e+20
2.718914793e+20
2.801919939e+20
2.889702875e+20
3.033956826e+20
3.202233256e+20
3.366559882e+20
3.606131207e+20
3.804781426e+20
3.9907633e+20
4.025268419e+20
4.140805981e+20
4.36175477e+20
4.472623322e+20
4.590303625e+20
4.615523639e+20
2.097270738e+20
2.123001744e+20
2.155186924e+20
2.155129259e+20
2.191740977e+20
2.234033035e+20
2.262737617e+20
2.302605791e+20
2.3748699e+20
2.431935712e+20
2.46973066e+20
2.584748349e+20
2.730475688e+20
2.845997968e+20
2.977240312e+20
3.133328831e+20
3.26862823e+20
3.460522998e+20
3.60862312e+20
2.044625847e+20
2.058065703e+20
2.080812591e+20
2.091054971e+20
2.112083326e+20
2.123340486e+20
2.165432358e+20
2.200292262e+20
2.256666581e+20
2.27405524e+20
2.406304935e+20
2.453957382e+20
2.523365537e+20
2.652914463e+20
2.057039258e+20
2.059120334e+20
2.062446661e+20
2.085855624e+20
2.103609123e+20
2.100363651e+20
2.126166117e+20
2.151894362e+20
2.00723601e+20
)
;

boundaryField
{
    flow
    {
        type            calculated;
        value           nonuniform List<scalar> 
15
(
3.678022585e+20
3.328548712e+20
3.413638006e+20
3.55969528e+20
3.558365779e+20
3.628450453e+20
3.779635957e+20
3.938608513e+20
3.976784771e+20
4.049338549e+20
4.190457694e+20
4.364814691e+20
4.419894812e+20
4.466238127e+20
4.539361736e+20
)
;
    }
    obstacle
    {
        type            calculated;
        value           nonuniform List<scalar> 
30
(
269.7116588
271.2648485
261.4070748
277.9588204
264.2150937
259.8120409
266.2166459
246.9208278
280.08825
259.412586
265.6832478
269.5014571
246.5280482
270.9213615
266.1464079
248.8133707
245.0564555
235.5289317
245.6408121
271.461366
237.4170259
238.9170398
260.9412421
248.7602732
233.7316373
217.7919483
212.6025372
226.6165662
183.4428836
170.7437122
)
;
    }
    frontAndBack
    {
        type            empty;
    }
    procBoundary1to0
    {
        type            processor;
        value           nonuniform List<scalar> 
21
(
6.141210029e+20
5.440277975e+20
5.157440533e+20
4.730734597e+20
4.362229335e+20
3.931366208e+20
3.585280076e+20
3.200294518e+20
2.918941788e+20
2.628680791e+20
2.532768462e+20
2.344952533e+20
2.279031355e+20
2.179555704e+20
2.135608274e+20
2.097599673e+20
2.078595373e+20
2.068202396e+20
2.035241827e+20
2.036726523e+20
2.02009776e+20
)
;
    }
    procBoundary1to3
    {
        type            processor;
        value           nonuniform List<scalar> 
36
(
4.700423609e+20
4.658042717e+20
4.777827346e+20
4.746157991e+20
4.700423609e+20
4.738179696e+20
3.839347794e+20
3.985359303e+20
4.137436024e+20
4.32498025e+20
4.471939303e+20
4.658042717e+20
4.596649131e+20
2.779579798e+20
2.949163588e+20
3.071582064e+20
3.185970545e+20
3.839347794e+20
3.393260078e+20
2.197723797e+20
2.267490231e+20
2.28671592e+20
2.376361249e+20
2.429075513e+20
2.779579798e+20
2.513722415e+20
2.024919711e+20
2.019795255e+20
2.018722881e+20
2.047525191e+20
2.085304498e+20
2.093783204e+20
2.197723797e+20
2.13518368e+20
2.024919711e+20
2.031315051e+20
)
;
    }
}


// ************************************************************************* //
