/*--------------------------------*- C++ -*----------------------------------*\
| =========                 |                                                 |
| \\      /  F ield         | OpenFOAM: The Open Source CFD Toolbox           |
|  \\    /   O peration     | Version:  2406                                  |
|   \\  /    A nd           | Website:  www.openfoam.com                      |
|    \\/     M anipulation  |                                                 |
\*---------------------------------------------------------------------------*/
FoamFile
{
    version     2.0;
    format      ascii;
    arch        "LSB;label=32;scalar=64";
    class       volScalarField;
    location    "0.003";
    object      internalT;
}
// * * * * * * * * * * * * * * * * * * * * * * * * * * * * * * * * * * * * * //

dimensions      [1 2 -2 0 0 0 0];

internalField   nonuniform List<scalar> 
546
(
699.0577753
695.8463168
699.7580713
690.3506365
710.4937864
703.0282227
725.5670788
702.1681907
697.6283018
680.1351641
687.8499849
687.0604649
692.8775733
698.4655182
698.9137923
701.1092884
673.6774576
675.4277126
690.4869486
684.4053167
675.9326703
680.4250044
664.6335494
674.9638593
672.8085141
678.4200723
671.2069092
673.986383
665.8993845
664.7176842
753.1449343
762.4155722
764.7290611
760.5543909
781.8900734
789.0083157
776.1900409
770.1464668
770.4060077
776.3501175
767.8335733
763.8663033
759.3392074
774.2851463
775.0976672
773.9763949
755.2046225
740.1934374
738.6147399
738.9447982
743.3713349
741.2497466
754.5678472
736.719076
748.0703129
734.9001676
728.7219274
737.3978913
734.8175253
733.0807349
774.6538854
767.0712991
781.0092963
790.8086063
805.5592609
806.9003936
804.504997
803.9002173
804.184653
810.9807178
800.1743465
786.4548948
785.2443829
805.3409744
805.5456712
814.802635
807.6230398
781.6844351
780.7791523
786.1992363
793.7061518
791.5861557
766.8518139
778.0621731
773.8186848
748.312442
760.3490254
764.3902131
750.2832867
765.7871234
721.15944
749.3482166
767.576975
772.3073298
775.9750115
786.9183661
793.7735875
780.2867035
797.142107
814.6072509
824.3474759
838.1044636
828.5442895
815.9193407
794.222134
813.8784131
801.5384647
795.0231931
801.1362384
808.5127365
815.5953562
805.5959527
794.0131338
793.4295739
811.22172
790.498111
794.4532228
766.3567413
748.469913
745.1417225
672.8556493
706.7771532
716.6519303
729.3210183
746.0859777
756.1504667
757.003379
781.104381
785.7218004
790.6986504
815.107536
805.9316978
817.0901366
794.8095174
813.8057147
805.8205737
809.5186337
811.3668878
821.3628582
812.8184956
813.1903878
807.2493957
800.3060606
807.4366057
801.6579651
792.525687
788.6554081
788.4025265
788.0707928
768.1491706
629.0582255
648.4329205
675.0270398
699.4435469
709.4878079
742.0191896
744.9503016
760.6158198
766.2089767
785.8369284
782.2700673
771.8706001
778.0864525
791.0516408
799.8013213
806.0183497
829.407761
809.270917
801.546077
802.3198787
802.042278
804.5016962
816.7106594
819.6330559
808.0818785
804.2777256
800.0538187
803.6363665
789.0333173
771.248631
589.1640121
609.9919145
639.3125574
663.2805754
692.2078477
708.2935982
710.0035402
716.1265743
727.8047985
735.8665772
754.8162862
784.982761
776.3225847
783.9669707
788.5950826
802.9959833
803.1935117
802.79062
799.2404657
805.3354122
819.6634026
807.798301
807.9234304
801.5945878
812.3061483
804.0400529
788.8477145
795.9549117
797.2914204
785.073596
540.7347741
569.3302538
597.5955672
614.3511892
627.2976017
656.2385933
679.5139052
689.6671736
693.4516393
709.9045756
725.7738826
729.4606106
744.9408508
765.4735637
776.6232877
769.9270384
792.2275016
805.0079221
804.1855565
810.1572894
801.0323461
784.7000851
782.0384092
792.3049838
800.9681751
794.6782962
788.5412494
794.2687121
794.7192321
785.7249344
500.1986541
517.9323704
535.7190771
565.2915554
590.9685376
605.7811222
624.5126263
648.7735124
667.14171
674.9975747
684.6694452
700.2202734
713.4698178
738.5132538
756.8121319
755.3447454
766.2803748
766.9197063
769.4717314
788.1577888
797.4302825
791.2607873
791.5180438
776.984015
777.5524124
790.1816471
790.7580527
789.0615991
786.5510316
779.0814072
446.3948487
472.1648485
501.8706044
522.7259056
551.9334252
571.7727873
591.546837
612.4150411
643.0203991
643.6352743
654.8437425
667.2613624
673.0232995
689.9962746
705.8278914
728.6644538
739.5149009
747.9658859
768.0597659
767.8857944
753.5674181
778.6121919
777.242778
785.4823049
771.712911
770.6088704
767.1594964
777.9040037
770.9408106
764.9655327
420.0821975
437.7787207
466.6447567
488.2028565
503.1194436
517.0384889
536.3928098
555.2021788
570.4481712
605.6302916
610.4068683
636.1286031
650.9576606
660.2464023
679.5680285
688.2668364
704.0762023
719.216097
723.3482893
731.2998747
751.3608743
746.3143429
757.6426405
764.7482988
765.6006225
767.2991576
758.0394731
753.2693758
764.2066694
760.0382596
387.7334549
408.4569629
427.5729368
442.2319428
455.4972757
471.1209066
492.9578614
516.7586179
525.097771
551.8743599
576.9901755
594.5535437
614.5072811
631.0191579
644.964322
655.3063484
660.0696584
691.9985588
700.5510513
714.0300927
726.6356971
732.7939336
734.9312456
741.0285332
745.6857927
745.5672389
757.6810456
757.0646602
757.874987
749.1212403
358.8220732
372.6820198
400.1795183
416.5420217
434.7541533
453.088716
460.3882265
488.2555959
507.5584734
517.9946843
537.387899
564.4927779
588.3829587
600.7706468
617.2174262
624.3149141
644.2111938
652.8599461
670.196255
689.005568
698.6976733
713.6712687
723.8299597
727.8565192
721.8302965
723.4057777
738.8042322
735.2318079
745.9650186
745.4411881
347.3150879
355.6728277
367.6085991
388.3340652
401.9355744
429.4928367
445.6524591
456.7220508
459.317519
477.2617665
495.7481229
518.8913996
532.8859563
556.9933823
581.872643
598.8821097
620.3740436
623.8155564
640.6360276
645.0511206
652.0360432
665.1819501
694.471979
698.3169465
710.897207
713.5475372
718.6773104
720.0434499
723.9264208
722.5134502
333.2014307
337.4744947
345.2043876
360.3636196
378.8376643
389.0082018
401.1957922
416.7426797
438.4987792
446.1571994
469.2561363
488.4778938
499.71851
519.3713003
532.1934993
556.3628685
573.8670426
580.6099585
594.2317658
617.7783046
636.2668639
652.1278232
661.6807928
672.1890954
679.964966
688.9671858
699.2806662
704.2331093
699.2217663
699.9354785
335.5067086
342.4555871
343.7535559
355.4537695
365.1127229
370.5747846
384.0524363
405.1828383
410.3814202
428.3064714
441.0574723
447.7578758
470.4333255
478.4200547
498.7054673
520.2068643
544.3162211
563.2643925
578.6056029
589.2963988
609.3845114
623.4094944
626.6740312
643.9570543
663.9302053
667.6447208
665.7662939
687.7022394
685.6457653
318.9325309
318.4666978
327.8055835
331.12969
339.6985877
351.8373271
366.0658935
366.1846055
371.4820525
382.8862896
400.1847784
413.9825448
443.2355368
463.694843
480.3891638
496.8687089
513.5162162
534.3358774
544.6391351
557.2122801
564.9781496
575.0162369
604.8705852
609.5510168
625.2712458
316.7818596
323.8849185
329.5003144
338.5831562
338.9264135
339.5690238
348.1798404
361.3239604
364.5212904
374.9027734
390.0844625
396.1793136
406.2865076
426.7413652
445.5808532
457.1463028
468.1637367
492.6503646
515.4076877
316.8566621
315.6599801
320.5988158
326.5487743
333.535573
333.810854
332.6300547
341.1636469
355.7854819
366.6202815
368.5448326
383.1951806
394.9434318
413.9401743
311.5760204
315.952114
315.6983282
314.8957212
321.2827758
328.3432858
335.581135
337.7328021
309.0246407
)
;

boundaryField
{
    flow
    {
        type            calculated;
        value           nonuniform List<scalar> 
15
(
664.7176842
733.0807349
765.7871234
745.1417225
768.1491706
771.248631
785.073596
785.7249344
779.0814072
764.9655327
760.0382596
749.1212403
745.4411881
722.5134502
699.9354785
)
;
    }
    obstacle
    {
        type            calculated;
        value           nonuniform List<scalar> 
30
(
625.1020151
607.8591022
613.911361
593.0901666
624.5743005
646.0199578
616.7985102
626.4788695
652.5334808
593.0635988
617.1357908
636.8077289
611.0319676
603.6516079
641.1724578
649.1299559
607.8629629
602.4996476
606.1684673
546.9361276
635.3570833
580.0153836
619.2721759
673.9466038
635.921209
595.2626622
617.9904176
605.1476228
612.848071
603.1775528
)
;
    }
    frontAndBack
    {
        type            empty;
    }
    procBoundary1to0
    {
        type            processor;
        value           nonuniform List<scalar> 
21
(
703.570885
756.9142705
749.0646222
705.0644469
654.0031769
615.8387256
561.2485411
507.6945781
473.229394
425.643167
402.8026641
365.5246599
343.7571658
340.619504
331.9330612
326.3679432
317.6995336
314.4010663
308.0691875
311.9822464
307.1965721
)
;
    }
    procBoundary1to3
    {
        type            processor;
        value           nonuniform List<scalar> 
36
(
688.8627179
640.1836467
651.8899668
663.4159627
688.8627179
668.0378254
527.6531456
542.8724871
558.2814864
570.012525
591.876098
640.1836467
605.8812706
425.5282019
439.6744055
457.741179
458.181982
527.6531456
485.3980427
344.6088649
344.75255
353.1248689
358.7169182
365.602433
425.5282019
377.9884561
305.80725
312.2103243
310.5504138
309.778518
313.4814452
320.3430873
344.6088649
326.421674
305.80725
303.9302614
)
;
    }
}


// ************************************************************************* //
