/*--------------------------------*- C++ -*----------------------------------*\
| =========                 |                                                 |
| \\      /  F ield         | OpenFOAM: The Open Source CFD Toolbox           |
|  \\    /   O peration     | Version:  2406                                  |
|   \\  /    A nd           | Website:  www.openfoam.com                      |
|    \\/     M anipulation  |                                                 |
\*---------------------------------------------------------------------------*/
FoamFile
{
    version     2.0;
    format      ascii;
    arch        "LSB;label=32;scalar=64";
    class       volScalarField;
    location    "0.003";
    object      internalE;
}
// * * * * * * * * * * * * * * * * * * * * * * * * * * * * * * * * * * * * * //

dimensions      [1 -1 -2 0 0 0 0];

internalField   nonuniform List<scalar> 
546
(
3.692990669
4.299214764
2.339641381
3.765470235
2.460540049
2.082054449
2.62109451
5.006863818
2.28917
4.209723209
3.49286318
2.134960028
3.653915787
3.283773801
2.643481874
2.365351279
3.809152309
1.76690789
1.47797916
2.124190309
2.90094451
2.987903717
2.487970173
1.82646536
1.322465996
2.604688655
2.524714388
2.085696985
2.325997543
1.931327554
2.389658566
5.040275611
3.65488863
2.227854316
2.991357294
3.196017823
4.669880289
1.662685157
3.331035405
3.000138109
2.632745534
3.011610164
4.453848721
3.176479478
3.662236527
2.538445171
2.676741575
2.629788308
2.54644599
3.891740772
1.220732386
2.053758752
3.344543251
2.97657883
1.142651663
1.783591538
2.939134413
3.215504898
1.638422795
0.5461427409
3.952465497
2.930913967
2.53347319
1.111278365
2.725157351
2.803831933
3.279076127
3.280027908
2.381888773
4.110353752
4.061152356
1.996456063
2.264204161
3.889063387
3.201402377
2.379112358
2.597370252
2.731988188
3.78816598
2.53356857
2.581895703
3.255068953
4.006684749
1.353240512
2.658236676
2.16874772
3.16398997
1.86169653
1.156871956
2.420202442
4.015741856
2.835471823
1.103428467
2.310014398
2.843171554
4.16501818
3.220630323
2.68050655
3.908095272
3.83772114
2.101124245
2.884463952
3.438676207
1.749317561
2.910135757
2.932757
3.107551078
2.63597875
1.773807712
3.522591457
2.114997306
2.295472728
2.327993771
1.739679629
2.049298042
4.384129679
1.262757195
3.2441685
1.686989883
2.331067187
1.98840144
0.9140262301
2.72050383
2.593164066
3.067365575
3.082122302
1.837813723
3.181735646
0.898423284
2.316023343
2.92291172
4.4364785
2.534051432
2.110846016
2.272309487
1.761640619
4.720002595
2.558884919
2.285215545
2.430799762
3.933561868
2.661495066
3.407439632
2.114652473
1.441713383
1.221573923
3.58726682
1.033320109
3.602650826
0.4763025984
0.5411466471
1.170286208
1.780261504
2.118092182
2.270857671
1.325224065
3.821401673
2.399056888
1.889005296
2.766125085
3.374075774
4.78321043
3.217188439
2.041486598
1.75725963
3.713114512
3.210268481
1.848161962
3.764509002
1.130437616
2.348763074
2.752878979
3.675029409
3.739667735
3.363755795
3.180755899
2.238015441
0.7766023193
3.409973538
1.638409863
2.07476871
2.67102807
0.3240148848
1.03557097
1.677983203
2.08507052
1.979966716
2.323942441
1.385466158
2.226155452
2.392043882
3.778276754
2.417195023
1.886900067
3.614941257
2.165085574
1.073478778
2.511540404
1.64233804
2.711071355
1.592371914
3.390484002
1.81211481
3.331989422
3.790108889
2.360941643
2.037279933
3.524272861
2.349776834
0.8934363084
2.060432942
0.8720756026
1.868958562
1.730970486
1.94898585
2.690334101
2.762189221
2.807868776
1.952943407
2.026620797
1.301845158
2.768951669
1.931401989
2.282525257
3.066887223
3.197835997
2.11433809
1.876849052
3.539859838
4.237797953
2.455158852
2.929004689
2.031663886
2.205937045
3.668926296
2.085252264
3.316942022
1.811406534
1.85819521
2.029999533
0.850562084
0.690817388
1.641404119
1.387852702
2.09331926
1.305162082
2.456411464
1.893900847
1.941297101
3.215754784
3.106118967
1.77550429
1.291581851
2.370334348
3.136119856
3.842759827
3.032086364
2.629227333
1.170618628
2.327451868
4.381786336
2.491752241
1.697454683
2.853484602
2.145630578
4.295107854
2.112728291
3.270766292
2.54576015
2.401653785
0.7310198033
0.4234732758
0.8379687929
1.526990695
1.493895196
1.048972283
0.6791101083
2.64887603
0.9571290617
2.135639125
2.226742664
2.24462345
3.697554993
2.570982531
3.286275575
2.673530071
2.700243185
2.414921906
3.236215629
5.690085969
3.551599114
3.218937922
3.312779266
2.468342849
3.25503015
1.605012375
1.84012857
2.228675665
3.029533899
3.812967708
0.5827188971
1.100218117
0.5356924399
1.366736353
0.7663380661
1.220924423
1.066480943
2.12480327
0.9404412334
2.124403948
1.002899809
1.963466047
2.69235328
1.758326905
3.107923987
2.265768269
1.597986843
2.178999329
2.05381063
2.28013537
2.82857887
2.668430709
2.411378161
4.440647609
3.835543861
2.243590357
1.802751856
0.8889579189
2.802804906
1.52294556
0.478828212
0.2546233323
0.7301713784
1.55739093
0.4558194129
1.147904135
1.278171119
1.130211146
1.017591196
2.517526136
1.735773311
1.900343768
2.460398316
3.023405047
1.080329856
2.635701359
2.194940578
2.08438274
1.683304896
2.936443806
1.786717942
2.342640347
2.479878016
1.523292315
2.229191535
2.301956775
1.397523008
4.018344993
2.617652017
2.919198187
1.103248195
0.5322571255
0.2972991058
0.3939833252
1.993678224
0.7678725353
0.5148182105
0.5467163428
0.7437952471
0.888835512
0.8113586018
2.854116052
1.884138069
2.380283424
1.834543223
1.70556522
2.305852359
1.353820578
2.278293229
2.810987988
5.331147673
2.008601944
2.799753597
2.661694084
1.043197123
1.764585294
0.8156371225
1.480034123
2.17150671
2.202151567
0.7231373731
0.7889797886
0.4792280929
0.7547249263
0.8694603679
0.9994965362
0.685005385
0.4598532088
1.66559906
1.415448937
1.318262373
2.162558539
2.44181038
0.9387582122
2.027345103
1.89459381
2.003676426
2.857868997
1.120642897
2.589139901
2.388768415
2.713078125
3.314140467
5.634511521
1.930120917
2.072419903
6.118918742
1.419676514
2.692558304
2.559425405
0.9201937143
0.5991063309
0.816460672
0.5524315043
0.5795794931
0.6929254771
1.107034219
0.7176573957
1.187298892
1.149403422
0.7863969715
1.051309914
1.126375847
0.9745223651
1.143255325
1.855517974
1.796681076
2.246822405
1.45141486
1.517243547
4.193204793
2.323014456
2.09437666
2.47304897
3.121928414
1.766197127
2.822478567
2.778883484
3.189665718
1.259574671
0.5534321006
0.2989839007
0.3550933779
0.8763754853
0.9341663645
0.4013832878
0.3784577654
0.4511153556
0.6638307619
1.553522479
0.3636995901
0.9887449056
1.17353204
1.110396451
1.244475018
1.683901577
2.268056482
0.9190580521
1.045910679
1.331470977
1.57494161
3.521699429
2.188120939
2.444301828
2.100797311
1.988726313
2.321380585
1.828092788
4.8810061
1.046386304
0.4800720188
0.3582720616
0.3008957111
0.7993305621
0.35763067
0.9664570042
0.6926513284
0.9229759432
0.5880730906
0.5010218402
1.05910663
0.5538025775
0.9435648954
0.4549687955
0.9581482957
3.262537224
1.161405897
1.907411751
2.170538403
1.863872683
1.618550678
2.55966672
3.839131094
1.08756077
0.2768794061
0.8812806185
0.5531611433
0.3315376143
0.3650852106
0.7954724797
0.3518452062
0.3344365866
0.7556815855
0.9997545648
0.7115206935
0.5147676669
0.4470884114
0.6551335374
0.3393886255
0.4763688159
1.129489384
1.541894765
0.8819821738
0.1113704284
0.2570923747
0.4249212074
0.4039863423
0.5060559138
0.9035592289
0.4275229062
0.4476943592
0.4119531425
1.486229868
0.4630218047
0.9627065124
0.4968353033
0.3763145037
0.4535019591
0.3147224199
0.6355699431
0.4485531873
0.5139122544
0.3008502954
0.4682902154
0.283448455
0.6190865339
)
;

boundaryField
{
    flow
    {
        type            zeroGradient;
    }
    obstacle
    {
        type            calculated;
        value           nonuniform List<scalar> 
30
(
1.246872965e-18
3.430070585e-19
3.658716191e-19
4.920206152e-19
0
2.214111932e-18
3.791153973e-19
3.231791048e-18
4.072031887e-19
1.011241672e-18
7.520480711e-19
2.590683417e-19
2.383918371e-18
2.798345017e-19
0
0
2.607393014e-19
6.04097175e-18
1.724029765e-18
1.881976201e-18
1.256929885e-18
2.000535398e-19
2.100444571e-18
8.931617807e-19
0
9.346366601e-19
0
3.919889048e-19
1.397466526e-18
8.85089721e-19
)
;
    }
    frontAndBack
    {
        type            empty;
    }
    procBoundary1to0
    {
        type            processor;
        value           nonuniform List<scalar> 
21
(
1.808495166
2.639627786
3.806684506
1.007789569
3.312962494
1.336539985
0.7486305137
0.9330284237
1.811497347
0.3380316037
0.9836652731
0.3127391831
0.4526227003
0.4159566331
1.071806866
0.7536225149
0.2238114861
0.2869408135
0.3065700483
0.2903837464
0.2750357111
)
;
    }
    procBoundary1to3
    {
        type            processor;
        value           nonuniform List<scalar> 
36
(
3.785838658
2.077280961
2.341797856
3.392136065
3.785838658
1.297031493
1.060708649
3.007781717
1.680980049
1.27085971
1.820482381
2.077280961
2.378248065
1.073443967
0.7379580311
0.3316808945
0.405192464
1.060708649
1.426140094
1.24934116
0.5932643183
0.9082569289
0.5140165711
0.9828000702
1.073443967
1.044883078
0.1946325563
0.5588652261
0.677835237
0.1513756339
0.9084133911
0.5014947116
1.24934116
0.397220088
0.1946325563
0.08155183933
)
;
    }
}


// ************************************************************************* //
