/*--------------------------------*- C++ -*----------------------------------*\
| =========                 |                                                 |
| \\      /  F ield         | OpenFOAM: The Open Source CFD Toolbox           |
|  \\    /   O peration     | Version:  2406                                  |
|   \\  /    A nd           | Website:  www.openfoam.com                      |
|    \\/     M anipulation  |                                                 |
\*---------------------------------------------------------------------------*/
FoamFile
{
    version     2.0;
    format      ascii;
    arch        "LSB;label=32;scalar=64";
    class       volScalarField;
    location    "0.003";
    object      internalEMean;
}
// * * * * * * * * * * * * * * * * * * * * * * * * * * * * * * * * * * * * * //

dimensions      [1 -1 -2 0 0 0 0];

internalField   nonuniform List<scalar> 
546
(
2.977895526
2.957008509
2.904173676
2.88718618
2.883911743
2.828983402
2.991586056
2.894324062
2.978416032
2.876373635
2.836523406
2.816043306
2.706937482
2.852423867
2.84395613
2.788224946
2.580035153
2.599315795
2.706890063
2.642848215
2.538590423
2.691435525
2.584369386
2.5933626
2.452555408
2.414248912
2.316633227
2.247716457
2.007926575
1.687738767
2.859865703
2.856576305
2.848416914
2.882038709
2.90409279
2.950968108
2.897789455
2.870369172
2.835899059
2.88852971
2.842739911
2.804276685
2.753241812
2.899806183
2.893029283
2.869898994
2.740339101
2.672827681
2.614713025
2.595168931
2.549680235
2.585594674
2.621427927
2.475494901
2.46448496
2.463911439
2.337143217
2.216679575
2.039813008
1.684458536
2.751030675
2.770464768
2.757989875
2.79039881
2.798706885
2.748163399
2.774826569
2.758118448
2.801480672
2.797573916
2.813241091
2.742891479
2.748412219
2.798577177
2.7738672
2.764672827
2.75248664
2.595120518
2.634246319
2.656637377
2.623804311
2.601600521
2.589814713
2.494993252
2.425898628
2.33095034
2.302119923
2.246657484
1.964909047
1.804592409
2.370895611
2.532341426
2.641790896
2.633966601
2.649952066
2.651012205
2.649175445
2.653750085
2.72247997
2.772175669
2.818877939
2.861756961
2.851380602
2.816714936
2.629061939
2.670527297
2.598438644
2.601616488
2.646615457
2.693923363
2.61081506
2.525943242
2.500630694
2.460523284
2.540615216
2.368526536
2.315189975
2.158035088
1.979897746
1.831071511
2.086214022
2.250425899
2.349678848
2.425613988
2.51867813
2.531152009
2.509125531
2.616833072
2.693213916
2.653929531
2.726528733
2.736786797
2.771356277
2.692774175
2.711396782
2.679607589
2.658015763
2.711653831
2.651207171
2.605508159
2.582850337
2.491724955
2.445678169
2.465458404
2.413643304
2.357370433
2.356236735
2.236656808
2.103386919
1.886903789
1.78447931
1.9127757
2.068632223
2.173845629
2.25023858
2.427625332
2.427180043
2.492070402
2.553892196
2.612768499
2.589060074
2.563479631
2.577497743
2.636982168
2.691882841
2.725143595
2.686069481
2.662270967
2.614030845
2.593893027
2.566847906
2.4766662
2.507270124
2.541987089
2.493424396
2.391920249
2.311815764
2.291873752
2.16181818
1.931831329
1.523740827
1.688227965
1.827888984
1.985340896
2.109953825
2.251397698
2.260410809
2.30663766
2.353805467
2.4441044
2.51552045
2.612580393
2.60399486
2.643515063
2.606987398
2.626436337
2.61592258
2.574864909
2.57704349
2.569639267
2.599740899
2.551084827
2.5239524
2.486640352
2.522538326
2.465713344
2.32310376
2.301010683
2.200394147
2.048396121
1.280245906
1.409654977
1.575115769
1.709564869
1.794668212
1.942811788
2.091206272
2.179831509
2.205588619
2.262846826
2.352347798
2.367418253
2.431438088
2.507341107
2.608154326
2.581773983
2.637100529
2.644544135
2.621777974
2.658199562
2.605189427
2.493842784
2.477453883
2.475040736
2.456422075
2.423342337
2.370982712
2.297056192
2.248321262
2.136323177
1.06740479
1.178912963
1.287072514
1.422186209
1.598898167
1.70831714
1.800001666
1.930762325
2.037250607
2.080698304
2.146656341
2.253648449
2.316926905
2.427290717
2.508273549
2.536906031
2.538361646
2.55171094
2.578708107
2.599158112
2.616531459
2.546556628
2.505828529
2.433934311
2.418413079
2.435500252
2.419506458
2.350148186
2.258216003
2.13879189
0.852164128
0.9567789664
1.085538826
1.194469742
1.33061414
1.440772637
1.589740224
1.706324546
1.87628302
1.931589225
1.986752832
2.065219666
2.131640087
2.235308532
2.306491234
2.404190385
2.445287788
2.4635942
2.495780407
2.508450097
2.489109525
2.55535026
2.52693712
2.463774388
2.438730369
2.407221207
2.341038616
2.355466491
2.241239993
2.138353772
0.7612513055
0.826997824
0.928619673
1.009208353
1.107725111
1.196349063
1.313266931
1.448912764
1.551907239
1.741217585
1.808206526
1.92285653
1.995284743
2.062228451
2.155551914
2.201362007
2.284378133
2.384932146
2.379399097
2.40779452
2.481366592
2.455725981
2.469649046
2.465690135
2.375388606
2.367590576
2.34395565
2.343994278
2.321830777
2.198621735
0.6592365803
0.7212651895
0.7919084805
0.8589498423
0.9244373186
1.004419314
1.121319574
1.225537796
1.304999702
1.424339798
1.548316435
1.656372577
1.801335231
1.891295319
1.971142134
2.064926923
2.090645072
2.238690699
2.308408728
2.354531195
2.372724016
2.426975518
2.397517607
2.404488576
2.429630287
2.401565485
2.386917076
2.32608267
2.292748497
2.2572077
0.5707372343
0.6139046368
0.6943780416
0.7478862414
0.8218084415
0.9015379045
0.9581375166
1.055653566
1.151078518
1.221869492
1.346851774
1.499978865
1.634638144
1.745032887
1.83805435
1.890867861
2.003646696
2.043852219
2.153385244
2.245069759
2.268817262
2.367822484
2.391061734
2.40974223
2.359770801
2.328991826
2.356662839
2.315405239
2.349455922
2.274463232
0.5321026806
0.5603612841
0.5913320423
0.6568599678
0.7056919306
0.7834718407
0.8443534937
0.9151056836
0.963339506
1.064907821
1.171075805
1.267159137
1.363007394
1.484137882
1.625687034
1.727836526
1.863550843
1.928867025
1.976420509
2.019754528
2.0699674
2.139248151
2.31186306
2.331889204
2.335339995
2.312857677
2.328670602
2.316139478
2.258696707
2.22762156
0.5033932584
0.5203175837
0.542922439
0.5702129497
0.6146493821
0.6592997195
0.7187035303
0.7856116446
0.8664853067
0.9129486491
0.9984457423
1.080104902
1.171257179
1.292794125
1.400494725
1.546177326
1.65270037
1.715907936
1.812904523
1.933692233
2.038380296
2.117398758
2.173625573
2.219432005
2.261923116
2.277165053
2.299626196
2.302811005
2.244291098
2.193342237
0.4867159785
0.4972949216
0.5108171498
0.5362148399
0.5742066561
0.5981924215
0.6435727838
0.7068927937
0.7489474576
0.811466435
0.8828220992
0.9564271126
1.044198269
1.119720926
1.216493347
1.322114469
1.452555262
1.566526021
1.671777782
1.771028677
1.867550781
1.943515515
1.979637051
2.093749344
2.188869452
2.194030959
2.185760596
2.26486639
2.256117109
0.4594779764
0.4665668155
0.4856758941
0.509728237
0.5227123685
0.553730262
0.589158771
0.610561037
0.6361541192
0.6901164189
0.7511207588
0.8007396855
0.8841813795
0.9711700121
1.061939481
1.154733041
1.278348565
1.403452278
1.500439248
1.548349958
1.614991108
1.731390198
1.867576459
1.931546085
1.992246344
0.4586362764
0.474673163
0.4902237846
0.5037235715
0.5128002696
0.5236863554
0.5438653872
0.5743411798
0.5976078913
0.6293965312
0.6650615606
0.7069092482
0.7658157881
0.8384032043
0.9157860273
0.9888144131
1.056372044
1.176885331
1.283943819
0.4472293439
0.4484689314
0.4605199858
0.4713756124
0.4863028442
0.4892982878
0.4972327333
0.5181991798
0.5542544918
0.5755341501
0.6122017824
0.6491434151
0.6879686755
0.758078932
0.4424459334
0.4491140011
0.4494781755
0.4534241064
0.4665584834
0.4760759418
0.4925477427
0.5017042644
0.4281985097
)
;

boundaryField
{
    flow
    {
        type            calculated;
        value           nonuniform List<scalar> 
15
(
1.687738767
1.684458536
1.804592409
1.831071511
1.886903789
1.931831329
2.048396121
2.136323177
2.13879189
2.138353772
2.198621735
2.2572077
2.274463232
2.22762156
2.193342237
)
;
    }
    obstacle
    {
        type            calculated;
        value           nonuniform List<scalar> 
30
(
1.163869321e-18
1.138282465e-18
1.107838897e-18
1.138032815e-18
1.139187827e-18
1.158667462e-18
1.133527668e-18
1.067868444e-18
1.261686022e-18
1.062052323e-18
1.131875103e-18
1.184739982e-18
1.039881545e-18
1.128972109e-18
1.178010249e-18
1.11495918e-18
1.02831325e-18
9.796132735e-19
1.027891955e-18
1.024939529e-18
1.04131791e-18
9.56621724e-19
1.11552137e-18
1.157337741e-18
1.026063911e-18
8.949609042e-19
9.069926878e-19
9.466873802e-19
7.760814333e-19
7.109572576e-19
)
;
    }
    frontAndBack
    {
        type            empty;
    }
    procBoundary1to0
    {
        type            processor;
        value           nonuniform List<scalar> 
21
(
2.982740089
2.842636877
2.666902367
2.302560241
1.969436368
1.671337267
1.389094892
1.121620852
0.9535659786
0.7723908478
0.7042736267
0.591703774
0.5408236338
0.5124967159
0.4893568902
0.4725891023
0.4558690783
0.4488804062
0.4328305276
0.4386480484
0.4283929883
)
;
    }
    procBoundary1to3
    {
        type            processor;
        value           nonuniform List<scalar> 
36
(
2.235235475
2.058551064
2.150098471
2.173610431
2.235235475
2.185074167
1.398490718
1.493547074
1.594549916
1.70185333
1.827175671
2.058551064
1.922571428
0.8165092262
0.8951249239
0.9705897674
1.007704886
1.398490718
1.137021744
0.5228211616
0.539642957
0.5574348553
0.5884613221
0.6130610076
0.8165092262
0.6559178591
0.4274734899
0.4353195881
0.4327752534
0.437858871
0.4512683987
0.4630209801
0.5228211616
0.4811359749
0.4274734899
0.4261915468
)
;
    }
}


// ************************************************************************* //
