/*--------------------------------*- C++ -*----------------------------------*\
| =========                 |                                                 |
| \\      /  F ield         | OpenFOAM: The Open Source CFD Toolbox           |
|  \\    /   O peration     | Version:  2406                                  |
|   \\  /    A nd           | Website:  www.openfoam.com                      |
|    \\/     M anipulation  |                                                 |
\*---------------------------------------------------------------------------*/
FoamFile
{
    version     2.0;
    format      ascii;
    arch        "LSB;label=32;scalar=64";
    class       volScalarField;
    location    "0.003";
    object      linearKEMean;
}
// * * * * * * * * * * * * * * * * * * * * * * * * * * * * * * * * * * * * * //

dimensions      [1 -1 -2 0 0 0 0];

internalField   nonuniform List<scalar> 
546
(
7.083362571
6.77803657
6.543252285
6.430633897
6.202643875
6.159776675
6.155035475
5.98076527
5.986406531
5.894750787
5.75031662
5.634938169
5.350775432
5.540216877
5.42152743
5.273787873
5.118195448
5.014332012
5.01234657
4.997770224
4.925546204
5.02158863
4.964767976
4.990246718
4.741510053
4.645131266
4.458975592
4.262699681
4.055762944
3.663119767
8.854637473
8.565341574
8.236079767
8.102981697
7.83090771
7.708418298
7.430785131
7.278628427
7.152462644
7.035893956
6.791086852
6.600130777
6.520615738
6.51439056
6.37937519
6.213749004
6.013680574
5.920736587
5.820508197
5.792287089
5.684194843
5.693872385
5.605884646
5.417687117
5.29909
5.286240027
5.114002087
4.823874565
4.652959683
4.257532608
10.20423916
10.19943146
9.805734212
9.516001628
9.128393514
8.695456847
8.639457161
8.378619484
8.222954903
8.064788877
8.040465559
7.802221902
7.661540924
7.342484941
7.174280887
7.088470407
6.964200874
6.743803772
6.713724023
6.63203119
6.521300828
6.448889607
6.43633723
6.182866467
5.993197781
5.851917116
5.742345875
5.638956193
5.309974078
5.018020397
11.38884248
11.30177007
11.13252909
10.81023526
10.67340004
10.33404598
10.03696665
9.853836312
9.499776311
9.29644184
9.078146955
8.834366238
8.711204419
8.578075911
8.263900053
7.990418645
7.872176216
7.711920053
7.651944259
7.587303583
7.375004305
7.114681252
7.019088449
6.919955366
6.850281455
6.59042155
6.265622673
6.209698141
5.937989976
5.745775963
11.99144581
11.956819
12.12834484
11.96934421
11.73424598
11.39720425
11.09861383
10.90759101
10.78209909
10.46033923
10.3185788
10.19940107
9.98232342
9.747624802
9.375456991
9.14273068
8.909568944
8.86061821
8.572269324
8.290318484
8.073350965
7.807745032
7.779390683
7.706998418
7.575721882
7.342081699
7.272367251
6.925323202
6.676376799
6.248545015
11.77106282
11.98875013
12.16226693
12.15615024
12.07648419
12.15023693
12.03040202
11.77513427
11.72125461
11.56572433
11.29802612
11.15742818
10.9646805
10.73562497
10.59621415
10.41597316
10.01188679
9.914554734
9.666541017
9.391206695
9.06498507
8.728646539
8.584346682
8.495529387
8.372134359
8.105757474
7.856755377
7.711725102
7.525182987
7.156940639
11.46521257
12.00375602
12.27044609
12.4697499
12.52874829
12.86870321
12.72381327
12.64887339
12.60637568
12.55880476
12.29022482
12.02528044
11.9295671
11.82398821
11.41785035
11.16719846
10.94887727
10.56431816
10.48149201
10.1429651
9.928844321
9.77671849
9.560350934
9.409980267
9.402563716
9.177079339
8.873696586
8.684386827
8.301827868
8.044592001
10.99056043
11.28613199
11.90114762
12.45235747
12.60161247
12.68916932
13.05053979
13.15141462
13.0435007
12.95103644
12.91472313
12.69918694
12.58609596
12.31646986
12.3843406
12.23632876
11.97498449
11.61689657
11.42832362
11.40573755
11.15292001
10.86008221
10.64323843
10.31637101
10.01421044
9.739073817
9.471973531
9.342843433
9.098823563
8.788954475
10.48039653
10.96228164
11.3513631
11.67655354
12.362899
12.69184954
12.80568778
13.03227963
13.19351598
13.20313865
13.26201416
13.37353658
13.23992287
13.2643326
13.14099396
12.96747609
12.67860432
12.57693949
12.42724624
12.05073952
11.82500129
11.4927477
11.17381573
11.08865008
10.82548712
10.66446191
10.39826988
10.17039832
9.827438669
9.580644518
9.675988095
10.07716385
10.63848842
11.09897044
11.48805978
11.88069182
12.44209702
12.76513969
13.10798509
13.3359854
13.38592927
13.51749308
13.5112381
13.58110348
13.54050796
13.52152944
13.48443701
13.16885389
12.90178192
12.81150328
12.67306087
12.45764582
12.26921389
11.80586868
11.7522806
11.4895125
11.1691742
10.97025739
10.55187774
10.21853454
9.371104289
9.632342824
10.00347126
10.39106259
10.9187882
11.35329422
11.796595
12.39047946
12.78116423
13.23427865
13.49516955
13.70355814
13.89782589
13.94189511
13.87355276
13.8800668
13.91624677
14.0032452
13.67698643
13.62949938
13.38784198
13.22409218
13.01182365
12.69361844
12.19365128
12.05303172
11.89023424
11.8333955
11.62713858
11.08231134
8.9660272
9.276407561
9.595773026
9.971874078
10.3358083
10.7067308
11.26724484
11.60512478
12.15633547
12.48692868
12.89058292
13.11166969
13.57589551
13.77586987
13.88656726
14.17477335
14.17062488
14.17506395
14.36834293
14.15220596
13.98070495
13.86537878
13.56412289
13.41452984
13.35059674
13.15624224
12.8026625
12.40578303
12.03755754
11.9246404
8.654742891
8.909521642
9.234788131
9.434109248
9.876138094
10.28780177
10.59912061
10.94072504
11.38628022
11.77536894
12.29313675
12.87740153
13.28467279
13.72634431
13.90918805
14.07293403
14.21557179
14.32430834
14.41906679
14.58381261
14.47307424
14.50106408
14.31138466
14.1240932
13.83891476
13.60387564
13.29324731
12.956315
12.97560807
12.57202232
8.409722518
8.562884292
8.701583503
9.03296241
9.331789391
9.611048097
9.850385368
10.21909838
10.62125065
11.13641467
11.69176198
12.04620754
12.47464593
12.89660351
13.34196446
13.7458417
14.16335479
14.39251465
14.39176701
14.55770401
14.60911798
14.60027881
14.89911768
14.66485647
14.4333834
14.13243316
14.10117488
13.85240433
13.35636338
13.11362278
8.393624953
8.490162208
8.605859612
8.633269059
8.788922326
9.094585185
9.488145817
9.921728174
10.26607222
10.54839108
10.86668046
11.1491469
11.70678111
12.23536375
12.91770203
13.42902481
13.84159799
14.15192347
14.40274092
14.63335444
14.881241
15.08517157
15.09398195
15.0329949
14.94418584
14.80345842
14.64017667
14.36467937
14.1489889
13.77594732
8.036140262
8.043152742
8.261884648
8.260319447
8.607230677
8.677804858
8.958637588
9.269901069
9.594704022
9.953566676
10.42443808
11.05793439
11.39947192
11.93478669
12.23736706
12.58873994
13.01795978
13.42905024
13.81819685
14.26288613
14.55320852
14.72533775
14.80660982
15.03413233
15.2170245
15.14965526
14.95569914
14.9617249
14.65270919
8.088450347
8.186493093
8.244607854
8.512462216
8.498836038
8.694248083
8.869468784
9.138713174
9.360338806
9.691564877
9.998251213
10.2065683
10.48010124
10.92632992
11.36338811
11.82549796
12.49021818
13.02378259
13.61906737
13.73190503
13.93320088
14.47132252
14.72749354
14.97844128
15.06882493
8.158471604
8.199472956
8.299409822
8.289668833
8.440532812
8.590235186
8.677492031
8.749835669
8.937510131
9.126866275
9.200849224
9.536499917
10.02125419
10.34670104
10.73216505
11.20444131
11.67816332
12.19683969
12.59129024
7.900056322
7.953337411
8.087075525
8.095990372
8.112298514
8.103566438
8.246834098
8.345380081
8.551375668
8.570715168
9.067380903
9.176504483
9.336559525
9.746974083
8.022970936
8.023712588
8.026348598
8.052127173
8.136657306
8.135412663
8.20897426
8.280420447
7.824700533
)
;

boundaryField
{
    flow
    {
        type            calculated;
        value           nonuniform List<scalar> 
15
(
3.663119767
4.257532608
5.018020397
5.745775963
6.248545015
7.156940639
8.044592001
8.788954475
9.580644518
10.21853454
11.08231134
11.9246404
12.57202232
13.11362278
13.77594732
)
;
    }
    obstacle
    {
        type            calculated;
        value           nonuniform List<scalar> 
30
(
2.36663852e-18
2.399649301e-18
2.235381047e-18
2.354005418e-18
2.141328054e-18
2.12134945e-18
2.192550763e-18
2.095419204e-18
2.12801606e-18
2.018651233e-18
2.230414437e-18
2.106878642e-18
1.979446751e-18
2.045279896e-18
2.0039985e-18
1.918356491e-18
1.881584585e-18
1.81884682e-18
1.834696518e-18
2.041647468e-18
1.847701236e-18
1.822699752e-18
1.86547277e-18
1.999333737e-18
1.747882799e-18
1.774015101e-18
1.683042425e-18
1.759081447e-18
1.484429282e-18
1.412560063e-18
)
;
    }
    frontAndBack
    {
        type            empty;
    }
    procBoundary1to0
    {
        type            processor;
        value           nonuniform List<scalar> 
21
(
7.288891479
9.146121254
10.50189632
11.54822194
11.80842926
11.53848634
11.16376006
10.42795384
9.950849267
9.456963578
9.138743094
8.6689538
8.581657087
8.350544387
8.231613874
7.988379812
8.084187267
8.045376761
7.938731363
7.952491807
7.890830882
)
;
    }
    procBoundary1to3
    {
        type            processor;
        value           nonuniform List<scalar> 
36
(
14.36973564
15.16856805
15.38847528
15.1652794
14.36973564
15.13955823
13.23644014
13.74350323
14.09485557
14.67243576
14.97622167
15.16856805
15.13420712
10.20084514
10.73290094
11.08757585
11.42817578
13.23644014
12.01054313
8.392492229
8.642051499
8.700614586
8.979009966
9.196027331
10.20084514
9.438329878
7.917457434
7.871458963
7.880608056
7.978400843
8.127450674
8.162610556
8.392492229
8.259673392
7.917457434
7.93330055
)
;
    }
}


// ************************************************************************* //
