/*--------------------------------*- C++ -*----------------------------------*\
| =========                 |                                                 |
| \\      /  F ield         | OpenFOAM: The Open Source CFD Toolbox           |
|  \\    /   O peration     | Version:  2406                                  |
|   \\  /    A nd           | Website:  www.openfoam.com                      |
|    \\/     M anipulation  |                                                 |
\*---------------------------------------------------------------------------*/
FoamFile
{
    version     2.0;
    format      ascii;
    arch        "LSB;label=32;scalar=64";
    class       volScalarField;
    location    "0.003";
    object      linearKE;
}
// * * * * * * * * * * * * * * * * * * * * * * * * * * * * * * * * * * * * * //

dimensions      [1 -1 -2 0 0 0 0];

internalField   nonuniform List<scalar> 
546
(
11.70818686
9.022040099
5.158812889
6.910900616
6.775053383
6.129860709
5.418189508
7.044849352
6.703945693
8.199910007
5.103182454
4.431950143
5.438121867
7.507038719
5.921619373
3.76861235
4.870857185
4.412845043
5.017653072
6.802923591
6.75700702
5.49788858
4.980505776
5.600297579
3.460372527
7.984400793
4.399667125
2.607212637
5.560383558
5.090368236
7.723879602
15.37502954
8.398122387
6.280808514
8.330953664
9.030057477
8.914084061
8.197109092
10.01603399
7.198117012
7.813537507
8.354522008
8.540262683
6.960332207
7.73563473
7.550779691
6.824747178
5.857836864
3.720255341
7.769530786
2.479628657
4.598659985
6.806738279
6.482198194
5.403875448
4.629561067
4.836970707
7.799971797
5.751054087
2.67128798
11.96396647
7.107119017
11.71635836
6.057687877
8.618983527
10.98864883
8.636624864
11.08262495
11.42362475
8.735383327
14.07020745
7.611241735
5.927398991
9.983041103
6.317457582
9.047091406
7.438515031
5.932582553
8.451484357
7.813666011
7.261389289
6.606440393
8.185973767
4.909854835
7.892847869
8.874710946
3.413407298
2.187932593
3.685989459
5.496628403
14.98880337
15.1785269
7.711411081
11.93222372
11.51312298
14.97022762
15.87607194
10.38667279
12.46565309
7.986866
8.790966317
9.012095003
13.86284977
7.724583889
6.720567791
5.929930976
6.303657599
7.686395748
5.027656853
6.590154235
4.289761856
6.624583049
4.341953096
4.587586321
4.640758317
7.114069427
6.050610151
8.066462269
5.502598344
8.302325683
10.18194424
9.236581589
11.36397843
14.5354742
11.26166122
6.510122838
8.627693076
8.371694606
9.546826574
9.945763847
8.319522027
10.92532097
9.908095506
12.14815075
6.842000555
6.811928371
7.649469244
6.154520788
9.776053935
8.87274648
11.93428112
10.72328656
9.798612065
6.671145527
4.254066344
5.051098591
11.31721144
4.485206465
7.667974059
2.435603848
8.355520441
5.705951138
10.17630324
8.472429899
13.10777439
13.4586739
17.15473877
11.89867255
12.28518594
11.84170117
14.87374872
15.8948458
10.79833433
9.582381644
8.334187518
14.1400967
7.507079294
5.749837947
9.606773209
4.641277393
9.252092101
7.504346448
8.949736063
11.09553226
7.092604268
6.457795278
9.685044617
4.402438191
11.23649794
4.252538964
10.97450764
11.73454216
3.634495957
11.34322374
10.01703044
7.719419033
15.88800348
10.67309316
15.37487663
8.844034462
12.85641315
17.6833603
10.2588267
9.035544513
10.0080323
5.933069453
7.404398601
8.823575196
7.382477026
10.17799274
10.10609695
9.925539782
9.678130076
8.558987064
7.854869627
12.69224068
9.768705167
7.62852046
8.008319624
3.351114598
15.70696877
6.755090688
13.1799805
15.24785647
12.49206625
16.69839456
13.12587948
15.43469708
17.05823204
11.17456103
9.38545231
13.21291719
17.39085124
10.88771418
15.56058176
13.64492676
11.82511404
12.00972865
10.84661464
14.36092172
5.038263793
11.86327705
6.8589281
9.519549475
11.44431781
10.00836451
10.46405351
8.121315496
7.902211547
6.664961341
9.650660553
9.761090172
12.21686561
9.034692612
12.79196243
14.22747176
17.82937221
15.10763043
19.71820486
13.87055187
12.70632395
7.536854091
6.785099309
11.90638762
17.31213076
14.34339092
9.846227626
12.8106152
9.541915358
9.399178286
16.56709101
13.44015415
8.592369347
10.42712751
12.91903828
9.501869275
7.076160388
11.28313199
10.83347924
12.45385541
5.977864598
6.518700082
11.12609276
9.347872966
11.85763555
10.82598287
8.138050031
16.98279271
9.716045955
14.92002643
11.26738232
12.96364845
17.11786387
12.57504523
21.06373579
11.4567421
11.86371388
10.08448379
23.67224531
17.87364464
18.0697687
11.95151235
12.71917379
9.872868211
10.48569973
6.134319243
7.148857235
12.53816403
13.96750061
14.60258461
14.165969
6.818441758
12.59264094
13.89673623
10.869817
8.173125826
13.25117817
22.25904269
11.01663237
20.53980295
13.49020215
8.739142466
16.59966852
12.59143466
17.22560042
16.71484253
12.85276296
12.86232541
6.837928169
14.92997814
11.59782766
10.80601652
15.08156797
18.56148629
21.17642499
10.93671045
5.43254391
6.520193519
15.28623878
8.375375747
8.337142855
3.225909002
12.11512262
6.96285087
5.852646966
10.57122616
5.962068445
10.91540611
5.886478838
12.67837158
20.4843167
16.87373334
11.63750938
16.42127251
9.564752139
15.46931927
17.54757863
16.05645011
18.13623617
19.61196721
11.19051662
12.66597855
14.59263943
10.41877098
13.14668319
9.241010153
11.03095683
12.312226
14.09270696
11.77220595
13.29362904
6.918759137
9.076539055
6.291240148
13.66648607
11.10092363
12.7638393
6.069909921
10.52230696
10.93640127
9.119231182
14.80450885
13.78173558
19.12054621
14.58138454
11.84323961
11.72109934
10.51910015
14.12273248
18.07540445
22.83033395
10.94254607
13.35967609
19.41787786
10.84008943
11.62641198
12.2662974
11.10355316
16.77040624
12.47152333
10.80993742
9.434616063
6.747935716
6.745223525
16.55261014
7.557679037
7.376723538
9.753763895
17.45168357
12.14510465
13.14983869
16.92297852
14.86490237
10.52451655
14.20714119
13.02130377
16.27022388
20.43935659
10.45638091
13.57644673
11.64608458
22.98677989
19.12998503
23.04218206
11.54901992
12.63317576
17.02785572
15.91337817
23.14832346
13.32155672
7.718586145
9.869787262
8.206288378
8.084308774
8.430726271
8.51467963
7.542259189
9.879875655
13.6420701
10.63731538
7.762039734
12.68136384
9.611655771
17.01706351
13.99144908
13.4273663
12.81517874
20.40930671
16.43986381
12.92663531
24.25185901
11.56750074
13.64675168
21.57483248
15.71002426
10.87100318
18.34122124
20.14507436
18.94425176
11.56267526
11.1765543
4.095087104
7.309500584
8.727823907
11.80935179
6.672394123
6.991223751
9.781189579
6.579627715
11.71963714
8.587077139
14.94364904
8.426574956
15.24095195
13.70226678
18.53935682
14.08416627
9.10437839
12.05551687
14.31587101
18.44222974
15.17391292
18.68029511
19.09667994
16.14609449
15.31450968
14.79397363
13.56184659
23.2674963
10.74929928
8.942111138
5.81188554
11.09405053
9.248358093
7.34319685
6.075417721
6.192293467
7.441644133
14.96427463
11.85330749
11.54043166
7.841633537
8.7566032
6.110610921
8.880899846
14.91380029
12.81413611
17.09319981
14.15932197
13.83422372
13.66388087
9.226908972
16.19884897
9.337552021
7.134834201
10.37410306
7.956930968
5.803761288
9.123446983
13.02801939
9.342444908
10.23937183
15.59955193
10.63157702
6.715549421
2.964142387
10.25238887
10.50698945
11.93497195
9.432794701
17.11476793
10.88021046
4.713629946
6.0950813
8.710388601
5.046633771
4.715749971
8.570829505
11.97373051
8.253846103
6.73330133
8.99596117
13.55713764
7.063564907
9.803083131
6.544938668
8.481179648
10.44519706
5.785992799
11.16706256
9.937602739
5.892399936
5.840492572
7.382045078
4.706173414
11.29094126
)
;

boundaryField
{
    flow
    {
        type            zeroGradient;
    }
    obstacle
    {
        type            calculated;
        value           nonuniform List<scalar> 
30
(
2.200289965e-18
6.838668043e-19
1.019264751e-18
4.217139731e-19
0
1.772025451e-18
5.673371163e-19
6.799549474e-18
1.089058285e-18
4.305176077e-18
2.795690652e-18
6.20599777e-19
4.674742088e-18
1.583312977e-18
0
0
1.139288666e-18
2.063465578e-17
1.824121719e-18
9.715370511e-19
1.932703484e-18
7.642551848e-19
2.939699478e-18
2.220070562e-18
0
4.343821484e-18
0
1.220623061e-18
3.059155269e-18
5.581886127e-18
)
;
    }
    frontAndBack
    {
        type            empty;
    }
    procBoundary1to0
    {
        type            processor;
        value           nonuniform List<scalar> 
21
(
5.580676499
8.264226579
20.07246546
8.397932232
9.410483984
14.61114993
9.591416984
7.225349078
12.24572601
9.060075273
13.33114288
10.96630562
5.841493827
6.166063015
9.873492187
6.865166606
6.379011533
5.414630827
8.250728918
7.096867794
6.182082297
)
;
    }
    procBoundary1to3
    {
        type            processor;
        value           nonuniform List<scalar> 
36
(
15.3698031
11.03548458
10.10155987
17.0068292
15.3698031
16.37467977
10.27246446
22.06504999
15.73507149
15.71081011
20.92661329
11.03548458
16.75218649
12.51096665
10.73377711
8.705549803
7.310717634
10.27246446
16.25259494
10.16914784
13.83528283
12.79437531
5.74816162
11.9178777
12.51096665
7.322543383
5.943540404
6.573092564
9.041609837
2.541488358
7.68549303
11.46795094
10.16914784
8.629156263
5.943540404
4.26517071
)
;
    }
}


// ************************************************************************* //
