/*--------------------------------*- C++ -*----------------------------------*\
| =========                 |                                                 |
| \\      /  F ield         | OpenFOAM: The Open Source CFD Toolbox           |
|  \\    /   O peration     | Version:  2406                                  |
|   \\  /    A nd           | Website:  www.openfoam.com                      |
|    \\/     M anipulation  |                                                 |
\*---------------------------------------------------------------------------*/
FoamFile
{
    version     2.0;
    format      ascii;
    arch        "LSB;label=32;scalar=64";
    class       volVectorField;
    location    "0.003";
    object      momentum;
}
// * * * * * * * * * * * * * * * * * * * * * * * * * * * * * * * * * * * * * //

dimensions      [1 -2 -1 0 0 0 0];

internalField   nonuniform List<vector> 
546
(
(0.0107391411 0.003346716819 -0.001838031885)
(0.00560593721 0.001725398293 0.001451733789)
(0.005657431965 0.0009988326645 0.001118975651)
(0.005357617844 0.002125034825 0.001880503854)
(0.005573097268 0.001761071982 0.00123804163)
(0.004611975282 0.0008043326324 -0.001336872031)
(0.00269003862 0.001261436305 0.001967499638)
(0.002999153084 0.003104974222 -0.001501749943)
(0.004866626951 0.002777856375 -0.0005528906252)
(0.006384280327 0.001942183998 -8.419967465e-05)
(0.003138007071 0.00225775831 0.0003197964414)
(0.001926987498 0.002834832938 0.001504825879)
(0.003229531384 0.00191535893 0.0009207890448)
(0.007738697027 -0.000230973867 0.002256772673)
(0.002771919013 0.003280292726 -0.002485534543)
(0.002908228302 0.0004636592277 -0.0003693458616)
(0.002811361001 0.001787115598 -0.0001957659276)
(0.002321196445 0.00249760885 0.001830016236)
(0.003165151875 0.00246884864 0.001130939373)
(0.006063180654 -0.0007042975869 -0.000119970991)
(0.00337083691 0.001735571502 -0.002508812121)
(0.003749196582 0.0002558819477 -0.0002935390878)
(0.001995233976 0.002503778848 0.003189405864)
(-0.0002010199264 0.0023150978 0.001170057452)
(0.002805766003 0.0001276511036 -0.0008334661796)
(0.003868895854 0.002467699717 -0.0009317687494)
(0.004346468676 0.002431518596 0.001141215809)
(0.00102707025 0.001811237709 0.0001604359856)
(0.002513465916 0.001535548805 -0.0006367784857)
(0.003400128884 0.001960097729 -0.002181541111)
(0.00763065301 0.003578750221 0.0005629452393)
(0.01493707375 0.006711234567 0.001739393262)
(0.008192447027 0.004163252669 0.000785950716)
(0.005737346856 0.000901708772 0.001810795432)
(0.007882405349 0.0009231561043 -0.001163894086)
(0.01127485644 0.004840018787 0.002308376278)
(0.009398685301 0.002884914304 0.002624187767)
(0.007094092119 0.004040080127 0.0001722629081)
(0.01129359463 0.002807832351 -0.0008412682308)
(0.008472481178 0.003823522591 0.0005600687459)
(0.007457642028 0.004423585604 -0.001228974186)
(0.005069748143 0.001992044102 -0.002566018057)
(0.009577330327 0.004300946847 -0.002611623863)
(0.007727188415 0.001086484913 -0.0001231478232)
(0.006256650763 0.002402059631 -0.0006369321586)
(0.005155172606 0.00245932091 -0.001119179835)
(0.007402209526 0.001334487584 -0.003780285916)
(0.004571898186 0.00151062658 -0.002550329859)
(0.003396366742 0.0008586899888 3.683671693e-06)
(0.007870244806 0.001903103398 -0.0005328536831)
(-0.0003331213935 -4.476989907e-05 -0.001729463402)
(0.003850415896 0.003066885255 0.0009483185438)
(0.006505556588 -0.0003864781178 0.001738609421)
(0.004931038902 0.002238244798 -0.001493990834)
(0.002516019463 -0.000756022739 0.0006656170689)
(0.005506895063 0.00150595349 -0.001641113983)
(0.004584092919 -0.0009058687929 -0.001825645001)
(0.006163028527 0.00136834926 -0.001535397864)
(0.006932530596 0.0004496601511 -9.651037172e-05)
(0.003044368024 0.0001412953884 0.0008776114858)
(0.01256631002 0.002999473904 0.002290130687)
(0.009031045567 0.00119941231 -0.0002167982972)
(0.01178217459 0.003498434441 -0.001482303736)
(0.00690766661 0.002028142623 -0.0007641120638)
(0.009519168882 0.002926799318 0.001821232017)
(0.01141409284 0.002795884962 -0.0002263279124)
(0.008624126532 0.00403123901 0.001251592226)
(0.01184333243 0.004607298609 -0.0001384911497)
(0.01043274267 0.002129926897 0.002206388368)
(0.01008193386 0.003416963542 -0.0006360316209)
(0.01377138963 0.004521713692 -0.0002704784967)
(0.007697183968 0.0009126274819 0.002041092998)
(0.006669961951 0.001360918297 0.0006522496649)
(0.01111593736 0.003604518311 -2.695895737e-05)
(0.006772382085 0.001713379282 -0.000343926605)
(0.009831393964 0.003082315646 0.0006248044281)
(0.006417092878 0.004379882541 -0.001768977342)
(0.006109237358 0.003412251287 0.0002035800766)
(0.009790979224 0.001580553826 -0.001172496794)
(0.007127008986 0.004574908017 0.003507410911)
(0.007739168562 0.0003921260286 -0.001010918967)
(0.005372570531 -0.0008789989766 0.001857541998)
(0.009218554276 0.0004795836461 0.001498112596)
(0.00394550628 0.00354998217 -0.0003677767286)
(0.006126420321 0.003835900797 4.10564998e-05)
(0.008709640114 0.0002568319901 0.002143206514)
(0.003563774107 0.0005405267788 -0.0009889009578)
(0.00179399698 0.001658131739 0.0009332428607)
(0.003251005749 0.0002481479814 -0.0003584781684)
(0.006821435498 0.002201936451 0.0007267373839)
(0.01331573005 0.006888941669 0.001528979434)
(0.01534606862 0.003019786978 0.002182650653)
(0.009064571848 0.002012567678 -0.0005848368314)
(0.01267194569 0.001757874402 8.006218788e-05)
(0.01182764213 0.005448321293 0.0002842617277)
(0.01338017536 0.002364526476 -0.0006680023454)
(0.01576074026 0.003474483604 -0.0007162345217)
(0.01015490389 0.00402582602 -0.001596870608)
(0.01294144056 0.002459337983 0.001344975106)
(0.007628210757 0.001835939513 0.0005512595225)
(0.008968833826 0.003388813059 -0.0005818370156)
(0.008938075527 0.001596774252 -0.001282216376)
(0.01353794124 0.004706445738 -0.001956584586)
(0.008922052319 0.001432419876 -0.0003622722183)
(0.007505724933 0.00284246558 -0.000887221235)
(0.005803228769 0.00518821441 0.0002119255899)
(0.006622256416 0.002637344672 0.001688892883)
(0.007955075192 0.001452234165 -0.000708938316)
(0.005507914727 0.002317177203 -5.005977206e-06)
(0.006367339591 0.002078749304 -0.001354915218)
(0.004467106528 0.001243166488 -0.002219674249)
(0.006137314134 0.00420950138 -0.001686591955)
(0.006025066616 0.001750979781 0.0003792721655)
(0.00389212959 0.001724313343 -0.002234942977)
(0.003433957201 0.002301180575 -0.0002564885054)
(0.007253102492 0.004048458062 0.002011518516)
(0.006527059259 0.001783500695 0.0003807139853)
(0.008409530167 0.004085605015 0.001337891903)
(0.005738192784 0.003182677416 0.002561933497)
(0.01163347606 -3.880942578e-05 1.791432891e-05)
(0.009265189417 0.002894886569 -3.924796943e-05)
(0.007954916188 0.003071056174 0.0002858939932)
(0.01164796418 0.004249467766 -1.78693884e-06)
(0.0149136771 0.004162543438 0.0001817303632)
(0.01260123454 0.003723319713 9.861093017e-05)
(0.006813506835 0.004289394978 -0.0008572034292)
(0.01095800562 0.003632350111 0.001833342876)
(0.008258283064 0.002994881386 -0.0008514616798)
(0.006909332087 0.005363397722 0.001334778091)
(0.009427143704 0.005386173666 -0.0008213651678)
(0.009558657064 0.001834573249 0.0005199977893)
(0.01178979892 0.004380724602 0.001115280003)
(0.01200612574 0.00332833517 -0.0006339216884)
(0.01299159072 0.005282370753 0.002067799534)
(0.007755980976 0.002019250488 -0.00190210119)
(0.006262943855 0.00220952514 -0.003042676879)
(0.008396483566 0.002978379216 -0.001402498725)
(0.00571634134 0.00523260822 0.0004364904119)
(0.01038411597 0.003055925678 -0.0001351969788)
(0.01023281027 0.001436883035 0.0007354366317)
(0.01075889535 0.004395171931 -0.0008191731425)
(0.01216268023 0.002648269587 -0.002758979678)
(0.01056579828 0.003983015934 -0.001973209938)
(0.006927817241 0.001408652113 -0.000347630657)
(0.004516355188 0.001656307695 -0.0002486024696)
(0.006657823944 0.001207869734 -0.001514230602)
(0.01140950461 0.002955140436 0.001938788471)
(0.004655018217 0.001778960275 5.465284626e-05)
(0.01023452689 0.001622256145 -0.002197126164)
(0.002935140839 -0.000416022397 0.001252359215)
(0.008733521802 0.001299362996 0.0005428316054)
(0.005859520157 0.003517643012 0.0002589472054)
(0.009692071736 0.00149201914 0.0004714903384)
(0.008570452362 0.002432240728 -0.001421648141)
(0.01373894811 0.004788288345 0.0002984569353)
(0.01169346913 0.004631336122 9.521762809e-05)
(0.0183421861 0.004100916247 0.002609290481)
(0.01311366558 0.003273077264 -0.0003359434195)
(0.01267201452 0.002025345753 -0.0001745094435)
(0.0107432969 0.003684551015 0.001526008441)
(0.01545712298 0.002778488479 0.0006493863504)
(0.01771516502 0.005794436196 0.0002472554212)
(0.01293294089 0.002913783173 0.0004199048365)
(0.01051637167 0.001149882322 -0.0009745165166)
(0.008177106424 0.002802063816 -0.001471347762)
(0.01518880953 0.004095176059 0.001465594809)
(0.007451109966 0.004265861743 0.002387866535)
(0.006682059403 0.001522867523 -6.41593151e-05)
(0.009944508337 0.00417943942 -0.001469858485)
(0.004502146274 0.002464446988 0.002029106005)
(0.01178396759 0.002783514753 -0.002104104508)
(0.007569182966 0.003771448458 0.002361973364)
(0.0110851756 0.002557007534 0.0006932036792)
(0.01098218115 0.005163329659 -5.724624367e-05)
(0.007548217779 0.001397297652 -0.0006894693257)
(0.005715165718 0.003486546595 -0.0004461641436)
(0.01036630557 0.002499712367 -0.001126910368)
(0.004712990031 0.00180250879 -0.001733894493)
(0.01285160274 0.002355203108 0.0006042883587)
(0.005581074518 0.001935620908 -2.440566835e-05)
(0.01021196472 0.006126949662 0.001313431742)
(0.01134306496 0.004612325022 -0.001240078439)
(0.003959000461 0.0001106079258 -6.495810445e-05)
(0.01176750937 0.001711597181 -0.0002507473638)
(0.0100764571 0.00309548416 0.001148979878)
(0.007817712146 0.002881779922 -0.002209275565)
(0.01637481865 0.003188350496 0.001103689776)
(0.01126575211 0.004224527694 -0.0007002027186)
(0.01417005716 0.003552107224 -0.002110615566)
(0.01008720302 0.002903018728 -0.0001209253892)
(0.01374601534 0.003643662032 -0.0006052941606)
(0.01837359787 0.005577337898 -0.001266478614)
(0.01030292925 0.007360744736 0.0001526605702)
(0.009850684234 0.003130687107 0.000314318348)
(0.009257950675 0.005087010466 0.0004907898166)
(0.005881903906 0.003655589274 -7.775365487e-05)
(0.007341539613 0.002903558474 0.001607322808)
(0.009740839192 0.003603035007 0.002649973386)
(0.008189038505 0.002480599044 -0.0009376458699)
(0.0105625005 0.004972926941 -0.0006934921463)
(0.01094280896 0.001963934841 -0.0007724236219)
(0.009654944284 0.005278512692 0.001065150469)
(0.007724295418 0.003002273399 -0.002925304704)
(0.008284970774 0.003920616954 0.0004007463231)
(0.00824623026 0.004223595008 -0.0008922302693)
(0.01459022571 0.001350608788 0.001609282117)
(0.00959122047 0.003295732601 0.0003076169636)
(0.008447258246 0.003284242043 -1.365437011e-06)
(0.01060896033 0.002723562975 -0.001674165672)
(0.004408147994 0.001862155269 -0.0003037750679)
(0.0166555815 0.002998355399 -0.0003072086147)
(0.007794569901 0.00202864036 -0.0009150689042)
(0.01193554459 0.004242839413 0.0009787532629)
(0.01391489301 0.003171168887 -0.0005690847774)
(0.009922640033 0.005380228776 0.001198920322)
(0.01683965017 0.006206433707 -0.0008147593204)
(0.01412588788 0.006727838768 0.0002097394681)
(0.01415645904 0.005616863784 9.56120535e-05)
(0.01713486227 0.004350814682 0.002437672483)
(0.01181540799 0.00389185367 -0.001197085374)
(0.009109303813 0.002393210384 -0.002030979432)
(0.01479610624 0.004957360099 0.001556791483)
(0.01660435207 0.005558045063 -0.0009118423021)
(0.01259065865 0.004013740957 -0.00207101064)
(0.0123502375 0.005742947747 -0.001097623823)
(0.01475849634 0.005864437979 0.0001396790742)
(0.01343533817 0.003813391328 0.001729672184)
(0.01347512119 0.003531283552 0.002153336116)
(0.01308491296 0.004409677524 0.0002368843593)
(0.01328620166 0.008426211015 -0.0004182237708)
(0.005037994597 0.001770403384 0.0006516483227)
(0.0129772126 0.001131220136 -0.003473403204)
(0.007502712356 0.003675132674 0.0009294367157)
(0.009964568787 0.002362566041 0.001482274643)
(0.01170143899 0.003076453066 0.0006939359423)
(0.009324950638 0.002022117654 -0.001649997237)
(0.01221457743 0.00187649366 4.699354863e-05)
(0.009148836642 0.003732793601 0.00234261839)
(0.00859186291 0.002475142435 -0.0009019780278)
(0.008345948694 0.0005930323692 0.001118254114)
(0.01039071258 0.0009571926374 -0.0001979091692)
(0.01047240195 0.00265512722 -0.0006539311177)
(0.01246839904 0.00216064442 -0.0009214442226)
(0.008845447662 0.002108317884 -0.0004138603505)
(0.01275065146 0.004245109445 0.001128689298)
(0.01329185738 0.005029930513 0.0004961952906)
(0.01892154519 0.006473622681 -0.0002513978976)
(0.01484718298 0.005618307766 1.861506206e-05)
(0.01875701354 0.006607386154 0.0009725393866)
(0.01391850241 0.005240410362 -0.001622102953)
(0.01284506505 0.006573291858 0.0006621863489)
(0.008526875308 0.001700210759 0.001275109529)
(0.00794530828 0.003101793446 -0.0004927209183)
(0.01198702398 0.004595795545 -0.0003130715294)
(0.01809230221 0.005217933473 0.0005280495375)
(0.01431869932 0.003198814659 0.00091858195)
(0.009987517477 0.003664483157 -0.003208462886)
(0.0143251432 0.004507729741 0.0004808171775)
(0.009441322367 0.004266364566 0.0003530165793)
(0.0107647638 0.003175376401 0.0001918083505)
(0.01923422564 0.003956007897 -0.001383716103)
(0.0148817541 0.003053196506 -0.002425445709)
(0.01022074046 0.003322897699 -0.001500252199)
(0.01100745501 0.004691160695 8.782273807e-05)
(0.01153356861 0.002932298427 0.0009839100621)
(0.01092999988 0.005190348191 -0.0001053133999)
(0.007427317391 0.003634429839 0.0009517039071)
(0.01278555873 0.005542904106 0.001213892731)
(0.01311193346 0.002880959623 0.001428398996)
(0.01368998156 0.003602793297 0.0005379607245)
(0.006227025063 0.0008963437918 -0.001154266619)
(0.006104748398 0.0009795377074 0.0002754448788)
(0.01146064275 0.001998541349 0.0009293312415)
(0.00847253458 0.002928786229 -0.001225691624)
(0.01209569094 0.001540313316 0.001735833663)
(0.01000683017 0.003171783631 -0.0004958058779)
(0.007392338277 0.003772108884 -1.182004311e-05)
(0.01723232096 0.004673623569 0.002641180952)
(0.008362305379 0.005107074826 -0.0003964617747)
(0.01508286343 0.006111050776 -0.0005611878097)
(0.01237319663 0.005715662096 0.001936582764)
(0.0127581998 0.005334912371 0.0003151961127)
(0.01807963564 0.006969453465 0.001285007828)
(0.01203354776 0.005026373322 -0.0003767343953)
(0.02095946334 0.006838171718 0.0009994994818)
(0.01221131836 0.002329490353 0.001877772979)
(0.01227063202 0.003467777607 0.0002430851804)
(0.00955174446 0.003153281694 -0.0006831656101)
(0.02462058972 0.005809333912 9.753907771e-05)
(0.01967219601 0.007076454911 0.001345522194)
(0.01838383004 0.004020740469 -0.002043574234)
(0.01207003149 0.005341467554 -0.001995406284)
(0.01134669021 0.005166931372 -0.001587111201)
(0.01189664634 0.003481997528 -0.0007431210597)
(0.01178122558 0.001228006117 -0.001741779801)
(0.006907733543 0.003235356511 -2.884948503e-05)
(0.008891382002 0.003294158584 0.001536662525)
(0.01284490562 0.003476547038 -0.001168178972)
(0.01564629876 0.003908977273 -0.003027462907)
(0.01485344044 0.003614057839 0.0007376232648)
(0.01527881084 0.001185453054 -0.0002260331267)
(0.006310574537 0.0006948736525 0.0005012492442)
(0.01205750535 0.002966525842 0.0004220510693)
(0.01399702157 0.00139371 0.001121351471)
(0.009896348576 0.002418172115 -0.001275755232)
(0.008095274478 0.002769177304 0.000527672527)
(0.01333596907 0.001286510892 -0.000775884191)
(0.02213503395 0.004418456403 0.001892885793)
(0.0112880441 0.004094066583 -0.0005743508399)
(0.02027012434 0.005363028597 0.0007273133224)
(0.01514661648 0.003490117574 -0.0003056366678)
(0.009296001182 0.004054489164 -0.0002101626048)
(0.01827155675 0.003663150936 -0.001339216162)
(0.01313504376 0.004026558942 0.0004208133743)
(0.01630807613 0.005297727881 0.0009048470472)
(0.01503991938 0.007118977227 0.0005172426641)
(0.0134528661 0.003005006944 0.001312924958)
(0.01346211379 0.00439896863 5.718619123e-05)
(0.00823410966 0.003805661602 -0.00174513687)
(0.0149883644 0.003359063054 0.0007903210578)
(0.01046546619 0.005439237203 0.003318910211)
(0.01032963063 0.004327860729 0.0007280481427)
(0.01489789797 0.002073659317 -0.001860066209)
(0.01909971612 0.006773295338 0.001772487697)
(0.01862025169 0.009482145641 -0.0001490356065)
(0.009707363827 0.005077049209 0.0001818954798)
(0.006204007892 0.001997844673 -0.0007947825268)
(0.007489752114 0.003037791888 0.0008272818561)
(0.01589377362 0.003273397153 -0.000872356714)
(0.00875736637 0.005095483806 -0.001738504217)
(0.009115723725 0.0008628599943 -0.000337463745)
(0.004111965456 -0.0001578063469 -0.0001727600873)
(0.01293823853 0.0009934576688 -0.000463180568)
(0.007997499928 0.0004329869506 -0.0005363303846)
(0.005735841072 0.001204037801 0.0006039624892)
(0.0110842473 0.002557452694 0.001196807586)
(0.00722145636 0.001911948257 0.000584586761)
(0.01186271354 0.001356937354 -3.314730903e-05)
(0.006949222723 0.002469845796 0.0001106804459)
(0.01274498114 0.005720551913 0.001944893963)
(0.02066254582 0.003710427644 0.0001804189131)
(0.01632559857 0.006759933683 0.000893650642)
(0.01161332733 0.003999803342 -0.0007721918389)
(0.01526974005 0.005443837237 0.0001989949793)
(0.008333805955 0.004044026385 0.0003005071586)
(0.01577438814 0.006207767933 0.001399181686)
(0.01666158894 0.00646598929 -0.001471470991)
(0.01436952726 0.004887154349 0.0007123306745)
(0.01768866473 0.0055213414 0.002243120374)
(0.02058243606 0.004339616379 -0.0005774082053)
(0.0107227506 0.004061056359 -0.0002171305332)
(0.01169925547 0.002675453832 -8.767396363e-05)
(0.01384778415 0.006358836229 0.001774840105)
(0.01104350333 0.003833251855 0.0002739615895)
(0.01301195818 0.005907100374 0.0003442357537)
(0.009933701622 0.003071462613 -0.0003394284802)
(0.01255021174 0.004440482351 -0.0008448622322)
(0.01413223279 0.003420838243 -0.0004438648205)
(0.01389050458 0.006682620039 -0.001844643888)
(0.0115969979 0.002819803616 -4.512810651e-05)
(0.01390297054 0.00160434294 0.0006456307524)
(0.006382127527 0.001130991954 -0.0001110087981)
(0.009989483226 -0.0002171818111 -0.0005562481356)
(0.007279150439 -0.0002020000135 0.0002692980021)
(0.01528428059 0.0003443740768 -0.0001291038673)
(0.01093232897 0.001533050017 -4.760843626e-05)
(0.01403208321 0.001249294807 0.001316748709)
(0.00722022493 0.0001461211618 -0.001048325043)
(0.01060126782 0.002671977399 -0.001247934715)
(0.01051082432 0.004247432698 0.0007814554641)
(0.01068080336 0.001440163867 0.0001401261986)
(0.01591272366 0.006539242208 0.0003857426188)
(0.01195538009 0.005608478891 -0.001395222963)
(0.01869001766 0.005746520465 -0.0005944755465)
(0.01234769001 0.005802542015 0.0008980391712)
(0.01256721789 0.002694008006 -0.0006603033663)
(0.01321604677 0.002520590493 0.0005375824171)
(0.00944236813 0.003430350323 -1.677824568e-05)
(0.01399430417 0.003360797546 0.0001692327319)
(0.01837543662 0.005258572037 0.001810244252)
(0.02454971901 0.007754777583 -0.00182949934)
(0.01207750169 0.002361218062 -0.001106030919)
(0.01476411947 0.004610881436 0.00217118472)
(0.02042113081 0.006394173894 -0.0009178074218)
(0.01110654076 0.002828058385 -8.664561904e-05)
(0.0126375167 0.00442839839 0.001691006369)
(0.01051427907 0.002663954989 -0.001530078464)
(0.01252842498 0.002777699857 -0.0014294412)
(0.01744387544 0.002597501445 0.00166662783)
(0.01229311133 0.004332242851 0.001227941943)
(0.0115361011 0.0008354118741 -0.0005120268885)
(0.01024683244 0.001383845186 -0.0004851015585)
(0.008102615104 0.001016020458 -0.0003414261695)
(0.006380042981 0.001175386149 -0.0003985158387)
(0.01613849366 0.003170883299 -6.279379416e-05)
(0.008859951912 0.0004601059474 -0.001305730311)
(0.007017604776 0.002523704447 -0.000280054588)
(0.008972406976 0.001912164704 0.000631407776)
(0.01836012133 0.004942271048 -0.0008492666306)
(0.01377838383 0.0005297600391 -0.0009214987734)
(0.01274235336 0.0009606261178 -0.0007124184154)
(0.01587230904 0.003827297788 0.0008783448057)
(0.01515210591 0.002364994308 0.0003376431197)
(0.00953669807 0.003049803409 0.0002870491591)
(0.01456452434 0.004306133581 -0.0005892560689)
(0.01363542173 0.003008797467 0.000746473926)
(0.01756191976 0.005739474697 6.382693476e-05)
(0.02183438608 0.005266137707 -0.0004803518615)
(0.01128940861 0.002539540047 0.000160173294)
(0.01382448191 0.002882305613 0.002006707683)
(0.01334345728 0.004671048024 -0.001829828283)
(0.02284192985 0.007523716979 0.002379386286)
(0.02051153063 0.005061778923 0.0001337014623)
(0.02427767698 0.008778980488 -0.001504955265)
(0.01146947532 0.002685396895 -0.0009813410949)
(0.01242468609 0.002694360864 0.0001269622039)
(0.01748287214 0.007492967366 0.0002696765802)
(0.01763640065 0.004833698265 -0.0008175135778)
(0.0208366217 0.008998433333 -0.003498906547)
(0.01428551221 0.00432488654 -5.474990142e-05)
(0.008860956556 0.0009208056399 -0.00081895634)
(0.009955680104 0.001258312781 0.0004780250641)
(0.008870225454 0.000855718405 0.001116419879)
(0.008756906311 0.0002647832803 -0.0001817430021)
(0.009156108118 0.000672425138 -8.453301047e-06)
(0.008275615647 0.001255583319 -0.000128860184)
(0.008047369169 0.001440933375 0.0007795642331)
(0.01023305329 0.002591587693 -0.000177216465)
(0.01336457709 0.0005184213138 -0.001066870572)
(0.01127346235 0.002412444648 -0.0003857355426)
(0.007454207032 0.00225641889 -0.0002660749064)
(0.01203034596 0.002044283908 0.0006181480794)
(0.009139762659 0.002907034136 0.001194426836)
(0.01395984916 0.005696091977 -0.0009469580776)
(0.01216387906 0.002651333926 -0.000554969407)
(0.01402039502 0.004298630732 0.0008866153637)
(0.01261236183 0.00366221974 0.001425918359)
(0.02023285095 0.007122126961 0.001810106004)
(0.01763378487 0.003769832011 -0.001225202488)
(0.01316107582 0.007081285259 0.0003059551538)
(0.02450088018 0.005096816144 0.0007065275849)
(0.0120951854 0.002789803951 -0.001507454191)
(0.01397168983 0.004824912525 -0.0009716176166)
(0.02056964816 0.00672580439 -0.0001366724099)
(0.016170069 0.003815653203 -0.0004143772778)
(0.01096833385 0.004294578815 -0.0007027435953)
(0.02034115864 0.004771453064 0.002426307918)
(0.01870117336 0.009465929998 -0.0006040004839)
(0.02037801424 0.003043819667 -0.0004188650273)
(0.01292304942 0.00162847459 0.002728018917)
(0.01147522201 0.0003157017292 0.0003185375209)
(0.004493780685 0.0001380552224 6.05503687e-05)
(0.0079372082 -5.077576784e-05 -0.0009876495281)
(0.008771228658 0.001303018752 2.989354373e-05)
(0.01312018697 0.0002026722607 0.001089053606)
(0.006851601675 0.001365320258 0.0001610826053)
(0.006954608468 0.001383236942 -0.0004574001771)
(0.01043418471 0.0004350007813 0.001196878834)
(0.006700600811 0.001265288799 -0.00104157777)
(0.0120325312 0.002247587954 -0.0002748062637)
(0.008963254743 0.001628945353 0.000793460916)
(0.01669601289 0.002020207271 -0.0003705982852)
(0.007736881041 0.001723528452 -0.0002219467966)
(0.01572028587 0.003374406922 4.690294809e-06)
(0.01257310559 0.002392507678 -0.001269368976)
(0.01668624565 0.005100987563 0.0008595347907)
(0.01387342785 0.004974241114 0.0001753038296)
(0.01018904245 0.003405667114 -0.0013135498)
(0.01207596003 0.003302675366 -0.0001592570988)
(0.01395711225 0.00638089195 0.0001097078459)
(0.01808861947 0.005983624657 -0.0006708226502)
(0.01789007122 0.004969635176 -0.0009360472887)
(0.01889631603 0.004022368494 -0.0004547519524)
(0.01843514055 0.007664303207 -2.419951861e-05)
(0.01537456275 0.004227062991 0.001145787271)
(0.01578379024 0.003342925806 -0.0001675455567)
(0.01449256797 0.004742788953 0.001061307944)
(0.01355206553 0.005613451301 0.001210261307)
(0.0237927494 0.006258120505 -0.0008956426684)
(0.01071997097 0.001005018399 -0.0006358953818)
(0.008585375029 0.001308801016 0.0005917978757)
(0.006253720016 0.0004262075386 -0.0002508678114)
(0.01168451686 -0.0002804700026 0.0003484924681)
(0.009969642147 -8.276485113e-05 0.0003846907358)
(0.007732004076 0.0004908790143 -0.001140201542)
(0.007487599256 -0.0003490950754 -0.0007581488504)
(0.006902852978 -0.0004745471997 0.0002748091296)
(0.007468185069 0.001445802165 -0.0007665200782)
(0.01477792426 0.001486516716 0.0006768929794)
(0.01242616928 0.0003791724213 0.0002066975899)
(0.0116365988 0.002033988857 0.0004294503076)
(0.008405337542 0.001103633013 -0.0002192785466)
(0.009319006094 0.003232995648 0.000124067537)
(0.007408247238 0.0008743161828 0.000728636518)
(0.009634596044 0.001926026756 0.0007606569294)
(0.01549467192 0.00602977291 -0.0007214145311)
(0.0134991551 0.003931406125 0.001316192581)
(0.01831997649 0.005857936444 -0.0006017574921)
(0.01434769531 0.005372844254 0.001118014765)
(0.014288043 0.004832202731 -0.0009262739109)
(0.01266108736 0.00571973201 0.0008161373888)
(0.009108743742 0.003914152252 0.0008863481146)
(0.01653682425 0.007789617432 -0.001719744296)
(0.01104280801 0.002588099097 -0.001055926865)
(0.007978030063 -0.000160137079 0.0004359931359)
(0.01016744714 -0.0003330082704 0.0008004009363)
(0.009630252133 0.0002495863678 0.0007345935365)
(0.006456964137 1.832209084e-05 -0.0003468125325)
(0.009145343999 -4.870710367e-05 -0.0004870363531)
(0.01276650138 0.0004206757795 0.0007668477238)
(0.009968879664 -0.0003678941389 -0.0003580031209)
(0.01052728175 0.0007114822061 -0.0002049844254)
(0.01512549097 0.0009020750516 0.001635767979)
(0.01103154278 0.002768156748 3.139772473e-05)
(0.007081640808 0.0007430898319 -0.0002934956717)
(0.003435809575 0.0001971561061 9.708821715e-05)
(0.01098660738 0.001812796479 0.0001238583678)
(0.01103576878 0.001304097137 0.001392501809)
(0.01174107166 0.002430213493 -0.0009322104087)
(0.009488402463 0.002275872036 -0.0004206846386)
(0.0154616007 0.003892475137 0.001905423154)
(0.01102525453 0.0009488148225 -0.002007343668)
(0.005899860738 0.001714198633 0.0007474325502)
(0.006635445399 2.687727328e-05 -8.127711956e-05)
(0.009268041524 0.0005565149222 -0.0007629706867)
(0.006034128842 -0.0005703280387 -2.582667547e-05)
(0.005820886085 -0.0002745533921 0.0003954584508)
(0.008900531128 -0.0003988914379 -0.0008072778294)
(0.01207259507 0.0003176129005 5.631691771e-05)
(0.008756447047 -0.0003119179965 -0.001125504515)
(0.006997741844 0.0001971782807 0.000398599572)
(0.009481036601 0.0001097043948 -0.0006201438037)
(0.01443091368 0.0008745355841 -8.056499959e-05)
(0.007197352871 0.0006490156184 5.889497144e-05)
(0.00911477445 0.001645758746 -0.0003194390497)
(0.006185922042 0.001076112011 0.001145716631)
(0.00830022891 0.0009855782993 -0.0007164720581)
(0.01080689794 0.0002131411034 0.0004558571869)
(0.006311260388 -0.0001363696973 -0.0002759038786)
(0.01204307569 0.000103407948 0.000259244754)
(0.01138095955 0.001203906433 4.925416191e-05)
(0.006892749673 0.0006638409663 -2.03154293e-05)
(0.00641972493 0.0005360807113 0.0008255404565)
(0.008750969916 0.0006630033788 -0.000410057059)
(0.004791004476 0.0001937637109 -0.0004966496235)
(0.0114916763 -0.0001296676185 -0.0001359035793)
)
;

boundaryField
{
    flow
    {
        type            zeroGradient;
    }
    obstacle
    {
        type            calculated;
        value           nonuniform List<vector> 
30
(
(1.178894049e-21 3.158837089e-22 -1.020065137e-21)
(5.521291156e-22 1.479425509e-22 -1.870383995e-22)
(-1.302726433e-21 -3.490644946e-22 4.492240175e-25)
(-5.094509595e-22 -1.365069734e-22 4.140625035e-22)
(0 0 0)
(2.102498313e-21 5.63362726e-22 -7.277429615e-22)
(4.717266841e-22 1.263987843e-22 -3.445406526e-22)
(2.814489511e-21 7.541401891e-22 -1.318741996e-21)
(-7.092505174e-22 -1.900431037e-22 -5.401390285e-22)
(5.867370336e-22 1.572157146e-22 1.579883712e-22)
(-9.647363624e-22 -2.585003284e-22 9.224059475e-23)
(-2.419453429e-22 -6.482905937e-23 1.314051659e-21)
(2.026545497e-21 5.430112303e-22 4.659206778e-21)
(2.529354636e-21 6.777385301e-22 2.764272071e-21)
(0 0 0)
(0 0 0)
(-1.00643181e-21 -2.696725912e-22 7.829422749e-22)
(4.02039799e-20 1.077262397e-20 1.899926719e-20)
(3.1263816e-21 8.377114225e-22 1.791891401e-21)
(1.349331255e-21 3.615522208e-22 -5.88044082e-22)
(5.205816566e-22 1.394894347e-22 -2.972596462e-21)
(6.505945153e-22 1.743262744e-22 7.642877323e-22)
(2.274544922e-21 6.094624761e-22 7.35588327e-22)
(3.56711445e-21 9.55805438e-22 1.741450364e-21)
(0 0 0)
(3.095386173e-21 8.294062267e-22 -2.437814595e-21)
(0 0 0)
(-5.414186914e-23 -1.450727014e-23 -2.909472867e-22)
(2.095021669e-22 5.613593653e-23 -2.073423916e-21)
(7.418413712e-21 1.987757957e-21 9.876476582e-22)
)
;
    }
    frontAndBack
    {
        type            empty;
    }
    procBoundary1to0
    {
        type            processor;
        value           nonuniform List<vector> 
21
(
(0.003664580443 0.001964578103 0.001218292661)
(0.007748603403 0.0004696737942 -0.0003154409339)
(0.02100953289 0.004521949758 0.002520876401)
(0.009906789535 0.002254974877 -0.001956949443)
(0.01064475691 0.002630953332 -0.0004080266987)
(0.0141309257 0.002206762854 0.000552676252)
(0.01019224419 0.002471993909 0.0004040839222)
(0.008358009674 0.001506356501 -0.001116120562)
(0.01230774248 0.00207924973 -0.0008461701486)
(0.008973498848 0.001097615685 0.0005985463728)
(0.01214101075 0.001136574003 -0.0006168412832)
(0.011697129 0.001532650191 0.0002464648034)
(0.006820908675 7.691161324e-05 -6.816663837e-05)
(0.006749915958 -0.0007368240044 0.0002659413379)
(0.01037291931 -0.0004048856556 -0.0002394236127)
(0.007680898274 -0.0001696724142 0.0001440827979)
(0.007177462629 0.001488548944 0.0001823877956)
(0.00602849542 0.0001111354061 -0.0001626308007)
(0.008754253383 0.0007180809847 -0.0006621866369)
(0.007542450808 0.0006956018914 0.000641244927)
(0.006568537199 0.0003131347294 0.001108436245)
)
;
    }
    procBoundary1to3
    {
        type            processor;
        value           nonuniform List<vector> 
36
(
(0.0167598657 0.004636847217 -0.0004736815913)
(0.01280678525 0.00154073214 0.0004508094969)
(0.01006481661 0.006247578559 -0.0005416890419)
(0.01703989909 0.005961355059 -0.0002947658448)
(0.0167598657 0.004636847217 -0.0004736815913)
(0.01379158179 0.005097058091 -0.002246797564)