/*--------------------------------*- C++ -*----------------------------------*\
| =========                 |                                                 |
| \\      /  F ield         | OpenFOAM: The Open Source CFD Toolbox           |
|  \\    /   O peration     | Version:  2406                                  |
|   \\  /    A nd           | Website:  www.openfoam.com                      |
|    \\/     M anipulation  |                                                 |
\*---------------------------------------------------------------------------*/
FoamFile
{
    version     2.0;
    format      ascii;
    arch        "LSB;label=32;scalar=64";
    class       volVectorField;
    location    "0.003";
    object      momentumMean;
}
// * * * * * * * * * * * * * * * * * * * * * * * * * * * * * * * * * * * * * //

dimensions      [1 -2 -1 0 0 0 0];

internalField   nonuniform List<vector> 
546
(
(0.005490034853 0.001533556833 0.0001216687059)
(0.005140940219 0.001486726034 6.523193672e-05)
(0.005020745076 0.00140233822 1.419463998e-05)
(0.004789974382 0.001321897698 -0.0001582070188)
(0.004676275997 0.001261363326 -9.894875042e-05)
(0.004652983153 0.001259223715 -0.0001411942568)
(0.004588148805 0.001181403161 -0.0001570632016)
(0.004455579984 0.001292921414 -3.039622902e-05)
(0.004368503116 0.001169220297 0.0001152183712)
(0.004166958332 0.001181423478 -1.831294516e-05)
(0.003996219797 0.001151787517 2.755340393e-05)
(0.003853602005 0.001030684733 -1.790802122e-05)
(0.003685532351 0.001046930489 -0.0001837886419)
(0.00371462604 0.0009512781657 6.755888298e-05)
(0.003634009326 0.001002699283 2.112892363e-05)
(0.003549243003 0.0009459362795 -0.0001355177751)
(0.003403609978 0.0009687023825 -4.737780679e-05)
(0.003396812982 0.000907371169 0.000100641003)
(0.003202023953 0.0009332837413 0.0001298803013)
(0.003160578965 0.0008058100234 -9.409919706e-05)
(0.003237392331 0.0008233754168 -0.0001227534876)
(0.003311292125 0.0008647222906 -5.164942849e-05)
(0.003196944282 0.0009028000515 0.0001257210952)
(0.003293823601 0.0008005512671 0.0001617245051)
(0.003311402489 0.0008309981605 -4.39038745e-05)
(0.003273962669 0.0009165816564 -9.264407785e-05)
(0.003223706341 0.0008678674513 1.669125783e-05)
(0.003260165706 0.000832369083 0.0001217205281)
(0.003335433753 0.0008421643286 0.0001375447146)
(0.003686946517 0.0006870896224 8.197920383e-07)
(0.008474720588 0.002646585274 -4.610285263e-05)
(0.008283701016 0.002464145105 -9.791844772e-05)
(0.007932895465 0.002291054227 -6.914406958e-05)
(0.007740145898 0.002314860942 -3.121291006e-05)
(0.007566039751 0.002067307653 -8.169179943e-05)
(0.007413851155 0.002086424001 -0.0001445399267)
(0.007045686644 0.00199978631 -8.689236274e-05)
(0.006919603267 0.001946188548 -5.569801269e-05)
(0.006694580412 0.001953143784 -0.0001208364139)
(0.00652875053 0.001929299965 -7.723445983e-05)
(0.006292913178 0.001942295645 9.460414793e-05)
(0.00613947204 0.001741883727 -1.625513458e-05)
(0.00593650372 0.001720447982 -0.0001252409702)
(0.005815046191 0.001546728074 0.0001381765068)
(0.005639927881 0.001538095553 9.371702698e-05)
(0.005518746328 0.00162348953 -8.496087459e-05)
(0.005354324415 0.001529354911 -4.476694007e-05)
(0.005238507165 0.001436295627 3.848724447e-06)
(0.005135861699 0.001498132208 4.305788451e-05)
(0.005008853423 0.001338713358 -4.587340209e-06)
(0.004952358404 0.001196271413 -4.580215331e-05)
(0.00484903986 0.001321310462 9.714407261e-05)
(0.004917381267 0.001330468608 -0.000153707844)
(0.004825362407 0.001159976483 -3.306804811e-05)
(0.004751247088 0.001264201477 -3.339557512e-05)
(0.004747132353 0.00130813431 -1.905265291e-05)
(0.004764396791 0.001261503124 0.0001239656667)
(0.004666036924 0.001172592189 2.349590495e-05)
(0.004803804812 0.001110155516 -1.634407851e-05)
(0.005058765942 0.0006857954654 -6.488482379e-05)
(0.0103077181 0.003276651479 -8.366192829e-05)
(0.01023697097 0.003167243691 -0.0001223670878)
(0.009975199576 0.003080803309 -0.000124683158)
(0.009626034006 0.002888212757 -0.000150151422)
(0.009236512907 0.002729509862 -2.975227216e-05)
(0.008826561381 0.002684168001 -7.420771146e-05)
(0.008772461508 0.002610524353 -0.000162119948)
(0.008426073455 0.002547408652 -0.0002240624115)
(0.008276826352 0.002479790094 -0.0001753135109)
(0.00808871895 0.002394039499 -8.125410534e-05)
(0.008034795536 0.002529903025 -2.196072076e-05)
(0.007824903156 0.002364926535 5.32448063e-05)
(0.007625578499 0.002196842077 2.697422384e-05)
(0.007243581804 0.002113054069 -4.73283141e-05)
(0.007125633672 0.002026415827 4.344146304e-05)
(0.007050774684 0.002068243352 6.171717117e-05)
(0.006995359977 0.002027770469 -1.790514523e-05)
(0.006752965539 0.001922114292 -2.697620903e-05)
(0.006701010771 0.001965383211 -5.246688586e-06)
(0.006591954465 0.001814750476 4.334563964e-05)
(0.006502286795 0.001659877059 -3.947279034e-05)
(0.006471706612 0.001656426135 -3.377675418e-05)
(0.006409146263 0.001771006836 -0.0001176219229)
(0.006148038188 0.001663652603 -2.166460303e-05)
(0.005965391513 0.001613641973 -9.242068524e-05)
(0.005897266348 0.001566287078 3.577728226e-05)
(0.005897810886 0.00155946159 4.283312259e-05)
(0.006020618468 0.001521686718 4.482221589e-05)
(0.00599649075 0.001287012315 -3.71431441e-05)
(0.00608304304 0.0008562491514 -5.853192266e-05)
(0.01148698833 0.003573566974 2.936129859e-05)
(0.01139211263 0.003592087868 -4.861521261e-05)
(0.01125739308 0.003629064872 -9.924272637e-05)
(0.01101367179 0.003570589468 -0.000106011848)
(0.01090914262 0.00349604415 -8.845261865e-05)
(0.01065887169 0.003179050316 -3.202912843e-05)
(0.01034931558 0.003210528302 -5.192184646e-06)
(0.0101814042 0.003158395904 2.229974218e-05)
(0.00985036738 0.003073600721 -6.130262919e-05)
(0.009621370002 0.002963340585 -9.391527265e-05)
(0.009448904996 0.002883845867 -6.061169785e-05)
(0.009147904439 0.002848853417 -3.796704655e-05)
(0.008996822286 0.00275148236 -8.701580799e-05)
(0.008893852738 0.002706796201 -0.0001702061955)
(0.00859166646 0.002546089767 6.648394528e-05)
(0.008314218373 0.002413482395 -8.525246095e-06)
(0.008212636945 0.002468042554 0.0001329558337)
(0.008096483416 0.002313783391 1.727044896e-05)
(0.007988191956 0.002347394906 -6.84415781e-05)
(0.007904818042 0.002221446928 1.573337826e-05)
(0.007702632215 0.002004410548 8.603280096e-05)
(0.007432671722 0.001998909678 4.54162604e-05)
(0.007286291606 0.002127716902 -8.478784518e-05)
(0.007168175144 0.00208862101 1.849097094e-05)
(0.007162112166 0.001949737099 9.417728424e-06)
(0.007027047158 0.001862796534 -3.119163517e-06)
(0.006851933969 0.001771995553 -4.141085574e-05)
(0.006935220519 0.001719943593 1.559555431e-05)
(0.006902916867 0.001410049836 2.89798463e-05)
(0.006945863933 0.001176304014 0.0001494655051)
(0.01205014179 0.003653972108 -6.281533697e-05)
(0.01203976304 0.00379397602 4.951407702e-05)
(0.0121938348 0.003953068766 1.211368232e-05)
(0.0122012017 0.003910875021 -3.785072777e-05)
(0.01202310092 0.003837035245 4.800522325e-06)
(0.01168885075 0.00380045806 -4.122639964e-05)
(0.01151723599 0.003640382062 -2.7345805e-06)
(0.0113539346 0.003554298405 -0.0001083889252)
(0.01125456718 0.003636011697 -0.0002418147949)
(0.01094770899 0.003429925963 -0.000135473408)
(0.01080567951 0.003374281267 -0.0001624613368)
(0.0107085179 0.00338198285 -4.004066377e-05)
(0.01053731929 0.003232651838 -5.845864931e-05)
(0.01023595464 0.003298408992 8.486739637e-05)
(0.009942341932 0.00305159732 -2.096280463e-05)
(0.009687555338 0.002935214939 -0.0001195835425)
(0.009496100796 0.002781688897 -5.868905361e-05)
(0.009414729283 0.00281508005 1.991347419e-05)
(0.009070792741 0.002677425319 -1.086842388e-05)
(0.00874083456 0.002574920492 -3.002045731e-05)
(0.008619255892 0.002468559782 -4.676732144e-05)
(0.008376585688 0.002314804012 -0.0001108913937)
(0.008300827154 0.002356454961 -3.630085877e-05)
(0.008204011377 0.002332392919 8.472526343e-05)
(0.008134580242 0.002261971548 0.0001354482666)
(0.00799253816 0.002217347068 8.974393023e-05)
(0.008078675172 0.002097292897 -7.299194735e-05)
(0.007838163236 0.001917147447 -3.287814353e-05)
(0.00775403251 0.001707068311 5.124519007e-06)
(0.00753920008 0.001411416178 -3.723260044e-05)
(0.01179725453 0.003418107092 -5.360808658e-05)
(0.01198543194 0.003661896156 -4.230927477e-05)
(0.01224173922 0.003835230581 4.817001667e-05)
(0.01229445972 0.003967843024 1.283500446e-05)
(0.01234114215 0.003967749679 8.183644617e-06)
(0.01244174953 0.00412927977 1.996316129e-05)
(0.01241491853 0.003900479211 -4.36385276e-05)
(0.01220791227 0.003835321988 2.285054478e-05)
(0.01210023887 0.003903963586 -3.911706566e-05)
(0.01199875845 0.003864652672 -1.720084662e-05)
(0.01181124683 0.003724806744 -7.540320055e-05)
(0.01165562032 0.003678942545 -4.504931234e-05)
(0.0114212579 0.003695016716 -1.549328744e-05)
(0.01128490558 0.003564342181 9.557929457e-05)
(0.01119267537 0.003550429987 1.13013952e-05)
(0.01103101365 0.003408233526 -1.894803114e-06)
(0.01067974497 0.003214853336 -6.843933781e-06)
(0.01051656859 0.003250399052 2.328817034e-05)
(0.01031305207 0.003226030595 -7.780800878e-06)
(0.01003347839 0.003002414008 -3.407973026e-05)
(0.009790244762 0.002909237403 -5.819155387e-05)
(0.009443078175 0.002720371542 6.724216445e-05)
(0.00930561995 0.00270445522 -4.112180669e-05)
(0.009255460081 0.002654151173 5.963916967e-05)
(0.009106165577 0.002620658322 7.262707354e-05)
(0.008896371431 0.002414169277 3.126510413e-05)
(0.008761476958 0.002319092859 -3.205186317e-05)
(0.008697557013 0.002178596775 -5.203573841e-05)
(0.008647131317 0.00202304633 -1.838978806e-05)
(0.008463257221 0.001689248689 -7.886908749e-05)
(0.01144978545 0.003019037867 2.10796386e-05)
(0.0119701728 0.003367886902 2.185387907e-05)
(0.01224638908 0.003612695053 -9.135074548e-05)
(0.01254775022 0.003852835739 -3.091387352e-05)
(0.01269904317 0.003917644849 -1.087135965e-05)
(0.01300587624 0.004170902293 -8.18245504e-06)
(0.01296169278 0.004137294941 3.756828364e-05)
(0.01290409714 0.004142994516 3.596642784e-06)
(0.01291982281 0.004049362917 5.574976095e-05)
(0.01292867848 0.00410243867 0.0001426780655)
(0.01273506727 0.00409609607 5.362690207e-05)
(0.01253946163 0.003991096895 -2.001435452e-05)
(0.0124724479 0.004016087049 2.094874874e-05)
(0.01233805018 0.003997568062 -6.75596904e-06)
(0.01191284544 0.003893498663 -2.298897296e-05)
(0.0116947316 0.003795239611 -5.615484172e-05)
(0.01149409364 0.003582623194 -0.0001251918897)
(0.01111980252 0.003475683375 -0.000105881082)
(0.0110656121 0.003482717586 1.758524224e-05)
(0.0107710082 0.003429150671 5.343592426e-06)
(0.01064384926 0.003218530463 2.467984326e-05)
(0.01053900567 0.003177852968 -4.310722692e-05)
(0.01032065852 0.002948500273 -5.623064121e-05)
(0.01023230911 0.002880695592 -4.347029375e-05)
(0.01023426614 0.002966448508 -4.02084936e-05)
(0.01013346874 0.002884743271 2.941976478e-05)
(0.009831047362 0.002632635387 5.987189421e-05)
(0.009669413291 0.002500323682 9.606083421e-06)
(0.009437745814 0.002284431822 -1.999337052e-05)
(0.009293217065 0.001988509746 6.549917458e-06)
(0.01101716151 0.00253276917 -2.967007977e-05)
(0.01132818195 0.002823108519 -1.827446801e-05)
(0.01194017657 0.003154719006 -2.737964369e-05)
(0.01242011844 0.003573242696 -1.091852239e-06)
(0.0126619779 0.00368200789 -4.222557238e-05)
(0.01273540814 0.003902643317 -1.412930732e-06)
(0.01314800763 0.004090013165 -7.849129977e-06)
(0.01334322307 0.004185009118 5.816603789e-05)
(0.01325397249 0.00421926393 2.913146704e-07)
(0.01320551611 0.004195003561 -5.422784455e-05)
(0.01320578637 0.004270404186 -3.28336134e-05)
(0.01309790828 0.004228393489 2.495990505e-05)
(0.01298290029 0.004192041566 -1.371748737e-05)
(0.01273945547 0.004248099786 -4.670776672e-05)
(0.01284179487 0.004242464218 -2.931325784e-05)
(0.01274600922 0.004073348191 6.148494467e-05)
(0.01252967935 0.004034351779 5.722252117e-05)
(0.01224356466 0.003904528004 2.699876805e-06)
(0.01202700436 0.003850665253 6.796791629e-05)
(0.01202853435 0.003790916871 -2.13404197e-05)
(0.01183801732 0.003630548837 -2.069075833e-05)
(0.01157831205 0.003437680277 -1.785244946e-06)
(0.01140901269 0.003361261686 -1.101488672e-05)
(0.01114585231 0.003152966744 3.893583334e-05)
(0.01082594124 0.00318568036 -2.677193259e-05)
(0.01061461706 0.003117154113 7.998247311e-05)
(0.01048673619 0.002957035799 8.134033177e-06)
(0.01038572116 0.002748722586 7.84268341e-05)
(0.01023753068 0.002593579708 5.354803925e-05)
(0.01006050299 0.002289820098 2.382768974e-05)
(0.01052098159 0.002037653939 9.820703041e-06)
(0.01097012731 0.002346729229 2.266199167e-05)
(0.01136903256 0.002657841732 2.781544661e-05)
(0.01169336075 0.002969428735 -1.645146473e-06)
(0.01239509301 0.003314835084 4.853752284e-05)
(0.01271451981 0.003615043568 3.266690217e-05)
(0.01286491124 0.003826032717 3.659458334e-05)
(0.01311438159 0.003983555676 3.935590067e-05)
(0.01323504684 0.004201416573 2.734524526e-05)
(0.01334300495 0.004213034294 1.002394139e-05)
(0.01345863904 0.004263382208 -8.056703773e-05)
(0.01359600998 0.004414385867 4.769348477e-05)
(0.01355642918 0.004383728578 1.411303696e-05)
(0.01362288579 0.004389546818 2.018859635e-06)
(0.01352552862 0.004372553291 9.184101965e-05)
(0.0133819938 0.004450157789 4.458374388e-05)
(0.01316596811 0.004284236098 -4.216702439e-05)
(0.01314481018 0.004181594984 1.218781464e-06)
(0.01307818647 0.004156186958 -1.36575229e-05)
(0.01269515511 0.004063110047 1.113400491e-06)
(0.01247318855 0.004017412227 -3.914604967e-05)
(0.01223977367 0.003778127307 2.272376065e-06)
(0.01190946908 0.003606023915 -3.409749561e-05)
(0.01185763899 0.003575043978 6.136819266e-05)
(0.01162609104 0.003443930218 2.469447854e-05)
(0.01147504896 0.003333679315 -7.486615852e-05)
(0.01130195433 0.003237669325 -1.645198047e-05)
(0.01112961148 0.003053867073 -3.451856701e-05)
(0.01082286363 0.002851798089 -2.874290482e-05)
(0.01069024523 0.002560633544 -4.511703451e-05)
(0.00980724949 0.001501919602 3.397091734e-05)
(0.01018461881 0.001797350174 1.903565899e-05)
(0.01070173599 0.002117166537 6.724776979e-05)
(0.01111654073 0.00241137994 3.092458058e-05)
(0.0114761866 0.002787648038 -4.601820775e-07)
(0.01186724695 0.003165489102 -3.961031453e-05)
(0.01248009489 0.003437985298 -4.660006716e-05)
(0.01278559298 0.003666679692 -6.360993086e-05)
(0.01316550121 0.003889101969 -6.816001772e-05)
(0.01340109765 0.004124308063 -3.561429887e-05)
(0.0135134792 0.004143597308 2.505019948e-05)
(0.01364461223 0.004247957327 -4.575064894e-05)
(0.01373765923 0.004359863283 3.425564727e-05)
(0.01383535639 0.004505420589 2.647099568e-05)
(0.01387071176 0.004521655806 -7.718592211e-06)
(0.01385848682 0.004532693704 -5.719906157e-06)
(0.01384730503 0.004494903517 -1.307584017e-05)
(0.01358219393 0.004461756523 -6.562093549e-05)
(0.01337836024 0.004338068442 -2.816561607e-05)
(0.01333363358 0.004305917019 -3.200950782e-05)
(0.01323133083 0.004248095802 -0.0001135022865)
(0.01307822572 0.004126501086 -8.901839419e-05)
(0.01290486669 0.004038673944 5.862192106e-06)
(0.01247990586 0.003755442475 -2.074929046e-05)
(0.01244323784 0.00373778219 6.531472553e-05)
(0.01225081771 0.003642773827 -5.105193574e-05)
(0.01196472799 0.003520790988 -1.467486524e-05)
(0.01183749322 0.003404224689 9.491604274e-07)
(0.01148566188 0.003138553388 -1.763256963e-05)
(0.01124885123 0.002831056495 4.952593572e-05)
(0.009622955837 0.001160527467 -2.023425446e-06)
(0.009857398241 0.001386008734 1.28217043e-05)
(0.01014707561 0.001677518753 -2.509865648e-05)
(0.0104854817 0.001974462306 2.42673019e-06)
(0.01097110979 0.002274139924 7.967607711e-05)
(0.01139506424 0.002543489833 9.669143093e-05)
(0.01180415532 0.002929061733 2.717659748e-05)
(0.0124032573 0.003230717538 3.203516374e-05)
(0.0128209384 0.003531068185 2.848678403e-05)
(0.01329909572 0.003788160676 -4.041125293e-05)
(0.01363434037 0.004006968751 -4.932941941e-05)
(0.01380357588 0.004210417053 -5.726086427e-05)
(0.01391982812 0.00434243394 -2.710874005e-05)
(0.01401983735 0.004396095627 3.321346324e-05)
(0.01401946591 0.004517417282 3.578092298e-05)
(0.01409174838 0.004469691329 -1.315801135e-05)
(0.01415034008 0.004615495939 8.321332114e-05)
(0.01427220251 0.004702784051 5.669831618e-05)
(0.01404382538 0.004595113252 1.725795808e-05)
(0.01402902754 0.004458990997 4.115491207e-05)
(0.01381201848 0.004459406812 1.408348642e-05)
(0.01370500133 0.00437432399 -5.470239778e-05)
(0.01345969804 0.004314181236 -2.525757322e-05)
(0.01323862741 0.004150268166 -1.455653828e-05)
(0.01277313018 0.003977462381 5.519781682e-05)
(0.0126361547 0.003838110259 0.0001063750059)
(0.01258602357 0.003701512608 9.293565733e-05)
(0.0126469861 0.003646277122 5.882572762e-05)
(0.01251224847 0.003476416965 2.457395689e-05)
(0.01204623294 0.003221576877 3.452430047e-06)
(0.009255194398 0.0008624585283 3.021969222e-05)
(0.009523125279 0.001088801787 1.130777847e-05)
(0.009812921847 0.001315466969 3.342687536e-06)
(0.01015774249 0.001516445841 -1.413142223e-05)
(0.01045711153 0.001809146642 -1.225990669e-05)
(0.01080305498 0.002102837711 -8.422079005e-06)
(0.0113179945 0.002433957394 6.022497637e-05)
(0.01168278214 0.002609552204 -2.0605267e-05)
(0.01214784255 0.002950369317 3.812204652e-05)
(0.01247576444 0.003309701948 1.117076072e-05)
(0.01285323969 0.003613929212 -6.050718644e-05)
(0.01314302633 0.003765832475 1.527560343e-05)
(0.01359839935 0.00411882422 6.489438069e-05)
(0.01382562089 0.004244098672 2.556118587e-05)
(0.01397561098 0.004303499008 8.236268445e-05)
(0.01429855189 0.004537483994 0.0001057896845)
(0.01430491191 0.004575562712 6.068543545e-05)
(0.0144141246 0.004593210025 4.462289542e-05)
(0.01460118849 0.004730911353 5.451622101e-05)
(0.01443471294 0.004714504069 1.794884705e-05)
(0.01428537353 0.00460463063 6.174763967e-05)
(0.01424782278 0.004605031698 9.838784568e-05)
(0.0139853556 0.004536037562 -5.496675664e-06)
(0.01388815839 0.004434974635 -8.238848967e-06)
(0.01388470036 0.004299694994 2.284121395e-05)
(0.01376059157 0.004109730865 -4.787945316e-05)
(0.01343713809 0.003959219638 -3.945942264e-05)
(0.01307919596 0.003821150604 2.283010512e-05)
(0.01276350968 0.003790397991 4.001686324e-05)
(0.01277813956 0.003565529971 2.287370979e-05)
(0.00896015408 0.0006003146577 -1.613690348e-05)
(0.009179407034 0.0007605150162 -1.708877655e-05)
(0.009484543728 0.00099840661 -1.579774198e-05)
(0.009692938325 0.001158743982 -1.440300781e-06)
(0.01007371705 0.001437525649 -1.619707494e-05)
(0.01043992537 0.001684593041 1.302299549e-05)
(0.01073997125 0.001955732984 5.044856282e-06)
(0.01102859184 0.002221702033 2.701407225e-05)
(0.01143633374 0.00257596663 -4.317228383e-06)
(0.01178193948 0.002799081791 2.012388765e-05)
(0.01230592391 0.003079070984 3.89789301e-05)
(0.01290333979 0.003446647894 -6.4151317e-05)
(0.01335126124 0.003652338643 -6.464685788e-05)
(0.01376446226 0.003989549311 3.309350459e-05)
(0.01396612956 0.004173050293 6.008721442e-05)
(0.01412022345 0.004349233924 5.455931529e-05)
(0.01429882519 0.004476440121 2.769066045e-05)
(0.01443473118 0.004517273544 7.380882453e-05)
(0.01457703145 0.004633745495 6.34054168e-05)
(0.01475868559 0.004723953401 6.989421864e-05)
(0.01467718065 0.004694515566 8.271783007e-05)
(0.01469067158 0.004854096136 8.359978398e-05)
(0.01459821148 0.004712293196 5.517832793e-05)
(0.01445174053 0.004612881129 7.20903214e-05)
(0.01425441378 0.004439047433 4.00176111e-05)
(0.01408634942 0.004377698204 5.593020411e-06)
(0.01384832661 0.00431947657 2.016051704e-06)
(0.01360231557 0.004130668605 -1.045992041e-05)
(0.01362945336 0.003994530784 1.814056644e-06)
(0.01332239205 0.003786604569 5.424280765e-05)
(0.0087583374 0.0004932143541 3.44330459e-06)
(0.008899755258 0.0005798194374 -1.449051641e-05)
(0.008997756814 0.0006858108373 3.194223007e-05)
(0.009345222128 0.0008430976114 2.831558041e-06)
(0.009577590961 0.001075613707 -1.378254186e-05)
(0.009825303394 0.001296729611 1.33671746e-05)
(0.01006428953 0.001512717205 -2.887286487e-06)
(0.0104135218 0.00183516343 5.087187818e-06)
(0.01080004534 0.002019556381 -3.935739417e-06)
(0.01129885761 0.002306850446 -2.216701108e-05)
(0.01183692303 0.002598030372 1.110148831e-06)
(0.01217118971 0.002816530737 2.473843298e-05)
(0.01253619117 0.003191092296 -1.596594492e-05)
(0.01291847967 0.003541319676 -5.293865045e-05)
(0.01337532995 0.003873364281 -5.500377344e-05)
(0.01376341937 0.004035303201 -5.013626438e-05)
(0.01416840945 0.004210633599 -3.131447325e-05)
(0.01443651393 0.004420225203 -3.229808949e-05)
(0.01443089537 0.004497131927 3.966920226e-05)
(0.01459869305 0.004629171826 4.917136637e-05)
(0.01470604191 0.004641694565 2.408630593e-05)
(0.01475350655 0.004640381892 7.897653264e-05)
(0.01507204068 0.004866917394 9.362575177e-05)
(0.01496264571 0.004768832704 5.733737309e-05)
(0.01474615528 0.004724527998 5.842189419e-05)
(0.01451331701 0.00460207767 3.209023783e-05)
(0.0144890566 0.004484415439 -2.653025268e-05)
(0.01428527269 0.004361661765 4.594136011e-05)
(0.01389635676 0.004126433751 1.573400883e-05)
(0.01373954275 0.004008881164 -4.27604688e-05)
(0.008771882104 0.0003692764066 -1.682899882e-05)
(0.008858327341 0.0004425507411 -7.046216786e-06)
(0.008976666312 0.0005037261153 -3.603023089e-05)
(0.008966347322 0.0006734824372 -1.941668155e-05)
(0.009094412494 0.0008075805405 -1.943338393e-05)
(0.00936229884 0.0009994496978 -1.104384145e-05)
(0.009767992518 0.001151835315 -1.146283971e-05)
(0.0101306758 0.001419910428 -6.412755017e-05)
(0.01047339033 0.001614010625 -2.808600439e-05)
(0.01072089013 0.001847727977 -4.249425235e-05)
(0.01100834459 0.002134110558 -1.726276104e-05)
(0.01127467013 0.002399952437 3.123258558e-05)
(0.01178244142 0.002712612685 -2.533890006e-05)
(0.0123525628 0.002963395342 -4.816904311e-05)
(0.01300268629 0.003291170451 -1.428011712e-05)
(0.01352205415 0.003652184579 -3.571276005e-05)
(0.01390709431 0.003923240584 -6.325034441e-05)
(0.01418756347 0.00418876661 -2.087997224e-05)
(0.01451196834 0.004342852251 -3.510357386e-05)
(0.01478785113 0.004442471333 6.750841806e-05)
(0.01503501644 0.004619868664 2.343868781e-05)
(0.01522541643 0.00468024636 9.365472734e-08)
(0.01523809961 0.004785103857 2.455101192e-06)
(0.01517579516 0.004904169281 6.911289797e-05)
(0.01517524531 0.004821853338 3.448970549e-05)
(0.01511310453 0.004764847269 5.910342745e-05)
(0.01501467966 0.004681564552 -1.082597794e-05)
(0.01475918982 0.004639545009 4.288927298e-05)
(0.01456933716 0.004461189005 9.640153926e-05)
(0.01430018846 0.00422473789 2.211267774e-05)
(0.008460360427 0.0002643810695 -4.980029999e-06)
(0.008432599224 0.0003352342327 -4.24407163e-06)
(0.008613384187 0.0004311232004 1.881995424e-05)
(0.008638055771 0.0004830844816 6.54432952e-06)
(0.008945669799 0.0005846658958 -1.721465237e-05)
(0.009043940244 0.0006891248629 -2.439252621e-05)
(0.009291474507 0.0008550226974 4.97906213e-06)
(0.009547171678 0.00105053383 4.664627724e-06)
(0.009856755131 0.001265745248 -2.041282426e-05)
(0.01020297543 0.001472812208 2.183009732e-05)
(0.01065195772 0.001743357176 3.792912325e-05)
(0.01123165429 0.002011208176 -3.435089421e-05)
(0.01158009788 0.002202209718 -4.972488523e-05)
(0.01207477722 0.002536729498 4.0007728e-05)
(0.01235301699 0.002818583907 1.207941917e-06)
(0.01268870331 0.003156368964 -1.214400602e-06)
(0.01310235874 0.0034835621 5.18626274e-06)
(0.01355348445 0.00370775214 -2.760396428e-05)
(0.01394085573 0.003898994432 -8.133929081e-05)
(0.01441452064 0.004182474115 -7.665125163e-05)
(0.01472124001 0.004360724334 -5.8502435e-06)
(0.01485928816 0.004608378127 3.065845787e-05)
(0.01494550772 0.004643698648 3.550722768e-06)
(0.01518522688 0.004848038222 1.255327581e-05)
(0.01540453582 0.004877095857 7.631285378e-05)
(0.0153737613 0.004849977028 8.048190387e-05)
(0.01528409924 0.004800222393 6.343790853e-05)
(0.01527693037 0.004783609782 -9.555034568e-06)
(0.01509861134 0.004636459745 -1.639092649e-05)
(0.008507372983 0.0002475424867 2.652893135e-05)
(0.008609075542 0.0002888665169 1.64086875e-05)
(0.008665079576 0.0003084995263 9.507294984e-06)
(0.00892084589 0.0003793906548 2.310391883e-05)
(0.008884874977 0.0004379867806 4.173356235e-05)
(0.009046195578 0.0005311252502 -1.949535624e-05)
(0.009197087387 0.0006571566121 -4.368855443e-06)
(0.009428568532 0.0007547844248 1.52067231e-05)
(0.00958748277 0.0009927606591 2.187351189e-05)
(0.009952984327 0.00114483004 -1.498038905e-06)
(0.01023276304 0.001332286433 1.21981218e-05)
(0.01040681481 0.001555067084 2.070467091e-06)
(0.01065232622 0.001822661995 -6.462780728e-06)
(0.01107700329 0.002019208204 -2.545925279e-05)
(0.01149793928 0.002332850304 -5.769296772e-06)
(0.01196308681 0.002627153328 -4.950756339e-05)
(0.01259980163 0.002941887553 -8.58959402e-05)
(0.01311787495 0.003309240479 -1.247599985e-05)
(0.0136588156 0.003612526148 -3.084792084e-05)
(0.0137375453 0.003824225434 -6.437811776e-05)
(0.01404422045 0.004009450065 -0.0001016215677)
(0.01456802533 0.004281904016 -1.002908101e-06)
(0.01485795025 0.004465048659 1.572146652e-05)
(0.01506894436 0.004640702922 -3.060383672e-05)
(0.01518941627 0.004693435795 -5.388191395e-05)
(0.008600774973 0.0001490952399 -6.402268159e-06)
(0.008649671308 0.0001817845214 8.703100671e-08)
(0.008735579409 0.0002432371408 -5.859578283e-06)
(0.008692679947 0.0003021640202 -1.015778626e-05)
(0.00883650071 0.0003628652004 5.946293582e-06)
(0.008975376001 0.0004221207049 2.195722499e-05)
(0.009050307 0.0004672844327 2.683820058e-05)
(0.009105173937 0.0006331649285 -2.331173152e-06)
(0.0093005948 0.0007130415154 2.053949836e-05)
(0.009421993447 0.0009245608032 1.198074725e-05)
(0.009475112986 0.001075232719 9.981974808e-06)
(0.009834060961 0.00117694712 2.304398601e-05)
(0.01026558548 0.001421665833 1.966704617e-06)
(0.01058470085 0.001637065791 2.149128006e-06)
(0.01091670434 0.001919156194 -1.214694178e-05)
(0.01136361241 0.002148063821 2.986360748e-05)
(0.01178899448 0.002387137015 -2.785185054e-05)
(0.01227009441 0.00278107483 -9.158054756e-05)
(0.01267041574 0.003112053699 3.564023203e-05)
(0.008364648684 0.0001276846363 -7.406159145e-06)
(0.008403856115 0.0001216979374 5.920140861e-06)
(0.008525655747 0.0001382128759 1.361210526e-05)
(0.008521658704 0.0002120247821 1.051757421e-06)
(0.008538030369 0.0002531504033 1.383396548e-05)
(0.008532437758 0.000286408026 9.383589577e-06)
(0.008666368065 0.0003780267808 7.992980455e-06)
(0.00874796725 0.0004530102108 -3.946638208e-06)
(0.008920241701 0.0005580416811 -1.300770337e-05)
(0.008931417603 0.0006278744714 -1.167218926e-05)
(0.00936511187 0.0008412563005 3.86773798e-06)
(0.00947819407 0.0009565273956 -3.028725574e-06)
(0.009640506165 0.001089264835 3.793378539e-05)
(0.01004910656 0.00126265889 4.009688244e-05)
(0.008478325132 8.543304806e-05 -7.232833058e-06)
(0.008475693799 0.0001158195438 -2.282378441e-06)
(0.008486003046 0.0001508775387 -1.382440959e-06)
(0.008528697476 0.0001634018418 -3.489543893e-06)
(0.008574215758 0.0002388673327 2.354683588e-06)
(0.008549206929 0.0002841634092 1.830620185e-05)
(0.008628815226 0.0003057172939 4.394880621e-06)
(0.008693854263 0.0003477186337 1.063441011e-05)
(0.008278561469 7.060627779e-05 3.375359628e-05)
)
;

boundaryField
{
    flow
    {
        type            calculated;
        value           nonuniform List<vector> 
15
(
(0.003686946517 0.0006870896224 8.197920383e-07)
(0.005058765942 0.0006857954654 -6.488482379e-05)
(0.00608304304 0.0008562491514 -5.853192266e-05)
(0.006945863933 0.001176304014 0.0001494655051)
(0.00753920008 0.001411416178 -3.723260044e-05)
(0.008463257221 0.001689248689 -7.886908749e-05)
(0.009293217065 0.001988509746 6.549917458e-06)
(0.01006050299 0.002289820098 2.382768974e-05)
(0.01069024523 0.002560633544 -4.511703451e-05)
(0.01124885123 0.002831056495 4.952593572e-05)
(0.01204623294 0.003221576877 3.452430047e-06)
(0.01277813956 0.003565529971 2.287370979e-05)
(0.01332239205 0.003786604569 5.424280765e-05)
(0.01373954275 0.004008881164 -4.27604688e-05)
(0.01430018846 0.00422473789 2.211267774e-05)
)
;
    }
    obstacle
    {
        type            calculated;
        value           nonuniform List<vector> 
30
(
(1.205464474e-21 3.23003233e-22 6.903619455e-23)
(1.248659781e-21 3.345773805e-22 -1.824715616e-23)
(1.170558773e-21 3.136502768e-22 6.623670651e-23)
(1.207833873e-21 3.236381115e-22 2.351004066e-23)
(9.703251805e-22 2.599978477e-22 1.590896427e-23)
(1.082337059e-21 2.900113415e-22 8.828612145e-23)
(1.168210341e-21 3.13021018e-22 -5.272344746e-23)
(9.339250138e-22 2.502444525e-22 -4.697650083e-23)
(1.006981087e-21 2.698197695e-22 7.433168818e-23)
(9.557166203e-22 2.560834971e-22 -1.26757863e-22)
(1.160070345e-21 3.10839911e-22 -6.89170477e-23)
(7.794324788e-22 2.088483036e-22 1.147008328e-22)
(9.858139768e-22 2.641480594e-22 -2.669912823e-24)
(8.791276315e-22 2.355615382e-22 -5.51984251e-23)
(7.443658744e-22 1.994522353e-22 2.742554025e-22)
(9.494378941e-22 2.544011162e-22 -5.861069575e-23)
(8.656491486e-22 2.319499907e-22 5.138104807e-23)
(9.425938736e-22 2.525672677e-22 5.512461205e-23)
(8.274970653e-22 2.217271697e-22 -2.403500208e-23)
(1.233490577e-21 3.305128046e-22 2.535089893e-22)
(8.332627756e-22 2.232720882e-22 -8.375509788e-23)
(7.867281966e-22 2.108031843e-22 -1.733332993e-23)
(8.611221106e-22 2.307369745e-22 2.306997715e-23)
(1.010084934e-21 2.706514429e-22 -1.492893085e-22)
(8.608046506e-22 2.306519102e-22 7.217248187e-23)
(7.866070437e-22 2.107707225e-22 1.411828577e-23)
(8.088027069e-22 2.167180315e-22 6.42871302e-23)
(1.029125053e-21 2.757532274e-22 -1.323910127e-22)
(9.537437418e-22 2.555548659e-22 2.390098687e-23)
(9.546018154e-22 2.557847847e-22 8.906983149e-23)
)
;
    }
    frontAndBack
    {
        type            empty;
    }
    procBoundary1to0
    {
        type            processor;
        value           nonuniform List<vector> 
21
(
(0.005799269527 0.00172599958 -2.558257979e-05)
(0.008688387222 0.002650121898 -1.29269162e-05)
(0.01049252653 0.003382568914 1.027321431e-05)
(0.01153040936 0.003609269153 -3.177233096e-05)
(0.01181982867 0.00354754766 1.733611367e-06)
(0.01150711154 0.003106684915 1.207992559e-05)
(0.01114744169 0.002749156377 1.346657369e-05)