/*--------------------------------*- C++ -*----------------------------------*\
| =========                 |                                                 |
| \\      /  F ield         | OpenFOAM: The Open Source CFD Toolbox           |
|  \\    /   O peration     | Version:  2406                                  |
|   \\  /    A nd           | Website:  www.openfoam.com                      |
|    \\/     M anipulation  |                                                 |
\*---------------------------------------------------------------------------*/
FoamFile
{
    version     2.0;
    format      ascii;
    arch        "LSB;label=32;scalar=64";
    class       volScalarField;
    location    "0.003";
    object      overallT;
}
// * * * * * * * * * * * * * * * * * * * * * * * * * * * * * * * * * * * * * //

dimensions      [1 2 -2 0 0 0 0];

internalField   nonuniform List<scalar> 
546
(
841.7072686
824.9642231
819.7758564
809.8498998
813.5492436
810.9683737
811.3538085
788.4106107
775.3729183
769.3677004
774.4032711
770.1679449
769.4297681
771.3189191
763.0974187
761.7061585
754.8413805
743.2515043
745.9367195
750.3569234
749.3750573
736.7977453
734.5378184
744.7426872
739.0833997
740.9968111
731.4473031
722.1715498
729.3537017
717.6113269
919.2620999
913.1265047
907.7525988
897.9158548
899.6420335
895.924199
885.1137256
875.1064665
878.8528843
874.1734739
858.9500337
850.8946228
855.9549867
856.7612879
852.4976199
841.2154609
829.2431285
821.5697268
821.4958429
829.8841739
833.0576318
830.0464124
823.5232247
813.9965095
814.4856376
800.5525509
793.2538816
789.4668006
782.8504428
750.3377368
924.8325666
929.8593299
919.756075
927.5654864
930.4508974
921.5041516
918.3081974
919.5235935
911.8926323
915.7495512
904.5483471
893.5234932
893.9044302
896.0855543
889.2998706
891.7445437
877.5651237
867.5696283
861.965743
864.0458028
869.0646734
863.9047364
846.1677975
855.497108
850.6854816
830.1525428
828.9782218
815.9854087
795.5245646
767.0767743
903.6081339
919.1077202
921.3496408
914.0279897
913.7663508
914.9955957
913.6515135
905.6621032
906.0820016
915.0304624
911.1360455
916.7263762
913.7019478
902.8183812
895.1198393
898.9382055
889.0707633
879.4299821
881.152622
885.2936203
892.0505277
883.2797081
874.9316911
876.1754147
876.3840037
857.4137888
838.5612436
818.5095741
789.0083241
759.9101077
867.500269
881.0398913
887.2995926
877.1673323
884.8399142
888.7492212
878.4692831
889.338399
887.2081105
890.6662521
901.5469301
894.9132883
896.9443774
889.3677003
890.84595
888.3509119
886.5817658
887.2349643
897.2779502
894.9027042
883.4598314
878.3150617
879.0274424
883.3937776
874.0262178
856.8044207
840.5214765
826.3677635
806.9337301
764.0791375
832.6614121
845.9696343
849.3321155
850.6930011
845.082251
858.2317699
857.252063
864.2459224
875.4658002
878.7608262
872.6410333
874.0017142
880.5546635
880.1511875
879.8638778
885.0474569
886.3709728
885.0571942
874.3822513
879.4899537
867.9009249
869.9808735
872.0536013
869.2773286
865.7546583
859.0197445
842.1560077
834.9089977
809.4353032
768.5036088
802.0720934
817.0340831
825.0772819
825.4492824
827.2576466
840.1070867
831.9937121
838.5539026
841.4205732
846.4041427
849.715838
859.258488
855.2214431
865.2827279
870.228265
874.6942126
880.2919011
879.6745503
875.3568232
871.604708
873.0770923
862.1816339
867.5881003
857.8325725
858.8107034
839.3576441
833.1845008
833.3369747
810.2560843
784.5731638
760.7874939
770.4989596
781.1226607
794.9702164
790.2239244
812.0506287
815.7255774
812.7086523
816.6344509
821.2725059
828.7518117
822.3777302
834.823128
843.7498371
852.0764779
850.5292365
856.5667809
856.9347396
860.9694171
864.7095473
858.9030265
850.1959461
845.5371939
847.0746507
847.8892113
838.7058987
820.2302367
815.8669256
803.7638065
780.1276373
712.009208
734.2324685
743.601734
758.3690253
770.2486461
778.2014714
779.5547829
790.0601542
803.9095643
797.2131199
797.99233
806.9410117
809.7256642
818.8731813
831.2091244
832.5290564
833.0264197
829.9033492
826.6550381
837.1750076
842.6166118
833.467163
840.5528064
827.9019467
829.1623418
834.404598
826.2868845
817.9431288
809.0486726
784.7550862
651.727785
678.201276
702.9814239
724.0411311
743.7788537
746.1222991
752.7102486
766.8752736
779.7542567
778.6595397
778.428643
786.090142
784.0344788
792.8798429
793.6912692
807.9024164
811.642748
814.1794734
817.324927
818.0379715
818.3279201
825.9576024
825.119998
826.4957715
823.137192
816.7318064
809.6268915
807.9384806
795.9461921
778.2270052
588.7743488
615.6532574
657.6561309
670.4963469
692.8609108
704.0173552
720.0968731
732.1023697
732.3550772
751.8908237
741.9314218
755.3347094
771.3886831
775.986671
780.4930276
781.352621
785.8949819
795.408185
791.7688579
797.5063577
810.8383831
806.2126483
817.784511
816.2490108
808.8351137
815.3637803
805.5608063
794.0058042
786.1188608
769.0190698
541.1748461
567.6512874
598.0224926
619.8579277
644.9453666
661.3662361
686.3030122
697.0969927
709.6753869
715.9761834
726.4565443
733.7511657
743.9745199
749.8262836
757.246025
756.8194145
759.1774726
771.1840153
776.1979467
781.9414255
787.4360252
791.9447425
788.5255499
788.8223741
793.7530337
789.4939866
791.3646862
785.8422608
780.5654819
767.5178591
484.4857422
513.2351916
550.3850721
567.4231993
596.2150906
624.2350339
638.1611444
660.7389254
673.2627158
687.3364031
702.6145727
710.4353476
719.5855417
729.3287365
735.369244
737.4768186
749.8687248
748.4333054
759.1633242
765.453717
766.9708611
782.5034854
782.3735238
789.6009999
782.1610991
772.0717863
772.7102783
766.9406116
775.4311515
760.2633811
448.6156412
471.8429516
498.1485168
518.6362241
550.9550657
580.994717
598.9636295
620.5359308
630.9195156
651.4674541
665.0131082
673.6162167
690.4815602
703.2868303
713.399514
723.0419305
740.2272845
739.5776875
741.0941298
741.5937785
744.5419303
750.8261681
764.3972402
763.8421838
763.1035583
759.4994954
766.83463
769.6708296
759.9815804
750.3187631
411.5216698
432.3031842
445.8887567
469.3216561
497.0803191
525.7738308
543.7164025
577.0306681
597.6716087
611.991136
630.5181593
647.7795357
665.2648651
673.3252556
678.9428545
692.4275851
702.5475797
705.0715978
706.7838159
716.1107693
725.6822535
734.7707489
741.9013845
747.0680157
750.1332012
744.5001208
744.016156
751.0266099
745.9421791
735.5613016
391.8198467
408.9306265
424.5391685
439.5984512
463.525068
479.7656427
507.0710433
542.3537229
559.0950918
568.6860721
585.27463
605.9838925
618.1596944
630.5285061
652.2611243
664.3002261
681.3265941
685.5569549
697.7003292
698.1719592
697.5641356
704.9571333
713.0484411
723.178611
729.3508659
726.3191702
718.7609971
732.504823
729.1964135
365.3383837
373.2542156
385.4208
407.1844084
420.7629041
442.4866334
460.1387567
485.224341
510.1967088
524.274695
551.6025889
573.5713921
590.1669103
609.8303127
628.6846539
636.6630731
657.2240561
669.9562395
681.7756578
682.8767041
672.432885
687.6369343
696.0226823
709.5979535
708.599905
349.8636109
361.4599854
377.2749847
395.5486577
399.9243343
408.671981
423.8866157
449.0070371
464.5366013
494.6040074
514.9891394
524.7780964
550.8441832
567.8599868
593.2160272
609.231274
622.0862605
642.7389398
648.3383276
341.1215595
349.5953795
350.6695046
365.7526833
382.5770135
391.9555343
401.3686306
420.256818
445.0549862
459.0234553
486.7128423
499.8567865
515.5673579
532.1681331
333.0338957
338.0859936
336.2574754
344.0062589
363.0793861
373.4529199
379.4384818
390.3075512
327.4002591
)
;

boundaryField
{
    flow
    {
        type            calculated;
        value           nonuniform List<scalar> 
15
(
717.6113269
750.3377368
767.0767743
759.9101077
764.0791375
768.5036088
784.5731638
780.1276373
784.7550862
778.2270052
769.0190698
767.5178591
760.2633811
750.3187631
735.5613016
)
;
    }
    obstacle
    {
        type            calculated;
        value           nonuniform List<scalar> 
30
(
732.461481
728.265246
715.0468233
703.5170831
701.9442717
708.8953937
699.0153084
723.7765109
684.4572621
670.3381727
708.4997645
696.6303045
688.9156739
665.2664794
681.3370149
687.4365462
671.7971938
667.6174185
660.6023778
626.6480319
689.0273012
660.0154143
647.8231646
713.5139261
670.1028104
693.2257086
687.0686232
664.6219051
678.9765583
679.8816714
)
;
    }
    frontAndBack
    {
        type            empty;
    }
    procBoundary1to0
    {
        type            processor;
        value           nonuniform List<scalar> 
21
(
851.8569779
940.3452956
927.5855218
908.9738989
864.7420803
836.9879539
789.7604812
738.3581654
688.2579507
628.285285
559.7580768
503.557901
463.803832
425.3545859
396.9461762
377.6911821
361.2547006
340.6636268
329.1367895
322.3368431
321.0131216
)
;
    }
    procBoundary1to3
    {
        type            processor;
        value           nonuniform List<scalar> 
36
(
724.3886666
717.4719897
721.9457516
717.9415027
724.3886666
712.576978
664.1668919
669.3478403
671.4611727
671.0503983
688.4711756
717.4719897
697.8530133
558.5547305
584.0209645
592.3587878
602.1895005
664.1668919
621.9257723
415.7019307
419.9567725
434.3824108
464.8961578
475.0762065
558.5547305
495.4311061
324.3250878
327.2879548
332.6223338
342.6515773
355.2132376
361.4939695
415.7019307
375.993577
324.3250878
318.0965851
)
;
    }
}


// ************************************************************************* //
