/*--------------------------------*- C++ -*----------------------------------*\
| =========                 |                                                 |
| \\      /  F ield         | OpenFOAM: The Open Source CFD Toolbox           |
|  \\    /   O peration     | Version:  2406                                  |
|   \\  /    A nd           | Website:  www.openfoam.com                      |
|    \\/     M anipulation  |                                                 |
\*---------------------------------------------------------------------------*/
FoamFile
{
    version     2.0;
    format      ascii;
    arch        "LSB;label=32;scalar=64";
    class       volScalarField;
    location    "0.003";
    object      p;
}
// * * * * * * * * * * * * * * * * * * * * * * * * * * * * * * * * * * * * * //

dimensions      [1 -1 -2 0 0 0 0];

internalField   nonuniform List<scalar> 
546
(
3.990676116
3.871489044
3.73434748
3.720136382
3.581086133
3.552901461
3.58109825
3.486806781
3.531613706
3.50533223
3.431397355
3.38376205
3.205394961
3.34829368
3.279239709
3.189868712
3.098101506
3.034337559
3.069186154
3.067304507
2.998301251
3.06307481
3.037397105
3.04020579
2.85520298
2.785395123
2.663160495
2.515542324
2.326822624
1.911569759
3.911174606
3.797701885
3.736292731
3.749566092
3.633015841
3.617427839
3.575539937
3.522353265
3.501228751
3.49514105
3.404971988
3.336768402
3.337097267
3.414613995
3.3745177
3.285435629
3.188099895
3.162575334
3.103714683
3.127466344
3.06237012
3.101822363
3.020688583
2.908269299
2.829155602
2.830767749
2.682085993
2.47755205
2.2620409
1.750546537
3.639914013
3.750379118
3.57458752
3.594652061
3.521879592
3.398697747
3.429026243
3.419276305
3.426838337
3.399928056
3.424835361
3.365257212
3.382275612
3.324142783
3.254541428
3.199786794
3.149773167
3.070338771
3.090767809
3.095054869
3.03899998
2.997733559
3.036258423
2.908841156
2.827523842
2.75582904
2.648435968
2.499400847
2.162378896
1.809657555
3.370597812
3.488481295
3.523863622
3.43953426
3.43421367
3.370134445
3.315985358
3.364418305
3.342584128
3.341756457
3.313504278
3.309188865
3.339821389
3.316702727
3.185720472
3.135696077
3.071377701
3.061968035
3.087182632
3.120306703
3.018718137
2.93190514
2.92536638
2.888198436
2.880744771
2.702686218
2.529422113
2.402802825
2.158622162
1.891556581
3.092052187
3.175199658
3.282179888
3.245138994
3.299366763
3.270924535
3.180133547
3.22117048
3.27298728
3.213154318
3.208427299
3.240393663
3.222764148
3.22670469
3.139194724
3.137006601
3.079737618
3.134249255
3.05960693
3.044046152
2.954832632
2.857320548
2.846623038
2.852009387
2.776788927
2.67603263
2.614500641
2.4161658
2.187296587
1.870240878
2.74709734
2.883946385
2.9589005
2.957308822
2.966999421
3.061303023
3.037011763
3.057957289
3.160841818
3.127694315
3.087557694
3.12879682
3.143226614
3.132006563
3.140992339
3.170471887
2.99353213
3.077796434
3.00992409
3.00970997
2.918136806
2.812629994
2.790437941
2.798596026
2.790017105
2.663257995
2.514578174
2.44051669
2.254981512
1.92037173
2.441472645
2.643252588
2.713103604
2.794350381
2.79604072
2.949706482
2.907703129
2.963866648
2.966216543
3.056002803
3.042628321
3.024587972
3.045074865
3.100505891
3.056767609
3.017286849
3.034425748
2.985859858
2.986088435
2.922055958
2.882096139
2.837328921
2.834606399
2.777401717
2.763230671
2.646224783
2.540718543
2.48112249
2.260028074
2.046219927
2.148575468
2.239807206
2.381336661
2.547250623
2.571542143
2.711621237
2.789859385
2.827993652
2.858579619
2.854495752
2.908627356
2.87001264
2.920387852
2.93466986
3.0304817
3.032242334
2.994045866
2.928853471
2.930319277
2.95651774
2.918876478
2.840761697
2.812721539
2.760194306
2.696252389
2.647109937
2.529786582
2.401160989
2.290967579
2.11095884
1.82073082
1.999480165
2.119474126
2.231774679
2.407318634
2.518699601
2.544785487
2.631548552
2.733330591
2.708586184
2.738828449
2.826113609
2.837896759
2.86749249
2.919225401
2.968958957
2.906863841
2.900978383
2.898102679
2.868570117
2.863640736
2.772948329
2.764556484
2.699771829
2.685949446
2.662673773
2.600687537
2.493516534
2.365868549
2.164751562
1.505462298
1.65262111
1.810538461
1.961171574
2.101456626
2.172992415
2.311598979
2.423592163
2.541247449
2.606949497
2.611666929
2.6781917
2.717642286
2.790810367
2.785021749
2.839926264
2.842785624
2.827076486
2.762589123
2.781503362
2.845627023
2.814324087
2.786364264
2.678181782
2.709577973
2.64735191
2.557025453
2.507038757
2.362397286
2.20013808
1.270743341
1.38702906
1.562138416
1.637267334
1.803985845
1.917417212
2.062880731
2.218341015
2.28602155
2.442061576
2.457564542
2.523406583
2.610517235
2.664738044
2.689099369
2.697573406
2.726813744
2.806022462
2.754506178
2.771101039
2.808740357
2.784215413
2.796384689
2.742436522
2.598957559
2.614772192
2.588859118
2.555264327
2.432787674
2.241920881
1.094046356
1.189781806
1.318058279
1.433956594
1.565249366
1.680417345
1.854315634
1.938351241
2.069535841
2.13022739
2.216788924
2.302692622
2.433857973
2.484777989
2.543068333
2.598054326
2.613820317
2.665646659
2.723853002
2.727763251
2.703615179
2.753482872
2.688912865
2.66295758
2.690655385
2.637388081
2.563772622
2.473448061
2.407155223
2.349593701
0.9038686119
0.9997842845
1.128764084
1.199389135
1.330486585
1.469104797
1.574758056
1.677194972
1.777405676
1.887621112
2.037029325
2.146313588
2.24214709
2.367394891
2.424475098
2.46209189
2.551345869
2.542524315
2.629813784
2.660236766
2.63831276
2.748442333
2.713377941
2.750441894
2.688488107
2.590124052
2.536920602
2.481835131
2.504131138
2.349838132
0.7907645211
0.8654039838
0.9413076975
1.024199498
1.141756229
1.244082771
1.328470731
1.462145225
1.563182301
1.712745871
1.8374832
1.896902232
2.03483336
2.133815403
2.238139293
2.32485963
2.463599073
2.525436944
2.492957838
2.52357111
2.559419307
2.598306094
2.699825986
2.696569822
2.621174992
2.561101683
2.588737562
2.582197342
2.446187378
2.370501748
0.7006006966
0.7639954289
0.8068424297
0.8575582866
0.9343895662
1.045622083
1.144223388
1.289216212
1.390701582
1.478511148
1.570313172
1.667175086
1.817945775
1.931485458
2.044125592
2.176402046
2.270353228
2.328954932
2.385201205
2.446672164
2.515807245
2.564621992
2.612834155
2.631490341
2.650950887
2.583076233
2.544818409
2.557832122
2.494221834
2.379406107
0.622870753
0.6581805017
0.710895935
0.7477736551
0.832159064
0.8919574341
0.9871518542
1.105746104
1.2012857
1.254736779
1.363931334
1.519721326
1.590700152
1.713059404
1.840774436
1.932473962
2.061928793
2.1333838
2.245282763
2.316373204
2.317950387
2.367231395
2.434392297
2.523048372
2.548338174
2.51539339
2.475736561
2.51078645
2.494956092
0.5709041939
0.6003434284
0.627946817
0.7048543898
0.7306090271
0.7915071183
0.8414988254
0.9413642406
1.032063331
1.114848525
1.224789702
1.315210344
1.372687579
1.481284182
1.608304969
1.696207976
1.874592998
1.997138491
2.130107003
2.130331944
2.126923715
2.296563721
2.336639635
2.459927531
2.434750878
0.5384624555
0.5664540952
0.6086874029
0.6449732926
0.6666180748
0.7013050096
0.7409584309
0.8066350361
0.8708884037
0.9643257752
1.019981701
1.089344111
1.219947492
1.300487557
1.421501315
1.537084594
1.635227398
1.774459376
1.835854722
0.5043107494
0.5288242359
0.5325110666
0.565694175
0.6054755
0.6313452592
0.6684894066
0.7184257513
0.7860328445
0.8172973805
0.939356309
0.9785234851
1.038168544
1.118944786
0.493230488
0.5015514581
0.4982636096
0.5232854324
0.5677183992
0.585085894
0.5998334575
0.6318711482
0.4706353219
)
;

boundaryField
{
    flow
    {
        type            calculated;
        value           nonuniform List<scalar> 
15
(
1.911569759
1.750546537
1.809657555
1.891556581
1.870240878
1.92037173
2.046219927
2.11095884
2.164751562
2.20013808
2.241920881
2.349593701
2.349838132
2.370501748
2.379406107
)
;
    }
    obstacle
    {
        type            calculated;
        value           nonuniform List<scalar> 
30
(
3.270597288
3.34283851
3.101406297
3.186119204
3.093683285
2.985329068
3.063041407
3.114820399
3.061057362
3.040358176
2.981183673
3.031381014
2.853807071
2.904161614
2.96638785
2.870051364
2.874993758
2.643165223
2.73677412
2.737930218
2.657581726
2.702891459
2.74346612
2.742860302
2.554757166
2.554839648
2.366347869
2.338561173
2.109587212
1.975923039
)
;
    }
    frontAndBack
    {
        type            empty;
    }
    procBoundary1to0
    {
        type            processor;
        value           nonuniform List<scalar> 
21
(
4.030487808
3.990780545
3.726218647
3.41242048
3.027119458
2.671639595
2.33170987
1.970940832
1.675710175
1.385263043
1.161650433
0.9641127093
0.8556004622
0.7249843092
0.6491010249
0.5964513663
0.5600317213
0.5113735616
0.4821630674
0.4629123757
0.4605055043
)
;
    }
    procBoundary1to3
    {
        type            processor;
        value           nonuniform List<scalar> 
36
(
2.427360985
2.472760334
2.535201385
2.471355459
2.427360985
2.427878162
2.001516932
2.073477285
2.133318333
2.204624859
2.324172076
2.472760334
2.408976529
1.241931041
1.384912371
1.446326128
1.535577674
2.001516932
1.670037893
0.7025851542
0.7358388904
0.7712203557
0.8787662604
0.9190131197
1.241931041
0.9955787242
0.4706155058
0.4703578692
0.4840400419
0.5153000094
0.5513925549
0.5621528308
0.7025851542
0.6029151937
0.4706155058
0.4592998404
)
;
    }
}


// ************************************************************************* //
