/*--------------------------------*- C++ -*----------------------------------*\
| =========                 |                                                 |
| \\      /  F ield         | OpenFOAM: The Open Source CFD Toolbox           |
|  \\    /   O peration     | Version:  2406                                  |
|   \\  /    A nd           | Website:  www.openfoam.com                      |
|    \\/     M anipulation  |                                                 |
\*---------------------------------------------------------------------------*/
FoamFile
{
    version     2.0;
    format      ascii;
    arch        "LSB;label=32;scalar=64";
    class       volScalarField;
    location    "0.003";
    object      rhoMMean;
}
// * * * * * * * * * * * * * * * * * * * * * * * * * * * * * * * * * * * * * //

dimensions      [1 -3 0 0 0 0 0];

internalField   nonuniform List<scalar> 
546
(
1.48116508e-05
1.475267161e-05
1.442802309e-05
1.45316588e-05
1.412031953e-05
1.400237642e-05
1.43425026e-05
1.433922889e-05
1.485093432e-05
1.473071581e-05
1.433733092e-05
1.422583562e-05
1.355578735e-05
1.420298625e-05
1.413644775e-05
1.381462807e-05
1.329516077e-05
1.336549613e-05
1.363403751e-05
1.341618268e-05
1.305054035e-05
1.37186358e-05
1.352098735e-05
1.339298945e-05
1.270735782e-05
1.238391954e-05
1.2004436e-05
1.158219696e-05
1.047981401e-05
8.837825978e-06
1.319121671e-05
1.301965886e-05
1.29547589e-05
1.316641583e-05
1.291799082e-05
1.300001223e-05
1.297437454e-05
1.294965154e-05
1.279761113e-05
1.292471627e-05
1.288354558e-05
1.276742865e-05
1.261335442e-05
1.300790465e-05
1.297182097e-05
1.287321559e-05
1.258990932e-05
1.253529589e-05
1.228536384e-05
1.220647102e-05
1.190082195e-05
1.213502219e-05
1.208278762e-05
1.167021423e-05
1.145284429e-05
1.16561457e-05
1.114072501e-05
1.044986612e-05
9.647307424e-06
7.987201633e-06
1.232961831e-05
1.255415679e-05
1.226542633e-05
1.224833566e-05
1.206117434e-05
1.183051766e-05
1.198500738e-05
1.193003797e-05
1.211373329e-05
1.200132864e-05
1.222074348e-05
1.213084022e-05
1.216638091e-05
1.208195501e-05
1.197026211e-05
1.179550289e-05
1.184332682e-05
1.152735718e-05
1.173636745e-05
1.174924928e-05
1.147250455e-05
1.142962664e-05
1.175043584e-05
1.114708655e-05
1.090188249e-05
1.083484421e-05
1.051536934e-05
1.020326634e-05
9.101717293e-06
8.191761044e-06
1.142613164e-05
1.175519503e-05
1.196470269e-05
1.18618725e-05
1.18831629e-05
1.171837293e-05
1.159550818e-05
1.18194317e-05
1.186835575e-05
1.183071093e-05
1.18798256e-05
1.185888073e-05
1.195754421e-05
1.199775309e-05
1.152028234e-05
1.140159085e-05
1.126398872e-05
1.136705083e-05
1.147339452e-05
1.159698168e-05
1.112701592e-05
1.090286331e-05
1.095088598e-05
1.077140425e-05
1.089241497e-05
1.041822553e-05
1.013370321e-05
9.797707215e-06
9.192277523e-06
8.53568205e-06
1.078154835e-05
1.10753522e-05
1.140283107e-05
1.155830188e-05
1.173715705e-05
1.163754907e-05
1.152730567e-05
1.16491486e-05
1.191498695e-05
1.1668519e-05
1.163969525e-05
1.181084858e-05
1.179918138e-05
1.17839913e-05
1.158888102e-05
1.154760159e-05
1.141235704e-05
1.160814226e-05
1.122912047e-05
1.114765687e-05
1.103890338e-05
1.072442642e-05
1.060818635e-05
1.06085404e-05
1.045381212e-05
1.033724024e-05
1.039643932e-05
9.862446028e-06
9.282932211e-06
8.54340414e-06
9.859694459e-06
1.024829215e-05
1.065337124e-05
1.080917358e-05
1.101804507e-05
1.136822312e-05
1.132765646e-05
1.138973434e-05
1.15801168e-05
1.155817672e-05
1.150386716e-05
1.155513222e-05
1.152817571e-05
1.159917962e-05
1.17152159e-05
1.177500645e-05
1.126417509e-05
1.143516906e-05
1.133289978e-05
1.124609369e-05
1.112636942e-05
1.070765629e-05
1.067480734e-05
1.078635215e-05
1.072283796e-05
1.033535547e-05
1.005446112e-05
9.923164724e-06
9.518638881e-06
8.709054297e-06
8.984528779e-06
9.61752332e-06
9.940136402e-06
1.040629774e-05
1.059510408e-05
1.104607648e-05
1.106902512e-05
1.119581224e-05
1.123704342e-05
1.153640683e-05
1.158143137e-05
1.156237568e-05
1.166071752e-05
1.17247107e-05
1.149441447e-05
1.138139131e-05
1.133028315e-05
1.115281908e-05
1.121037531e-05
1.109169763e-05
1.102904829e-05
1.097421496e-05
1.085184905e-05
1.077451202e-05
1.079761629e-05
1.065815034e-05
1.023026329e-05
1.00498924e-05
9.598349682e-06
9.076717499e-06
8.225967359e-06
8.597699944e-06
9.155853429e-06
9.675477258e-06
9.942743507e-06
1.028918174e-05
1.069274221e-05
1.097485557e-05
1.104831674e-05
1.107279771e-05
1.126257788e-05
1.12837351e-05
1.134170855e-05
1.139320582e-05
1.16673026e-05
1.164525924e-05
1.157630179e-05
1.143127025e-05
1.133830499e-05
1.140855229e-05
1.131578597e-05
1.105290896e-05
1.101029997e-05
1.086229038e-05
1.066615299e-05
1.060891696e-05
1.045531285e-05
1.005249791e-05
9.848924951e-06
9.467074899e-06
7.409906656e-06
7.902196075e-06
8.340508051e-06
8.737789115e-06
9.405296116e-06
9.801017431e-06
1.002089421e-05
1.033891924e-05
1.060200626e-05
1.071006476e-05
1.08872001e-05
1.118526237e-05
1.129869148e-05
1.142747949e-05
1.153070002e-05
1.167974928e-05
1.152272557e-05
1.15660095e-05
1.165290151e-05
1.146608673e-05
1.140319075e-05
1.118771539e-05
1.101753546e-05
1.08956155e-05
1.081629489e-05
1.070360654e-05
1.063659147e-05
1.035715308e-05
9.975730299e-06
9.53974067e-06
6.635331911e-06
7.038300995e-06
7.510972216e-06
7.931212908e-06
8.365879012e-06
8.748978359e-06
9.335950509e-06
9.689199924e-06
1.013650347e-05
1.042911931e-05
1.055001568e-05
1.074832943e-05
1.100889367e-05
1.126764914e-05
1.136615595e-05
1.147761093e-05
1.149383087e-05
1.144612984e-05
1.129267254e-05
1.136254711e-05
1.148935397e-05
1.141769529e-05
1.130123741e-05
1.090387977e-05
1.097888566e-05
1.086355495e-05
1.060530546e-05
1.052158954e-05
1.011455168e-05
9.724459366e-06
6.292581519e-06
6.560654065e-06
6.904321288e-06
7.173378422e-06
7.643140368e-06
8.040785094e-06
8.498826037e-06
9.063220505e-06
9.454834332e-06
9.989239347e-06
1.029448052e-05
1.049910187e-05
1.065007095e-05
1.085405733e-05
1.102418122e-05
1.111257905e-05
1.127321708e-05
1.152799063e-05
1.143735981e-05
1.143784383e-05
1.148035576e-05
1.143733681e-05
1.132872185e-05
1.121719165e-05
1.078791265e-05
1.072546591e-05
1.074803248e-05
1.082714057e-05
1.056927476e-05
1.007135871e-05
5.89787513e-06
6.131792843e-06
6.433124082e-06
6.743406231e-06
7.049653885e-06
7.398390171e-06
7.897029568e-06
8.237767891e-06
8.632106918e-06
8.965042212e-06
9.318477262e-06
9.677366705e-06
1.017043734e-05
1.040735418e-05
1.06158329e-05
1.094839881e-05
1.100352612e-05
1.124475234e-05
1.145527577e-05
1.145998749e-05
1.134871176e-05
1.151581373e-05
1.134043789e-05
1.12817358e-05
1.134093213e-05
1.120882995e-05
1.095420225e-05
1.067590773e-05
1.051854666e-05
1.047554424e-05
5.524432282e-06
5.724828667e-06
6.03009497e-06
6.240695757e-06
6.569870152e-06
6.916629464e-06
7.233952763e-06
7.511426737e-06
7.879738889e-06
8.198255279e-06
8.709951009e-06
9.23488022e-06
9.655841231e-06
1.009203608e-05
1.034174946e-05
1.051559774e-05
1.08049545e-05
1.088303107e-05
1.116849972e-05
1.133432697e-05
1.129107399e-05
1.153284978e-05
1.148858653e-05
1.150864013e-05
1.136502678e-05
1.119438539e-05
1.108963927e-05
1.094298792e-05
1.093986754e-05
1.060140517e-05
5.326430363e-06
5.474499066e-06
5.585405181e-06
5.872212497e-06
6.095648588e-06
6.340815863e-06
6.590892927e-06
6.965546419e-06
7.292933925e-06
7.761272395e-06
8.217889251e-06
8.481349284e-06
8.879875991e-06
9.252943368e-06
9.710073871e-06
1.002665352e-05
1.043538196e-05
1.074805008e-05
1.072425022e-05
1.088683278e-05
1.10405673e-05
1.117487468e-05
1.156112566e-05
1.16113832e-05
1.141603165e-05
1.126331071e-05
1.125669915e-05
1.117811395e-05
1.08462191e-05
1.071619452e-05
5.248907959e-06
5.355668108e-06
5.465115767e-06
5.502252096e-06
5.642147608e-06
5.889574149e-06
6.223809168e-06
6.55058273e-06
6.864147416e-06
7.103512565e-06
7.386632807e-06
7.682298199e-06
8.139592136e-06
8.640367176e-06
9.130670885e-06
9.650606848e-06
1.000391558e-05
1.026567257e-05
1.059861957e-05
1.087353468e-05
1.113638461e-05
1.128815737e-05
1.141400679e-05
1.147239457e-05
1.15584012e-05
1.148855221e-05
1.142746621e-05
1.136789827e-05
1.115414857e-05
1.089192783e-05
5.044304004e-06
5.046933167e-06
5.168243165e-06
5.242540744e-06
5.460471884e-06
5.604210817e-06
5.821318347e-06
6.060222916e-06
6.336519625e-06
6.583092784e-06
6.952578918e-06
7.415753574e-06
7.707997684e-06
8.127796594e-06
8.470766436e-06
8.821741315e-06
9.259738193e-06
9.651266996e-06
1.002635233e-05
1.04407933e-05
1.064124398e-05
1.082986872e-05
1.097856036e-05
1.129354183e-05
1.14568966e-05
1.142178184e-05
1.141468138e-05
1.14450708e-05
1.143257575e-05
5.008049921e-06
5.091965369e-06
5.147342337e-06
5.347017491e-06
5.344820068e-06
5.469313062e-06
5.587999572e-06
5.7895492e-06
5.946171184e-06
6.258191743e-06
6.523937356e-06
6.723546071e-06
6.934640972e-06
7.282397327e-06
7.688855872e-06
8.08193219e-06
8.649069855e-06
9.12587281e-06
9.574842853e-06
9.649826232e-06
9.928782102e-06
1.045492891e-05
1.072376303e-05
1.101160666e-05
1.106929499e-05
5.033181611e-06
5.091971395e-06
5.169620268e-06
5.166070242e-06
5.255986842e-06
5.355072198e-06
5.427342156e-06
5.524296226e-06
5.700949389e-06
5.83492904e-06
5.927222859e-06
6.206560723e-06
6.555916073e-06
6.831604044e-06
7.142964157e-06
7.514863823e-06
7.841438277e-06
8.300759334e-06
8.651864913e-06
4.8983567e-06
4.932866344e-06
4.987857591e-06
5.013048149e-06
5.063948886e-06
5.092162179e-06
5.193806249e-06
5.278955321e-06
5.417712631e-06
5.457256853e-06
5.77233272e-06
5.886264219e-06
6.049851193e-06
6.356803274e-06
4.93533656e-06
4.940654414e-06
4.948171242e-06
5.006426322e-06
5.049652301e-06
5.040796535e-06
5.099716046e-06
5.162151323e-06
4.814098553e-06
)
;

boundaryField
{
    flow
    {
        type            calculated;
        value           nonuniform List<scalar> 
15
(
8.837825978e-06
7.987201633e-06
8.191761044e-06
8.53568205e-06
8.54340414e-06
8.709054297e-06
9.076717499e-06
9.467074899e-06
9.53974067e-06
9.724459366e-06
1.007135871e-05
1.047554424e-05
1.060140517e-05
1.071619452e-05
1.089192783e-05
)
;
    }
    obstacle
    {
        type            calculated;
        value           nonuniform List<scalar> 
30
(
6.449864432e-24
6.501503677e-24
6.275410289e-24
6.671148147e-24
6.328395805e-24
6.228142459e-24
6.398213084e-24
5.931168282e-24
6.728385578e-24
6.248965376e-24
6.364936657e-24
6.445840038e-24
5.900841414e-24
6.522272919e-24
6.372197729e-24
5.95370589e-24
5.862578921e-24
5.636925074e-24
5.91407784e-24
6.479635534e-24
5.706630939e-24
5.730641582e-24
6.2508658e-24
5.969506879e-24
5.636979439e-24
5.23480112e-24
5.103408736e-24
5.414228059e-24
4.3960648e-24
4.099221274e-24
)
;
    }
    frontAndBack
    {
        type            empty;
    }
    procBoundary1to0
    {
        type            processor;
        value           nonuniform List<scalar> 
21
(
1.472508082e-05
1.305580378e-05
1.236980153e-05
1.13520571e-05
1.047734483e-05
9.431997391e-06
8.597713341e-06
7.676673924e-06
6.993927055e-06
6.306341959e-06
6.067324871e-06
5.619005725e-06
5.466476145e-06
5.229101407e-06
5.122156673e-06
5.033737532e-06
4.989061094e-06
4.962440226e-06
4.874798662e-06
4.887047345e-06
4.844797964e-06
)
;
    }
    procBoundary1to3
    {
        type            processor;
        value           nonuniform List<scalar> 
36
(
1.126922572e-05
1.117355074e-05
1.146702639e-05
1.139093208e-05
1.126922572e-05
1.137815829e-05
9.201802007e-06
9.551532465e-06
9.918818774e-06
1.037234791e-05
1.072712107e-05
1.117355074e-05
1.103616455e-05
6.661502979e-06
7.067324136e-06
7.359695812e-06
7.637259851e-06
9.201802007e-06
8.139569131e-06
5.268785823e-06
5.433248133e-06
5.483818007e-06
5.692930281e-06
5.822539427e-06
6.661502979e-06
6.027874116e-06
4.857397742e-06
4.846595173e-06
4.841585923e-06
4.910128267e-06
5.001518849e-06
5.021111764e-06
5.268785823e-06
5.118759201e-06
4.857397742e-06
4.86721108e-06
)
;
    }
}


// ************************************************************************* //
