/*--------------------------------*- C++ -*----------------------------------*\
| =========                 |                                                 |
| \\      /  F ield         | OpenFOAM: The Open Source CFD Toolbox           |
|  \\    /   O peration     | Version:  2406                                  |
|   \\  /    A nd           | Website:  www.openfoam.com                      |
|    \\/     M anipulation  |                                                 |
\*---------------------------------------------------------------------------*/
FoamFile
{
    version     2.0;
    format      ascii;
    arch        "LSB;label=32;scalar=64";
    class       volScalarField;
    location    "0.003";
    object      rhoM;
}
// * * * * * * * * * * * * * * * * * * * * * * * * * * * * * * * * * * * * * //

dimensions      [1 -3 0 0 0 0 0];

internalField   nonuniform List<scalar> 
546
(
2.004132645e-05
1.778833193e-05
1.141775513e-05
1.797903557e-05
1.473774398e-05
1.214272246e-05
1.566465519e-05
1.876948466e-05
1.495820097e-05
2.002191797e-05
1.640063847e-05
1.329089998e-05
1.641999615e-05
1.787022557e-05
1.594150184e-05
1.314269027e-05
1.460183252e-05
1.46392681e-05
1.175856363e-05
1.506113453e-05
1.859656169e-05
1.646728164e-05
1.741011835e-05
1.550293281e-05
9.041213976e-06
1.486982799e-05
1.196600182e-05
7.895936946e-06
1.218671338e-05
9.935789129e-06
1.244206646e-05
2.034072513e-05
1.459384407e-05
1.226441815e-05
1.442989874e-05
1.654938755e-05
1.80023272e-05
1.374303781e-05
1.84404326e-05
1.523458492e-05
1.591792498e-05
1.515442724e-05
1.878897199e-05
1.251736559e-05
1.63552389e-05
1.339297682e-05
1.755625429e-05
1.540475183e-05
1.090107413e-05
1.895582414e-05
6.984061341e-06
1.083120503e-05
1.59893209e-05
1.353157388e-05
8.678607177e-06
1.176770123e-05
1.251865407e-05
1.4491314e-05
9.468173596e-06
3.500531642e-06
1.244206645e-05
1.260874103e-05
1.247645145e-05
1.104593593e-05
1.205103163e-05
1.221980358e-05
1.309208961e-05
1.405801839e-05
1.361339992e-05
1.340030527e-05
1.366655316e-05
1.045424888e-05
8.169289368e-06
1.309388847e-05
1.502728041e-05
1.280695847e-05
1.536096007e-05
1.089462511e-05
1.682209331e-05
1.367663403e-05
1.178652355e-05
8.806237145e-06
1.163625637e-05
8.334158657e-06
1.166303536e-05
1.304491828e-05
9.113218741e-06
5.387394618e-06
5.250217001e-06
1.097537895e-05
1.527277622e-05
1.411025513e-05
8.771014353e-06
1.157925129e-05
1.442989874e-05
1.446260818e-05
1.519674534e-05
1.193710186e-05
1.503708262e-05
9.014318485e-06
9.808718626e-06
1.215623953e-05
1.633857874e-05
1.021127408e-05
1.071041531e-05
1.280695847e-05
1.080416159e-05
1.217111475e-05
8.067844107e-06
1.185869519e-05
7.682257175e-06
1.215192848e-05
1.208105797e-05
9.767481755e-06
7.685249662e-06
1.313583416e-05
7.180044552e-06
1.671988635e-05
9.561604885e-06
1.324543962e-05
7.747772433e-06
6.529688025e-06
1.141775513e-05
1.112186168e-05
1.281787133e-05
9.358487004e-06
1.083208971e-05
1.083750749e-05
7.360778012e-06
1.403823203e-05
1.1014534e-05
1.36139732e-05
1.249818627e-05
1.31759655e-05
1.012918347e-05
9.040561813e-06
1.527683848e-05
1.097945108e-05
1.527819874e-05
1.203123648e-05
1.711105541e-05
1.364818271e-05
1.474558816e-05
9.678168897e-06
7.052321139e-06
9.851875604e-06
1.794900267e-05
7.430811998e-06
1.162386754e-05
2.649543775e-06
7.003415571e-06
7.580567117e-06
7.787679009e-06
8.684897236e-06
1.1360691e-05
9.358487004e-06
1.511907324e-05
1.209364626e-05
8.626697421e-06
1.03696727e-05
1.479417573e-05
1.612559896e-05
1.298865846e-05
1.037741184e-05
8.468235369e-06
1.548474727e-05
1.282917945e-05
8.426471778e-06
1.424755737e-05
6.404878699e-06
1.283276583e-05
1.039025682e-05
1.341332315e-05
1.451617404e-05
9.854356933e-06
1.058140003e-05
1.012456684e-05
5.294817137e-06
1.312554247e-05
6.244376336e-06
1.072878935e-05
9.156885729e-06
2.722101742e-06
8.151581866e-06
8.213135236e-06
9.281405878e-06
1.309208962e-05
1.115248807e-05
1.036781324e-05
1.005167005e-05
1.165750644e-05
1.6369856e-05
1.339771329e-05
9.470597153e-06
1.328358489e-05
7.365935603e-06
8.692988969e-06
1.123392892e-05
8.583164828e-06
1.255094554e-05
1.056415519e-05
1.35604174e-05
8.438392202e-06
1.156021504e-05
1.039717842e-05
1.131092455e-05
9.941088517e-06
1.226050415e-05
1.012445078e-05
6.24437645e-06
1.162345336e-05
6.454883518e-06
8.846375322e-06
1.097001018e-05
8.366133393e-06
1.453968931e-05
1.465116338e-05
1.178055745e-05
1.448300458e-05
9.093819149e-06
7.477217335e-06
1.369474148e-05
1.307007587e-05
1.309388848e-05
1.079316275e-05
1.598935322e-05
1.249065988e-05
1.089462506e-05
1.244496865e-05
1.436888422e-05
7.68225711e-06
1.461784441e-05
8.883193743e-06
9.050820195e-06
1.238607108e-05
1.140184023e-05
1.205774083e-05
1.086736665e-05
8.811896446e-06
8.893920087e-06
6.481827342e-06
9.457911744e-06
8.771014346e-06
7.694192271e-06
9.901661737e-06
1.005408012e-05
1.527441743e-05
1.185882965e-05
1.551037252e-05
1.204495104e-05
1.230047882e-05
8.752258221e-06
7.106927559e-06
1.177668869e-05
1.386481675e-05
1.180379579e-05
9.53827126e-06
1.293659855e-05
8.153386307e-06
9.43477671e-06
1.667599741e-05
1.215192854e-05
9.505060182e-06
1.057345617e-05
1.103010677e-05
1.240630975e-05
8.56056655e-06
1.29107841e-05
1.4248976e-05
1.154346394e-05
4.917062665e-06
3.827685809e-06
7.636957077e-06
6.170171956e-06
8.673978629e-06
7.115682402e-06
5.533491627e-06
1.303669624e-05
7.439659656e-06
1.324130389e-05
1.23004789e-05
1.191198252e-05
1.454149244e-05
1.004712003e-05
1.610699662e-05
1.079861688e-05
1.02973989e-05
8.169943772e-06
1.991194993e-05
1.834984461e-05
1.64128596e-05
1.223969384e-05
1.296852148e-05
1.263412795e-05
1.220585669e-05
7.115609731e-06
1.049374066e-05
1.105475925e-05
1.359269887e-05
1.173206577e-05
9.164024674e-06
4.502734362e-06
8.166305197e-06
8.760822967e-06
6.063765348e-06
6.186982932e-06
9.50790955e-06
1.539242943e-05
9.655971895e-06
1.379973002e-05
1.109466341e-05
8.752258208e-06
1.462290996e-05
1.136431984e-05
1.137439462e-05
1.130120639e-05
9.790635982e-06
9.957439231e-06
9.440654277e-06
1.038792399e-05
1.073817832e-05
8.894002598e-06
1.092585765e-05
1.523499418e-05
1.482767796e-05
8.574658558e-06
5.89126178e-06
7.430811985e-06
1.199985089e-05
8.893920249e-06
5.512907125e-06
3.152637262e-06
7.71231808e-06
5.560930854e-06
3.837896379e-06
7.269844626e-06
6.079073543e-06
8.481774264e-06
5.777425462e-06
9.57274465e-06
1.41492668e-05
1.1750446e-05
9.394486031e-06
1.259944262e-05
7.14027685e-06
1.389556634e-05
1.215417358e-05
9.191955559e-06
1.433309956e-05
1.748505291e-05
9.341786577e-06
8.18975803e-06
1.12821267e-05
1.039483043e-05
1.057739291e-05
7.206525676e-06
1.012456684e-05
1.235308164e-05
1.265612791e-05
9.650606991e-06
8.493923993e-06
3.902490297e-06
5.973551632e-06
5.027615496e-06
1.051550327e-05
6.72841381e-06
9.43023748e-06
5.104719076e-06
7.360778023e-06
8.056467566e-06
8.602903202e-06
1.288510625e-05
9.066848555e-06
1.259944262e-05
8.883972356e-06
9.207419452e-06
1.038152042e-05
8.000291866e-06
1.107215853e-05
1.454142564e-05
1.877058507e-05
1.021472606e-05
1.2081058e-05
1.621959433e-05
8.318178153e-06
1.204044875e-05
7.18004452e-06
1.095994424e-05
1.415554471e-05
9.462005059e-06
6.929159325e-06
7.055127576e-06
5.594925403e-06
4.036910506e-06
9.748663565e-06
5.876795406e-06
4.987909644e-06
5.732788419e-06
1.321708518e-05
9.252820455e-06
8.763162141e-06
9.725382043e-06
1.102873738e-05
7.000351533e-06
1.062766786e-05
1.012916968e-05
1.333594218e-05
1.548957771e-05
8.067844107e-06
1.116644489e-05
1.143637406e-05
1.637739498e-05
1.47455882e-05
2.025162504e-05
8.951106684e-06
9.304182971e-06
1.518795876e-05
1.41187664e-05
1.509211568e-05
1.220584989e-05
5.811726706e-06
5.553613502e-06
5.594925444e-06
5.409079341e-06
5.602921992e-06
5.49138982e-06
5.065581779e-06
7.775432803e-06
8.94413054e-06
8.056467566e-06
5.145716067e-06
7.131035906e-06
6.372203156e-06
9.058228314e-06
7.969750991e-06
1.096547458e-05
9.031508507e-06
1.531992593e-05
1.31313739e-05
1.142525692e-05
1.955579235e-05
8.894002598e-06
1.030399129e-05
1.442686114e-05
1.175314265e-05
8.026965978e-06
1.546317638e-05
1.486162397e-05
1.490525325e-05
1.031299302e-05
6.481827318e-06
2.62719769e-06
4.764133396e-06
5.027615496e-06
7.981789073e-06
4.562690333e-06
4.987909719e-06
6.36085785e-06
4.669269431e-06
7.577542176e-06
6.431660868e-06
1.077732199e-05
5.228423887e-06
1.021127408e-05
8.30274052e-06
1.021259853e-05
1.02132773e-05
8.426471806e-06
9.269569877e-06
1.064673602e-05
1.274575433e-05
1.514655828e-05
1.225812275e-05
1.344226099e-05
1.112021401e-05
1.194953287e-05
1.067721899e-05
1.01245093e-05
1.818663874e-05
6.333314887e-06
5.478808951e-06
3.85615904e-06
6.703487328e-06
5.602921951e-06
4.485609174e-06
5.143253838e-06
4.39837742e-06
4.669269359e-06
8.535393081e-06
7.557346887e-06
7.69836613e-06
5.391258734e-06
6.58798275e-06
5.479328758e-06
7.44936441e-06
1.207005188e-05
9.787787406e-06
1.339006787e-05
1.133898618e-05
1.126235085e-05
9.773777665e-06
7.727993401e-06
1.344226111e-05
8.588500037e-06
4.694294037e-06
5.404004439e-06
6.728982627e-06
3.809133238e-06
4.836082243e-06
7.192763554e-06
5.688835873e-06
5.732788463e-06
8.626697434e-06
7.41854079e-06
4.582873076e-06
2.350089183e-06
6.94409277e-06
7.246582652e-06
7.305771736e-06
6.027041267e-06
9.790636061e-06
9.702961373e-06
5.578850366e-06
3.799630017e-06
5.478808951e-06
3.931520003e-06
3.885059022e-06
5.065579479e-06
6.959657136e-06
5.611163691e-06
4.633194056e-06
5.698543856e-06
8.773895007e-06
4.020030157e-06
5.267508585e-06
3.512755059e-06
4.694260066e-06
6.333314887e-06
3.678076765e-06
7.182969868e-06
7.009025417e-06
4.451737962e-06
3.944178338e-06
5.68883583e-06
2.827258131e-06
6.333314932e-06
)
;

boundaryField
{
    flow
    {
        type            zeroGradient;
    }
    obstacle
    {
        type            calculated;
        value           nonuniform List<scalar> 
30
(
3.940357259e-24
2.163129714e-24
2.873914398e-24
2.96608132e-24
1e-300
5.918829065e-24
4.170788688e-24
1.94822663e-23
2.248787368e-24
1.032241904e-23
5.220026247e-24
3.67048045e-24
1.524219413e-23
5.810517116e-24
1e-300
1e-300
3.749753558e-24
6.071677167e-23
1.357533956e-23
2.661534451e-24
6.492508559e-24
2.884901093e-24
8.440435866e-24
1.454462993e-23
1e-300
7.558708759e-24
1e-300
4.925296332e-24
7.147385148e-24
1.671152462e-23
)
;
    }
    frontAndBack
    {
        type            empty;
    }
    procBoundary1to0
    {
        type            processor;
        value           nonuniform List<scalar> 
21
(
9.985497935e-06
1.079815449e-05
2.196667013e-05
7.988042017e-06
9.615136788e-06
1.013292974e-05
7.988042017e-06
7.691396763e-06
8.358403171e-06
5.472793145e-06
7.617680863e-06
7.099887939e-06
4.363491336e-06
4.289775405e-06
5.916870199e-06
4.73385249e-06
4.80756839e-06
3.624550681e-06
4.881284325e-06
4.216059536e-06
3.771982481e-06
)
;
    }
    procBoundary1to3
    {
        type            processor;
        value           nonuniform List<scalar> 
36
(
1.400212661e-05
9.031435406e-06
8.007914311e-06
1.365364155e-05
1.400212661e-05
9.374742289e-06
7.097128921e-06
1.588868698e-05
1.232745934e-05
1.048105603e-05
1.263628657e-05
9.031435406e-06
1.112021401e-05
8.71647759e-06
7.44936441e-06
5.402080784e-06
5.021132633e-06
7.097128921e-06
1.004151716e-05
6.806699967e-06
7.657042781e-06
7.55734677e-06
4.213616447e-06
7.025510173e-06
8.71647759e-06
5.434936989e-06
3.152637273e-06
5.065577285e-06
4.875763983e-06
1.688526493e-06
6.109901815e-06
8.494417761e-06
6.806699967e-06
5.497971858e-06
3.152637273e-06
2.08635289e-06
)
;
    }
}


// ************************************************************************* //
