/*--------------------------------*- C++ -*----------------------------------*\
| =========                 |                                                 |
| \\      /  F ield         | OpenFOAM: The Open Source CFD Toolbox           |
|  \\    /   O peration     | Version:  2406                                  |
|   \\  /    A nd           | Website:  www.openfoam.com                      |
|    \\/     M anipulation  |                                                 |
\*---------------------------------------------------------------------------*/
FoamFile
{
    version     2.0;
    format      ascii;
    arch        "LSB;label=32;scalar=64";
    class       volScalarField;
    location    "0.003";
    object      rhoN;
}
// * * * * * * * * * * * * * * * * * * * * * * * * * * * * * * * * * * * * * //

dimensions      [0 -3 0 0 0 0 0];

internalField   nonuniform List<scalar> 
546
(
4.150271891e+20
3.728925777e+20
2.390604576e+20
3.784818665e+20
3.120053062e+20
2.561608405e+20
3.285224668e+20
3.901786462e+20
3.098070844e+20
4.203207308e+20
3.389161873e+20
2.806149478e+20
3.443636374e+20
3.719502456e+20
3.374894538e+20
2.77255994e+20
3.049725702e+20
3.075261136e+20
2.455138673e+20
3.1276367e+20
3.94312406e+20
3.446979492e+20
3.610836934e+20
3.237928704e+20
1.905591287e+20
3.158708867e+20
2.494418317e+20
1.678141818e+20
2.540427581e+20
2.136728845e+20
2.579898745e+20
4.293914531e+20
3.073634455e+20
2.523212443e+20
3.004495542e+20
3.376665627e+20
3.754542478e+20
2.837662882e+20
3.813010269e+20
3.122382569e+20
3.268120377e+20
3.172168975e+20
3.935584424e+20
2.603651717e+20
3.374894535e+20
2.77255994e+20
3.685085223e+20
3.203397014e+20
2.325920846e+20
3.909545878e+20
1.445812157e+20
2.253794285e+20
3.343367534e+20
2.833187616e+20
1.769477624e+20
2.472033029e+20
2.632997114e+20
3.076593336e+20
1.975888119e+20
7.122429483e+19
2.579898743e+20
2.598948269e+20
2.618281203e+20
2.293829494e+20
2.54226546e+20
2.561608405e+20
2.698577404e+20
2.955898835e+20
2.859757704e+20
2.76210766e+20
2.783954393e+20
2.196116983e+20
1.721818186e+20
2.727635132e+20
3.12490235e+20
2.646534489e+20
3.176797606e+20
2.30644585e+20
3.488881272e+20
2.867000311e+20
2.497311902e+20
1.85606588e+20
2.407224625e+20
1.753878048e+20
2.450045941e+20
2.746703363e+20
1.940103135e+20
1.118761212e+20
1.129078925e+20
2.279177437e+20
3.140746296e+20
2.937941519e+20
1.821413011e+20
2.40852097e+20
3.004495542e+20
3.027355387e+20
3.167895216e+20
2.482955022e+20
3.098070844e+20
1.921466198e+20
2.057705423e+20
2.562136478e+20
3.443636371e+20
2.107718058e+20
2.249929692e+20
2.646534489e+20
2.287294276e+20
2.562717612e+20
1.679831722e+20
2.476045723e+20
1.577249625e+20
2.518946554e+20
2.540959324e+20
2.023705438e+20
1.633363961e+20
2.746703363e+20
1.52436675e+20
3.496128795e+20
1.975888121e+20
2.706523196e+20
1.570373148e+20
1.355973009e+20
2.390604575e+20
2.293829492e+20
2.657822979e+20
1.979424678e+20
2.229259596e+20
2.246483115e+20
1.549035422e+20
2.882199295e+20
2.299788414e+20
2.80614948e+20
2.58272728e+20
2.727635134e+20
2.124933598e+20
1.890381778e+20
3.176797608e+20
2.306445854e+20
3.230445622e+20
2.476045721e+20
3.548811651e+20
2.784098818e+20
3.075898129e+20
2.02370544e+20
1.4972503e+20
2.060027518e+20
3.741627461e+20
1.538296672e+20
2.399292718e+20
5.697943602e+19
1.458203639e+20
1.581968513e+20
1.593736385e+20
1.835063596e+20
2.426707939e+20
1.979424678e+20
3.167895216e+20
2.482955022e+20
1.787348564e+20
2.161649471e+20
3.14707888e+20
3.294175471e+20
2.705714289e+20
2.23170147e+20
1.749945314e+20
3.150636296e+20
2.668509989e+20
1.793902328e+20
2.972009972e+20
1.30318196e+20
2.628749375e+20
2.121218154e+20
2.808428743e+20
2.968101312e+20
2.041704936e+20
2.19736269e+20
2.078681941e+20
1.118761214e+20
2.822697305e+20
1.282037299e+20
2.243390211e+20
1.920961763e+20
5.691915654e+19
1.720372119e+20
1.733362812e+20
1.979424678e+20
2.698577406e+20
2.364719068e+20
2.144818276e+20
2.161649473e+20
2.420829911e+20
3.416181976e+20
2.828701307e+20
1.983734643e+20
2.749914066e+20
1.512305421e+20
1.779006659e+20
2.30644585e+20
1.809049554e+20
2.606363938e+20
2.234436984e+20
2.784098837e+20
1.738551121e+20
2.428446545e+20
2.177818641e+20
2.334697879e+20
2.078681941e+20
2.517212732e+20
2.117022998e+20
1.282037322e+20
2.467729232e+20
1.35597301e+20
1.821413012e+20
2.293829496e+20
1.733362812e+20
3.027355387e+20
3.050565763e+20
2.482955022e+20
2.978914275e+20
1.921466198e+20
1.57353944e+20
2.806149476e+20
2.705714292e+20
2.727635134e+20
2.249929697e+20
3.402687208e+20
2.541438081e+20
2.306445839e+20
2.584356485e+20
2.997318494e+20
1.577249612e+20
3.049251055e+20
1.872285806e+20
1.888791741e+20
2.586159591e+20
2.334697838e+20
2.494418286e+20
2.237522409e+20
1.834753248e+20
1.851831654e+20
1.346034128e+20
2.033959515e+20
1.821413009e+20
1.605680646e+20
2.080035376e+20
2.095861424e+20
3.167895216e+20
2.482955022e+20
3.098070844e+20
2.521924383e+20
2.541871399e+20
1.830097487e+20
1.475844161e+20
2.479668308e+20
2.874910164e+20
2.52050902e+20
2.033150464e+20
2.690853501e+20
1.679831722e+20
1.954772931e+20
3.548811657e+20
2.518946567e+20
2.006020524e+20
2.158619132e+20
2.313932265e+20
2.609368195e+20
1.801524349e+20
2.657057884e+20
2.96383217e+20
2.421626031e+20
1.009525595e+20
7.909842552e+19
1.593736384e+20
1.261606222e+20
1.848920333e+20
1.513677694e+20
1.173294523e+20
2.719426932e+20
1.549035421e+20
2.762107649e+20
2.541871414e+20
2.440129979e+20
3.074675319e+20
2.107718058e+20
3.374894527e+20
2.268458137e+20
2.160222386e+20
1.665766453e+20
4.134970393e+20
3.779227698e+20
3.417374188e+20
2.518946545e+20
2.674694032e+20
2.56336022e+20
2.586159613e+20
1.510686849e+20
2.217260718e+20
2.37736758e+20
2.822697305e+20
2.421626009e+20
1.906881679e+20
9.03982004e+19
1.70757469e+20
1.835063591e+20
1.271132729e+20
1.280804205e+20
1.9946007e+20
3.192370756e+20
2.025661709e+20
2.88219929e+20
2.299788401e+20
1.830097484e+20
3.074675343e+20
2.355684889e+20
2.374925797e+20
2.394483589e+20
2.033150448e+20
2.050174079e+20
1.938267371e+20
2.215409322e+20
2.234436969e+20
1.856065891e+20
2.273489927e+20
3.237928699e+20
3.130614241e+20
1.785357186e+20
1.247209165e+20
1.53829667e+20
2.540427597e+20
1.851831687e+20
1.12169511e+20
6.779865079e+19
1.593736392e+20
1.146914749e+20
8.089026452e+19
1.513677688e+20
1.290623967e+20
1.773539282e+20
1.191565702e+20
2.041557846e+20
2.90499592e+20
2.440129998e+20
1.96779222e+20
2.603651719e+20
1.499953123e+20
2.898585397e+20
2.541438101e+20
1.922038215e+20
2.97200997e+20
3.648909471e+20
1.971562015e+20
1.723489727e+20
2.407224588e+20
2.158619132e+20
2.177818641e+20
1.510686863e+20
2.078681941e+20
2.517212732e+20
2.68156244e+20
1.994280242e+20
1.794712164e+20
7.909842506e+19
1.252221442e+20
1.032223275e+20
2.195592894e+20
1.397240953e+20
1.994600706e+20
1.064123585e+20
1.549035424e+20
1.681282919e+20
1.815622422e+20
2.684142956e+20
1.844805192e+20
2.603651719e+20
1.874941404e+20
1.890381765e+20
2.160222368e+20
1.665766453e+20
2.325920846e+20
2.997318519e+20
3.943124096e+20
2.121218161e+20
2.54095933e+20
3.372842394e+20
1.769477615e+20
2.472033005e+20
1.524366744e+20
2.237522429e+20
2.96383217e+20
1.994280242e+20
1.458203633e+20
1.468970762e+20
1.138383129e+20
8.028403187e+19
2.080035373e+20
1.164367452e+20
1.055965064e+20
1.18235953e+20
2.740601135e+20
1.921466194e+20
1.815622422e+20
2.074110482e+20
2.336753243e+20
1.487800971e+20
2.249929685e+20
2.142432685e+20
2.795581889e+20
3.203396999e+20
1.679831722e+20
2.345727517e+20
2.365874418e+20
3.314403349e+20
3.075898137e+20
4.182324569e+20
1.905591277e+20
1.922692354e+20
3.187312282e+20
2.936748161e+20
3.104967035e+20
2.564074621e+20
1.233864621e+20
1.129977517e+20
1.138383137e+20
1.146914749e+20
1.155575216e+20
1.164367461e+20
1.055965072e+20
1.655303355e+20
1.906505138e+20
1.681282919e+20
1.089373462e+20
1.464077999e+20
1.352857151e+20
1.859751228e+20
1.62494923e+20
2.268458137e+20
1.90607856e+20
3.203397025e+20
2.713574343e+20
2.345727537e+20
4.074561532e+20
1.856065891e+20
2.139755226e+20
2.968101307e+20
2.450045949e+20
1.648022032e+20
3.18731231e+20
3.076593339e+20
3.104967063e+20
2.136728851e+20
1.346034123e+20
5.649887505e+19
1.024544816e+20
1.032223275e+20
1.61780529e+20
9.314939689e+19
1.05596508e+20
1.300595493e+20
9.53252576e+19
1.561191294e+20
1.331456443e+20
2.196116964e+20
1.106883115e+20
2.107718058e+20
1.74994531e+20
2.142432685e+20
2.160222386e+20
1.793902334e+20
1.938267371e+20
2.21540934e+20
2.628749398e+20
3.181827242e+20
2.54095933e+20
2.833187611e+20
2.313932265e+20
2.472033005e+20
2.217260718e+20
2.097677277e+20
3.810641362e+20
1.346034123e+20
1.129977509e+20
7.968681962e+19
1.376297699e+20
1.155575207e+20
9.314939619e+19
1.055965064e+20
9.458876172e+19
9.532525615e+19
1.80137457e+20
1.573539457e+20
1.586084499e+20
1.106883124e+20
1.363817567e+20
1.124964842e+20
1.512305412e+20
2.541438081e+20
2.050174096e+20
2.842792145e+20
2.345727517e+20
2.365874418e+20
1.988641993e+20
1.604816405e+20
2.833187636e+20
1.769477646e+20
1.009525599e+20
1.129977509e+20
1.366059745e+20
8.028403187e+19
1.040017687e+20
1.513677699e+20
1.173294533e+20
1.182359539e+20
1.787348566e+20
1.561191282e+20
9.683319584e+19
4.880259958e+19
1.475844165e+20
1.487800982e+20
1.499953135e+20
1.260254531e+20
2.033150464e+20
2.050174079e+20
1.162960423e+20
7.851865773e+19
1.129977509e+20
7.968681962e+19
8.028403246e+19
1.040017687e+20
1.397240943e+20
1.173294515e+20
9.458876244e+19
1.191565711e+20
1.801374556e+20
8.472904702e+19
1.09805849e+20
7.379220766e+19
9.918673216e+19
1.346034123e+20
7.909842506e+19
1.479898068e+20
1.490989174e+20
9.244601728e+19
8.150572227e+19
1.173294524e+20
5.911797697e+19
1.346034132e+20
)
;

boundaryField
{
    flow
    {
        type            zeroGradient;
    }
    obstacle
    {
        type            calculated;
        value           nonuniform List<scalar> 
30
(
84.73886579
46.51891858
61.80461071
63.78669506
1e-300
127.2866466
89.69438039
398.330065
48.36101866
206.9026852
112.258629
78.93506345
311.4401369
124.9573573
1e-300
1e-300
80.63986146
1305.737025
291.9427862
57.23730002
139.62384
54.30913202
181.5147498
312.7877404
1e-300
162.5528765
1e-300
105.9203512
144.1828409
359.3876262
)
;
    }
    frontAndBack
    {
        type            empty;
    }
    procBoundary1to0
    {
        type            processor;
        value           nonuniform List<scalar> 
21
(
2.115713147e+20
2.227066471e+20
4.565486265e+20
1.670299853e+20
2.004359825e+20
2.115713149e+20
1.670299853e+20
1.55894653e+20
1.781653177e+20
1.113533235e+20
1.55894653e+20
1.447593212e+20
8.908265883e+19
8.908265819e+19
1.224886559e+20
1.002179912e+20
1.002179912e+20
7.794732648e+19
1.002179919e+20
8.908265883e+19
7.794732648e+19
)
;
    }
    procBoundary1to3
    {
        type            processor;
        value           nonuniform List<scalar> 
36
(
2.848971801e+20
1.922692371e+20
1.662945553e+20
2.796903036e+20
2.848971801e+20
1.975888113e+20
1.433500149e+20
3.285936719e+20
2.518946567e+20
2.139755226e+20
2.698273915e+20
1.922692371e+20
2.313932265e+20
1.74994531e+20
1.512305412e+20
1.143647136e+20
1.025087048e+20
1.433500149e+20
2.067485196e+20
1.429878853e+20
1.561191282e+20
1.573539432e+20
8.540454926e+19
1.475844165e+20
1.74994531e+20
1.115850737e+20
6.779865104e+19
1.024544824e+20
1.032223275e+20
3.466725622e+19
1.280804207e+20
1.7599418e+20
1.429878853e+20
1.182359539e+20
6.779865104e+19
4.486780409e+19
)
;
    }
}


// ************************************************************************* //
