/*--------------------------------*- C++ -*----------------------------------*\
| =========                 |                                                 |
| \\      /  F ield         | OpenFOAM: The Open Source CFD Toolbox           |
|  \\    /   O peration     | Version:  2406                                  |
|   \\  /    A nd           | Website:  www.openfoam.com                      |
|    \\/     M anipulation  |                                                 |
\*---------------------------------------------------------------------------*/
FoamFile
{
    version     2.0;
    format      ascii;
    arch        "LSB;label=32;scalar=64";
    class       volScalarField;
    location    "0.003";
    object      rhoNMean;
}
// * * * * * * * * * * * * * * * * * * * * * * * * * * * * * * * * * * * * * //

dimensions      [0 -3 0 0 0 0 0];

internalField   nonuniform List<scalar> 
546
(
3.085409337e+20
3.077908069e+20
3.006014497e+20
3.029154769e+20
2.939937407e+20
2.914566993e+20
2.986347443e+20
2.985536647e+20
3.092271891e+20
3.063137364e+20
2.986819942e+20
2.968662134e+20
2.829685203e+20
2.957913664e+20
2.947241235e+20
2.880437727e+20
2.773894955e+20
2.787382524e+20
2.839432484e+20
2.796889119e+20
2.720229851e+20
2.864970262e+20
2.816363652e+20
2.782909779e+20
2.6402421e+20
2.577506436e+20
2.499869082e+20
2.415498687e+20
2.184015001e+20
1.839011292e+20
2.750321621e+20
2.713753984e+20
2.697816238e+20
2.74464345e+20
2.690179085e+20
2.708939702e+20
2.70405278e+20
2.699484464e+20
2.666167993e+20
2.694856341e+20
2.68155329e+20
2.65900964e+20
2.62618269e+20
2.712591811e+20
2.703415519e+20
2.685686396e+20
2.628185838e+20
2.61542417e+20
2.564026224e+20
2.543724306e+20
2.484255785e+20
2.526459201e+20
2.516262985e+20
2.433753133e+20
2.386163262e+20
2.428360445e+20
2.322950156e+20
2.177295781e+20
2.010607296e+20
1.664274356e+20
2.572196436e+20
2.615973263e+20
2.55771922e+20
2.555708361e+20
2.516380575e+20
2.466828894e+20
2.498178699e+20
2.485004445e+20
2.52318011e+20
2.498546546e+20
2.54647098e+20
2.526103894e+20
2.535090308e+20
2.516945982e+20
2.494088729e+20
2.457580328e+20
2.468498812e+20
2.404597935e+20
2.443681359e+20
2.447462598e+20
2.394352552e+20
2.380448683e+20
2.446096845e+20
2.322584248e+20
2.270648133e+20
2.256142142e+20
2.192963244e+20
2.128816127e+20
1.896852594e+20
1.706819003e+20
2.38120915e+20
2.447681945e+20
2.492831382e+20
2.470224984e+20
2.473470214e+20
2.440048442e+20
2.417299599e+20
2.463327853e+20
2.473690412e+20
2.464840827e+20
2.47675108e+20
2.473153071e+20
2.492618793e+20
2.500414862e+20
2.397591744e+20
2.376587971e+20
2.348034646e+20
2.370172095e+20
2.392769534e+20
2.413319231e+20
2.318556949e+20
2.271029182e+20
2.281068221e+20
2.246133152e+20
2.268379571e+20
2.170170327e+20
2.110739827e+20
2.039594924e+20
1.915952848e+20
1.77984764e+20
2.245708381e+20
2.306208761e+20
2.374743103e+20
2.408903272e+20
2.445120102e+20
2.424523545e+20
2.400717036e+20
2.42651706e+20
2.482666874e+20
2.431055044e+20
2.422766573e+20
2.459569685e+20
2.456624596e+20
2.453879754e+20
2.413174591e+20
2.408514419e+20
2.378193047e+20
2.420657636e+20
2.337895033e+20
2.321748977e+20
2.3005062e+20
2.235675543e+20
2.213398462e+20
2.211595247e+20
2.180722376e+20
2.154422557e+20
2.163954075e+20
2.054791434e+20
1.933171301e+20
1.77918289e+20
2.054646318e+20
2.136561474e+20
2.219619432e+20
2.251087806e+20
2.297206477e+20
2.369643025e+20
2.359886386e+20
2.373074409e+20
2.414191564e+20
2.408157572e+20
2.397186469e+20
2.405480133e+20
2.399312644e+20
2.414453024e+20
2.437757154e+20
2.448842563e+20
2.345662638e+20
2.382729411e+20
2.362101839e+20
2.341644225e+20
2.318031199e+20
2.229753816e+20
2.223562313e+20
2.246313038e+20
2.234895595e+20
2.154056334e+20
2.092909365e+20
2.065606122e+20
1.984450295e+20
1.814225226e+20
1.873230826e+20
2.004580098e+20
2.070870699e+20
2.167974714e+20
2.207764955e+20
2.302264962e+20
2.305914838e+20
2.332953009e+20
2.342459309e+20
2.40567568e+20
2.413809504e+20
2.41060441e+20
2.429485462e+20
2.442307968e+20
2.394425174e+20
2.369026442e+20
2.35896283e+20
2.323103515e+20
2.335396829e+20
2.311062904e+20
2.297264095e+20
2.287380251e+20
2.262701995e+20
2.246852709e+20
2.249232944e+20
2.221167472e+20
2.13300483e+20
2.093854843e+20
1.998940159e+20
1.889817979e+20
1.714847477e+20
1.793349637e+20
1.909068513e+20
2.015511517e+20
2.072177464e+20
2.144299108e+20
2.229024937e+20
2.28928453e+20
2.303693706e+20
2.308721698e+20
2.347559455e+20
2.350658546e+20
2.364056369e+20
2.372463978e+20
2.432423995e+20
2.428762514e+20
2.410977592e+20
2.379397867e+20
2.36132652e+20
2.376482611e+20
2.355622296e+20
2.301875202e+20
2.294530834e+20
2.262592621e+20
2.221284232e+20
2.208715711e+20
2.177811935e+20
2.094693895e+20
2.049090064e+20
1.969304257e+20
1.545621077e+20
1.648637185e+20
1.740132454e+20
1.82221815e+20
1.95962444e+20
2.042533394e+20
2.087603837e+20
2.155520255e+20
2.211784269e+20
2.232663659e+20
2.270899838e+20
2.33113751e+20
2.352085636e+20
2.380564231e+20
2.400508322e+20
2.432627273e+20
2.399286977e+20
2.409894226e+20
2.427313766e+20
2.388558764e+20
2.376564685e+20
2.331041991e+20
2.293015194e+20
2.268888593e+20
2.25277186e+20
2.232428936e+20
2.216152107e+20
2.157251311e+20
2.079481105e+20
1.988392386e+20
1.382676167e+20
1.467690119e+20
1.566642866e+20
1.655074441e+20
1.746151178e+20
1.825107176e+20
1.946495613e+20
2.018051256e+20
2.113440378e+20
2.173658628e+20
2.197468011e+20
2.241747411e+20
2.294035753e+20
2.34642746e+20
2.366842697e+20
2.389778639e+20
2.394966552e+20
2.385633832e+20
2.35357346e+20
2.366057175e+20
2.392424807e+20
2.377090082e+20
2.354800626e+20
2.271856694e+20
2.288887371e+20
2.262551117e+20
2.210239392e+20
2.1931449e+20
2.1056381e+20
2.024669275e+20
1.312532833e+20
1.368252095e+20
1.441344823e+20
1.497258968e+20
1.594693787e+20
1.675912896e+20
1.773317352e+20
1.890198784e+20
1.970452497e+20
2.082388987e+20
2.145581537e+20
2.189365955e+20
2.220079581e+20
2.262284049e+20
2.297428219e+20
2.316599859e+20
2.349983059e+20
2.401778934e+20
2.382518253e+20
2.384736097e+20
2.391986682e+20
2.383276988e+20
2.360952422e+20
2.335266131e+20
2.247236571e+20
2.234900969e+20
2.239618117e+20
2.253837696e+20
2.200574839e+20
2.095228847e+20
1.231471671e+20
1.278983881e+20
1.341470689e+20
1.406805632e+20
1.469968702e+20
1.544184115e+20
1.647540159e+20
1.717731913e+20
1.800058587e+20
1.869346437e+20
1.943603659e+20
2.017824833e+20
2.123165814e+20
2.170866945e+20
2.213597487e+20
2.282320936e+20
2.294071459e+20
2.343178144e+20
2.386653223e+20
2.388385006e+20
2.365085793e+20
2.398832548e+20
2.362824667e+20
2.35019658e+20
2.359938724e+20
2.333049857e+20
2.281746071e+20
2.225402515e+20
2.191165828e+20
2.182407345e+20
1.15205565e+20
1.193105577e+20
1.256774975e+20
1.300448404e+20
1.369125506e+20
1.441176419e+20
1.507370596e+20
1.565995798e+20
1.642613051e+20
1.70850369e+20
1.815299645e+20
1.924611837e+20
2.012231512e+20
2.103833245e+20
2.156932591e+20
2.193683017e+20
2.252730715e+20
2.26749255e+20
2.327213024e+20
2.360062538e+20
2.351942086e+20
2.403075025e+20
2.392602968e+20
2.397956029e+20
2.367833276e+20
2.331859578e+20
2.310385668e+20
2.280967656e+20
2.281209872e+20
2.209947406e+20
1.109655575e+20
1.141126621e+20
1.165097187e+20
1.225134326e+20
1.271671997e+20
1.32124656e+20
1.372285265e+20
1.451228088e+20
1.519087406e+20
1.616113191e+20
1.710961876e+20
1.768768884e+20
1.852594369e+20
1.929925826e+20
2.023603424e+20
2.089670029e+20
2.175725141e+20
2.23955891e+20
2.234520771e+20
2.267884115e+20
2.299367059e+20
2.329362674e+20
2.411147513e+20
2.418642795e+20
2.379357566e+20
2.347698921e+20
2.346878084e+20
2.329820208e+20
2.259851462e+20
2.233119063e+20
1.09425097e+20
1.116719114e+20
1.13914206e+20
1.146073679e+20
1.175142956e+20
1.227553802e+20
1.297507305e+20
1.365388796e+20
1.431229294e+20
1.482090924e+20
1.541100324e+20
1.601538655e+20
1.697630746e+20
1.802884168e+20
1.906023781e+20
2.01287852e+20
2.085927662e+20
2.140552604e+20
2.209710967e+20
2.267102225e+20
2.320397074e+20
2.351723868e+20
2.379318654e+20
2.391480171e+20
2.409393335e+20
2.393935115e+20
2.381892347e+20
2.368417491e+20
2.324773521e+20
2.269680868e+20
1.050729192e+20
1.051783058e+20
1.076303303e+20
1.092627451e+20
1.139089001e+20
1.16918018e+20
1.213734085e+20
1.263627052e+20
1.321843572e+20
1.372247117e+20
1.44975433e+20
1.547123732e+20
1.607686231e+20
1.695183908e+20
1.766778117e+20
1.840811769e+20
1.932848391e+20
2.014381473e+20
2.092725745e+20
2.176748275e+20
2.219715991e+20
2.258036733e+20
2.288022431e+20
2.354963531e+20
2.387887355e+20
2.380201556e+20
2.377919734e+20
2.385385369e+20
2.383297424e+20
1.043475564e+20
1.061124213e+20
1.073115838e+20
1.114954058e+20
1.114513768e+20
1.139915736e+20
1.165707211e+20
1.207662015e+20
1.240340458e+20
1.305476166e+20
1.359457396e+20
1.400959969e+20
1.444851437e+20
1.516978413e+20
1.601116628e+20
1.683279941e+20
1.803065604e+20
1.902390713e+20
1.99538165e+20
2.01263421e+20
2.070402991e+20
2.180877385e+20
2.236311661e+20
2.295151812e+20
2.30776182e+20
1.048635369e+20
1.061500872e+20
1.077593462e+20
1.07756463e+20
1.095870488e+20
1.117016518e+20
1.131368808e+20
1.151302896e+20
1.18743495e+20
1.215967856e+20
1.23486533e+20
1.292374174e+20
1.365237844e+20
1.422998984e+20
1.488620156e+20
1.566664415e+20
1.634314115e+20
1.730261499e+20
1.80431156e+20
1.022312924e+20
1.029032852e+20
1.040406295e+20
1.045527486e+20
1.056041663e+20
1.061670243e+20
1.082716179e+20
1.100146131e+20
1.128333291e+20
1.13702762e+20
1.203152468e+20
1.226978691e+20
1.261682768e+20
1.326457231e+20
1.028519629e+20
1.029560167e+20
1.031223331e+20
1.042927812e+20
1.051804562e+20
1.050181825e+20
1.063083059e+20
1.075947181e+20
1.003618005e+20
)
;

boundaryField
{
    flow
    {
        type            calculated;
        value           nonuniform List<scalar> 
15
(
1.839011292e+20
1.664274356e+20
1.706819003e+20
1.77984764e+20
1.77918289e+20
1.814225226e+20
1.889817979e+20
1.969304257e+20
1.988392386e+20
2.024669275e+20
2.095228847e+20
2.182407345e+20
2.209947406e+20
2.233119063e+20
2.269680868e+20
)
;
    }
    obstacle
    {
        type            calculated;
        value           nonuniform List<scalar> 
30
(
134.8558294
135.6324243
130.7035374
138.9794102
132.1075468
129.9060205
133.108323
123.4604139
140.044125
129.706293
132.8416239
134.7507286
123.2640241
135.4606807
133.0732039
124.4066853
122.5282277
117.7644659
122.820406
135.730683
118.708513
119.4585199
130.4706211
124.3801366
116.8658187
108.8959741
106.3012686
113.3082831
91.72144181
85.37185611
)
;
    }
    frontAndBack
    {
        type            empty;
    }
    procBoundary1to0
    {
        type            processor;
        value           nonuniform List<scalar> 
21
(
3.070605014e+20
2.720138987e+20
2.578720266e+20
2.365367299e+20
2.181114667e+20
1.965683104e+20
1.792640038e+20
1.600147259e+20
1.459470894e+20
1.314340395e+20
1.266384231e+20
1.172476266e+20
1.139515678e+20
1.089777852e+20
1.067804137e+20
1.048799837e+20
1.039297686e+20
1.034101198e+20
1.017620913e+20
1.018363262e+20
1.01004888e+20
)
;
    }
    procBoundary1to3
    {
        type            processor;
        value           nonuniform List<scalar> 
36
(
2.350211804e+20
2.329021359e+20
2.388913673e+20
2.373078996e+20
2.350211804e+20
2.369089848e+20
1.919673897e+20
1.992679652e+20
2.068718012e+20
2.162490125e+20
2.235969651e+20
2.329021359e+20
2.298324565e+20
1.389789899e+20
1.474581794e+20
1.535791032e+20
1.592985273e+20
1.919673897e+20
1.696630039e+20
1.098861899e+20
1.133745115e+20
1.14335796e+20
1.188180624e+20
1.214537756e+20
1.389789899e+20
1.256861208e+20
1.012459855e+20
1.009897627e+20
1.009361441e+20
1.023762595e+20
1.042652249e+20
1.046891602e+20
1.098861899e+20
1.06759184e+20
1.012459855e+20
1.015657525e+20
)
;
    }
}


// ************************************************************************* //
