/*--------------------------------*- C++ -*----------------------------------*\
| =========                 |                                                 |
| \\      /  F ield         | OpenFOAM: The Open Source CFD Toolbox           |
|  \\    /   O peration     | Version:  2406                                  |
|   \\  /    A nd           | Website:  www.openfoam.com                      |
|    \\/     M anipulation  |                                                 |
\*---------------------------------------------------------------------------*/
FoamFile
{
    version     2.0;
    format      ascii;
    arch        "LSB;label=32;scalar=64";
    class       volScalarField;
    location    "0.003";
    object      translationalT;
}
// * * * * * * * * * * * * * * * * * * * * * * * * * * * * * * * * * * * * * //

dimensions      [1 2 -2 0 0 0 0];

internalField   nonuniform List<scalar> 
546
(
936.8069307
911.0428272
899.7877131
889.5160753
882.2528818
882.9284744
868.5449616
845.9055573
827.2026627
828.8560578
832.1054618
825.5729316
820.4645646
819.887853
805.886503
802.104072
808.9506624
788.4673655
782.9032333
794.3246611
798.3366486
774.3795726
781.1406645
791.2619059
783.2666568
782.714637
771.6075657
754.2949943
771.6565799
752.8737553
1030.006877
1013.60046
1003.101624
989.490164
978.1433403
967.2014545
957.7295154
945.0797996
951.150802
939.3890447
919.6943406
908.9135026
920.3655062
911.7453823
904.0975884
886.0415049
878.6021325
875.8205864
876.7499116
890.5104243
892.8484964
889.2441896
869.4934764
865.5147985
858.7625206
844.3208064
836.2751844
824.1794068
814.8723878
761.8424048
1024.951687
1038.384684
1012.253928
1018.73674
1013.711988
997.9066569
994.1769976
996.6058443
983.6979518
985.5954401
974.1310141
964.9025589
966.3444616
956.5819409
945.1360035
943.0391495
924.1931797
924.8264238
916.0901367
915.9435138
919.3036879
912.1171235
899.04512
907.1203979
901.9300128
884.7126099
874.7310194
850.3822057
825.6854165
767.9365416
1025.240597
1032.280723
1023.864751
1008.50843
1005.627244
1000.380415
993.5701308
989.245703
978.7085979
981.9792701
968.9950919
969.1409846
970.4737199
960.7510749
962.3849762
955.6447338
947.425629
935.7011748
934.4968777
936.4808762
943.0206421
935.0688783
928.877396
931.3393086
919.8255262
902.0242407
867.9665909
853.2781293
816.0339316
769.7556979
997.2633487
997.21505
1001.064701
975.7315416
977.3425386
977.1483909
959.4465526
961.4944111
954.8656505
957.3113199
959.1731929
954.2343486
950.1805378
952.4064889
942.2061069
943.3711373
937.9571872
937.813682
947.8880115
949.6255099
930.3061272
925.6921723
931.5083637
934.0318922
922.2717196
899.6569098
875.0988554
851.6779215
819.5090216
761.3657821
968.3968698
977.6607767
965.5354993
951.5259705
935.4785463
935.7068235
932.119904
933.3326574
948.3036825
940.7100915
932.888344
942.0891236
948.8668041
939.5508853
933.2389155
937.7335283
924.3464473
935.581379
922.9397009
930.9366704
911.8066895
913.6336584
908.9488959
902.3735104
904.2031781
895.5144238
870.2241337
855.7574185
823.0366271
766.673594
944.0108143
955.0621955
948.9204316
933.5617538
917.2908459
927.9827456
913.3204934
920.1721215
917.1644229
920.095853
912.9822058
908.7756392
907.820682
919.4932326
924.6503866
922.4930321
931.6908274
930.9305037
926.1010616
915.7842386
908.6862187
898.4371892
907.3645469
895.3245622
889.8137401
862.9027049
862.7423583
858.25835
818.8991936
784.2395423
907.4893071
904.6114301
903.4740563
915.3829013
898.8414728
915.925319
906.5333589
894.7363048
898.7563253
895.5177928
897.4037645
884.3224767
894.7446461
895.9340194
902.3786047
904.2640352
899.4596338
891.552618
898.8253242
901.0777192
897.4834801
893.8598534
887.869717
883.5877619
879.1699021
868.0576337
841.3562282
830.2657346
809.7935227
776.3961059
853.2162439
878.4325338
882.1901719
887.0873385
889.7687184
893.1483708
882.9162207
884.2512487
895.0881339
878.6901501
873.5409198
878.0881706
873.8962285
872.4464663
880.8071194
883.9852638
877.523783
871.8924445
864.7772426
869.8531534
872.7408314
861.6047468
873.2426481
861.8472345
863.5689614
863.8865653
849.9727724
837.1974819
824.0470999
788.5375388
788.6164092
815.5588943
837.0553036
858.2512815
871.675806
862.355307
860.1525231
869.8487619
870.9101618
868.6757166
860.8185767
865.3093285
858.0419316
861.4688885
852.2668545
860.7277247
859.7279794
858.3218651
850.1683677
851.4727563
861.501588
857.5212094
857.0381446
853.8380825
857.420046
847.4804304
837.9384882
827.9614652
812.6164465
787.0679869
701.235783
734.2362818
784.9970471
792.0253404
819.3552222
828.6699327
842.5662487
850.0358303
840.2930146
849.3978451
829.6144575
834.805447
851.6760315
853.1468502
847.7763604
843.4098107
840.440835
846.2029104
837.3825703
841.6440131
850.4900557
846.1448519
857.8790914
850.5828188
837.6581077
847.4068621
837.241695
821.163423
800.7269884
775.0062767
643.4691068
673.780837
711.6555299
738.2752509
771.2440939
788.1964557
815.1997794
817.3225759
832.7271307
825.3773991
826.1007901
826.5495803
830.2860125
829.0310341
832.1004937
824.4947919
825.2493487
823.9743197
826.6292102
827.2156473
827.9695773
831.3786152
824.2550861
820.6849347
825.797861
818.778485
813.8204466
805.0273279
795.6924784
779.7822717
568.2615215
606.9373061
650.5221079
668.010651
703.8557155
738.3325792
756.6764229
775.7278118
783.7322107
800.2308824
812.7656884
807.7303941
807.0539304
815.0341295
814.1371225
812.9180883
820.3070789
812.1488782
818.4747036
816.4191497
812.4863196
828.3916298
821.4025666
830.7639871
822.3816342
804.5157921
795.3143091
788.079814
795.0752401
770.1448432
516.1493433
549.2897008
585.1751287
605.50433
650.3013932
681.9959706
701.1710765
729.7451841
745.3208466
767.6045791
777.8564318
776.7660948
795.5452961
800.8157956
801.0840946
805.8151444
820.1294451
816.7524416
808.0661979
805.9555504
806.2125217
807.9223134
811.0140811
807.5256753
797.9077925
790.1341343
798.9395097
802.7557495
784.0183534
768.8556384
463.7351625
495.5223106
513.0116694
541.9603471
575.9087556
616.9509168
638.7301427
683.889327
703.7868284
722.5470938
738.0261746
753.9806303
775.6291019
775.9612258
776.7757579
783.1373962
788.3346044
788.046024
781.818516
781.6657458
785.2925133
789.8660328
795.3817789
796.987296
796.9120247
781.5220776
773.8398158
782.222277
777.089121
759.3118504
429.3619388
453.2473194
478.3962435
495.6949057
529.133298
552.559548
589.083448
633.8009792
658.2375395
662.2724726
681.4194018
711.4679037
716.6439404
731.9341404
754.6315624
760.3624673
772.6668427
767.0853299
777.0968135
770.755666
756.3505517
759.3222259
770.6313811
775.9929822
772.9646396
765.4354698
754.0907993
762.3732121
758.2301789
396.2756189
409.7792275
423.8309442
457.8875539
474.8057816
502.9195043
522.8539989
564.5841647
602.6731462
618.533632
652.5477959
679.963957
688.1211593
707.2539592
727.5483139
729.8593159
753.0292827
760.3698142
773.2000063
766.6529868
744.0693753
762.7173993
756.790747
776.2959113
764.1523445
371.9181119
386.51003
409.1247649
433.5256586
440.5896149
454.7406191
474.3577993
507.4624215
531.2134752
574.4048301
598.258924
610.5106182
647.215967
661.9390679
691.6394765
710.6212548
724.7012764
742.79799
736.9587542
357.2981578
372.2189791
370.7166305
391.8886227
415.2713072
430.7186544
447.1943479
472.9855988
504.567989
520.6255712
565.4915154
577.6311904
595.9833086
610.9867723
347.3391459
352.8419133
349.9635736
363.4132841
390.943793
403.5260093
408.676713
425.3573839
339.6506713
)
;

boundaryField
{
    flow
    {
        type            calculated;
        value           nonuniform List<scalar> 
15
(
752.8737553
761.8424048
767.9365416
769.7556979
761.3657821
766.673594
784.2395423
776.3961059
788.5375388
787.0679869
775.0062767
779.7822717
770.1448432
768.8556384
759.3118504
)
;
    }
    obstacle
    {
        type            calculated;
        value           nonuniform List<scalar> 
30
(
804.0344582
808.5360084
782.4704648
777.1350275
753.5242525
750.812351
753.8265072
788.6416052
705.739783
721.8545553
769.4090804
736.5120215
740.8381448
706.3430603
708.1133862
712.974273
714.4200145
711.0292658
696.8916516
679.7893014
724.8074464
713.3487682
666.8571571
739.8921409
692.8905447
758.5344063
733.1207603
704.2714267
723.0622165
731.0177505
)
;
    }
    frontAndBack
    {
        type            empty;
    }
    procBoundary1to0
    {
        type            processor;
        value           nonuniform List<scalar> 
21
(
950.7143732
1062.632646
1046.599455
1044.913534
1005.234683
984.4207727
942.1017745
892.1338902
831.6103219
763.3800302
664.3950186
595.5800616
543.8349428
481.8446405
440.2882529
411.9066747
390.2914786
358.1720004
343.1818574
329.2399075
330.2241545
)
;
    }
    procBoundary1to3
    {
        type            processor;
        value           nonuniform List<scalar> 
36
(
748.0726325
768.9975516
768.6496081
754.2918628
748.0726325
742.2697463
755.1760561
753.6647424
746.9142969
738.4089805
752.867894
768.9975516
759.1675084
647.2390829
680.2520039
682.1038604
698.1945128
755.1760561
712.9442587
463.097308
470.0929208
488.5541054
535.6823175
548.0587222
647.2390829
573.7262061
336.6703129
337.3397084
347.3369471
364.5669502
383.0344325
388.9278911
463.097308
409.0415124
336.6703129
327.5408008
)
;
    }
}


// ************************************************************************* //
