/*--------------------------------*- C++ -*----------------------------------*\
| =========                 |                                                 |
| \\      /  F ield         | OpenFOAM: The Open Source CFD Toolbox           |
|  \\    /   O peration     | Version:  2406                                  |
|   \\  /    A nd           | Website:  www.openfoam.com                      |
|    \\/     M anipulation  |                                                 |
\*---------------------------------------------------------------------------*/
FoamFile
{
    version     2.0;
    format      ascii;
    arch        "LSB;label=32;scalar=64";
    class       volVectorField;
    location    "0.003";
    object      UMean;
}
// * * * * * * * * * * * * * * * * * * * * * * * * * * * * * * * * * * * * * //

dimensions      [0 1 -1 0 0 0 0];

internalField   nonuniform List<vector> 
546
(
(370.656514 103.5371988 8.214392002)
(348.4752019 100.776732 4.421703298)
(347.9856558 97.19545163 0.9838243186)
(329.6233725 90.9667448 -10.88705845)
(331.1735254 89.3296588 -7.007543295)
(332.2995336 89.92928611 -10.08359243)
(319.8987605 82.37078239 -10.95089232)
(310.7266102 90.16673239 -2.119795232)
(294.1567864 78.73042006 7.758324742)
(282.8754818 80.20136244 -1.243180942)
(278.7282946 80.33486308 1.921794515)
(270.8875674 72.4516127 -1.258837913)
(271.8788851 77.23125648 -13.55794667)
(261.5383817 66.97733482 4.756667491)
(257.0666543 70.93007385 1.494641653)
(256.9191863 68.47352493 -9.809730269)
(256.0036722 72.86127634 -3.563537713)
(254.1479156 67.88907499 7.529911496)
(234.8551521 68.45248448 9.526180429)
(235.5796012 60.0625411 -7.013857766)
(248.0657692 63.0912893 -9.406008048)
(241.3718225 63.03267345 -3.764909955)
(236.4431088 66.77027559 9.298218535)
(245.9363992 59.77390409 12.07531042)
(260.5893794 65.395039 -3.454996318)
(264.3720883 74.01385753 -7.480998044)
(268.5429236 72.29556232 1.390424158)
(281.4807688 71.86625176 10.50927803)
(318.2722279 80.36061783 13.1247286)
(417.1779945 77.74419004 0.09275946826)
(642.4517749 200.6323853 -3.494965904)
(636.2456273 189.2634156 -7.520815161)
(612.3537708 176.8503948 -5.337349008)
(587.8703815 175.8155728 -2.370645926)
(585.6978731 160.0332188 -6.323878112)
(570.2957062 160.494003 -11.11844544)
(543.0463426 154.1335425 -6.697229408)
(534.3466767 150.2888739 -4.301120574)
(523.1117232 152.6178412 -9.442107017)
(505.1368551 149.2721329 -5.975718013)
(488.4457574 150.757851 7.343021169)
(480.8698921 136.4318356 -1.273172149)
(470.6522567 136.3989249 -9.9292358)
(447.0394232 118.9067814 10.62250305)
(434.7830498 118.5720615 7.224662384)
(428.6999071 126.1137529 -6.599817581)
(425.2869721 121.4746565 -3.555779388)
(417.9005595 114.5801136 0.3070310012)
(418.0471791 121.9444721 3.504811503)
(410.3441048 109.6724316 -0.3758121575)
(416.1358288 100.5200664 -3.848654615)
(399.5905226 108.8840581 8.005265343)
(406.9740711 110.1127199 -12.72122368)
(413.4767633 99.3963316 -2.833542509)
(414.8530242 110.3831891 -2.915919774)
(407.2643286 112.2270039 -1.634558575)
(427.6559009 113.2334855 11.12725308)
(446.516431 112.2112164 2.248440763)
(497.9425451 115.0741308 -1.694159602)
(633.3589878 85.86179453 -8.123599074)
(836.0127491 265.7544943 -6.785443489)
(815.4248149 252.2864534 -9.747137131)
(813.2778518 251.1778414 -10.16541575)
(785.9054711 235.8045074 -12.2589245)
(765.8054386 226.3054811 -2.466780707)
(746.0841218 226.8850846 -6.272566727)
(731.95295 217.8158319 -13.52689596)
(706.2905817 213.5289644 -18.78136617)
(683.2597476 204.7089889 -14.47229411)
(673.9852889 199.4812051 -6.770425824)
(657.4719081 207.0171122 -1.79700366)
(645.0421414 194.9515855 4.389210089)
(626.7745976 180.5666034 2.217111566)
(599.537227 174.8933899 -3.917272831)
(595.2779988 169.2875067 3.629115441)
(597.7510877 175.341685 5.232262816)
(590.6583586 171.2162892 -1.511834091)
(585.8207941 166.7437091 -2.340190262)
(570.9612279 167.4609473 -0.4470453578)
(561.0532475 154.4567174 3.689226316)
(566.7713418 144.6830596 -3.440642815)
(566.2220485 144.9239057 -2.955193134)
(545.4390244 150.7183955 -10.01000511)
(551.5376738 149.2455087 -1.943521558)
(547.1891224 148.014985 -8.477497837)
(544.2871381 144.5601844 3.302057838)
(560.8752955 148.3030733 4.073382608)
(590.0677554 149.1372142 4.392928146)
(658.8306972 141.40324 -4.080894067)
(742.5806256 104.5256504 -7.145218513)
(1005.326097 312.7538774 2.569662203)
(969.113026 305.574502 -4.135636412)
(940.8836449 303.314254 -8.294625359)
(928.4935237 301.0139815 -8.937193353)
(918.0335835 294.2014831 -7.443524875)
(909.5863183 271.2876894 -2.733240239)
(892.527987 276.8768951 -0.4477755149)
(861.4123299 267.2206231 1.886701725)
(829.9690025 258.9744347 -5.165216691)
(813.253748 250.4786571 -7.938261126)
(795.3740495 242.7515322 -5.102069667)
(771.3969509 240.229536 -3.201570823)
(752.3971587 230.1043017 -7.277063459)
(741.2931965 225.6085936 -14.18650594)
(745.7861023 221.0093202 5.771034368)
(729.2156404 211.6794425 -0.7477242613)
(729.1055724 219.1091109 11.80361921)
(712.276521 203.5517766 1.519342987)
(696.2361435 204.5946299 -5.965242279)
(681.6271907 191.5538879 1.35667872)
(692.2459956 180.1390923 7.731884413)
(681.7174084 183.338048 4.165535153)
(665.360923 194.296325 -7.742555744)
(665.4819539 193.9042452 1.716672266)
(657.5320703 178.9995244 0.8646134443)
(674.4955884 178.8017095 -0.299394893)
(676.1530143 174.8615997 -4.086448448)
(707.8411681 175.5455185 1.591755497)
(750.9473957 153.3950463 3.15262961)
(813.7444544 137.8101957 17.51066923)
(1117.663382 338.9097733 -5.826188867)
(1087.077216 342.5603043 4.470654849)
(1069.369064 346.674325 1.062339891)
(1055.622341 338.3606917 -3.274765458)
(1024.362277 326.913513 0.4090021377)
(1004.408289 326.5685959 -3.542532829)
(999.1264501 315.8051125 -0.2372263371)
(974.6578909 305.11229 -9.304450392)
(944.5723457 305.1628769 -20.2950113)
(938.2260933 293.9469837 -11.61016304)
(928.3472872 289.8942965 -13.95752495)
(906.6679519 286.3454582 -3.390159775)
(893.0551151 273.9725523 -4.954466537)
(868.6322299 279.9059256 7.201922864)
(857.9207872 263.3211363 -1.808872193)
(838.9235866 254.1839461 -10.35570388)
(832.0893539 243.7435919 -5.142588284)
(811.0453051 242.5090929 1.715474685)
(807.7919163 238.4358888 -0.9678784646)
(784.0961258 230.9831136 -2.692983617)
(780.8072592 223.6236424 -4.236591248)
(781.0754026 215.8440853 -10.34007688)
(782.4925843 222.1355171 -3.421966541)
(773.3402586 219.8599271 7.98651466)
(778.1448671 216.3776738 12.95683001)
(773.179105 214.5008741 8.681614059)
(777.0617349 201.7318462 -7.020860232)
(794.7484035 194.3886376 -3.333670312)
(835.2999175 183.8932217 0.5520366723)
(882.4585559 165.2053625 -4.35805211)
(1196.513196 346.674748 -5.437094102)
(1169.505296 357.3176978 -4.128422)
(1149.095337 360.0015895 4.521574961)
(1137.409777 367.0810718 1.187417739)
(1120.084559 360.1137636 0.7427492411)
(1094.432208 363.2300077 1.756049392)
(1095.982967 344.3324067 -3.85238798)
(1071.83468 336.7349819 2.006240364)
(1044.915097 337.1264431 -3.377950875)
(1038.118619 334.3652521 -1.488197234)
(1026.719682 323.7873571 -6.554595904)
(1008.696405 318.3816919 -3.898641011)
(990.7255225 320.5205065 -1.343949627)
(972.9054943 307.2926102 8.240177126)
(955.3964236 303.0614217 0.9646766473)
(936.8159327 289.4464254 -0.1609173738)
(948.1160295 285.4051282 -0.6075841083)
(919.6688342 284.2458241 2.036539226)
(910.0099949 284.6606479 -0.6865675182)
(892.1745329 266.9739459 -3.030361582)
(879.9136887 261.4722999 -5.230057681)
(881.8996354 254.0585418 6.279820966)
(871.7365714 253.3493237 -3.852229402)
(858.0713803 246.0656888 5.529132446)
(849.2309229 244.3996945 6.773120494)
(860.7707256 233.5835747 3.025063261)
(871.4019429 230.6531231 -3.187825063)
(876.4902382 219.5465696 -5.243865224)
(908.4419973 212.5352538 -1.93197665)
(971.776835 193.9646523 -9.055987573)
(1274.389089 336.0262894 2.346215269)
(1244.621136 350.1823484 2.272298006)
(1232.014188 363.4452192 -9.190089732)
(1205.784278 370.2407748 -2.970688931)
(1198.576539 369.7599212 -1.026073889)
(1177.42044 377.5912922 -0.7407566887)
(1170.987746 373.7722968 3.39400112)
(1152.582489 370.0485883 0.3212489371)
(1149.75286 360.3583937 4.961248156)
(1120.685033 355.6080094 12.3676347)
(1099.610822 353.6778779 4.630420917)
(1084.50564 345.1796591 -1.730989813)
(1069.612387 344.4116576 1.796523131)
(1052.311694 340.9523839 -0.5762162679)
(1036.402983 338.7296216 -2.00001253)
(1027.53093 333.4600759 -4.933917144)
(1014.457757 316.198911 -11.04931695)
(997.0396223 311.6416889 -9.493660864)
(987.0866761 310.6691339 1.568657763)
(971.0874348 309.1637354 0.4817650647)
(965.0741369 291.8230457 2.237712866)
(960.3425579 289.5745144 -3.928046523)
(951.05069 271.7048736 -5.181664523)
(949.677265 267.3620472 -4.034548725)
(947.8264332 274.7317953 -3.723830567)
(950.7717952 270.6607787 2.760306791)
(960.9769642 257.3379894 5.852429453)
(962.1409768 248.7910897 0.9558394297)
(983.267554 238.0025627 -2.083000847)
(1023.852187 219.0780694 0.7216174194)
(1339.315005 307.8992487 -3.606880319)
(1317.582845 328.3562508 -2.125506604)
(1304.103071 344.5576134 -2.990397772)
(1283.66985 369.3091928 -0.1128473779)
(1273.489343 370.3211178 -4.246873345)
(1237.747419 379.29579 -0.1373219725)
(1229.619808 382.5036726 -0.7340614618)
(1215.799422 381.3270334 5.299936523)
(1199.637267 381.892014 0.02636733516)
(1192.608811 378.8566964 -4.897393229)
(1172.536742 379.1675612 -2.915284028)
(1160.777718 374.7334947 2.21202508)
(1144.704102 369.6128805 -1.209472745)
(1118.162497 372.8625508 -4.09961581)
(1100.665279 363.6199696 -2.512428008)
(1094.523442 349.7859607 5.279826185)
(1082.355969 348.500916 4.943074411)
(1071.05898 341.5655407 0.2361834464)
(1060.740946 339.6155999 5.994539424)
(1054.343623 332.2872853 -1.870563342)
(1046.150692 320.8392989 -1.828486186)
(1047.535276 311.0204099 -0.1615181082)
(1036.212703 305.2833889 -1.000416587)
(1026.10517 290.267212 3.584495718)
(1014.98087 298.6719169 -2.509989554)
(1000.537293 293.8239713 7.539174204)
(1003.005489 282.8261421 0.7779808495)
(1033.148304 273.4367728 7.801725982)
(1039.456665 263.3363256 5.436942561)
(1062.683363 241.8719745 2.516900943)
(1419.853459 274.9905004 1.32534774)
(1388.237802 296.9717793 2.867809334)
(1363.110315 318.6666466 3.334982287)
(1338.251656 339.8375374 -0.1882794894)
(1317.884398 352.4434578 5.160658658)
(1297.265299 368.8437036 3.333011333)
(1283.808707 381.8055192 3.651828128)
(1268.448015 385.2971072 3.80657782)
(1248.353049 396.2850493 2.579251945)
(1245.837934 393.3715052 0.935936581)
(1236.189187 391.5958345 -7.400161381)
(1215.528927 394.6609136 4.263957624)
(1199.822936 387.9855102 1.249085966)
(1192.116407 384.1220475 0.1766670977)
(1173.001517 379.2096997 7.964912754)
(1145.743242 381.0148388 3.817183299)
(1142.608841 371.807527 -3.659466168)
(1136.503492 361.5417215 0.1053761424)
(1122.311594 356.6654153 -1.172027661)
(1107.191617 354.3589144 0.09710379113)
(1093.833193 352.3059742 -3.432903169)
(1094.036918 337.7032017 0.2031135031)
(1080.95582 327.2985984 -3.094838743)
(1088.294552 328.1176706 5.632375028)
(1074.868165 318.4020271 2.28308111)
(1072.073129 311.4538358 -6.994479685)
(1062.554142 304.3897411 -1.546734262)
(1074.582116 294.85584 -3.332823869)
(1084.91943 285.8736156 -2.881283271)
(1120.601241 268.4175213 -4.729377461)
(1478.034501 226.3518422 5.11970129)
(1447.028028 255.3670517 2.704581546)
(1424.813684 281.876497 8.953271009)
(1401.619255 304.0367177 3.899098528)
(1371.784912 333.2163941 -0.0550070204)
(1356.415168 361.8124279 -4.527421706)
(1336.778176 368.2523054 -4.991464674)
(1319.571593 378.4295629 -6.565034405)
(1298.820766 383.6729282 -6.724213916)
(1284.969253 395.4608191 -3.41489035)
(1280.896598 392.757455 2.374422962)
(1269.463531 395.2202391 -4.256535794)
(1247.86919 396.0310102 3.111633947)
(1227.883138 399.8545333 2.349291795)
(1220.352055 397.8175055 -0.6790855454)
(1207.436539 394.9161311 -0.498353376)
(1204.75977 391.070964 -1.137639863)
(1186.618894 389.804815 -5.733023862)
(1184.693897 384.1489627 -2.494149722)
(1173.472237 378.9570223 -2.81710672)
(1151.616606 369.7419204 -9.878909357)
(1145.434817 361.4127878 -7.796529151)
(1141.898557 357.3656404 0.5187212598)
(1144.538102 344.4134155 -1.902927296)
(1133.378944 340.4518734 5.949121574)
(1127.698783 335.3206056 -4.699376581)
(1128.18325 331.9839301 -1.383728672)
(1125.067004 323.5466159 0.09021074467)
(1135.558178 310.3007911 -1.743287314)
(1156.758521 291.1273921 5.092924331)
(1529.25406 184.4278796 -0.3215572876)
(1502.502364 211.2607555 1.954333237)
(1469.670252 242.9664964 -3.635209811)
(1461.721533 275.2485914 0.338296692)
(1435.419116 297.539992 10.42452098)
(1417.158164 316.3235684 12.02512314)
(1388.915983 344.6430978 3.197688405)
(1368.526485 356.4646293 3.534633602)
(1356.01936 373.4669547 3.012933175)
(1331.342183 379.2241375 -4.045478492)
(1324.432091 389.2346721 -4.791831826)
(1314.738732 401.0264024 -5.453882148)
(1307.017407 407.7375598 -2.545404644)
(1291.667892 405.0186482 3.060004405)
(1271.701328 409.7734961 3.245676232)
(1268.089821 402.2190806 -1.184064589)
(1255.217564 409.4213662 7.381506142)
(1238.047719 407.944819 4.918317337)
(1227.890494 401.7634603 1.508911005)
(1226.544771 389.8454171 3.598135514)
(1203.100214 388.4380331 1.226746515)
(1198.26858 382.4600134 -4.782791544)
(1188.103849 380.8180034 -2.229516582)
(1180.208721 369.991732 -1.29769899)
(1184.022396 368.6961982 5.116635498)
(1178.145062 357.850213 9.917984623)
(1171.007214 344.3897863 8.646760002)
(1168.081824 336.7719389 5.433172984)
(1183.832264 328.9172665 2.32503719)
(1196.088163 319.8751003 0.3427968506)
(1569.242175 146.2320767 5.123827065)
(1553.07355 177.5666293 1.844122716)
(1525.374254 204.4833819 0.5196056369)
(1506.322197 224.8783165 -2.095591123)
(1483.351055 256.629144 -1.739079236)
(1460.189951 284.2290906 -1.13836643)
(1433.196419 308.2117616 7.626282244)
(1418.197538 316.7790399 -2.501316773)
(1407.285923 341.790173 4.416308427)
(1391.601305 369.178624 1.246035485)
(1379.328332 387.8240092 -6.493248279)
(1358.12011 389.1381395 1.578487609)
(1337.051584 404.9800498 6.380687333)
(1328.447236 407.7980435 2.456069567)
(1316.487469 405.3849613 7.758475971)
(1305.994798 414.442703 9.662571338)
(1300.029804 415.8269505 5.51508987)
(1281.853452 408.4758726 3.968330655)
(1274.625664 412.9897392 4.759049201)
(1259.57493 411.3882385 1.566218729)
(1258.766091 405.7403809 5.440938232)
(1237.239774 399.8876506 8.543716316)
(1233.228888 399.9878671 -0.4846969508)
(1231.030281 393.1110172 -0.7302820341)
(1224.299748 379.130652 2.014050845)
(1227.656377 366.6511924 -4.271583509)
(1226.665145 361.4338633 -3.602217828)
(1225.113245 357.9227828 2.138469692)
(1213.429012 360.3537745 3.804409919)
(1219.806749 340.3670386 2.183534264)
(1621.914004 108.6654025 -2.921006659)
(1603.437861 132.8450265 -2.985028468)
(1572.868052 165.5706278 -2.619816447)
(1553.182322 185.6754483 -0.2307916997)
(1533.32057 218.805793 -2.465356935)
(1509.394919 243.5569305 1.882852849)
(1484.661513 270.35468 0.697385848)
(1468.24195 295.7763034 3.596396956)
(1451.35948 326.910151 -0.547889777)
(1437.127667 341.424083 2.45465492)
(1412.857994 353.5118603 4.475218065)
(1397.23954 373.2206388 -6.946632276)
(1382.713419 378.2517292 -6.695103651)
(1363.893484 395.3165919 3.27917026)
(1350.461023 403.5149282 5.810159551)
(1342.788475 413.5983546 5.188417874)
(1323.358205 414.2951386 2.562774369)
(1326.352106 415.0749469 6.782009907)
(1305.191548 414.8941764 5.677165095)
(1302.122802 416.7828769 6.166596292)
(1299.892345 415.7722792 7.325948813)
(1273.811058 420.8930339 7.2488401)
(1270.670804 410.1717112 4.802882217)
(1255.72964 400.8189566 6.264017347)
(1254.234949 390.5883831 3.521118946)
(1258.340582 391.0619522 0.4996272879)
(1248.762586 389.5055973 0.1817959678)
(1243.016594 377.4717322 -0.9558559774)
(1245.851772 365.1352057 0.1658207138)
(1256.662852 357.1794974 5.116567737)
(1644.316513 92.59754102 0.6464563234)
(1625.674815 105.9127841 -2.646911843)
(1610.94075 122.7862286 5.718874287)
(1591.431191 143.5740978 0.482196113)
(1571.217701 176.4559902 -2.261046)
(1549.532995 204.5051677 2.108115878)
(1526.999398 229.5162768 -0.4380721276)
(1495.004293 263.4629531 0.7303357859)
(1480.891702 276.9196049 -0.5396647573)
(1455.799647 297.2258064 -2.856105282)
(1440.384833 316.143269 0.1350892909)
(1435.053468 332.0852193 2.916803937)
(1411.752955 359.362259 -1.797991879)
(1396.14814 382.723587 -5.721276825)
(1377.469433 398.9016286 -5.664609164)
(1372.683252 402.4576288 -5.00029888)
(1357.727921 403.4958773 -3.000797994)
(1343.175164 411.258337 -3.005018514)
(1345.632102 419.3423161 3.699018713)
(1340.949507 425.2083154 4.516590579)
(1332.000567 420.4217444 2.181618505)
(1320.239105 415.2513585 7.067330498)
(1303.682801 420.9726231 8.098324898)
(1288.618716 410.7032401 4.938031248)
(1291.705886 413.850289 5.117530853)
(1288.548046 408.5901373 2.849094609)
(1287.14967 398.3774798 -2.35684123)
(1277.968068 390.196574 4.109938433)
(1281.216674 380.4490499 1.450644569)
(1282.128906 374.095595 -3.990266203)
(1671.182305 70.35299713 -3.206190498)
(1654.009763 82.6322192 -1.315655982)
(1642.539096 92.17117017 -6.592766271)
(1629.577701 122.4012323 -3.528860767)
(1611.870714 143.1335365 -3.444323913)
(1589.639353 169.6981263 -1.8751511)
(1569.455659 185.0691889 -1.841772361)
(1546.530472 216.7609336 -9.78959473)
(1525.810811 235.1363581 -4.09169598)
(1509.237864 260.1146912 -5.982146432)
(1490.306189 288.9152086 -2.337027099)
(1467.61683 312.4003227 4.065526326)
(1447.546907 333.2615 -3.113042968)
(1429.634013 342.9709967 -5.574883813)
(1424.066912 360.4522047 -1.563972385)
(1401.161022 378.4409247 -3.700571436)
(1390.165101 392.170501 -6.322558793)
(1382.039353 408.0362571 -2.033960474)
(1369.231931 409.7564047 -3.312089241)
(1359.98565 408.5581611 6.208507172)
(1350.080566 414.8445681 2.104694534)
(1348.79555 414.6156194 0.008296724103)
(1335.035093 419.2308579 0.2150954733)
(1322.809729 427.4756459 6.024278325)
(1312.919066 417.1730377 2.983951232)
(1315.492523 414.7474097 5.144549668)
(1313.911535 409.6765168 -0.9473646868)
(1298.321771 408.1268936 3.772841025)
(1306.181021 399.9578255 8.642662297)
(1312.916196 387.8778812 2.03018952)
(1677.210656 52.41180336 -0.9872581024)
(1670.836317 66.42335485 -0.8409209096)
(1666.59809 83.41774693 3.641460674)
(1647.685005 92.14701519 1.248312572)
(1638.259474 107.0724121 -3.15259427)
(1613.77588 122.9655495 -4.352535443)
(1596.111732 146.8778456 0.8553152109)
(1575.382921 173.3490409 0.7697122348)
(1555.547164 199.7540169 -3.221456804)
(1549.875684 223.7264848 3.316085316)
(1532.08728 250.7497141 5.455403483)
(1514.566818 271.2075254 -4.632151523)
(1502.348386 285.7045121 -6.451076825)
(1485.615084 312.1054358 4.922333813)
(1458.311604 332.7424889 0.1426012541)
(1438.344524 357.7943233 -0.1376599652)
(1414.981554 376.2052476 0.5600874055)
(1404.32178 384.1725798 -2.860138911)
(1390.421489 388.8746678 -8.112550619)
(1380.596304 400.5896865 -7.341516053)
(1383.413446 409.7946012 -0.5497706387)
(1372.065401 425.5248376 2.830916853)
(1361.335843 422.978833 0.3234233499)
(1344.59385 429.2752705 1.111544634)
(1344.564445 425.6908329 6.660866064)
(1346.003759 424.625255 7.046352747)
(1338.986059 420.5305635 5.557571553)
(1334.804357 417.9624458 -0.8348602414)
(1320.665759 405.5481324 -1.433703729)
(1698.739653 49.42891757 5.297257769)
(1690.717615 56.72986676 3.222466437)
(1683.408448 59.93374952 1.847029858)
(1668.377915 70.95369623 4.320898308)
(1662.333785 81.94602906 7.808225874)
(1653.991183 97.11004732 -3.564498141)
(1645.864011 117.601407 -0.7818281635)
(1628.549686 130.3701547 2.626581548)
(1612.379206 166.9579682 3.678587652)
(1590.392998 182.9330399 -0.2393724843)
(1568.494987 204.2150868 1.869748457)
(1547.81639 231.2867448 0.3079427238)
(1536.103493 262.8343705 -0.9319560674)
(1521.065494 277.2724576 -3.495998864)
(1495.403149 303.4066892 -0.7503452878)
(1480.226081 325.065005 -6.125708832)
(1456.781116 340.1391828 -9.931234415)
(1437.437845 362.6218059 -1.367102096)
(1426.531569 377.2935184 -3.221767847)
(1423.605459 396.2999273 -6.671427672)
(1414.495786 403.8209343 -10.23504863)
(1393.412184 409.5584056 -0.09592682164)
(1385.516466 416.3695754 1.46604009)
(1368.460101 421.4374039 -2.779234464)
(1372.211716 424.0049433 -4.867691573)
(1708.814749 29.62246376 -1.272012149)
(1698.688118 35.70022438 0.01709180982)
(1689.791311 47.05125873 -1.133463964)
(1682.648423 58.49011068 -1.966250125)
(1681.225805 69.03845296 1.131337228)
(1676.051353 78.82633312 4.100266846)
(1667.539422 86.09820779 4.944998825)
(1648.205231 114.6145866 -0.4219855447)
(1631.411571 125.0741704 3.602820682)
(1614.75716 158.452793 2.053280711)
(1598.575456 181.4058193 1.684089673)
(1584.462217 189.6295182 3.712843076)
(1565.850655 216.8523539 0.2999892914)
(1549.372707 239.6312462 0.3145861487)
(1528.315711 268.6778418 -1.700546372)
(1512.151475 285.8420155 3.973938608)
(1503.422467 304.4259141 -3.551880351)
(1478.189394 335.0386053 -11.03279157)
(1464.472211 359.6974444 4.119369915)
(1707.643848 26.066831 -1.511968115)
(1703.645615 24.67083617 1.200142159)
(1709.28211 27.7098681 2.729048496)
(1699.895642 42.2945832 0.2098039735)
(1686.041973 49.9907106 2.731853302)
(1675.602123 56.24487514 1.842751516)
(1668.596719 72.78415149 1.538944672)
(1657.139854 85.81436729 -0.7476172781)
(1646.495912 103.0031896 -2.400958533)
(1636.613017 115.053128 -2.13883817)
(1622.413732 145.7393988 0.6700476511)
(1610.222327 162.5016071 -0.5145412203)
(1593.511288 180.048203 6.270201394)
(1580.84278 198.6311099 6.307711708)
(1717.881857 17.31048066 -1.465519721)
(1715.500233 23.44214633 -0.4619587305)
(1714.977641 30.49157585 -0.2793842193)
(1703.549983 32.63841935 -0.6970129326)
(1697.981415 47.30371884 0.4663060836)
(1696.003175 56.37271951 3.631608957)
(1692.018761 59.94790517 0.8617892803)
(1684.153315 67.35924849 2.060073299)
(1719.649355 14.6665626 7.011405337)
)
;

boundaryField
{
    flow
    {
        type            calculated;
        value           nonuniform List<vector> 
15
(
(417.1779945 77.74419004 0.09275946826)
(633.3589878 85.86179453 -8.123599074)
(742.5806256 104.5256504 -7.145218513)
(813.7444544 137.8101957 17.51066923)
(882.4585559 165.2053625 -4.35805211)
(971.776835 193.9646523 -9.055987573)
(1023.852187 219.0780694 0.7216174194)
(1062.683363 241.8719745 2.516900943)
(1120.601241 268.4175213 -4.729377461)
(1156.758521 291.1273921 5.092924331)
(1196.088163 319.8751003 0.3427968506)
(1219.806749 340.3670386 2.183534264)
(1256.662852 357.1794974 5.116567737)
(1282.128906 374.095595 -3.990266203)
(1312.916196 387.8778812 2.03018952)
)
;
    }
    obstacle
    {
        type            calculated;
        value           nonuniform List<vector> 
30
(
(186.8976452 50.0790732 10.70351095)
(192.0570752 51.4615383 -2.806605528)
(186.5310344 49.98083988 10.55496031)
(181.0533729 48.51310514 3.524137096)
(153.3287756 41.08432148 2.513901589)
(173.7816799 46.56466089 14.17535357)
(182.5838442 48.92319369 -8.240339414)
(157.460549 42.19142681 -7.920277861)
(149.6616202 40.10171034 11.04747749)
(152.9399769 40.98014338 -20.28461599)
(182.259527 48.83629292 -10.82760936)
(120.9202329 32.40047882 17.79455154)
(167.0632894 44.76447355 -0.4524630703)
(134.7885381 36.11647981 -8.463065834)
(116.8146228 31.30038391 43.03937419)
(159.4700698 42.7298763 -9.844405626)
(147.6567156 39.56449778 8.764239896)
(167.2177404 44.80585857 9.779199001)
(139.9198806 37.4914189 -4.064032083)
(190.3641911 51.00793136 39.12395813)
(146.0165875 39.12502676 -14.67680296)
(137.2844882 36.78526763 -3.02467528)
(137.760454 36.91280247 3.69068508)
(169.2074328 45.33899506 -25.00865005)
(152.7067217 40.91764264 12.80339633)
(150.2649338 40.26336773 2.697005187)
(158.4828394 42.4653487 12.59690014)
(190.0778914 50.93121759 -24.45242633)
(216.9539771 58.13264306 5.43690504)
(232.8739415 62.39838438 21.7284761)
)
;
    }
    frontAndBack
    {
        type            empty;
    }
    procBoundary1to0
    {
        type            processor;
        value           nonuniform List<vector> 
21
(
(393.8361765 117.2149478 -1.737347327)
(665.4808366 202.984201 -0.9901279473)
(848.2372574 273.453774 0.8305076101)
(1015.711008 317.9396581 -2.79881705)
(1128.132067 338.5922405 0.165462853)
(1220.007922 329.3772025 1.28073886)
(1296.558893 319.7543658 1.566297126)
(1365.746843 284.9905991 8.553279966)
(1439.680097 232.5855948 -2.926712995)
(1516.745819 199.2171569 -0.6657543514)
(1553.041125 161.4980497 6.85933905)
(1598.692211 122.5716198 0.514933659)
(1631.134817 97.90287663 -1.048551673)
(1665.13767 72.48992156 -1.695989946)
(1682.310372 61.44251155 2.106739103)
(1678.373885 38.989016 -2.113019253)
(1703.586787 42.21625888 4.365664173)
(1712.515189 25.21065171 -4.242736169)
(1720.473396 16.97112973 -2.28786164)
(1723.420784 13.0015305 1.693829151)
(1723.960852 12.02154631 10.22786315)
)
;
    }
    procBoundary1to3
    {
        type            processor;
        value           nonuniform List<vector> 
36
(
(1319.643157 403.245894 -2.032320291)
(1366.563804 428.5574915 3.480715355)
(1355.873179 426.9248211 6.056494375)
(1354.61492 420.480431 5.789957324)
(1319.643157 403.245894 -2.032320291)
(1357.84917 420.9205934 9.548792683)
(1444.679826 370.5032926 3.200139932)
(1444.310736 374.7852285 -3.42047218)
(1429.859115 390.2311134 -5.672106435)
(1424.538622 402.6920423 -5.338193526)
(1403.600933 414.8866671 0.5973268801)
(1366.563804 428.5574915 3.480715355)
(1382.75668 419.2420676 -6.032406878)
(1565.826919 226.9280285 3.641245534)
(1545.769685 245.0451185 -0.2351090363)
(1532.866979 271.6290721 5.454279342)
(1518.585489 288.8665033 2.194533939)
(1444.679826 370.5032926 3.200139932)
(1496.345866 310.7233315 -4.899838903)
(1666.873838 84.98594774 -1.935068982)
(1663.276549 91.57509825 -0.6890545622)
(1655.332874 105.6004112 -3.258529929)
(1635.483142 128.6536445 1.57587714)
(1632.472671 142.441915 0.610196016)
(1565.826919 226.9280285 3.641245534)
(1615.777072 159.1170067 -4.522876312)
(1723.084492 14.91133135 7.544270857)
(1719.503879 19.86442639 2.686939376)
(1718.968659 24.38141243 2.944698536)
(1712.935066 28.05886013 0.09711307528)
(1708.136495 38.94651311 -3.292212056)
(1706.885412 44.29580344 -4.750641261)
(1666.873838 84.98594774 -1.935068982)
(1694.444393 52.11690817 1.669586613)
(1723.084492 14.91133135 7.544270857)
(1725.215598 18.26575128 -9.744898193)
)
;
    }
}


// ************************************************************************* //
