/*--------------------------------*- C++ -*----------------------------------*\
| =========                 |                                                 |
| \\      /  F ield         | OpenFOAM: The Open Source CFD Toolbox           |
|  \\    /   O peration     | Version:  2406                                  |
|   \\  /    A nd           | Website:  www.openfoam.com                      |
|    \\/     M anipulation  |                                                 |
\*---------------------------------------------------------------------------*/
FoamFile
{
    version     2.0;
    format      ascii;
    arch        "LSB;label=32;scalar=64";
    class       Cloud<dsmcParcel>;
    location    "0.003/lagrangian/dsmc";
    object      coordinates;
}
// * * * * * * * * * * * * * * * * * * * * * * * * * * * * * * * * * * * * * //

6879
(
(0.5792629411 0.05270237178 0.1576661577 0.2103685295) 457 893 1
(0.6567543608 0.1716228196 0.146113071 0.02550974862) 469 2618 2
(0.01025374189 0.003087800124 0.4917853289 0.4948731291) 478 933 1
(0.009488063949 0.495255968 0.005152922621 0.4901030454) 448 1306 2
(0.2746836404 0.03732294821 0.3626581798 0.3253352316) 509 990 1
(0.1313223169 0.4343388416 0.2501495565 0.1841892851) 473 923 2
(0.1696468604 0.4151765698 0.3927492007 0.02242736912) 459 897 1
(0.2667606465 0.3666196767 0.296249262 0.07037041478) 489 952 2
(0.7115545075 0.07924617002 0.06497657626 0.1442227463) 458 895 1
(0.2387048609 0.2405355422 0.1401120273 0.3806475696) 469 897 2
(0.06606546054 0.4669672697 0.2001064043 0.2668608654) 444 866 2
(0.3550579008 0.3224710496 0.1113968921 0.2110741575) 487 951 1
(0.5316260422 0.151891676 0.0822953029 0.2341869789) 484 944 1
(0.1649963818 0.4175018091 0.2799893141 0.137512495) 489 954 1
(0.2028603015 0.3985698492 0.262350419 0.1362194302) 469 916 1
(0.4384943355 0.1294131604 0.1513396718 0.2807528322) 454 887 1
(0.04110895863 0.1872616405 0.2921838802 0.4794455207) 468 914 1
(0.5467601183 0.2266199408 0.04798872545 0.1786312154) 440 39 2
(0.5276820265 0.02623253878 0.2099264479 0.2361589867) 469 2618 1
(0.2532014735 0.3733992632 0.3401353208 0.03326394244) 487 951 1
(0.2133111815 0.1606902249 0.3933444092 0.2326541843) 449 878 2
(0.5972338596 0.2013830702 0.002190726127 0.1991923441) 476 927 2
(0.7078892299 0.1460553851 0.05119004011 0.09486534495) 468 912 2
(0.1585281872 0.4207359064 0.03288244725 0.3878534592) 445 1303 2
(0.7781028479 0.00523483541 0.1057137407 0.1109485761) 549 1049 2
(0.1400144762 0.3218084153 0.4299927619 0.1081843466) 496 965 1
(0.4028326618 0.03048778979 0.2680958793 0.2985836691) 445 1303 1
(0.1127261374 0.1845675048 0.2590694265 0.4436369313) 578 1105 2
(0.03408853565 0.08224599434 0.4007097378 0.4829557322) 457 875 2
(0.686871411 0.07929347043 0.07727082407 0.1565642945) 448 1306 1
(0.1033083297 0.4483458351 0.187945633 0.2604002021) 503 981 1
(0.06108277687 0.3959007229 0.07355788861 0.4694586116) 467 912 1
(0.6923137777 0.1538431112 0.05070425051 0.1031388606) 507 988 2
(0.6984609557 0.1452298572 0.005539664986 0.1507695222) 456 873 2
(0.8161750297 0.09191248515 0.02303631677 0.06887616838) 456 891 2
(0.03803845569 0.4548116152 0.4809807722 0.02616915691) 467 910 1
(0.2488966461 0.3755516769 0.2748685863 0.1006830907) 447 1305 2
(0.1733400533 0.4133299733 0.01500651063 0.3983234627) 468 912 2
(0.3393763298 0.2067948057 0.1235170294 0.3303118351) 479 2619 1
(0.5689432599 0.2155283701 0.1345712047 0.08095716541) 536 1025 1
(0.3840687482 0.1360665325 0.1718990934 0.3079656259) 476 911 2
(0.3681157186 0.2677680986 0.04817404215 0.3159421407) 608 1180 1
(0.1399641883 0.4300179059 0.3840438762 0.04597402966) 485 946 2
(0.3376894422 0.2815408783 0.04961440057 0.3311552789) 459 2617 1
(0.07206490847 0.214305147 0.2496623988 0.4639675458) 469 2618 1
(0.2516165883 0.1768168556 0.3741917059 0.1973748503) 462 903 2
(0.2704029412 0.3647985294 0.3133716762 0.0514268532) 518 1007 2
(0.1162530169 0.4418734916 0.1024378681 0.3394356235) 479 2619 2
(0.0205070199 0.3079153295 0.1818311606 0.48974649) 448 876 1
(0.7111148915 0.1444425542 0.05593650084 0.08850605339) 498 971 2
(0.2517729735 0.3741135132 0.339044092 0.03506942121) 447 1305 2
(0.004105811591 0.4979470942 0.3772087477 0.1207383465) 469 897 1
(0.327237708 0.04269464834 0.336381146 0.2936864976) 489 954 2
(0.2817566808 0.3591216596 0.01455314849 0.3445685111) 489 2620 2
(0.327813073 0.3360934635 0.07706570312 0.2590277604) 446 872 2
(0.1383485488 0.4308257256 0.1753561555 0.2554695701) 486 930 1
(0.1534669841 0.4232665079 0.04803319771 0.3752333102) 489 952 2
(0.06192976949 0.4690351153 0.1346554505 0.3343796647) 458 893 2
(0.1495811933 0.4252094033 0.2257740919 0.1994353115) 469 914 2
(0.09940350784 0.3959399623 0.4502982461 0.05435828379) 459 897 2
(0.3004430914 0.06207256427 0.3497784543 0.28770589) 443 867 2
(0.3186878117 0.3406560941 0.2509269728 0.08972912129) 449 2616 2
(0.8194454535 0.09027727325 0.03952849657 0.05074877668) 529 1028 2
(0.1944422154 0.3830891709 0.4027788923 0.01968972143) 446 870 1
(0.0955740472 0.4522129764 0.129137994 0.3230749824) 467 912 2
(0.1569528904 0.4215235548 0.0481526559 0.3733708989) 545 1060 2
(0.5927388464 0.0884583698 0.115172207 0.2036305768) 486 948 1
(0.217622232 0.391188884 0.05859935905 0.332589525) 446 870 2
(0.06981610515 0.4650919474 0.3852618904 0.07983005703) 467 913 1
(0.04729330631 0.04976253068 0.4265908162 0.4763533468) 469 2618 1
(0.1713287646 0.4143356177 0.09092860654 0.3234070112) 457 894 1
(0.1596228718 0.4201885641 0.2370755417 0.1831130224) 448 876 2
(0.09733390863 0.1704428546 0.4513330457 0.2808901911) 464 904 1
(0.1959906831 0.4020046584 0.2227500278 0.1792546306) 470 918 1
(0.02619266521 0.4869036674 0.1798707701 0.3070328973) 478 934 1
(0.6347607548 0.1072087778 0.1826196226 0.07541084478) 449 878 2
(0.2335358115 0.3832320943 0.06876792845 0.3144641658) 486 930 1
(0.003031213225 0.03205695902 0.4664274344 0.4984843934) 448 876 1
(0.5319747233 0.2340126384 0.03458883683 0.1994238015) 454 885 2
(0.7466715138 0.08519643953 0.04146780357 0.1266642431) 486 948 1
(0.6507410055 0.02920740118 0.1746294972 0.1454220961) 482 938 1
(0.4932713031 0.01697236953 0.2533643485 0.2363919789) 458 896 2
(0.1452535972 0.4273732014 0.366462039 0.06091116238) 446 873 1
(0.09680028692 0.3540202957 0.09757956084 0.4515998565) 445 1303 1
(0.1354838538 0.3856457819 0.04661229122 0.4322580731) 447 1305 1
(0.03821656738 0.0515972224 0.4292944939 0.4808917163) 446 872 1
(0.107452626 0.446273687 0.07235632377 0.3739173632) 458 896 1
(0.5113226699 0.0424612116 0.2018774534 0.244338665) 446 872 1
(0.5829972667 0.1299891577 0.2085013667 0.078512209) 469 916 2
(0.2462446302 0.3030495999 0.07382808502 0.3768776849) 449 1307 1
(0.2413809221 0.3793095389 0.2638571124 0.1154524266) 576 1101 1
(0.0247403674 0.4425361268 0.4876298163 0.04509368949) 455 890 2
(0.2788809739 0.3605595131 0.08915836635 0.2714011467) 449 1307 2
(0.5663383416 0.2168308292 0.2025254314 0.0143053978) 489 952 2
(0.1453937163 0.3516149416 0.07568820023 0.4273031419) 468 914 1
(0.2997102465 0.3501448767 0.08691457746 0.2632302993) 440 39 2
(0.2475109981 0.376244501 0.1534528491 0.2227916518) 556 1063 1
(0.4574020578 0.02963826066 0.2416607104 0.2712989711) 455 871 2
(0.7143261988 0.06688680975 0.07595009085 0.1428369006) 498 971 1
(0.128001109 0.02136287398 0.4359994455 0.4146365715) 449 876 1
(0.6581875495 0.1130614122 0.05784481303 0.1709062252) 498 953 2
(0.7732900976 0.0170776346 0.09627731662 0.1133549512) 456 873 2
(0.4628685729 0.2209019284 0.2685657135 0.0476637851) 469 916 2
(0.07911751558 0.0849576756 0.3754835666 0.4604412422) 489 935 2
(0.4119787303 0.1642803759 0.2940106348 0.1297302589) 466 911 2
(0.3499557328 0.3250221336 0.2847321519 0.04028998167) 469 2618 2
(0.1581946219 0.4209026891 0.2803094139 0.1405932752) 468 896 1
(0.7334905638 0.1303549983 0.002899719828 0.1332547181) 469 2618 1
(0.3264600224 0.3367699888 0.1724621149 0.1643078739) 488 934 1
(0.6044053979 0.1977973011 0.192100522 0.00569677902) 446 870 2
(0.1927101397 0.3650563185 0.03858861161 0.4036449301) 468 914 1
(0.2471194956 0.3764402522 0.2057840152 0.170656237) 466 892 1
(0.3913812804 0.1586632226 0.3043093598 0.1456461372) 448 877 2
(0.2710533176 0.3644733412 0.05416930991 0.3103040313) 447 874 2
(0.3448491941 0.03143396307 0.2961414399 0.327575403) 443 866 1
(0.3968697179 0.3015651411 0.1565224853 0.1450426557) 475 909 1
(0.2330552673 0.3834723663 0.176947086 0.2065252803) 451 881 2
(0.5023947716 0.2488026142 0.1907487878 0.05805382638) 488 952 2
(0.04852552353 0.296090243 0.4757372382 0.1796469953) 498 969 1
(0.6400166092 0.1351139267 0.1799916954 0.04487776867) 465 909 2
(0.736918605 0.1315406975 0.08561357476 0.04592712273) 459 2617 2
(0.5060798299 0.2469600851 0.1183956566 0.1285644285) 442 864 2
(0.3038382918 0.3480808541 0.1198005928 0.2282802613) 467 910 2
(0.3360987569 0.3319506215 0.1092767979 0.2226738236) 529 1030 1
(0.5125046566 0.2437476717 0.01276534844 0.2309823233) 447 872 2
(0.09638537408 0.192932674 0.451807313 0.2588746389) 449 878 2
(0.07856997018 0.280854692 0.1798603229 0.4607150149) 468 914 1
(0.5765026602 0.2117486699 0.2085493319 0.003199337976) 468 915 1
(0.1036547144 0.09711286789 0.3510597749 0.4481726428) 466 892 2
(0.7562193694 0.1218903153 0.05487220457 0.06701811072) 556 1082 1
(0.004242009849 0.4978789951 0.3166133838 0.1812656112) 463 904 2
(0.5482212112 0.1245884302 0.1013009643 0.2258893944) 469 2618 1
(0.4666947824 0.07048057174 0.1961720371 0.2666526088) 485 946 1
(0.4268994149 0.03764408414 0.2489062084 0.2865502925) 509 2622 1
(0.007063431944 0.07065017251 0.496468284 0.4258181115) 458 896 2
(0.3676314013 0.2987433589 0.3161842994 0.01744094049) 456 889 1
(0.3858447036 0.3070776482 0.1357440612 0.171333587) 445 870 2
(0.2993685601 0.25281489 0.35031572 0.09750082992) 478 934 2
(0.3157332426 0.3421333787 0.04881689785 0.2933164809) 536 1043 2
(0.0241091406 0.1622020882 0.4879454297 0.3257433415) 447 875 2
(0.2873139219 0.005849998748 0.356343039 0.3504930403) 478 934 2
(0.031453617 0.2711772651 0.4842731915 0.2130959264) 445 868 1
(0.3727317187 0.3136341407 0.1588529141 0.1547812266) 468 915 1
(0.3224849301 0.3387575349 0.04038646036 0.2983710746) 457 875 1
(0.6679492177 0.1660253911 0.04502128323 0.1210041079) 448 876 2
(0.4317842767 0.2841078617 0.1119879443 0.1721199173) 476 929 2
(0.8359300647 0.08203496763 0.0764184786 0.005616489034) 559 1087 1
(0.4578092795 0.1599899443 0.2710953603 0.111105416) 469 916 2
(0.0803286257 0.1773363367 0.4598356872 0.2824993504) 476 930 2
(0.1675922076 0.1423090685 0.2738948277 0.4162038962) 442 864 1
(0.1675776538 0.4162111731 0.0767014636 0.3395097095) 455 887 2
(0.4411579821 0.279421009 0.2565534297 0.02286757924) 507 986 2
(0.3977396678 0.2029091364 0.0982210297 0.3011301661) 469 2618 1
(0.0002307705933 0.4998846147 0.03841716106 0.4614674536) 465 908 2
(0.07867877156 0.4606606142 0.1359027059 0.3247579083) 480 937 1
(0.2868893731 0.3565553134 0.02931492933 0.3272403841) 457 891 2
(0.349014022 0.325492989 0.2152990729 0.1101939161) 499 954 1
(0.7851648157 0.1074175921 0.05569382012 0.051723772) 499 973 1
(0.6822228403 0.1588885798 0.09836087262 0.06052770722) 449 1307 2
(0.9452524003 0.02737379983 0.02330280699 0.004070992846) 487 932 1
(0.6935171784 0.149006884 0.1532414108 0.00423452678) 487 948 1
(0.3084643097 0.3457678451 0.3183823592 0.02738548588) 478 934 1
(0.1187068937 0.4406465531 0.2631071343 0.1775394188) 455 871 1
(0.1278108326 0.3632815423 0.07281304135 0.4360945837) 529 1011 2
(0.1276008508 0.1729457071 0.2632538675 0.4361995746) 469 897 2
(0.04221807678 0.3565972853 0.4788909616 0.1222936763) 445 871 2
(0.3854070015 0.3072964993 0.203474931 0.1038215682) 481 938 2
(0.1868094422 0.3204345782 0.08616070072 0.4065952789) 517 1007 1
(0.5389254172 0.07491582867 0.2305372914 0.1556214627) 468 912 1
(0.6152019715 0.1768426968 0.0155563174 0.1923990142) 598 1161 1
(0.5435084792 0.2282457604 0.05077241788 0.1774733425) 478 934 1
(0.4612538984 0.1877260013 0.2693730508 0.08164704951) 499 973 2
(0.1901149144 0.4049425428 0.2638834955 0.1410590474) 599 2631 2
(0.4225866158 0.2661992483 0.2887066921 0.02250744376) 488 953 2
(0.4834282613 0.2582858693 0.1910531183 0.06723275109) 499 971 2
(0.06105521124 0.4694723944 0.2310231346 0.2384492598) 469 914 2
(0.4091144418 0.1566823846 0.2954427791 0.1387603945) 445 871 2
(0.02735734276 0.4863213286 0.1664067916 0.3199145371) 446 872 2
(0.3411500091 0.1709939557 0.1584310398 0.3294249954) 448 876 1
(0.1401761202 0.3048438561 0.1250680837 0.4299119399) 486 948 1
(0.07300696987 0.456696092 0.4634965151 0.006800423041) 509 992 2
(0.2720446506 0.3639776747 0.1710735896 0.1929040851) 443 1301 2
(0.2771049594 0.3614475203 0.3506415513 0.01080596901) 444 866 2
(0.2151518879 0.1469828744 0.2454411816 0.3924240561) 469 2618 1
(0.1710620678 0.4144689661 0.09705239626 0.3174165699) 507 988 2
(0.4937269563 0.1119083521 0.1412281697 0.2531365219) 478 915 2
(0.3225593864 0.2531049051 0.08561540171 0.3387203068) 527 1026 1
(0.6410586706 0.1794706647 0.06393014399 0.1155405207) 442 862 2
(0.5313764914 0.156297436 0.2343117543 0.07801431832) 497 970 2
(0.05461146864 0.4726942657 0.284397357 0.1882969087) 487 951 1
(0.2184788991 0.2647314046 0.1260291459 0.3907605505) 456 873 2
(0.4071612415 0.2964193792 0.2057999087 0.09061947051) 467 894 1
(0.3532356852 0.03461216806 0.3233821574 0.2887699893) 442 862 1
(0.8583415741 0.07082921294 0.06555883413 0.00527037881) 537 1027 1
(0.4190825028 0.2904587486 0.03928838532 0.2511703633) 588 1143 1
(0.6630983675 0.1684508162 0.07717194493 0.09127887131) 617 1198 1
(0.9283229985 0.03386754619 0.03583850076 0.001970954565) 447 872 1
(0.5232128379 0.000974932532 0.2374186485 0.238393581) 479 916 2
(0.126177782 0.3398111225 0.436911109 0.09709998654) 466 908 1
(0.4545383695 0.1013852255 0.1713455897 0.2727308153) 499 954 2
(0.03488300639 0.3210048035 0.1615536933 0.4825584968) 467 912 1
(0.6179752099 0.009404350959 0.191012395 0.1816080441) 477 929 1
(0.5703025415 0.2148487293 0.1224448245 0.09240390477) 464 907 1
(0.2209903531 0.306646769 0.3895048235 0.08285805451) 488 953 2
(0.1340253325 0.3536329924 0.4329873337 0.07935434135) 468 912 1
(0.8817658676 0.03013381689 0.05911706621 0.02898324932) 538 1045 1
(0.4292922681 0.285353866 0.08501938756 0.2003344784) 487 951 1
(0.1010714781 0.449464261 0.1819125265 0.2675517344) 447 1305 2
(0.09194218342 0.4540289083 0.2276486819 0.2263802264) 509 992 1
(0.7747854885 0.1126072557 0.08101811518 0.03158914057) 459 878 1
(0.3903365267 0.005636284548 0.2991954521 0.3048317366) 627 1198 2
(0.3978129855 0.3010935073 0.06475386427 0.236339643) 469 897 1
(0.4488343071 0.2755828464 0.1348333308 0.1407495156) 618 1199 2
(0.02887974411 0.002845976515 0.4855601279 0.4827141514) 559 1087 2
(0.08369914932 0.1743055313 0.4581504253 0.283844894) 449 878 2
(0.4975156939 0.04342946867 0.2078126844 0.2512421531) 477 931 1
(0.02409068951 0.3401321065 0.4879546552 0.1478225488) 466 908 1
(0.1162521057 0.1853830465 0.2564909007 0.4418739472) 505 984 1
(0.4404263694 0.2797868153 0.1385991572 0.1411876581) 460 898 2
(0.003179361766 0.3131901357 0.4984103191 0.1852201834) 445 868 1
(0.1393676781 0.1168485151 0.4303161609 0.3134676458) 479 933 1
(0.414856688 0.292571656 0.008182979411 0.2843886766) 529 1030 1
(0.07734407714 0.380815379 0.08051258241 0.4613279614) 497 969 1
(0.05336811977 0.4733159401 0.00376454666 0.4695513935) 457 893 2
(0.2047776493 0.3976111753 0.3017487411 0.09586243423) 468 915 1
(0.249284366 0.375357817 0.1659979065 0.2093599105) 453 883 2
(0.004117999616 0.305010067 0.1929309332 0.4979410002) 448 1306 1
(0.09040381306 0.4547980935 0.05077171338 0.4040263801) 517 1005 2
(0.1161177765 0.0990853773 0.4419411118 0.3428557345) 458 896 2
(0.02377289462 0.2693469146 0.2187666381 0.4881135527) 458 895 1
(0.602300074 0.08918209825 0.198849963 0.1096678648) 458 896 2
(0.179403742 0.410298129 0.3689779762 0.0413201528) 497 969 2
(0.5136333747 0.118540594 0.2431833127 0.1246427186) 448 874 1
(0.107348256 0.446325872 0.1200953219 0.3262305501) 498 971 2
(0.01713319129 0.4914334044 0.01643010359 0.4750033008) 477 929 2
(0.7256427459 0.01164877102 0.125529856 0.137178627) 54 108 1
(0.5923377784 0.2038311108 0.05754764447 0.1462834663) 447 1305 2
(0.8286528637 0.03361390516 0.05205966301 0.08567356817) 496 949 2
(0.03331275405 0.1650333592 0.3183102638 0.483343623) 499 954 2
(0.07361061324 0.02841093314 0.4631946934 0.4347837602) 509 992 2
(0.4156369534 0.1639246697 0.1282568536 0.2921815233) 517 989 2
(0.3465765943 0.2131374876 0.1135742153 0.3267117029) 458 895 1
(0.2625619806 0.2030011187 0.165717891 0.3687190097) 547 1046 2
(0.7870912905 0.09347552143 0.01297883332 0.1064543547) 608 1180 1
(0.2018495605 0.3990752198 0.02699875444 0.3720764653) 446 870 2
(0.4826468201 0.25867659 0.03142358173 0.2272530082) 446 1304 2
(0.6111186256 0.04683207552 0.1476086117 0.1944406872) 492 959 1
(0.4261581646 0.05538337027 0.2315375474 0.2869209177) 487 950 1
(0.08471059121 0.4576447044 0.372765551 0.08487915341) 478 934 1
(0.8935692878 0.0532153561 0.0009147665157 0.05230058959) 486 930 1
(0.1391582306 0.4304208847 0.2817384997 0.148682385) 455 887 2
(0.1745241824 0.4127379088 0.3316904966 0.08104741219) 448 874 2
(0.5091998818 0.2454000591 0.2262067842 0.01919327488) 448 876 2
(0.466979018 0.266510491 0.2657535215 0.0007569694457) 485 947 1
(0.06614015143 0.3817183835 0.08521154078 0.4669299243) 487 950 1
(0.7291032052 0.07789406837 0.05755432905 0.1354483974) 498 971 1
(0.4913780174 0.2543109913 0.1091450781 0.1451659132) 448 876 2
(0.1345247424 0.4327376288 0.04521053198 0.3875270968) 468 896 1
(0.7439212489 0.1280393756 0.08696551705 0.04107385851) 495 965 2
(0.6242342587 0.1858295524 0.002053318216 0.1878828707) 448 876 1
(0.4689747044 0.02047764882 0.245034999 0.2655126478) 508 990 1
(0.1068858386 0.4465570807 0.2621594857 0.184397595) 638 1237 2
(0.2591051243 0.1759570353 0.1944904025 0.3704474378) 519 992 2
(0.2386400375 0.3806799813 0.1512251116 0.2294548697) 527 1026 2
(0.02175525448 0.0668555037 0.4222668691 0.4891223728) 478 915 2
(0.6939254186 0.07856441428 0.1530372907 0.0744728764) 473 921 1
(0.1305826813 0.3694307872 0.4347086594 0.06527787222) 464 907 2
(0.3386796624 0.3306601688 0.1506403238 0.180019845) 466 911 1
(0.1173028094 0.4413485953 0.2766631524 0.164685443) 469 914 2
(0.1231295355 0.3956793463 0.04275588597 0.4384352322) 498 953 2
(0.3132267198 0.04425934333 0.3433866401 0.2991272968) 449 878 2
(0.657371479 0.1713142605 0.05602567321 0.1152885873) 456 891 2
(0.08301431975 0.4584928401 0.3900674879 0.06842535224) 453 883 2
(0.6434289719 0.1297053177 0.04858019637 0.178285514) 509 2622 1
(0.6392364531 0.03501741892 0.1453643545 0.1803817735) 538 1029 2
(0.2937412509 0.3531293746 0.3249231863 0.02820618828) 547 1046 1
(0.0800009382 0.2615737864 0.1984257445 0.4599995309) 505 966 2
(0.6913824803 0.1543087599 0.1323822892 0.02192647065) 608 1180 2
(0.289414524 0.2653527546 0.355292738 0.08993998335) 447 875 2
(0.1831789619 0.408410519 0.3941168746 0.01429364449) 475 909 1
(0.609063232 0.1439485384 0.0515198456 0.195468384) 467 894 2
(0.2333361048 0.1862506793 0.1970812683 0.3833319476) 478 933 1
(0.3873497655 0.2912744581 0.01505065913 0.3063251172) 443 866 1
(0.07185043289 0.4640747836 0.4396410327 0.02443375081) 507 986 2
(0.01690939941 0.4840620452 0.007483255073 0.4915453003) 468 896 2
(0.7644232102 0.1177883949 0.0818556284 0.03593276651) 459 897 1
(0.398288495 0.2488805486 0.3008557525 0.05197520389) 442 865 2
(0.120110931 0.4399445345 0.1384064908 0.3015380437) 452 883 2
(0.1128289136 0.2022714584 0.2413140848 0.4435855432) 458 895 1
(0.5382815752 0.2308592124 0.1153952612 0.1154639511) 479 933 2
(0.6541719335 0.09750548581 0.1729140332 0.07540854742) 499 973 2
(0.1745213077 0.4127393462 0.1693861659 0.2433531803) 449 878 1
(0.6735566587 0.1632216707 0.01869167988 0.1445299908) 448 877 1
(0.5421227883 0.2289386058 0.1560217419 0.07291686397) 559 1085 2
(0.2913638542 0.04768746073 0.3066306122 0.3543180729) 526 1006 2
(0.1438282188 0.4280858906 0.3570408854 0.07104500523) 609 1182 1
(0.5939623261 0.203018837 0.2005843839 0.002434453038) 569 1106 1
(0.3505676283 0.1858158717 0.3247161859 0.1389003142) 469 916 2
(0.3384701982 0.1867336878 0.1440312131 0.3307649009) 498 953 2
(0.1276166495 0.4361916753 0.2789551624 0.1572365129) 447 875 1
(0.4566830066 0.09103697104 0.2716584967 0.1806215257) 445 868 1
(0.1034127906 0.4482936047 0.02552965718 0.4227639475) 456 873 1
(0.4561848523 0.2719075739 0.234395446 0.03751212784) 459 895 2
(0.5840528474 0.02465617998 0.1833173963 0.2079735763) 469 897 2
(0.3346862853 0.1181538549 0.3326568573 0.2145030025) 455 887 1
(0.6179110606 0.1910444697 0.07240307285 0.1186413969) 452 881 2
(0.06865210881 0.3486226656 0.11705128 0.4656739456) 473 905 2
(0.6876804835 0.1335896399 0.0225701184 0.1561597583) 497 969 1
(0.3153770426 0.3423114787 0.2046353832 0.1376760955) 466 892 1
(0.06986773033 0.4650661348 0.4391308029 0.02593533198) 447 1305 2
(0.02777255536 0.06607839336 0.420035329 0.4861137223) 455 871 2
(0.5426712367 0.2286643816 0.2065162584 0.02214812324) 486 946 2
(0.5194909528 0.2402545236 0.1378195433 0.1024349803) 463 904 2
(0.1878995293 0.04140900143 0.4060502354 0.3646412339) 477 929 1
(0.7999719811 0.1000140095 0.09942009496 0.0005939145071) 459 878 1
(0.04701024436 0.4764948778 0.1211787363 0.3553161415) 467 912 2
(0.6959315619 0.06838417221 0.08365004684 0.1520342191) 479 2619 1
(0.9024354369 0.04878228156 0.0329498578 0.01583242376) 559 1085 2
(0.4768771388 0.03726142605 0.2615614306 0.2243000045) 569 1106 2
(0.672160779 0.01234223834 0.1639196105 0.1515773722) 537 1046 2
(0.1814493004 0.2898965089 0.4092753498 0.1193788409) 475 925 1
(0.4703675921 0.2648162039 0.1716494956 0.09316670831) 456 873 1
(0.04633896232 0.3150377071 0.4768305188 0.1617928117) 448 877 2
(0.508048531 0.2459757345 0.19365197 0.05232376449) 478 933 2
(0.2556264009 0.3721867995 0.342746769 0.0294400305) 445 868 2
(0.2874006796 0.04383585024 0.31246381 0.3562996602) 447 874 1
(0.4182263853 0.2908868073 0.02212663891 0.2687601684) 508 991 1
(0.2015895597 0.2703026203 0.3992052202 0.1289025998) 458 893 1
(0.729716357 0.07783639677 0.1351418215 0.05730542472) 459 895 1
(0.1513465291 0.4243267355 0.23119258 0.1931341555) 467 894 1
(0.6988621497 0.1505689251 0.1091513247 0.04141760049) 477 932 1
(0.2494050573 0.27851886 0.0967786113 0.3752974713) 477 913 2
(0.01419923936 0.4929003803 0.2363198214 0.2565805589) 529 1030 1
(0.02197603887 0.4890119806 0.4761384518 0.01287352874) 529 1028 2
(0.7298505793 0.1350747104 0.1323822821 0.002692428304) 559 1085 2
(0.2025596021 0.1019909181 0.3987201989 0.2967292809) 469 916 2
(0.311900737 0.2227524591 0.1212971724 0.3440496315) 539 1030 2
(0.07023535805 0.464882321 0.3607590511 0.1041232698) 624 1208 2
(0.09679349659 0.4516032517 0.4407339218 0.0108693299) 559 1087 1
(0.2150657655 0.1717014875 0.2207656297 0.3924671172) 579 1106 2
(0.1394129166 0.1996106555 0.2306828862 0.4302935417) 574 1097 2
(0.4424527004 0.134301815 0.1444718348 0.2787736498) 448 1306 1
(0.03770426367 0.4811478682 0.0594896813 0.4216581869) 458 877 1
(0.6519356671 0.09512575272 0.1740321665 0.07890641374) 468 915 2
(0.1293311622 0.3087571534 0.1265772655 0.4353344189) 459 2617 1
(0.4342268715 0.04729923275 0.2828865642 0.2355873315) 446 870 1
(0.1107044006 0.4338863894 0.01076141035 0.4446477997) 478 915 2
(0.4769903712 0.01447672554 0.2470280889 0.2615048144) 476 929 1
(0.5234868914 0.0607286681 0.2382565543 0.1775278862) 496 968 2
(0.0742631257 0.4628684371 0.1809116397 0.2819567974) 443 1301 2
(0.4399526134 0.2604922778 0.2800236933 0.01953141553) 516 1003 1
(0.1359784995 0.4320107503 0.3474241743 0.08458657592) 477 929 2
(0.02050271896 0.005364748345 0.4897486405 0.4843838922) 475 925 1
(0.316120626 0.341939687 0.05304851818 0.2888911688) 508 972 1
(0.02223841754 0.3019871401 0.1868936511 0.4888807912) 475 909 2
(0.2647679821 0.1775662016 0.1900498073 0.367616009) 548 1066 1
(0.4708444946 0.2645777527 0.0649602597 0.199617493) 467 913 1
(0.1744597728 0.4127701136 0.2296856172 0.1830844964) 534 1021 1
(0.2997198948 0.005582378606 0.3501400526 0.344557674) 508 991 2
(0.7002975831 0.1042613539 0.0455898545 0.1498512084) 469 897 2
(0.5293214201 0.1844601871 0.23533929 0.05087910284) 484 942 1
(0.01815155483 0.4909242226 0.3085862363 0.1823379863) 507 986 2
(0.2382566075 0.2874344935 0.3808716963 0.09343720282) 469 914 1
(0.3295247245 0.3074639585 0.02777367927 0.3352376378) 447 874 1
(0.5339327023 0.07447583067 0.1585578182 0.2330336488) 579 1106 2
(0.2346145717 0.1158333985 0.3826927142 0.2668593156) 499 973 2
(0.426940441 0.2865297795 0.2105857349 0.07594404461) 478 915 1
(0.265878623 0.1370125456 0.2300481429 0.3670606885) 518 991 2
(0.4791605439 0.2063976374 0.260419728 0.05402209067) 558 1086 2
(0.09121764549 0.1777352618 0.2766559155 0.4543911773) 606 1158 2
(0.2084909037 0.09083460306 0.3957545482 0.3049199451) 586 1136 1
(0.04928689905 0.4753565505 0.159515121 0.3158414295) 558 1083 2
(0.3322089581 0.2330190752 0.1008764457 0.333895521) 648 1238 2
(0.2559778181 0.3720110909 0.173320186 0.198690905) 489 954 1
(0.008776315539 0.2165163429 0.2790954993 0.4956118422) 467 894 2
(0.1483619712 0.005276491293 0.4205425231 0.4258190144) 467 894 2
(0.3311819639 0.3344090181 0.04920419176 0.2852048263) 446 872 2
(0.7614797211 0.1192601395 0.03587358577 0.08338655371) 442 1300 2
(0.218624731 0.3906876345 0.2335992652 0.1570883693) 457 891 2
(0.06296345798 0.468518271 0.001963932361 0.4665543386) 443 867 1
(0.1863124628 0.3685099161 0.03833385248 0.4068437686) 553 1075 1
(0.8206302328 0.08968488361 0.008525537288 0.08115934633) 454 885 2
(0.6182682249 0.1076736687 0.1908658876 0.08319221887) 486 946 1
(0.4484375342 0.2757812329 0.03381140725 0.2419698256) 457 893 2
(0.7532142559 0.1233928721 0.02155776791 0.1018351042) 478 934 1
(0.262266074 0.01333228271 0.368866963 0.3555346803) 506 987 2
(0.3543392535 0.1496350155 0.1731953577 0.3228303733) 469 897 2
(0.7459153707 0.1031190044 0.1270423146 0.02392331028) 519 1011 2
(0.111238814 0.444380593 0.06081445724 0.3835661358) 468 915 1
(0.6358309582 0.1820845209 0.1463349152 0.03574960569) 507 989 1
(0.6454852054 0.007324384037 0.1699330133 0.1772573973) 519 2623 1
(0.01655237707 0.4917238115 0.06947732346 0.422246488) 579 2629 2
(0.2456269159 0.3771865421 0.2632184241 0.1139681179) 536 1025 1
(0.6915951938 0.1542024031 0.14954075 0.004661653077) 498 953 1
(0.8324035997 0.08379820013 0.04955009686 0.03424810327) 559 1087 1
(0.07119440411 0.4644027979 0.01817094991 0.446231848) 606 1176 2
(0.2897164413 0.3551417793 0.1489392024 0.206202577) 595 1156 1
(0.7374386099 0.1312806951 0.08415214075 0.04712855432) 569 1106 1
(0.7631767777 0.1184116111 0.006463642268 0.1119479689) 649 2662 1
(0.05577867748 0.4721106613 0.07554376396 0.3965668973) 648 1252 2
(0.1978064781 0.1970598982 0.2040368627 0.401096761) 446 872 1
(0.0744296561 0.4627851719 0.2184120249 0.244373147) 485 944 2
(0.09654903923 0.1028191091 0.4517254804 0.3489063713) 539 1049 2
(0.1029072559 0.3039583979 0.1445879741 0.448546372) 467 894 2
(0.1514965315 0.4242517343 0.0563129553 0.367938779) 477 931 2
(0.3178295606 0.01844054714 0.3226446726 0.3410852197) 476 911 2
(0.1727492042 0.4136253979 0.389967954 0.02365744389) 447 875 1
(0.2248107822 0.02683298657 0.3607616223 0.3875946089) 458 877 2
(0.09854970382 0.4507251481 0.04530500263 0.4054201455) 489 935 1
(0.1039281527 0.1493745906 0.298661333 0.4480359237) 454 869 2
(0.2277040297 0.3861479851 0.08193472277 0.3042132624) 495 947 1
(0.3362478799 0.187675191 0.1442008691 0.3318760601) 508 972 2
(0.2581689093 0.3169776366 0.0539379088 0.3709155454) 485 946 1
(0.6329095613 0.1835452193 0.05132745793 0.1322177614) 443 866 2
(0.1610924367 0.272194637 0.1472591447 0.4194537817) 546 1062 1
(0.1529147295 0.4235426353 0.3839971438 0.03954549148) 498 972 1
(0.3601844401 0.1531224834 0.1667852965 0.3199077799) 456 873 2
(0.01776126967 0.1661924311 0.4911193652 0.324926934) 517 1005 1
(0.4177868181 0.147673419 0.2911065909 0.143433172) 487 951 2
(0.3153529305 0.2341298589 0.3423235347 0.1081936758) 448 874 1
(0.2311695966 0.3844152017 0.2650854854 0.1193297164) 481 936 2
(0.06665131881 0.3806378856 0.08603645502 0.4666743406) 446 872 1
(0.2146288829 0.3926855586 0.1207138859 0.2719716726) 499 973 1
(0.5430390184 0.0153679766 0.2284804908 0.2131125142) 498 972 2
(0.7878053943 0.1060973029 0.001986406854 0.104110896) 446 870 2
(0.1881076498 0.4059461751 0.07003046781 0.3359157073) 549 1068 1
(0.427723887 0.04161467569 0.2445233808 0.2861380565) 537 1045 1
(0.8418090543 0.07909547287 0.02545429682 0.05364117605) 599 1161 2
(0.1304054798 0.4347972601 0.08270453341 0.3520927267) 516 1006 1
(0.4959173874 0.01841662194 0.2336246844 0.2520413063) 517 989 2
(0.4419913768 0.2790043116 0.03708788635 0.2419164252) 586 1138 2
(0.330814437 0.0317553785 0.3345927815 0.302837403) 644 1246 1
(0.2870500053 0.3564749973 0.2359755639 0.1204994334) 549 2626 2
(0.2822862173 0.1686138902 0.1902430011 0.3588568914) 609 1163 2
(0.2382777367 0.3129267486 0.06793438309 0.3808611317) 579 1106 2
(0.9050296724 0.0474851638 0.02355953081 0.02392563299) 581 1110 1
(0.8545856932 0.06175966116 0.01094749223 0.07270715339) 448 1306 1
(0.9854082668 0.007295866585 0.00315292974 0.004142936845) 519 2623 2
(0.5772550646 0.05145417858 0.2113724677 0.1599182891) 463 905 2
(0.173078727 0.4134606365 0.3841032412 0.02935739531) 79 158 1
(0.2540710475 0.3729644762 0.2426942102 0.130270266) 474 907 1
(0.3387367107 0.3306316446 0.265935951 0.0646956936) 519 1011 1
(0.1282561012 0.07217939911 0.4358719494 0.3636925503) 468 912 1
(0.1252461543 0.4373769228 0.2334307809 0.2039461419) 447 1305 2
(0.006120066746 0.4969399666 0.3049804971 0.1919594695) 445 1303 2
(0.6551591316 0.1724204342 0.0744243195 0.09799611472) 483 943 1
(0.4656121548 0.06296318753 0.2671939226 0.2042307351) 466 908 1
(0.6674210553 0.1040650549 0.1662894724 0.06222441742) 445 871 2
(0.7863092382 0.09149592323 0.1068453809 0.01534945768) 513 997 1