/*--------------------------------*- C++ -*----------------------------------*\
| =========                 |                                                 |
| \\      /  F ield         | OpenFOAM: The Open Source CFD Toolbox           |
|  \\    /   O peration     | Version:  2406                                  |
|   \\  /    A nd           | Website:  www.openfoam.com                      |
|    \\/     M anipulation  |                                                 |
\*---------------------------------------------------------------------------*/
FoamFile
{
    version     2.0;
    format      ascii;
    arch        "LSB;label=32;scalar=64";
    class       scalarField;
    location    "0.003/lagrangian/dsmc";
    object      Ei;
}
// * * * * * * * * * * * * * * * * * * * * * * * * * * * * * * * * * * * * * //


6879
(
3.215979742e-21
2.150426078e-20
1.33525738e-22
6.358927021e-22
8.623249088e-21
6.312091438e-21
4.19147562e-21
1.321087038e-20
2.553144614e-21
1.892613902e-21
5.716472397e-21
5.56332971e-21
4.675626142e-21
1.614146167e-20
9.695665319e-21
2.837634804e-20
1.254564196e-20
2.373877276e-21
8.362357388e-21
6.04847423e-21
6.03585885e-21
5.771852589e-20
7.33595254e-22
2.1906113e-21
3.107525499e-21
3.590299322e-22
6.369594868e-21
1.702613633e-21
8.673553126e-21
6.601110412e-21
1.563859391e-20
2.508680774e-20
8.069332914e-21
4.986582445e-20
1.137477463e-20
1.332918794e-20
1.224938411e-21
5.5732402e-21
3.911227139e-21
3.094873512e-21
6.231096283e-21
9.447830634e-21
5.128742252e-20
1.281583681e-20
2.607323376e-21
2.544359362e-20
1.548549268e-20
2.153045013e-21
3.824809047e-20
3.074554505e-20
5.222432917e-21
9.126034993e-21
1.843675954e-20
1.474295694e-20
1.266541191e-20
9.636067874e-21
4.455845424e-20
1.189930787e-20
3.191663267e-21
6.764330016e-21
4.017225126e-22
3.589943361e-21
1.881126222e-21
3.025284855e-20
1.36616465e-21
1.686602872e-21
1.616919224e-21
4.968587064e-21
2.932806534e-21
5.674264545e-21
5.837775197e-21
1.321588e-20
7.777947193e-21
2.84266664e-20
7.090759864e-20
2.428685745e-21
1.488586071e-20
3.524406562e-21
5.018583276e-21
2.306442205e-20
6.368728185e-21
1.974232533e-20
4.8009096e-21
4.771471585e-21
2.731590159e-21
1.657065617e-20
2.446049852e-20
3.188887658e-21
1.51819062e-20
4.460238072e-20
9.001892007e-22
2.232210331e-20
4.755134568e-21
1.940825112e-22
8.26855829e-21
7.368285991e-21
4.785793919e-21
1.745921168e-20
1.027714335e-20
1.236175933e-20
1.935884276e-21
2.474251354e-21
7.703527905e-21
4.752083993e-21
1.822428839e-20
1.340220295e-21
5.38170047e-21
3.507063461e-21
5.491349238e-22
2.005767912e-21
8.772505316e-21
3.251383098e-21
3.012284155e-22
8.506965704e-22
1.654009806e-20
5.487263963e-21
5.233313945e-21
9.139915399e-21
1.157329403e-20
7.547713907e-21
2.122447215e-20
1.18225583e-22
1.210343528e-20
9.954465292e-21
6.636185212e-21
4.882614277e-21
4.206414905e-21
8.862149351e-21
4.204821591e-20
5.608122308e-23
7.369799205e-21
3.626074078e-21
3.184517828e-20
2.514781728e-21
1.282509904e-20
3.972365456e-21
1.318385242e-20
3.745818171e-20
4.186862116e-21
6.465654288e-21
1.872258798e-20
1.462740762e-21
1.561770413e-20
4.593081915e-20
5.045957048e-21
1.867475435e-21
1.587895258e-21
6.284850298e-21
2.401256818e-20
1.98196821e-20
3.530780816e-20
5.905494975e-22
2.133871489e-20
1.544191985e-21
1.197303028e-20
1.0160984e-21
2.819108956e-21
5.963667037e-21
6.519884931e-21
1.214124663e-20
7.311469895e-21
2.918117044e-21
1.980472108e-21
2.803860357e-20
6.008683301e-22
2.160901489e-20
2.993525574e-20
1.42457959e-20
3.404930015e-20
9.930613377e-21
2.747852138e-21
2.928951197e-22
1.33956538e-20
1.644812641e-21
3.716632825e-21
7.362874684e-21
8.728920557e-21
4.131413735e-21
1.871870261e-22
5.261990336e-21
1.165096073e-20
1.909405542e-20
2.210795618e-20
3.748865468e-21
1.022974346e-20
6.025959123e-22
2.995690983e-21
1.304978918e-20
3.934988455e-21
1.85124534e-20
1.606605232e-20
3.008429412e-21
6.203425235e-22
1.225381489e-20
2.351817134e-21
3.183377464e-21
1.46385773e-20
8.875099633e-21
2.242507681e-21
2.563489985e-21
4.937359001e-23
2.923302592e-20
9.825887523e-21
1.059726159e-20
3.653706104e-21
6.647361788e-21
4.607697746e-21
1.174798574e-21
4.781082687e-22
1.472057622e-21
3.751797185e-21
9.907141717e-22
7.232874767e-21
2.36471413e-21
7.498477315e-21
6.040095685e-21
6.331696314e-21
3.840284553e-20
7.389601045e-20
8.886330996e-21
3.809564533e-21
1.124031412e-21
1.338780491e-21
2.519372772e-21
2.248949471e-20
1.937191835e-20
4.623157707e-21
1.685965036e-20
9.60468162e-22
3.678401345e-21
4.671958058e-21
1.593771126e-20
1.64236207e-20
3.876906037e-21
6.021280089e-20
1.31773042e-20
1.229083561e-20
2.712499542e-21
8.49305039e-21
8.602074237e-21
2.336654146e-21
2.245734198e-20
4.429679862e-21
1.025540365e-20
1.322590771e-20
8.909744724e-21
1.728474248e-20
8.489338382e-21
1.162079041e-20
1.187342259e-20
2.58287253e-20
1.255590577e-20
2.011322925e-22
4.579150585e-21
1.017417749e-21
3.261434701e-21
4.60131061e-21
2.898064812e-21
2.043035419e-21
9.410245654e-21
2.809625958e-21
1.616543124e-21
3.185205377e-20
4.652889701e-21
6.474928665e-22
2.300049786e-21
5.858580143e-21
3.827577276e-21
2.173531318e-20
1.007936975e-20
1.172642473e-20
2.30915356e-20
3.704658691e-21
1.578258299e-21
6.850021025e-20
2.684632784e-21
6.836492617e-22
4.752595085e-21
2.27611015e-20
1.024323599e-20
2.121963985e-20
4.416249465e-21
8.386189295e-21
1.479541124e-20
3.74979088e-21
2.571449923e-21
5.044629127e-21
1.266137977e-20
4.936505473e-21
1.311874853e-20
7.753920201e-21
1.400419555e-20
1.780854871e-21
1.405886418e-21
6.781473993e-21
1.305463927e-21
4.722772769e-21
1.03300987e-21
9.255087614e-21
9.839475417e-21
5.268573455e-21
2.678900752e-21
3.762023802e-20
1.867905027e-20
8.838351552e-21
7.208914479e-21
2.452237735e-20
6.529121843e-21
2.118286085e-20
1.779402405e-21
8.316604635e-21
2.151116737e-20
1.279461534e-20
1.29048769e-20
1.05576996e-20
6.473152562e-22
1.003181211e-20
9.931785187e-22
9.420438536e-21
1.192479449e-20
1.787958282e-20
3.069187219e-21
2.370067358e-22
2.697076691e-21
4.348378393e-21
2.145941197e-20
2.29511545e-21
1.907422632e-20
1.229184122e-22
2.95085607e-20
1.855529889e-22
1.343664975e-20
1.457032152e-21
5.196191909e-21
1.925308809e-21
1.25596963e-23
2.340435453e-21
2.893695108e-22
4.535192662e-22
2.200532965e-22
3.1713151e-21
3.067381377e-22
1.565616638e-20
2.098621713e-21
7.838135902e-21
4.848885526e-21
2.183070624e-20
1.886986087e-20
5.001731925e-21
1.7924473e-21
4.145946612e-21
1.056709856e-22
1.459451149e-21
3.955443375e-22
4.35524228e-21
1.697034215e-21
2.440730728e-21
2.894262088e-21
7.472243827e-21
2.23750128e-20
3.658179411e-21
2.751229489e-20
1.701126976e-20
5.12435087e-21
4.200441558e-21
2.101618187e-20
1.015001743e-20
4.381612737e-21
2.839720812e-21
8.769963094e-21
5.545825235e-21
2.028635709e-21
1.321934904e-21
1.057240622e-19
1.92805219e-20
2.421058231e-21
1.867738185e-20
4.982669072e-21
2.253071971e-21
3.356945511e-20
1.163704892e-21
8.268023979e-22
1.60601206e-22
2.694682272e-20
7.235049718e-21
3.169561768e-21
6.432665981e-21
1.969757839e-20
1.100728365e-21
9.830705758e-21
5.012657486e-23
4.686235561e-21
1.434372532e-21
9.757288321e-23
5.938450249e-21
1.782241281e-20
7.897315074e-21
4.581395257e-21
2.02520143e-22
7.201337443e-21
4.052173144e-20
2.406349312e-20
2.562720585e-21
1.456313401e-20
2.130865703e-21
4.239961329e-21
4.448047951e-20
1.323343467e-22
1.481051607e-20
1.253724043e-22
2.749256606e-22
1.09959529e-20
3.87446987e-21
5.668799104e-21
1.471202621e-21
9.52471736e-22
1.713753734e-21
6.465834957e-20
1.780095894e-20
3.142573262e-21
1.091819395e-21
1.708059333e-20
2.01540607e-20
3.626284542e-22
1.783964601e-21
1.96203459e-22
9.805598013e-23
1.030620113e-20
8.950644165e-22
5.126511143e-21
4.722716371e-21
1.756624022e-21
5.642109985e-21
8.059765347e-22
2.283167321e-22
2.598465944e-21
5.369309717e-21
1.609130399e-22
5.452640521e-21
1.580446437e-21
8.501275291e-21
3.483852279e-21
3.531431757e-21
9.382315204e-21
5.611953087e-21
1.397262809e-20
5.762004054e-21
1.436392591e-20
4.066004071e-21
2.229343811e-20
1.134159207e-21
5.073256561e-22
6.506025515e-21
5.994586368e-21
1.94254474e-20
2.44751616e-21
4.756608942e-21
9.442150102e-22
2.090064891e-21
2.140922146e-21
2.468732894e-21
1.911091048e-21
6.545268288e-22
7.543886312e-22
4.028779193e-22
3.019155165e-21
5.134164814e-21
2.012340333e-21
1.162136541e-21
3.318788208e-21
2.347760056e-21
5.978613046e-21
8.755338347e-21
2.41246542e-21
1.08502339e-20
1.384274899e-21
5.274667697e-20
1.87690419e-20
1.758360874e-20
4.2351971e-21
1.33921233e-21
2.98978189e-21
5.769083257e-21
2.075466383e-20
7.21385921e-21
1.893717475e-20
2.196636192e-20
1.35172268e-20
3.16916977e-21
3.80622191e-21
9.432303092e-21
3.396464181e-21
6.051440454e-21
7.750225235e-21
2.866129046e-21
5.701739323e-22
2.037146193e-21
1.556798635e-22
1.879937893e-22
1.769616493e-20
1.032256173e-20
4.143438622e-21
1.496619543e-20
6.993068135e-21
4.766420197e-21
1.612880538e-21
2.532628846e-23
1.093878011e-21
3.008710626e-21
7.56397724e-21
1.456631562e-21
2.797125982e-20
2.20480867e-21
1.349066393e-21
2.173474054e-22
6.393918451e-22
1.67877561e-20
5.63718508e-21
2.287633279e-21
3.157952473e-20
2.439832659e-21
3.733433138e-21
7.590967401e-21
5.049164846e-21
2.101345512e-20
1.159016528e-21
1.078340947e-21
8.352921913e-21
1.326794039e-21
5.948611843e-21
8.242651466e-22
1.572500406e-21
2.038381345e-21
8.923100715e-22
2.237085853e-21
2.311974849e-20
2.041752578e-20
4.159185962e-21
5.367630692e-21
5.823759372e-21
1.751304335e-21
6.75685599e-23
2.534723293e-21
1.138074227e-20
4.001170112e-22
2.846969941e-22
6.614841958e-22
1.363164303e-21
5.1287364e-21
7.403104073e-22
1.193097165e-20
6.299363532e-21
3.371844481e-21
4.029480766e-21
4.092342208e-21
1.158037698e-21
1.081643839e-20
4.282645764e-21
3.673108056e-21
9.248518811e-21
1.224227196e-20
2.439684339e-22
2.332429776e-21
1.030949019e-20
3.728791566e-21
1.977297555e-21
2.813059919e-21
6.866286385e-21
6.112707825e-22
9.77812029e-21
3.386197222e-21
5.87240232e-21
1.820063735e-21
4.08431414e-21
2.742027692e-22
5.627115178e-21
5.177954181e-21
5.498905551e-22
5.008892125e-21
3.907644767e-21
1.932094405e-21
1.193389607e-21
1.735642817e-21
2.677271559e-21
2.715991668e-21
3.049764269e-21
4.005307696e-22
9.880410106e-21
2.073385336e-21
2.508659424e-21
3.929523177e-21
6.017066118e-21
5.291850818e-21
1.803952995e-20
1.465486557e-21
1.620154909e-20
2.573763156e-21
1.680518136e-20
5.527232407e-21
1.235374842e-20
2.815294125e-21
2.031217967e-21
1.098819177e-20
2.728301466e-20
1.455238074e-20
8.838577657e-22
1.871720928e-21
1.106050939e-20
1.240066263e-20
4.97080514e-21
1.332053499e-20
7.854839756e-21
2.746108818e-21
6.135469475e-21
2.466497518e-22
1.531305562e-21
1.823856003e-22
1.548684503e-20
1.56046146e-20
4.48318981e-22
2.938340924e-21
1.192633264e-20
4.149273511e-21
1.238580272e-21
6.132297354e-22
3.15862637e-21
7.770012681e-22
1.423060646e-21
7.212859485e-21
8.013965179e-21
1.037034849e-20
1.263494127e-21
3.970981509e-21
3.875067843e-21
3.52129638e-21
6.191461464e-21
7.61303235e-21
2.29420831e-22
3.99263983e-22
9.101416035e-22
1.377631035e-21
4.155489404e-21
2.193796358e-22
7.092625585e-21
4.752875754e-21
2.752978409e-21
5.09849221e-21
2.28789125e-21
4.282617065e-21
1.501651089e-21
2.308665749e-21
2.676715732e-21
3.091756839e-21
6.508048852e-22
2.345481888e-21
4.57594324e-22
1.3553004e-21
5.138320656e-21
1.798441802e-21
1.008317777e-20
6.582521791e-21
3.905500772e-21
3.129598154e-20
3.321456892e-21
6.67167427e-22
9.739189643e-21
2.259600778e-21
2.460644048e-20
6.005230731e-21
2.225058437e-21
2.377596792e-21
6.411718416e-21
1.443455752e-20
5.045705033e-22
7.389124539e-21
1.013517573e-20
1.964222984e-21
5.319339324e-23
1.458255201e-22
1.175358811e-20
2.147781578e-21
2.436821725e-21
1.430187883e-21
6.307829214e-22
2.582019952e-21
4.648812737e-21
2.978547499e-21
2.972882582e-22
7.525169538e-21
5.269389858e-21
7.466213448e-22
7.890954463e-21
1.733973722e-21
6.092536385e-21
1.669799643e-21
1.927044825e-21
4.519155883e-21
6.191940645e-21
5.476296683e-22
1.96375504e-22
4.656756822e-23
2.979658832e-22
6.575657507e-23
1.178315266e-21
1.701597931e-21
2.536243768e-21
1.855991869e-22
6.740040374e-22
4.714162132e-21
2.647697891e-22
1.409021847e-22
1.87293262e-20
1.739339314e-20
4.309538825e-21
2.887295029e-21
4.613995828e-20
4.189878439e-20
3.772339809e-21
4.958686327e-21
1.56164377e-20
6.031249553e-21
1.472426908e-20
1.326916107e-20
1.021446606e-20
6.046206355e-22
3.408999379e-22
6.206239849e-21
5.068485888e-21
2.247417917e-20
1.308355121e-20
6.141484576e-21
1.975426362e-21
1.136162594e-20
9.291062018e-21
3.530738643e-21
2.791631432e-21
5.248552091e-21
2.216874035e-22
4.366272008e-21
5.726428283e-22
1.63893569e-21
3.747594449e-21
2.811989069e-21
2.747292415e-22
2.477607095e-22
4.212712116e-21
4.728942174e-21
5.400900139e-21
3.540350551e-21
2.484848687e-21
1.581574374e-21
1.68395329e-21
8.916653514e-22
7.963222604e-22
6.077112825e-21
3.01238064e-21
1.035180819e-20
2.199198229e-21
1.016382866e-21
1.255427436e-21
1.061305879e-20
3.897132984e-21
1.108346775e-21
5.026391813e-21
3.906269195e-21
8.770703223e-21
1.302074766e-21
4.12621976e-21
2.542452035e-21
4.769507573e-21
7.609222431e-21
9.688606496e-22
1.824505522e-21
4.600207091e-21
7.743604866e-22
1.018285462e-20
6.355696287e-21
2.5614751e-21
9.401663787e-21
8.547672143e-21
2.481301486e-21
1.155195771e-21
2.055126357e-20
4.295995039e-21
1.201157311e-21
3.650957401e-21
2.724882441e-20
5.980153493e-21
8.762907174e-21
1.924547886e-20
3.694392094e-21
6.836791368e-22
1.309048261e-20
5.342686871e-21
3.017168549e-22
1.631344094e-20
4.079155347e-21
4.232073918e-21
2.490926102e-21
1.199817904e-20
1.214480357e-20
1.427353803e-20
1.103009492e-20
3.747431465e-21
7.997201924e-21
7.319308054e-21
3.654966216e-21
1.002684373e-20
7.202064755e-22
3.183151902e-21
3.80655191e-21
9.108967331e-23
3.259844138e-21
1.368940472e-20
3.484456292e-21
1.647571172e-21
1.766339221e-21
4.584297143e-21
5.240730132e-21
7.929973723e-21
5.396836533e-21
8.367309107e-22
2.416964411e-20
2.297799201e-21
4.523828833e-22
1.850275546e-23
2.176650244e-21
3.195219616e-21
5.604345589e-21
9.657994283e-22
1.157494039e-20
1.987497486e-22
9.02309961e-22
3.801532906e-21
1.346156428e-21
1.151221102e-21
1.911667275e-20
1.060227131e-21
4.261908552e-22
9.983265332e-21
3.436259867e-22
1.086641921e-21
1.720262526e-21
8.074495647e-21
3.199328764e-21
9.84941928e-21
1.235685666e-20
4.707728613e-21
2.317166962e-20
3.31991169e-21
2.190368404e-21
2.4923986e-21
1.812448288e-21
1.014104005e-21
6.938214524e-21
3.55865227e-21
4.253014558e-21
5.136624815e-21
1.628363278e-21
1.030014818e-20
1.207753527e-21
2.920015354e-21
7.746205767e-21
1.893633997e-21
7.477493529e-22
6.122345793e-22
3.512371418e-21
1.402013222e-21
3.045336291e-21
6.402007111e-21
1.522090919e-21
2.988396029e-21
5.925084596e-21
1.721369138e-21
1.66762687e-21
8.23620951e-22
8.42619373e-22
8.079588981e-22
1.085539829e-21
1.613112276e-22
9.876267859e-21
4.795766175e-21
7.850412467e-22
2.555818665e-21
9.709425764e-21
1.803343105e-21
5.9925006e-22
2.511009173e-21
8.144947867e-21
2.335380582e-20
3.916502482e-21
3.757822298e-21
2.493297138e-21
7.262074819e-21
9.224634683e-21
2.013315347e-21
4.009236204e-21
1.104106549e-20
3.008154278e-21
2.164697502e-20
1.907499165e-21
3.88958971e-21
6.958038553e-21
1.161748933e-21
2.67962066e-21
1.462731873e-20
2.949978268e-20
4.275109167e-21
7.956970804e-22
3.62442125e-21
1.440236331e-22
1.197684235e-22
1.16249969e-20
5.66259769e-21
6.53187556e-21
2.057059517e-20
4.409600594e-22
7.012093536e-22
5.046305954e-21
7.375931272e-22
6.331130439e-20
1.518381509e-20
9.27085729e-21
7.383155012e-22
8.430295828e-22
7.320015608e-23
2.640965637e-21
3.469429336e-22
5.697826988e-21
2.730007843e-21
1.95024097e-21
1.65648787e-20
1.328375276e-20
5.64569565e-22
2.946908518e-21
2.335225622e-21
6.210174312e-21
9.246950222e-21
2.48092013e-21
1.438775447e-20
1.971628826e-22
2.175093604e-21
9.581903284e-22
3.530787777e-21
7.086353884e-22
6.950687186e-21
2.762233861e-21
6.36112091e-21
1.810327535e-21
7.161431827e-21
3.832648366e-21
1.095075274e-21
2.00051226e-22
6.630322139e-21
3.86258263e-21
6.589689088e-21
2.518496895e-21
7.408216849e-21
3.371572171e-21
8.640448032e-22
7.758618139e-22
8.039939931e-21
2.061509228e-21
4.017950262e-21
1.627698779e-21
7.026386326e-21
5.051913418e-21
7.787327996e-22
1.69479527e-21
2.826771137e-21
2.341723496e-21
5.134078685e-22
1.122316144e-20
1.288260999e-20
7.590101771e-22
1.15055491e-20
7.471567919e-21
4.399819595e-22
1.363428622e-20
3.557811038e-20
1.732671949e-20
9.441350837e-21
9.060858729e-21
2.457149106e-21
1.210845807e-20
3.025969882e-21
1.377676005e-21
5.274274277e-21
1.177736415e-20
1.634924937e-20
2.908733775e-21
7.928492481e-21
6.410948796e-21
1.62728717e-22
3.297068446e-21
1.858939912e-21
3.468005177e-21
1.531100161e-20
2.908887534e-20
1.20825705e-20
2.879494157e-21
2.267312459e-21
2.940944142e-22
6.497740059e-21
8.497440177e-22
1.391755966e-21
1.802694745e-21
8.07171942e-22
5.494906817e-22
7.043806921e-21
3.165493329e-21
5.863569614e-21
2.492262043e-21
2.750608338e-21
1.850469564e-21
5.708075752e-21
1.061670518e-20
6.917904898e-21
1.54031274e-21
2.090519546e-22
2.615996976e-21
1.063579496e-21
1.375409979e-20
2.630927699e-21
9.733436921e-23
4.990379995e-21
7.831275137e-21
3.495366833e-21
3.290363909e-21
3.780922638e-22
2.645005508e-21
1.194644133e-20
2.023102866e-22
9.416753012e-22
1.441205021e-21
1.715975821e-21
1.585708704e-21
1.110554744e-20
4.311000217e-21
9.451077192e-21
1.831160789e-21
9.011074265e-21
5.324211298e-21
1.513062881e-21
1.866520137e-21
1.545811496e-20
5.791653254e-22
1.864238361e-21
7.043121749e-21
7.723611222e-22
9.264355333e-21
8.839892697e-21
4.927021047e-20
4.133801495e-21
9.300395035e-21
3.32603657e-22
2.408671639e-20
4.323544337e-20
1.135817717e-21
5.6392022e-22
2.463754781e-20
1.016943424e-20
1.393813821e-20
1.428727539e-20
1.539005101e-20
6.118576352e-22
8.461660885e-22
1.583628779e-21
2.635718768e-21
2.131713501e-21
2.275767041e-21
1.411685744e-20
5.968135845e-21
4.810121806e-21
1.775637576e-22
9.658918901e-22
1.159485567e-20
1.020346916e-20
5.056332196e-21
6.04243339e-21
4.241044201e-21
7.560763106e-22
5.895028421e-21
6.132703899e-22
8.442516085e-21
1.858192082e-20
2.787886324e-21
1.075009572e-22
3.570579353e-21
2.265001483e-21
3.915493794e-21
3.002617174e-21
7.620834948e-21
1.128481518e-20
3.19342455e-21
3.054140814e-21
7.789227124e-22
3.189925839e-21
1.7174462e-21
1.159889504e-20
7.0031239e-21
2.397316141e-21
2.71301851e-21
5.71640942e-21
1.850600917e-21
3.900400198e-22
1.106391841e-21
9.130650251e-21
1.518317721e-20
3.979845952e-21
2.156060146e-21
1.686088561e-21
8.33713661e-21
5.374094108e-21
1.982873405e-21
6.507062283e-21
1.978648237e-21
2.166411634e-21
6.556665319e-21
1.487088376e-21
4.099246544e-22
9.195430766e-21
7.503778823e-21
1.124699101e-20
4.114204667e-22
3.621049967e-21
3.289728309e-21
1.070623706e-21
2.547600126e-21
3.818392112e-21
6.100134461e-21
1.177643211e-20
8.558174462e-21
1.842085857e-21
1.304301056e-21
2.211326231e-22
9.019283209e-22
2.372516127e-20
1.057328662e-20
7.904269042e-21
3.067028413e-21
2.511055747e-21
3.782736626e-22
2.92363765e-20
4.474044658e-24
4.855941852e-21
4.015989976e-21
3.896493368e-21
4.750652618e-21
3.180676751e-20
1.979859121e-21
1.110649044e-21
2.17386143e-21
1.971718004e-21
7.831440013e-22
2.463692801e-21
1.697520219e-21
1.201895049e-22
3.164360653e-21
7.792734448e-21
4.060529003e-21
1.368428184e-20
1.261101482e-21
2.521273988e-21
1.996431078e-21
1.920407956e-21
7.591041896e-21
2.479709252e-21
1.751599461e-22
9.326175728e-21
2.544753515e-21
5.535616992e-22
3.278881879e-21
1.013074495e-21
7.174363544e-21
6.252247544e-21
2.255147347e-21
8.434208503e-23
2.887353338e-21
3.975019457e-21
5.47376777e-22
6.535375211e-21
8.901998383e-22
4.305751848e-21
1.256672512e-21
6.361727986e-21
6.85536215e-22
4.103086764e-21
2.752649971e-21
7.033567261e-21
1.132233024e-20
5.530087952e-21
9.416620127e-22
2.615079672e-21
3.003439136e-21
3.900901384e-22
2.597528082e-21
6.346834507e-21
4.332814537e-20
4.222200043e-21
3.389861969e-21
1.081381055e-21
6.593313111e-21
3.560849474e-21
9.630480704e-21
1.028901758e-20
9.141416282e-21
7.898390157e-21
1.529387555e-21
1.673357068e-21
9.677245371e-21
4.05951292e-21
4.511441692e-21
1.389324355e-21
5.310472302e-21
9.009648419e-21
6.535382173e-21
1.295415649e-21
2.668500774e-21
4.242857948e-22
2.534530316e-21
1.275673677e-20
2.595189352e-21
1.048672435e-20
8.374847584e-21
5.277005319e-21
2.748868399e-21
6.371047593e-21
1.45970435e-20
5.037793535e-22
9.291390981e-21
1.325835815e-20
2.687858029e-21
7.120298705e-21
7.101743065e-22
4.74910704e-21
1.287514327e-21
1.039598974e-20
7.377744938e-21
3.441936363e-21
3.591810481e-22
1.903197111e-21
8.61379894e-22
1.266369461e-22
8.916308484e-22
2.109276057e-21
1.783923307e-20
5.231505845e-22
1.080995609e-20
2.516893036e-21
5.391787779e-22
5.028222165e-21
3.893276016e-21
1.079168354e-21
5.683315192e-21
5.112823739e-21
3.660456664e-22
8.123950761e-21
7.37110983e-21
1.653277951e-20
1.222353586e-21
1.105492018e-20
2.920757012e-23
2.972592496e-21
1.569714212e-21
6.251244573e-21
3.139972669e-21
4.107697064e-21
1.457138496e-21
3.160136778e-21
3.167400651e-21
9.848837739e-22
3.11710041e-21
3.126262448e-21
1.828289978e-21
8.937566877e-21
7.386909297e-22
1.601142798e-21
5.301316217e-21
2.759193343e-21
5.095132429e-20
2.328912943e-20
2.212772996e-21
7.322102329e-22
1.68583292e-21
1.327124535e-21
3.395557826e-21
4.408811112e-21
2.221402183e-21
8.789686499e-22
1.596478101e-22
1.455135807e-21
7.421778785e-21
1.704693214e-21
4.72042947e-21
1.470266151e-21
4.042591039e-22
5.412649572e-21
7.741663247e-20
4.808081307e-21
1.42083979e-20
4.798196118e-21
3.019640663e-21
2.43165073e-22
3.90926526e-21
1.654914992e-21
2.159709229e-22
2.761078721e-21
2.232140719e-21
1.807057178e-21
1.628729353e-21
3.898483566e-21
1.411698536e-20
4.781950692e-21
2.973105144e-22
8.135802525e-21
2.924880279e-21
1.048691515e-20
1.617089411e-22
2.490361571e-22
3.582128178e-21
3.803525201e-21
2.830999991e-21
2.460122494e-23
1.742084681e-20
1.674576411e-22
3.270607895e-20
2.537190472e-21
1.576884109e-21
2.066518332e-21
5.287985329e-21
5.44512562e-21
1.780447252e-21
6.347480776e-21
6.559103991e-21
2.663247808e-21
1.334939104e-20
6.49642796e-21
2.4803903e-21
4.084323882e-21
6.337397122e-21
1.324884814e-21
6.77385585e-22
3.080824933e-21
5.76411601e-21
7.589373375e-21
4.128355256e-21
2.050427584e-22
2.331022261e-21
1.269915723e-21
5.730192347e-21
2.479123123e-21
1.489126452e-22
3.62578799e-22
1.37069349e-21
4.560946479e-22
2.475609533e-21
2.102051717e-22
2.135890898e-21
2.656318677e-21
1.778555714e-20
1.136110464e-20
3.263004735e-21
5.566968907e-21
1.238516043e-21
3.617044118e-22
3.063354929e-21
1.350372779e-20
1.975909001e-21
6.136801269e-21
5.803524419e-22
1.366274292e-20
3.497598386e-20
2.035400618e-21
8.823283242e-22
3.39584866e-21
1.289354012e-21
1.132497954e-21
2.607862932e-21
7.149154417e-21
8.730932004e-21
1.226488149e-20
1.595182063e-22
4.128749723e-22
5.153563878e-23
2.886467601e-21
2.415810422e-21
2.056517749e-21
1.037602339e-22
4.693553511e-21
2.730395136e-21
1.81220556e-21
9.955957341e-21
4.041194873e-21
5.253654539e-21
5.228273303e-21
2.32102725e-21
2.948354828e-21
1.525147645e-20
2.014650734e-21
8.158315575e-21
3.844971316e-22
5.111583244e-21
3.204582238e-22
2.155036724e-21
3.90833406e-22
5.752855292e-21
4.033501805e-22
3.052415705e-21
4.628060358e-21
5.714936508e-21
5.251621068e-21
1.509343964e-21
3.939095446e-21
2.589776642e-21
5.468864153e-21
7.382978366e-21
1.501469319e-21
5.030383608e-21
8.400399506e-22
4.847122175e-21
4.740382574e-21
5.366521118e-21
1.052042759e-20
5.477312339e-21
4.081469988e-21
2.158159014e-21
4.03178205e-21
1.995010072e-21
1.091406293e-21
4.189033735e-21
3.742199195e-22
2.582248533e-21
1.478094342e-22
1.540924994e-20
9.769927109e-22
3.482645018e-21
5.99739108e-21
5.737756394e-21
7.955555765e-21
1.187124725e-20
6.913431346e-21
4.604755178e-21
1.439244771e-20
2.728449256e-21
8.259071145e-21
1.521466322e-20
2.964808496e-21
9.064457766e-22
2.282600889e-22
6.135130304e-21
2.355999652e-21
7.494157943e-21
1.036923683e-20
5.41640579e-21
2.855019112e-21
1.067076369e-20
8.623099319e-21
9.181420481e-22
2.083594793e-21
6.794930657e-22
7.466322974e-21
2.297707799e-21
5.763717928e-21
7.223863196e-21
2.088003349e-21
1.722490816e-21
3.697089618e-21
1.783931968e-21
4.331070932e-21
8.584027392e-22
1.466314992e-21
7.089848061e-20
9.629800099e-22
1.69072446e-21
5.376384418e-22
3.92859399e-21
5.548951033e-22
3.799655323e-22
1.802539448e-22
6.559199396e-22
1.419409871e-21
5.71377168e-21
2.153707618e-21
4.082156738e-21
1.068313151e-22
1.606713058e-22
3.693382764e-22
6.386625081e-21
4.127419688e-21
2.763466882e-21
4.12970346e-21
5.994826895e-21
9.62992793e-21
2.07636434e-21
6.328954029e-21
1.200055307e-21
1.467880055e-20
8.378909797e-21
4.402629911e-21
3.153321621e-21
5.985913552e-21
8.212285992e-21
7.005152732e-21
7.356364572e-21
1.122523509e-20
2.960120464e-21
4.102343337e-21
1.926659483e-21
2.443991478e-21
5.998719976e-22
2.114284286e-21
1.018110644e-20
2.289619736e-22
1.076116931e-20
9.31025089e-21
2.138587235e-21
2.137407307e-21
1.150674335e-22
1.071433193e-21
3.978717538e-22
3.914654613e-21
2.980856513e-21
9.610309279e-22
1.18384796e-21
6.722857302e-22
6.947883226e-20
7.471939991e-21
1.494707943e-20
1.266706898e-20
7.743859346e-21
7.439395592e-22
1.853302231e-20
6.686381572e-21
2.151800219e-21
3.7663207e-21
5.184614579e-22
3.853786712e-21
3.367931711e-20
1.280956357e-21
2.179789322e-21
3.299214164e-22
4.133744455e-21
1.6382974e-21
4.816529566e-22
1.042569681e-20
4.555607535e-21
6.127425781e-22
2.130135776e-21
1.381599291e-20
3.48647232e-21
3.842090199e-21
5.86867568e-21
3.265715469e-21
1.415612793e-20
1.165400412e-22
2.785987921e-21
1.843631089e-21
9.058311883e-22
8.217619956e-22
3.857099254e-22
4.021789595e-22
6.491832385e-21
1.026894582e-20
1.135084775e-21
4.24045295e-21
3.274573057e-22
7.027836481e-21
6.573076185e-22
2.764355243e-22
8.255937981e-22
6.033818422e-21
3.879599902e-22
8.727816181e-21
1.790595417e-21
3.162535218e-21
4.028409398e-21
3.242291354e-21
6.65906826e-21
1.5161805e-21
2.375156708e-21
4.703795487e-21
5.828101579e-21
3.002280734e-21
4.945008407e-21
2.13566378e-21
7.361518301e-21
6.527876647e-21
2.446363282e-21
4.660144561e-21
4.769224677e-23
4.082976554e-22
3.160816378e-21
1.797186455e-20
1.563741347e-21
3.698531799e-21
1.487504478e-21
4.002801184e-21
3.815553602e-21
1.828803657e-21
5.84884509e-21
5.56003645e-21
3.951717679e-21
1.330924335e-21
5.525504649e-21
2.017969005e-21
4.036538393e-21
6.288483717e-21
6.104105107e-21
1.870130499e-21
5.350055727e-21
4.867982754e-22
2.594805145e-23
1.057438081e-21
8.03567747e-22
3.176302819e-21
6.816805864e-21
5.979928683e-22
2.436837132e-20
7.670709502e-21
1.84852451e-22
1.752921806e-20
9.119943664e-21
1.498573564e-20
2.327302106e-21
5.984575071e-21
9.689867465e-22
1.849830652e-21
7.1785164e-21
1.064495637e-20
1.996361266e-20
1.886021287e-21
3.749419927e-20
5.080159294e-21
8.75852922e-21
4.841346035e-22
1.131907385e-20
9.436628805e-22
7.553514811e-21
2.012800232e-21
4.180189864e-21
4.041039563e-22
1.588480633e-20
4.038341916e-21
2.863798732e-21
7.055423205e-21
2.844350263e-21
2.945043483e-21
7.921317375e-22
1.448060518e-20
6.733531142e-21
1.449636456e-20
2.837769356e-22
1.817632752e-21
1.278550296e-21
7.681237286e-22
1.979916934e-21
3.402439114e-22
2.403836272e-21
1.045786365e-22
7.187854563e-21
3.160938631e-21
4.927722571e-21
1.358514542e-21
6.619956781e-21
3.926979773e-22
3.51635031e-21
1.559689003e-20
1.049211536e-20
4.088446375e-21
2.010638317e-20
2.542985482e-22
3.522352618e-21
1.169142935e-20
3.800355027e-21
5.565925798e-21
2.628156112e-21
3.018388969e-21
3.487389431e-21
7.132366472e-21
3.911794389e-21
2.238549546e-21
1.973906575e-21
4.807117998e-21
2.907288682e-21
1.039162975e-20
6.597052401e-21
1.367153823e-20
3.611323835e-22
8.503549547e-22
7.829745156e-21
5.062994363e-21
1.500476329e-21
5.470857352e-22
7.037304314e-21
1.862255925e-21
6.755418069e-22
5.215221322e-21
6.506151849e-21
4.257020587e-21
2.806838836e-21
3.240352085e-21
1.845714973e-21
6.739880257e-21
5.166125799e-21
3.338779953e-20
9.598031065e-21
1.23183545e-20
1.091599659e-20
3.537316006e-21
6.085961971e-20
7.388465492e-23
3.729602042e-22
1.780070717e-21
1.327974849e-20
9.950059897e-22
2.777401028e-21
3.698386891e-22
9.868339113e-22
5.806154498e-21
2.347708465e-21
4.230494963e-21
2.317138175e-21
3.170878951e-21
1.629970483e-21
4.111158865e-22
1.952136259e-21
3.356208222e-22
1.067094661e-21
4.199690834e-23
3.165443051e-21
9.1311516e-21
5.388449226e-21
5.34048591e-21
1.816989737e-21
1.250544969e-21
1.282374357e-20
1.801059366e-21
5.00381521e-21
2.985368403e-20
3.254933975e-21
1.073951976e-20
4.1260941e-22
6.163395212e-23
6.764503525e-21
5.778770603e-21
5.764751055e-21
1.396984664e-21
1.228775939e-20
1.774367059e-21
7.893998515e-22
8.334579446e-21
2.483755613e-22
4.71902896e-21
2.576645453e-21
2.182508435e-22
6.430931375e-21
5.003392043e-22
2.129255768e-21
8.128864121e-21
1.74260228e-21
6.171833225e-21
1.723302983e-20
5.651394367e-22
6.808209728e-21
5.5075791e-21
6.058941121e-21
1.001289283e-22
6.44958093e-21
9.763523879e-22
1.164456622e-21
4.469736523e-21
4.67482529e-21
4.614118152e-22
4.375359218e-21
6.290748281e-22
7.419861615e-21
8.188384553e-22
1.546012735e-21
2.674850669e-22
1.667226923e-21
4.368516314e-21
7.534104286e-23
2.511782871e-21
3.141297989e-21
4.812293665e-21
3.142335586e-21
1.294049029e-21
4.021838712e-22
2.566550204e-21
5.543088837e-21
1.162888431e-20
3.935484175e-21
1.119883694e-20
1.595928371e-20
8.919806736e-21
5.597431915e-21
3.533306844e-22
2.97926446e-21
8.878563754e-21
7.310647244e-21
7.791541018e-22
2.074753478e-21
1.394913162e-20
2.057686523e-21
2.813309582e-21
1.205195295e-21
1.800819737e-21
9.037238421e-20
3.406528713e-21
3.704957072e-22
4.253586359e-21
1.938903318e-21
7.828438164e-21
6.791178974e-21
1.011250913e-21
9.179242843e-21
1.191274203e-22
1.03023823e-21
6.642589488e-21
1.032128785e-22
1.049348674e-21
1.572762644e-22
6.881087865e-21
2.173211955e-21
1.728825528e-21
3.21668906e-22
6.638235935e-21
1.159807369e-22
2.703048736e-20
4.891321568e-21
1.436888472e-21
6.006396891e-21
2.4187883e-21
2.51753907e-21
6.608431143e-21