/*--------------------------------*- C++ -*----------------------------------*\
| =========                 |                                                 |
| \\      /  F ield         | OpenFOAM: The Open Source CFD Toolbox           |
|  \\    /   O peration     | Version:  2406                                  |
|   \\  /    A nd           | Website:  www.openfoam.com                      |
|    \\/     M anipulation  |                                                 |
\*---------------------------------------------------------------------------*/
FoamFile
{
    version     2.0;
    format      ascii;
    arch        "LSB;label=32;scalar=64";
    class       Cloud<dsmcParcel>;
    location    "0.003/lagrangian/dsmc";
    object      positions;
}
// * * * * * * * * * * * * * * * * * * * * * * * * * * * * * * * * * * * * * //

6879
(
(0.0587503701 0.02751989743 -1.084202172e-19) 457
(0.07369473135 0.03708398918 -6.776263578e-20) 469
(0.06854088621 0.04647096037 0) 478
(0.06103537127 0.0163879005 -4.33680869e-19) 448
(0.0696252755 0.06666498602 0) 509
(0.02997908058 0.0322361819 -1.084202172e-19) 473
(0.06939646724 0.0320699453 0) 459
(0.0695951255 0.04821428956 1.626303259e-19) 489
(0.06586571334 0.02869431393 1.084202172e-19) 458
(0.07345655071 0.03453576269 2.168404345e-19) 469
(0.03073141487 0.01042158622 0) 444
(0.05629953867 0.04943623022 1.084202172e-19) 487
(0.03607213463 0.0429243419 2.168404345e-19) 484
(0.07025571906 0.05339310891 1.084202172e-19) 489
(0.07038995249 0.03923481745 -2.168404345e-19) 469
(0.03642738164 0.0217410841 0) 454
(0.0684231863 0.03799521657 0) 468
(0.00208078502 0.003940659917 0) 440
(0.07418709333 0.03885326634 0) 469
(0.05455701572 0.04939015224 -6.505213035e-19) 487
(0.07416183928 0.02612661413 -2.168404345e-19) 449
(0.04799276044 0.03796864503 -4.33680869e-19) 476
(0.06365381079 0.03437696638 1.626303259e-19) 468
(0.03895384488 0.01100988146 2.168404345e-19) 445
(0.07319194348 0.09243803011 0) 549
(0.04625282204 0.05271756237 -1.084202172e-19) 496
(0.04395108195 0.01323073908 0) 445
(0.06674359194 0.1099698969 -2.168404345e-19) 578
(0.06020325296 0.02334943512 -4.33680869e-19) 457
(0.06535565292 0.01993876401 0) 448
(0.02523739691 0.05770075111 0) 503
(0.06072699644 0.03452641176 0) 467
(0.05831913156 0.0611058233 -2.168404345e-19) 507
(0.04956905395 0.02295330693 -2.168404345e-19) 456
(0.05022668257 0.02371155547 -1.626303259e-19) 456
(0.05348475328 0.03237241484 2.032879073e-19) 467
(0.05638166132 0.01599314398 5.421010862e-20) 447
(0.06161963047 0.03412257623 4.33680869e-19) 468
(0.0749054081 0.04542797409 -4.33680869e-19) 479
(0.04891053376 0.07969595351 1.084202172e-19) 536
(0.05083813441 0.03647693319 4.33680869e-19) 476
(0.06717579052 0.1346639973 4.33680869e-19) 608
(0.04518610803 0.04416475333 1.626303259e-19) 485
(0.07491184293 0.03091662919 2.168404345e-19) 459
(0.07592509972 0.03956759435 2.168404345e-19) 469
(0.02055289011 0.02666658412 -1.084202172e-19) 462
(0.06198899484 0.06752322384 -5.421010862e-20) 518
(0.07575653886 0.0424002448 4.33680869e-19) 479
(0.06850177419 0.02315575831 -4.33680869e-19) 448
(0.06586739029 0.05584922504 3.252606517e-19) 498
(0.05688162438 0.01613734438 -2.168404345e-19) 447
(0.07146995483 0.03320720221 3.252606517e-19) 469
(0.07462637911 0.05384876403 2.168404345e-19) 489
(0.07512520519 0.04920676136 2.168404345e-19) 489
(0.05208954989 0.01568273099 0) 446
(0.04758269629 0.04197062849 4.33680869e-19) 486
(0.06916400012 0.04985935612 2.168404345e-19) 489
(0.06119566834 0.02607750133 0) 458
(0.06914921321 0.03453086078 -3.252606517e-19) 469
(0.07280375083 0.03318365766 4.065758147e-19) 459
(0.02886098876 0.01394011847 2.168404345e-19) 443
(0.07498432694 0.02296367319 0) 449
(0.07169830093 0.07860075332 0) 529
(0.04645994561 0.01618493622 -1.219727444e-19) 446
(0.06059542761 0.03168058168 -2.168404345e-19) 467
(0.0451213048 0.08498060422 0) 545
(0.05107898476 0.04671947262 -1.084202172e-19) 486
(0.04654815666 0.01564508602 0) 446
(0.05421398644 0.03568865182 2.168404345e-19) 467
(0.07601959398 0.04082798275 -4.33680869e-19) 469
(0.05645634375 0.02876136975 0) 457
(0.06797110465 0.02044591682 1.084202172e-19) 448
(0.03085040825 0.02854902064 -2.168404345e-19) 464
(0.002111794873 0.0297768015 -1.084202172e-19) 470
(0.06339926458 0.04519646287 0) 478
(0.07296169773 0.02433481906 0) 449
(0.04713272706 0.04220327917 0) 486
(0.06856843717 0.02517712617 4.33680869e-19) 448
(0.032504452 0.01938057983 -2.168404345e-19) 454
(0.05049180524 0.04605339077 1.084202172e-19) 486
(0.01771646221 0.03903888145 2.168404345e-19) 482
(0.06656904419 0.03020250006 -2.168404345e-19) 458
(0.04673690246 0.0191894309 -5.421010862e-20) 446
(0.04265312164 0.01177828399 -2.168404345e-19) 445
(0.05750456864 0.01589043544 -2.168404345e-19) 447
(0.05319422207 0.02089149937 -4.33680869e-19) 446
(0.06421815191 0.03096720345 0) 458
(0.05138954853 0.0187896137 -4.33680869e-19) 446
(0.0729855693 0.03854479758 -2.168404345e-19) 469
(0.07295143224 0.02041099393 4.33680869e-19) 449
(0.04864916104 0.1071641032 -2.168404345e-19) 576
(0.04225350283 0.02566639846 -4.878909776e-19) 455
(0.07032063469 0.01982054762 -2.168404345e-19) 449
(0.07073513232 0.04914526088 -1.626303259e-19) 489
(0.068025383 0.03637102772 0) 468
(0.001140596343 0.003399942265 -2.168404345e-19) 440
(0.04783120842 0.0926789513 -3.252606517e-19) 556
(0.04374940096 0.02058060945 0) 455
(0.06585514048 0.05700426414 0) 498
(0.0690670928 0.02494443155 0) 449
(0.06520775829 0.05511374769 -1.084202172e-19) 498
(0.0502601365 0.02340204927 -5.421010862e-20) 456
(0.07275105936 0.03890803158 0) 469
(0.07525081922 0.04842456565 2.168404345e-19) 489
(0.05051668169 0.0335441296 0) 466
(0.07486505169 0.03727466914 -2.710505431e-19) 469
(0.06369795359 0.03177333824 -4.33680869e-19) 468
(0.07340201186 0.03720902695 -1.084202172e-19) 469
(0.06351647649 0.04647067812 1.084202172e-19) 488
(0.04802005157 0.01507417729 1.897353802e-19) 446
(0.06784489038 0.03606448414 4.33680869e-19) 468
(0.04822848205 0.02816234987 -3.252606517e-19) 466
(0.06587802825 0.02332788516 0) 448
(0.05992605242 0.01740585697 0) 447
(0.02916459785 0.013627543 -2.168404345e-19) 443
(0.04080299309 0.03404570243 2.168404345e-19) 475
(0.01435104184 0.01342329373 -1.084202172e-19) 451
(0.06666357138 0.04919419064 1.084202172e-19) 488
(0.06114465965 0.05665490142 -1.084202172e-19) 498
(0.04224909504 0.03066133351 1.355252716e-19) 465
(0.07338893519 0.02985607671 -5.421010862e-20) 459
(0.02092961084 0.008343425658 0) 442
(0.05449624015 0.0315838861 0) 467
(0.07155575786 0.08118042848 0) 529
(0.05529030868 0.01828862722 0) 447
(0.0743621794 0.02658907677 0) 449
(0.068280288 0.03716849482 2.168404345e-19) 468
(0.0631782096 0.03612208069 -1.982057097e-19) 468
(0.05220460678 0.02866028417 0) 466
(0.04910845433 0.09650061766 -5.421010862e-20) 556
(0.03046381916 0.02508010175 -3.252606517e-19) 463
(0.07410874413 0.03807434085 -1.084202172e-19) 469
(0.0439397975 0.04561030898 -2.168404345e-19) 485
(0.07457154074 0.06722415328 2.168404345e-19) 509
(0.06801470161 0.03228830451 0) 458
(0.04711901329 0.02352751074 -8.131516294e-20) 456
(0.04424819931 0.01422553764 -1.084202172e-19) 445
(0.06551158308 0.04474070603 -1.626303259e-19) 478
(0.05213562867 0.07980682732 -2.168404345e-19) 536
(0.05963205446 0.02299310705 0) 447
(0.06743943902 0.0452482067 -2.168404345e-19) 478
(0.03821969706 0.01540675802 0) 445
(0.06355783103 0.03693610942 2.168404345e-19) 468
(0.05487494374 0.02298369901 0) 457
(0.06603204952 0.02037012726 0) 448
(0.05169294947 0.03765971504 0) 476
(0.07180382878 0.1005357739 -1.016439537e-20) 559
(0.07323450796 0.03904560152 -5.421010862e-20) 469
(0.05168228182 0.04217549559 0) 476
(0.02222073686 0.01164187202 0) 442
(0.03873771847 0.02068481501 0) 455
(0.05501880278 0.05926414761 8.131516294e-20) 507
(0.07468277411 0.03819701116 0) 469
(0.04571911973 0.02691507699 2.168404345e-19) 465
(0.00277408019 0.03785635597 -2.168404345e-19) 480
(0.05443174195 0.02507861856 0) 457
(0.07154870974 0.05549917748 2.168404345e-19) 499
(0.07196198524 0.05863582372 1.355252716e-19) 499
(0.07192562666 0.02166534768 -5.421010862e-20) 449
(0.05711467415 0.04713722202 -1.558540623e-19) 487
(0.05597914202 0.04709236064 -3.591419696e-19) 487
(0.06234251146 0.04394433488 -2.168404345e-19) 478
(0.04055661666 0.01852392439 1.084202172e-19) 455
(0.07294424483 0.07608458471 -2.168404345e-19) 529
(0.07439540489 0.03438504622 -2.168404345e-19) 469
(0.04284168826 0.01854001869 -1.084202172e-19) 445
(0.01376991651 0.03625649097 1.084202172e-19) 481
(0.06024740525 0.06997740656 2.168404345e-19) 517
(0.06301083372 0.03568208287 3.252606517e-19) 468
(0.06623325848 0.1272296541 -1.084202172e-19) 598
(0.06438062104 0.04360540457 -2.168404345e-19) 478
(0.0730100193 0.06001065596 0) 499
(0.07547478375 0.1276508968 -2.168404345e-19) 599
(0.06493956827 0.05123241071 -8.131516294e-20) 488
(0.070419628 0.05617928232 -3.794707604e-19) 499
(0.06881233825 0.03440928058 0) 469
(0.04296551736 0.01724800414 2.168404345e-19) 445
(0.05323564482 0.01555109215 0) 446
(0.06727865357 0.02266736989 0) 448
(0.05280529513 0.04720068088 -2.168404345e-19) 486
(0.0724414819 0.06825769921 3.422013107e-19) 509
(0.02519886647 0.00774788631 -1.084202172e-19) 443
(0.03153453448 0.009535813789 3.04931861e-19) 444
(0.0753792772 0.039400978 0) 469
(0.06030747447 0.06003244072 2.168404345e-19) 507
(0.06584389387 0.04056398218 0) 478
(0.05972957973 0.07696069204 0) 527
(0.01767961508 0.007955073564 5.421010862e-20) 442
(0.0577420491 0.05626018924 3.252606517e-19) 497
(0.05498264343 0.05019664522 3.252606517e-19) 487
(0.05048935418 0.02147342197 0) 456
(0.05645762533 0.03082030997 -5.421010862e-20) 467
(0.01658427494 0.01027449107 0) 442
(0.05710593064 0.08241314671 2.57498016e-19) 537
(0.06446870012 0.1218158093 -2.168404345e-19) 588
(0.05655892988 0.1409755046 3.252606517e-19) 617
(0.05687268284 0.01881257999 2.558039501e-19) 447
(0.0741967126 0.04272507581 0) 479
(0.0462001668 0.03105410278 2.168404345e-19) 466
(0.0736935532 0.05637218037 0) 499
(0.06082693688 0.03517555209 4.33680869e-19) 467
(0.05569167116 0.04116398612 -2.168404345e-19) 477
(0.03335442786 0.02869385115 0) 464
(0.06540036467 0.0520527021 1.084202172e-19) 488
(0.06147002173 0.03475416786 1.626303259e-19) 468
(0.06431548319 0.08459591629 0) 538
(0.05650019718 0.04921910537 1.084202172e-19) 487
(0.05511079548 0.01512656601 2.168404345e-19) 447
(0.07065489223 0.06779634282 3.252606517e-19) 509
(0.07214571086 0.02906570301 -1.355252716e-19) 459
(0.05942809167 0.1451470912 4.33680869e-19) 627
(0.07058725383 0.03436345869 0) 469
(0.06686788243 0.1403374611 1.084202172e-19) 618
(0.0760681484 0.1041663819 0) 559
(0.07455251136 0.02668329872 2.168404345e-19) 449
(0.05906219941 0.0421646565 2.168404345e-19) 477
(0.04581167659 0.03132139774 0) 466
(0.04527655753 0.06075552409 0) 505
(0.005940065619 0.01919045794 0) 460
(0.03811209909 0.01517633403 -2.168404345e-19) 445
(0.06911034691 0.04535473191 0) 479
(0.07232572885 0.08106407336 -2.168404345e-19) 529
(0.06066496682 0.05584101534 -4.33680869e-19) 497
(0.06075642441 0.02358925655 4.33680869e-19) 457
(0.06246973525 0.03725981627 -3.252606517e-19) 468
(0.0238086698 0.01617071753 3.252606517e-19) 453
(0.06624011482 0.01776353448 4.33680869e-19) 448
(0.05368402681 0.0675748341 0) 517
(0.06738202805 0.03174195896 0) 458
(0.06848931622 0.03045371847 0) 458
(0.06560290631 0.02957136094 0) 458
(0.0602756547 0.05488704834 -1.626303259e-19) 497
(0.06291458706 0.02128111085 0) 448
(0.06817051073 0.05470776704 4.33680869e-19) 498
(0.05340519943 0.03919041042 0) 477
(-0.04087006168 0.01969147392 -1.084202172e-19) 54
(0.05603262235 0.01712178856 -4.33680869e-19) 447
(0.04992294764 0.05217470403 0) 496
(0.07481537029 0.05515772461 0) 499
(0.07570271214 0.06897650321 2.168404345e-19) 509
(0.05812542432 0.06682818019 0) 517
(0.06725795339 0.02939553076 0) 458
(0.05841157456 0.08767285349 -2.168404345e-19) 547
(0.0655775717 0.13416461 1.626303259e-19) 608
(0.0464881341 0.01585653041 -2.168404345e-19) 446
(0.04779614965 0.01453680435 -2.168404345e-19) 446
(0.02052895122 0.04707882831 2.168404345e-19) 492
(0.05933439658 0.04950199292 4.33680869e-19) 487
(0.06192913792 0.0446351872 -5.421010862e-20) 478
(0.04912742898 0.04504994997 -8.131516294e-20) 486
(0.03862956806 0.01917147502 0) 455
(0.06162413657 0.01770350451 0) 448
(0.06663761269 0.02124716863 -2.710505431e-20) 448
(0.03988286152 0.04516513035 -2.710505431e-20) 485
(0.06070770481 0.0487908802 4.33680869e-19) 487
(0.06579877231 0.05686171989 0) 498
(0.06670559574 0.02037823384 0) 448
(0.06181642644 0.03121076474 -2.168404345e-19) 468
(0.04288231997 0.05086489468 -2.710505431e-20) 495
(0.06619880404 0.02128064873 -1.084202172e-19) 448
(0.06679105513 0.06546360396 4.33680869e-19) 508
(0.06817227466 0.1543134169 6.505213035e-19) 638
(0.07387081967 0.0697385673 0) 519
(0.06004969464 0.07479387283 0) 527
(0.06798757375 0.03942778731 -4.33680869e-19) 478
(0.02550078369 0.03303217671 0) 473
(0.03478683521 0.03064733195 -2.168404345e-19) 464
(0.04838058929 0.03327740542 -3.252606517e-19) 466
(0.06902638171 0.03414171564 0) 469
(0.06509523504 0.05319696483 0) 498
(0.07466790274 0.0259083642 2.168404345e-19) 449
(0.05083244217 0.02353627203 -1.626303259e-19) 456
(0.02317591704 0.01436132048 5.421010862e-20) 453
(0.07374556266 0.0656386076 0) 509
(0.06587474413 0.08343806209 -2.168404345e-19) 538
(0.05693373108 0.08748681779 1.355252716e-19) 547
(0.04342164498 0.05517835034 0) 505
(0.0659426613 0.1339763282 1.355252716e-20) 608
(0.05783402462 0.02157925544 -2.168404345e-19) 447
(0.04180025999 0.03352153065 -7.453889936e-20) 475
(0.05753980742 0.03181426952 -2.168404345e-19) 467
(0.0676899191 0.04418800208 0) 478
(0.02900248251 0.01153385881 2.168404345e-19) 443
(0.05361342293 0.05764103196 -2.846030703e-19) 507
(0.06482694484 0.03156155335 4.33680869e-19) 468
(0.0717627281 0.03058607038 -1.355252716e-19) 459
(0.01944429995 0.0111116576 -1.626303259e-19) 442
(0.02240184928 0.01481210161 0) 452
(0.06814960428 0.03052485397 6.505213035e-19) 458
(0.07062836567 0.04270644036 -1.084202172e-19) 479
(0.07296159053 0.05932295537 0) 499
(0.07109847104 0.02546236538 0) 449
(0.06462447972 0.02200344768 -1.084202172e-19) 448
(0.07064298295 0.09863823343 1.626303259e-19) 559
(0.05186520778 0.07216207577 0) 526
(0.0696686839 0.1377294235 1.084202172e-19) 609
(0.0708588026 0.1082325717 -1.43995601e-19) 569
(0.0734468006 0.03947437487 -1.084202172e-19) 469
(0.06586596524 0.05413848194 2.168404345e-19) 498
(0.05502378047 0.02142085162 2.168404345e-19) 447
(0.03983791183 0.01559966753 0) 445
(0.04630807111 0.01996864896 0) 456
(0.07031595649 0.02773427753 -2.710505431e-19) 459
(0.07378417995 0.03583048832 -1.084202172e-19) 469
(0.03937365207 0.02295853481 1.084202172e-19) 455
(0.01759152446 0.01525124195 1.084202172e-19) 452
(0.02756162682 0.02958254587 0) 473
(0.05833680551 0.05489205546 -1.084202172e-19) 497
(0.04847948208 0.02847088568 -1.084202172e-19) 466
(0.05695205458 0.01550888827 1.490777987e-19) 447
(0.04511054451 0.01938539964 4.33680869e-19) 455
(0.04778512357 0.04362791388 -4.065758147e-20) 486
(0.02849843957 0.02516152805 5.421010862e-20) 463
(0.05405504147 0.0420711735 -2.168404345e-19) 477
(0.0723817781 0.0292157187 -2.08370105e-19) 459
(0.06078067687 0.03149847386 0) 467
(0.0735452852 0.04481676655 1.084202172e-19) 479
(0.07201410932 0.09976650042 -6.776263578e-20) 559
(0.07409696263 0.1092289266 -1.084202172e-19) 569
(0.05830195841 0.0843245213 0) 537
(0.03879050716 0.03659929337 -1.084202172e-19) 475
(0.04881794278 0.02193956455 -5.421010862e-20) 456
(0.06600264866 0.02457950338 1.084202172e-19) 448
(0.06664200462 0.04217582183 0) 478
(0.03907278887 0.01160552881 -2.710505431e-19) 445
(0.05986369452 0.0218058058 0) 447
(0.06459947656 0.06530261048 2.168404345e-19) 508
(0.06172713151 0.02808362651 -6.505213035e-19) 458
(0.07135684767 0.03005647398 2.439454888e-19) 459
(0.05567762847 0.02971141842 -3.252606517e-19) 467
(0.05631508413 0.041093653 5.421010862e-20) 477
(0.05788631717 0.03773483014 -2.168404345e-19) 477
(0.07058917735 0.08210878801 -4.33680869e-19) 529
(0.06866362717 0.0748864103 2.371692252e-19) 529
(0.07135735844 0.09894105358 2.541098842e-20) 559
(0.07465014119 0.04029177274 -2.168404345e-19) 469
(0.07331284332 0.08381819977 0) 539
(0.03074728358 0.1405462725 2.710505431e-19) 624
(0.06903116028 0.102608282 -1.423015351e-19) 559
(0.07407124039 0.1116513021 0) 579
(0.03604718205 0.104526488 2.168404345e-19) 574
(0.0658688458 0.0192127235 0) 448
(0.06155679166 0.02371495236 0) 458
(0.06536827637 0.03639838469 5.421010862e-20) 468
(0.0757066507 0.0316595473 2.168404345e-19) 459
(0.0473724409 0.0179794923 -2.168404345e-19) 446
(0.06485149413 0.03896476474 -2.168404345e-19) 478
(0.05152050984 0.04061139709 0) 476
(0.0508803954 0.05471211632 0) 496
(0.02452116042 0.006842279212 2.168404345e-19) 443
(0.04739423008 0.06670864092 1.355252716e-20) 516
(0.05385745881 0.03693680153 -1.084202172e-19) 477
(0.03817802331 0.03909391955 4.33680869e-19) 475
(0.06256719921 0.06036698444 0) 508
(0.04333402978 0.03332074216 0) 475
(0.06757001947 0.09344074734 0) 548
(0.05665285849 0.03486603433 -2.168404345e-19) 467
(0.03289411834 0.07496500324 0) 534
(0.06739415463 0.06633908921 0) 508
(0.07273415897 0.03597093846 -2.168404345e-19) 469
(0.03249435474 0.04184852196 -5.421010862e-20) 484
(0.05340907476 0.05853125846 2.168404345e-19) 507
(0.06948665681 0.03686306681 1.626303259e-19) 469
(0.05970301007 0.01974436725 2.168404345e-19) 447
(0.07359574354 0.1126837443 2.168404345e-19) 579
(0.07442238395 0.06112728152 2.168404345e-19) 499
(0.06418934795 0.0399179361 -2.710505431e-19) 478
(0.06652174723 0.06814453962 -2.168404345e-19) 518
(0.06517945037 0.1005324356 -1.897353802e-19) 558
(0.05163770561 0.128628704 2.168404345e-19) 606
(0.04651340759 0.1188888221 0) 586
(0.061147557 0.09679268775 0) 558
(0.06553715464 0.1599540337 -2.168404345e-19) 648
(0.07106811744 0.05326445783 3.252606517e-19) 489
(0.05927666774 0.03012020987 0) 467
(0.06035385835 0.03089113999 0) 467
(0.05207669918 0.01549235603 0) 446
(0.01841124657 0.007740252299 -5.421010862e-20) 442
(0.05417196456 0.02355248205 -2.168404345e-19) 457
(0.02665475608 0.01423307783 -4.33680869e-19) 443
(0.02976932467 0.09221305188 0) 553
(0.03360294257 0.01985403497 0) 454
(0.04807280626 0.04578041198 -1.626303259e-19) 486
(0.05924941071 0.02481452385 2.168404345e-19) 457
(0.06460227473 0.04291795065 1.084202172e-19) 478
(0.05223798835 0.06310763624 0) 506
(0.0737081114 0.03500539188 2.168404345e-19) 469
(0.07256884913 0.07293947246 4.065758147e-20) 519
(0.06430608357 0.03804544063 -2.168404345e-19) 468
(0.05603203223 0.06262366623 -2.710505431e-20) 507
(0.07373771891 0.07349110076 1.084202172e-19) 519
(0.07613685896 0.1118142207 2.168404345e-19) 579
(0.04866045227 0.0784852165 -5.421010862e-20) 536
(0.06473130577 0.05512007254 -1.626303259e-19) 498
(0.07200858214 0.1005865476 2.439454888e-19) 559
(0.05306842739 0.1289167442 -6.505213035e-19) 606
(0.0407737825 0.1255094083 -1.084202172e-19) 595
(0.07174535336 0.1078896674 1.084202172e-19) 569
(0.07233722079 0.1640298979 0) 649
(0.06836722738 0.1598884155 0) 648
(0.05258546288 0.01912147642 2.168404345e-19) 446
(0.03838324281 0.04129537682 0) 485
(0.07504822044 0.08974318149 0) 539
(0.0582512917 0.0301941729 -2.168404345e-19) 467
(0.06038210827 0.03840435378 4.33680869e-19) 477
(0.05198711525 0.03652430227 0) 476
(0.05417765745 0.02103919292 9.486769009e-20) 447
(0.06751797233 0.02593337531 0) 458
(0.06930024314 0.04705771827 0) 489
(0.03656533602 0.01743050696 4.33680869e-19) 454
(0.03959087259 0.04760422984 2.168404345e-19) 495
(0.06586726821 0.06118970878 -4.33680869e-19) 508
(0.04473521732 0.04477626922 0) 485
(0.02806581255 0.01021157181 1.084202172e-19) 443
(0.05272550939 0.09022104766 2.168404345e-19) 546
(0.06184324033 0.05854495985 -2.710505431e-20) 498
(0.05079927528 0.02206227882 4.33680869e-19) 456
(0.05340758955 0.07019815018 -2.168404345e-19) 517
(0.05824105808 0.04966820314 -1.084202172e-19) 487
(0.0621600481 0.02096480919 -5.421010862e-20) 448
(0.008499746801 0.03379667148 -6.505213035e-19) 481
(0.05308575709 0.01841101388 4.33680869e-19) 446
(0.0714691685 0.06052476748 2.168404345e-19) 499
(0.06639142637 0.05820250105 0) 498
(0.04871797626 0.01662647843 1.626303259e-19) 446
(0.07185549868 0.09579907864 0) 549
(0.05932842404 0.08510553814 2.168404345e-19) 537
(0.07178340292 0.1278517982 0) 599
(0.04889920179 0.07001461227 0) 516
(0.05892796158 0.06729127341 0) 517
(0.05165401426 0.1158454813 -2.168404345e-19) 586
(0.03173892814 0.1601053528 0) 644
(0.07510501317 0.09274945399 0) 549
(0.07383834737 0.1328610898 -4.33680869e-19) 609
(0.07290655904 0.1115220684 2.168404345e-19) 579
(0.01124373503 0.1103175144 -9.486769009e-20) 581
(0.06484949981 0.02039568816 -5.421010862e-20) 448
(0.07244104143 0.07199208903 6.776263578e-21) 519
(0.02788602173 0.02729848396 0) 463
(-0.006737750801 0.02935095477 5.149960319e-19) 79
(0.03329620785 0.03167615533 1.084202172e-19) 474
(0.07036200292 0.07389461586 -5.421010862e-20) 519
(0.06144806742 0.03676507865 2.168404345e-19) 468
(0.05559536 0.01534243266 -2.168404345e-19) 447
(0.04044724136 0.01085989692 1.084202172e-19) 445
(0.02609998616 0.04122095375 2.710505431e-19) 483
(0.04749187691 0.03214925353 1.084202172e-19) 466
(0.04238115346 0.01616294411 1.626303259e-19) 445
(0.02585235704 0.06199105395 1.626303259e-19) 513
(0.02622759011 0.04920675434 -4.33680869e-19) 493
(0.04269641669 0.01243708805 0) 445
(0.009610493952 0.08352580203 1.084202172e-19) 541
(0.06352576755 0.02371526976 -2.168404345e-19) 448
(0.06374877343 0.01782586882 2.168404345e-19) 448
(0.0693246761 0.03190092279 0) 459
(0.06304119657 0.0524986255 0) 498
(0.03161782663 0.05467193901 -1.084202172e-19) 504
(0.04424870005 0.04043613223 -4.33680869e-19) 475
(0.05449423806 0.01479130154 0) 447
(0.05267877507 0.08918712935 0) 546
(0.07325866833 0.08418176088 -2.168404345e-19) 539
(0.0565788212 0.07540736602 -1.084202172e-19) 527
(0.05476327256 0.03798471856 0) 477
(0.07339985374 0.04544346643 0) 479
(0.03923529423 0.03124883278 -1.016439537e-19) 465
(0.06025111029 0.07978881164 2.168404345e-19) 527
(0.06699174535 0.09737287562 2.168404345e-19) 558
(0.04693774279 0.1010237622 0) 566
(0.05622479627 0.1599767527 -1.084202172e-19) 647
(0.06857787206 0.1020664228 4.33680869e-19) 558
(0.06016080344 0.1053755165 2.168404345e-19) 567
(0.05321142834 0.1383097001 7.589415207e-19) 616
(0.05471931941 0.1569322901 2.168404345e-19) 637
(0.05130559898 0.1512951087 2.168404345e-19) 636
(0.06716540964 0.1015723118 -2.168404345e-19) 558
(0.03990336262 0.01749022543 0) 445
(0.04980438024 0.04551915079 1.016439537e-19) 486
(0.05991383872 0.05922114504 0) 507
(0.02585894861 0.01240948959 5.421010862e-19) 443
(0.0490528587 0.01875979226 -1.084202172e-19) 446
(0.05950840001 0.03606177033 -2.168404345e-19) 467
(0.04653187672 0.03886854009 1.084202172e-19) 476
(0.04498447652 0.01231723246 0) 445
(0.04491482042 0.04720457407 0) 485
(0.05185279617 0.02966709834 0) 466
(0.04061632062 0.0357687195 5.421010862e-20) 475
(0.02200990016 0.01375141221 0) 452
(0.06771309 0.02664022584 0) 458
(0.02883733725 0.02088159232 0) 453
(0.05554262374 0.03970658257 0) 477
(0.0664865393 0.03887943987 -2.168404345e-19) 468
(0.07283142116 0.05737466921 -5.421010862e-20) 499
(0.0576465159 0.07124489243 -1.084202172e-19) 517
(0.07202971882 0.05576932245 6.776263578e-19) 499
(0.05851464636 0.0413325702 0) 477
(0.03980267074 0.03302382753 -2.168404345e-19) 475
(0.02928968954 0.05717636635 -2.168404345e-19) 503
(0.03236993162 0.09458202805 4.065758147e-19) 554
(0.0486043943 0.07595184492 1.084202172e-19) 526
(0.07136597121 0.07553429969 -1.084202172e-19) 529
(0.03502905685 0.07161688442 0) 524
(0.07469105629 0.06283934512 0) 509
(0.05192089161 0.1119064411 2.168404345e-19) 576
(0.06767507069 0.09397386692 -2.168404345e-19) 548
(0.05840557309 0.1027742561 -2.168404345e-19) 567
(0.07266904311 0.08754302208 2.710505431e-19) 539
(0.07370081653 0.07471681607 -1.084202172e-19) 519
(0.06674949322 0.1279526367 -4.33680869e-19) 598
(0.07397676862 0.1467046988 2.168404345e-19) 629
(0.03319243468 0.1249606433 -6.505213035e-19) 594
(0.07199327508 0.1296342292 0) 599
(0.07238411495 0.1231137079 0) 589
(0.05254118464 0.1041949756 2.168404345e-19) 566
(0.07002461445 0.1212815407 1.084202172e-19) 589
(0.06118461737 0.01802891677 -1.084202172e-19) 448
(0.07224701855 0.03674014512 1.626303259e-19) 469
(0.01576449423 0.005272188642 0) 442
(0.05401039988 0.01767846643 0) 447
(0.03894092295 0.01109848529 0) 445
(0.04301012408 0.04434809417 -2.168404345e-19) 485
(0.04143360332 0.02009512109 5.421010862e-20) 455
(0.05134499549 0.05497816476 0) 496
(0.0571088678 0.01822812169 -1.016439537e-19) 447
(0.04699903386 0.0271881742 -2.168404345e-19) 466
(0.03717135923 0.02707616136 1.084202172e-19) 464
(-0.0002712487964 0.02953002063 -2.168404345e-19) 79
(0.06692112664 0.06803043623 2.168404345e-19) 518
(0.06997949006 0.03753816924 5.421010862e-19) 469
(0.05724037393 0.02480713483 -2.168404345e-19) 457
(0.06349918367 0.09158888307 2.439454888e-19) 548
(0.06961183636 0.03425021952 1.084202172e-19) 469
(0.0528400958 0.01533780922 -6.505213035e-19) 446
(0.06894666759 0.04031795366 -5.421010862e-20) 479
(0.05204010794 0.06332606623 -4.33680869e-19) 506
(-0.01079430353 0.03734810815 1.084202172e-19) 98
(0.07595143474 0.09239229746 1.084202172e-19) 549
(0.07497321426 0.1256122546 0) 599
(0.07007739658 0.09356094855 1.084202172e-19) 549
(0.07251824569 0.06922421749 -2.168404345e-19) 519
(0.02389003601 0.006527219288 0) 443
(0.06520310841 0.07443970743 0) 528
(0.05778351179 0.05063021808 4.878909776e-19) 487
(0.07576508034 0.1355852716 -1.76182853e-19) 609
(0.05581017942 0.1433171223 0) 627
(0.05691895863 0.1318952857 1.084202172e-19) 607
(0.0340636994 0.1525629618 -2.168404345e-19) 634
(0.06415896816 0.1289536191 1.084202172e-19) 598
(0.0595308663 0.1195720686 0) 587
(0.06547496847 0.05518318132 3.252606517e-19) 498
(0.05389628231 0.1242058078 -2.168404345e-19) 597
(0.06569172352 0.1271383974 -1.084202172e-19) 598
(0.0678478103 0.1610590855 1.084202172e-19) 648
(0.06884037784 0.1185858189 -1.084202172e-19) 589
(0.02436791536 0.0147548405 -2.168404345e-19) 453
(0.06447966496 0.02211093202 0) 448
(0.05397834184 0.01711463492 2.168404345e-19) 447
(0.05696068708 0.02986817124 2.168404345e-19) 467
(0.05615860697 0.04555425092 -2.168404345e-19) 487
(0.03387070929 0.02742961757 1.490777987e-19) 464
(0.07137750126 0.05346783956 2.168404345e-19) 489
(0.03491708488 0.04025781944 0) 484
(0.04377550402 0.01193792242 0) 445
(0.05229778837 0.0347376581 -2.168404345e-19) 466
(0.0347747707 0.0678962714 -2.168404345e-19) 524
(0.05387693029 0.01748643622 -2.168404345e-19) 447
(0.04137877369 0.02840864198 -1.084202172e-19) 465
(0.050204062 0.04854251908 -5.421010862e-20) 486
(0.06852523697 0.08514184358 -1.219727444e-19) 538
(0.07199654905 0.06425221384 -8.131516294e-20) 509
(0.02247561134 0.009890257334 -2.168404345e-19) 442
(0.04189759518 0.05181899168 -1.084202172e-19) 495
(0.0539362033 0.02383185229 2.168404345e-19) 457
(0.05593458651 0.01633270243 -3.252606517e-19) 447
(0.04050761054 0.06646172455 2.032879073e-20) 515
(0.0656340755 0.07014997427 5.421010862e-20) 518
(0.06234041661 0.01808873508 3.252606517e-19) 448
(0.06191863865 0.104954636 0) 568
(5.315025001e-05 0.0925792626 0) 560
(0.06635787576 0.08509720315 0) 538
(0.06830318929 0.09720689651 2.168404345e-19) 558
(0.04569051408 0.1060691713 0) 575
(0.0404952477 0.06949021484 2.168404345e-19) 525
(0.06510440532 0.08678063313 1.084202172e-19) 538
(0.03815988707 0.1339524603 -4.33680869e-19) 615
(0.0679753011 0.1529812268 2.168404345e-19) 638
(0.06969421262 0.1488728495 0) 629
(0.0600257505 0.1342902637 4.33680869e-19) 607
(0.05791393908 0.148777215 -2.168404345e-19) 627
(0.06244552771 0.1339370278 2.439454888e-19) 608
(0.06308117813 0.1435069671 0) 618
(0.04856103689 0.1154456248 -1.084202172e-19) 586
(0.05398820998 0.1302338146 -2.168404345e-19) 607
(0.04614741471 0.1101345094 3.252606517e-19) 576
(0.06985774637 0.03866183039 2.744386749e-19) 469
(0.04000189563 0.04611698813 0) 485
(0.04979107099 0.02196927046 2.168404345e-19) 456
(0.03477555401 0.02446885101 4.33680869e-19) 464
(0.03567257463 0.02191263954 -3.252606517e-19) 454
(0.0605440688 0.03245420935 1.084202172e-19) 467
(0.06776290232 0.04729163258 2.168404345e-19) 488
(0.0643584976 0.01980410456 1.355252716e-19) 448
(0.06486885041 0.02959428434 7.453889936e-20) 458
(0.06477134759 0.158477983 -1.344664804e-19) 638
(0.05060163855 0.0206983244 0) 446
(0.05475078774 0.0399186313 3.523657061e-19) 477
(0.0520145498 0.04115223121 4.33680869e-19) 476
(0.04126297387 0.03531547064 5.421010862e-20) 475
(0.03593547308 0.03897068965 2.168404345e-19) 484
(0.03040448073 0.01679966145 -2.168404345e-19) 453
(0.04805230371 0.0667333689 -4.641740551e-19) 516
(0.03275476345 0.0100082003 -2.168404345e-19) 444
(0.05729177063 0.03037559725 -2.168404345e-19) 467
(0.01507016394 0.04240481711 4.33680869e-19) 491
(0.01792410775 0.04781215379 -1.084202172e-19) 492
(0.07031009567 0.05093454658 2.168404345e-19) 489
(0.0659284283 0.02878983608 0) 458
(0.06887222093 0.06113086622 2.303929617e-19) 509
(0.07472157905 0.03277043453 0) 459
(0.04980145104 0.03688978653 -2.168404345e-19) 476
(0.06580297507 0.03749036988 -2.168404345e-19) 468
(0.07151403192 0.08676851072 -2.57498016e-19) 539
(0.0675970815 0.04901676119 0) 488
(0.07360420302 0.0714266754 3.252606517e-19) 519
(0.05889101207 0.08695761165 0) 547
(0.06418977428 0.1236975075 2.168404345e-19) 598
(0.07454820218 0.109793244 4.33680869e-19) 569
(0.05775082119 0.0462468755 -1.084202172e-19) 487
(0.05157941715 0.1071356156 0) 576
(0.04761101466 0.07175072586 -4.33680869e-19) 526
(0.03924381982 0.08872434144 2.168404345e-19) 545
(0.06357111509 0.01823638564 -5.421010862e-19) 448
(0.07252907154 0.06894457274 0) 519
(0.07031598659 0.07797431629 2.168404345e-19) 529
(0.05557497574 0.05801861817 0) 507
(0.07109469194 0.07297321232 -2.57498016e-19) 519