/*--------------------------------*- C++ -*----------------------------------*\
| =========                 |                                                 |
| \\      /  F ield         | OpenFOAM: The Open Source CFD Toolbox           |
|  \\    /   O peration     | Version:  2406                                  |
|   \\  /    A nd           | Website:  www.openfoam.com                      |
|    \\/     M anipulation  |                                                 |
\*---------------------------------------------------------------------------*/
FoamFile
{
    version     2.0;
    format      ascii;
    arch        "LSB;label=32;scalar=64";
    class       vectorField;
    location    "0.003/lagrangian/dsmc";
    object      U;
}
// * * * * * * * * * * * * * * * * * * * * * * * * * * * * * * * * * * * * * //


6879
(
(716.2578032 395.9936173 -399.9635889)
(1052.659221 -139.59092 1028.405221)
(1282.391521 777.114119 362.3727995)
(112.2477322 273.0396603 -527.5455277)
(711.7628487 1025.646514 -543.2827371)
(888.9083433 495.0389135 728.6770212)
(2236.010265 -107.8852908 44.67191493)
(211.7860084 83.97866857 313.3537384)
(212.4547379 943.9711102 581.7281873)
(60.4379439 265.3929879 200.0960425)
(-589.5794992 280.6921709 291.2381834)
(330.6513086 686.9317186 -7.163792384)
(1820.053275 190.1966018 -77.5040315)
(981.3663394 1112.009547 97.20127167)
(782.1166086 -88.81046826 -918.7445139)
(992.9912518 647.9790272 415.6960687)
(1117.832334 -54.94809105 -327.455727)
(1078.501319 -187.1469779 -1029.011801)
(1161.692974 486.1268112 523.3230991)
(745.4700891 1358.601047 -273.0746137)
(-221.2849576 636.8087892 -305.2534234)
(1259.668147 -625.5765769 -925.9421743)
(1368.963059 380.3785755 344.6276991)
(-92.88443424 -142.6141655 -140.5654596)
(-238.390652 827.3390381 -1055.393089)
(594.447965 715.2429899 576.6748392)
(-271.08442 -302.6370457 71.85589312)
(328.3683012 -761.6081281 267.5610594)
(-330.8023702 673.2254742 698.7556969)
(-28.41688256 -128.465755 94.44068447)
(1519.148098 1064.770667 399.9303214)
(912.7987842 359.1836128 530.7606104)
(462.3190032 640.7245171 472.9762121)
(-18.51423431 -424.9163401 -506.0350151)
(870.8469384 1394.761115 -530.6806986)
(-120.1465696 -199.85222 350.5278321)
(35.85503525 -143.4476316 387.5386116)
(1351.914339 83.37586602 -127.814455)
(1138.102529 766.8369145 -692.8649072)
(1901.89804 198.7933961 6.307242442)
(359.6922974 714.9785752 701.1837471)
(255.9614837 1497.091812 -308.5591108)
(1892.903093 -329.2124213 -578.2541435)
(1446.138264 235.0256198 -294.3102675)
(570.9446356 1177.413899 53.64941433)
(72.15881846 7.369984993 -827.105753)
(1682.49367 -41.90581753 -656.7491692)
(423.1449517 -81.61419284 148.9699142)
(1394.390871 357.2643708 -171.8041385)
(275.3254555 997.7822619 488.8796429)
(1049.121567 352.8695003 609.2640276)
(367.2510889 84.06298884 73.53264026)
(1558.106264 -276.536802 -142.6640056)
(997.2537577 1106.558207 -135.4998155)
(-695.3546086 274.807097 278.1768208)
(139.8153584 929.7602495 505.1381228)
(1665.467887 709.5794747 -907.9105629)
(934.23665 -924.884697 870.14011)
(-351.3845104 -91.58944245 -325.6982304)
(157.918968 -220.3768198 -790.0069059)
(563.932416 352.313073 -617.2718508)
(789.950013 197.7688933 -489.2009969)
(142.6794498 134.4889583 -64.68783111)
(1337.742343 -334.0964826 235.8446701)
(554.4648926 538.0287995 567.0641699)
(755.6153781 -394.223515 -524.0151786)
(98.19828866 1268.715836 63.64739488)
(-429.5471584 229.43381 405.9590091)
(584.3166864 520.8705695 -66.54652503)
(678.3805944 1025.399973 138.8408185)
(906.2619426 193.2269512 -164.6213448)
(-450.6678128 21.13826652 -244.5314791)
(200.7599726 247.4331287 -277.3604094)
(570.7067961 91.60650902 -148.7119099)
(1061.786497 1309.127239 -308.0725359)
(125.3730643 55.31182299 90.04022763)
(1801.296971 -364.7152148 -148.8150467)
(380.4924736 327.7930259 -428.2262902)
(198.53066 709.3728789 -126.2670985)
(1520.203671 -163.1838633 -410.0542572)
(553.1811763 903.6923501 156.3823909)
(-241.5240719 296.4184455 829.1549141)
(-600.4227372 -56.29838936 287.1713987)
(-786.5720218 587.2762092 -216.1052918)
(81.85688172 630.584665 601.5447493)
(-594.0339542 724.7397969 209.0263708)
(739.5427368 706.1889751 -120.164845)
(-541.9900684 191.043096 144.2002312)
(877.1216437 977.9252862 665.1040723)
(-610.8369304 -468.9801685 883.3871717)
(457.9482809 -539.0246476 539.5855519)
(266.63653 -340.4145206 -216.4131727)
(1111.918626 507.6424586 239.8315964)
(692.5584623 77.93890745 1014.347807)
(1182.310382 82.51897717 146.4577393)
(113.3219146 510.3327135 267.2808023)
(781.466971 339.4153822 -911.7435582)
(216.4801295 55.75375685 145.6596691)
(1305.218429 179.0964637 -144.4821344)
(-363.065875 -123.3971205 384.8314908)
(1009.782366 1064.788984 521.7673447)
(1921.467224 -117.0710398 259.3003245)
(726.1064888 -401.0160186 811.8147876)
(653.4899722 504.7225094 185.9689534)
(1710.283061 -216.7377527 277.0842131)
(1642.170231 141.1403977 1344.075324)
(625.6078314 649.4730562 -570.9453176)
(341.0145504 271.6033537 -278.7852524)
(897.896058 105.2842872 361.857471)
(-149.0441654 340.3617243 198.6186719)
(1834.119112 415.6035803 -417.2654775)
(1339.342091 201.3750318 496.6157638)
(1128.304698 307.8902738 -592.7775628)
(-465.9919117 120.3581189 231.8388549)
(537.9496065 337.5816114 1112.13568)
(-339.7489176 1108.169431 -1081.55827)
(403.1070745 -678.6714984 259.8669255)
(969.2600841 -690.9156853 -553.7602575)
(1146.357409 977.6210619 -996.3473391)
(1205.681359 -144.8774999 -765.7049893)
(134.9728777 -25.45943805 842.8960812)
(-373.2076312 -269.5023563 1105.477903)
(624.2078075 -64.19202571 -861.1392916)
(1681.085823 757.7609433 782.5268444)
(129.1658278 -220.291379 341.9461816)
(752.5212613 525.1432358 -368.6097835)
(199.267028 1321.523073 -80.21992632)
(1292.75031 1243.939735 -393.3474465)
(871.2176859 172.1910703 149.7796427)
(1450.724243 983.540898 -88.67056656)
(182.7586774 601.7085114 -294.8848893)
(1053.760199 511.2581932 -795.2065173)
(1035.387484 1151.33278 500.129675)
(1444.146246 -266.7485621 -64.57758857)
(569.4897934 211.0072233 902.0600402)
(-444.2448914 679.3528672 77.14984108)
(477.1876544 -967.3450906 -237.7481285)
(620.2005119 350.9767134 -325.5221639)
(799.4888623 1033.758864 -313.3570488)
(-712.8263631 401.5145582 -48.38002076)
(349.0506546 767.5686375 512.4418084)
(-382.004298 286.2070832 -197.7077104)
(428.5098008 647.9473947 607.1327872)
(-467.7503861 313.7509727 -407.374519)
(1389.280894 516.8850454 607.1558194)
(935.3796594 614.5065211 -663.2330032)
(1795.510366 747.962762 571.7047025)
(1337.324476 -654.9185785 -441.899643)
(949.0401401 785.7054916 414.7463258)
(804.0644186 642.26834 70.66160503)
(-188.7883253 1263.556329 -744.9518687)
(484.9956649 -456.9642093 -321.7215061)
(1122.178932 -79.63892828 447.4690673)
(82.2558513 1031.284723 835.2238169)
(-588.8317474 935.2530483 -518.1612564)
(1815.367588 -651.5310736 -343.8149382)
(1457.598585 -92.36464311 -300.4169784)
(1188.925789 411.549499 417.0491731)
(785.9715414 83.07337028 671.9467579)
(919.1296165 457.6041324 1446.594056)
(1543.595869 76.52660711 18.32430607)
(104.2973569 173.8464755 718.5321543)
(-490.4085267 1005.714074 -293.8067388)
(1740.010767 827.140451 -1062.589219)
(1483.4342 941.1626387 -162.9112286)
(922.6701315 -436.8249729 91.83591389)
(108.3462206 1261.022383 115.6672291)
(1209.182782 972.3047603 -982.4105523)
(309.8032749 1355.520527 210.8465328)
(2166.754617 -199.0268319 13.77956353)
(1583.086818 282.4634643 -311.4980763)
(633.7918483 14.55938632 -532.5205128)
(1547.693686 76.0321345 -190.6535709)
(384.1200709 1224.49633 191.3640167)
(1680.43462 1077.320919 -257.7026652)
(1961.162965 -119.9987696 735.8309914)
(1179.995469 299.3079688 -406.480291)
(168.7755628 253.0900259 -398.8612212)
(228.6602503 -103.6395364 818.3538393)
(1251.420546 -194.8314265 -62.41821644)
(483.1401735 439.0501161 376.3880219)
(299.7519683 651.4593375 -167.4854349)
(347.0852552 699.7712873 147.2687797)
(1696.068497 -415.4024523 -116.9274892)
(2472.931024 1334.635746 269.1228967)
(718.5279112 -84.58076995 297.5511177)
(1350.318131 134.2514568 672.2051422)
(-864.1440014 -126.0273703 54.49803664)
(1538.273734 230.975193 -931.3952246)
(428.6353596 641.8109868 324.3186206)
(618.5837637 -282.4495298 -314.9686174)
(-24.30057682 -33.2087693 398.5035656)
(768.4407434 -231.8408031 -568.4313214)
(833.0064455 311.7951985 -387.2172224)
(1314.584013 488.0576607 -260.3120747)
(1654.197816 -188.3740481 909.8407884)
(1085.580537 466.2443172 342.3173444)
(1828.3314 151.0304349 -94.44568866)
(920.7086077 -751.3239874 -493.0604688)
(620.8771236 669.4074358 390.8496323)
(1200.289158 -39.58611969 -124.775169)
(425.0732039 528.9908199 -561.7694797)
(1095.275144 1587.029014 -2.938614136)
(1095.864781 211.4907861 -792.9935748)
(367.9398184 468.4632987 -155.2022962)
(-8.245871186 785.7506193 610.1129477)
(297.0412995 1195.610783 -350.8510511)
(298.0081219 -97.77244381 -241.9892962)
(767.8796271 207.3557997 -545.6842884)
(720.2673201 118.4626103 282.139542)
(1205.497473 406.5027607 300.8816933)
(930.8475191 -557.97325 348.7923504)
(1451.322764 252.8162664 140.790466)
(1561.327438 -219.8429804 -59.19519567)
(-127.0422548 1352.810012 910.763545)
(192.5555162 1139.897416 341.8792815)
(144.7829185 1134.74566 -217.517069)
(988.0796185 148.4331995 945.9476868)
(1179.70725 84.31996218 -90.95873618)
(383.216745 348.3905811 199.9952961)
(1167.328101 -16.29435107 -84.02034689)
(1288.238226 521.8983935 864.7770446)
(1524.077813 494.6276392 356.570537)
(1058.364287 1070.861901 762.8074713)
(431.12558 1052.90722 -212.676589)
(119.327908 547.8791334 1165.58368)
(725.2431958 -389.5742215 -697.6706661)
(1546.660659 402.3513533 325.9248271)
(851.4748589 570.5670184 672.2766385)
(1020.665174 486.3175184 4.416044928)
(1544.094201 226.0460512 -132.882966)
(1086.737608 1217.056196 29.90609468)
(-406.412983 126.4839363 84.09262955)
(534.6458203 1247.610135 758.1402298)
(821.3318942 246.5596198 328.1014358)
(1000.376282 74.46620322 -681.3638594)
(-13.38757405 561.7175302 -166.9396205)
(1865.878955 -159.5094135 107.4605835)
(1113.682704 180.223598 638.8565341)
(1229.5304 1042.4057 401.6877862)
(998.4242968 152.0757587 -230.0186642)
(645.6203543 91.08979346 -889.300157)
(1298.023567 -316.0577276 16.84344514)
(1328.840295 -63.55202455 329.6465324)
(-299.1749661 192.6675814 -644.506101)
(-876.5713757 210.1017085 344.4625863)
(1811.13719 454.0469315 -900.4284548)
(1360.964701 1197.905149 -334.5524339)
(1531.341047 106.9112151 -559.7475382)
(-49.09936771 1327.989583 373.9144018)
(569.794665 601.2439302 186.2694321)
(-560.0186932 -33.94298848 -207.6155703)
(1018.88337 -294.9926738 224.1121939)
(1381.866214 -429.8431326 134.7783681)
(867.2591066 449.7834974 738.1720483)
(1210.372398 1117.105474 233.4886382)
(819.1699162 -1378.20658 -748.5179946)
(-127.7385017 983.5712914 -140.3649331)
(1229.965533 -248.5604266 69.31726034)
(-288.3176944 701.3851053 -13.58091293)
(564.5213438 -696.0087858 -332.0078991)
(1589.656839 56.23888368 -234.7986305)
(659.7724235 394.2584474 340.5147361)
(789.198765 90.07950009 -317.7867902)
(715.5261233 445.4284524 -410.3221615)
(1006.791111 -667.0436454 -442.4432192)
(1269.166789 791.3143771 -286.0619682)
(1439.380908 1154.756155 232.6428364)
(280.50262 494.47893 303.8173293)
(1122.848451 186.2404638 -318.4965899)
(452.6475181 572.7206664 476.9308143)
(-636.4138499 600.5605223 -433.7554341)
(37.09730768 673.4389898 214.0728788)
(763.4211875 59.84167263 -286.4290065)
(1417.36869 64.28394437 -199.1259709)
(1791.418827 237.5106932 -555.9299004)
(563.2487034 -166.1280887 -216.0641769)
(1598.860887 413.4181982 245.966087)
(1369.391235 2.640661731 51.89328124)
(1317.665859 336.7651255 213.1268067)
(1701.532043 772.945715 -502.8804103)
(161.8750573 -8.355348127 -428.2204821)
(1191.384362 446.5188162 -616.7223302)
(1662.260872 265.332562 -387.3281624)
(756.1463974 -585.0528754 -797.3074738)
(568.6941512 -368.3910821 1042.768297)
(-345.5389296 451.2114307 -343.5784277)
(200.5490847 723.1554521 -22.8145496)
(208.776127 182.1186978 -564.214794)
(1152.802078 443.7590229 311.5348008)
(88.64537464 685.2998256 924.4667142)
(1642.721599 57.84985782 -0.4289950875)
(596.910547 -172.2265602 -105.4424607)
(1529.853563 -96.74823027 25.04900591)
(1800.870779 34.5573026 332.2060198)
(2189.06368 333.1544799 18.10704801)
(1230.761141 69.68360588 125.9961606)
(826.2844592 410.2415593 1104.491404)
(1633.925164 562.383273 256.4213204)
(1107.318244 3.613226577 265.4852296)
(430.2296575 169.9893988 539.1451991)
(544.6562543 657.4190792 -544.4870084)
(1257.647502 316.3861914 758.4301664)
(1187.950475 400.3419216 -15.78829595)
(349.3998066 857.2060677 -82.3202035)
(-491.3432627 315.2768202 -54.68186915)
(1077.203921 -163.834113 953.4211321)
(1160.075029 184.1048523 1386.058356)
(1470.435089 1115.591206 -343.0442241)
(478.2014683 152.5178456 -238.4273608)
(1148.078091 124.854152 226.9152892)
(800.6602275 1093.369016 -882.3374213)
(256.5282868 351.5053789 -348.2350834)
(342.9716707 525.6135699 -582.8663305)
(1339.539441 292.8391915 -64.73194596)
(141.1419598 110.989849 -651.6911344)
(1166.240059 487.2620772 -718.000165)
(1560.801935 47.72383772 12.26009516)
(2037.864296 93.53240958 -125.4137152)
(1130.958835 322.0184146 -629.7395288)
(45.09557066 468.5955791 -562.3749876)
(474.4054406 565.6493931 612.3737687)
(484.4667976 1355.595243 540.184509)
(557.4587317 779.1409487 614.6549119)
(413.1792704 -119.7204162 480.8475152)
(280.4394393 245.7533149 -301.4373708)
(1571.568565 60.27446639 756.0032197)
(1604.31948 32.07365297 -1321.265575)
(338.8237158 -282.6093226 -859.6086555)
(1228.262014 1439.383343 -332.0524221)
(30.78083033 765.4622776 -654.23899)
(348.0722694 388.9590467 -222.5815274)
(1566.592256 410.6214859 -111.4442511)
(1333.369438 193.0434958 258.4336761)
(1456.325783 384.6367195 45.19158004)
(802.6353024 710.4892135 -1197.583484)
(1650.133028 275.6902138 361.466845)
(871.6108294 25.76577028 -177.3440434)
(2337.544331 -42.5518145 -29.17077645)
(1831.297064 -436.418018 241.2410089)
(1538.053363 -490.2148573 -108.9971817)
(-220.9100441 169.2438747 323.5655701)
(686.2600132 -441.8322627 740.7997277)
(1743.805598 -191.2131464 877.448956)
(604.3066945 32.96557709 -130.4467505)
(1422.019464 551.0737231 -471.6890037)
(811.7937704 181.036774 -292.5209981)
(1090.617725 1674.369261 -846.2521538)
(973.5708886 371.2979067 814.1146343)
(10.31493307 390.1433535 1459.765683)
(1164.063888 -141.2675669 -289.6346659)
(217.4716337 465.7782568 503.7598688)
(1047.436202 28.51292695 -17.28553155)
(1362.781244 174.4015721 -334.1168658)
(1235.794579 1096.753585 542.9798811)
(822.2037776 559.696105 612.7160786)
(1206.623472 -277.5046591 -49.19105229)
(1403.422463 1476.366255 -881.5394872)
(1627.923121 281.9073531 32.63920874)
(615.8131348 116.9615278 -1065.70182)
(383.4764525 1301.291733 214.2111682)
(744.6408898 929.0503422 -72.02200353)
(425.0836732 -566.0836799 -421.2798022)
(-124.3747642 -577.8001859 -282.1903617)
(1558.727719 11.55957051 -225.8639259)
(1539.146819 232.7797568 -234.8159514)
(503.787406 474.9646865 148.5203395)
(1845.570747 -172.8885738 -104.6443695)
(1296.338586 -85.75627606 -99.7177798)
(1683.184525 24.763975 -397.7361124)
(1366.106166 432.3656309 15.6071312)
(1478.853068 46.01677509 -588.6409589)
(1052.493832 312.5382512 485.103611)
(690.2546668 317.5851585 -69.75117551)
(890.4815768 1072.545898 34.88313479)
(749.9731247 396.4047899 -1165.81145)
(200.8687533 -128.8950762 -298.0366002)
(-139.1210803 -1179.729745 -909.5472138)
(313.1798697 452.6264177 459.1115817)
(746.5403793 998.9645333 -144.1867391)
(1380.473281 478.1840532 -647.6082113)
(694.5937847 123.4828728 -212.6018447)
(649.9511945 -343.6152561 379.60028)
(47.03993717 639.6105573 -87.71124358)
(181.2862907 1049.33102 1076.574837)
(2139.12842 195.8536511 65.50599272)
(585.7422205 81.41034561 539.2064109)
(377.7680048 1100.273962 -510.4223348)
(1288.699334 95.94974445 61.32017289)
(1125.748058 268.4943743 30.6157955)
(1924.277357 55.91011667 -637.5461124)
(906.5860599 -600.2217948 -815.2915035)
(1231.719107 82.87052045 -175.9204449)
(1091.540133 28.90389092 6.029933755)
(1071.04534 521.1539032 -60.25924375)
(1266.157753 49.29501738 -327.7643463)
(1200.673206 217.9315916 265.2172064)
(1768.320569 -234.3632877 -627.783067)
(1656.632379 209.9285552 453.1428345)
(1685.71302 -41.02705593 589.3835149)
(1131.314122 -293.7552824 -217.2857266)
(980.3132109 616.1156156 898.1529158)
(1676.459739 -126.4604468 -135.7525421)
(699.0829155 721.1140073 -486.166734)
(1539.8904 195.137241 -943.7439785)
(321.6094019 365.4018413 -927.9870857)
(1026.634656 -159.8640522 416.2467343)
(-206.8629301 45.2857323 -46.27254668)
(757.1491652 901.106735 -83.02884928)
(-617.9210659 631.3433001 158.1310522)
(1640.983675 2348.168687 139.7913098)
(1458.04064 496.0815515 58.45472052)
(496.6991528 734.9826275 4.469242711)
(-1003.549193 245.9136467 49.79364914)
(1262.242965 628.8574053 206.6532838)
(1323.50369 873.7769563 44.40784821)
(-65.0269506 842.5887926 -569.1910875)
(1775.742153 323.5250221 -116.5987237)
(769.9106591 342.6480068 680.5507898)
(262.0004439 101.2753796 31.60935896)
(1045.761824 -150.0042096 128.0480372)
(1330.030086 -43.52410345 472.10184)
(1896.062048 -304.5717207 69.39701054)
(1220.422465 -177.5332331 409.3363852)
(731.2340557 119.3808286 1194.959681)
(1481.251937 -465.3048424 47.97842713)
(1554.024102 -123.5159088 -328.5696701)
(1568.501791 308.0429154 115.7386245)
(139.2931676 1346.832411 -885.4814225)
(781.5323883 771.4662197 -415.2553461)
(1675.507257 645.6534559 -517.2812776)
(1664.329964 259.1342013 641.1042816)
(1971.176231 -596.7458625 559.0496023)
(1685.286516 385.7392771 -279.6722005)
(1647.751397 -267.7142559 99.07159693)
(932.4003714 -277.360847 -297.3140469)
(556.160454 296.6441659 384.0586216)
(1413.15903 667.0996442 -809.3539444)
(1085.891586 -293.646982 -351.6132461)
(1660.361083 1219.16066 73.42398889)
(1433.784776 175.0250317 20.63719848)
(1017.533331 -92.84304502 -17.13621326)
(972.2790161 447.8582202 -559.4718242)
(-122.8981281 229.8802408 196.8416162)
(969.1924298 -122.9467571 223.8282504)
(1636.307194 1041.980501 339.7383334)
(-443.256772 1312.6208 -299.8586052)
(280.9572072 463.6657215 -421.4505255)
(1628.669571 -181.6327791 381.1866529)
(850.9947675 1142.180834 169.0775153)
(-804.7305801 62.34638501 357.9180503)
(562.5138328 864.9718334 303.0184492)
(508.1157805 110.5990822 -327.837723)
(-333.6965224 75.61674638 234.6775795)
(143.8508236 746.8902696 -490.4531103)
(1491.57953 -55.03684801 -203.5614325)
(-67.2318342 63.11684972 113.5888495)
(1546.73584 188.734058 357.225674)
(883.0335906 -540.8027857 318.8127709)
(1308.220816 213.2915723 -164.6776915)
(1903.91478 280.3659046 7.02089286)
(1549.981757 -158.5306674 426.6552507)
(1153.934727 -128.7967977 -177.5065695)
(1698.887037 -126.5185277 -377.9293067)
(1379.124725 298.3947208 -143.3081745)
(2081.257499 -57.75729228 -94.2934956)
(1638.762387 -147.9455415 -387.9221227)
(1345.921111 162.1738864 72.69737388)
(1803.06219 151.2806217 -235.8236647)
(1351.706925 -4.190885831 564.7994929)
(1943.48535 157.6446867 151.7397861)
(1358.152476 701.0340737 -133.0177348)
(1856.301516 -90.21218989 -59.02537184)
(1528.505295 -63.51729111 539.2922666)
(1031.929486 -241.7036517 211.8098067)
(197.6818546 925.5520207 -157.6615997)
(849.9992474 584.6960506 -106.7145536)
(73.69337718 1323.907653 88.37165123)
(1288.458286 1016.432416 -213.3238597)
(950.5155346 104.1997021 -247.1199276)
(504.293692 250.9757973 -198.690048)
(1181.463192 158.2932424 585.1260385)
(-130.7818665 -48.62171418 467.4872943)
(1596.712059 219.681066 638.1820899)
(230.0051681 -100.9028759 -211.3489465)
(109.7917369 604.5233942 516.8169676)
(11.04784819 495.3251907 103.4287769)
(1530.401802 -167.6280575 -852.5321553)
(-427.1344487 864.9832901 -434.2921163)
(-299.9808801 1567.350568 -495.9865602)
(548.361715 -223.299455 -180.362284)
(767.3744261 -117.5917451 -20.95255753)
(1434.376166 153.4981582 16.19225031)
(1615.607422 -151.3579372 144.3172281)
(-259.111939 427.8448507 759.0158396)
(1043.948662 -325.5008865 236.8937745)
(1645.581285 -43.60471723 -462.5475831)
(1224.816868 418.745389 5.240868298)
(1694.028136 -96.01039481 82.39869569)
(1610.298056 -146.7009254 -590.4139516)
(936.3934553 298.6591333 -77.82657869)
(1177.083158 -314.7596581 0.1256753603)
(1132.634048 175.5809326 384.6882814)
(1406.492032 232.8593034 100.621487)
(1831.099341 575.1311661 479.07908)
(743.2641448 907.7165694 1197.702563)
(1011.225421 138.2550817 -207.1097276)
(1627.59669 -212.0162663 -93.81638133)
(1651.053067 47.85810295 -127.876746)
(1520.78716 279.7684739 -465.9099153)
(1116.092844 -64.39876219 -340.2783435)
(1332.256152 -177.1677977 53.22329368)
(1595.331869 975.329438 308.5342733)
(1892.507635 -161.8816071 -192.0142114)
(-268.9009827 -69.97849976 13.04374525)
(916.2200061 -382.4538957 711.6302604)
(142.7048971 225.3906089 -99.77553251)
(1479.127742 65.85470076 -272.9583764)
(-409.4041168 -776.875103 -346.9622138)
(-39.539196 861.5743501 -497.1822489)
(563.7197229 819.5219325 -805.4781081)
(1253.624358 419.116067 -24.93407359)
(163.4676166 531.7369099 -613.3801367)
(402.6290773 294.37911 238.3559992)
(960.9932274 191.3830341 -130.8385368)
(1126.96157 -123.4273969 136.3355919)
(1292.290694 -42.93442489 -236.9385162)
(1590.510878 -122.8128864 -428.6333541)
(1462.947069 732.9663272 -502.0364976)
(1510.4424 382.507989 -33.24306663)
(1572.378855 236.8889359 -0.8057017475)
(426.597791 689.2366902 841.4129813)
(1531.520734 647.0391776 15.61480542)
(512.7617575 240.9692175 105.815517)
(1659.784167 -569.865158 -536.9318915)
(1002.481424 1461.541126 -421.5496029)
(1124.285723 37.51125318 269.6067421)
(1963.428591 95.25700091 -12.70825482)
(1301.094008 298.4936975 -342.8764723)
(1233.518046 655.9449332 -365.244771)
(1616.942881 -343.6126458 -350.7055462)
(435.891819 -262.028519 -1526.008775)
(1178.407674 289.2196313 138.6105998)
(1103.5799 -78.83397874 -163.0702736)
(1256.625265 18.26370463 139.2794993)
(941.420359 38.06459352 135.3731768)
(1452.622704 -195.9440821 175.8274335)
(1560.73652 -236.9465517 -377.6780265)
(835.7444489 -574.018475 -560.4459658)
(1471.017577 -144.9474111 -300.6270402)
(1442.701435 66.91866311 336.6401461)
(1188.760909 459.6273785 245.3029661)
(1533.654043 -176.5053917 335.886558)
(1456.784042 561.1180517 740.2534262)
(53.11829622 320.9995992 198.8402024)
(206.4404648 509.5815189 -280.9474733)
(935.0030286 854.9550531 529.4011527)
(652.6924355 977.3118729 -744.1939218)
(829.0193447 -15.54208472 -27.29881271)
(1564.050112 -372.9769197 164.0908797)
(309.0670483 558.2935846 -514.9864708)
(-236.357029 735.7841652 752.7765453)
(816.6798927 202.209144 -212.4584768)
(1640.385443 471.6107887 -262.8375584)
(670.2483801 -108.7424214 390.9101245)
(1449.31151 1002.181577 -469.8783508)
(1382.95787 -402.9948839 485.4054921)
(1500.285638 525.9758779 200.0827758)
(1157.555286 -311.3327908 833.0672984)
(-417.1858499 99.90776694 -60.66434677)
(1330.290108 123.8917906 160.5821599)
(218.7549028 -193.8012376 -456.4868139)
(-403.479424 343.4775858 180.8043229)
(1465.358163 218.8562241 -18.79207294)
(1277.982038 81.06779296 -255.6158861)
(47.25898559 354.4729978 74.05879288)
(1984.036706 180.1978821 191.2017985)
(1558.025084 -434.1358119 -376.6452006)
(-521.5356564 -547.3141208 343.9524414)
(1331.465059 101.7315261 27.35281116)
(1756.600864 257.4820495 -411.4557789)
(1363.077453 -277.6200628 -108.4671305)
(1622.988864 -260.7832574 86.17618073)
(1471.439906 219.3972942 -115.2974513)
(1249.778419 -287.8496991 -202.7469889)
(1498.641978 232.3613527 -207.3575841)
(1573.334069 -90.63938364 221.1911226)
(1519.704552 -127.9588169 -190.0052019)
(1843.853638 -229.3663475 47.65948882)
(1757.346179 -16.95416023 -462.7832099)
(1232.926772 -381.1082776 71.65504293)
(1337.265413 -623.2458965 255.685026)
(1524.308668 -766.0250917 -42.4275505)
(1286.585236 804.0084268 -61.54004801)
(1306.336278 0.2002458343 795.93635)
(408.2222053 332.7452348 390.652972)
(490.9342085 376.2271795 500.6913989)
(1852.417458 -95.41260295 337.620667)
(1267.821006 -25.03731332 -668.9854778)
(2226.871364 -394.9296557 1.860621441)
(-297.7383506 661.0895354 329.4859938)
(1105.33537 -542.639477 86.00373074)
(1552.891581 128.1204975 111.3201533)
(1427.752352 160.7117972 -800.3425786)
(920.1518154 -294.2517301 -581.1186545)
(771.0727824 881.8836144 -367.3681379)
(1009.943888 1098.874572 321.7616391)
(1483.951605 26.55834672 122.7120365)
(151.2506401 945.8220825 154.7695755)
(1943.47615 707.1205515 706.4310892)
(130.2635515 1046.840317 -117.2766584)
(812.4079659 34.57222289 441.0120199)
(906.0473614 -229.3660587 -195.3147499)
(1073.806479 362.6038448 393.5414518)
(1146.581801 -128.8829755 18.63472195)
(1605.874134 266.379923 -24.08156066)
(2022.164205 -13.04853701 142.7548054)
(440.4180192 -170.1986482 -671.0656954)
(210.9247947 -81.91135519 439.5437523)
(1361.550975 1488.151007 -80.52227485)
(1455.633527 218.3825833 -204.3193029)
(2063.858304 380.0813732 -383.2433252)
(874.6224646 -566.2919227 349.2453784)
(1390.091137 501.8373041 -165.9825175)
(1838.554482 -26.81020219 197.2110386)
(1361.416919 287.1229995 197.8826938)
(687.6680282 -20.29413024 -546.0801412)
(1204.472174 822.67088 -712.2838997)
(1433.792259 133.0241531 -205.6941451)
(1430.327014 105.1275261 -404.1902431)
(-512.8600496 354.4866962 397.3023052)
(1255.40087 81.6459407 -361.5125842)
(1592.016375 -71.6563153 151.5847189)
(1426.965466 -82.03337596 -128.0266739)
(595.9190435 271.0661492 863.8489544)
(1706.44534 -177.3775502 119.4736697)
(1699.400056 -98.11927358 408.890557)
(1258.523666 640.6070307 170.7929956)
(1767.468531 -116.3781033 66.46772527)
(1381.408688 646.7644708 18.11908908)
(1375.065877 129.417634 -222.4214499)
(1993.27868 112.0381891 -87.74678992)
(1623.700189 -95.50128302 31.67152025)
(2102.736676 46.19128194 273.7789078)
(1933.251948 -347.4918374 -319.7088197)
(1465.628999 159.9521337 -68.48130303)
(1259.561619 725.8107 190.1248109)
(1653.106996 36.19706093 -86.82075955)
(1758.347638 -433.2164808 488.0382454)
(1638.840838 -35.15138427 752.4493403)
(1887.780968 357.4861802 732.1167494)
(1360.935614 -141.0522199 106.2661309)
(1331.793597 152.8216292 281.2288094)
(1642.583841 122.8268918 -93.69869191)
(1603.888034 74.33747785 81.45746447)
(1383.357862 20.76299286 119.4424463)
(191.872681 297.3180661 45.58606297)
(-20.66679377 975.1618247 -492.3374121)
(1079.437748 -796.5903719 211.7156505)
(1573.439094 772.5353577 327.0322287)
(218.412947 966.0651376 683.3421083)
(1484.449638 857.1250975 307.5967251)
(209.5109514 627.5639764 -272.1353728)
(-253.2225681 -11.62696843 -464.5467934)
(642.7638549 425.9246501 854.0883506)
(-83.08410696 646.0457362 -835.1515755)
(1273.701331 755.5627842 1241.019826)
(1089.084158 596.9048184 882.9768879)
(966.9067156 414.2623358 -393.1568242)
(583.7290982 144.9648255 529.1477342)
(612.0509849 671.9326214 -1201.5777)
(399.4204632 -30.16158082 444.5627198)
(-489.3545038 26.47532349 -48.01991068)
(1047.781398 636.5949259 -325.8709648)
(193.0208131 195.1524788 736.269884)
(974.0742662 1168.806152 -256.7925409)
(1862.474672 -465.8073979 -109.2790417)
(1503.81143 -17.64656724 -205.0814522)
(1296.506511 344.6993714 -5.810477899)
(1698.062258 1049.554412 497.6992282)
(783.2970955 1018.272067 275.2686802)
(1636.242217 -26.48628111 -199.8417705)
(1648.906746 220.1049752 64.99678528)
(1881.429344 -93.66661675 96.59260178)
(1409.97449 -123.3127018 126.6665548)
(1376.22049 -44.84777946 460.0093779)
(1496.800022 475.4732975 41.00928683)
(1745.723614 3.580241225 44.70290653)
(1499.456061 250.8035051 -329.2089316)
(1957.871186 -211.8809067 -181.4471866)
(2120.214626 626.6289881 -305.5471532)
(-253.4321611 -349.4947394 1513.110265)
(1972.623345 -202.6563481 -345.2007912)
(1862.137559 56.60096263 150.7890623)
(2071.663828 -274.6774898 -28.92468562)
(1549.400802 291.7496061 184.0261059)
(2065.133485 -518.4834927 360.7794443)
(1120.082212 231.2553199 276.1172369)
(2282.153968 -152.6471179 -319.1873331)
(1649.019771 325.7940659 -175.7351973)
(1632.435387 -164.384183 183.5613214)
(1399.710969 -426.1001366 171.7950236)
(1632.520823 -11.24457588 215.3875942)
(1399.945267 -69.61064596 -302.7236835)
(1780.823927 15.78715192 -564.5891748)
(1978.131964 55.95368708 2.505933533)
(1541.138164 230.2891387 782.4847276)
(1326.037974 -12.13031729 -222.6946209)
(1714.391051 77.10470862 37.50897835)
(1912.045008 244.590966 167.7542422)
(1663.303047 91.25810526 -235.5189358)
(1105.246322 -111.0228376 -515.5471677)
(1176.069439 -82.42989802 37.62480812)
(312.0297476 -460.5639975 490.6870328)
(1266.875717 1183.52163 -1098.240097)
(102.7777829 819.2436151 -358.9317895)
(917.6912043 -378.8273465 370.5862954)
(461.0454665 480.8930298 343.5629135)
(1635.488819 -545.9843488 -572.7256198)
(1790.349652 -347.4933451 368.9228332)
(-39.52228461 -92.69369074 -139.5026765)
(1039.588716 950.8969266 -384.8973102)
(347.2755517 421.5432706 -1507.839952)
(381.0350498 121.3594904 -47.52433661)
(1800.499365 61.84764924 76.56353058)
(1641.593423 1065.760491 -64.60777281)
(947.3247376 928.5351259 -825.9242518)
(1108.446843 -49.20544392 -393.5022252)
(1282.049027 639.2684351 109.6545122)
(1399.073195 -48.55402851 -173.882197)
(1497.953088 1085.754417 -374.2704952)
(1925.571032 13.73107097 -188.1552785)
(900.754633 168.1943776 47.75653694)
(1060.77987 287.0957224 61.72240918)
(1778.960314 670.686145 -355.5143434)
(1769.273245 733.4665824 -803.8526921)
(1453.632585 -154.1272997 -370.2483258)
(822.7164414 490.552171 -252.6841253)
(1595.813834 -78.4405921 110.0939791)
(1089.137219 -485.8524389 -108.9771685)
(1354.189096 547.9151935 465.6422986)
(1001.185345 944.5822948 241.3709804)
(711.9366527 648.018841 227.2526378)
(1728.804424 281.5375627 147.079694)
(1439.57056 162.4356444 -49.79012663)
(1100.749762 430.23996 -1487.856652)
(1312.172037 -9.403505279 -197.3307789)
(1617.744523 577.7182187 -201.3086855)
(1566.815358 464.886228 -104.1145795)
(1492.83292 49.08436874 -338.9387736)
(1318.49754 196.5828579 443.0994388)
(1878.684483 263.0873459 -176.9492415)
(1806.250133 491.3761118 62.20931065)
(2016.675417 228.04871 131.4150517)
(1947.03178 424.6666252 -411.1918836)
(1794.099331 -644.2256936 170.4662009)