/*--------------------------------*- C++ -*----------------------------------*\
| =========                 |                                                 |
| \\      /  F ield         | OpenFOAM: The Open Source CFD Toolbox           |
|  \\    /   O peration     | Version:  2406                                  |
|   \\  /    A nd           | Website:  www.openfoam.com                      |
|    \\/     M anipulation  |                                                 |
\*---------------------------------------------------------------------------*/
FoamFile
{
    version     2.0;
    format      ascii;
    arch        "LSB;label=32;scalar=64";
    class       Cloud<dsmcParcel>;
    location    "0.005/lagrangian/dsmc";
    object      coordinates;
}
// * * * * * * * * * * * * * * * * * * * * * * * * * * * * * * * * * * * * * //

5149
(
(0.06255113203 0.3793103891 0.08941404493 0.468724434) 455 2223 1
(0.004230066182 0.4978849669 0.4249327225 0.07295224443) 534 1031 2
(0.08175856659 0.4591207167 0.231164864 0.2279558527) 475 919 1
(0.6532426536 0.1733786732 0.02638841867 0.1469902545) 454 861 1
(0.01805673238 0.04035674243 0.4506148914 0.4909716338) 384 728 2
(0.03578321883 0.4821083906 0.3381151208 0.1439932698) 393 745 1
(0.8599993453 0.07000032737 0.01531923856 0.05468108881) 425 805 1
(0.2217082487 0.3891458756 0.3429636671 0.04618220857) 455 881 1
(0.1019196542 0.4490401729 0.1656886779 0.283351495) 524 1012 2
(0.7201329422 0.1399335289 0.03397824834 0.1059552806) 484 936 2
(0.1087328128 0.04545228096 0.4001813126 0.4456335936) 431 817 2
(0.3644605244 0.3177697378 0.05572557618 0.2620441616) 473 913 2
(0.1138660394 0.4430669803 0.293168429 0.1498985513) 423 820 2
(0.7251909189 0.1374045405 0.05861087345 0.07879366708) 494 937 1
(0.1350091534 0.4324954233 0.423262853 0.009232570279) 537 1018 1
(0.4528059076 0.2158783599 0.05771868635 0.2735970462) 495 2227 1
(0.6674369492 0.1025791121 0.06370241327 0.1662815254) 501 968 1
(0.1507832587 0.3854035776 0.03920479307 0.4246083706) 445 843 2
(0.8410911083 0.01125883073 0.06819561513 0.07945444586) 453 877 1
(0.3163975642 0.3418012179 0.2557494334 0.08605178453) 514 975 1
(0.00854219569 0.03746739942 0.4582615027 0.4957289022) 422 818 1
(0.6218318978 0.1890840511 0.1678334834 0.02125056769) 475 917 2
(0.1523943296 0.4238028352 0.01603405096 0.4077687843) 420 812 2
(0.03177619799 0.484111901 0.08397971235 0.4001321887) 495 2227 2
(0.4931974489 0.1738069028 0.07959437269 0.2534012755) 422 818 1
(0.7895064157 0.1052467921 0.0223822528 0.08286453934) 434 842 1
(0.07575191156 0.1549803782 0.4621240442 0.307143666) 484 937 2
(0.5190824756 0.1940202401 0.0464385221 0.2404587622) 373 725 1
(0.1607177802 0.3397795262 0.4196411099 0.0798615837) 465 898 1
(0.1183079941 0.440846003 0.343513509 0.09733249393) 504 974 2
(0.2612699746 0.2539296702 0.1154353425 0.3693650127) 414 785 2
(0.01909281908 0.006146431707 0.4843071588 0.4904535905) 534 1013 2
(0.4863652182 0.2568173909 0.2147735446 0.04204384635) 495 955 2
(0.435356513 0.1759384331 0.2823217435 0.1063833104) 465 898 1
(0.1220932776 0.4389533612 0.20235023 0.2366031311) 511 985 2
(0.4634810056 0.02812315835 0.2682594972 0.2401363389) 423 818 1
(0.001414819407 0.3191195044 0.4992925903 0.1801730859) 454 877 1
(0.09693521921 0.4515323904 0.3957487483 0.05578364208) 511 985 2
(0.09961365313 0.1526282536 0.4501931734 0.2975649198) 502 968 1
(0.09695215321 0.4515239234 0.2606098442 0.1909140792) 424 820 2
(0.5392600891 0.03079831359 0.2303699554 0.1995716418) 405 784 1
(0.6472488052 0.06147258613 0.1149030113 0.1763755974) 465 881 2
(0.5965229107 0.2017385447 0.1769314025 0.02480714219) 434 841 2
(0.8135708293 0.02483654708 0.06837803826 0.09321458534) 451 855 2
(0.4100672738 0.2949663631 0.05794969677 0.2370166663) 523 1010 2
(0.1964132604 0.1747656371 0.2270277327 0.4017933698) 475 2225 1
(0.1936865744 0.1775369175 0.2256197953 0.4031567128) 464 880 2
(0.002563493424 0.2810446073 0.4987182533 0.217673646) 445 862 2
(0.3438822913 0.3280588544 0.241609225 0.08644962931) 424 823 1
(0.3450884762 0.2720440915 0.3274557619 0.05541167039) 394 763 1
(0.0761893997 0.1539274844 0.4619053001 0.3079778158) 482 933 2
(0.08244126905 0.4587793655 0.4078485013 0.05093086414) 375 727 2
(0.2051980353 0.1209546786 0.3974009823 0.2764463038) 494 956 2
(0.0834061122 0.2966470398 0.4582969439 0.1616499041) 445 862 2
(0.3266841888 0.1803731753 0.1562847304 0.3366579056) 514 975 2
(0.241932479 0.3790337605 0.03574700775 0.3432867528) 319 598 1
(0.2148327007 0.3925836496 0.259083393 0.1335002566) 407 789 2
(0.8545214434 0.03562874513 0.03711053316 0.07273927829) 415 2219 1
(0.0112632677 0.2722856206 0.2220827456 0.4943683661) 365 2214 1
(0.4333788368 0.1286559939 0.1546545877 0.2833105816) 421 816 1
(0.2106828582 0.3946585709 0.2236541292 0.1710044417) 391 759 2
(0.3526131347 0.2112114109 0.3236934327 0.1124820218) 432 838 2
(0.5178969803 0.2410515098 0.1505905954 0.09046091439) 434 842 1
(0.6004119411 0.1997940294 0.1542587162 0.04553531319) 425 2220 2
(0.7678913619 0.116054319 0.07905688991 0.03699742914) 395 765 2
(0.6467943928 0.1766028036 0.1139616204 0.06264118316) 493 954 1
(0.04317929088 0.1196782298 0.3587321248 0.4784103546) 453 859 2
(0.2520035193 0.3739982403 0.1443327974 0.229665443) 483 916 1
(0.4206197502 0.2896901249 0.2711157222 0.0185744027) 484 934 2
(0.1139763624 0.1440317067 0.298980112 0.4430118188) 494 937 2
(0.0874654624 0.4562672688 0.3966923783 0.05957489048) 372 724 1
(0.624335021 0.1641714167 0.1878324895 0.02366107278) 443 859 2
(0.2215232345 0.2529841704 0.1362542124 0.3892383828) 421 816 1
(0.3484790754 0.1544067446 0.3257604623 0.1713537177) 543 1088 2
(0.6199485666 0.1900257167 0.05128648072 0.138739236) 414 785 1
(0.5877154186 0.1656334498 0.04050884094 0.2061422907) 454 861 2
(0.9059266661 0.02724636057 0.01979030636 0.04703666693) 412 781 2
(0.6032752199 0.02556249223 0.19836239 0.1727998978) 445 860 1
(0.1623587286 0.4188206357 0.1670875269 0.2517331088) 515 993 2
(0.4507161405 0.2746419298 0.009268988337 0.2653729414) 505 976 1
(0.8864225928 0.02479162387 0.05678870359 0.03199707972) 494 953 1
(0.07436686773 0.03517686145 0.4276397047 0.4628165661) 484 918 2
(0.3922513315 0.3038743343 0.2912869923 0.01258734199) 445 862 1
(0.07612992832 0.4619350358 0.1218073332 0.3401277026) 503 973 1
(0.09849273282 0.09341881575 0.4507536336 0.3573348178) 543 1088 2
(0.798040954 0.08697480117 0.100979523 0.01400472183) 495 957 2
(0.6633149005 0.08027630857 0.08806624116 0.1683425497) 455 862 2
(0.1686219011 0.1131191146 0.3025699349 0.4156890495) 372 723 1
(0.586113864 0.206943068 0.04177631899 0.165166749) 405 784 2
(0.350625603 0.08611208551 0.238575113 0.3246871985) 426 825 1
(0.1802961087 0.4098519457 0.1147935422 0.2950584034) 455 2223 2
(0.7152827259 0.142358637 0.09017537515 0.05218326189) 445 2222 2
(0.2195811307 0.3902094346 0.01500639789 0.3752030368) 471 912 1
(0.1846314495 0.4076842752 0.1034419832 0.3042422921) 414 804 1
(0.2842152175 0.3578923912 0.3046865399 0.05320585135) 476 479 2
(0.05599879967 0.4720006002 0.2770948896 0.1949057106) 478 925 1
(0.03396116745 0.4830194163 0.1888242562 0.2941951601) 505 957 1
(0.5617683889 0.02553742502 0.1935783805 0.2191158055) 475 2225 1
(0.08300302343 0.4584984883 0.1755983711 0.2829001172) 455 2223 2
(0.2786411891 0.1693526102 0.1913267952 0.3606794055) 392 743 2
(0.5965460841 0.2017269579 0.09081029006 0.1109166679) 408 791 2
(0.04029224861 0.3610170107 0.118836865 0.4798538757) 413 801 1
(0.6259180575 0.1870409713 0.1259926518 0.06104831944) 432 819 1
(0.6619790047 0.1690104976 0.1315179412 0.03749255644) 395 748 1
(0.5247638433 0.2376180783 0.1856932056 0.05192487277) 440 852 2
(0.2615636414 0.3692181793 0.06780394284 0.3014142365) 384 747 1
(0.2367344016 0.3816327992 0.1595181975 0.2221146017) 435 841 2
(0.04020481816 0.4798975909 0.1027883629 0.377109228) 472 913 2
(0.2337073217 0.1262632086 0.2568831305 0.3831463392) 464 880 2
(0.4533158513 0.2733420743 0.1364676541 0.1368744202) 423 802 1
(0.5136024817 0.2431987592 0.03237815657 0.2108206026) 503 972 2
(0.2783154806 0.07168101015 0.2891612495 0.3608422597) 501 968 1
(0.3295068964 0.3352465518 0.0720797968 0.263166755) 454 880 1
(0.6992802805 0.1403895452 0.1503598598 0.009970314528) 545 1042 1
(0.645398397 0.01988481845 0.1773008015 0.1574159831) 495 955 1
(0.8049499112 0.06454731432 0.09752504439 0.03297773007) 485 938 2
(0.1064595834 0.4467702083 0.4018580843 0.04491212399) 454 879 2
(0.02611003227 0.4869449839 0.003074685687 0.4838702982) 530 1023 2
(0.6687166759 0.165641662 0.04901889645 0.1166227656) 535 1014 1
(0.3000630809 0.05160489006 0.3499684596 0.2983635695) 383 742 1
(0.1604103989 0.4197948005 0.3707263418 0.04906845875) 424 823 1
(0.7047607595 0.0671844625 0.1476196202 0.08043515774) 405 786 2
(0.7651412385 0.1174293807 0.06408608845 0.05334329228) 394 763 2
(0.0874444113 0.4562777943 0.2546407384 0.2016370559) 400 776 2
(0.3871544185 0.3064227907 0.01958309319 0.2868396975) 464 880 1
(0.3093213151 0.3439614962 0.3453393424 0.001377846219) 525 1014 2
(0.1303829237 0.4348085382 0.07429222233 0.3605163158) 452 876 1
(0.4799446384 0.1508975326 0.2600276808 0.1091301482) 463 897 2
(0.1951666301 0.2259931046 0.402416685 0.1764235804) 475 917 1
(0.8768576165 0.02939238475 0.032178807 0.06157119175) 513 973 2
(0.444279296 0.277860352 0.09141477368 0.1864455783) 475 900 1
(0.2566034606 0.3716982697 0.1157012322 0.2559970375) 502 971 1
(0.6047579236 0.07637347668 0.1212475615 0.1976210382) 525 995 2
(0.1791631737 0.2905990559 0.1198193573 0.4104184131) 395 748 2
(0.3564167747 0.3217916126 0.2477511958 0.07404041687) 365 708 2
(0.1133136034 0.225040023 0.2183031753 0.4433431983) 403 782 1
(0.1557510012 0.4221244994 0.1947952001 0.2273292993) 382 724 1
(0.2155513602 0.1829191079 0.2093052121 0.3922243199) 414 803 1
(0.09163504114 0.4541824794 0.21641997 0.2377625094) 403 764 1
(0.3422292918 0.1759842553 0.1529010988 0.3288853541) 502 970 1
(0.6159451155 0.1326128167 0.0594146255 0.1920274422) 424 804 2
(0.3031036972 0.3338198002 0.3484481514 0.01462835119) 425 822 1
(0.4539415114 0.023325281 0.2497039633 0.2730292443) 391 759 1
(0.4629742303 0.2038636319 0.2685128849 0.06464925299) 425 824 2
(0.4322690646 0.1086265954 0.2838654677 0.1752388723) 452 876 2
(0.1001035697 0.1007602396 0.4499482151 0.3491879756) 383 745 2
(0.06278634542 0.1315124403 0.337094387 0.4686068273) 433 839 1
(0.3407634894 0.3296182553 0.1191731938 0.2104450615) 462 892 2
(0.5068955672 0.2465522164 0.1560413432 0.09051087321) 447 863 2
(0.1400598321 0.4299700839 0.3239090621 0.1060610218) 444 861 1
(0.1484152628 0.3105151341 0.4257923686 0.1152772345) 522 1006 1
(0.5439854056 0.08925451518 0.138752782 0.2280072972) 545 2232 1
(0.1238183662 0.4380908169 0.08532035873 0.3527704582) 535 1014 1
(0.1087478326 0.3062389581 0.1393871256 0.4456260837) 503 972 1
(0.6386097992 0.1436371691 0.03705793132 0.1806951004) 530 1023 1
(0.08765549341 0.4561722533 0.2747290245 0.1814432288) 515 976 1
(0.8235884377 0.03522727062 0.08820578115 0.05297851053) 504 975 2
(0.4123284725 0.2938357637 0.04997392203 0.2438618417) 525 1014 1
(0.1705789521 0.4147105239 0.08543842769 0.3292720962) 363 706 2
(0.4795533367 0.2602233316 0.1658859873 0.09433734437) 424 822 2
(0.0275588643 0.4862205678 0.3189696175 0.1672509504) 379 737 1
(0.7284100995 0.07729111562 0.05850383463 0.1357949502) 432 837 1
(0.07073391124 0.4646330444 0.3562061806 0.1084268638) 365 2214 2
(0.004910754084 0.497544623 0.01384637057 0.4836982524) 443 858 2
(0.1644357257 0.04439031988 0.3733918173 0.4177821372) 432 837 1
(0.5319157568 0.2340421216 0.1688990837 0.06514303789) 239 478 1
(0.5570923162 0.2214538419 0.2057562451 0.01569759682) 545 1090 1
(0.3327147017 0.2230590423 0.1105836068 0.3336426492) 494 937 2
(0.1328530768 0.4335734616 0.3826480338 0.05092542782) 488 943 2
(0.6640184953 0.07541887747 0.09257187488 0.1679907523) 454 879 1
(0.1931241664 0.4034379168 0.1993288721 0.2041090447) 505 957 1
(0.03984936934 0.3931271366 0.4800753153 0.08694817871) 515 993 1
(0.03185659528 0.4840717024 0.180532204 0.3035394984) 530 1023 2
(0.270166671 0.3649166645 0.0251988778 0.3397177867) 544 1032 1
(0.3444610418 0.06499379567 0.3277694791 0.2627756835) 462 892 1
(0.2191549986 0.3853537105 0.005068790259 0.3904225007) 414 803 1
(0.3208644397 0.3395677801 0.1948116312 0.1447561489) 424 823 1
(0.4592613441 0.2703693279 0.001421330612 0.2689479973) 385 748 1
(0.2741534756 0.1946408615 0.3629232622 0.1682824007) 385 748 2
(0.07203737424 0.4639813129 0.1428755474 0.3211057655) 365 708 2
(0.5030426283 0.2484786858 0.02909763405 0.2193810518) 394 766 1
(0.1102359276 0.07150663766 0.4448820362 0.3733753985) 384 747 2
(0.07028104629 0.4648594769 0.4558904876 0.008968989259) 393 764 1
(0.5801275071 0.2099362464 0.03077359069 0.1791626557) 402 781 1
(0.6299706532 0.1850146734 0.1627226465 0.02229202697) 382 743 1
(0.3855391547 0.3072304226 0.2145212738 0.09270914888) 366 712 1
(0.05081442583 0.2664013302 0.4745927871 0.2081914569) 521 1004 1
(0.5446621883 0.2276689059 0.1528882478 0.07478065809) 430 834 1
(0.7954127548 0.07527425408 0.02701936853 0.1022936226) 482 932 1
(0.7230091894 0.05253710829 0.085958297 0.1384954053) 493 935 2
(0.5901584623 0.171982472 0.2049207688 0.0329382968) 522 1006 1
(0.1074044125 0.4462977938 0.2329158494 0.2133819444) 465 900 1
(0.4741745883 0.1170732772 0.2629127058 0.1458394286) 480 929 2
(0.4977539408 0.1007475217 0.150375508 0.2511230296) 505 957 2
(0.2113850985 0.2634246906 0.3943074508 0.1308827602) 494 953 1
(0.5446160773 0.2032354735 0.2276919614 0.02445648781) 524 1013 2
(0.8917769225 0.05411153874 0.007609726459 0.04650181228) 524 1012 2
(0.2932574601 0.2657165923 0.0876546776 0.3533712699) 394 747 2
(0.2874976688 0.3562511656 0.3260838256 0.03016733996) 373 723 2
(0.3821409118 0.2575304715 0.3089295441 0.05139907262) 384 747 2
(0.08399992954 0.4580000352 0.03089162742 0.4271084078) 425 822 2
(0.3499486441 0.325025678 0.1740370103 0.1509886677) 389 753 2
(0.1569711648 0.003120523742 0.4215144176 0.4183938939) 388 754 2
(0.3076108161 0.346194592 0.1005437609 0.2456508311) 475 2225 2
(0.02857389562 0.4857130522 0.2642548659 0.2214581863) 455 862 1
(0.4217797763 0.02046908853 0.2686410233 0.2891101118) 432 837 1
(0.1404425981 0.4297787009 0.3842135425 0.04556515848) 445 862 1
(0.2265127467 0.3867436266 0.2478884599 0.1388551667) 424 823 1
(0.211861224 0.1683991929 0.2256701952 0.394069388) 409 775 2
(0.2583284455 0.3708357773 0.1353826986 0.2354530787) 539 1022 1
(0.2964290874 0.3517854563 0.08457851841 0.2672069379) 424 804 1
(0.5914514604 0.009150349326 0.1951239205 0.2042742698) 452 857 2
(0.6514436532 0.1742781734 0.1697901597 0.004488013693) 455 862 1
(0.4042108373 0.2978945814 0.187382577 0.1105120043) 441 836 1
(0.2090258862 0.3954870569 0.09092498616 0.3045620707) 486 939 2
(0.7450226751 0.07607768099 0.05141098148 0.1274886625) 544 1042 1
(0.05013510769 0.4749324462 0.378922427 0.09601001915) 532 1025 2
(0.2119059445 0.3334724565 0.3940470277 0.06057457124) 442 857 2
(0.17680636 0.3573050303 0.05429178966 0.41159682) 455 862 2
(0.1860116063 0.2930093188 0.1139848781 0.4069941969) 532 1027 1
(0.7647086928 0.1052140269 0.0124316267 0.1176456536) 515 976 2
(0.7633017279 0.04807320572 0.118349136 0.07027593032) 511 988 2
(0.4911944395 0.1790166713 0.2544027802 0.07538610893) 441 852 1
(0.0126150954 0.4936924523 0.1685919093 0.325100543) 514 993 2
(0.5332361921 0.1731496754 0.06023222855 0.2333819039) 495 938 2
(0.7539928962 0.1230035519 0.01770724952 0.1052963024) 364 708 2
(0.6861936641 0.08096414336 0.1569031679 0.07593902459) 391 760 2
(0.1378927646 0.4310536177 0.2165250443 0.2145285734) 420 796 1
(0.005503196823 0.4972484016 0.355649493 0.1415989086) 391 757 2
(0.214509848 0.392745076 0.2551403777 0.1376046983) 467 903 2
(0.4265240052 0.0006854008333 0.2860525966 0.2867379974) 404 784 1
(0.3976779059 0.2772825978 0.02387844924 0.3011610471) 391 759 1
(0.4437211963 0.2781394018 0.05283473204 0.2253046698) 403 783 1
(0.4754303248 0.04786476545 0.2622848376 0.2144200721) 412 800 2
(0.4318787572 0.1754105677 0.2840606214 0.1086500537) 422 816 1
(0.3884225772 0.3057887114 0.008857506575 0.2969312048) 365 2208 2
(0.1628817341 0.418559133 0.3944656047 0.02409352824) 439 850 2
(0.3621185519 0.0745668871 0.3189407241 0.244373837) 384 744 1
(0.5750565715 0.1921152264 0.2124717143 0.0203564879) 492 949 1
(0.03151430073 0.1617722721 0.4842428496 0.3224705775) 383 742 1
(0.1765319216 0.4117340392 0.2093409964 0.2023930428) 375 727 2
(0.1662493971 0.2858365627 0.4168753015 0.1310387388) 405 786 2
(0.3335295922 0.3332352039 0.001524947171 0.3317102567) 485 919 1
(0.2893594356 0.3553202822 0.2125764488 0.1427438334) 481 912 1
(0.4578555733 0.2710722134 0.06434905351 0.2067231598) 432 837 2
(0.02956225594 0.2036233829 0.485218872 0.2815954891) 478 925 2
(0.6022192081 0.04476255107 0.198890396 0.1541278449) 429 829 1
(0.009393594077 0.446684881 0.04861832194 0.495303203) 434 823 2
(0.7028106439 0.148594678 0.143184722 0.005409956027) 434 842 1
(0.0304341384 0.4780879883 0.006694942538 0.4847829308) 531 1007 2
(0.09604024661 0.2062425646 0.4519798767 0.2457373121) 442 857 2
(0.1455200499 0.427239975 0.1332023342 0.2940376408) 473 897 1
(0.343813631 0.07722311465 0.2508700699 0.3280931845) 411 779 2
(0.9392496608 0.003483488385 0.03037516961 0.02689168123) 522 1006 1
(0.9295882821 0.03520585895 0.01468898631 0.02051687265) 494 955 2
(0.4261598813 0.2869200593 0.1296876996 0.1572323598) 461 893 1
(0.2014021811 0.3992989095 0.07794736452 0.3213515449) 494 953 2
(0.007043355609 0.2287223511 0.2677559711 0.4964783222) 543 1041 1
(0.2933346012 0.2670383629 0.3533326994 0.08629433652) 503 970 1
(0.08283552257 0.1517165139 0.4585822387 0.3068657248) 513 989 1
(0.5347418576 0.2326290712 0.05564599543 0.1769830758) 461 890 2
(0.3309338712 0.1724299697 0.3345330644 0.1621030946) 488 944 2
(0.4654239485 0.2672880257 0.2256266715 0.04166135426) 535 1031 2
(0.5793732399 0.106743585 0.2103133801 0.103569795) 515 995 2
(0.2489693112 0.01654718009 0.3589681643 0.3755153444) 535 2231 1
(0.2304716449 0.3699369636 0.3847641775 0.01482721392) 545 1042 1
(0.2040755001 0.2999564655 0.0980057844 0.3979622499) 513 991 1
(0.515137807 0.1424851083 0.2424310965 0.09994598823) 464 899 2
(0.08209011453 0.2035104923 0.2554444504 0.4589549427) 383 744 1
(0.8360587641 0.07690409371 0.005066524244 0.08197061796) 415 786 2
(0.1273357933 0.4363321033 0.3570618563 0.07927024708) 424 804 1
(0.5493485321 0.2253257339 0.01686574356 0.2084599904) 410 777 1
(0.7604909221 0.06426879972 0.05548573923 0.1197545389) 375 2215 1
(0.1391781081 0.4304109459 0.3422122502 0.08819869578) 439 850 2
(0.3636317951 0.2635328644 0.3181841025 0.0546512381) 420 815 2
(0.3722806874 0.2824985074 0.3138596563 0.03136114887) 403 783 2
(0.3419433157 0.2606460628 0.06838227939 0.3290283422) 375 710 2
(0.1980728499 0.3380777386 0.06288583642 0.400963575) 431 817 2
(0.2729139209 0.3635430396 0.1650172414 0.1985257982) 414 804 1
(0.02277317662 0.4886134117 0.06185975293 0.4267536588) 405 2218 2
(0.2472557086 0.3763721457 0.2102908655 0.1660812802) 371 722 1
(0.1120973266 0.08841202466 0.355539312 0.4439513367) 451 855 2
(0.4817048447 0.2130678709 0.04607970673 0.2591475776) 399 756 2
(0.7768232591 0.1115883704 0.006480777209 0.1051075932) 405 786 1
(0.5260171646 0.2369914177 0.0756111853 0.1613802324) 412 800 1
(0.6209426401 0.04209869483 0.18952868 0.1474299851) 422 816 1
(0.2030659621 0.3369541934 0.06151282551 0.3984670189) 482 914 2
(0.6645705814 0.1553060659 0.1677147093 0.01240864343) 394 766 2
(0.4503034137 0.000429934515 0.2748482932 0.2744183587) 434 842 2
(0.06487299853 0.1064295768 0.361133924 0.4675635007) 442 838 2
(0.283124642 0.02634200982 0.358437679 0.3320956692) 515 993 1
(0.400228345 0.2998858275 0.2250181675 0.07486765993) 464 899 1
(0.615432149 0.0917220215 0.1922839255 0.100561904) 451 874 2
(0.1992297417 0.3765963288 0.02378880034 0.4003851291) 528 1019 1
(0.7632430162 0.0901965205 0.1183784919 0.02818197137) 513 989 1
(0.5109985477 0.0788601033 0.1656406228 0.2445007261) 489 927 2
(0.04244724787 0.4787763761 0.2644532745 0.2143231016) 451 874 1
(0.626132026 0.186933987 0.1223833092 0.06455067783) 504 975 1
(0.6871620387 0.02096438277 0.1564189807 0.1354545979) 520 1002 1
(0.5548252002 0.2225873999 0.2092160087 0.01337139118) 463 894 2
(0.1612505415 0.4193747292 0.1821567892 0.23721794) 493 951 2
(0.006891176039 0.496554412 0.1180764713 0.3784779407) 525 1014 1
(0.3273952889 0.3363023556 0.2439488398 0.09235351576) 511 987 2
(0.6279187215 0.08419896016 0.1860406393 0.1018416791) 509 984 2
(0.4380186758 0.253501611 0.02748905107 0.2809906621) 543 1041 1
(0.8919127301 0.003738341739 0.05404363495 0.05030529321) 540 1085 2
(0.6494511043 0.06509725946 0.1752744479 0.1101771884) 385 748 2
(0.1994167244 0.4002916378 0.1263438982 0.2739477396) 372 721 2
(0.1057311865 0.4471344068 0.2465331042 0.2006013026) 391 741 1
(0.3970896349 0.2612448409 0.0402103417 0.3014551826) 433 839 1
(0.06433407338 0.3882100808 0.0796228825 0.4678329633) 388 753 1
(0.6374633653 0.02281749202 0.1584508253 0.1812683173) 381 722 2
(0.09666534774 0.4516673261 0.03386006551 0.4178072606) 408 791 2
(0.03594181803 0.1887861827 0.482029091 0.2932429083) 418 808 1
(0.1534017931 0.4232991034 0.2437251316 0.1795739718) 364 709 1
(0.2163262705 0.1943101023 0.3918368648 0.1975267625) 401 779 2
(0.4911082864 0.2544458568 0.1545547651 0.09989109169) 411 798 1
(0.4835036438 0.2387470944 0.01950108368 0.2582481781) 452 875 1
(0.1111735657 0.4444132172 0.04893148165 0.3954817355) 442 856 2
(0.5476911634 0.2261544183 0.007323043503 0.2188313748) 423 818 2
(0.5496530211 0.2251734894 0.144776552 0.08039693747) 434 842 1
(0.8294168651 0.03338262504 0.05190894243 0.08529156747) 420 814 1
(0.3421652916 0.3289173542 0.2244276146 0.1044897396) 481 930 2
(0.2401710157 0.1173886281 0.2625258641 0.3799144922) 441 836 2
(0.0876322736 0.4337906262 0.02239323703 0.4561838632) 479 908 2
(0.1110395966 0.4444802017 0.2365851821 0.2078950196) 431 836 1
(0.1839258288 0.4080370856 0.1464170287 0.2616200569) 411 797 2
(0.3011968063 0.3392928447 0.01010875218 0.3494015968) 390 757 1
(0.2210809889 0.04779358528 0.3416659203 0.3894595056) 505 957 2
(0.2700857536 0.3649571232 0.1571919408 0.2077651824) 394 763 2
(0.3531757699 0.3147759699 0.323412115 0.008636145188) 478 925 2
(0.6066203255 0.125463719 0.07122611828 0.1966898373) 513 973 2
(0.3006240978 0.2605300192 0.3496879511 0.08915793191) 502 968 1
(0.1663042911 0.4168478544 0.3413062461 0.07554160831) 449 851 1
(0.2698197069 0.352047153 0.01304299352 0.3650901465) 520 986 2
(0.760685144 0.119657428 0.04593522458 0.07372220343) 415 805 1
(0.2166551379 0.3916724311 0.3664425827 0.02522984835) 514 975 1
(0.05038508158 0.004185685115 0.4748074592 0.4706217741) 485 936 1
(0.5446847452 0.2276576274 0.06120681121 0.1664508162) 514 991 2
(0.1093239554 0.1575042807 0.4453380223 0.2878337416) 512 990 2
(0.2488665466 0.04798610992 0.3275806168 0.3755667267) 474 899 2
(0.2980221977 0.3509889012 0.1445668913 0.2064220099) 475 900 1
(0.3262548663 0.2270743396 0.1097982273 0.3368725669) 494 955 1
(0.2993160965 0.2836731951 0.0666687566 0.3503419517) 449 869 1
(0.4505356802 0.05383207128 0.2747321599 0.2209000886) 484 937 2
(0.3530517135 0.2243498317 0.3234741432 0.09912431156) 516 997 2
(0.2238067457 0.3880966272 0.1484808627 0.2396157644) 542 1039 2
(0.8115154263 0.03527797565 0.09424228683 0.05896431118) 542 1039 1
(0.2026498447 0.3986750776 0.05850136434 0.3401737133) 485 936 2
(0.5115189283 0.1455690232 0.2442405358 0.09867151265) 514 991 1
(0.730170121 0.05774184762 0.07717309189 0.1349149395) 545 1033 2
(0.1754545878 0.05565903419 0.4122727061 0.3566136719) 469 908 2
(0.061191424 0.2314031686 0.2380011194 0.469404288) 509 983 1
(0.002616365282 0.4826577225 0.01603409486 0.4986918174) 433 821 2
(0.5126876478 0.2436561761 0.1047418578 0.1389143183) 385 729 1
(0.3960617406 0.3019691297 0.2327190032 0.06925012646) 390 758 1
(0.08140782749 0.4592960863 0.1285659035 0.3307301828) 400 774 2
(0.7042026825 0.1478986587 0.01167067293 0.1362279858) 385 729 1
(0.4506506007 0.2746746997 0.2571571989 0.0175175008) 374 725 2
(0.8103558991 0.06884617954 0.02597587093 0.09482205047) 405 767 2
(0.05311651132 0.08219687788 0.4734417443 0.3912448665) 400 777 2
(0.1363564748 0.3929419288 0.03887983384 0.4318217626) 432 819 2
(0.1333692153 0.4333153923 0.3810572464 0.05225814598) 431 836 1
(0.7004968566 0.1497515717 0.04739383797 0.1023577337) 445 862 1
(0.1047222598 0.4476388701 0.4390888024 0.008550067734) 374 709 1
(0.8599762131 0.05591978939 0.01409210406 0.07001189345) 424 822 1
(0.1286944179 0.4356527911 0.0359569524 0.3996958387) 439 832 1
(0.5860591022 0.2069704489 0.179024436 0.02794601286) 404 766 1
(0.2043391953 0.3978304023 0.3291145373 0.06871586502) 461 892 2
(0.563932798 0.218033601 0.07982441542 0.1382091856) 472 914 1
(0.3722116503 0.06735553841 0.3138941749 0.2465386364) 422 819 2
(0.02835759398 0.485821203 0.4377002709 0.04812093213) 498 960 2
(0.5608736083 0.2195631958 0.06000293597 0.1595602599) 447 865 2
(0.3570319846 0.3214840077 0.09942288588 0.2220611218) 402 781 1
(0.7068924667 0.1465537667 0.08131860334 0.06523516331) 453 877 2
(0.1145164631 0.4427417684 0.271788959 0.1709528094) 474 899 1
(0.2504635495 0.3747682252 0.1957201092 0.1790481161) 450 869 2
(0.3965661315 0.3017169342 0.2972082332 0.004508701001) 459 888 2
(0.629224954 0.115533508 0.185387523 0.06985401507) 480 926 1
(0.1061268771 0.4469365615 0.2543319807 0.1926045808) 473 897 1
(0.4808157624 0.2595921188 0.1023037807 0.1572883381) 433 821 1
(0.1399761344 0.127510454 0.3025014788 0.4300119328) 455 862 2
(0.4959510682 0.1343392661 0.2520244659 0.1176851998) 473 913 1
(0.06214998336 0.4689250083 0.424715585 0.04420942328) 432 819 1
(0.4886365466 0.2069391239 0.2556817267 0.04874260282) 455 879 1
(0.1766696251 0.2557161615 0.1559490259 0.4116651874) 525 995 2
(0.1749564455 0.4125217772 0.06306754247 0.3494542348) 425 2220 2
(0.361439589 0.2800679158 0.3192802055 0.03921228968) 523 1008 1
(0.05317074466 0.1684579587 0.304956669 0.4734146277) 514 975 2
(0.03480831495 0.2728788219 0.2097170206 0.4825958425) 541 1039 1
(0.247409624 0.1340421402 0.376295188 0.2422530478) 494 953 1
(0.6192787112 0.1903606444 0.08550389524 0.1048567491) 438 848 2
(0.3903000993 0.3048499503 0.004972395544 0.2998775548) 484 918 1
(0.5646579049 0.08850963753 0.2176710475 0.12916141) 454 880 2
(0.8623339842 0.06883300788 0.0409607122 0.02787229567) 494 953 2
(0.2666143389 0.3666928306 0.1227415584 0.2439512722) 489 946 1
(0.2779347335 0.1360690147 0.2249636185 0.3610326333) 542 1040 1
(0.1071851791 0.4464074104 0.008053750072 0.4383536604) 462 876 1
(0.4712495464 0.2643752268 0.2080466285 0.0563285983) 450 871 2
(0.06863778389 0.009223529171 0.4656811081 0.4564575789) 511 985 1
(0.05506108186 0.09142591278 0.4724694591 0.3810435463) 485 936 1
(0.1482706508 0.4258646746 0.08554420314 0.3403204715) 534 1029 2
(0.2263169665 0.05142429261 0.3354172242 0.3868415168) 534 1013 2
(0.3439498258 0.2946276118 0.03339747526 0.3280250871) 372 723 1
(0.1421283754 0.4289358123 0.2795734148 0.1493623975) 441 852 2
(0.3341575143 0.3329212428 0.2102497585 0.1226714843) 392 743 1
(0.5532984117 0.2233507942 0.1210997405 0.1022510537) 391 759 2
(0.2006921568 0.2448585505 0.3996539216 0.1547953711) 424 823 2
(0.07329310793 0.3124497571 0.463353446 0.150903689) 431 833 1
(0.4115221084 0.2788809285 0.01535801732 0.2942389458) 403 782 1
(0.04958063575 0.4752096821 0.1539017999 0.3213078823) 471 893 1
(0.8145819471 0.09270902644 0.0592342984 0.03347472804) 472 911 2
(0.3279215421 0.3005130217 0.03552620724 0.3360392289) 434 841 1
(0.3343933656 0.2366083782 0.3328033172 0.09619493898) 392 762 2
(0.7090170863 0.05561419202 0.1454914569 0.08987726485) 413 799 1
(0.1009412612 0.04078518908 0.4087441803 0.4495293694) 472 895 2
(0.4007030165 0.006528364887 0.2996484918 0.2931201269) 445 860 1
(0.7618431802 0.1190784099 0.01940424514 0.09967416478) 491 950 1
(0.2513513229 0.3743243386 0.2654231161 0.1089012225) 422 818 2
(0.4083695389 0.285267165 0.2958152306 0.01054806558) 432 835 1
(0.09934385281 0.4503280736 0.2568013993 0.1935266743) 449 870 1
(0.5006401943 0.2496799029 0.1874219612 0.06225794165) 503 972 2
(0.1691905465 0.2461955627 0.4154047268 0.1692091641) 444 861 2
(0.3962858791 0.3018570604 0.04784316295 0.2540138975) 423 820 2
(0.05215671915 0.4739216404 0.2099214999 0.2640001405) 471 893 1
(0.1983415205 0.4008292398 0.0726813194 0.3281479204) 490 947 2
(0.943509716 0.01125583398 0.01698930799 0.02824514198) 464 880 2
(0.5322401624 0.2338799188 0.1070111976 0.1268687212) 492 951 2
(0.4430127116 0.2372810649 0.2784936442 0.04121257924) 482 933 2
(0.4280289445 0.2859855278 0.2274601008 0.05852542699) 455 2223 2
(0.3402776289 0.02946463573 0.3298611856 0.3003965498) 475 917 1
(0.03497403336 0.05536598648 0.4825129833 0.4271469968) 492 952 2
(0.6831446323 0.06199581501 0.09643186884 0.1584276838) 471 911 1
(0.3017065176 0.3491467412 0.1031971206 0.2459496206) 495 955 2
(0.6884516577 0.02271774973 0.1557741711 0.1330564214) 528 1017 1
(0.3073095017 0.3463452492 0.3290887912 0.01725645793) 524 994 1
(0.647804057 0.1760979715 0.1468653247 0.02923264681) 540 1024 1
(0.004733027308 0.1435318724 0.4976334863 0.3541016139) 514 991 1
(0.4856242709 0.2571878646 0.134854445 0.1223334196) 484 934 2
(0.6752777706 0.02441425183 0.1379468629 0.1623611147) 521 1006 1
(0.1303626812 0.2896256714 0.145192988 0.4348186594) 453 877 1
(0.6456329586 0.1771835207 0.1402743724 0.03690914833) 478 925 1
(0.4881790458 0.2559104771 0.06989752354 0.1860129536) 539 1036 2
(0.5590015881 0.08210863516 0.220499206 0.1383905708) 535 1031 1
(0.5028586277 0.2485706861 0.248500146 7.054011438e-05) 503 970 2
(0.1707358977 0.4146320511 0.0657559047 0.3488761464) 402 780 2
(0.5675066318 0.09668170221 0.2162466841 0.1195649819) 395 765 1
(0.2675091283 0.3662454359 0.1636911641 0.2025542718) 412 797 2
(0.9082245065 0.04588774677 0.04174821669 0.004139530075) 419 813 1