/*--------------------------------*- C++ -*----------------------------------*\
| =========                 |                                                 |
| \\      /  F ield         | OpenFOAM: The Open Source CFD Toolbox           |
|  \\    /   O peration     | Version:  2406                                  |
|   \\  /    A nd           | Website:  www.openfoam.com                      |
|    \\/     M anipulation  |                                                 |
\*---------------------------------------------------------------------------*/
FoamFile
{
    version     2.0;
    format      ascii;
    arch        "LSB;label=32;scalar=64";
    class       scalarField;
    location    "0.005/lagrangian/dsmc";
    object      Ei;
}
// * * * * * * * * * * * * * * * * * * * * * * * * * * * * * * * * * * * * * //


5149
(
4.066028231e-21
1.193061719e-20
5.772319467e-21
1.639087099e-20
1.176868564e-20
2.485578023e-21
8.62932272e-22
2.42615144e-21
1.298268527e-20
7.149779852e-21
1.810656886e-21
3.331386037e-21
1.837979111e-22
3.25783124e-21
3.984640108e-21
1.030868158e-20
1.393107333e-21
3.802266347e-21
3.184203587e-22
1.039082889e-20
6.428335623e-21
3.603681034e-21
2.818508137e-23
6.653107969e-21
4.966125093e-21
4.399208193e-21
4.096418712e-21
1.136570885e-20
2.357252033e-21
5.948971538e-21
2.95151531e-21
4.408211218e-21
4.770151792e-21
5.597988317e-21
2.217620326e-22
4.81270043e-21
2.228028095e-21
3.792490113e-21
5.952638884e-21
1.460201453e-22
2.113139139e-21
1.336930641e-21
6.8378807e-21
7.627876526e-23
2.653265069e-21
1.442469237e-21
3.325347073e-21
7.212786882e-23
5.381667685e-21
4.126704269e-21
5.997041463e-21
1.73196492e-21
8.646658812e-21
5.768886226e-22
1.660339161e-21
4.11045595e-21
1.812959692e-21
2.616037999e-22
2.285703526e-21
7.772623084e-22
1.043848747e-21
3.798475885e-21
3.700591859e-21
6.757461393e-21
1.193693251e-22
3.207136552e-21
5.195188906e-21
6.099901423e-22
1.929772994e-21
7.257687193e-21
1.376530789e-21
2.228426342e-21
5.028004605e-22
2.397158694e-21
9.34587478e-21
1.923007597e-20
1.547629066e-20
5.208695629e-21
1.332543023e-21
7.651061732e-21
7.550589544e-21
4.290906237e-21
1.956907113e-20
1.70593657e-21
7.174645539e-21
3.402542157e-21
4.150587528e-21
6.606064785e-21
1.650357947e-21
1.588486488e-20
1.933479183e-21
8.207114845e-23
9.590946416e-22
1.519646131e-21
3.412722949e-21
4.644732751e-22
4.702189336e-21
9.350758875e-22
2.591472062e-21
7.959236281e-21
2.16235055e-21
2.005972251e-21
2.758783677e-21
1.471647821e-21
4.366274287e-21
2.507746032e-21
3.493777781e-21
1.031337205e-21
1.577284568e-21
1.287831232e-20
1.025711018e-20
5.232552525e-21
1.684162293e-21
3.846570256e-21
2.275849048e-21
4.871309936e-21
6.49411336e-21
4.466575749e-21
3.805022576e-22
4.166881207e-21
5.226827184e-21
1.329859009e-21
1.088790373e-20
4.34557026e-21
3.241304293e-22
8.114421369e-22
6.173104616e-21
1.001453469e-21
9.02919618e-22
2.184690416e-21
3.513521039e-21
1.032290682e-20
1.719072197e-21
3.292481678e-21
2.927719732e-21
1.55436128e-21
1.766845104e-21
1.113598191e-21
1.347673226e-21
6.664350547e-21
1.859286509e-20
2.040509928e-21
5.443368575e-23
3.060678324e-22
6.19305841e-21
9.793252208e-21
5.905050494e-22
1.967570221e-21
4.84329571e-21
2.171706819e-21
2.48259104e-21
1.282821505e-20
7.150118356e-21
4.141313896e-21
3.160475156e-21
2.981575856e-21
4.073327644e-21
4.676750581e-21
2.619391107e-20
2.049535658e-21
6.728855004e-21
1.511712862e-21
1.097889628e-21
2.409112165e-21
9.305240014e-22
2.152660421e-21
3.206106556e-21
7.56844328e-21
8.413971624e-22
1.907632812e-21
1.142626671e-20
8.389212037e-21
1.031070283e-20
2.401569194e-21
3.557203313e-21
7.841960849e-22
6.316110968e-21
1.465798977e-21
1.693181544e-21
5.129588341e-21
1.994854671e-21
5.878933097e-21
1.091980814e-21
1.654232172e-21
2.254348119e-21
5.720262635e-22
3.315032725e-21
2.398867422e-23
4.003829788e-23
2.742150421e-21
1.954094779e-21
2.649245108e-21
8.892344947e-21
6.914746567e-22
1.12508846e-20
3.36538097e-21
2.862478205e-21
1.099635931e-20
1.700063589e-21
1.491625399e-21
3.985617052e-23
1.746973765e-22
3.408638128e-21
2.553427527e-22
9.520100323e-21
1.564539788e-21
1.512013444e-22
3.983776056e-21
5.820830572e-21
4.246076952e-21
3.955373609e-21
5.391933154e-22
7.285688208e-21
5.872705884e-21
5.425934596e-24
1.524433137e-21
1.29747216e-23
9.38467503e-21
5.476446373e-22
6.785877522e-21
3.132103985e-21
8.961483608e-22
5.782687384e-22
3.720307451e-21
6.161772886e-21
2.298897439e-20
1.389715109e-22
1.420134046e-22
1.354988477e-20
9.08173979e-22
2.232021238e-22
4.795027081e-21
9.56583198e-21
2.405918486e-21
5.708167041e-21
1.253316288e-21
1.07724922e-21
3.60892869e-21
1.050633239e-20
6.391912587e-21
1.250613624e-20
4.593759499e-21
1.893328797e-21
9.026487141e-21
5.814446174e-22
4.582352022e-21
4.028139097e-21
4.150048532e-22
3.397583534e-21
2.524577478e-21
5.482213718e-24
4.402187366e-21
1.641335181e-20
1.700022491e-20
1.147214623e-21
3.062265486e-21
2.175106006e-21
4.862793756e-21
1.775937175e-21
6.221784723e-22
3.108463008e-21
8.46243805e-22
1.190407516e-21
1.100856762e-21
3.898126895e-22
8.832223965e-22
3.240921004e-21
5.864460283e-21
6.04276119e-21
8.74921977e-22
7.280598236e-21
4.226403191e-21
8.565555365e-22
4.163802233e-22
2.034735503e-21
2.180011668e-21
2.666605842e-21
5.345612214e-21
2.810199986e-21
2.428437986e-21
2.466667534e-22
2.893434563e-21
5.449685611e-21
6.394577971e-21
4.079030447e-21
4.661248037e-21
8.423026795e-22
2.984544194e-21
7.165532635e-21
7.180767214e-21
8.797040223e-21
2.134199653e-21
7.464826507e-21
3.752811027e-21
6.228006905e-21
6.771007475e-21
1.88915081e-21
4.018388809e-21
3.349168206e-22
3.753172251e-21
2.177235784e-20
7.564086487e-21
6.261084777e-21
5.427617861e-22
2.100773033e-21
1.493999066e-21
1.152111638e-20
6.140467106e-22
5.304826437e-22
6.265177049e-22
2.528298634e-21
3.292866072e-21
9.040504033e-22
2.692374938e-21
1.450859232e-21
5.36515049e-21
2.798358969e-21
1.180964722e-20
3.181672046e-21
2.625348524e-21
8.400701071e-21
4.138279619e-21
1.409705148e-21
2.920560235e-22
5.008210501e-21
2.589873617e-21
3.715382519e-21
2.012362138e-21
3.614382528e-21
5.544590919e-21
6.024644856e-21
3.792400424e-21
5.757113183e-22
1.72469719e-21
7.884392487e-21
1.452819113e-21
4.642491264e-21
1.200268552e-20
3.636928292e-21
1.622605149e-21
7.088671428e-22
2.664847685e-21
6.155602455e-22
9.195409296e-21
1.138890157e-20
4.387635054e-21
7.631861408e-21
2.619101733e-21
2.690624942e-21
1.67874045e-21
1.421733199e-23
1.743376474e-21
8.728080129e-21
1.477193693e-20
6.628580105e-21
1.162924727e-21
4.931632763e-21
4.279235668e-21
4.905393797e-21
2.778636539e-21
7.42259371e-21
6.384814239e-21
2.130222649e-21
4.308974546e-21
9.704606074e-22
8.34880699e-21
9.554135665e-22
1.674415076e-21
1.604514227e-21
2.607012122e-22
4.111680087e-21
2.977856933e-22
2.852917545e-21
1.586142632e-21
3.569501673e-21
2.835829134e-21
3.479731306e-21
9.273197117e-21
3.791800649e-21
1.814461536e-20
1.242406535e-21
1.188481739e-21
2.80435563e-23
1.066764736e-20
2.051510784e-21
3.321983031e-21
8.448432366e-22
1.69418684e-21
7.112362049e-21
1.376320794e-21
4.553917237e-21
1.207457807e-21
4.245557889e-21
4.93542673e-21
3.346732273e-21
8.454518718e-21
2.892723345e-21
2.559053723e-21
1.162215449e-21
1.592293271e-21
6.181872321e-22
2.480010239e-21
6.819603241e-24
3.1612162e-22
2.810385781e-22
2.143413299e-21
2.722623518e-21
1.345725877e-21
5.811151866e-22
4.788632777e-21
1.170119176e-21
7.775877584e-22
6.026540508e-21
5.431023424e-21
5.752324319e-22
5.239486498e-22
1.396549241e-21
5.0000655e-21
2.187857889e-21
2.38598816e-21
6.842735736e-21
3.916266094e-22
9.815614498e-23
3.151470007e-21
1.562738064e-21
5.291200884e-21
8.021884014e-21
1.850287222e-20
9.278778356e-22
6.530591241e-22
7.356900397e-21
2.625221642e-21
9.21360183e-21
8.512611218e-22
5.369200406e-21
6.879682278e-22
2.050619356e-21
2.313752999e-21
6.603211473e-22
5.342354672e-22
6.808335043e-21
2.128677534e-21
1.538997701e-22
7.595569199e-21
4.208271915e-22
4.242627527e-21
1.510088938e-21
5.39854456e-22
1.145710021e-20
3.540050014e-21
6.016275854e-21
1.419814124e-20
1.961541583e-21
1.353641168e-21
3.217216352e-21
4.425656701e-21
7.714634759e-22
5.553880033e-21
1.010482083e-20
6.580300876e-22
1.21225707e-21
2.812329807e-21
3.176295939e-21
2.10930754e-21
1.0568416e-20
2.808034071e-21
4.902295742e-21
7.781946076e-21
3.803648381e-23
1.936968303e-21
3.44098228e-21
5.487571598e-21
6.828756552e-22
3.958519664e-21
2.238042869e-21
2.990869694e-21
6.088509226e-21
2.062299182e-22
5.352757121e-21
8.798213901e-21
5.243391905e-22
8.769083291e-21
1.540189708e-21
8.182121625e-21
7.639859075e-22
7.580729638e-21
1.273145404e-21
5.037103575e-21
3.686864036e-21
6.986401867e-21
2.372400691e-21
8.939288624e-21
1.442513901e-21
8.61959347e-22
8.651381146e-21
1.248065919e-21
6.066376535e-21
1.127565193e-21
8.732318564e-22
2.005869116e-21
1.60775473e-20
3.348142441e-21
1.661347499e-21
1.162616752e-20
2.369543023e-21
1.520978298e-22
7.552387122e-22
1.307511214e-20
1.101525705e-20
6.364983981e-22
3.011188186e-21
1.768699172e-21
2.939834902e-21
2.353379384e-21
7.456018303e-23
6.728844451e-21
1.176917034e-21
6.101921536e-21
6.095347307e-21
3.48488987e-21
1.006822729e-20
4.704871916e-21
8.735567657e-21
3.357839253e-22
7.113924254e-22
1.9672263e-21
2.740237663e-21
1.434340562e-20
3.820562149e-21
8.317394236e-21
4.055870118e-21
7.788564675e-22
6.277339411e-21
1.363788573e-21
1.579417207e-21
5.016267338e-21
2.990117411e-21
8.962072653e-22
6.642794006e-21
2.913966989e-21
9.998279989e-21
6.707355907e-21
8.767012338e-22
2.824795373e-21
7.473101228e-21
1.269959393e-21
1.473230224e-21
5.726905457e-22
2.687218531e-21
8.540613411e-22
6.813433395e-22
1.243368323e-20
1.867209576e-21
2.051557202e-22
6.745516181e-22
7.414142345e-21
5.980828231e-21
1.268964389e-20
1.445864078e-21
4.168237357e-21
3.797309149e-21
4.222192572e-21
1.76199104e-21
1.2058837e-21
4.047642334e-21
1.67734606e-20
1.064424738e-21
1.144211793e-21
2.017609929e-21
3.733930099e-21
9.221138399e-21
4.034203638e-21
7.011607363e-22
3.116822298e-22
1.60184184e-21
2.843104367e-21
4.855648219e-22
6.174496533e-22
6.263080613e-22
1.260113388e-21
8.138334802e-21
2.075636632e-21
2.261309291e-22
7.501949626e-21
5.563816844e-21
1.189845677e-21
1.540021777e-20
2.706885619e-21
1.713570338e-21
2.289029822e-22
1.843525713e-21
2.076923551e-20
3.410265901e-21
3.526029964e-21
9.78885118e-21
1.623706386e-21
9.345156847e-23
1.28709257e-20
2.157010495e-21
1.164688547e-20
3.150938765e-21
6.257244929e-22
3.181823842e-22
2.101815719e-21
1.095502135e-20
1.734061388e-21
4.987018173e-21
3.474025822e-21
5.211663961e-21
2.792468534e-21
5.632062907e-22
6.484768804e-21
6.899921829e-21
7.022153621e-22
1.3961937e-21
8.521454591e-21
5.831219891e-23
4.217461711e-21
1.974798783e-21
8.435680643e-22
7.032982357e-22
3.64466961e-22
3.018816758e-22
3.817631129e-21
1.189975487e-21
3.853643454e-22
2.555302421e-21
9.661466638e-21
2.637486078e-21
1.970248106e-21
5.054281859e-21
2.66989997e-21
3.853877854e-21
6.210317908e-21
1.009489317e-20
1.789284636e-21
1.408016136e-20
3.459575648e-21
2.058769496e-21
2.24795468e-21
5.412144039e-21
1.460453309e-21
1.649530456e-21
1.111143879e-20
1.672029763e-21
4.171429125e-22
1.894719736e-20
3.705973415e-21
1.488733103e-21
5.303387221e-21
2.355975617e-21
3.64735578e-21
2.530862693e-22
3.374865005e-21
1.59253212e-21
2.543265999e-21
2.43942358e-22
1.932758935e-22
1.705052226e-21
1.104048045e-20
1.275937568e-20
1.366545856e-21
7.827086085e-21
5.073558364e-21
4.698649261e-21
2.031651151e-22
4.820549417e-21
1.195166751e-21
3.675637446e-21
2.799000975e-21
1.030385528e-20
1.029938131e-20
6.855169555e-22
1.202713215e-20
3.304777648e-21
6.049015117e-21
5.466069343e-21
8.112181988e-21
6.039737953e-22
8.949717075e-21
1.180481615e-21
1.084798635e-20
1.103634528e-21
1.138225871e-20
2.640450133e-21
7.011071385e-21
6.892041796e-21
1.710157139e-21
1.240807027e-21
1.84450988e-21
6.169790472e-21
6.608506918e-21
1.292895639e-20
1.492781396e-22
7.616641532e-21
1.7901295e-21
8.298894319e-21
6.92597639e-21
1.067481017e-20
3.169206337e-22
8.419764261e-21
9.945978592e-22
1.224856738e-20
6.784434359e-21
2.183344645e-21
1.2146875e-21
7.743524224e-21
2.0861814e-21
5.2812242e-21
1.210534647e-22
2.520365958e-20
1.013246455e-20
2.352866178e-22
1.704531899e-21
1.954114128e-21
1.252440278e-20
1.840264649e-21
1.476934246e-20
4.019482467e-21
7.855203792e-21
3.414031499e-21
4.883739554e-22
1.414275459e-21
2.647754335e-22
6.258895377e-22
3.461523506e-21
1.5414024e-21
6.792620768e-22
2.30280633e-21
4.465967672e-21
2.641293055e-21
9.084029514e-21
6.470027822e-21
3.542430912e-21
4.036060191e-21
1.765211204e-23
1.347260284e-21
5.795342286e-21
5.467435276e-21
7.271103068e-21
4.094030725e-22
1.69751951e-21
6.075807809e-21
1.750577549e-21
5.653595072e-22
1.299129174e-21
1.780018006e-21
8.2408042e-21
2.18231122e-21
5.864002982e-22
1.76038902e-21
4.116258721e-22
6.945854154e-22
3.206717587e-21
3.411420089e-22
4.464556726e-21
4.985946304e-21
4.65228134e-22
5.071701534e-21
1.05930659e-20
9.896579845e-22
3.677031963e-21
5.196715347e-21
3.136521993e-21
5.296257249e-21
2.380966991e-21
8.968018548e-22
2.290799271e-21
7.21631739e-21
2.930008593e-23
2.535758534e-21
1.462196106e-20
4.962182657e-21
2.336087869e-21
4.329138076e-21
2.492290129e-22
2.570638921e-21
1.13742687e-21
5.015868024e-21
1.404540357e-21
1.200537831e-21
6.587371787e-21
6.940285507e-21
4.155450913e-22
9.288043717e-22
1.51967473e-21
3.687531041e-21
6.728492642e-21
2.524471134e-20
3.22710991e-21
9.978031381e-23
6.967227961e-22
2.706634581e-22
3.658881945e-21
8.563670662e-21
1.929433713e-21
1.187235594e-21
1.261940023e-21
1.597761209e-21
4.596727545e-21
8.63523768e-22
3.878841434e-21
9.200931658e-21
1.481566447e-21
1.097092107e-21
1.171723467e-20
1.610946444e-21
4.780081874e-21
9.127171186e-22
2.250148047e-21
9.89092496e-21
1.56133642e-21
4.044640908e-21
4.582785448e-21
3.298701366e-21
1.395687624e-20
1.908909274e-21
8.456741909e-21
2.14935576e-21
2.688585462e-21
1.817526307e-21
1.522884412e-21
3.302413449e-22
2.143309438e-22
8.259796641e-21
4.792612918e-21
8.471799093e-22
1.925807803e-21
2.433380321e-21
1.564435129e-21
5.328895839e-21
2.669753707e-21
1.894131097e-21
6.250625422e-21
2.185860178e-22
8.184518741e-22
3.838456576e-22
2.576953779e-21
6.459544649e-22
3.394584531e-22
5.252994996e-21
3.502711681e-21
2.579228881e-21
6.011534398e-21
1.832864599e-21
9.351252865e-21
3.148767463e-21
1.344043602e-21
2.074154873e-21
4.625607087e-21
1.57963825e-21
3.82356792e-21
5.977642917e-21
4.640415735e-21
3.743861033e-21
3.71863517e-22
1.323384735e-22
6.160009213e-24
3.143069626e-21
9.499608913e-21
8.873196146e-22
4.511253416e-21
7.831678309e-21
3.047718831e-21
3.021992491e-21
1.515348475e-24
3.194849264e-21
7.577972918e-22
7.294463549e-21
3.76636004e-21
2.553407356e-22
9.369664842e-22
2.063029621e-21
8.281550121e-21
4.943462396e-22
1.895680243e-21
1.190823983e-21
3.629479428e-21
4.240933079e-21
4.519997198e-21
1.548241191e-21
2.803228166e-21
1.460149297e-21
3.222486301e-21
3.076869144e-20
5.136804137e-21
1.745077006e-21
3.285519705e-21
2.164937785e-21
4.681815042e-22
5.14509167e-21
2.946456938e-21
1.402254649e-20
1.774800812e-21
2.790504672e-21
2.185828199e-21
2.938946875e-21
3.449831784e-21
3.18663474e-21
2.25502648e-21
8.177524197e-22
1.841892065e-21
8.098111062e-21
2.241316158e-21
8.0104621e-22
3.551668535e-21
3.744814241e-22
1.605498509e-21
8.158859692e-21
1.301384354e-21
4.024566472e-21
5.899229579e-22
4.536192053e-22
4.238564801e-21
9.098862048e-22
3.776332333e-21
3.473590255e-22
5.239132672e-21
4.806039652e-21
4.567829685e-21
3.697401763e-21
3.899259384e-21
6.723920462e-22
1.784012604e-21
2.053859617e-21
1.276022542e-21
1.084180023e-21
7.834028106e-21
2.318501459e-21
2.172708938e-21
1.067951905e-20
2.546579342e-21
1.631691743e-21
2.822201451e-21
4.932401038e-24
8.756629727e-22
2.396155614e-22
1.926512699e-21
3.673411938e-21
2.559499869e-21
6.012724507e-21
1.178593366e-20
4.765221674e-21
1.690255353e-21
7.495449478e-21
3.079752501e-21
1.618771874e-20
9.00204477e-21
1.596005641e-23
1.304566443e-21
1.94537754e-21
2.132550341e-21
3.526654874e-21
7.149796039e-24
1.981918973e-21
3.291455603e-21
8.54961075e-21
2.583407174e-21
6.006094495e-21
2.998293225e-20
5.343775964e-21
1.284631643e-22
6.643963828e-21
1.554442917e-20
3.768707806e-21
1.585610713e-21
1.48045957e-21
3.234830755e-21
9.505355574e-22
7.630295055e-21
1.052454319e-20
5.814870819e-22
4.640663545e-21
9.746245523e-22
1.158757851e-21
2.168427702e-21
3.361791979e-21
1.2872876e-20
5.68712422e-23
4.108919178e-21
1.490799798e-21
3.60691319e-21
8.90410494e-21
1.076965996e-20
5.520084261e-21
6.095380911e-21
2.779659573e-21
8.080630029e-21
4.533904546e-22
3.431919229e-21
8.301399505e-21
7.006469896e-22
5.453858463e-21
9.333229857e-21
2.023290352e-21
1.52023917e-21
4.541078879e-21
1.768854192e-22
6.002122626e-21
2.03575032e-21
8.51784625e-22
1.865796118e-21
2.021094619e-21
1.778214863e-21
3.263057583e-21
1.387798137e-21
9.091412354e-21
2.161001639e-21
3.258415516e-21
1.293060094e-20
2.912231235e-21
5.177358752e-21
7.003931024e-21
6.493797473e-22
1.294766037e-21
8.393111547e-21
1.126902759e-21
4.97466651e-21
1.925348116e-22
8.324977648e-21
1.298271479e-20
4.683945292e-22
2.818885989e-21
2.055941542e-21
8.994312349e-22
3.278826531e-21
1.283654189e-21
6.237168852e-22
1.404101415e-21
3.17641844e-21
3.497122854e-21
3.244620527e-21
7.899674305e-22
4.874670134e-21
3.210362897e-21
3.559798011e-21
4.786656885e-22
5.557587224e-21
1.779632506e-20
5.736187219e-22
4.825369132e-21
6.617372731e-21
3.548333339e-21
6.774310797e-22
1.546522979e-21
4.848841772e-21
2.147660621e-21
6.189977972e-22
6.683046607e-21
1.014778442e-20
9.709946593e-21
3.637525254e-21
4.775745569e-21
4.197950258e-21
3.738913815e-22
5.659495938e-21
1.308704809e-21
2.754811379e-21
2.140534083e-21
3.803906433e-21
7.187617239e-22
2.513749644e-21
5.572659395e-21
9.034087231e-21
2.303866579e-21
1.855903315e-21
5.557312624e-21
1.751115702e-22
1.452493961e-21
3.23136989e-22
1.393561833e-20
1.640929277e-21
5.556478504e-22
1.746251504e-21
4.397949574e-21
7.599876828e-21
6.943104416e-21
1.858491509e-21
1.735235955e-21
2.972220864e-21
2.410456631e-22
1.370122898e-20
2.431228161e-21
1.000256985e-20
2.684567363e-21
3.514939168e-21
9.272050507e-21
9.293634633e-22
4.773579921e-21
4.062075014e-21
3.169208139e-21
9.768334408e-22
1.101190606e-21
3.689730898e-21
1.587686922e-21
1.664799687e-21
5.282112007e-22
1.230777777e-21
2.958619463e-21
9.654095301e-22
6.604183266e-22
2.380598764e-21
7.431069465e-22
1.046879062e-20
5.131036452e-21
5.429452387e-21
1.83690758e-21
1.957542309e-23
2.856863842e-21
5.361727012e-21
4.911331279e-21
1.191839179e-21
7.783747679e-21
1.451039719e-20
5.249637531e-21
2.24472724e-21
8.00987008e-21
6.169613363e-21
7.078670455e-24
6.641339024e-22
5.225884172e-21
2.260832499e-22
1.214247128e-20
3.591096571e-21
2.77077519e-21
2.412775582e-22
7.953046146e-21
1.98399037e-21
6.516096885e-21
7.561975221e-21
6.058568944e-22
1.80416307e-22
1.072544202e-21
5.619031833e-22
4.709448487e-22
4.542389083e-22
1.069324288e-21
7.997168508e-22
7.331735844e-22
4.460217188e-21
3.659291063e-22
3.607846497e-21
2.667494555e-21
1.198271762e-20
4.205275798e-21
1.199413214e-23
6.008999054e-21
6.476885133e-22
4.015884749e-21
9.997321329e-22
4.14257433e-22
4.485744742e-21
2.490847461e-21
1.158723275e-20
1.639300471e-20
6.251216866e-21
1.313204062e-21
6.669458907e-21
2.326734168e-21
5.643911913e-21
2.872610009e-22
1.366082381e-21
9.653825745e-22
1.701846341e-21
2.67467543e-21
2.406688882e-22
1.628681268e-21
5.71479816e-21
9.245232969e-22
3.127762747e-21
1.767692703e-20
6.549074343e-22
1.926187155e-22
2.702330285e-21
1.39217128e-21
3.122310767e-21
1.010056336e-20
5.389748401e-21
1.137566119e-20
3.602594486e-21
4.701124756e-22
1.360282962e-21
1.561444434e-22
9.052701502e-22
6.999836038e-22
2.262246678e-21
2.006095466e-22
2.591986494e-21
1.051693033e-21
1.891016491e-21
1.227634014e-21
7.826240867e-21
2.56066061e-22
5.953159254e-22
5.105327063e-21
2.302429588e-21
3.555647813e-21
1.949291083e-21
1.677097777e-21
2.443115434e-22
7.99779486e-21
6.187064039e-21
7.485757439e-22
8.00742849e-22
2.191850111e-21
9.673977642e-22
5.048269734e-23
7.966950972e-21
8.73639037e-21
1.529377038e-21
1.270929538e-21
8.248238856e-21
4.101816273e-21
6.417017986e-21
1.919248717e-21
7.153290578e-22
8.637734099e-21
1.073039219e-20
6.561435417e-22
7.366585705e-21
8.594876938e-23
4.892087696e-21
5.437160971e-21
6.31767401e-22
4.314531843e-21
6.289439542e-21
1.880008978e-20
6.414699126e-21
7.734052035e-21
1.332168886e-21
3.984368965e-21
3.986093271e-21
8.84372697e-21
9.407452237e-22
1.497883796e-21
1.889005309e-21
3.092437035e-21
1.05879983e-21
1.893192082e-21
1.639508689e-21
3.217702735e-21
7.146614139e-22
5.781125299e-21
3.280598325e-22
3.919738492e-21
2.73170977e-21
5.282175714e-21
6.693136523e-22
4.556719034e-21
1.609090369e-20
1.450878824e-21
3.773443844e-21
1.302993303e-21
2.299536618e-21
5.271845757e-21
1.728784694e-21
8.17637241e-21
3.585633624e-22
5.249995362e-21
9.967910663e-22
2.462933268e-21
3.192538127e-21
1.824733106e-20
6.469563021e-23
6.176569305e-21
2.374701063e-21
3.001716111e-22
3.711526161e-21
1.318753676e-22
1.540678625e-22
1.821719563e-21
4.241237306e-21
1.308923854e-21
7.898952761e-21
3.569112691e-21
3.614782004e-21
2.951712734e-21
3.775105387e-21
8.790212588e-23
1.580174841e-20
1.459335236e-20
1.517140934e-21
5.639035849e-21
1.491901645e-21
2.294342105e-21
6.1361983e-21
2.166009285e-21
2.688628601e-21
4.581084761e-21
1.306311395e-20
8.889998949e-22
3.66215626e-22
5.570338488e-21
1.816206172e-21
6.367778995e-21
1.051886354e-21
2.658462096e-21
3.678848148e-23
2.634547004e-21
1.190539765e-21
6.253291327e-21
1.922277046e-21
1.381314424e-21
1.246696896e-21
4.385686158e-21
5.693953951e-22
9.341506008e-22
1.016317209e-21
1.578322201e-21
1.295612803e-21
1.251411373e-21
1.764951145e-20
1.829739945e-21
1.338765318e-21
1.65106968e-21
2.597164942e-21
5.651849179e-21
3.136617397e-21
2.133551308e-20
1.079895162e-21
1.208974357e-21
6.194170784e-21
2.490429885e-21
3.658510645e-21
9.917013465e-21
4.596067835e-23
3.61414593e-21
5.967354935e-22
9.516525855e-21
5.855414645e-21
1.027945456e-21
9.663204665e-21
6.660319513e-23
4.385845247e-21
2.7088912e-22
5.524116122e-22
4.830823289e-21
3.551291017e-23
1.097814162e-20
1.29645167e-21
4.07446946e-21
4.87142958e-22
1.213920606e-21
1.821405756e-21
3.017778342e-21
1.536624904e-21
1.712189188e-20
1.379011982e-20
8.034988172e-21
4.352306186e-21
9.307534553e-22
1.217962369e-20
1.65721254e-20
6.890210161e-21
4.051351595e-22
1.992719852e-21
2.911336415e-21
2.312411421e-21
7.38720056e-22
1.032360181e-21
1.564597605e-21
2.78616842e-21
6.853951109e-22
1.206713261e-21
4.342800271e-21
2.170347054e-23
3.943001315e-22
6.167077867e-21
1.670464735e-21
3.637815623e-21
1.660947273e-21
9.414825403e-21
9.512439957e-22
2.724873986e-21
1.302092163e-20
2.57348055e-21
3.881731181e-21
6.401113521e-21
7.283657659e-21
1.469860974e-21
1.524518036e-21
6.600970194e-21
5.607494878e-21
8.142240125e-21
2.148449966e-21
3.77352346e-21
3.550637308e-21
3.235285044e-22
1.136877144e-20
1.79572658e-20
4.170383536e-21
8.237564293e-22
2.535351892e-21
9.21970695e-21
1.117371232e-20
1.300815591e-21
1.529722508e-21
5.32703254e-22
6.394702064e-21
1.266048644e-21
1.28096711e-22
1.017666844e-21
2.477667795e-21
3.22972229e-21
4.117528059e-21
1.020050769e-20
1.28386534e-20
1.548165688e-20
8.591237419e-22
6.351472484e-21
2.638541526e-21
2.850828162e-21
3.513298237e-21
2.443998292e-20
1.622854618e-21
1.74127438e-21
2.493261512e-21
5.725752481e-21
7.150732945e-21
2.196811224e-21
1.044759366e-20
4.18897338e-21
5.071417642e-21
1.260471973e-21
2.293889957e-21
1.907032835e-22
1.044632743e-21
9.847000782e-21
5.335261546e-22
3.405130873e-21
3.886090984e-22
1.352459075e-21
4.259935194e-22
1.868533331e-22
7.205247773e-21
5.239079218e-21
1.670285825e-22
1.466829241e-21
1.047642155e-21
1.230738615e-20
2.976452797e-21
1.960020441e-21
1.309427485e-21
4.099551399e-22
3.251388941e-22
1.943872445e-20
3.514092153e-21
4.643976191e-21
1.507505592e-21
2.937563776e-21
5.382867371e-22
3.01347643e-21
2.655129756e-21
4.020485893e-21
8.246982943e-21
5.239331878e-21
1.119733951e-21
6.531082137e-22
3.210715257e-22
9.797826033e-21
5.268474293e-21
5.350746045e-21
4.31709559e-21
1.628013395e-21
4.465739942e-21
6.898062444e-22
1.75986724e-21
5.648030031e-21
5.446177716e-21
1.11811542e-21
6.214525784e-21
1.332442583e-23
1.054138501e-20
1.865614831e-21
1.413350815e-21
3.02405266e-21
2.408352065e-21
2.403732723e-22
3.368862128e-21
3.580379042e-22
3.946284884e-21
4.326316543e-21
5.444006698e-21
3.744169477e-21
1.853495918e-21
8.358729964e-21
4.231708147e-21
1.198682413e-21
4.569380815e-21
7.061594763e-24
1.640146839e-20
4.401132097e-21
2.128317185e-20
5.58488395e-21
1.722899777e-21
4.358205381e-21
1.826309789e-21
1.281024823e-21
4.648845485e-21
2.550590151e-22
8.337967775e-22
1.533474182e-21
1.156506075e-20
9.898956734e-21
3.484682609e-21
2.254417032e-21
1.428645918e-21
8.605869777e-22
4.014080069e-21
3.910698984e-21
6.218589816e-21
2.391972055e-21
2.154656178e-21
7.760402294e-21
3.065923969e-21
2.401025454e-21
6.620389052e-21
2.285722956e-21
7.6394078e-21
4.245743272e-21
3.188837244e-21
4.23459925e-22
5.949131964e-22
1.163324505e-21
1.276607318e-21
1.836397126e-20
8.51019315e-22
1.754782209e-21
3.413249716e-21
1.108490419e-21
3.18664284e-22
1.527005442e-20
3.034631703e-21
4.981140608e-22
6.042486301e-22
1.605495717e-21
8.9465777e-22
1.088361873e-20
7.904907273e-21
2.054743642e-21
2.396925139e-21
1.505301783e-21
1.021336465e-20
3.895480724e-21
5.142324761e-21
1.70483272e-21
1.892541088e-20
2.849748736e-22
4.887022471e-21
1.813783229e-21
1.21263662e-21
4.265495362e-21
1.369622554e-21
9.789105343e-22
1.264314834e-21
1.374702625e-20
1.361835504e-21
8.201344767e-21
5.216023335e-21
6.184460665e-21
1.805393342e-21
5.635418941e-21
8.645728485e-22
4.990588613e-22
4.38505127e-21
2.503970153e-21
3.724306054e-22
9.239100662e-22
4.801672321e-21
1.23140157e-21
2.404625636e-21
8.182546843e-23
9.690659593e-22
9.144303163e-21
6.703047105e-21
4.731186558e-22
3.807025265e-22
2.892117835e-21
2.166756189e-21
5.913920249e-21
3.271799075e-21
8.447515829e-23
1.689202694e-21
8.151068671e-21
1.516554232e-21
9.836799671e-22
4.867730568e-21
1.519997688e-21
2.363971263e-21
1.182969783e-21
1.673770103e-20
1.635139396e-20
2.310110775e-21
1.260792298e-21
7.51640234e-22
7.128992176e-21
2.56956371e-22
1.099699188e-20
4.86156977e-21
4.106886546e-22
2.238321039e-21
7.089819675e-21
6.662403004e-23
1.758603769e-21
3.311755968e-22
1.144923497e-21
1.329940044e-20
1.2154963e-20
6.334184512e-21
2.065518816e-21
8.101470711e-21
1.80551756e-21
1.037279825e-21
9.867729975e-21
3.789710312e-21
5.777179025e-21
3.981670038e-21
2.059627736e-21
1.185097484e-20
2.070273169e-21
1.827308138e-21
1.145253912e-21
1.895101122e-21
1.268875052e-20
4.432872329e-21
3.169402156e-21
2.316225099e-21
4.619575666e-21
1.141897279e-21
1.63526443e-21
4.310963108e-21
7.40831353e-21
4.751013076e-23
1.401402234e-21
4.933858858e-21
4.900819974e-21
4.140520729e-21
1.047361835e-21
9.590526658e-21
1.942819759e-21
2.331855779e-22
5.685755132e-21
9.744672082e-22
6.910490278e-21
2.747462319e-21
2.819809526e-21
2.860684312e-21
2.989574412e-21
2.397576199e-21
2.234235253e-21
1.6855316e-21
3.17605484e-21
1.353070039e-21
5.825444944e-21
3.93530821e-21
1.503535229e-21
1.9711951e-21
1.193606136e-21
2.519502614e-21
4.328258349e-21
1.686635893e-21
4.076613027e-21
3.598767178e-21
8.661430263e-21
5.426342387e-22
1.428023077e-20
1.358555757e-20
1.29262678e-20
3.873856527e-21
2.720324933e-22
2.062783978e-21
6.499693465e-21
2.530953346e-21
6.56591629e-21
5.640302527e-21
2.021927767e-21
1.864676053e-21
3.843377151e-22
6.094744316e-21
4.779945363e-21
3.311850723e-21
1.536355323e-20
4.089998574e-21
6.391600995e-21
2.957929966e-24
3.140765733e-21
1.717317663e-21
3.66107246e-22
8.742574699e-21
8.971316765e-21
5.84575677e-22
5.224160341e-22
1.369324443e-21
3.207223821e-21
6.254665154e-22
2.154868862e-21
2.330366116e-21
1.188052516e-20
1.95352477e-20
5.560838325e-21
6.911262633e-22
2.862287949e-20
4.125446658e-21
1.25103494e-20
2.189022625e-22
2.674864891e-23
6.007269445e-21
2.474804852e-22
3.610419204e-21
9.455708236e-22
5.015619427e-21
7.70535677e-22
4.417317124e-22
7.143490802e-22
1.683389284e-21
3.045117459e-21
4.296110138e-21
4.1079387e-21
1.55743247e-22
2.283070087e-21
8.453968028e-21
5.75895669e-21
3.099737712e-21
2.719689302e-21
1.265501025e-21
8.645406637e-21
4.195675229e-21
2.764650115e-21
7.725038045e-23
2.157198585e-21
6.368035889e-21
6.168023483e-22
1.401171144e-21
3.111762081e-21
1.076685655e-20
9.410322662e-23
2.133967434e-21
2.583923304e-21
3.737960752e-21
3.770775562e-22
1.649502816e-21
2.850535649e-21
4.752296572e-21
9.04704852e-21
3.720317693e-22
1.456677577e-21
1.631646117e-21
3.974334944e-21
2.3117182e-21
8.290802452e-22
4.66839342e-21
1.082804976e-20
1.50049021e-21
3.997111119e-21
8.279806491e-21
1.144066038e-21
4.640206825e-21
5.924035966e-21
1.040829274e-21
4.224037773e-21
2.408884923e-21
1.700072448e-21
1.673177615e-20
3.837079276e-21
2.970103708e-21
8.294190107e-21
9.418180981e-21
1.036902925e-21
3.971896779e-22
2.304786114e-21
1.297741752e-22
7.843749549e-22
2.164632018e-21
1.680935255e-21
2.217404263e-21
2.265916056e-22
3.525574255e-21
8.7774306e-22
3.753809698e-22
2.061857728e-21
5.035418336e-21
1.747020941e-20
7.169388918e-21
1.541310323e-21
9.931854254e-22
6.478031742e-22
1.818283834e-21
3.050752595e-22
1.489242225e-21
9.845931731e-21
1.849148088e-21
1.490699036e-21
2.364030283e-21
4.027925858e-22
5.794264484e-21
3.939540509e-21
8.744074391e-22
7.090620193e-21
4.438200431e-22
4.091562337e-21
1.135210135e-21
3.654207964e-21
1.460888857e-21
1.469656676e-21
9.878627715e-21
2.043739991e-21
6.074417654e-22
6.072223499e-21
4.702801485e-21
4.577552689e-23
1.210745928e-21
4.071687513e-21
3.542601943e-21
2.867803165e-21
3.157604447e-21
6.801469046e-21
5.911629092e-21
1.104573392e-20
1.213568464e-22
4.41081801e-22
2.121802777e-21
1.936190782e-21
8.506481722e-21
3.004746837e-21
5.25795491e-21
6.536017248e-22
2.354550352e-22
1.03815611e-20
2.149461318e-21
9.727991754e-21
7.089178026e-21
4.233040157e-21
2.874379787e-21
2.797523271e-22
1.085193885e-20
4.320527728e-21