/*--------------------------------*- C++ -*----------------------------------*\
| =========                 |                                                 |
| \\      /  F ield         | OpenFOAM: The Open Source CFD Toolbox           |
|  \\    /   O peration     | Version:  2406                                  |
|   \\  /    A nd           | Website:  www.openfoam.com                      |
|    \\/     M anipulation  |                                                 |
\*---------------------------------------------------------------------------*/
FoamFile
{
    version     2.0;
    format      ascii;
    arch        "LSB;label=32;scalar=64";
    class       labelField;
    location    "0.005/lagrangian/dsmc";
    object      origId;
}
// * * * * * * * * * * * * * * * * * * * * * * * * * * * * * * * * * * * * * //


5149
(
216598
216669
216718
216952
217200
217240
217251
217280
217453
217461
217506
217522
217532
217533
217543
217546
217563
217617
217624
217632
217704
217708
217717
217730
217763
217764
217774
217780
217786
217794
217798
217821
217852
217869
217881
217883
217887
217889
217905
217944
217946
217948
217958
217967
217981
217983
217990
217995
218043
218045
218059
218060
218062
218075
218081
218091
218101
254345
218120
218127
218128
218133
218146
218147
218151
218162
218164
218170
218174
218180
218211
218212
218214
218223
218224
218228
218235
218241
218245
218252
218253
218255
218257
218261
218264
218267
218288
218294
218298
218307
218317
218318
218321
218325
218328
218333
218336
218337
218381
218385
218388
218392
218396
218404
218409
218412
218414
218415
218419
218421
218431
218440
218444
218446
218448
218449
218453
218457
218459
218473
218475
218482
218484
218488
218494
218500
218510
218513
218515
218517
218526
218527
218529
254969
218543
218545
218549
218560
218562
218564
218565
218566
218568
218573
218575
218578
218579
218586
218587
218593
218602
218605
218608
218609
218611
218613
218614
218616
218647
218651
218655
218656
218657
218663
218668
218669
218672
218674
218675
218680
218682
218686
218687
218691
218692
218720
218724
218725
218726
218730
218731
218737
218743
218747
218753
218759
218762
218764
218765
218766
218767
218773
218775
218777
218789
218795
218798
218804
218809
218818
218821
218822
218823
218824
218827
218830
218833
218834
218836
218837
218841
218842
218843
218845
218847
218850
218851
218853
218855
218863
218866
218868
218869
218871
218872
254557
218879
218885
218886
218887
218890
218892
218894
218896
218898
218901
218902
218903
218907
218908
218910
218912
218914
218916
218918
218920
218921
218922
218924
218925
218927
218928
218930
218931
218934
218937
218938
218942
218944
218947
218949
218950
218951
218955
218958
218959
218963
218977
218979
218981
218984
218986
218990
218991
218993
218994
218997
218998
218999
219000
219001
219002
219003
219006
219009
219010
219012
219013
219015
219016
219017
219019
219022
219023
219026
219028
219030
219031
219032
219033
219035
219040
219042
219043
219044
219046
219059
219063
219070
219071
219072
219073
219075
219077
219079
219082
219085
219086
219088
219089
219092
219093
219094
219096
219097
219098
219099
219100
219101
219102
219103
219104
219105
219106
219107
219109
219112
219114
219116
219118
219119
219120
219122
219123
219124
219125
219129
219130
219132
219133
219135
219142
219145
217309
218467
219154
219157
219158
219161
219162
219163
219164
219170
219173
219174
219175
219177
219178
219179
219180
219181
219183
219186
219187
219188
219189
219190
219191
219193
219194
219195
219196
219197
219198
219200
219201
219204
219207
219208
219209
219210
219212
219215
219216
219217
219218
219219
219220
219222
219226
219228
219229
219231
219238
219247
219249
219251
219252
219255
219256
219257
219259
219262
219265
219267
219268
219269
219270
219271
219272
219273
219274
219275
219277
219278
219281
219283
219284
219287
219288
219289
219290
219291
219292
219293
219294
219295
219297
219298
219299
219300
219301
219305
219310
219311
255875
219326
219327
219328
219331
219334
219336
219338
219340
219341
219342
219343
219344
219347
219348
219349
219350
219351
219352
219353
219354
219355
219356
219357
219358
219359
219360
219361
219362
219363
219364
219365
219366
219368
219371
219372
219373
219374
219375
219376
219379
219380
219381
219382
219383
219385
219387
219388
219389
219390
219392
219394
219395
219396
219397
219398
219401
219402
219403
219404
219405
219407
219411
255879
219421
219422
219423
219426
219428
219430
219431
219432
219433
219434
219436
219437
219438
219439
219440
219442
219443
219444
219445
219446
219447
219448
219449
219450
219452
219453
219454
219455
219456
219457
219459
219460
219461
219462
219463
219464
219465
219468
219469
219470
219471
219472
219473
219475
219476
219477
219478
219479
219480
219481
219482
219483
219485
219486
219487
219488
219496
219514
219515
219516
219517
219522
219524
219525
219528
219530
219531
219532
219533
219534
219535
219536
219538
219540
219541
219542
219543
219544
219545
219546
219547
219548
219549
219551
219552
219553
219554
219556
219557
219558
219559
219560
219561
219562
219563
219564
219565
219566
219567
219568
219569
219570
219572
219573
219574
219577
219579
219580
219581
219584
219586
219587
219589
219598
219600
219604
219606
219608
219609
219611
219612
219613
219614
219616
219617
219618
219619
219620
219621
219622
219623
219624
219625
219626
219627
219628
219629
219630
219631
219632
219633
219634
219635
219636
219638
219639
219640
219641
219642
219643
219644
219645
219646
219647
219649
219651
219652
219653
219654
219655
219656
219657
219659
219660
219661
219662
219663
219664
219665
219666
219672
219673
219674
219678
255270
255982
219684
219685
219688
219689
219692
219694
219695
219696
219697
219698
219699
219700
219701
219702
219703
219704
219705
219706
219707
219708
219709
219711
219713
219714
219715
219716
219717
219718
219719
219720
219721
219722
219723
219724
219725
219726
219727
219728
219729
219730
219731
219732
219734
219735
219736
219737
219738
219739
219740
219741
219742
219743
219744
219745
219746
219747
219748
219749
219750
219751
219753
219755
219760
219765
219766
255677
255980
219779
219780
219782
219783
219784
219785
219787
219788
219789
219790
219791
219792
219793
219794
219795
219796
219797
219798
219799
219800
219801
219802
219803
219804
219805
219806
219807
219808
219809
219810
219811
219813
219814
219815
219816
219817
219818
219819
219820
219822
219823
219824
219825
219826
219827
219828
219829
219831
219832
219833
219834
219835
219836
219837
219838
219840
219841
219842
219843
219845
219846
219848
219849
219850
219852
219853
219854
219860
255265
255981
219870
219871
219874
219875
219876
219877
219878
219879
219880
219881
219882
219883
219884
219885
219886
219887
219888
219890
219891
219892
219893
219894
219895
219896
219897
219899
219900
219901
219902
219903
219904
219905
219906
219907
219908
219909
219910
219911
219914
219915
219916
219917
219918
219919
219920
219921
219922
219924
219925
219927
219928
219929
219930
219931
219934
219935
219936
219938
219939
219942
254558
256398
219945
219947
219949
219950
219952
219954
219955
219956
219958
219959
219960
219961
219962
219963
219964
219965
219966
219967
219968
219969
219970
219971
219972
219973
219974
219975
219976
219977
219978
219979
219980
219981
219982
219983
219984
219985
219986
219987
219988
219989
219990
219991
219992
219993
219994
219995
219996
219997
219998
219999
220000
220001
220002
220003
220004
220005
220006
220007
220008
220009
220010
220011
220012
220013
220014
220016
220018
220020
220021
220022
220023
220024
220025
220027
220028
254949
254958
255780
256093
220032
220033
220034
220038
220039
220040
220042
220043
220044
220045
220046
220047
220048
220050
220051
220052
220053
220054
220055
220056
220057
220058
220059
220060
220061
220062
220063
220064
220065
220066
220067
220068
220069
220070
220071
220072
220073
220074
220075
220076
220077
220078
220080
220081
220082
220083
220084
220086
220087
220088
220089
220090
220091
220092
220093
220095
220096
220097
220098
220100
220103
220104
220110
255670
255674
220123
220125
220126
220127
220128
220129
220130
220132
220133
220135
220136
220137
220138
220139
220141
220142
220143
220145
220146
220147
220148
220149
220150
220151
220152
220153
220154
220155
220156
220157
220158
220159
220160
220161
220162
220163
220164
220165
220166
220167
220168
220169
220170
220171
220173
220174
220176
220177
220178
220180
220182
220184
220185
220186
220187
220188
220189
220190
220191
254650
256704
220205
220207
220209
220211
220212
220213
220214
220215
220216
220217
220218
220219
220220
220221
220222
220223
220224
220225
220226
220227
220228
220229
220230
220231
220232
220233
220234
220235
220236
220238
220239
220240
220241
220242
220243
220244
220245
220246
220247
220248
220249
220250
220251
220252
220253
220254
220255
220256
220257
220258
220259
220260
220261
220262
220263
220264
220265
220266
220267
220268
220269
220270
220271
220272
220273
220275
220277
220278
220279
220283
220284
220285
220287
220288
255871
220294
220298
220299
220300
220302
220304
220305
220306
220307
220308
220309
220310
220311
220312
220313
220314
220315
220316
220317
220318
220319
220320
220321
220322
220323
220324
220325
220326
220327
220328
220329
220330
220331
220332
220333
220334
220335
220336
220337
220338
220339
220340
220341
220342
220343
220344
220345
220346
220348
220349
220350
220352
220353
220354
220356
220357
220358
220359
220360
220361
220363
220364
220365
220367
255051
256500
220375
220378
220379
220380
220381
220382
220383
220384
220385
220386
220388
220389
220390
220392
220393
220394
220395
220396
220397
220398
220399
220400
220401
220402
220403
220404
220405
220406
220407
220408
220409
220410
220411
220412
220413
220414
220415
220416
220417
220418
220419
220420
220421
220422
220423
220424
220425
220426
220428
220429
220430
220431
220432
220433
220434
220435
220436
220437
220438
220440
220441
220442
220443
220444
220445
220447
220448
220449
220453
220454
256296
220467
220468
220472
220473
220474
220476
220477
220478
220480
220481
220482
220483
220484
220485
220486
220487
220488
220489
220490
220491
220492
220493
220494
220495
220496
220497
220498
220499
220500
220501
220502
220503
220504
220505
220506
220507
220508
220509
220510
220511
220512
220513
220514
220515
220516
220517
220518
220519
220520
220521
220522
220523
220524
220525
220527
220528
220529
220532
220533
220534
220535
220537
220538
220539
220540
220542
220543
220545
220546
220547
220550
220552
220562
220566
220567
220568
220569
220570
220572
220574
220575
220576
220577
220578
220579
220580
220581
220582
220583
220584
220585
220586
220587
220588
220589
220590
220591
220592
220593
220594
220595
220596
220597
220598
220599
220600
220601
220602
220603
220604
220605
220606
220607
220608
220609
220610
220611
220612
220613
220614
220615
220616
220617
220618
220619
220620
220621
220622
220623
220625
220626
220627
220628
220629
220630
220631
220634
220637
220640
220641
220642
255775
220649
220650
220651
220653
220654
220655
220656
220658
220659
220660
220661
220663
220664
220665
220666
220667
220668
220669
220670
220671
220672
220673
220674
220675
220676
220677
220678
220679
220680
220681
220682
220683
220684
220685
220686
220687
220688
220689
220690
220691
220692
220693
220694
220695
220696
220697
220698
220699
220700
220701
220702
220703
220704
220705
220706
220707
220708
220709
220710
220711
220712
220713
220715
220716
220719
220720
220722
220724
220726
220727
220728
254867
257006
220738
220741
220742
220743
220744
220745
220746
220747
220748
220749
220750
220751
220752
220753
220754
220755
220756
220757
220758
220759
220760
220761
220762
220763
220764
220765
220766
220767
220768
220769
220770
220771
220772
220773
220774
220775
220776
220777
220778
220779
220780
220781
220782
220783
220784
220785
220786
220787
220788
220789
220790
220791
220792
220793
220794
220795
220796
220797
220798
220800
220801
220802
220803
220804
220805
220807
220808
220810
220811
220812
220813
220814
220816
220818
220819
220820
220822
220824
220830
220831
220833
220834
220836
220838
220839
220840
220841
220842
220843
220844
220845
220846
220848
220849
220850
220851
220852
220853
220854
220855
220856
220857
220858
220860
220861
220862
220863
220864
220865
220866
220867
220868
220869
220870
220871
220872
220873
220874
220875
220876
220877
220878
220879
220880
220881
220882
220883
220884
220885
220886
220887
220888
220889
220890
220891
220892
220893
220894
220895
220896
220897
220898
220900
220902
220904
220907
220908
220909
220910
220911
254025
256496
256596
220920
220924
220925
220927
220928
220930
220931
220932
220934
220935
220937
220938
220939
220940
220941
220942
220943
220944
220945
220946
220947
220948
220949
220950
220951
220952
220953
220954
220955
220956
220957
220958
220959
220960
220961
220962
220963
220964
220965
220966
220967
220968
220969
220970
220971
220972
220973
220974
220975
220976
220977
220979
220981
220982
220983
220984
220985
220987
220988
220991
220992
220993
220994
220995
220996
220998
256797
220122
257209
257410
219686
221003
221005
221006
221008
221010
221011
221012
221013
221014
221015
221016
221017
221018
221019
221020
221021
221022
221023
221024
221025
221026
221027
221028
221029
221030
221031
221032
221033
221034
221035
221036
221037
221038
221039
221040
221041
221042
221043
221044
221045
221046
221047
221048
221049
221050
221051
221052
221053
221054
221055
221056
221057
221058
221059
221060
221061
221062
221063
221064
221066
221067
221068
221069
221070
221071
221072
221076
221077
255165
256191
256287
256389
257106
257309
221086
221087
221089
221093
221094
221097
221098
221100
221101
221103
221104
221105
221106
221107
221108
221109
221110
221111
221112
221113
221114
221115
221116
221117
221118
221119
221120
221121
221122
221123
221124
221125
221126
221127
221128
221129
221130
221131
221132
221133
221134
221135
221136
221137
221138
221139
221140
221141
221142
221143
221144
221145
221146
221147
221149
221150
221151
221152
221154
221155
221156
221157
221158
221159
221162
221163
221167
221168
221170
256192
257108
257109
257927
221182
221183
221184
221185
221186
221188
221189
221190
221191
221192
221193
221194
221195
221196
221197
221198
221199
221200
221201
221202
221203
221204
221205
221206
221207
221208
221209
221210
221211
221212
221213
221214
221215
221216
221217
221218
221219
221220
221221
221222
221223
221224
221225
221226
221227
221228
221229
221230
221231
221232
221233
221234
221235
221236
221237
221238
221239
221240
221241
221242
221243
221244
221245
221246
221247
221248
221249
221250
221251
221254
221255
221257
221258
221259
221260
221261
221262
221263
255457
256284
256601
256899
218384
221270
221271
221274
221275
221276
221277
221278
221279
221280
221281
221282
221283
221284
221285
221286
221287
221288
221289
221290
221291
221292
221293
221294
221295
221296
221297
221298
221299
221300
221301
221302
221303
221304
221305
221306
221307
221308
221309
221310
221311
221312
221313
221314
221315
221316
221317
221318
221319
221320
221321
221322
221323
221324
221325
221326
221327
221328
221329
221330
221331
221332
221333
221334
221335
221336
221337
221338
221339
221340
221343
221344
256902
220466
221352
221354
221358
221359
221360
221362
221363
221364
221365
221366
221367
221368
221369
221370
221371
221372
221373
221374
221375
221376
221377
221378
221379
221380
221381
221382
221383
221384
221385
221386
221387
221388
221389
221390
221391
221392
221393
221394
221395
221396
221397
221398
221399
221400
221401
221402
221403
221404
221405
221406
221407
221408
221409
221410
221411
221412
221413
221414
221415
221416
221417
221418
221419
221420
221421
221423
221425
221427
221429
221431
221432
256701
257622
258339
221434
221439
221440
221441
221442
221443
221444
221445
221446
221447
221449
221450
221451
221452
221453
221454
221455
221456
221457
221458
221459
221460
221461
221462
221463
221464
221465
221466
221467
221468
221469
221470
221471
221472
221473
221474
221475
221476
221477
221478
221479
221480
221481
221482
221483
221484
221485
221486
221487
221488
221489
221490
221491
221492
221493
221494
221495
221496
221497
221498
221499
221500
221502
221503
221505
221506
221507
221508
221510
221513
221514
256796
256894
258236
258442
221515
221516
221518
221521
221522
221523
221524
221525
221526
221527
221528
221529
221530
221531
221532
221533
221534
221535
221536
221537
221538
221539
221540
221541
221542
221543
221544
221545
221546
221547
221548
221549
221550
221551
221552
221553
221554
221555
221556
221557
221558
221559
221560
221561
221562
221563
221564
221565
221566
221567
221568
221569
221570
221571
221572
221573
221574
221575
221576
221577
221578
221579
221580
221581
221582
221583
221584
221585
221587
221590
221592
221593
221594
221595
221596
221597
221598
221599
221600
255555
256700
256795
221612
221613
221614
221615
221616
221617
221618
221619
221620
221621
221622
221623
221624
221625
221626
221627
221628
221629
221630
221631
221632
221633
221634
221635
221636
221637
221638
221639
221640
221641
221642
221643
221644
221645
221646
221647
221648
221649
221650
221651
221652
221653
221654
221655
221656
221657
221658
221659
221660
221661
221662
221663
221664
221665
221666
221667
221668
221669
221670
221671
221672
221673
221674
221675
221676
221677
221678
221679
221680
221682
221683
221685
221690
221692
221693
255975
220837
221700
221702
221705
221706
221707
221708
221709
221710
221712
221713
221714
221715
221716
221717
221718
221719
221720
221721
221722
221723
221724
221725
221726
221727
221728
221729
221730
221731
221732
221733
221734
221735
221736
221737
221738
221739
221740
221741
221742
221743
221744
221745
221746
221747
221748
221749
221750
221751
221752
221753
221754
221755
221756
221757
221758
221759
221760
221761
221762
221763
221764
221765
221766
221768
221769
221770
221772
221773
221776
221777
221778
221779
255465
257516
257824
258233
221782
221783
221784
221786
221787
221788
221790
221792
221793
221794
221795
221796
221797
221798
221799
221800
221801
221802
221803
221804
221805
221806
221807
221808
221809
221810
221811
221812
221813
221814
221815
221816
221817
221818
221819
221820
221821
221822
221823
221824
221825
221826
221827
221828
221829
221830
221831
221832
221833
221834
221835
221836
221837
221838
221839
221840
221841
221842
221843
221844
221845
221846
221847
221848
221849
221850
221851
221852
221853
221856
221857
221858
221859
221861
221862
221865
221866
254424
255779
256593
257002
219948
257302
258533
221872
221874
221875
221876
221877
221878
221879
221880
221881
221882
221883
221885
221886
221887
221888
221889
221890
221891
221892
221893
221894
221895
221896
221897
221898
221899
221900
221901
221902
221903
221904
221905
221906
221907
221908
221909
221910
221911
221912
221913
221914
221915
221916
221917
221918
221919
221920
221921
221922
221923
221924
221925
221926
221927
221928
221929
221930
221931
221932
221933
221934
221935
221936
221937
221939
221940
221941
221942
221943
221944
221946
221947
221949
221950
221951
221952
221953
221954
221956
221957
257408
257719
258638
258843
221965
221967
221970
221971
221972
221973
221974
221975
221976
221977
221978
221979
221980
221981
221982
221983
221984
221985
221986
221987
221988
221989
221990
221991
221992
221993
221994
221995
221996
221997
221998
221999
222000
222001
222002
222003
222004
222005
222006
222007
222008
222009
222010
222011
222012
222013
222014
222015
222016
222017
222018
222019
222020
222021
222022
222023
222024
222025
222026
222027
222028
222029
222030
222031
222032
222033
222034
222036
222037
222039
222040
222041
222043
222044
222045
222046
222047
218114
255160
257102
258639
222052
222054
222055
222056
222057
222058
222059
222061
222062
222063
222064
222065
222066
222067
222068
222069
222070
222071
222072
222073
222074
222075
222076
222077
222078
222079
222080
222081
222082
222083
222084
222085
222086
222087
222088
222089
222090
222091
222092
222093
222094
222095
222096
222097
222098
222099
222100
222101
222102
222103
222104
222105
222106
222107
222108
222109
222110
222111
222112
222113
222114
222115
222116
222117
222118
222119
222120
222121
222122
222123
222124
222125
222126
222127
222128
222129
222130
222131
222132
222133
222134
222135
255559
255777
256397
257008
257620
222139
222141
222142
222143
222144
222145
222147
222148
222149
222150
222151
222152
222153
222154
222155
222156
222157
222158
222159
222160
222161
222162
222163
222164
222165
222166
222167
222168
222169
222170
222171
222172
222173
222174
222175
222176
222177
222178
222179
222180
222181
222182
222183
222184
222185
222186
222187
222188
222189
222190
222191
222192
222193
222194
222195
222196
222197
222198
222199
222200
222201
222202
222203
222204
222205
222206
222207
222208
222209
222210
222211
222212
222214
222216
222219
256676
220740
257825
258534
258640
222226
222227
222228
222230
222231
222232
222233
222234
222235
222236
222237
222238
222239
222240
222241
222243
222244
222245
222246
222247
222248
222249
222250
222251
222252
222253
222254
222255
222256
222257
222258
222259
222260
222261
222262
222263
222264
222265
222266
222267
222268
222269
222270
222271
222272
222273
222274
222275
222276
222277
222278
222279
222280
222281
222282
222283
222284
222285
222286
222287
222288
222289
222290
222291
222292
222293
222294
222295
222296
222300
222301
222304
222305
222306
222307
222308
222309
222310
254962
257820
218715
222315
222316
222319
222320
222321
222322
222323
222324
222325
222326
222327
222328
222329
222330
222331
222332
222333
222334
222335
222336
222337
222338
222339
222340
222341
222342
222343
222344
222345
222346
222347
222348
222349
222350
222351
222352
222353
222354
222355
222356
222357
222358
222359
222360
222361
222362
222363
222364
222365
222366
222367
222368
222369
222370
222371
222372
222373
222374
222375
222376
222377
222379
222380
222381
222382
222383
222384
222385
222386
222388
222389
222392
222393
222394
222395
222396
222397
222399
222401
257204
257717
258023
219601
258838
258839
258938
222413
222414
222416
222417
222418
222419
222420
222421
222422
222423
222424
222425
222426
222427
222428
222429
222430
222431
222432
222433
222434
222435
222436
222437
222438
222439
222440
222441
222442
222443
222444
222445
222446
222447
222448
222449
222450
222451
222452
222453
222454
222455
222456
222457
222458
222459
222460
222461
222462
222463
222464
222465
222466
222467
222468
222469
222470
222471
222472
222473
222474
222475
222476
222477
222478
222479
222480
222481
222483
222484
222485
222486
222487
222488
222489
222490
222491
222492
222493
222494
222496
254546
255872
258231
222497
222498
222501
222502
222503
222504
222505
222506
222507
222508
222509
222510
222511
222512
222513
222514
222515
222516
222517
222518
222519
222520
222521
222522
222523
222524
222525
222526
222527
222528
222529
222530
222531
222532
222533
222534
222535
222536
222537
222538
222539
222540
222541
222542
222543
222544
222545
222546
222547
222548
222549
222550
222551
222552
222553
222554
222555
222556
222557
222558
222559
222560
222561
222562
222563
222564
222565
222567
222568
222569
222571
222573
222574
222575
255238
255951
256176
256594
257919
258125
258441
222580
222581
222583
222584
222585
222586
222587
222588
222590
222592
222593
222594
222595
222596
222597
222598
222599
222600
222601
222602
222603
222604
222605
222606
222607
222608
222609
222610
222611
222612
222613
222614
222615
222616
222617
222618
222619
222620
222621
222622
222623
222624
222625
222626
222627
222628
222629
222630
222631
222632
222633
222634
222635
222636
222637
222638
222639
222640
222641
222642
222643
222644
222645
222646
222647
222648
222649
222650
222651
222652
222653
222655
222657
222658
222660
222662
222663
222664
222665
254029
255665
256292
256798
257105
258738
220832
222670
222673
222675
222676
222677
222678
222679
222680
222681
222682
222683
222684
222685
222686
222687
222688
222689
222690
222691
222692
222693
222694
222695
222696
222697
222698
222699
222700
222701
222702
222703
222704
222705
222706
222707
222708
222709
222710
222711
222712
222713
222714
222715
222716
222717
222718
222719
222720
222721
222722
222723
222724
222725
222726
222727
222728
222729
222730
222731
222732
222733
222734
222735
222736
222737
222738
222740
222742
222746
222748
222749
222752
254122
256702
257923
258020
258740
259257
219599
222755
222757
222758
222760
222761
222763
222764
222765
222766
222767
222768
222769
222770
222771
222772
222773
222774
222775
222776
222777
222778
222779
222780
222781
222782
222783
222784
222785
222786
222787
222788
222789
222790
222791
222792
222793
222794
222795
222796
222797
222798
222799
222800
222801
222802
222803
222804
222805
222806
222807
222808
222809
222810
222811
222812
222813
222814
222815
222816
222817
222818
222819
222820
222821
222822
222823
222824
222825
222827
222828
222830
222832
222833
222834
222836
222837
222838
222839
222840
222841
222842
222844
222845
252474
222849
222850
222851
222852
222853
222854
222856
222857
222858
222859
222860
222862
222863
222864
222865
222866
222867
222868
222869
222870
222871
222872
222873
222874
222875
222876
222877
222878
222879
222880
222881
222882
222883
222884
222885
222886
222887
222888
222889
222890
222891
222892
222893
222894
222895
222896
222897
222898
222899
222900
222901
222902
222903
222904
222905
222906
222907
222908
222909
222910
222911
222912
222913
222914
222915
222918
222919
222920
256385
220377
257610
258628
258741
219957
259463
259464
222318
222923
222924
222925
222927
222928
222929
222930
222931
222932
222933
222934
222935
222936
222937
222938
222939
222940
222941
222942
222943
222944
222945
222946
222947
222948
222949
222950
222951
222952
222953
222954
222955
222956
222957
222958
222959
222960
222961
222962
222963
222964
222965
222966
222967
222968
222969
222970
222971
222972
222973
222974
222975
222976
222977
222978
222979
222980
222981
222982
222983
222984
222985
222986
222987
222988
222989
222990
222991
222992
222993
222994
222995
222996
222997
222998
222999
223000
223001
223002
223003
223004
223005
223006
223007
223010
223011
223012
223013
256499
256890
256896
255877
220471
258225
220922
223015
223016
223017
223018
223019
223021
223022
223023
223024
223025
223026
223027
223028
223029
223030
223031
223032
223033
223034
223035
223036
223037
223038
223039
223040
223041
223042
223043
223044
223045
223046
223047
223048
223049
223050
223051
223052
223053
223054
223055
223056
223057
223058
223059
223060
223061
223062
223063
223064
223065
223066
223067
223068
223069
223070
223071
223072
223073
223074
223075
223076
223077
223078
223079
223080
223083
223085
223086
223087
223088
223089
254237
254740
256289
220923
221611
259869
259975
223097
223098
223099
223100
223101
223102
223103
223104
223105
223106
223107
223108
223109
223110
223111
223112
223113
223114
223115
223116
223117
223118
223119
223120
223121
223122
223123
223124
223125
223126
223127
223128
223129
223130
223131
223132
223133
223134
223135
223136
223137
223138
223139
223140
223141
223142
223143
223144
223145
223146
223147
223148
223149
223150
223151
223152
223153
223154
223155
223156
223157
223158
223159
223160
223161
223162
223163
223164
223165
223166
223167
223168
223169
223170
223171
223172
223173
223175
223176
223177
223179
223180
223181
223182
223183
223184
255671
258126
219065
255158
260170
222229
223187
223188
223189
223190
223192
223193
223194
223195
223196
223197
223198
223199
223200
223201
223202
223203
223204
223205
223206
223207
223208
223209
223210
223211
223212
223213
223214
223215
223216
223217
223218
223219
223220
223221
223222
223223
223224
223225
223226
223227
223228
223229
223230
223231
223232
223233
223234
223235
223236
223237
223238
223239
223240
223241
223242
223243
223244
223245
223246
223247
223248
223249
223250
223251
223252
223253
223254
223255
223256
223257
223258
223259
223260
223261
223263
223264
223265
223267
223269
223270
223271
223272
223273
223274
223275
256489
256903
256991
220469
257518
258124
258133
259038
258636
259148
260271
223277
223279
223280
223281
223282
223283
223284
223285
223286
223287
223288
223289
223290
223291
223292
223293
223294
223295
223296
223297
223298
223299
223300
223301
223302
223303
223304
223305
223306
223307
223308
223309
223310
223311
223312
223313
223314
223315
223316
223317
223318
223319
223320
223321
223322
223323
223324
223325
223326
223327
223328
223329
223330
223331
223332
223333
223334
223335
223336
223337
223338
223339
223340
223341
223342
223343
223344
223345
223346
223347
223348
223349
223350
223352
223353
223354
223355
223356
223357
223358
223359
223360
223361
255037
256893
257808
223365
223366
223367
223368
223370
223372
223373
223374
223375
223376
223377
223378
223379
223380
223381
223382
223383
223384
223385
223386
223387
223388
223389
223390
223391
223392
223393
223394
223395
223396
223397
223398
223399
223400
223401
223402
223403
223404
223405
223406
223407
223408
223409
223410
223411
223412
223413
223414
223415
223416
223417
223418
223419
223420
223421
223422
223423
223424
223425
223426
223427
223428
223429
223430
223431
223432
223433
223434
223435
223436
223437
223438
223439
223440
223441
223442
223443
223444
223445
223446
223447
223448
223449
223450
223451
223453
223454
256590
256790
257192
257611
258219
258728
258823
255471
220303
259258
259568
223462
223464
223465
223466
223467
223468
223469
223470
223471
223472
223473
223474
223475
223476
223477
223478
223479
223480
223481
223482
223483
223484
223485
223486
223487
223488
223489
223490
223491
223492
223493
223494
223495
223496
223497
223498
223499
223500
223501
223502
223503
223504
223505
223506
223507
223508
223509
223510
223511
223512
223513
223514
223515
223516
223517
223518
223519
223520
223521
223522
223523
223524
223525
223526
223527
223528
223529
223530
223531
223532
223533
223535
223536
223537
223538
223539
223540
223541
223542
223543
223544
256478
257394
218286
260379
260478
223548
223549
223550
223551
223552
223553
223554
223555
223556
223557
223558
223559
223560
223561
223562
223563
223564
223565
223566
223567
223568
223569
223570
223571
223572
223573
223574
223575
223576
223577
223578
223579
223580