/*--------------------------------*- C++ -*----------------------------------*\
| =========                 |                                                 |
| \\      /  F ield         | OpenFOAM: The Open Source CFD Toolbox           |
|  \\    /   O peration     | Version:  2406                                  |
|   \\  /    A nd           | Website:  www.openfoam.com                      |
|    \\/     M anipulation  |                                                 |
\*---------------------------------------------------------------------------*/
FoamFile
{
    version     2.0;
    format      ascii;
    arch        "LSB;label=32;scalar=64";
    class       Cloud<dsmcParcel>;
    location    "0.005/lagrangian/dsmc";
    object      positions;
}
// * * * * * * * * * * * * * * * * * * * * * * * * * * * * * * * * * * * * * //

5149
(
(0.07596139117 0.2342089905 0) 455
(0.06856386404 0.2889253086 -2.710505431e-19) 534
(0.07062814597 0.2505250594 2.168404345e-19) 475
(0.06364693776 0.231571493 -2.168404345e-19) 454
(0.06820360264 0.1803307134 0) 384
(0.05605260832 0.1861350386 0) 393
(0.07196935647 0.2117838375 1.626303259e-19) 425
(0.06977559246 0.2359290167 -2.710505431e-20) 455
(0.0681912186 0.2803970215 2.168404345e-19) 524
(0.06583299016 0.2533704943 -5.421010862e-20) 484
(0.04495889341 0.2140064964 2.168404345e-19) 431
(0.05472693477 0.2461014766 2.168404345e-19) 473
(0.06052565182 0.210255035 1.084202172e-19) 423
(0.06416626573 0.2601411502 0) 494
(0.01135905832 0.2930772089 1.423015351e-19) 537
(0.0744727173 0.2618972274 0) 495
(0.04317406855 0.2680097096 -2.168404345e-19) 501
(0.07268804383 0.2233849738 4.33680869e-19) 445
(0.05775161237 0.2329088124 -5.421010862e-20) 453
(0.06411283405 0.2728357552 5.421010862e-20) 514
(0.05330741561 0.2139868694 -4.33680869e-19) 422
(0.07094630636 0.2461327274 3.388131789e-19) 475
(0.03105994298 0.2087337955 0) 420
(0.07607878586 0.2587562251 -2.168404345e-19) 495
(0.05145868759 0.211127366 0) 422
(0.06459582567 0.2194704229 -1.626303259e-19) 434
(0.06711008725 0.2574296767 0) 484
(0.05897993176 0.1759934115 -2.168404345e-19) 373
(0.06919159215 0.2407519877 -2.168404345e-19) 465
(0.06812870385 0.2676184118 2.168404345e-19) 504
(0.06564841883 0.2020797413 -2.168404345e-19) 414
(0.06846033297 0.285984651 0) 534
(0.07043080423 0.2598327482 -2.710505431e-20) 495
(0.07023669675 0.240998224 1.084202172e-19) 465
(0.03856462721 0.2731881865 0) 511
(0.05510375183 0.2125792837 0) 423
(0.06096538397 0.2339074347 2.168404345e-19) 454
(0.03846888796 0.2717848124 -1.084202172e-19) 511
(0.04609907759 0.2697802266 0) 502
(0.06132894297 0.2095371726 -2.168404345e-19) 424
(0.07063208929 0.1995157109 -2.168404345e-19) 405
(0.07326257034 0.2391871562 0) 465
(0.06630451138 0.2186831369 2.710505431e-20) 434
(0.04242738786 0.2307787965 -1.084202172e-19) 451
(0.05939577615 0.2805638525 -2.168404345e-19) 523
(0.07545075795 0.2491275051 -6.505213035e-19) 475
(0.06648833438 0.2371927961 0) 464
(0.07404866134 0.2299513281 -5.421010862e-19) 445
(0.06292736028 0.213843438 -5.421010862e-19) 424
(0.06227320414 0.1906088061 2.439454888e-19) 394
(0.05187644644 0.2568119658 -2.168404345e-19) 482
(0.06889372032 0.1739547587 -2.710505431e-20) 375
(0.06687557957 0.2640149268 -4.33680869e-19) 494
(0.07362138689 0.2296391463 -3.252606517e-19) 445
(0.06595939111 0.272921577 -2.168404345e-19) 514
(-0.006426688343 0.2784072468 0) 319
(0.01442054938 0.1990664684 -1.084202172e-19) 407
(0.07294032499 0.2056055879 -5.421010862e-20) 415
(0.07615703491 0.1722401349 8.67361738e-19) 365
(0.04406688084 0.2110524456 0) 421
(0.04491635238 0.1871835184 -1.084202172e-19) 391
(0.05038551856 0.2199489005 4.33680869e-19) 432
(0.063620124 0.2203581443 3.252606517e-19) 434
(0.0739096563 0.2121204886 -2.710505431e-20) 425
(0.07150211804 0.1906174792 1.355252716e-19) 395
(0.05627866681 0.262083296 1.084202172e-19) 493
(0.05988334214 0.2291650811 4.33680869e-19) 453
(0.05539880164 0.2509944907 0) 483
(0.06256063182 0.2520513424 8.131516294e-20) 484
(0.06704770563 0.258097494 0) 494
(0.04650680858 0.1774826345 -2.710505431e-19) 372
(0.05732745401 0.2266184532 7.589415207e-19) 443
(0.04487500188 0.2109877455 2.168404345e-19) 421
(0.05845412828 0.2987599027 -3.252606517e-19) 543
(0.06370996325 0.2031651877 1.084202172e-19) 414
(0.06507598145 0.231435708 -2.168404345e-19) 454
(0.04967670572 0.2029057425 -8.131516294e-20) 412
(0.07087569116 0.2274517747 3.252606517e-19) 445
(0.06919783658 0.274195985 0) 515
(0.07231728777 0.2703568243 0) 505
(0.06433320396 0.2613471411 0) 494
(0.06802827342 0.250952665 0) 484
(0.07016858072 0.2283245605 2.846030703e-19) 445
(0.05622148141 0.2712355342 4.33680869e-19) 503
(0.05987244275 0.2996495039 -4.33680869e-19) 543
(0.07249302863 0.2621288836 -2.710505431e-19) 495
(0.07305799992 0.2322205715 0) 455
(0.05269678808 0.1770886902 0) 372
(0.07081038569 0.1978337944 -2.168404345e-19) 405
(0.006282595959 0.2160111177 0) 426
(0.07551223877 0.2314931153 -2.168404345e-19) 455
(0.07347146785 0.226053 -2.710505431e-20) 445
(0.04179466537 0.2486671887 0) 471
(0.06398092516 0.207419365 0) 414
(0.001081627477 0.2490119469 8.131516294e-20) 476
(0.01693829074 0.2554743669 4.33680869e-19) 478
(0.07014807596 0.2649686357 0) 505
(0.07405706679 0.2488236892 -1.084202172e-19) 475
(0.07588337497 0.2316017147 -4.33680869e-19) 455
(0.05098665022 0.1864634165 -4.33680869e-19) 392
(0.02058453667 0.1997966284 2.710505431e-19) 408
(0.06080630303 0.2050916364 0) 413
(0.04906198153 0.2161872016 -3.252606517e-19) 432
(0.07210124804 0.1900497162 -2.710505431e-20) 395
(0.03609831021 0.2234128505 -1.084202172e-19) 440
(0.06425213413 0.1859623985 0) 384
(0.06948086424 0.2179793817 0) 435
(0.05318663784 0.2437285477 -2.168404345e-19) 472
(0.06672637741 0.2373485437 -2.168404345e-19) 464
(0.05610495241 0.2089989843 0) 423
(0.05900083549 0.266533473 -1.084202172e-19) 503
(0.04465836843 0.2696763437 0) 501
(0.06421924046 0.2352075128 0) 454
(0.07124102685 0.2965588092 3.388131789e-20) 545
(0.07103598583 0.262475483 0) 495
(0.07263757104 0.2550960707 5.421010862e-20) 485
(0.06817390064 0.2327722378 -2.439454888e-19) 454
(0.03800040437 0.2856262986 -4.33680869e-19) 530
(0.07149824472 0.2883034553 -5.421010862e-19) 535
(0.05448187378 0.1844029477 4.33680869e-19) 383
(0.06194432945 0.2144126376 1.897353802e-19) 424
(0.07299965956 0.1993740829 -3.252606517e-19) 405
(0.06387167833 0.1899273405 2.710505431e-20) 394
(0.03776644694 0.193457499 0) 400
(0.06258250558 0.237640856 0) 464
(0.07239906997 0.2848850021 1.389134033e-19) 525
(0.0489633037 0.2349846193 0) 452
(0.05797938596 0.2413991754 -2.710505431e-19) 463
(0.06932268309 0.2484749325 3.252606517e-19) 475
(0.05739120911 0.2746581775 3.252606517e-19) 513
(0.0709672319 0.2453614565 1.084202172e-19) 475
(0.0486471963 0.2703837998 2.168404345e-19) 502
(0.07331111214 0.2810944956 1.084202172e-19) 525
(0.07330219568 0.1884849303 0) 395
(0.06993630109 0.1681726438 -5.421010862e-20) 365
(0.06052775912 0.1986772857 -2.168404345e-19) 403
(0.04779704647 0.178501282 -1.084202172e-19) 382
(0.06775776056 0.2063511621 0) 414
(0.05533783235 0.1933864902 -2.168404345e-19) 403
(0.05203455891 0.2689106696 -2.168404345e-19) 502
(0.06521991403 0.2103557591 -1.084202172e-19) 424
(0.06973342459 0.2121920595 4.472333962e-19) 425
(0.04398844473 0.1901136378 0) 391
(0.07288048813 0.2142345728 -5.421010862e-20) 425
(0.05086336558 0.2340171748 1.084202172e-19) 452
(0.05981035648 0.1860542262 0) 383
(0.06072049808 0.2208181813 0) 433
(0.04701676803 0.238069797 1.084202172e-19) 462
(0.00954905884 0.2281953373 1.084202172e-19) 447
(0.06230117048 0.2286785449 0) 444
(0.04628479105 0.2828543971 -5.421010862e-20) 522
(0.07412490212 0.2974680918 0) 545
(0.06970131701 0.2863681203 4.33680869e-19) 535
(0.0605451755 0.269063575 4.33680869e-19) 503
(0.03566404956 0.2893768322 1.084202172e-19) 530
(0.07100699759 0.2722100832 -1.084202172e-19) 515
(0.06516991835 0.2688364214 8.131516294e-20) 504
(0.07200729355 0.28451845 -4.33680869e-19) 525
(0.06030931734 0.1663888417 0) 363
(0.06675070202 0.2111751199 -5.421010862e-20) 424
(0.02423932951 0.1824970791 -2.168404345e-19) 379
(0.0505614638 0.218062897 3.252606517e-19) 432
(0.07593017697 0.1699019055 0) 365
(0.06094126766 0.2221061889 0) 443
(0.05271275634 0.2204777698 4.33680869e-19) 432
(-0.005097679917 0.2530053159 5.421010862e-20) 239
(0.07081956337 0.2980459681 -6.776263578e-20) 545
(0.06561112089 0.2588125737 -4.33680869e-19) 494
(0.02235324568 0.2591994186 2.710505431e-20) 488
(0.0660470436 0.233604859 1.084202172e-19) 454
(0.07083379675 0.265549876 1.084202172e-19) 505
(0.06873164197 0.2759736189 1.084202172e-19) 515
(0.03797848435 0.286932535 2.168404345e-19) 530
(0.06218011118 0.2938710474 2.168404345e-19) 544
(0.04703083899 0.2408182369 2.168404345e-19) 462
(0.06774401417 0.2049119718 0) 414
(0.06328406353 0.2139534353 -1.084202172e-19) 424
(0.07237704745 0.1861464641 4.33680869e-19) 385
(0.07367104517 0.1869344304 0) 385
(0.06885412955 0.1687769216 -4.33680869e-19) 365
(0.06454596852 0.1922083517 -2.168404345e-19) 394
(0.06761461487 0.1868574405 2.168404345e-19) 384
(0.05367579441 0.1926432926 -1.558540623e-19) 393
(0.04929288203 0.1975435485 0) 402
(0.04828720485 0.1829175159 -2.710505431e-20) 382
(0.002173676 0.1713066772 -3.252606517e-19) 366
(0.03829337482 0.2833995934 2.168404345e-19) 521
(0.03312256329 0.2179607331 1.626303259e-19) 430
(0.05030588072 0.2536333967 -5.421010862e-20) 482
(0.05780170948 0.259896088 -1.084202172e-19) 493
(0.04796583517 0.2822902248 -1.626303259e-19) 522
(0.07061468497 0.2434075027 0) 465
(0.03539918244 0.2546990744 1.084202172e-19) 480
(0.0735335615 0.2667088066 0) 505
(0.06176440758 0.261953761 2.168404345e-19) 494
(0.06495386022 0.2839460462 -3.117081246e-19) 524
(0.06517823924 0.2820141278 -3.523657061e-19) 524
(0.06543658344 0.188049573 0) 394
(0.05443405679 0.1728020676 3.794707604e-19) 373
(0.06515990801 0.1856336846 8.131516294e-20) 384
(0.06889965161 0.2118017563 -2.168404345e-19) 425
(0.02419175503 0.1849832107 2.168404345e-19) 389
(0.02223747134 0.1891558137 -2.168404345e-19) 388
(0.07502658148 0.2458023806 0) 475
(0.07070235659 0.2298363843 4.33680869e-19) 455
(0.05173111185 0.219653946 -2.168404345e-19) 432
(0.06946164389 0.2291604377 -8.131516294e-20) 445
(0.0628800509 0.2142543107 0) 424
(0.02838866893 0.19843791 0) 409
(0.02487470387 0.2936122886 0) 539
(0.06273252338 0.2090102737 0) 424
(0.05101416986 0.2305371351 2.168404345e-19) 452
(0.07235279134 0.2321316924 4.065758147e-20) 455
(0.04106608369 0.2219850535 -2.168404345e-19) 441
(0.006822704931 0.2567326996 -2.168404345e-19) 486
(0.0657380461 0.2968321449 2.168404345e-19) 544
(0.04591078806 0.2864854488 -3.252606517e-19) 532
(0.04999062004 0.22758924 -1.626303259e-19) 442
(0.0728028865 0.2304970267 0) 455
(0.05263045468 0.2900929944 0) 532
(0.07248119566 0.2746243855 0) 515
(0.0424420755 0.2755976771 2.168404345e-19) 511
(0.03996924544 0.224607459 -5.421010862e-20) 441
(0.06853187862 0.2730678647 -2.168404345e-19) 514
(0.07284650576 0.2597982296 0) 495
(0.06570382841 0.1686510963 -1.084202172e-19) 364
(0.04248557448 0.1892920765 -1.084202172e-19) 391
(0.0326546775 0.2058449462 -5.421010862e-19) 420
(0.03812094247 0.1851315076 -2.168404345e-19) 391
(0.01442178086 0.2434565697 1.084202172e-19) 467
(0.06695298702 0.1997672318 -2.168404345e-19) 404
(0.04420306168 0.1885113929 -4.33680869e-19) 391
(0.05674537854 0.1987426816 -3.252606517e-19) 403
(0.05116173115 0.2052513421 -1.084202172e-19) 412
(0.0473635052 0.2109975411 -1.084202172e-19) 422
(0.07012558951 0.1677877087 -4.33680869e-19) 365
(0.02985869948 0.2231743791 -3.794707604e-19) 439
(0.0623380106 0.1848731732 2.168404345e-19) 384
(0.04790836525 0.2606615277 -1.219727444e-19) 492
(0.05345992596 0.1844621817 2.168404345e-19) 383
(0.06925177096 0.1753943443 -3.252606517e-19) 375
(0.07338774704 0.2012993368 2.168404345e-19) 405
(0.06986082677 0.251945725 -2.168404345e-19) 485
(0.04082099282 0.2504586259 -4.33680869e-19) 481
(0.05159349994 0.2162479661 2.168404345e-19) 432
(0.02119562765 0.2557429301 -4.33680869e-19) 478
(0.02515178903 0.2168199347 -1.084202172e-19) 429
(0.06514042852 0.2152694859 0) 434
(0.06367570854 0.2197089259 -3.286487835e-19) 434
(0.04196087882 0.2856720256 4.33680869e-19) 531
(0.05140208404 0.2280990669 4.33680869e-19) 442
(0.05490877045 0.2434603997 0) 473
(0.04382008627 0.2003505894 -4.33680869e-19) 411
(0.04929429412 0.2822689745 1.219727444e-19) 522
(0.06503400452 0.2610015976 -1.897353802e-19) 494
(0.04091986635 0.2406546039 -1.084202172e-19) 461
(0.06172641846 0.2604714122 -2.168404345e-19) 494
(0.06093313274 0.2983529177 0) 543
(0.05445626892 0.2685079189 -1.084202172e-19) 503
(0.05365522609 0.2771998232 -2.168404345e-19) 513
(0.04013496559 0.2381321101 2.168404345e-19) 461
(0.02028377061 0.261959486 -1.084202172e-19) 488
(0.07035111476 0.2878683473 -2.168404345e-19) 535
(0.07317652485 0.2769383858 3.252606517e-19) 515
(0.07525027656 0.2920151503 2.168404345e-19) 535
(0.06945703207 0.2965870294 8.131516294e-20) 545
(0.06018154294 0.2758560119 2.168404345e-19) 513
(0.06552922543 0.2416916791 -1.626303259e-19) 464
(0.06064686281 0.1847647611 2.168404345e-19) 383
(0.07242474391 0.2047246752 2.168404345e-19) 415
(0.06416537661 0.2085376319 -2.168404345e-19) 424
(0.03269908572 0.2000635655 -3.252606517e-19) 410
(0.07329901574 0.177730501 2.168404345e-19) 375
(0.02994911524 0.2227130387 -1.626303259e-19) 439
(0.03470482126 0.211467877 -2.168404345e-19) 420
(0.05738727651 0.1990571084 -1.355252716e-19) 403
(0.07290949302 0.1749906029 4.33680869e-19) 375
(0.04238830076 0.2141223456 4.33680869e-19) 431
(0.06351131673 0.2070665611 2.168404345e-19) 414
(0.07611312897 0.1956601697 0) 405
(0.04030647347 0.1761975321 1.084202172e-19) 371
(0.04461870626 0.228393518 -2.168404345e-19) 451
(0.02701899476 0.191978265 4.33680869e-19) 399
(0.07233702717 0.1990591766 -2.168404345e-19) 405
(0.04895146423 0.204877555 -3.252606517e-19) 412
(0.04808298369 0.2113367586 0) 422
(0.04999780951 0.2505722657 -6.505213035e-19) 482
(0.06486150541 0.1916693665 -2.032879073e-20) 394
(0.06685900229 0.2208356177 2.168404345e-19) 434
(0.05228154716 0.2215849322 0) 442
(0.06965739671 0.2777213094 -2.168404345e-19) 515
(0.06305352567 0.2419649907 1.626303259e-19) 464
(0.04267351853 0.2328512349 0) 451
(0.02210005876 0.2891468366 0) 528
(0.05624447992 0.2752699781 4.201283418e-19) 513
(0.02792991925 0.2579931758 2.168404345e-19) 489
(0.03989467547 0.2347519735 0) 451
(0.06383456704 0.2694982694 -5.421010862e-20) 504
(0.0330950238 0.2827924893 6.505213035e-19) 520
(0.05545135722 0.2379129911 6.776263578e-21) 463
(0.05395363019 0.2594367249 -2.168404345e-19) 493
(0.07149022545 0.2859336162 -2.168404345e-19) 525
(0.044471154 0.2741282842 -2.710505431e-19) 511
(0.02744325367 0.2757528908 3.252606517e-19) 509
(0.05928915401 0.2966435236 -2.168404345e-19) 543
(0.03466934993 0.2967577499 -8.131516294e-20) 540
(0.07322654939 0.1855704125 1.084202172e-19) 385
(0.046478876 0.1732897307 0) 372
(0.04038094336 0.1847096683 1.084202172e-19) 391
(0.05944528006 0.218614548 -6.505213035e-19) 433
(0.02261460433 0.1866830602 4.33680869e-19) 388
(0.04311453319 0.1797108296 0) 381
(0.02249128003 0.1977143762 -2.168404345e-19) 408
(0.01537678031 0.2097069463 0) 418
(0.06291211083 0.1720437818 2.168404345e-19) 364
(0.04341418266 0.1982906177 -1.084202172e-19) 401
(0.0407300877 0.2042741925 -5.421010862e-20) 411
(0.05149566482 0.2321663679 2.168404345e-19) 452
(0.05291592601 0.2221471263 2.168404345e-19) 442
(0.05542420902 0.2108385913 -3.252606517e-19) 423
(0.06366428135 0.2202492016 -1.084202172e-19) 434
(0.03493622396 0.2095514229 1.626303259e-19) 420
(0.04441481398 0.2524322271 5.421010862e-20) 481
(0.04390936876 0.2216024386 -2.168404345e-19) 441
(0.0268402485 0.2490793633 -2.168404345e-19) 479
(0.04010672236 0.2200544918 2.168404345e-19) 431
(0.0450184168 0.2009391188 2.168404345e-19) 411
(0.03695109734 0.1876598797 -2.168404345e-19) 390
(0.07499247281 0.2657872253 0) 505
(0.06198778781 0.1890714618 0) 394
(0.01911425467 0.2544663676 9.486769009e-20) 478
(0.05768998034 0.2737045169 -4.33680869e-19) 513
(0.04686401845 0.2683040607 2.710505431e-19) 502
(0.02609363668 0.2273567302 1.626303259e-19) 449
(0.03438818468 0.2791719107 0) 520
(0.07203645885 0.2061050412 -5.421010862e-20) 415
(0.06457675473 0.2724957882 2.846030703e-19) 514
(0.06877173436 0.2575579014 -4.33680869e-19) 485
(0.06303275035 0.2747937808 0) 514
(0.05172279877 0.2781476008 2.168404345e-19) 512
(0.06726502272 0.2444839864 0) 474
(0.07081568727 0.2448403305 -1.084202172e-19) 475
(0.06733547239 0.2620038873 2.168404345e-19) 494
(0.02933828054 0.231103431 -2.168404345e-19) 449
(0.06645119202 0.2560790542 7.589415207e-19) 484
(0.00456379624 0.2837416995 4.33680869e-19) 516
(0.04657169169 0.2953378537 0) 542
(0.04880820427 0.29683765 -1.084202172e-19) 542
(0.06935115957 0.2538577856 -2.168404345e-19) 485
(0.06290654072 0.2759246221 3.794707604e-19) 514
(0.07297468521 0.2955499495 -1.084202172e-19) 545
(0.02938661941 0.2482356868 2.168404345e-19) 469
(0.03024658977 0.2761955621 4.33680869e-19) 509
(0.05727216789 0.2146131199 -4.33680869e-19) 433
(0.07132910402 0.1824211248 3.252606517e-19) 385
(0.03251491544 0.1893273797 3.252606517e-19) 390
(0.03078980088 0.1933026681 2.168404345e-19) 400
(0.07134868898 0.1830951046 -2.168404345e-19) 385
(0.0626749116 0.1742735725 3.252606517e-19) 374
(0.07258419189 0.1976356962 -4.878909776e-19) 405
(0.03727104907 0.1983022743 -2.168404345e-19) 400
(0.04982564776 0.2144939407 2.168404345e-19) 432
(0.03900574498 0.2198927632 -2.710505431e-20) 431
(0.07202562231 0.2273677706 3.252606517e-19) 445
(0.06470436811 0.1731718592 2.913793339e-19) 374
(0.06529954582 0.2118170171 -2.168404345e-19) 424
(0.02362374795 0.2197118502 0) 439
(0.06455436306 0.1960570755 1.626303259e-19) 404
(0.04494055022 0.2383145554 -5.421010862e-20) 461
(0.04891918797 0.2477726715 -1.084202172e-19) 472
(0.05140694135 0.2127982829 4.33680869e-19) 422
(0.01534791776 0.2634745842 -5.421010862e-20) 498
(0.0131006226 0.2284032839 0) 447
(0.04877078319 0.1982941863 -3.252606517e-19) 402
(0.05826352036 0.2319951454 -2.710505431e-19) 453
(0.06346681429 0.2438057718 2.168404345e-19) 474
(0.03143314948 0.2293224014 1.084202172e-19) 450
(0.02896732736 0.2378664819 2.541098842e-19) 459
(0.03287454181 0.2531910574 2.168404345e-19) 480
(0.05568186977 0.2433616454 -1.084202172e-19) 473
(0.05594927313 0.2162084993 4.33680869e-19) 433
(0.07469441451 0.230494551 -4.33680869e-19) 455
(0.0552273149 0.2473652353 -4.33680869e-19) 473
(0.04919284317 0.2141771078 3.252606517e-19) 432
(0.0704394475 0.2335757981 -1.626303259e-19) 455
(0.07357751528 0.2795983061 0) 525
(0.07553260756 0.2101321264 0) 425
(0.05471543876 0.2824463911 -1.084202172e-19) 523
(0.06709352592 0.271985622 0) 514
(0.04558722404 0.2979113367 -4.33680869e-19) 541
(0.06190149577 0.2627486104 -4.33680869e-19) 494
(0.02049782542 0.22192138 3.252606517e-19) 438
(0.06248314268 0.2518088641 0) 484
(0.06575161979 0.2344690912 3.252606517e-19) 454
(0.06424153686 0.260826373 5.421010862e-20) 494
(0.02573352897 0.2623859181 2.168404345e-19) 489
(0.0522798119 0.2980319495 2.168404345e-19) 542
(0.04618926044 0.235668849 2.168404345e-19) 462
(0.03630243826 0.230652124 -1.084202172e-19) 450
(0.03836120179 0.2779563336 2.168404345e-19) 511
(0.06878952831 0.2569279916 0) 485
(0.06152423104 0.2887615521 2.168404345e-19) 534
(0.0673248411 0.2867015771 -4.33680869e-19) 534
(0.05202799589 0.1750876738 -2.168404345e-19) 372
(0.03864087098 0.2219424225 4.33680869e-19) 441
(0.0485937323 0.1864059215 2.168404345e-19) 392
(0.04360944884 0.1875424158 2.710505431e-19) 391
(0.06594862013 0.214592203 0) 424
(0.03837891767 0.2177997988 2.168404345e-19) 431
(0.05939022661 0.1971275803 -2.168404345e-19) 403
(0.03946141133 0.242293699 0) 471
(0.04881987384 0.2457766178 -2.168404345e-19) 472
(0.06732911471 0.2191868507 0) 434
(0.05026149338 0.1913518161 1.626303259e-19) 392
(0.05603812608 0.204459653 5.421010862e-20) 413
(0.05264417422 0.2431829785 2.168404345e-19) 472
(0.07010482705 0.2282446815 4.33680869e-19) 445
(0.04175871911 0.2611486698 3.252606517e-19) 491
(0.0523812149 0.2098582474 3.252606517e-19) 422
(0.04727404138 0.2174676543 -6.09863722e-20) 432
(0.02471273352 0.2336262286 -1.084202172e-19) 449
(0.05905028084 0.2675885172 -1.084202172e-19) 503
(0.06605859773 0.2288273238 -2.168404345e-19) 444
(0.05944834602 0.2094264786 2.168404345e-19) 423
(0.03989808476 0.242326399 -4.33680869e-19) 471
(0.03734343454 0.2577484857 2.168404345e-19) 490
(0.06489513053 0.239745927 -1.355252716e-20) 464
(0.0513097583 0.2597342222 3.252606517e-19) 492
(0.04984203664 0.2554154588 2.710505431e-20) 482
(0.07456723202 0.2330862377 -2.710505431e-19) 455
(0.06987488552 0.2493755196 -2.168404345e-19) 475
(0.05278470197 0.2641426011 -4.33680869e-19) 492
(0.04311415176 0.2466097806 -3.252606517e-19) 471
(0.0697281078 0.2605924239 -2.168404345e-19) 495
(0.017859974 0.2899137983 1.084202172e-19) 528
(0.06463709613 0.2798847075 0) 524
(0.03406435913 0.2950830627 -2.710505431e-20) 540
(0.06097801112 0.2776908264 -2.168404345e-19) 514
(0.06280800086 0.25302843 -1.084202172e-19) 484
(0.04314415982 0.2829648807 -2.168404345e-19) 521
(0.06046272448 0.23362738 0) 453
(0.01797827072 0.2533426513 2.168404345e-19) 478
(0.02471780089 0.2958192611 0) 539
(0.07070721319 0.2904348256 1.084202172e-19) 535
(0.05525360124 0.2661406208 -4.859851535e-20) 503
(0.0526887242 0.1938758251 -2.168404345e-19) 402
(0.0707395781 0.1919367218 4.33680869e-19) 395
(0.04673800016 0.2017991 2.168404345e-19) 412
(0.02634785768 0.2087932403 -2.710505431e-20) 419
(0.05437533863 0.1836589671 -3.252606517e-19) 383
(0.04468071623 0.1777898611 -8.67361738e-19) 381
(0.01707323286 0.2069756238 0) 418
(0.03937062941 0.1975734627 -1.151964808e-19) 401
(0.03401296062 0.2053188843 6.505213035e-19) 410
(0.03742596993 0.2389570208 -2.168404345e-19) 460
(0.06258295247 0.2093527015 -2.168404345e-19) 424
(0.04099290934 0.1841592427 -2.168404345e-19) 381
(0.04881108946 0.1891372422 8.131516294e-20) 392
(0.06681706028 0.1897371656 2.168404345e-19) 394
(0.07492539977 0.1867152768 0) 385
(0.04959402101 0.1954748134 5.421010862e-20) 402
(0.03619903449 0.21605314 -3.794707604e-19) 430
(0.05316125311 0.2287667264 -4.33680869e-19) 452
(0.05620326669 0.225329097 -1.626303259e-19) 443
(0.03904698268 0.2655909519 0) 501
(0.02424852737 0.2718725272 2.168404345e-19) 509
(0.04655074524 0.1862062293 1.626303259e-19) 392
(0.07568368344 0.2059923951 -2.168404345e-19) 415
(0.04640696461 0.2751703995 -1.626303259e-19) 512
(0.07429347532 0.1903486228 2.168404345e-19) 395
(0.02196946725 0.2286470427 -1.084202172e-19) 448
(0.07332749367 0.2670847749 -1.084202172e-19) 505
(0.04772413475 0.24308907 4.33680869e-19) 472
(0.03989450403 0.2472280416 1.084202172e-19) 471
(0.07491542327 0.2278965165 -4.33680869e-19) 445
(0.04036462587 0.2013539594 1.897353802e-19) 411
(0.03091727779 0.2261688548 0) 440
(0.0683879118 0.1895205046 1.084202172e-19) 394
(0.04100868993 0.2572110521 -3.252606517e-19) 491
(0.0761310641 0.2242404299 0) 445
(0.008875544651 0.2411578171 4.33680869e-19) 467
(0.04622135038 0.2579973233 5.421010862e-20) 492
(0.02543843489 0.2358656412 -4.33680869e-19) 459
(0.01642347015 0.2492338008 0) 478
(0.05372477577 0.2562497802 -2.168404345e-19) 483
(0.02509373706 0.2607221618 0) 489
(0.02688089382 0.2817911737 3.252606517e-19) 519
(0.03880263057 0.2985861974 -2.168404345e-19) 541
(0.07617425293 0.2837693823 0) 525
(0.06404306637 0.272664305 0) 514
(0.05081931819 0.2832511661 -1.084202172e-19) 522
(0.07204664741 0.2798530574 1.355252716e-19) 525
(0.06447163841 0.2474309881 -6.776263578e-20) 474
(0.05794575598 0.249122777 3.252606517e-19) 473
(0.02445077754 0.2919170993 -5.421010862e-20) 529
(0.03625163234 0.2805785754 -1.084202172e-19) 520
(0.06850840085 0.2401255212 8.978549241e-20) 464
(0.05287781553 0.2563594925 0) 482
(0.0353125253 0.2889299139 0) 530
(-0.01509271232 0.2423054133 -2.168404345e-19) 218
(0.05897840939 0.2874404541 0) 533
(0.05512079064 0.2926403922 1.084202172e-19) 533
(0.05204208215 0.2853707007 4.33680869e-19) 522
(0.06133993882 0.257600401 0) 494
(0.05527338804 0.2931258062 2.168404345e-19) 543
(0.04761925833 0.2578748625 -2.168404345e-19) 492
(0.02449638435 0.2942234693 0) 539
(0.07323991859 0.2682377831 0) 505
(0.04857669102 0.1918649593 -2.168404345e-19) 392
(0.07094014182 0.1785451899 4.201283418e-19) 375
(-0.005168941123 0.1939189792 -1.084202172e-19) 79
(0.06817724068 0.1672580999 0) 364
(0.0711694007 0.1991926595 0) 405
(0.04954901273 0.1933723499 -2.168404345e-19) 402
(0.04312972602 0.1852801502 0) 391
(0.05014743729 0.1741880542 0) 372
(0.02302877027 0.2012448523 0) 409
(0.03826117934 0.2014631124 2.168404345e-19) 411
(0.07099772801 0.1960782082 -2.168404345e-19) 405
(0.02507934992 0.1877813607 -4.33680869e-19) 389
(0.04510743262 0.1900234825 2.168404345e-19) 391
(0.05746513003 0.1691254314 -2.710505431e-20) 363
(0.06753533361 0.2113619728 -5.421010862e-20) 424
(0.05130285514 0.2149046146 2.168404345e-19) 432
(0.04255138497 0.217567665 -5.421010862e-20) 431
(0.07050548932 0.238136785 2.168404345e-19) 465
(0.0458312896 0.2332846817 2.168404345e-19) 452
(0.03667703788 0.1790839115 -2.168404345e-19) 380
(0.02537643318 0.2100549896 -3.252606517e-19) 419
(0.03225998253 0.2346869404 0) 460
(0.07263874093 0.1826142193 -2.168404345e-19) 385
(0.04933149948 0.2157511965 -4.065758147e-20) 432
(0.05027080844 0.1942882267 2.168404345e-19) 402
(0.04529736329 0.1918801672 -4.33680869e-19) 391
(0.04083614485 0.1935729581 2.168404345e-19) 401
(0.009964909834 0.2403274446 -2.168404345e-19) 457
(0.04068577831 0.2512565911 1.084202172e-19) 481
(0.04036569203 0.2206072073 -2.168404345e-19) 441
(0.05329000463 0.2106996259 -2.193815333e-19) 422
(0.05318278144 0.2485443553 0) 472
(0.07041310094 0.2270195614 2.710505431e-19) 445
(0.05444658982 0.1927982092 0) 393
(0.03722327083 0.2854018445 2.168404345e-19) 520
(0.06129748687 0.2581798989 -8.131516294e-20) 494
(0.05938027948 0.2233918996 -6.505213035e-19) 443
(0.05344532161 0.2302309538 3.252606517e-19) 453
(0.05548305354 0.2299120625 -2.168404345e-19) 453
(0.04273238955 0.2264974762 5.421010862e-20) 441
(0.03599967421 0.2724401879 0) 510
(0.00539199957 0.2540531865 0) 476
(0.03528673949 0.2292118788 0) 450
(0.05626622059 0.2208974869 0) 433
(0.03151323578 0.2670592589 2.168404345e-19) 500
(0.06068285342 0.2721907142 0) 513
(0.06549931135 0.2873333473 0) 534
(0.02659640291 0.2917689683 -2.168404345e-19) 529
(0.04037076834 0.2681547208 -3.794707604e-19) 501
(0.06509146732 0.2549111446 5.421010862e-20) 484
(0.05950546882 0.299490376 4.33680869e-19) 543
(0.05661656332 0.2538709339 -2.439454888e-19) 483
(0.0655861741 0.2710224629 -2.168404345e-19) 504
(0.04274684022 0.2656492764 0) 501
(0.01904352132 0.2846310413 0) 518
(0.02110100139 0.2830369848 0) 518
(0.03432682747 0.2963421408 0) 540
(0.0208433533 0.2691566394 -2.168404345e-19) 498
(0.0395193607 0.1793749189 -1.084202172e-19) 381
(0.03202802403 0.198070981 4.33680869e-19) 410
(0.05813303699 0.199997023 4.33680869e-19) 403
(0.05269986155 0.1743557427 0) 372
(0.05140538354 0.2174349147 5.421010862e-20) 432
(0.03270106195 0.2080496703 0) 420
(0.04414698597 0.213200674 -2.168404345e-19) 421
(0.06816665524 0.1791210326 0) 374
(0.009325184729 0.1839343989 -1.084202172e-19) 387
(0.06503889408 0.1977485712 -2.168404345e-19) 404
(0.06633236017 0.1862616692 1.084202172e-19) 384
(0.04978958955 0.1895659546 1.084202172e-19) 392
(0.03739842125 0.2146152738 6.505213035e-19) 430
(0.05790123713 0.1862899306 0) 393
(0.05837897217 0.1962473205 5.421010862e-20) 403
(0.05119735876 0.2105363838 -1.731123586e-20) 422
(0.06016329374 0.2489422907 2.168404345e-19) 473
(0.0155836897 0.2310685943 0) 448
(0.03132628297 0.1892816991 2.168404345e-19) 390
(0.05918119872 0.2243752591 0) 443
(0.04680602341 0.2471367651 0) 472
(0.006457200251 0.1884497331 0) 396
(0.01357330801 0.2079744359 4.33680869e-19) 417
(0.05811786257 0.2324632507 1.084202172e-19) 453
(0.04610985489 0.2220433753 -1.626303259e-19) 442
(0.05502247624 0.2835982265 2.168404345e-19) 523
(0.01854726958 0.2741750209 -2.710505431e-19) 508
(0.02588621173 0.2149688707 -5.421010862e-20) 429
(0.04933595569 0.2085429964 9.486769009e-20) 422
(0.02836441781 0.2259879361 2.168404345e-19) 439
(0.02163641679 0.2493546936 -4.33680869e-19) 478
(0.02202763826 0.2250724824 6.505213035e-19) 438
(0.07423994996 0.2316480339 0) 455
(0.02700933026 0.2017994673 5.421010862e-20) 409
(0.05950084619 0.2747239234 -1.626303259e-19) 513
(0.008591204984 0.2630371563 4.33680869e-19) 497
(0.04492189719 0.2286484022 0) 451
(0.04492725009 0.2521397144 4.33680869e-19) 481
(-0.02215938537 0.2270794688 -2.168404345e-19) 177
(0.04841267675 0.2491418015 2.168404345e-19) 472
(0.04793332948 0.2125083538 5.421010862e-20) 422
(-0.03842967268 0.2981367961 0) 354
(0.05691194166 0.2561734275 -2.168404345e-19) 483
(0.05626679586 0.2429311924 0) 463
(0.05999308736 0.2406417524 -2.168404345e-19) 463
(0.03062448019 0.2829726426 1.084202172e-19) 520
(0.0217222659 0.2287928816 0) 448
(-0.01197740944 0.2537846186 0) 238
(0.009250925783 0.2245564116 0) 437
(0.03265554538 0.2684316306 -2.168404345e-19) 500
(0.04364457033 0.2859667782 2.168404345e-19) 531
(0.05753219028 0.2291472381 -4.33680869e-19) 453
(0.0410441139 0.2625670571 -1.084202172e-19) 491
(0.00739478902 0.2579681992 2.168404345e-19) 486
(0.0366278088 0.2781929075 -2.168404345e-19) 510
(0.07444125524 0.290012189 2.168404345e-19) 535
(0.07557450731 0.2159591387 2.168404345e-19) 425
(0.03650850216 0.2034692445 0) 410
(0.05023063572 0.1811110345 0) 382
(0.03921334767 0.2373933467 1.084202172e-19) 461
(0.04157171704 0.1721180911 1.084202172e-19) 371
(0.06068075572 0.1688604288 0) 363
(0.008681205256 0.2084630554 -2.168404345e-19) 417
(0.02983477495 0.1918220017 2.168404345e-19) 399
(0.01207363497 0.1778273103 5.421010862e-20) 377
(0.05123764756 0.1696685317 -2.168404345e-19) 362
(-0.01047950138 0.2285917263 1.626303259e-19) 178
(0.07115683747 0.1791786034 -4.33680869e-19) 375