/*--------------------------------*- C++ -*----------------------------------*\
| =========                 |                                                 |
| \\      /  F ield         | OpenFOAM: The Open Source CFD Toolbox           |
|  \\    /   O peration     | Version:  2406                                  |
|   \\  /    A nd           | Website:  www.openfoam.com                      |
|    \\/     M anipulation  |                                                 |
\*---------------------------------------------------------------------------*/
FoamFile
{
    version     2.0;
    format      ascii;
    arch        "LSB;label=32;scalar=64";
    class       vectorField;
    location    "0.005/lagrangian/dsmc";
    object      U;
}
// * * * * * * * * * * * * * * * * * * * * * * * * * * * * * * * * * * * * * //


5149
(
(1116.968349 -297.1731487 -252.036874)
(1405.39075 573.9694959 240.3353864)
(1270.359191 136.4622753 -11.83632785)
(1339.490735 -457.9587743 -462.4546225)
(1404.730014 -731.1636905 119.9779996)
(1510.175526 -542.239247 -233.0565244)
(1723.083369 70.7034335 666.1294304)
(1491.122567 120.7794501 617.8530709)
(1332.97144 -59.59386394 -249.3526813)
(1150.889167 387.3910625 -249.841214)
(1259.430616 61.80211298 -755.5165018)
(1498.253341 57.88325751 726.5592987)
(1118.719247 -36.65557216 -60.40708024)
(1360.494644 -463.1885893 -33.18906899)
(936.6521602 326.6292473 -322.7596054)
(1184.922213 584.0016833 256.0050702)
(1089.642618 -492.6047559 250.4116092)
(1327.2438 -57.54312651 191.425521)
(1806.25323 -261.3523412 -310.2771551)
(1644.966468 -4.495514512 -134.7612337)
(1741.72635 -466.9274927 -394.6983396)
(1318.574895 -112.6336266 -69.76933991)
(1590.279483 -104.9096786 191.8185788)
(1672.28147 35.99724333 -185.8069014)
(1828.890516 -287.6690109 146.2602031)
(1990.315801 64.20342046 -109.9522063)
(1496.815319 651.4229779 -55.62062295)
(1843.346784 -120.1405253 -131.0329158)
(1626.90949 -915.460557 362.2634122)
(1548.237178 -112.7568657 201.3209293)
(1957.627898 -472.2533144 567.6603646)
(1498.093652 285.8640759 -275.8820787)
(1446.130113 203.9727379 392.328718)
(1465.464833 -27.32646325 -50.72296985)
(1541.302294 -445.1043245 -468.2234904)
(1723.742486 -204.2674616 -438.5569179)
(1814.938668 -51.59076156 361.0643865)
(1234.872834 -171.2195884 -173.0897161)
(1302.028599 -7.669053213 455.5952869)
(1642.900931 110.9860142 -339.9007476)
(2014.474626 -319.6225825 -556.491391)
(1486.641797 270.8919226 93.76606337)
(1366.346961 -163.4226752 208.5311169)
(1198.735249 422.5834592 -214.5034573)
(1710.368157 355.524768 -120.5783398)
(1397.792914 43.88501463 629.9193695)
(1338.255888 -285.9918308 -148.610493)
(1956.374441 149.8444345 357.7809608)
(1146.410199 -357.4334565 -268.999966)
(1436.773956 -129.5388181 16.14059775)
(1278.416976 509.3799779 -188.9336082)
(1299.387099 -514.839357 235.8589483)
(1446.24669 92.50392387 -215.1737634)
(1360.187767 -135.3230967 -63.66065629)
(1573.392788 -278.4568216 -109.6292815)
(1007.993266 91.22160608 117.2043223)
(872.0127415 -370.0507586 -20.12726657)
(1571.420222 -38.61416434 179.35248)
(1230.003038 -38.47190454 253.4757679)
(1314.039812 245.0459716 -35.84931067)
(1625.267132 -91.93858145 197.5469444)
(1353.728946 29.61744982 237.9647493)
(1367.616722 415.6901871 273.4871054)
(1280.218992 -32.7149596 -416.3543704)
(1901.696289 -433.1668228 -298.5046707)
(1626.146716 11.56739398 55.23391766)
(1356.55565 -491.7375338 -68.77721503)
(1266.433532 -152.2322909 -232.2932395)
(1923.633473 -21.14830198 331.0168798)
(1772.439306 -455.1598191 -198.0065158)
(1548.567445 -186.4537416 501.1404945)
(1900.743573 -239.0643301 146.2294881)
(2362.17443 -255.0603546 192.8646065)
(1355.676871 233.8302579 495.4561181)
(1560.183583 -76.47971528 -209.519844)
(2106.836 102.6531179 86.5606958)
(1114.958982 286.8458996 -20.37235723)
(1547.158284 -15.66446024 -430.349445)
(1246.906523 268.1656662 -306.5953314)
(1741.053382 10.30028444 158.2971377)
(1229.913754 -127.8733951 -800.6336189)
(1988.779983 370.2849032 -475.2486445)
(1896.223177 -402.8205759 -354.9454557)
(1298.971789 285.3787847 -28.0989385)
(1750.207924 328.6426553 543.0322005)
(1467.196786 -304.1815388 -1.599633631)
(1434.856659 -407.9223334 418.1217772)
(1112.947519 52.27880428 118.7611664)
(1285.989289 208.6776888 -409.9230116)
(1072.23825 -271.4770362 -216.6700279)
(1329.655204 -155.5327994 51.30404775)
(1383.587943 121.4238369 83.72791176)
(1753.946055 272.2981794 -163.5779657)
(2051.544237 338.4621525 -3.716434463)
(550.6699973 256.1739143 39.37959569)
(1123.313225 -81.08714215 242.7410065)
(1227.624071 133.9670402 158.7507079)
(1323.541844 123.21007 -130.1594242)
(1601.004649 119.533671 106.7891927)
(1633.929914 24.24358517 111.5713941)
(850.0837999 314.5682935 -32.88528586)
(1488.968036 -125.3114841 -187.190544)
(1623.540076 -119.2786876 19.81508473)
(1686.390528 -269.8800044 198.3631896)
(1292.545624 183.4155657 166.7276311)
(1307.479726 -243.1193487 -208.7187265)
(1399.185635 -99.14330948 635.7676261)
(1613.757177 424.6265586 -23.8966574)
(2198.857051 390.873769 -149.7516726)
(1965.153192 105.4912837 128.2542861)
(1880.476196 287.0370436 -216.7355111)
(2139.329303 -25.913424 84.71405585)
(1105.76941 -227.2942313 -140.0974521)
(1420.764818 248.4058047 97.90847716)
(1401.796317 -304.3799103 146.6694864)
(1776.101917 -545.5468928 -1.709774799)
(1292.890835 -244.2253466 -286.9794136)
(1552.819269 125.2415901 -171.0155657)
(1182.496487 52.38537543 117.9763161)
(1577.822422 214.2463287 270.8240941)
(1680.159303 -14.13031184 171.8679952)
(1735.196694 -417.8688211 288.034252)
(2174.466049 285.0247119 388.5646147)
(1038.019198 101.1395803 -514.0595231)
(1241.087198 72.6022472 -200.6751049)
(1696.002639 411.5315096 -167.3871624)
(1281.688194 -283.3422996 -50.48741594)
(1531.268115 -120.3966102 328.6930321)
(1614.860577 328.4819022 133.4621956)
(1629.707514 -194.4451111 276.9743946)
(1747.861862 -403.5624123 -316.7938223)
(1385.664072 123.3379127 -484.1760992)
(1861.336874 228.3240494 409.2981015)
(1955.62166 271.2184417 -76.61855457)
(1293.903906 -201.5029637 -23.43414421)
(2031.30681 253.4443039 -127.4834412)
(1425.100099 175.6201648 -147.492706)
(1694.483208 -345.085271 -103.4451429)
(1468.904968 104.1373484 -173.7447249)
(1489.699897 352.7660786 -304.6546507)
(1630.264169 -363.3979346 319.0990649)
(1764.570526 277.0358493 -34.43933895)
(1449.75927 106.7111974 543.6307022)
(1629.316042 142.1634173 -124.4961698)
(1462.89534 -164.3691834 719.1508048)
(1398.830485 -266.0408318 133.1846989)
(1887.348983 -275.5913037 437.0114596)
(1157.295581 -187.2117562 472.7486044)
(1289.537559 -163.4701092 343.0311324)
(1192.420722 -23.93471489 201.6932113)
(1568.387754 121.105888 -344.2136874)
(1540.059754 470.2681367 282.1644594)
(2048.023696 -310.7215481 70.09924972)
(1565.404942 327.0052901 200.5883501)
(1432.739426 248.8217044 -110.7967002)
(1262.156933 -103.8402519 87.78093573)
(1975.453833 53.45442654 -284.5020949)
(1554.329563 42.30585724 -259.133669)
(2190.278678 -342.9998074 -562.0707303)
(1778.126552 388.1459086 178.9694214)
(1135.380007 -34.00134803 261.0083042)
(1706.112266 264.573728 165.9554301)
(1934.201512 -266.8362859 -378.0082929)
(1752.360036 84.37605193 -71.2226365)
(1543.786761 -318.3034698 -95.68247961)
(1045.756735 85.48710539 -35.9717643)
(1305.493747 269.0016577 24.39577424)
(2083.921282 -303.5526916 -228.3161504)
(1580.647724 16.54725205 -158.1466804)
(1663.16835 -239.9304672 -20.224724)
(1627.136797 -106.3702988 -403.3748697)
(1909.728826 -37.99730374 -215.2171883)
(1789.71371 611.6971451 78.76653292)
(1775.227158 228.6989765 -23.79390687)
(1731.510858 -108.5082959 194.1607573)
(1266.716087 385.0965576 -106.3553255)
(1184.447271 310.112509 -1013.14893)
(2237.135412 312.1776682 -52.01818148)
(1741.10255 -32.12347358 205.6231019)
(1445.052319 -181.2974485 -73.78281802)
(1624.597438 -114.9458051 140.4031371)
(1503.726385 -305.3352122 184.054721)
(1650.244688 -52.96231137 283.3473514)
(1554.22902 -133.7146205 -136.7947841)
(1951.684715 -542.362571 448.1854836)
(1138.150366 -527.8210437 -57.57421831)
(1505.862019 108.0767629 388.2917668)
(1400.661196 -34.31947707 -349.4897871)
(1322.694868 -309.3076652 -136.3539844)
(1712.240142 70.92168395 -44.47444347)
(933.8887724 176.8450675 242.9131646)
(1741.59791 -184.4987448 311.0378125)
(1359.313987 -173.3863415 -261.5085276)
(1658.951222 715.8006668 -606.7132461)
(1377.339554 -138.3653979 -167.8677579)
(1367.851913 47.24914407 362.4208735)
(1537.230482 8.607929925 -50.21035919)
(1774.608637 507.6991068 -371.7401192)
(1507.191713 -248.5857347 442.6134784)
(1618.476185 -25.3631203 151.4127816)
(1707.390267 -153.9539614 256.3947979)
(1726.737616 -210.586424 -271.9188005)
(1468.723677 -167.5552187 -200.3724296)
(1652.124651 368.0362532 270.8878809)
(1716.32582 129.2128883 -105.8799065)
(1520.607467 222.1347425 -297.2366458)
(1815.861808 497.722748 -167.4871262)
(1436.251883 -69.53951334 834.2857383)
(1440.698129 -133.3178974 -80.15224011)
(1576.056192 278.5638437 -321.2025795)
(1761.144162 -162.9787672 318.86033)
(1698.538727 120.4853677 59.12626874)
(2023.73907 -154.2779357 -13.12178736)
(1595.237259 -244.016723 249.014203)
(1108.350363 463.1555985 205.6509331)
(1842.393454 -92.26674317 229.5001423)
(1441.270126 420.4988421 -313.1434455)
(1175.755744 203.1025072 20.35329033)
(1944.929743 -76.05521766 -482.0875723)
(1484.744037 156.1008011 293.3522984)
(1769.524729 49.49330005 -528.0699278)
(1130.689948 394.0944776 -110.7422083)
(1384.917839 -410.6859629 419.783389)
(1772.462573 127.4277913 -100.2136705)
(1964.032066 186.9328896 -132.6981861)
(1157.732907 -47.91000252 163.725636)
(1680.083891 40.07771496 21.12513015)
(1620.854685 658.6941563 -6.857696054)
(1723.740716 50.14773113 -170.7119241)
(1424.071229 621.1853952 -27.86244761)
(1687.01756 72.20533702 -224.1617473)
(1500.10863 -113.9882875 -77.76147555)
(1631.309075 -55.09134492 -84.81627967)
(1736.114529 66.27184566 -72.69337144)
(1342.317598 -9.100484443 -351.2851832)
(1870.788822 -258.3401003 409.4099216)
(1537.733224 204.6119346 -379.8767587)
(1849.744132 -184.8731101 -197.4810889)
(1772.225045 655.8306859 -203.5945914)
(1950.889768 -648.9127705 232.6608332)
(1662.485979 -145.2548707 -157.5070414)
(1778.420696 -38.82842942 -411.5593935)
(1752.847903 -46.84543951 139.3530372)
(1487.731639 357.7061415 205.2091248)
(1329.279241 -285.949994 472.3212509)
(2240.416152 -149.697625 -189.2485663)
(1387.279602 -162.6312439 -786.9569239)
(1675.283174 -182.0957982 -237.0885379)
(2069.06797 12.1547085 77.7724674)
(1223.487115 -188.2177149 655.7808487)
(1511.647996 39.58996327 254.1043029)
(1409.907586 -433.646357 109.7609116)
(1267.141649 109.0554718 126.1628441)
(1628.056041 77.10934945 -540.5577081)
(1720.342624 215.0169465 407.9374383)
(1183.806743 -119.3139039 -440.6246933)
(1689.210014 -35.67437129 -207.1387106)
(1695.711772 536.0762183 76.54523717)
(1528.624242 41.21910591 -195.9682714)
(1591.168195 569.9119345 53.64262385)
(1502.191333 -458.2996802 -88.20212694)
(1699.033788 237.1793099 -401.7863012)
(1784.722587 71.42320417 -264.9797077)
(1697.425488 172.6207412 -2.408533054)
(2059.800321 -70.61820056 -377.5068199)
(1429.29548 211.150375 561.4599729)
(1663.709931 -137.8072221 -32.36494497)
(1632.346838 672.2995448 -346.7300353)
(1645.133807 103.0399541 -105.5282809)
(1438.508899 215.8455066 371.7718748)
(2051.479989 0.08055844311 -578.3234261)
(1509.960007 18.59454948 559.0514094)
(1782.492782 -203.6225302 -73.2396407)
(1436.800238 271.4043745 159.3376154)
(1511.591565 296.8710855 188.2182341)
(1767.00199 359.2106473 -151.6619639)
(1583.063907 -115.3094263 8.432329147)
(1678.837793 149.7222815 24.65813506)
(1882.694753 -120.3575592 17.06476303)
(1495.153334 -57.64172692 119.7796991)
(1477.306786 76.90380451 -789.4572607)
(1416.609379 191.1766539 -358.9227458)
(1285.175847 -26.64011114 -104.6933037)
(1312.615536 126.8527043 69.97626096)
(1770.924862 -108.5561105 171.5184194)
(1316.682423 -155.2005154 -129.1444212)
(1655.297493 196.840742 494.0090026)
(2158.816242 36.23330363 -117.7410788)
(1655.585284 -114.4990681 -183.5155415)
(1651.173153 -334.7321748 -64.73072974)
(1174.113433 419.1412409 40.252916)
(1841.402232 -106.199069 144.7845265)
(1503.240401 -140.0279701 121.1582637)
(1359.186145 316.3560338 67.19464536)
(1012.729464 173.5372094 -297.2056387)
(2295.34758 243.4818821 -203.1719236)
(1008.000553 -46.4161972 150.3460405)
(2325.431039 205.1281709 759.3675606)
(1428.50564 356.0405489 -456.5472241)
(1682.981698 92.54673562 346.5761508)
(1434.19948 95.69394677 224.5772529)
(1986.457755 250.7958329 -243.4915982)
(2241.781473 -91.73825221 -473.3753451)
(1414.600487 -161.5240249 -51.78199479)
(1669.18658 84.58259389 178.6681469)
(2039.800685 -38.51295656 -279.6485174)
(1530.522606 -175.7935626 -225.5731108)
(2222.832577 -550.827713 137.7907157)
(1633.29491 70.9490912 419.7616861)
(1843.638381 171.7926924 -320.2163857)
(1259.810992 -45.9374212 -153.4005526)
(1549.554101 -69.02969147 -204.1191744)
(1678.110498 -342.2872978 930.3624832)
(1378.847764 48.74272986 -371.5558278)
(2167.532683 80.34624238 -255.8045019)
(1922.92108 198.7907179 401.0937661)
(1619.973941 274.3092094 63.19216029)
(1326.328668 32.42298607 -50.38555226)
(1655.934887 94.99430553 366.6418545)
(1987.072302 -255.630481 -415.9241442)
(1314.805286 -215.5739504 -352.344999)
(1496.502341 115.2580339 -742.7333073)
(1640.606263 337.6419198 22.9679798)
(2049.232579 -466.1852972 301.108016)
(1525.559274 307.3048326 242.7763232)
(1523.417516 -110.3047082 -314.7168139)
(1675.879661 -133.4152644 432.0321201)
(1597.451095 -166.3640313 -192.8351309)
(2087.103708 122.4187931 67.85502053)
(1541.189693 -415.7923511 636.7573902)
(1314.487175 1.030708468 -642.9517542)
(1637.367003 344.3094549 -480.6603654)
(1510.061909 231.8504377 155.3317705)
(1536.603645 -154.4170921 163.3235644)
(1629.747833 264.0493187 -205.5869281)
(1599.002216 -152.5685842 2.574270112)
(1857.410715 -11.95078167 381.6483813)
(1882.635718 49.3844634 5.876600356)
(2226.53645 -387.87656 151.1627419)
(1435.065588 90.23237925 -207.3762216)
(1739.405054 159.0138616 479.0404069)
(2217.911602 -151.7855632 -67.67936462)
(1966.193936 173.4365194 423.8633636)
(1648.76365 -387.2626483 -517.3647712)
(1852.667836 -423.4356692 129.6165402)
(1637.610515 -5.036373095 -532.716218)
(1610.734876 253.6502158 206.2053222)
(1471.054277 371.5578075 145.487647)
(1765.301114 -0.684763634 -406.4466744)
(1308.414064 156.2188555 -492.2781634)
(1821.637251 49.40769739 293.9007398)
(1749.619388 335.9439423 -50.95307837)
(1353.919526 -191.8749169 -43.46323079)
(1169.468983 55.4288093 -227.0894037)
(1779.20884 -88.0646812 -227.8000489)
(1244.693133 -27.25681746 -205.8910806)
(1682.205054 270.4101244 143.1907993)
(1883.896161 188.1007425 132.9175682)
(1811.592001 241.4553678 291.7392623)
(2168.69537 -159.9730727 -52.59516225)
(1599.796143 379.439573 -293.7340899)
(1608.937053 125.6515513 -300.6867198)
(1045.966163 30.83411381 -130.7406475)
(2440.397314 103.2837261 -96.08466148)
(1761.418966 -277.2976909 309.0481419)
(2341.212244 -239.879864 196.6914109)
(1550.997627 -128.1677416 -311.7080309)
(1547.735456 -199.3678002 72.34535623)
(1468.0506 448.8798978 -134.7085651)
(2020.422834 -58.10840371 -185.0991385)
(1652.199978 169.599482 -281.1848903)
(1051.48936 590.7509619 -87.5285294)
(1487.133538 283.8677056 -26.89047059)
(1804.922895 -184.7665281 -8.218154841)
(1640.607974 -477.2736912 -498.6243147)
(2147.699977 293.249262 -116.396886)
(1501.42999 -34.6745831 -238.230082)
(1427.165999 64.58060563 305.7566001)
(1652.893571 142.5916974 55.24978457)
(1833.5784 -294.3108998 -26.31549306)
(1083.321188 -295.7012876 215.8838837)
(1725.084842 167.1324167 572.8740495)
(1605.087299 -196.8609739 202.6934552)
(1622.922496 94.42297645 23.7580143)
(1859.035031 -309.2671013 7.309900374)
(1935.436318 212.7054843 105.1751143)
(2054.28781 -10.29743198 279.6294314)
(2054.192123 -149.6936096 16.74787352)
(1644.001743 -36.58158416 547.4446949)
(1998.959722 372.1224369 -285.7353902)
(1819.280063 360.0079317 -128.9035494)
(1951.776991 -826.0852675 -69.83965284)
(1884.795838 -42.94680975 -313.1697269)
(1630.920226 -219.3512027 -211.4179752)
(1953.484143 -329.5808881 -336.1217217)
(1429.284101 -91.95195036 -512.4136055)
(1819.159367 372.951637 -609.7879994)
(1658.671971 -553.2975256 139.0191915)
(1711.414078 -495.4853743 -506.2739741)
(1542.710584 -144.4333491 108.8031371)
(1049.145074 -388.1177988 90.60000986)
(1829.325217 -92.41532291 -99.73661866)
(1546.19197 62.7183441 -206.7535031)
(2057.422898 -118.6943171 591.8409353)
(1931.929515 -166.5124462 -431.3063609)
(1735.504359 -52.4157528 116.5940706)
(1639.03175 40.36199831 -133.2456781)
(2169.700516 -258.4346771 -550.2009703)
(1132.877551 -16.1873299 -74.20147648)
(1898.183226 -293.6291826 -239.2160548)
(1781.816399 382.4156593 693.1660105)
(1492.747631 389.5290274 -77.45884748)
(1541.93439 256.8678397 -61.1168216)
(1557.283056 -285.2052695 498.9557537)
(1617.905298 -93.60421034 129.1453533)
(1294.527756 -147.9108352 -433.3660175)
(1605.870274 -13.70778248 186.8005617)
(1409.805899 380.7117621 621.3493165)
(1603.595674 -478.4104144 265.282705)
(1931.776723 -243.6916869 413.3986296)
(1526.452156 108.0492553 -339.9662604)
(2329.161991 662.367007 -152.975462)
(1961.540533 -394.0789709 -285.4630416)
(1824.04908 -273.8411067 -416.8651893)
(1829.586978 -450.331257 379.4429152)
(1855.946755 618.1793067 63.31007707)
(1502.140911 -114.8323826 40.97780287)
(1659.106884 646.6405477 -52.63299644)
(1717.559144 -554.4254116 310.9404814)
(2021.487667 7.426856692 215.7339624)
(1715.971982 -163.6398903 -114.4970388)
(1870.189194 218.5819137 136.6497716)
(1629.451265 -157.3334219 -61.97856914)
(1852.730649 -174.5303984 332.9582249)
(1233.810261 1.153621665 9.79263429)
(1528.242572 57.44292321 10.50037291)
(1477.075258 -77.86137399 140.5019869)
(1430.192008 328.1885178 -16.19282215)
(2197.227474 -41.96783524 -717.6462955)
(1601.894314 189.5796258 89.4886511)
(1745.208518 -657.2645773 -43.54738167)
(1320.358567 -330.5131688 -78.59106217)
(1476.148341 78.34157881 143.4412784)
(1420.085962 161.9847972 -233.5002229)
(1192.536887 -23.02358385 259.8307871)
(1772.368603 -193.1766897 -54.33389538)
(1881.260351 12.16813645 -248.9427655)
(1788.381865 287.4356516 -190.2891978)
(1769.992061 936.7609168 -251.7769534)
(1734.221664 -138.2197203 -215.6287454)
(1551.943291 9.857861906 -192.6451035)
(1184.715049 31.62423705 -133.855938)
(1512.279716 117.7559359 330.3935406)
(963.3556014 110.9441145 -231.6690817)
(1523.987562 389.4086874 -163.9852049)
(1852.298382 302.9899485 -463.4423776)
(1760.458634 87.03006742 308.4335129)
(1714.282381 41.49747339 303.5174125)
(1595.284748 -282.7297246 493.8763302)
(1973.580721 -888.6310912 334.0380125)
(1911.700849 -221.372285 -329.3947924)
(1931.344246 332.218871 -429.3779001)
(2049.029146 -49.40837819 -301.4749602)
(1430.574091 361.3499315 324.9999232)
(2202.073507 -239.8002852 -200.9826278)
(1477.010002 764.4792291 161.4112008)
(1686.480589 -288.9667404 25.36213819)
(1639.378101 308.3782929 532.9961621)
(1515.110747 453.7664965 -94.72597331)
(2156.219429 341.9340518 195.3644099)
(1791.465921 -244.3421775 -40.97976639)
(1990.818939 566.9543232 -28.92399814)
(1881.477919 321.4714639 -739.5928878)
(1341.648265 4.50067277 514.6953144)
(1701.494703 -140.6396036 568.0265535)
(1726.540785 -646.581832 -213.0658923)
(1969.617773 -387.6474416 -598.9821315)
(1359.010795 -510.1099514 -371.7669606)
(1642.332046 169.5308766 214.8006238)
(2053.179153 -53.32011962 374.7456724)
(1436.741727 311.5668942 -351.3744094)
(1637.943904 298.6803097 644.4326822)
(1960.280044 -174.725581 274.1544025)
(1458.493949 420.6684525 241.750585)
(1553.314783 42.65230679 -108.9030475)
(1568.480514 -116.3394649 416.0815905)
(1764.898172 40.79891544 8.396480716)
(1556.600123 1.387135981 191.07814)
(1922.822236 360.2244095 134.8843532)
(1037.413853 128.3320223 -143.9382716)
(1680.526994 291.5856507 33.93696682)
(1784.732452 -108.3295498 -44.39557117)
(1432.120504 35.08115114 -320.4793126)
(1776.154479 -582.3014162 -394.186253)
(2202.521633 -274.4991162 -365.0731767)
(1848.077024 -428.2664644 155.7310646)
(1801.240146 -174.1281495 265.6774923)
(1771.672704 25.5026317 20.41650019)
(1493.690163 346.0735606 -91.15065123)
(1434.371796 -68.76796536 486.6881906)
(1812.025888 180.5927995 518.8378644)
(1498.124953 -4.116459572 213.62797)
(1796.187878 -24.42375864 -67.86195326)
(2309.212092 -29.28206345 145.918062)
(1704.291212 82.77388737 271.2577308)
(1592.457665 -314.8500789 506.5796645)
(1733.736543 288.500295 -40.80058182)
(1442.981572 179.436186 288.6909847)
(1702.483754 -209.0258639 243.1319682)
(2298.734349 95.11959224 227.6854411)
(1569.335321 -18.91101991 227.0057332)
(1996.137048 -264.0100815 184.4646105)
(1725.719191 -106.6938 484.6616236)
(1671.059138 103.1701648 -506.9742166)
(1825.727788 -245.3320292 -516.3981884)
(1989.322022 -202.5665683 271.093582)
(1679.628862 -270.3761022 -134.0362763)
(1016.655838 247.986183 202.0409059)
(1855.838488 273.8017931 -523.6896492)
(1593.108793 115.1607652 -81.72481538)
(1801.095529 -3.958669957 321.076244)
(2364.547416 130.9167107 -538.0931848)
(1837.432422 381.1345933 -323.193309)
(1748.486392 55.95949007 432.0730876)
(1671.436928 450.0926596 -525.3934105)
(1729.387607 598.7731877 233.2508045)
(1773.132766 -113.7624406 -215.1124079)
(1727.320638 -152.0650501 179.956164)
(1741.127136 -138.5533705 59.33628219)
(1694.564846 136.0594629 -95.59156964)
(1954.59626 -337.1187869 -289.9301467)
(1262.974732 -263.9085756 608.6581554)
(1608.743752 -499.165925 -116.2237599)
(1812.342952 132.0580902 60.86101491)
(1705.086088 -668.2359569 206.6336305)
(1398.538565 -69.77010003 -504.8103219)
(1454.232572 -82.95715613 -36.60116635)
(1758.80892 -67.14340636 -234.2259348)
(1780.768867 -678.4029261 -210.5354152)
(1982.894264 178.3416434 -75.77529815)
(2094.94583 38.77547061 -320.8832777)
(1868.398389 -161.230718 -881.7928397)
(1646.624232 409.8270287 128.4697591)
(1574.231637 16.17867309 406.7205622)
(1534.815095 -194.1528554 330.4965126)
(1938.489296 -180.4821526 -30.4700818)
(1650.594603 302.9110323 -233.7768775)
(1627.585293 -55.162001 464.3330549)
(1578.603687 -95.36221298 -146.0567583)
(2102.41309 -274.4911885 504.6006566)
(1714.977217 -346.288853 135.6042559)
(1657.237787 -621.9222696 -121.5739535)
(1599.325727 -8.007656027 434.4734404)
(1688.969803 -184.6167923 197.4896322)
(1586.61181 535.1671077 -291.1799978)
(1443.656852 301.390293 18.22787882)
(1606.639426 265.6472609 145.4230888)
(1542.507877 119.4251131 -368.935241)
(1603.884864 -10.00775335 374.9885796)
(1540.593903 -410.9339057 -371.641646)
(1878.802796 -24.18680149 -372.3395757)
(1557.923557 -221.9404486 -195.1529423)
(2165.925684 180.3828055 110.0994586)
(1457.262118 -19.47940794 139.1442641)
(1115.537609 100.5682598 -261.1446215)
(1493.649597 -227.0028487 -206.0169443)
(1923.308926 8.780878833 326.1988534)
(1534.114193 440.6311236 157.5271405)
(1595.284309 -359.1458052 359.0462431)
(2061.777271 11.18063228 -371.3206365)
(1940.10474 551.8248536 -616.2288213)
(1418.506385 144.8353482 -640.1206939)
(1677.37499 -60.85645322 19.71637514)
(1848.634234 284.6401699 421.7633765)
(1315.655523 -228.0793831 11.5187318)
(2059.091357 -98.48617756 -775.2394328)
(2221.213035 -433.8641456 303.8178852)
(1771.030079 -476.6668091 148.7099943)
(1644.81269 559.8506585 -136.8327358)
(2335.961835 45.62697498 -29.52147818)
(1665.743427 291.6714094 86.14344978)
(1489.569063 503.1642845 -139.7391631)
(1885.507299 481.7115192 -227.8437726)
(1162.358316 -186.6927791 -418.0047941)
(1280.863561 -168.4359543 158.9254073)
(1833.338924 -271.4707052 -322.3267063)
(2103.003428 257.6387122 226.7811769)
(1308.888447 -159.2425819 437.5762957)
(1520.066269 -242.3760998 -112.9426953)
(1924.313579 59.71861732 -2.310642554)
(1827.404272 80.11789564 482.5324183)
(1811.177149 486.8207552 16.48331876)
(1546.953949 8.54964938 -15.61326293)
(1609.320063 -375.3036155 213.9719375)
(1451.431443 22.11776244 74.4134947)
(1990.079435 -339.8713776 235.3274651)
(1563.951019 -349.7914016 172.8443567)
(1216.549257 -330.5227444 -185.1072119)
(1716.120231 -352.6919181 73.35082615)
(1399.002033 -282.7254182 -124.0129642)
(1557.043078 125.0798007 -194.0851603)
(1126.171083 156.2393419 29.36338182)
(1790.886942 -202.8791396 -448.3285368)
(1787.549847 657.3764943 123.879953)
(1055.110898 -268.1348589 197.0765108)
(2076.416157 -144.4410664 366.55726)
(1268.534907 -306.1453801 444.2719801)
(1443.974784 332.1020465 316.1928331)
(1706.874649 180.7384721 104.3184843)
(1975.503681 -237.3342808 -214.3115403)
(1803.69753 -392.3153761 24.51138923)
(1458.288781 -526.6842496 -241.2146948)
(1700.733588 42.33108916 -30.06777527)
(1300.292112 1.069944226 -97.3513902)
(2045.9184 -201.410271 113.6169377)
(1384.47068 6.14104262 -126.3406447)
(1956.509162 681.8576002 317.7265576)
(1602.041709 -364.6876202 420.5907391)
(1746.067506 -427.440179 -107.5113063)
(1195.652973 -222.6224461 305.147858)
(1718.08996 348.6170921 -450.9268041)
(1886.052365 -134.1167799 -138.9181748)
(1515.054756 756.2881917 -136.6213187)
(1742.916191 -53.12001371 297.2023194)
(1934.237068 19.82226474 -113.1669004)
(1581.498412 322.3374881 -16.67010137)
(1547.009455 -424.082764 358.9672191)
(2030.87171 -435.2988807 -267.7536957)
(1451.11868 136.7738869 71.9641132)
(1820.849232 -151.2534006 87.57321966)
(1258.221767 -215.7909107 -196.7799822)
(1322.054797 2.948728034 -141.055351)
(1442.98665 167.2059612 353.4261453)
(1773.505581 -323.3999255 -363.8559723)
(2129.183413 587.6825061 -134.7421181)
(1956.894292 -241.5103196 -319.194031)
(1840.623406 -211.7570722 -388.7456881)
(1887.952006 -141.9749836 -177.0051238)
(1977.729972 -41.63109384 195.4174702)
(1673.585345 -218.0250702 46.62267139)
(1667.668067 -104.6504824 -89.11834608)
(1823.918755 -352.3860948 15.70566291)
(1764.248713 152.6260628 -297.4085064)
(1524.983249 -3.477341993 -289.5033975)
(1464.720702 -3.196198694 154.7675244)
(1441.754245 -162.5654244 -365.5832628)
(1217.161248 181.9285115 -149.3715797)
(1514.948376 465.1142958 -168.0712987)
(1665.727504 -21.6329348 465.9822009)
(1606.217088 63.78564671 399.213797)
(1672.926443 88.77463219 -119.8606434)
(1682.355082 -255.1807688 185.2268032)
(1665.068694 -326.6932866 -173.9432696)
(1567.075357 -349.8749049 68.98166412)
(1620.04752 507.1641864 -316.6427688)
(1948.1587 180.543829 253.4803402)
(1285.383145 -910.4362337 400.5502918)
(1444.927182 366.3193508 -77.68055052)
(1373.878529 -216.6781033 26.5348336)
(1575.230304 -198.0806952 -80.98366702)
(1189.042614 -187.2331505 -248.6421123)
(1864.788312 74.2375729 109.737395)
(1896.305036 275.373018 -84.52099775)
(1577.096149 -40.04086557 -185.7480346)
(1741.958125 -202.4315374 274.2819244)
(1558.495956 -137.6532857 418.8672411)
(2052.85369 639.163754 -215.6458886)
(1194.215259 -145.0439352 -323.0907576)
(1686.185938 -648.1934362 -60.06344873)
(2140.62756 311.5527454 18.68029228)
(1973.929247 10.32093461 451.654229)
(1868.432304 155.6357611 -48.99846156)
(1884.355827 -202.9424624 250.9571412)
(2142.220662 -210.9494075 -279.3323732)
(1557.818587 -234.7825997 453.2084652)
(1558.26858 148.3512047 193.2513058)
(2049.917545 -204.7303441 -401.7752056)
(1730.673466 249.1955754 -141.0792643)
(1914.039147 392.545026 69.50499964)
(1364.309968 616.0940304 -365.2472534)
(1705.650799 59.82115517 -519.5182628)
(1777.80116 -131.7641568 258.7523016)
(1770.416827 351.7809393 -501.431447)
(1626.815677 -434.8242388 266.2997441)
(1388.889783 -147.7847243 391.7891371)
(1469.271145 441.7902909 185.7147672)
(1561.137984 -546.423844 18.37612089)
(1724.576951 269.0781029 -14.20029844)
(1320.438258 -311.0205464 8.425462143)
(1657.550486 147.5997903 -12.35383788)
(2147.731294 -312.8182767 -459.8317151)
(1909.932147 -2.3257806 -22.94285252)
(1460.899462 -316.2907267 67.71353704)
(1464.100562 362.2697149 -175.8671792)
(1653.872089 456.7935214 -232.9663996)
(1690.765018 -78.34285344 -50.19302933)
(1939.171671 -95.82692963 -774.3963225)
(2119.055446 569.3199141 -323.7220734)
(1376.350971 270.5066862 26.27411944)
(1879.206416 434.3723086 262.0917645)
(1930.441493 -280.7123466 -685.8187341)
(2120.05806 335.8093964 133.9032594)
(2021.791244 -233.8836806 179.4779783)
(1856.936394 46.31574017 42.19042956)
(1912.109596 382.5633823 -131.1140905)
(1526.235024 345.6995228 -449.2341893)
(1816.661133 426.5549464 -77.48560131)
(1656.278542 -131.2827582 -256.3723613)
(1968.636748 -476.1247584 -394.3684581)
(1519.239413 -53.16166965 -118.836012)
(1631.020688 -2.89472814 -347.126615)
(1732.755763 -177.8592641 -625.0260549)
(2007.101362 -545.1393433 -175.2189253)
(1663.530076 -120.2905213 -259.9368723)
(1630.962455 330.7963451 -150.8524298)
(1949.782508 148.1341772 645.8653278)
(1327.871161 98.56527764 30.80388008)
(1786.12029 -130.8302922 -213.5239632)
(2043.667578 -225.7705807 -44.30500878)
(1828.936232 -674.6085902 -25.56037505)
(1776.387513 -288.1026736 -683.2944351)
(1912.307988 -355.978954 -373.2364963)
(1719.35408 -76.2303126 -439.1098556)
(1770.816512 -120.731582 36.20953764)
(1718.331317 -146.4331099 134.1208681)
(1505.604414 -195.0170332 -62.71744672)
(1851.860016 -166.3926209 -357.3593416)
(1921.8559 -343.1799942 758.8233829)
(1306.484624 -104.9487891 127.8001696)
(2055.058731 137.0984227 -200.7886158)
(1338.449017 160.8307348 -132.0030217)
(1501.183806 -12.92410796 -183.5209576)
(1694.643944 185.822642 23.87356836)
(1723.253876 2.467504547 149.9309326)
(2006.111145 -174.8356338 366.2018463)
(1677.634383 30.31342605 -123.212512)
(1688.107696 -309.8005142 -256.6288333)
(1639.579633 -353.0765082 479.8286584)
(1321.353449 -199.3307983 79.32169062)
(1728.410967 -82.66998113 -34.6335677)
(1211.178868 30.9659301 333.0684935)
(2020.243083 -88.1354076 -45.4584421)
(1495.743371 199.2592041 -27.15898616)
(1140.121887 381.9393263 670.7296848)
(1605.21782 -300.8417544 614.8992804)
(1911.904415 -297.4439418 292.7929495)
(1755.568537 -228.3987035 -13.12762695)
(1750.186328 -563.2192845 -292.5136726)
(2114.979903 79.80136207 225.3198539)
(1674.651964 105.6307813 108.006914)
(1858.132598 124.0471855 -249.6354049)
(1553.736348 -140.4000799 -99.04587803)
(1556.710618 98.88342577 -154.1688261)