/*--------------------------------*- C++ -*----------------------------------*\
| =========                 |                                                 |
| \\      /  F ield         | OpenFOAM: The Open Source CFD Toolbox           |
|  \\    /   O peration     | Version:  2406                                  |
|   \\  /    A nd           | Website:  www.openfoam.com                      |
|    \\/     M anipulation  |                                                 |
\*---------------------------------------------------------------------------*/
FoamFile
{
    version     2.0;
    format      ascii;
    arch        "LSB;label=32;scalar=64";
    class       Cloud<dsmcParcel>;
    location    "0.009/lagrangian/dsmc";
    object      coordinates;
}
// * * * * * * * * * * * * * * * * * * * * * * * * * * * * * * * * * * * * * //

9421
(
(0.3883710411 0.3058144795 0.2473682276 0.05844625192) 207 408 2
(0.525731015 0.225821965 0.01131252755 0.2371344925) 56 111 1
(0.3786916108 0.1333525549 0.1773016397 0.3106541946) 208 410 1
(0.2791653012 0.3604173494 0.02208700802 0.3383303414) 58 113 2
(0.3355045453 0.280849834 0.05139789331 0.3322477274) 86 112 2
(0.2454581845 0.3772709078 0.2765961195 0.1006747883) 149 235 1
(0.04986175256 0.4750691237 0.07061178416 0.4044573396) 85 169 1
(0.3887496672 0.3056251664 0.08841454415 0.2172106222) 118 234 1
(0.03343974885 0.0245499233 0.4587302023 0.4832801256) 115 169 2
(0.1956519662 0.4021740169 0.2246650362 0.1775089807) 82 104 1
(0.6599230581 0.01383677884 0.170038471 0.1562016921) 179 353 2
(0.3602256076 0.3198871962 0.1898820652 0.130005131) 85 169 1
(0.1235520303 0.2042782947 0.2339456901 0.4382239848) 328 588 2
(0.7912965616 0.1043517192 0.1035732826 0.0007784365729) 149 1045 2
(0.08448813494 0.4577559325 0.1206910824 0.3370648501) 238 469 2
(0.9037638276 0.01498179373 0.03313629248 0.04811808621) 296 583 1
(0.006105820221 0.3219855046 0.4969470899 0.1749615853) 141 276 1
(0.1346966416 0.2507845416 0.1818671376 0.4326516792) 290 513 2
(0.4258655972 0.1460563505 0.2870672014 0.1410108509) 174 341 1
(0.3402813292 0.3298593354 0.3207992384 0.009060096998) 85 169 1
(0.3751923784 0.2713876247 0.3124038108 0.04101618612) 88 175 2
(0.430188905 0.1626193027 0.1222862448 0.2849055475) 84 166 1
(0.4593903058 0.2409614188 0.2703048471 0.02934342827) 20 41 2
(0.1559815691 0.4220092154 0.1879880969 0.2340211185) 24 46 2
(0.5043518782 0.005550342864 0.2478240609 0.242273718) 116 230 2
(0.4405150516 0.103415247 0.1763272272 0.2797424742) 88 116 2
(0.272513771 0.3637431145 0.1336634817 0.2300796328) 84 167 1
(0.4006113429 0.05376810416 0.2459262244 0.2996943285) 207 408 1
(0.4314219401 0.28428903 0.03206478553 0.2522242444) 116 171 1
(0.1846318894 0.277700737 0.1299833183 0.4076840553) 86 112 2
(0.1075974409 0.2289677663 0.2172335133 0.4462012795) 137 212 2
(0.3143380047 0.293801628 0.04902936969 0.3428309977) 55 109 1
(0.3115194119 0.3442402941 0.3127406796 0.03149961447) 148 293 1
(0.4876269037 0.001884830704 0.2561865482 0.2543017175) 52 101 1
(0.1671125437 0.1579818247 0.4164437282 0.2584619034) 239 471 2
(0.4609221844 0.2039300292 0.06560887856 0.2695389078) 79 98 2
(0.2160307782 0.1951499732 0.3919846109 0.1968346377) 87 173 2
(0.2014482186 0.2717324676 0.1275434232 0.3992758907) 141 220 2
(0.6633626036 0.1683186982 0.1255850127 0.04273368548) 87 172 2
(0.4935379579 0.253231021 0.1364667295 0.1167642915) 170 277 1
(0.8369676784 0.08151616082 0.07048640109 0.01102975972) 55 107 2
(0.2797685235 0.2473233719 0.3601157383 0.1127923663) 239 471 2
(0.1279321863 0.02175370945 0.4360339069 0.4142801974) 118 234 2
(0.1523386865 0.4238306567 0.1054239358 0.3184067209) 358 647 1
(0.02197050902 0.4259513125 0.06306343302 0.4890147455) 145 286 1
(0.4793610309 0.2603194846 0.1893496456 0.07096983901) 56 109 2
(0.161405476 0.06536104684 0.419297262 0.3539362151) 28 54 1
(0.4140878298 0.2929560851 0.09801758132 0.1949385038) 143 283 1
(0.03734317319 0.4813284134 0.2855306661 0.1957977473) 114 223 2
(0.5709610627 0.2145194687 0.05540915212 0.1591103165) 237 465 2
(0.01388079547 0.2368897523 0.2561698499 0.4930596023) 57 55 2
(0.005719353901 0.3140380173 0.1831023057 0.497140323) 299 530 2
(0.09027783995 0.45486108 0.3043713318 0.1504897482) 262 514 2
(0.3374056746 0.1912902681 0.3312971627 0.1400068946) 54 108 2
(0.1794251957 0.2068200319 0.2034673703 0.4102874021) 87 172 1
(0.1245027399 0.01893825644 0.4188103736 0.43774863) 48 37 2
(0.4574787899 0.1565227248 0.2712606051 0.1147378803) 385 756 1
(0.5492641221 0.04218793975 0.1831799992 0.225367939) 118 233 1
(0.7325490447 0.1337254776 0.03580357456 0.09792190308) 357 645 1
(0.6064707292 0.06772429958 0.1967646354 0.1290403358) 28 57 2
(0.4073438161 0.2220507634 0.296328092 0.07427732859) 84 167 2
(0.1766268521 0.2116692202 0.2000173538 0.411686574) 267 526 1
(0.165966723 0.4170166385 0.1179699108 0.2990467277) 115 225 2
(0.3353963375 0.118991704 0.2133101273 0.3323018313) 22 44 1
(0.07173744387 0.315672725 0.1484585531 0.4641312781) 237 467 1
(0.09306937931 0.4534653103 0.08924428137 0.364221029) 258 506 2
(0.2773841824 0.3613079088 0.01800700651 0.3433009023) 209 353 1
(0.6646922963 0.02770257137 0.1676538518 0.1399512805) 17 35 2
(0.3300995012 0.1573326445 0.1776176049 0.3349502494) 113 223 1
(0.2403749659 0.169983531 0.3798125171 0.209828986) 25 48 1
(0.2889642654 0.3555178673 0.03313632635 0.322381541) 51 99 2
(0.6998446785 0.04568328348 0.1500776608 0.1043943773) 88 175 2
(0.6110810939 0.19428055 0.0001789030409 0.194459453) 266 524 1
(0.1330787375 0.4123551709 0.02110546033 0.4334606313) 299 1050 1
(0.8362480581 0.08187597096 0.03238985288 0.04948611807) 72 84 1
(0.02209691115 0.4889515444 0.2207567104 0.268194834) 114 167 1
(0.1098267454 0.1696098939 0.2754767334 0.4450866273) 88 116 2
(0.0817439257 0.4303673652 0.4591280371 0.02876067196) 238 470 2
(0.3411218881 0.02050058913 0.3294390559 0.3089384668) 269 530 2
(0.1759792195 0.1325937859 0.4120103903 0.2794166044) 389 766 2
(0.6744529129 0.06935167594 0.1627735436 0.09342186762) 28 57 2
(0.04778287062 0.4761085647 0.05156670223 0.4245418625) 326 640 2
(0.006641861222 0.3813895752 0.1152894942 0.4966790694) 21 1077 1
(0.3945660761 0.20500276 0.09771420191 0.3027169619) 86 112 2
(0.4163337357 0.04393934125 0.2918331322 0.2478937909) 88 172 1
(0.07358068481 0.4632096576 0.3603929801 0.1028166775) 58 115 2
(0.2146873008 0.3926563496 0.06088426019 0.3317720894) 178 349 2
(0.8081355652 0.05679313688 0.03913908051 0.09593221739) 85 110 2
(0.094599799 0.4527001005 0.0661071916 0.3865929089) 29 58 1
(0.08839116906 0.4558044155 0.07053160611 0.3852728094) 27 55 1
(0.2508633437 0.01596512765 0.3586032005 0.3745683281) 41 23 2
(0.4691395543 0.1461742748 0.119255948 0.2654302229) 20 1076 1
(0.6077689376 0.1961155312 0.04599687887 0.1501186523) 146 286 2
(0.2824194481 0.358790276 0.2409735473 0.1178167286) 149 1045 2
(0.3743970939 0.312801453 0.01086518946 0.3019362636) 59 117 1
(0.1636929142 0.2886076595 0.1295458834 0.4181535429) 20 1076 1
(0.5728911828 0.2135544086 0.08736849376 0.1261859148) 45 87 2
(0.4472557983 0.08491301859 0.2763721008 0.1914590823) 232 458 2
(0.1581538031 0.1194581652 0.4209230984 0.3014649333) 201 397 2
(0.3073737668 0.009126711066 0.3463131166 0.3371864055) 110 218 2
(0.185563519 0.2414192285 0.165799012 0.4072182405) 145 228 2
(0.5279039193 0.1800705342 0.2360480404 0.05597750613) 268 529 2
(0.6839892005 0.01241240544 0.1455929943 0.1580053997) 161 317 1
(0.2413565307 0.0009921154347 0.3793217346 0.3783296192) 200 395 2
(0.7502821303 0.1248589348 0.001564296944 0.1232946379) 54 108 1
(0.4165379917 0.2917310041 0.1895985354 0.1021324688) 48 95 2
(0.1489045391 0.3593252094 0.4255477304 0.06622252104) 109 213 1
(0.02407145961 0.3153612335 0.1726030367 0.4879642702) 177 291 2
(0.3041305639 0.3440578429 0.003876875161 0.3479347181) 170 335 1
(0.3080351009 0.176446623 0.1695358266 0.3459824495) 84 108 2
(0.3534730309 0.03277203381 0.2904914508 0.3232634846) 79 156 1
(0.05845753276 0.4707712336 0.1969516822 0.2738195515) 22 1078 2
(0.1522545075 0.4238727463 0.4164533472 0.007419399066) 55 110 1
(0.4771223373 0.2614388313 0.02724574178 0.2341930896) 85 168 2
(0.9076900604 0.04615496981 0.02571892238 0.02043604743) 88 174 2
(0.09041070069 0.3741986035 0.4547946497 0.08059604613) 58 116 2
(0.4292800903 0.2853599549 0.2522431719 0.03311678299) 23 47 1
(0.2278719152 0.3860640424 0.05525184897 0.3308121934) 178 351 2
(0.4800661916 0.2599669042 0.01115556362 0.2488113406) 175 287 1
(0.1111087592 0.4444456204 0.2367940495 0.2076515709) 258 509 1
(0.07873465438 0.4606326728 0.06462465881 0.396008014) 75 148 2
(0.1971877051 0.1279883412 0.2734178063 0.4014061475) 173 283 2
(0.01954180559 0.2010174167 0.4902290972 0.2892116805) 147 291 2
(0.1321242085 0.4339378958 0.1212853972 0.3126524986) 57 111 2
(0.0472176839 0.4763911581 0.2900927897 0.1862983684) 58 116 1
(0.6022231434 0.02175855754 0.1771298708 0.1988884283) 108 213 1
(0.4926612252 0.2304746482 0.02319473921 0.2536693874) 82 104 2
(0.576753297 0.161372731 0.2116233515 0.05025062045) 52 104 2
(0.740403974 0.08979343414 0.04000457887 0.129798013) 27 1083 1
(0.1723816933 0.4138091533 0.1979013921 0.2159077612) 178 349 2
(0.2861601174 0.2462697837 0.1106501576 0.3569199413) 354 697 1
(0.07803041524 0.3945685343 0.06641625808 0.4609847924) 203 342 2
(0.5004513556 0.2307547059 0.2497743222 0.01901961626) 299 587 1
(0.3843250359 0.307837482 0.1722413213 0.1355961607) 82 160 2
(0.3006953669 0.1168428793 0.2328094372 0.3496523166) 298 529 2
(0.3236034755 0.05875352076 0.2794447415 0.3381982622) 58 57 2
(0.05818216815 0.4709089159 0.1733937406 0.2975151753) 143 283 1
(0.2949048589 0.3525475706 0.257776932 0.09477063856) 57 114 1
(0.0664358328 0.4667820836 0.07773735458 0.389044729) 142 280 2
(0.02332418728 0.4883379064 0.406734006 0.08160390035) 203 342 1
(0.2811604341 0.359419783 0.2045424084 0.1548773746) 415 818 1
(0.320590895 0.3397045525 0.1130838798 0.2266206727) 297 527 1
(0.5008368276 0.2495815862 0.0984514406 0.1511301456) 21 42 2
(0.6317967222 0.1841016389 0.1739309461 0.0101706928) 85 110 1
(0.225636353 0.1610724437 0.2261093798 0.3871818235) 48 37 2
(0.8076343562 0.09618282189 0.02523377695 0.07094904494) 25 48 2
(0.4867898303 0.2336357363 0.02296934853 0.2566050849) 200 394 1
(0.05394260008 0.267661973 0.4730287 0.205366727) 179 351 1
(0.5871481229 0.2064259386 0.04950379452 0.156922144) 102 202 1
(0.1094269158 0.4234366999 0.4452865421 0.02184984216) 72 140 1
(0.06893112887 0.1740346449 0.4655344356 0.2914997907) 178 352 2
(0.03347931495 0.4832603425 0.008106245857 0.4751540967) 177 291 1
(0.1210794161 0.2258526003 0.439460292 0.2136076917) 293 578 2
(0.0004155486984 0.3367191094 0.1630731163 0.4997922257) 81 102 2
(0.0536661074 0.4731669463 0.2697739115 0.2033930348) 111 220 1
(0.5629490574 0.2185254713 0.0213201247 0.1972053466) 27 54 2
(0.3812522197 0.2803482552 0.3093738901 0.02902563496) 328 644 1
(0.2319245403 0.2836881915 0.1003495384 0.3840377299) 17 34 1
(0.08022478181 0.4598876091 0.3681567422 0.09173086694) 100 139 1
(0.1400218961 0.3947142934 0.429989052 0.03527475858) 22 42 1
(0.6751355716 0.1624322142 0.1397081842 0.02272403) 234 403 1
(0.3817637644 0.3091181178 0.07055952818 0.2385585896) 206 407 1
(0.5012988289 0.2493505855 0.137812475 0.1115381105) 132 202 1
(0.7082316595 0.1458841703 0.07567229075 0.07021187951) 239 1048 2
(0.1877464006 0.3479356798 0.05819111988 0.4061267997) 208 352 2
(0.8337900829 0.08310495857 0.02776099128 0.05534396728) 174 341 2
(0.3941082906 0.2882312707 0.3029458547 0.01471458403) 55 110 2
(0.1897619694 0.002108462901 0.4030105524 0.4051190153) 234 403 2
(0.2716169971 0.3641915015 0.00408635534 0.3601051461) 414 813 2
(0.07059658392 0.149221045 0.464701708 0.315480663) 50 97 1
(0.1407439277 0.2281777988 0.2014502374 0.4296280362) 29 1085 1
(0.180294543 0.4098527285 0.2693664782 0.1404862503) 204 344 1
(0.6351235275 0.1344259604 0.0480122759 0.1824382363) 118 175 2
(0.1055980969 0.4472009516 0.3163379751 0.1308629765) 266 525 1
(0.0656514435 0.4671742782 0.3799794416 0.08719483666) 208 410 2
(0.7158389731 0.1420805135 0.09832713416 0.0437533793) 147 290 2
(0.4944662478 0.1355213999 0.1172454762 0.2527668761) 27 54 1
(0.709790695 0.09731280623 0.1451046525 0.04779184626) 173 339 1
(0.1130850145 0.4434574927 0.438676708 0.004780784698) 85 110 1
(0.6255614469 0.1469825909 0.1872192765 0.04023668561) 234 462 2
(0.6099799008 0.1887194897 0.006290559942 0.1950100496) 291 573 1
(0.5217997939 0.1000725422 0.1390275608 0.239100103) 357 645 2
(0.5099220434 0.05278555026 0.1922534281 0.2450389783) 264 520 1
(0.03766449504 0.3975946698 0.08357308272 0.4811677525) 239 1048 1
(0.05401697574 0.4729915121 0.3516983992 0.1212931129) 238 467 2
(0.02985815908 0.4850709205 0.0670083706 0.4180625499) 18 34 2
(0.1544974558 0.4227512721 0.2922711164 0.1304801556) 389 1053 2
(0.5433997321 0.03173274251 0.228300134 0.1965673914) 83 162 1
(0.06912508161 0.3943702825 0.4654374592 0.07106717672) 230 454 2
(0.05062531472 0.4746873426 0.003904148923 0.4707831937) 28 54 2
(0.6095728987 0.1952135507 0.08783083391 0.1073827168) 386 702 1
(0.1618540052 0.4190729974 0.2979931146 0.1210798827) 144 284 2
(0.3582734014 0.1105015738 0.3208632993 0.2103617255) 82 160 1
(0.1023366879 0.4488316561 0.2440638355 0.2047678205) 168 331 2
(0.8337460014 0.08312699928 0.03049428459 0.05263271469) 174 285 1
(0.3687962804 0.1080583721 0.3156018598 0.2075434877) 145 287 2
(0.3094382153 0.3452808923 0.2365425111 0.1087383813) 176 348 1
(0.5920363155 0.008762021228 0.2039818422 0.195219821) 118 234 2
(0.4260540009 0.1492149484 0.1377580512 0.2869729996) 146 230 2
(0.1954033245 0.07397075548 0.4022983377 0.3283275823) 173 339 1
(0.02639181545 0.4868040923 0.1651494246 0.3216546676) 52 45 1
(0.3893840243 0.1853156656 0.3053079879 0.1199923223) 26 50 1
(0.02997729353 0.308019961 0.4850113532 0.1769913922) 194 380 1
(0.4869535812 0.2565232094 0.148062947 0.1084602624) 49 97 2
(0.2556733951 0.2652511107 0.1069121917 0.3721633024) 50 99 1
(0.6384045467 0.1807977266 0.03718543338 0.1436122933) 208 408 2
(0.2367130466 0.02319037751 0.3584530992 0.3816434767) 45 89 1
(0.2883691293 0.3558154353 0.03579233696 0.3200230984) 79 157 1
(0.5043143871 0.1725256323 0.0753171741 0.2478428064) 449 825 2
(0.3763978955 0.3118010522 0.2439833588 0.0678176934) 59 1042 2
(0.1611550626 0.1858635893 0.4194224687 0.2335588794) 21 43 2
(0.4261846019 0.06514162505 0.2869076991 0.221766074) 19 36 1
(0.2145741835 0.378367591 0.0143453172 0.3927129082) 179 1046 1
(0.02004180653 0.4899790967 0.2324871083 0.2574919884) 24 1080 2
(0.1429467411 0.4285266295 0.3282890659 0.1002375635) 24 48 2
(0.04721290922 0.3190735595 0.4763935454 0.1573199859) 113 224 2
(0.2704032825 0.1013138526 0.2634845062 0.3647983587) 477 881 2
(0.0889409139 0.3745659137 0.4555295431 0.08096362935) 149 294 2
(0.1260593051 0.302161278 0.4369703475 0.1348090695) 28 54 1
(0.2129918603 0.196765712 0.1967383578 0.3935040698) 206 348 2
(0.04905836243 0.06074413236 0.4754708188 0.4147266864) 85 169 2
(0.2194104955 0.3790423126 0.01125243969 0.3902947523) 355 641 2
(0.4185646118 0.173122913 0.1175947811 0.2907176941) 19 1075 1
(0.1686099309 0.4156950345 0.3551484976 0.06054653697) 296 581 2
(0.6407175543 0.1796412229 0.1064691598 0.07317206305) 116 229 2
(0.1080559672 0.1501458014 0.295826215 0.4459720164) 51 101 1
(0.1918212763 0.4040893619 0.2636840701 0.1404052918) 296 583 2
(0.2517221404 0.07463692605 0.2995020038 0.3741389298) 52 45 2
(0.03629841517 0.3577593091 0.4818507924 0.1240914833) 137 268 1
(0.1795800509 0.4102099746 0.3385184764 0.0716914982) 262 516 2
(0.168858683 0.06007880684 0.4155706585 0.3554918517) 148 293 2
(0.1596238161 0.4201880919 0.06244868209 0.3577394099) 25 1081 2
(0.001875728649 0.4990621357 0.1598857049 0.3391764308) 208 410 2
(0.5191924384 0.2404037808 0.1965457511 0.04385802968) 82 162 2
(0.001099862071 0.499450069 0.1351928099 0.3642572591) 48 96 1
(0.447528358 0.276235821 0.02360871377 0.2526271072) 178 352 1
(0.771518307 0.00236758616 0.1118732604 0.1142408465) 48 37 2
(0.5761153219 0.2119423391 0.1923893772 0.01955296182) 229 393 1
(0.3873935184 0.3063032408 0.12545519 0.1808480508) 58 57 1
(0.6499213441 0.175039328 0.09982712795 0.07521220002) 478 2204 1
(0.4111136111 0.2109794764 0.2944431945 0.08346371807) 27 52 1
(0.4172708813 0.2913645593 0.01121656294 0.2801479964) 234 461 2
(0.2248404433 0.3875797784 0.1565326962 0.2310470822) 52 104 1
(0.2410489461 0.003268614406 0.3762069126 0.379475527) 85 168 1
(0.500192871 0.2499035645 0.02700031141 0.2229032531) 208 411 1
(0.4559006054 0.1177453545 0.2720496973 0.1543043428) 144 282 1
(0.1785919346 0.4107040327 0.2168624824 0.1938415503) 168 273 1
(0.03368978563 0.4562560623 0.4831551072 0.02689904493) 58 113 1
(0.34628568 0.04797304037 0.2788841196 0.32685716) 79 98 2
(0.1113934672 0.4443032664 0.2480915561 0.1962117103) 112 222 1
(0.1763489363 0.4118255318 0.003881770395 0.4079437614) 43 27 1
(0.346195642 0.0601809812 0.326902179 0.2667211978) 177 347 1
(0.5658980095 0.09276789694 0.1242830983 0.2170509953) 52 45 2
(0.4368307064 0.1996627701 0.08192187676 0.2815846468) 172 339 1
(0.1709774327 0.4145112837 0.05430425444 0.3602070292) 113 221 2
(0.4461930333 0.06900766625 0.2078958171 0.2769034834) 21 1077 1
(0.6394341924 0.1802829038 0.07382028819 0.1064626156) 178 349 2
(0.5320950868 0.2339524566 0.1424943508 0.0914581058) 233 401 1
(0.3405310986 0.3297344507 0.06736394788 0.2623705028) 294 577 2
(0.64127503 0.179362485 0.1743556151 0.00500686993) 104 203 2
(0.5751806233 0.1970285724 0.01538111594 0.2124096883) 169 333 1
(0.4257506392 0.2871246804 0.1371420014 0.149982679) 111 217 2
(0.3637203779 0.318139811 0.07523568715 0.2429041239) 86 170 2
(0.3028885372 0.1822260382 0.1663296932 0.3485557314) 20 1076 1
(0.07738306497 0.443063761 0.01824470649 0.4613084675) 387 762 1
(0.7480011108 0.03022205496 0.09577738962 0.1259994446) 16 32 1
(0.1178065722 0.2583732441 0.4410967139 0.1827234698) 170 336 2
(0.3962373116 0.3018813442 0.001454739944 0.3004266042) 147 291 1
(0.3010834574 0.3494582713 0.1299547394 0.2195035319) 148 293 1
(0.2304322082 0.2799380093 0.3847838959 0.1048458866) 87 170 1
(0.6414171622 0.1792914189 0.1614180491 0.01787336983) 117 232 1
(0.196221813 0.4018890935 0.137080226 0.2648088675) 21 43 1
(0.4400423627 0.1504393311 0.1295394875 0.2799788187) 149 1045 1
(0.5196975905 0.2401512047 0.05689148244 0.1832597223) 80 158 2
(0.03161338004 0.48419331 0.0526595223 0.4315337877) 69 78 1
(0.2768524944 0.2730550302 0.08851872255 0.3615737528) 145 228 2
(0.7657080626 0.04769948757 0.06944648112 0.1171459687) 442 812 2
(0.3029754171 0.3485122915 0.2584373722 0.0900749193) 232 457 2
(0.4671074894 0.2664462553 0.05869311809 0.2077531372) 353 637 1
(0.7067179453 0.1466410274 0.103405872 0.04323515541) 44 85 2
(0.07305406835 0.4634729658 0.06287555733 0.4005974085) 209 1047 2
(0.1711222919 0.414438854 0.287627058 0.126811796) 108 211 2
(0.5291440487 0.05094307979 0.2354279757 0.1844848959) 54 105 1
(0.3467154602 0.2702703193 0.3266422699 0.05637195062) 57 111 1
(0.07177431442 0.4641128428 0.09292550098 0.3711873418) 27 1083 2
(0.4708566918 0.2645716541 0.181356895 0.08321475909) 15 28 2
(0.0525022798 0.3306131619 0.1431356982 0.4737488601) 79 156 1
(0.02561723567 0.4340097667 0.0531816155 0.4871913822) 230 395 2
(0.4855272903 0.2572363548 0.05136652584 0.205869829) 28 54 2
(0.02938461129 0.03990728018 0.4454004142 0.4853076944) 209 1047 1
(0.04375678027 0.4781216099 0.4005257407 0.07759586914) 51 43 1
(0.2245835083 0.3877082459 0.07446946479 0.3132387811) 87 173 1
(0.3987528739 0.1161918379 0.1844317251 0.300623563) 198 332 2
(0.4566181455 0.2716909272 0.01826530487 0.2534256224) 477 881 1
(0.334280617 0.3328596915 0.02734243645 0.3055172551) 235 464 1
(0.4122266694 0.2938866653 0.01456587775 0.2793207875) 478 936 2
(0.3835782416 0.3082108792 0.1809515927 0.1272592865) 20 41 1
(0.09187625526 0.4540618724 0.3460041257 0.1080577466) 117 173 1
(0.4459490317 0.20303285 0.07399263411 0.2770254841) 173 283 2
(0.7809160737 0.074296881 0.03524508216 0.1095419632) 143 282 1
(0.2349705798 0.3825147101 0.3637886453 0.01872606479) 52 103 2
(0.07739932158 0.4613003392 0.2849976641 0.1763026751) 55 109 2
(0.1874539516 0.4062730242 0.4009429944 0.005330029807) 52 104 1
(0.006484786357 0.2276595469 0.2690980599 0.4967576068) 111 219 1
(0.3844651652 0.2690038164 0.03876360105 0.3077674174) 114 167 2
(0.0470341888 0.2911126829 0.4764829056 0.1853702227) 359 705 1
(0.011665286 0.2499828245 0.494167357 0.2441845325) 26 53 2
(0.04188387654 0.02301024814 0.4560478136 0.4790580617) 78 154 1
(0.138071539 0.4309642305 0.3990166102 0.03194762031) 26 53 1
(0.6141901729 0.08693366546 0.1929049135 0.1059712481) 118 231 1
(0.2106836486 0.1661891138 0.2284690619 0.3946581757) 24 1080 1
(0.002201958494 0.4988990208 0.1164063117 0.3824927091) 53 47 1
(0.1766422076 0.4116788962 0.4000131571 0.01166573905) 140 274 2
(0.6568083245 0.1715958377 0.1190365954 0.05255924236) 380 748 2
(0.1403640094 0.4298179953 0.03558366788 0.3942343274) 177 349 2
(0.08398596866 0.4580070157 0.3059212323 0.1520857834) 145 286 2
(0.1785971206 0.1717995033 0.4107014397 0.2389019364) 29 56 1
(0.2366995043 0.2217752231 0.1598750247 0.3816502479) 179 1046 1
(0.1824741755 0.2647216257 0.4087629122 0.1440412866) 111 220 2
(0.1867193258 0.4066403371 0.01662379101 0.3900165461) 323 634 2
(0.6830524744 0.02058981357 0.1584737628 0.1378839492) 264 521 2
(0.6265193204 0.1867403398 0.07893376596 0.1078065738) 225 385 1
(0.6064248494 0.1746667939 0.02212078138 0.1967875753) 111 219 1
(0.5973487115 0.05343899559 0.2013256442 0.1478866486) 299 589 2
(0.1113277054 0.4443361473 0.2138550835 0.2304810638) 53 105 2
(0.1079318063 0.4460340968 0.07409956772 0.3719345291) 11 20 2
(0.06343945996 0.46828027 0.3543752687 0.1139050014) 26 1082 2
(0.1394695662 0.3446596925 0.4302652169 0.0856055244) 82 160 1
(0.08049197214 0.3659252629 0.09382875104 0.4597540139) 50 41 2
(0.7742842782 0.1128578609 0.04636346107 0.06649439984) 146 289 1
(0.6439385692 0.1105312385 0.1780307154 0.06749947688) 263 516 1
(0.1364456889 0.4317771556 0.08585987467 0.3459172809) 26 52 2
(0.05302623679 0.01423013697 0.4734868816 0.4592567446) 19 36 1
(0.4119220844 0.03062664225 0.2940389578 0.2634123155) 118 231 1
(0.3291193614 0.3350626113 0.0003777080444 0.3354403193) 359 1052 1
(0.7324284045 0.003114877446 0.1337857977 0.1306709203) 171 338 2
(0.1812286945 0.4093856528 0.06682302683 0.3425626259) 259 510 2
(0.5295793232 0.2352103384 0.07131874049 0.1638915979) 149 235 1
(0.5567136037 0.2216431981 0.1064912978 0.1151519004) 238 467 2
(0.3916616804 0.04228282782 0.261886332 0.3041691598) 116 171 2
(0.2531321587 0.06718155943 0.3062523612 0.3734339207) 297 527 2
(0.2167107719 0.3507854593 0.04085915473 0.3916446141) 111 219 1
(0.06164955375 0.4691752231 0.2853423133 0.1838329098) 24 46 2
(0.5045182445 0.2477408778 0.1420451416 0.1056957362) 51 99 2
(0.4120025959 0.2894017884 0.2939987021 0.004596913677) 47 94 2
(0.5585224759 0.220738762 0.1801703999 0.04056836217) 22 45 1
(0.09957664062 0.4502116797 0.4456489247 0.004562754953) 296 525 1
(0.3411552191 0.3056055013 0.02381688919 0.3294223904) 147 290 1
(0.461131049 0.140937352 0.2694344755 0.1284971235) 291 574 2
(0.3213517419 0.2197136057 0.3393241291 0.1196105234) 167 327 1
(0.3199852768 0.3400073616 0.03180356054 0.3082038011) 22 44 2
(0.05030648507 0.4748467575 0.07060334613 0.4042434113) 149 235 1
(0.430429831 0.2847850845 0.02387767945 0.2609074051) 233 459 2
(0.2504997024 0.0585035442 0.3747501488 0.3162466046) 380 749 2
(0.742430668 0.03263515592 0.128784666 0.09614951007) 254 498 1
(0.1239751647 0.3286200189 0.1093923987 0.4380124176) 175 287 2
(0.06224791849 0.3751934873 0.4688760408 0.09368255347) 53 103 1
(0.04189288809 0.479053556 0.2512743377 0.2277792182) 57 114 1
(0.1300475582 0.4349762209 0.3931206772 0.0418555437) 177 349 2
(0.5049641878 0.2475179061 0.08101156411 0.166506342) 264 521 1
(0.7094058675 0.1452970662 0.07211620649 0.07318085976) 15 31 1
(0.1359466001 0.1669721822 0.2650545178 0.4320266999) 148 292 1
(0.6372208324 0.1813895838 0.05606914155 0.1253204423) 15 28 2
(0.143156481 0.1973904929 0.2310312666 0.4284217595) 208 410 1
(0.05284756993 0.2116128768 0.473576215 0.2619633382) 254 498 1
(0.1715748995 0.04228182923 0.4142125502 0.371930721) 119 233 1
(0.2078665891 0.3960667054 0.07345154682 0.3226151586) 235 463 2
(0.0001968426638 0.4483815797 0.05151999896 0.4999015787) 112 163 2
(0.1885434286 0.4057282857 0.240476704 0.1652515817) 85 166 2
(0.2125869622 0.2647116842 0.1289948347 0.3937065189) 55 109 1
(0.1701219388 0.214227835 0.2007111956 0.4149390306) 20 40 1
(0.5949334478 0.1869052661 0.01562801002 0.2025332761) 27 54 1
(0.1219121526 0.4390439237 0.05310584285 0.3859380809) 118 233 2
(0.4764008062 0.2417676792 0.02003191772 0.2617995969) 20 40 1
(0.2294596976 0.1014373897 0.3852701512 0.2838327615) 26 53 2
(0.1255802992 0.4372098504 0.07377432277 0.3634355276) 85 169 1
(0.2207373955 0.2514376539 0.3896313023 0.1381936484) 111 220 2
(0.03376253726 0.4831187314 0.3596044246 0.1235143068) 148 293 1
(0.4754340939 0.02005778544 0.2422251676 0.2622829531) 59 58 2
(0.6609484418 0.1206129057 0.0489128734 0.1695257791) 22 1078 1
(0.03238555753 0.4838072212 0.2381389428 0.2456682785) 57 111 2
(0.269867741 0.3650661295 0.05047816788 0.3145879616) 233 459 2
(0.03163497784 0.4841825111 0.115095064 0.3690874471) 329 589 1
(0.640797496 0.179601252 0.1543011736 0.02530007834) 27 1083 2
(0.04384891618 0.4780755419 0.3140492735 0.1640262684) 325 640 2
(0.05640562186 0.4717971891 0.4070916988 0.06470549028) 87 170 2
(0.4380736802 0.2809631599 0.05007254268 0.2308906172) 84 166 2
(0.09919665216 0.4504016739 0.1040305236 0.3463711503) 142 278 2
(0.1091654744 0.4454172628 0.3991941809 0.04622308196) 385 758 2
(0.4382334505 0.2808832747 0.2075324915 0.07335078322) 46 89 2
(0.1000401802 0.2490273206 0.2009525893 0.4499799099) 140 218 2
(0.6150567627 0.1924716186 0.1521724669 0.04029915175) 175 346 1
(0.5057407682 0.2471296159 0.09430299782 0.1528266181) 109 213 2
(0.0001910150961 0.4999044925 0.3062075628 0.1936969297) 109 213 2
(0.4023025367 0.1731547432 0.2988487316 0.1256939884) 29 56 1
(0.09027504153 0.2043345253 0.250527954 0.4548624792) 107 211 1
(0.9829188626 0.005215619579 0.003324949143 0.008540568722) 140 276 1
(0.3086164278 0.3019400509 0.0437517352 0.3456917861) 17 1073 1
(0.1498519278 0.4250740361 0.1304945667 0.2945794694) 89 176 1
(0.1555021102 0.4222489449 0.3040891653 0.1181597796) 233 401 1
(0.2317576842 0.3841211579 0.2277403814 0.1563807765) 55 110 1
(0.2813380106 0.3593309947 0.05710766146 0.3022233333) 22 45 1
(0.2031316367 0.3984341817 0.342867647 0.05556653471) 204 344 1
(0.2949463731 0.2858136916 0.06671312185 0.3525268134) 83 106 2
(0.2684300672 0.3474888778 0.3657849664 0.01829608854) 170 333 1
(0.01246128547 0.3791229906 0.1146463667 0.4937693573) 78 154 1
(0.7490567065 0.1254716468 0.09005039693 0.03542124982) 170 336 1
(0.02246749351 0.4887662532 0.4744779951 0.01428825819) 257 448 1
(0.2182945102 0.3908527449 0.05867873633 0.3321740086) 142 280 2
(0.5199506109 0.2400246946 0.0976559262 0.1423687684) 176 347 2
(0.04959839952 0.4752008002 0.09495637327 0.380244427) 58 113 2
(0.3116313049 0.0393373631 0.3048469845 0.3441843476) 81 102 2
(0.6469134265 0.005551682505 0.1765432867 0.1709916042) 79 154 1
(0.1874536183 0.4062731909 0.2250851194 0.1811880714) 117 173 1
(0.7605377279 0.0763732599 0.04335787614 0.119731136) 51 43 2
(0.237784123 0.2962894062 0.08481853225 0.3811079385) 442 870 1
(0.2477815345 0.2545720427 0.1215371901 0.3761092328) 28 1084 1
(0.4492124587 0.2753937706 0.006624007639 0.268769763) 355 641 1
(0.2310139748 0.3755378541 0.008955158521 0.3844930126) 205 404 1
(0.7836599173 0.002765017591 0.1081700414 0.1054050238) 79 157 2
(0.03692274051 0.3707401482 0.1107984815 0.4815386297) 20 40 1
(0.5903021603 0.1886524229 0.01619649694 0.2048489199) 264 462 2
(0.1754912413 0.4122543793 0.115457215 0.2967971644) 20 40 2
(0.2001900116 0.3999049942 0.3878372171 0.01206777712) 449 1055 2
(0.6160556197 0.1919721902 0.05561646924 0.1363557209) 26 53 1
(0.5183141985 0.2408429007 0.1813168624 0.05952603829) 205 404 2
(0.4539818152 0.04794240618 0.2250666862 0.2730090924) 268 528 1
(0.08514571577 0.1277958205 0.4574271421 0.3296313216) 19 36 1
(0.1218001574 0.2335619604 0.4390999213 0.2055379609) 27 55 2
(0.4452442165 0.1258769524 0.1515009393 0.2773778917) 57 113 1
(0.4995505511 0.2502247244 0.005141542477 0.245083182) 46 91 2
(0.2527452814 0.3736273593 0.3006144003 0.07301295901) 203 342 1
(0.04181474633 0.4790926268 0.4525021797 0.02659044717) 17 34 2
(0.1502639426 0.4248680287 0.2796384638 0.1452295649) 144 226 1
(0.3434897359 0.03009339653 0.2981617355 0.3282551321) 110 159 2
(0.3496377453 0.1809202772 0.3251811273 0.1442608501) 117 229 1
(0.6281869286 0.1604063416 0.02550019404 0.1859065357) 172 339 1
(0.7620681155 0.02264147183 0.1189659423 0.09632447043) 233 457 1
(0.6100885638 0.1949557181 0.05051798957 0.1444377285) 87 170 2
(0.727043944 0.03314853225 0.136478028 0.1033294958) 208 408 1
(0.8136670925 0.004377099885 0.08878935387 0.09316645376) 322 634 1
(0.7532151981 0.123392401 0.07033645853 0.05305594245) 22 45 1
(0.9572933443 0.0127901357 0.02135332785 0.008563192154) 49 95 1
(0.1695631668 0.4152184166 0.1060956142 0.3091228023) 23 46 2
(0.1563692386 0.1559133079 0.4218153807 0.2659020728) 227 448 2
(0.0534729536 0.4732635232 0.004033949132 0.4692295741) 96 187 2
(0.1364344803 0.4317827598 0.3325522087 0.09923055109) 88 175 1
(0.02001378083 0.4899931096 0.08891239724 0.4010807123) 298 585 2
(0.2814329269 0.3592835365 0.1992188766 0.1600646599) 21 1077 2
(0.01253451502 0.4595946841 0.4937327425 0.03413805839) 106 207 1
(0.4373763755 0.2813118123 0.2440494904 0.03726232188) 82 163 1
(0.5034150567 0.2240470629 0.2482924716 0.02424540877) 47 91 1
(0.213685992 0.393157004 0.08458758696 0.308569417) 236 465 2
(0.119372749 0.4403136255 0.03788505901 0.4024285665) 26 50 2
(0.004306105104 0.3414969755 0.4978469474 0.1563499719) 14 29 2