/*--------------------------------*- C++ -*----------------------------------*\
| =========                 |                                                 |
| \\      /  F ield         | OpenFOAM: The Open Source CFD Toolbox           |
|  \\    /   O peration     | Version:  2406                                  |
|   \\  /    A nd           | Website:  www.openfoam.com                      |
|    \\/     M anipulation  |                                                 |
\*---------------------------------------------------------------------------*/
FoamFile
{
    version     2.0;
    format      ascii;
    arch        "LSB;label=32;scalar=64";
    class       scalarField;
    location    "0.009/lagrangian/dsmc";
    object      Ei;
}
// * * * * * * * * * * * * * * * * * * * * * * * * * * * * * * * * * * * * * //


9421
(
5.733555784e-21
2.178595585e-20
6.006964759e-20
4.32100631e-21
5.995799855e-23
8.998325688e-21
1.683853656e-20
1.476983548e-20
1.348472422e-20
2.385459315e-20
1.091368317e-20
1.587293807e-20
3.538814441e-21
2.426005253e-21
1.06357554e-21
2.685776046e-21
6.943182239e-21
7.59725505e-21
2.675310329e-21
2.660552672e-22
1.999896068e-21
2.332719467e-20
6.747184172e-21
3.75574975e-20
2.262783276e-20
4.957566081e-21
2.352620493e-20
8.496616755e-21
1.749179665e-21
1.003641123e-22
4.631805057e-21
6.030068071e-21
1.647188735e-20
1.220514106e-20
1.548842823e-21
1.798221106e-20
2.388756731e-22
9.377208424e-21
2.66480689e-22
3.787008774e-21
1.569880162e-21
2.427385214e-21
6.184949586e-22
7.704206297e-21
1.347483067e-20
4.546981428e-22
1.080840763e-20
6.653472122e-21
2.591304312e-21
8.098765424e-21
3.530566818e-21
1.125436683e-21
6.291944931e-21
7.327061825e-22
2.989635179e-21
1.851802244e-22
1.460630423e-20
1.196424792e-20
2.057382094e-20
8.800026878e-21
3.666114433e-21
1.670998909e-20
1.429720193e-20
3.11930943e-21
3.256078183e-21
9.477871119e-21
1.307619414e-20
2.539797751e-21
5.500919007e-21
7.298774242e-21
9.169606637e-21
2.646504229e-20
2.334455687e-21
1.133361741e-20
2.032339673e-20
2.372459956e-21
1.925504719e-20
3.320489217e-21
1.645222603e-20
5.979930643e-21
4.242143748e-22
6.966883258e-21
4.115635281e-21
3.459991192e-21
1.71657485e-20
6.001235176e-22
7.394833761e-21
6.651019416e-21
2.47408478e-21
6.306211387e-21
2.84623478e-21
2.147872257e-21
6.754652855e-21
8.929107512e-21
9.73998625e-21
8.949663457e-21
1.239376305e-21
5.828819783e-21
1.746642202e-20
3.649908537e-21
2.293861498e-20
3.342117322e-21
1.344057418e-20
7.732099236e-21
1.977315257e-20
6.361060925e-21
1.472574525e-20
3.320228922e-21
1.736714128e-20
1.593170066e-20
1.358200511e-21
2.368052957e-20
5.902764556e-21
2.805633351e-21
2.875244418e-21
8.334903121e-22
8.261711732e-21
1.587918602e-20
2.007909039e-23
1.879273991e-21
8.362157776e-21
5.533996109e-21
5.813079712e-21
4.583338334e-21
2.333723597e-21
6.955716812e-21
1.605140828e-21
1.856874479e-22
1.392262429e-21
1.043276327e-20
2.721844291e-21
7.351949534e-21
1.444582064e-20
2.94944212e-20
6.267425278e-21
6.596945187e-21
3.900588153e-20
3.718081549e-21
2.356941911e-21
5.719170317e-20
7.331708443e-21
4.47891463e-21
3.295901717e-21
1.081526317e-20
3.740071544e-21
6.010148983e-21
3.285560904e-20
1.307571333e-20
2.561288094e-20
3.7177994e-21
7.688713099e-23
3.274379715e-21
8.162237867e-21
1.394982775e-21
3.562356779e-21
6.240949948e-21
2.151559112e-20
1.254490626e-20
6.466196259e-24
1.349320119e-20
7.861088753e-21
1.697454932e-20
1.222823312e-20
6.730162899e-21
7.831972853e-21
6.695897155e-21
7.849640026e-22
5.898037568e-22
7.599246104e-21
1.955247622e-21
9.248661461e-21
1.479720731e-21
5.149367561e-22
3.127132146e-21
1.674372464e-20
1.51492129e-21
2.440759934e-21
1.304972359e-20
4.290331508e-21
9.334645776e-21
1.346712171e-21
1.359636766e-20
1.009109736e-20
6.558588947e-21
5.087448811e-20
8.188827258e-22
1.276145069e-21
1.561910202e-20
4.09430879e-21
2.486857309e-21
2.196976778e-21
5.829162663e-21
6.576387728e-21
1.570343098e-20
2.406086597e-20
1.739395908e-20
7.088742267e-20
1.37639888e-20
3.378567057e-20
2.843519198e-21
5.323606676e-21
3.198038675e-22
5.090018787e-21
2.733611111e-21
4.092078135e-21
1.66293933e-20
1.287901563e-20
3.399003951e-21
1.084598666e-20
1.271344009e-20
1.103352766e-20
2.074569706e-21
1.967250578e-21
7.988759867e-22
4.26558274e-21
2.471995176e-21
3.864881544e-21
1.479126571e-20
2.179889261e-21
9.686940475e-21
1.154985904e-21
2.291522193e-20
2.08625091e-21
7.091452657e-20
3.346749666e-21
2.857558114e-20
7.665092494e-21
1.582491689e-21
1.058588948e-20
3.776268368e-20
3.322339933e-21
1.66097892e-20
2.69886091e-21
5.558868275e-21
8.444893184e-21
2.844161702e-21
1.307798712e-20
6.245122115e-21
5.814942394e-21
2.148521665e-21
2.925210371e-21
9.666893839e-21
1.396753719e-20
8.125561239e-21
1.183925119e-20
3.222829434e-21
1.117292116e-23
2.55713258e-21
4.684482779e-21
1.089906648e-20
1.215789932e-20
1.952494704e-20
2.677481699e-20
2.008067186e-20
4.11318042e-21
4.623807821e-20
4.04300715e-21
5.832276712e-20
7.277855114e-21
1.526376557e-21
8.576161357e-21
9.675979868e-21
5.797996499e-21
3.074384553e-21
1.173000915e-20
9.294732948e-21
1.593922087e-20
2.668811918e-20
2.005769202e-20
2.299012596e-20
3.641446148e-21
3.93610328e-21
2.556001213e-21
3.220180784e-20
1.249132489e-20
9.524494867e-21
7.507000238e-22
5.085212436e-21
1.397637179e-20
9.824787648e-21
9.116586465e-21
7.241564362e-21
7.747946005e-21
1.406306527e-21
4.944598487e-21
4.023533725e-21
1.230705363e-20
1.081741387e-20
4.087564685e-21
4.258530388e-20
1.40277486e-21
5.483361218e-20
1.243521404e-20
3.364511184e-21
3.310612917e-21
5.268787342e-21
3.907769974e-20
9.715128849e-21
1.284183819e-20
1.260852583e-21
1.025382355e-20
2.363459612e-21
2.52890012e-22
5.708507302e-21
2.996593025e-21
4.856099383e-21
1.272791784e-21
6.915434074e-21
4.033213144e-22
5.691234888e-21
4.014615348e-21
6.088196038e-21
7.772112548e-21
6.709511623e-21
3.816895319e-20
5.384178589e-21
2.03277713e-20
8.124703301e-21
3.083460188e-21
2.772794168e-20
1.541010111e-20
1.230044949e-20
2.680234758e-23
9.118734681e-21
1.471223248e-21
8.171112495e-21
5.305231383e-22
2.189122937e-21
1.77060869e-20
1.242236117e-20
1.495769001e-21
5.335867052e-21
4.03122061e-21
2.806757732e-21
3.493412117e-21
1.400216109e-21
4.912599613e-20
1.094700441e-22
6.863339532e-20
1.459176882e-20
6.965256096e-21
9.475157333e-21
2.131481136e-20
2.136929447e-20
1.738579952e-21
1.347227213e-20
3.902516553e-20
2.485796569e-20
1.453517558e-21
2.71055355e-20
3.623252223e-21
3.088242473e-20
6.632265293e-22
1.368506943e-21
4.766428248e-21
5.079632539e-21
6.143291997e-21
2.216565999e-20
4.062800186e-21
1.474382527e-20
7.625905862e-21
3.538658058e-20
5.884950954e-21
7.940302901e-21
4.654922335e-21
1.070442052e-20
2.266037948e-21
3.065428793e-21
2.065201197e-21
1.038547916e-20
6.909558842e-21
2.841815092e-20
1.759199505e-20
3.084624229e-20
3.490045707e-20
1.247908704e-20
9.925540614e-21
3.91178347e-21
4.815048928e-22
5.10831566e-21
3.751650686e-21
1.669027863e-21
2.354943911e-20
1.797627343e-21
2.265261415e-20
2.208362357e-20
5.007668204e-20
4.067572947e-21
3.806024363e-20
1.206395569e-20
7.509297479e-21
2.518106622e-20
1.244940117e-20
2.94864916e-21
7.89889247e-21
4.97729498e-21
2.11715196e-20
1.630030745e-20
1.419384748e-20
2.002323648e-20
2.042096853e-20
5.14449805e-22
1.525980244e-20
5.553080083e-23
2.17370757e-21
3.817612854e-20
2.348328256e-20
1.027341145e-20
8.948098292e-21
4.896510906e-21
3.110286804e-21
8.19470446e-21
4.594411745e-20
2.315314323e-20
6.85214994e-21
6.361896084e-21
1.05120523e-21
2.446858949e-20
3.927647016e-21
4.253594216e-21
6.603162103e-20
2.833135679e-21
2.23171701e-22
1.15465016e-20
3.482604289e-21
3.377391081e-20
8.049744848e-21
6.181387751e-21
7.050412253e-21
9.265043841e-21
4.771398405e-21
3.775334156e-21
1.037855757e-20
1.71930002e-21
6.813539773e-22
3.023805048e-20
2.14483623e-21
1.23133193e-20
7.166153674e-21
2.958014819e-20
2.192948623e-20
8.650459261e-21
1.088049941e-20
1.107658356e-20
9.258162254e-20
1.344235935e-20
1.105812322e-20
4.25875328e-21
2.928263375e-20
3.158249196e-20
5.682037008e-21
4.000239739e-21
4.156241577e-21
8.511380603e-21
1.481597193e-21
2.069611557e-20
1.288414239e-20
3.279085156e-20
4.43218236e-21
6.012645712e-21
7.186228931e-21
3.013421952e-20
4.960115793e-21
1.768815019e-20
4.142691871e-21
8.676677931e-21
5.829590164e-21
2.198266585e-20
5.264176397e-20
7.296931381e-21
1.087393153e-20
1.137579689e-21
9.137033229e-21
3.199926569e-20
1.968394892e-20
1.783480625e-20
1.196348129e-21
2.709183831e-21
4.117920161e-21
8.070143404e-22
2.714009618e-20
4.399457086e-21
3.303806495e-20
3.191159773e-20
8.793101929e-21
5.432430498e-21
2.750878723e-20
1.884612637e-20
1.558272664e-20
3.488297927e-20
1.561943419e-21
1.333702201e-21
3.094939279e-21
1.2128401e-20
1.192180714e-20
1.044748519e-20
1.152385233e-20
3.104689827e-21
3.926684239e-20
1.778175901e-21
2.493078741e-20
8.710242478e-22
2.314808598e-20
6.214333361e-21
1.149502777e-20
2.86936473e-20
8.817827983e-21
2.021434652e-21
1.194782655e-20
5.007579347e-20
3.180501455e-21
2.482374857e-20
6.173608207e-21
1.064057709e-20
1.453391792e-20
6.640131117e-21
1.947757966e-20
1.032032942e-21
2.816582945e-20
1.888649588e-20
7.845212563e-21
9.939516676e-22
1.925021452e-21
3.253972872e-21
8.037358428e-21
5.182291018e-21
1.140708098e-20
9.507741137e-21
4.805473199e-22
1.334508414e-20
2.781808081e-21
4.990263026e-24
2.528302545e-20
4.01436317e-21
5.065740508e-20
9.515422597e-22
1.252238617e-20
1.304102444e-21
8.150871473e-21
6.264624161e-21
2.202675012e-20
2.790291998e-21
2.404510106e-20
7.33576567e-22
9.714949751e-21
1.350350509e-20
2.598335077e-20
3.840524058e-21
5.380831095e-22
2.173789307e-20
7.095483782e-21
1.787425609e-20
1.963066881e-20
4.369664986e-21
3.344463914e-21
1.794799355e-20
4.195358301e-21
1.034214898e-20
2.051411395e-20
1.774981858e-20
1.624724303e-21
1.540897259e-20
2.283495584e-20
1.947208093e-20
1.361127149e-20
5.293029731e-21
4.677662886e-20
1.746511565e-20
8.957819692e-21
3.424980306e-20
5.365092049e-22
3.127465239e-21
3.48415986e-21
1.214205721e-20
1.503214551e-21
7.0355076e-21
1.743601243e-22
3.468539579e-21
2.904371786e-20
8.44205741e-21
5.885359754e-21
1.979399502e-20
3.456844532e-21
8.295971182e-21
2.333514633e-21
2.489134862e-21
2.932503477e-20
7.057591901e-21
8.213723805e-21
1.520075794e-20
6.073817303e-21
4.999123036e-21
1.192125248e-20
5.830912979e-21
2.961811181e-20
9.76830181e-22
1.181924853e-21
2.164202442e-21
2.480468468e-21
1.589994274e-20
1.029512743e-20
5.113680818e-21
3.012233469e-20
5.827120673e-21
9.050170696e-21
9.710023167e-21
2.666220358e-20
2.590277317e-20
2.846068e-20
5.00207662e-21
6.259202884e-20
2.124735662e-21
8.100472667e-21
3.865147581e-21
9.952636001e-22
1.604756845e-22
1.748682842e-20
2.578839383e-21
3.016714044e-20
5.567331507e-21
6.216501189e-21
5.8939803e-21
2.627815666e-21
8.041400307e-21
1.549415038e-21
1.050051362e-20
2.215065083e-20
1.431747085e-20
5.005945988e-22
1.614367658e-21
9.953753075e-22
8.917708195e-21
4.63827898e-21
2.42892207e-20
1.776931675e-20
3.953321647e-20
4.780426716e-24
9.207144733e-21
1.031571244e-20
1.523094261e-20
1.645201141e-20
3.656230775e-21
1.863264911e-21
1.316728105e-20
8.896961315e-21
6.669124142e-21
7.227755561e-22
3.453596202e-20
1.75180849e-20
1.98238566e-21
3.806768463e-21
2.234923901e-21
9.801339829e-21
2.163272996e-21
1.023346136e-20
2.033398589e-21
3.58137687e-20
5.228319469e-21
3.671882404e-20
1.672440092e-21
8.394485731e-22
2.478058497e-20
3.246520505e-20
5.594898718e-21
5.187294125e-21
7.474532996e-21
2.538190746e-20
3.082243418e-21
1.871168206e-21
3.587081127e-21
2.974334582e-20
8.897632247e-21
3.705164961e-20
8.232490114e-21
4.524809935e-21
1.450862231e-20
1.851285959e-21
2.31910179e-21
7.874247246e-21
8.409958283e-22
1.392035081e-20
8.810534468e-21
4.134614681e-20
3.513467134e-20
6.356701755e-21
4.416835656e-21
9.740379371e-21
1.051838241e-21
5.492410034e-21
5.200162167e-21
9.98110528e-21
1.962514551e-20
1.825968166e-20
1.554501781e-21
1.723359751e-21
1.62658392e-21
1.245016327e-20
1.240064379e-20
9.317860803e-21
1.247501917e-20
8.882175331e-21
1.574473255e-20
1.135693729e-20
1.584210065e-20
2.418221685e-22
2.663345399e-22
8.783957907e-21
1.083480533e-20
6.822719978e-21
2.571984155e-21
1.317174262e-22
3.043967265e-20
4.488599521e-24
1.745515136e-20
1.655088581e-22
5.522745261e-20
5.832835094e-21
5.558504901e-22
1.550068996e-20
1.472240309e-21
8.456229994e-21
4.23340252e-21
2.633599856e-20
1.537059911e-21
1.059929801e-21
9.333500907e-21
8.161187871e-21
2.713427367e-20
8.588583968e-22
5.913555247e-22
5.769777583e-20
8.813391358e-21
2.181063833e-22
2.133564316e-20
1.075792596e-21
2.599755548e-22
1.380551403e-20
2.486933904e-21
4.817810044e-20
1.561690946e-21
3.757293693e-21
6.933836532e-21
3.744693423e-21
1.852754126e-20
1.780234759e-20
1.472534198e-21
3.122071998e-21
1.825009616e-22
4.716869296e-21
3.679313758e-20
1.339590189e-20
1.795266126e-20
2.096655184e-21
1.173927305e-21
5.127212306e-20
5.451778868e-21
1.13232396e-20
6.489911715e-21
6.704904494e-21
1.050279306e-20
1.53539623e-21
7.876477017e-21
1.910214651e-21
1.559591993e-20
1.921259871e-20
2.120695754e-20
1.688134183e-20
1.026101826e-20
5.509966944e-21
8.180340953e-21
1.828706829e-20
8.310195116e-21
1.258494083e-21
8.150796162e-21
7.284126554e-21
5.100334357e-21
1.204685001e-21
1.931494864e-20
8.462359063e-22
4.720928479e-21
6.778358604e-21
1.369549208e-22
1.755957785e-21
3.652534309e-21
6.917504957e-21
3.52749243e-21
1.557375769e-20
1.683027238e-20
3.545543463e-21
1.348624438e-20
1.488226041e-20
2.949221753e-20
6.190166929e-21
1.344909111e-20
2.49422082e-21
1.310316178e-20
3.134015795e-20
2.772284018e-20
2.060710935e-20
2.267844131e-21
1.085673391e-20
7.324980441e-21
4.165383177e-22
1.027413399e-20
5.048983296e-21
1.578876496e-21
7.207674662e-21
8.397003876e-21
1.811234944e-21
1.493437774e-20
2.315670114e-20
3.881357599e-21
3.209373988e-21
1.388373454e-20
4.792202048e-21
6.480146627e-22
8.253418139e-22
2.602206884e-20
4.267796957e-21
1.808845147e-20
1.274717201e-20
5.630313436e-22
9.762245255e-21
8.649898057e-21
9.64022223e-21
1.285699354e-20
2.873813465e-20
1.90586829e-21
1.828555494e-21
5.750259232e-21
1.489043081e-21
1.760120895e-20
6.98976327e-21
9.875286658e-22
9.089626057e-23
1.270630694e-20
9.033301705e-21
2.743712424e-20
2.683690919e-20
1.784161476e-20
8.632214424e-21
8.202399275e-21
7.293782217e-21
9.901224278e-22
1.802473651e-21
4.163636106e-21
5.145000524e-23
3.474803458e-21
5.514692492e-21
3.450286854e-20
3.032132201e-20
3.060414834e-21
8.471337974e-22
2.197758291e-20
1.327713567e-20
4.577745658e-21
2.979384853e-21
1.851514981e-20
8.841681467e-21
1.209098116e-20
2.355792278e-20
4.850670415e-21
4.352076401e-21
2.108593923e-21
1.904740322e-20
1.113571786e-20
8.755975287e-21
6.780694211e-21
3.379886783e-21
2.165877475e-21
5.195451474e-21
1.086720789e-20
4.999163224e-21
4.568094367e-22
1.151042292e-21
2.191747149e-20
4.460043505e-22
1.951474387e-20
8.61952825e-22
1.480637795e-20
3.418041715e-20
9.226082418e-21
1.81097899e-20
1.970813473e-20
1.094397119e-21
3.395114076e-22
8.323264533e-21
1.513150274e-20
6.515003388e-21
4.441248802e-21
8.955292844e-21
8.758267919e-22
1.705785661e-20
3.330981861e-21
1.515513146e-21
6.816363454e-21
1.048246572e-20
6.297202002e-22
2.896463285e-20
2.587961242e-20
1.622481035e-21
7.180949923e-22
3.741084162e-21
8.458081556e-21
3.047364704e-21
2.445685934e-20
1.826260418e-20
1.462849627e-20
2.614408513e-21
4.246712647e-21
7.553973997e-21
4.447675527e-21
5.90461247e-21
1.348501353e-20
9.475903462e-22
7.109606454e-21
2.321010804e-20
5.512827104e-21
2.015769116e-20
1.538107734e-20
3.229862875e-21
1.421205966e-20
9.826127694e-21
1.728189047e-20
2.64413019e-20
3.856535637e-20
2.567183547e-20
4.484034874e-20
1.711677192e-20
3.020084573e-21
5.616616875e-21
1.548741187e-20
2.095380411e-20
1.415576704e-20
8.855178444e-21
1.264700817e-20
7.912421319e-20
5.890503684e-21
2.650604746e-20
3.5097718e-21
1.520711698e-20
1.754529744e-21
7.708388402e-20
5.433232561e-21
5.453102357e-21
1.26790697e-20
3.341787574e-21
1.547306677e-20
6.468475313e-22
9.840956599e-21
1.510661086e-20
1.710653347e-21
2.384840467e-21
7.981440715e-21
3.911855176e-20
4.255104899e-20
2.084169449e-20
2.87468618e-22
5.491232734e-21
2.678343734e-20
1.68305014e-21
9.051473555e-22
1.834091281e-20
2.690553415e-20
2.148063641e-20
2.706195671e-21
2.236263874e-20
9.231001042e-22
3.607604436e-22
2.457648668e-20
1.131974265e-20
2.577003237e-21
7.157783958e-22
6.778410662e-22
7.102257646e-21
9.252886653e-21
2.937246875e-21
8.64428701e-21
1.201568728e-20
1.437418761e-20
4.90492749e-21
9.586340413e-21
2.115633559e-21
1.13830174e-21
1.446996391e-21
6.662020408e-21
2.422346424e-20
1.945436618e-20
1.027671628e-21
2.232466077e-21
1.4523668e-20
1.98684982e-21
2.970064408e-20
1.611512621e-20
4.015306445e-20
4.184341576e-22
1.088437243e-20
9.686005906e-22
2.282264314e-21
1.631683489e-21
9.83198499e-21
3.649799667e-22
3.531727335e-21
2.689679971e-21
5.168119204e-21
1.814710673e-20
2.991390111e-20
3.038042772e-22
1.166449626e-20
3.39962963e-21
3.034650411e-20
4.816227916e-21
1.46169881e-20
7.782627319e-21
8.135614304e-21
7.311131355e-21
1.686352387e-20
4.457622987e-21
2.345629785e-20
3.898182585e-21
1.229913327e-20
3.014096042e-21
1.392719544e-20
1.415624338e-21
1.10330387e-20
6.332814077e-21
3.947563514e-20
6.647337519e-23
1.102201299e-20
5.948789598e-21
6.322110067e-21
1.20129392e-20
3.439284085e-20
1.62132774e-20
4.074967216e-20
4.105640984e-20
1.230563623e-20
1.860818424e-20
6.78847535e-21
6.111057179e-21
1.129968204e-21
8.063342113e-22
1.318645492e-20
6.702518844e-21
2.391346956e-21
1.147930144e-20
2.038298068e-20
1.143175289e-20
2.872888337e-21
6.792094226e-21
2.972777884e-22
3.066174459e-22
7.241171544e-21
1.70826884e-21
4.290122862e-21
2.220299675e-20
1.577189293e-20
5.149899713e-21
2.681980348e-20
4.978261633e-21
1.525204898e-20
1.263499399e-20
9.742173022e-21
1.007778793e-20
2.254486725e-20
6.992989603e-21
7.980097913e-21
5.049172277e-21
4.921066343e-21
4.403159792e-20
1.957599564e-20
2.342418459e-20
4.119292513e-21
3.518240747e-21
5.981446067e-21
1.843073701e-20
2.412754568e-21
9.77432638e-21
2.313179041e-20
1.384088383e-20
2.381068267e-21
2.158898789e-20
2.934182752e-21
4.732026736e-22
5.640714316e-22
2.796068763e-20
5.292052505e-21
5.328978071e-21
8.111302755e-20
1.061763978e-21
5.138532404e-22
2.364638533e-20
4.980143955e-21
1.179257973e-20
1.127573697e-20
2.590807402e-20
4.49609637e-21
1.1391086e-21
2.292307963e-20
2.359621062e-21
8.547130467e-21
6.216998903e-22
2.191472941e-20
3.109576906e-20
1.106877363e-20
1.514157507e-21
6.804862897e-21
1.145561818e-20
1.842781498e-20
3.176440295e-21
1.507614816e-22
2.043713707e-20
3.942750643e-21
4.055512646e-21
2.015875303e-20
3.30855858e-21
8.683191185e-21
1.785346563e-20
7.213923229e-21
7.128492473e-22
6.570215182e-21
2.028547749e-21
4.54649012e-23
2.591451035e-20
7.725000359e-21
1.015144812e-20
7.684988503e-21
8.258018072e-21
2.790026987e-22
4.299525001e-21
4.94759457e-21
1.519700772e-20
4.122396332e-21
3.334698582e-20
1.571608908e-21
1.044791387e-20
7.455045155e-21
4.437145809e-21
1.481856945e-20
1.395439308e-21
1.966229512e-20
9.402667129e-21
4.134351951e-21
6.201417462e-21
2.971907413e-21
1.905226471e-20
3.142496672e-21
8.338290713e-21
4.132084018e-20
6.110069387e-21
6.326612193e-21
4.349696763e-21
2.793567246e-20
2.883379152e-21
5.161163899e-21
3.652506309e-21
1.966517628e-21
1.892376326e-20
9.333566098e-21
1.327330535e-20
4.868761855e-21
1.79815516e-20
4.634101816e-21
7.391145628e-22
1.209923347e-20
4.971387796e-21
3.106660969e-21
1.126667665e-20
1.941329458e-20
4.825059662e-21
4.757785549e-21
7.307517801e-22
3.234560229e-21
9.326645189e-21
1.844662209e-20
8.813023817e-21
2.035111015e-20
4.297051922e-20
1.122823767e-20
6.594258598e-21
8.842154546e-21
3.087254034e-21
6.644285056e-21
6.966178808e-21
1.227981967e-21
9.508649844e-21
5.830495532e-21
8.606527069e-21
1.10487963e-20
1.498786652e-20
5.761967943e-21
2.608811168e-20
6.800919539e-21
4.187116875e-21
3.56724073e-21
3.359249679e-20
1.267448281e-20
1.292703645e-20
1.437671126e-21
8.206921372e-22
5.875487681e-21
6.909579065e-21
2.00189935e-20
4.446928873e-21
7.083699563e-21
1.091108024e-20
3.667745e-21
2.72079592e-20
3.188929632e-21
2.570215039e-20
3.72931706e-20
6.377476153e-21
1.06672455e-20
8.998030129e-21
2.578288422e-20
2.586909669e-20
3.636181084e-20
2.756513152e-21
3.022465018e-20
4.13095309e-20
1.15017505e-20
3.006932971e-20
3.613669404e-22
1.041314977e-20
6.134620053e-21
7.316924017e-22
1.389861633e-20
1.012650134e-20
1.873052204e-21
4.423043769e-20
5.153609692e-22
1.151569559e-21
4.421329267e-20
3.386618844e-21
4.357905225e-21
1.394929894e-20
8.046077654e-21
6.891817661e-21
2.150950972e-20
2.233820003e-21
4.543394506e-21
8.798642416e-21
6.392468774e-21
9.185045245e-22
2.330180303e-20
5.524864863e-21
3.432364073e-22
3.691973532e-21
6.714541544e-21
2.702764645e-23
2.002218488e-20
7.998079953e-21
4.2873377e-21
1.106854109e-20
1.970562401e-20
6.293803439e-22
5.08237126e-21
3.652161844e-22
3.1468393e-20
2.358749423e-21
5.699329636e-21
1.394043585e-20
3.604224966e-22
1.061283059e-21
1.305271217e-21
3.613281341e-21
9.762576528e-21
7.14913278e-20
1.003369234e-20
5.046076636e-21
1.742653673e-20
1.385058969e-20
1.513888531e-20
1.035860193e-20
2.1355145e-20
2.291598314e-20
3.886967804e-20
3.708700277e-20
2.055811999e-20
7.8379158e-21
9.504244179e-21
8.240510078e-21
4.503114809e-21
3.104420656e-21
2.924834604e-20
2.954185677e-20
1.151123553e-20
2.901988496e-20
1.279249418e-20
4.631647999e-21
5.420024316e-21
2.089189346e-20
1.188653303e-21
5.803034858e-22
4.127717541e-20
7.652981901e-21
3.90448604e-21
5.966669923e-22
3.499590894e-20
3.269737695e-22
1.534106266e-20
2.623283922e-20
1.088439929e-20
3.511328401e-20
1.656622551e-20
1.447160255e-20
5.489630698e-22
6.060830274e-22
9.891013814e-21
8.120378393e-22
6.236484543e-22
3.723398652e-21
1.625701295e-20
8.01383033e-21
1.134553254e-20
8.110225355e-21
2.496404943e-21
7.516640322e-21
2.73764597e-21
2.003641412e-21
4.745643984e-21
1.51342322e-20
2.344863597e-20
3.644686914e-20
1.3212558e-20
9.617822971e-21
4.365665794e-21
1.455702876e-20
6.53691007e-21
8.327682031e-21
1.467928899e-20
2.098285289e-20
5.289818664e-21
5.218527293e-20
2.958533258e-20
3.635594179e-20
6.735923466e-20
1.787641667e-20
1.225938899e-20
1.281727821e-21
1.962209914e-20
3.698628402e-20
6.226653155e-21
2.327095375e-20
4.120136637e-20
1.081898445e-20
1.943722156e-20
8.285766183e-22
5.282412981e-21
2.814523493e-22
2.05717811e-20
3.4544868e-20
5.46610779e-21
7.409902617e-21
3.378602316e-20
7.534634818e-21
1.585359451e-21
4.255633057e-21
1.326288189e-20
6.146976794e-21
4.929386871e-21
1.214234592e-21
2.040202345e-20
1.448951171e-22
4.279226041e-21
1.551743076e-21
7.72061104e-21
6.011407725e-21
2.857299008e-22
8.22704282e-21
9.754159241e-21
5.415145151e-21
9.108393038e-21
5.050346739e-21
1.524837272e-21
9.178718289e-21
9.89448074e-21
2.142163611e-21
5.504803636e-20
1.853798278e-21
4.422828205e-21
1.492155985e-20
4.078243049e-21
5.412961347e-21
6.774497725e-20
1.79829781e-20
2.208253053e-20
2.332211897e-22
3.773503602e-20
2.94875121e-22
9.065153001e-21
2.890073978e-21
1.248771193e-20
7.15786644e-21
6.249606263e-21
1.795819235e-21
3.876803161e-21
5.643689014e-22
3.84732133e-21
3.562758692e-23
1.436795e-20
2.856292651e-20
1.037035452e-20
2.085096825e-20
1.402414412e-21
8.839455723e-21
6.980082553e-21
7.000854199e-21
2.11815146e-21
1.114913046e-20
5.937669566e-21
2.444453806e-20
6.512226119e-21
4.773657334e-21
2.611010807e-21
7.554127719e-21
1.147858878e-21
7.268515235e-21
6.360894775e-21
2.763396009e-22
3.62353579e-20
1.536335032e-20
1.773257426e-20
1.648853597e-20
1.423215502e-21
3.226428916e-20
5.940720617e-21
1.611909437e-20
1.136529616e-20
6.137991912e-21
1.063608738e-20
3.240275155e-21
8.481602646e-21
2.641765919e-21
5.448722734e-22
6.821308493e-21
8.101762497e-22
5.945015954e-22
3.305156594e-22
1.742026567e-22
6.026539276e-21
2.372533143e-20
1.600404674e-20
8.629854027e-23
2.660967488e-20
1.501994056e-20
1.151364418e-21
1.382245286e-21
5.180829527e-20
9.923033023e-21
1.654434663e-20
4.438084111e-21
1.721727353e-20
1.36323633e-20
1.489083063e-20
2.022645709e-20
3.868585812e-22
2.179151832e-20
5.907043063e-21
6.931687519e-21
6.173159504e-21
2.837276759e-20
2.820201361e-21
5.536705508e-20
3.080607245e-21
3.309030282e-20
1.483458098e-21
1.079690531e-20
1.276605617e-20
2.953270684e-20
4.599534561e-20
4.163448789e-21
1.666079231e-20
3.937274161e-21
8.85569062e-21
8.926723783e-21
1.045426713e-20
3.2074951e-20
3.141774211e-20
1.562800921e-20
3.575756215e-22
2.391493161e-21
3.562782771e-21
4.717619089e-21
5.348974025e-21
7.076626852e-21
2.280349024e-20
1.833683168e-20
7.069604705e-21
1.537320784e-22
1.076022501e-20
1.668391412e-21
1.946816047e-21
4.10140515e-20
1.108768179e-20
1.948019603e-20
2.236788493e-20
1.806016455e-21
2.259413638e-20
2.404411419e-20
3.383376143e-20
4.624067542e-21
1.04207036e-22
7.859525263e-22
7.687859321e-21
1.333823779e-20
2.24146735e-21
1.217699975e-20
7.249396113e-21
6.216311325e-21
8.540691451e-20
2.649557421e-21
5.862624837e-22
6.177102299e-21
3.285675064e-22
9.010390038e-21
3.258093828e-20
2.416718298e-20
1.095273247e-20
6.007239825e-21
1.880618205e-20
4.015644245e-21
1.111464579e-20
1.690233809e-21
4.934908652e-21
2.373773041e-22
3.377985694e-21
7.873138373e-21
3.039805428e-21
4.448697913e-21
8.643160089e-21
1.982923984e-20
2.409688455e-21
7.063875563e-21
4.961849466e-21
6.547015412e-21
1.512268681e-22
7.194504398e-21
3.421630983e-21
3.649000405e-21
7.079947984e-21
2.923192364e-20
6.823494848e-21
1.893543782e-20
1.180380139e-20
2.669425857e-20
1.75788432e-20
1.056192477e-20
1.668681909e-20
5.086064416e-21
8.123650579e-21
5.928620785e-21
2.363449067e-21
7.665017765e-21
7.638615315e-21
3.082582141e-20
5.565475294e-23
4.685499953e-20
2.251174707e-20
5.321640525e-21
2.76520517e-20
1.257599134e-20
1.631856998e-20
5.875383588e-20
7.496718372e-21
6.031970742e-21
3.007309882e-21
4.152493782e-20
4.601624073e-21
6.704969856e-21
9.501710654e-21
6.879006028e-20
4.761198235e-21
2.625234952e-20
2.564572391e-21
4.331444671e-23
1.896477311e-20
3.270561776e-20
3.579468668e-21
2.80686936e-20
7.709444731e-22
1.70785e-21
8.931313881e-21
1.247976854e-20
2.782308354e-21
8.882715708e-21
5.712255293e-21
2.531229545e-21
1.776974636e-20
3.418190785e-20
2.33241077e-21
1.691536278e-20
1.031111828e-20
9.147134221e-21
1.180985481e-20
2.000403386e-20
3.92945593e-21
5.95758345e-21
3.866733231e-21
1.493153039e-21
7.502470915e-21
2.722625521e-22
1.416460394e-20
6.124305351e-21
6.160035085e-21
1.314629527e-20
1.076076025e-20
3.650937371e-21
1.196904561e-21
1.838889339e-21
1.355080702e-20
1.668672576e-21
3.355722555e-20
3.046249061e-20
3.502391798e-20
2.158041803e-21
9.589822425e-21
3.239877749e-22
8.994982024e-21
2.751530184e-21
7.946653607e-22
1.049748337e-20
4.845770298e-21
1.986163948e-20
1.246214532e-21
2.060209086e-20
3.222963831e-20
9.978837086e-21
1.19816075e-20
5.46613262e-21
7.348855872e-21
2.479470656e-21
5.827895548e-21
1.711324139e-21
1.912841028e-20
4.698374094e-21
2.893243536e-20
9.19844405e-21
2.897905407e-23
5.834004609e-22
2.513066066e-20
1.59459343e-20
2.724256019e-20
5.272532797e-21
8.485189839e-21
5.463066793e-21
7.435898425e-21
6.813829524e-21
1.847944877e-20
3.805618056e-21
8.270986283e-21
1.913577098e-20
4.233364359e-21
1.289624568e-20
1.133801264e-21
1.12497233e-21
6.218905341e-21
1.915873597e-21
1.987068925e-20
9.192541154e-21
4.402499016e-21
2.535878914e-20
6.930807592e-21
6.001638285e-21
1.679450172e-20
1.254128758e-21
4.469013112e-20
1.141892499e-21
4.220548231e-21
4.543505259e-21
4.049314736e-20
7.79058444e-21
8.492510544e-22
1.424715967e-21
2.368336266e-21
2.803887146e-21
2.972302578e-21
4.807532132e-21
2.023576085e-21
4.470806644e-20
2.184751756e-20
7.816978893e-21
4.986910054e-21
3.685847426e-21
1.123619493e-20
9.628502775e-21
2.195945133e-21
3.76745316e-20
1.266291835e-20
1.652152479e-20
3.467019352e-21
5.698734309e-21
3.834024848e-20
4.93747593e-21
6.35182432e-21
3.458027335e-20
3.572931033e-20
8.55926689e-21
5.488168653e-21
9.61052685e-21
7.316333323e-22
6.305209612e-21
4.514939757e-21
1.200540771e-21
1.09832955e-20
1.321767632e-20
1.074787536e-21
1.241107334e-20
1.709364441e-22
1.249079085e-20
5.133854119e-21
6.530089871e-21
1.666551403e-21
1.510823817e-21
1.932266536e-20
5.303409322e-21
1.356379189e-21
9.849475835e-21
1.068756155e-20
1.20561109e-20
5.690268836e-21
1.268219177e-20
2.644913736e-20
4.332132894e-21
1.046222015e-20
1.021036033e-20
1.023713864e-20
5.504654975e-21
6.246801169e-20
2.182427557e-20
8.983241911e-21
1.866604355e-20
1.744245386e-21
1.911979646e-20
1.337740468e-21
4.08025724e-21
1.135525122e-20
3.511983503e-20
5.94197176e-21
6.681579044e-21
2.04322031e-21
6.071517768e-21
2.824360468e-21
5.662601748e-21
9.742359717e-22
9.040053738e-21
1.894298007e-21
5.297124714e-21
3.072631388e-21
1.584576597e-20
1.365251679e-20
1.669003096e-20
7.537319465e-22
2.257297242e-21
4.140776779e-20
4.056558197e-21
1.686037612e-20
1.597485596e-21
1.120658106e-21
1.326711865e-20
8.146790765e-21
8.338239353e-21
4.87715486e-20
1.857588672e-20
4.453857314e-21
3.316778037e-21
2.834036918e-20
1.58684789e-20
3.734142132e-20
1.524320276e-20
6.466381836e-22
7.863573265e-21
5.553859819e-21
6.80568838e-21
9.248649151e-21
3.753199846e-21
5.216734108e-21
1.990314525e-20
1.069998745e-21
6.174520728e-21
2.775696528e-20
1.188967517e-21
6.827589555e-21
3.193708995e-22
1.990529708e-20
8.420670392e-21
3.240533601e-22
2.580245408e-20
1.277460294e-21
9.19673965e-22
2.557426574e-21
8.749639124e-21
1.112059769e-20
3.367232919e-21
2.014392621e-22
6.176969784e-20
1.765959116e-20
8.421534554e-21
8.346074257e-21
1.28221708e-20
2.080955656e-21
5.047757546e-20
1.610907761e-21
4.888116294e-20
4.231438358e-23
1.728660548e-20
1.185301426e-21
1.211389061e-20
1.089928449e-21
5.947822629e-21
7.461350555e-21
2.387540858e-21
3.998130548e-22
4.445513847e-21
1.365793393e-21
2.77820503e-21
6.92993009e-20
1.837920751e-20
2.408333871e-20
1.423122337e-21
9.007324482e-20
1.909142636e-20
1.652308992e-20
1.118132916e-20
3.916424455e-21
4.112135764e-21
1.81392874e-20
6.262828266e-22
1.787503528e-20
5.424166023e-22
5.874882998e-22
3.216680436e-21
7.634811333e-21
1.958070866e-20
1.008369039e-20