/*--------------------------------*- C++ -*----------------------------------*\
| =========                 |                                                 |
| \\      /  F ield         | OpenFOAM: The Open Source CFD Toolbox           |
|  \\    /   O peration     | Version:  2406                                  |
|   \\  /    A nd           | Website:  www.openfoam.com                      |
|    \\/     M anipulation  |                                                 |
\*---------------------------------------------------------------------------*/
FoamFile
{
    version     2.0;
    format      ascii;
    arch        "LSB;label=32;scalar=64";
    class       labelField;
    location    "0.009/lagrangian/dsmc";
    object      origId;
}
// * * * * * * * * * * * * * * * * * * * * * * * * * * * * * * * * * * * * * //


9421
(
405831
421896
422573
423933
421261
423905
420944
425039
426445
425831
424000
427067
427595
428113
428528
428941
430026
423806
426380
425256
428834
430865
429757
430430
430376
428212
430777
430969
431996
423922
429759
430667
432217
430131
431283
432017
430771
426264
428904
431684
432991
427805
432607
431059
433317
431301
430894
433656
433100
433554
431496
433935
432680
435851
430966
433849
429011
430034
432215
432210
434039
434361
434997
433356
433413
437390
428000
432485
430265
432704
434554
434653
434734
435236
437287
429025
431066
434800
433305
434233
435072
431365
435884
435558
426262
433120
433221
434788
434989
436090
430035
433114
435359
434744
435033
433542
434622
433804
432592
435362
435989
436191
430835
433703
434257
435459
436197
431297
434344
436705
435782
439134
429950
435163
436627
436920
434222
435761
436222
435062
431669
435463
428709
435421
435485
436873
428593
435967
435968
438047
434867
437004
437008
437286
435766
436299
437006
437185
439331
432621
436494
437127
437292
432283
433420
437607
438662
437709
434336
437523
437640
438045
438217
426161
436582
436790
437621
435050
435667
437939
432390
436598
437101
437324
438140
439439
432900
436504
436511
436674
438336
436780
437520
438255
438263
438328
438526
435365
438562
438729
436890
436902
437400
439130
439258
435655
438248
438325
438721
438878
438901
435079
437620
438115
439049
439265
433718
431061
436484
437834
438440
439456
436893
436903
438108
438252
429402
438345
438008
438513
439843
436074
437530
437726
438256
438528
439147
439394
439765
440173
439172
439255
439654
440170
440548
440970
441476
435678
437690
437738
438860
439126
436778
440292
431968
437021
439240
439454
439563
439785
439789
438654
438848
439815
440246
434631
435556
439863
436999
437719
439879
439953
439965
441025
432379
437274
439449
439999
440767
443937
439155
439269
440176
437093
438611
438638
438845
439241
439597
439669
440187
440263
437209
438524
439382
439558
439851
440778
441986
437176
437314
438598
439777
439856
440282
441107
438459
436891
439594
440202
440273
441818
440868
437187
439968
440592
440896
441176
441326
438028
439771
440549
441430
442709
439561
430836
437281
437316
439027
439029
439167
440489
440669
433548
437099
438838
441077
441441
444249
439156
439670
439767
440383
440566
440600
440800
441122
442399
436693
437105
438744
440068
441981
441991
436382
439760
440475
440574
441152
442352
442601
437184
437293
440189
440910
442009
442293
442395
433934
438928
440070
441800
437911
439043
439050
439127
439538
440793
441073
441106
441200
441888
438029
438126
439763
439950
440363
440594
441301
441526
442090
442216
437702
436774
437730
438227
440367
441100
441812
442208
440362
437811
439327
439346
439893
441215
441438
441493
441939
442017
442128
435641
437294
439969
440161
440312
441414
441810
441844
442124
442221
443056
443133
438124
439041
439661
441983
443263
439915
440061
441723
442652
442938
433832
434326
436908
439787
441008
442524
439250
440757
441070
441132
441583
442016
442565
442824
444347
435981
440294
441584
441915
442020
442346
442527
443025
443730
444035
432104
433725
440454
440794
441510
442449
442613
436894
438644
439452
441189
441486
441585
441901
442545
442827
443232
443318
443750
444450
440371
437801
439291
440688
440705
440887
441612
441614
442744
442840
442908
443035
443852
444652
445156
440260
440893
441705
441791
441832
442499
442743
443021
443341
443733
444946
437715
440180
440552
441320
441533
442118
442194
442554
442712
442728
442746
443440
437019
438016
438438
440391
441190
442403
442922
443337
443707
444370
438650
440045
440358
441995
442732
443167
443449
443726
444137
446084
437926
438713
438934
440164
440169
441879
442537
443161
439044
439556
440257
441490
442424
442429
442910
443131
443177
443663
443863
444141
440789
439652
440351
441686
441709
442641
443041
443044
443474
443621
443857
444375
437844
438417
440882
440976
441218
441224
442117
442819
442967
443249
443352
443439
443873
444056
440575
437010
438017
438223
439370
442748
442862
443251
443435
441702
442189
442323
442727
442831
442858
443130
443454
443659
443951
444051
444157
444358
444799
442347
440366
440891
441084
441187
441988
442291
442308
442503
443536
443563
443623
443684
443957
444777
445571
439149
439565
439656
441909
442132
442952
443437
443734
445253
445267
439742
440063
442505
442521
443373
443578
443855
444037
444782
445210
445467
440168
438730
440665
441502
442130
442306
442433
442626
442714
443153
443248
443531
443766
444068
444690
444698
446996
441821
442813
442929
443132
443339
443752
443767
443978
444184
444379
444469
444577
442223
439150
440699
442327
442615
442710
442740
443019
443231
443387
443782
443853
443887
443954
444345
444459
445070
445188
445200
445404
437907
440659
441076
442112
442832
443643
443948
444036
444069
444396
445983
440813
442290
439430
442660
442880
443775
443944
444174
444490
444570
444580
444774
444994
445290
445702
446616
439222
440043
441099
441889
442028
443147
443637
443795
443985
444041
444077
445286
436085
438819
441292
441780
442099
442717
442742
443375
443636
443964
444172
444188
444355
444565
444567
444712
444781
445006
445067
445086
445195
445323
445575
438514
441385
441600
441897
442645
443452
443702
444066
444165
444984
444986
446687
447616
435976
440151
441608
441801
443972
444090
444286
444802
445513
445864
445934
437234
437797
442420
442445
442515
442924
443144
443349
443631
443762
443934
443961
443977
444064
445708
445712
445716
445811
433946
446389
446790
439035
439442
443039
444173
444478
444582
444905
445107
445193
445306
445430
445460
445569
445804
445896
446727
447719
441278
443534
438419
443756
443854
443869
444687
445382
445701
446109
446489
440555
441477
441707
444466
444685
444775
444878
445174
445187
445278
445539
445630
445644
446032
446123
437693
440674
441500
442933
443431
443443
443755
443834
443874
444197
444271
444371
444869
445181
446610
447099
439562
441999
442008
442307
443116
443327
443343
443746
443759
444072
444550
444595
444883
445065
445093
445170
445606
445637
445915
446082
446293
446451
436093
440272
442814
443235
444377
444491
444955
445152
445265
445294
445373
445377
445614
445681
445687
445928
445993
446310
446368
436691
439460
439746
440473
443148
443729
444065
445061
445361
445694
445859
446229
447022
440584
435769
439641
440886
441080
441488
443635
443666
443995
444158
444672
444793
444812
444890
445183
445276
445380
445731
446108
446316
446615
447096
448950
440790
444398
442809
442855
442925
443344
444648
444881
445064
445269
445302
445501
445608
445615
445633
445682
445686
445806
445842
446603
446708
447217
448019
436678
436512
444376
440067
440571
442312
442415
442507
443328
444264
444818
445085
445163
445209
445582
445904
446410
446853
447207
447514
440758
443359
443958
444967
445292
445298
445618
446004
446402
446530
447308
441092
442525
442614
443764
444668
445692
445812
446219
446411
446644
446729
446829
441907
443986
444145
444369
444442
444573
444857
444960
445057
445381
445503
445786
446016
446135
446387
446506
446627
446710
446717
446822
446824
446925
447102
447127
447152
447857
444961
439649
441700
443946
444168
444576
444692
444757
446100
446197
446426
446670
446837
447005
447100
444973
440982
446131
446390
446654
447038
447052
447450
447653
447841
448218
448423
427784
445363
441785
440888
441480
443141
444670
444885
445072
445296
445648
445672
445803
446365
446423
446515
446600
446624
446725
446738
446911
447101
440372
440873
442303
442919
443633
444156
444978
445584
445595
445605
445609
445785
445912
446024
446420
446713
446807
447007
447121
447135
447467
447764
448942
443549
443641
443741
443973
444381
444995
445303
445437
445484
445821
446079
446309
446620
446734
446735
447015
447141
447242
447460
447579
447854
449661
443029
443660
443732
444058
445369
446005
446027
446089
446118
446144
446245
446298
446415
446551
446716
446806
446913
446928
447255
447548
437172
438030
439048
442811
443122
443136
443965
444076
444604
444671
444753
445487
445597
445991
446188
446220
446514
447459
447543
447667
441479
441604
444374
445076
445480
445562
445770
445775
445783
446036
446103
446401
446418
446697
446993
447363
447547
447742
447777
447787
448143
450584
438944
444256
444972
445099
445167
445389
445466
445488
445645
445805
446031
446533
446813
447125
447234
447266
447334
447730
447794
447845
448221
448451
448682
444161
443347
443742
444245
444265
444764
445081
445476
445497
445819
446122
446191
446205
446416
446434
447025
447028
447230
447261
447262
447725
448110
448365
445058
445255
445902
446099
446527
446528
446801
446946
447226
447237
447359
447446
447614
447629
447672
447759
447861
448160
448275
448302
442299
444854
445285
445549
446232
446332
446756
446910
447159
447209
447327
447432
447445
447958
448035
448052
448059
448403
448602
448737
448952
441319
443237
444205
444477
444963
445368
445491
445883
446039
446080
446304
446700
447238
447426
447834
447843
447954
448248
448837
450065
450272
440467
445884
446531
446787
446905
438276
447225
447380
447530
447554
447750
447840
448469
448553
448571
448975
449027
439758
441186
443444
443728
444480
445180
445370
445585
445698
446419
447133
447164
447550
447775
447781
446221
443013
445877
445997
446213
446236
446726
446921
447382
447424
447455
447552
447646
447758
447867
447916
447939
448057
448145
448461
448755
448961
450128
450583
444865
445075
445155
446193
446501
446637
446848
447033
447146
447214
447345
447544
447648
447670
447731
447745
448138
448168
448261
448349
449173
449583
441598
442917
444346
444765
445052
445375
447256
447329
447747
448530
448777
448988
449351
442725
444153
444387
444557
444574
445053
445780
446097
447035
447403
447462
447752
447800
448064
448172
448235
448251
448348
448360
448368
448395
448654
448743
448884
449085
449096
384848
449658
443653
444559
439752
442634
442720
444660
445461
446202
446688
446802
447140
447229
447319
447472
447645
447786
447846
447938
448071
448382
448702
448946
449003
449057
449075
449105
449177
440373
442296
444269
445610
446431
446505
446917
447343
447362
447385
447660
447729
447740
447931
448245
448258
448351
448373
448387
448425
448509
448688
448772
448881
448962
449168
449302
449428
449492
449493
449495
449620
442431
447314
443748
443947
444361
444455
444855
445455
445588
446200
446214
446686
447118
447119
447418
447569
447649
447650
447879
447953
447969
448039
448213
448246
448345
448527
448600
448976
449197
449416
449502
384333
440166
442620
443842
444280
444868
445366
445390
445807
446095
446289
446599
446820
446825
446904
447039
447223
447456
447487
447655
447754
447820
448243
448483
448556
448582
448593
448733
448768
448788
448885
448944
449156
449537
449839
450166
444475
443849
444675
444788
445073
445909
446789
447017
447051
447718
447723
447831
447842
447925
447986
448040
448135
448338
448400
448453
448639
448690
448802
448810
449425
449512
449252
442815
442950
443521
447008
447338
447485
447561
447626
447675
447769
447783
447915
447968
448034
448054
448141
448148
448493
448535
448542
448606
448847
448878
449010
449326
383724
449684
449824
450011
450165
446086
446296
446523
446994
447215
447333
447441
447451
447658
447683
447749
447823
447832
447957
448242
448384
448479
448786
449012
449184
449414
449621
449699
449793
449994
450319
445879
441506
443526
444258
444755
446343
446597
446838
447045
447151
447527
447860
448452
448547
448569
448645
448753
449186
449599
449663
449730
450412
446804
442301
443216
445592
446607
446907
447106
447429
447444
447639
447662
447685
447741
447869
448090
448346
448443
448573
448579
448585
448843
448866
448895
448970
448984
449282
449285
449396
449402
449689
449773
449987
450164
450186
450251
450413
444924
439548
445272
445995
447202
447533
447763
447878
447921
448130
448139
448219
448234
448259
448333
448353
448604
448664
448681
448735
448763
448868
448913
448994
449086
449201
449378
449565
449901
449977
451191
452015
445593
443639
447254
447317
447746
447757
448539
448648
448852
448882
449099
449286
449399
449589
449961
449990
449993
450005
450009
450136
439344
442911
446859
446906
446916
447425
447894
448224
448239
448324
448462
448494
448558
448657
448782
448807
448889
448960
448998
449087
449090
449163
449185
449261
449301
449350
449352
449381
449587
449609
449618
449687
449698
449776
449911
449965
449996
450025
450051
450063
450410
450477
450634
450995
451022
446879
444679
439653
445357
446196
446553
446924
447430
447435
447511
447737
447917
448265
448572
448842
448873
448890
448899
448964
449071
449106
449110
449182
449208
449272
449371
449472
449505
449584
449863
450112
450197
450581
451065
441492
443725
444268
446217
446223
446843
447447
447744
447766
447965
448063
448140
448765
448770
448783
448864
448869
448990
449084
449195
449568
449598
449743
449779
442396
449876
450010
450068
450071
450469
450531
451499
451595
453136
447228
444052
444861
445356
445791
447094
447630
447637
447652
448126
448564
448638
448656
448749
448764
448982
449178
449227
449273
449419
449461
449481
449627
449688
449690
449705
449795
449825
449896
450019
450395
450408
450427
450816
451395
444276
447739
440680
446602
446808
447849
447927
448431
448551
448574
448577
448697
448767
449122
449154
449281
449353
449375
449458
449476
449483
449697
449881
449887
449906
449962
450273
450518
450608
450613
450713
450939
450989
435142
451013
441893
447848
447539
442518
446617
446693
447128
447340
447664
447847
447962
448127
448610
448858
448862
449361
449366
449388
449420
449576
449596
449625
449708
449801
449808
449894
449919
449930
450205
450210
450288
450299
450309
450522
450614
450721
450990
451192
451334
443727
443943
444283
446709
447537
448867
448871
448880
449296
449372
449686
449791
449892
449903
450105
450123
450169
450192
450212
450217
450432
450516
450519
451800
451908
443034
444485
445685
445704
446299
446695
446805
446922
447210
447361
447946
447963
448167
448355
448562
448659
448758
448986
448991
449062
449207
449284
449713
449719
449775
449788
449872
449936
449958
450008
450113
450190
450508
450616
450663
450703
450709
450744
450822
450861
451029
451246
451275
451331
451937
452017
444148
447636
443135
444267
445504
445876
447114
448394
448771
448912
449118
449167
449174
439665
449288
449289
449426
449470
449473
449480
449482
449555
449561
449693
449710
449921
449940
450077
450088
450148
450199
450286
450383
450502
450665
450726
450741
450754
450916
450967
451139
451238
451260
451417
447136
447147
444351
444651
446104
446112
446305
448132
448445
448549
448649
448985
449091
449311
449387
449398
449408
449592
449683
449983
449995
450013
450018
450303
450306
450310
450394
450398
450534
450730
450805
450948
451048
451309
451423
451470
451676
451679
453539
446510
450099
444259
446831
447224
447621
448072
448080
448350
448465
448525
448529
448954
449161
449188
449293
449376
449394
449603
449783
449802
449843
449857
449927
449976
450104
450110
450115
450203
450318
450347
450401
450529
450618
450720
451129
451226
451416
451446
451598
451659
452016
452018
386164
452019
448013
445281
446090
448364
448751
448947
448997
449000
449166
449469
449591
449968
450139
450194
450219
450317
450602
450607
450622
450732
450817
450831
450891
450956
451088
451108
451124
451130
451240
451266
451497
451513
451561
451702
451780
451836
451857
451932
452427
447331
439455
443037
444956
446111
446746
447027
447526
447833
448563
448865
448974
449271
449707
449723
449999
450037
450090
450121
450314
450390
450415
450430
450511
450619
450623
450742
450867
450910
451126
451145
451218
451221
451242
451251
451626
451738
451787
451906
444465
441875
443645
445474
445874
447613
448680
448963
448993
449037
449066
449068
449385
449391
449489
449572
449573
449593
449695
449721
449792
450072
450122
450201
450275
450526
450535
450577
450624
450652
450729
450799
450819
450909
450945
450958
450987
451019
451137
451201
451229
451323
451339
451540
451640
451724
452341
453338
448038
448543
443530
444360
444943
445798
445906
446291
447043
447313
447628
447733
447945
448545
448955
449060
449095
449269
449380
449575
449608
449998
450076
450106
450180
450191
450230
450285
450296
450305
450320
450450
450486
450517
450525
450528
450605
450631
450648
450830
450936
450992
451024
451025
451286
451351
451420
451529
451621
451755
452050
443939
446001
448055
445189
445897
446503
446696
447123
447541
448024
449158
449360
449570
449667
449674
449885
449897
450089
450189
450290
450323
450488
450501
450507
450628
450637
450728
450739
450762
450814
450842
450921
451149
451295
451336
451370
451378
451522
451655
451714
451797
452424
452530
452745
454162
451183
442846
444356
444747
444879
445157
445469
445576
446328
446408
446812
447310
448635
448637
448742
448857
449384
449580
449602
450081
450222
450292
450409
450424
450440
450451
450462
450512
450514
450751
450766
450833
450853
451004
451036
451120
451222
451270
451284
451294
451307
451328
451338
451527
451533
451535
451559
451660
451665
451820
451868
451933
452175
452281
452499
452595
445082
436985
450075
446092
446406
446999
447309
448050
448225
448429
449104
449250
449395
449601
449662
449676
449701
449794
449800
449805
450016
450126
450151
450184
450185
450541
450740
450824
450828
450843
450846
450874
450913
450915
450949
450994
451002
451020
451112
451117
451217
451245
451247
451253
451285
451344
451345
451346
451390
451447
451653
451946
451959
451990
452081
452119
452304
387212
453088
445457
441590
443142
443960
444365
444866
444952
445990
446818
447109
447218
448561
449072
449579
449986
450046
450100
450179
450315
450423
450499
450521
450647
450664
450808
450811
450850
450901
450902
450937
450954
451001
451023
451035
451121
451216
451276
451304
451311
451335
451428
451542
386865
451609
451726
451735
451824
451837
452065
452094
452196
452574
452828
448426
447531
447976
448676
448754
449053
449073
449704
449720
449790
450096
450311
450340
450392
450702
450745
450763
450815
450894
450908
450962
451011
451138
451198
451214
451333
451413
451444
451449
451496
451519
451637
451768
451826
451847
451850
451883
451958
452070
386339
452172
452320
452556
452982
453647
453648
445353
446201
446414
447020
447717
447923
448162
448741
448766
449100
449383
449678
449768
449770
449855
449964
450204
450213
450509
450524
450627
450687
450851
451017
451033
451232
451367
451453
451510
451534
451543
451645
451663
451737
451752
451796
451849
451920
451927
451934
451989
452012
452142
452174
452251
387301
452393
452470
453228
453230
453441
387129
442113
450788
450269
445077
447342
448016
448226
448559
449264
449294
449335
449474
449500
449981
449992
450078
450200
450327
450404
450414
450506
450520
450609
450723
450731
450884
450898
450944
450960
450971
451100
451150
451220
451237
451324
451379
451403
451580
451664
451743
451751
451765
451821
451840
451944
451969
451974
452028
452047
452073
452105
452147
452155
452166
452188
452249
452271
452374
452395
452528
452830
452928
453855
388021
387036
447947
448647
448650
448972
449165
449917
450026
450298
450343
450571
450630
450642
450655
450735
450928
450934
450940
451037
451052
451109
451113
451227
451443
451553
451616
451618
451658
451715
451731
451759
451822
451853
451878
451961
452071
452082
452126
452469
452486
452570
452654
452855
442610
443125
445175
447627
448174
448748
448757
449393
449479
449761
449784
449971
450006
450297
450384
450532
450588
450598
450615
450620
450684
450699
450820
450903
450922
450923
450947
450952
451212
451236
451364
451450
451501
451548
451550
451563
451649
451661
451667
451668
451690
451734
451817
451852
451951
451968
452041
452219
452229
452260
452350
452405
387215
452460
452487
452502
452553
452568
452625
452647
452729
387561
453350
445885
446392
446690
447332
448660
449070
449079
449098
449471
449767
449886
450007
450108
450174
450287
450331
450505
450604
450704
450778
450914
450988
451003
451014
451021
451096
451234
451273
451302
451314
451330
451350
451452
451523
451546
451572
451636
451696
451711
451718
451748
451925
451981
452030
452032
452052
452053
452066
452092
452118
452144
452240
452456
452464
452492
452554
452699
452906
452963
453080
453339
455282
456004
387134
445784
444862
445674
446199
446300
448233
448336
448528
448653
449089
449466
449513
449595
449895
449978
450193
450281
450498
450645
450701
450818
450924
450999
451087
451089
451135
451244
451315
451342
451359
451421
451487
451524
451545
451641
451778
452048
452051
452054
452099
452148
452187
452248
452263
452355
452367
452383
452386
452463
452513
452558
452588
388013
452796
452804
452987
453234
453381
454363
450083
386249
441402
446320
447748
447826
448674
448738
448740
448901
448980
449054
449260
449920
450284
450294
450312
450397
450433
450590
450683
450700
450953
451041
451239
451287
451355
451389
451495
451537
451549
451581
451638
451669
451948
451977
452075
452078
452275
452286
452287
452324
452338
452365
452379
452401
452536
452547
452599
452655
452665
452678
452799
452802
452897
452972
453053
453201
453263
453498
453621
453857
386625
448636
440901
444357
445577
445890
446306
446608
446712
447112
447221
447436
447819
450094
450101
450172
450182
450195
450321
450500
450597
450617
450711
450774
450925
450930
451122
451231
451321
451327
451329
451337
451391
451439
451458
451498
451566
451625
451741
451745
451863
451931
451936
451963
452045
452063
452067
452129
452160
452173
452184
452189
452237
452267
452344
452377
452439
452446
452488
452565
452596
452670
452682
452770
452847
452974
453056
453067
453095
453100
453179
453288
453478
453479
449765
442916
446909
447219
448358
449262
449460
449571
449666
449878
449888
449989
450080
450232
450329
450476
450635
450787
450986
451249
451437
451518
451574
451725
451728
451747
451830
451841
451865
452163
452171
452177
452282
452319
452348
452356
452370
452371
452447
452466
452493
452505
452561
452680
452688
452698
452702
452743
452749
452781
452892
452903
453084
453135
453203
453302
453499
454273
387843
454971
442909
448978
444243
444948
447536
447932
448320
448678
449063
449123
450187
450759
450827
451015
451235
451325
451407
451429
451438
451440
451587
451613
451730
451746
451827
451851
451864
451945
452130
452152
452153
452154
452170
452266
452277
452308
452457
452637
452657
452739
452754
452757
452771
452778
452794
452863
452964
452967
452997
453065
453066
453076
453184
453300
453370
453374
453404
453405
453420
453462
453522
434325
449379
451573
441695
448330
448440
448568
449669
449862
450227
450291
450425
450938
451026
451030
451272
451436
451442
451508
451541
451597
451623
451675
451684
451861
451921
451954
451993
452056
452256
452258
452335
452345
452358
452375
452392
452473
452475
452481
452562
452582
452706
452741
452760
452774
452776
452852
453000
453033
453181
453192
453206
453277
453411
453591
453644
453657
453699
454116
388530
445385
446407
446791
448339
448987
449772
450167
450176
450650
450784
451196
451204
451340
451388
451393
451468
451515
451639
451902
452013
452029
452042
452232
452233
452323
452483
452545
452551
452576
452644
452658
452686
452715
452817
453091
453182
453260
453309
453317
453380
453396
453402
453466
387393
453570
453851
454209
454460
388886
387402
443525
448356
449418
449799
449966
450093
450474
450836
451103
451107
451211
451225
451319
451701
451713
451783
451801
451812
451814
451844
451854
451916
452010
452181
452220
452255
452285
452292
386956
452351
452357
452372
452397
452467
452544
452555
452584
452664
452676
452693
452750
452756
452854
452877
452958
453058
453070
453074
453077
453090
453140
453198
388531
453369
453398
453412
453424
453480
453576
453583
453589
453788
453793
453798
388184
455495
452810
451996
447634
451386
444472
446628
448354
448434
448444
449675
450209
450746
450760
450789
450829
450900
451230
451241
451352
451392
451419
451729
451833
451856
452024
452046
452079
452098
452145
452224
452254
452280
452349
452406
452522
452667
452798
452871
452946
452986
452989
453059
453089
453098
453148
453157
453214
453243
453262
453271
453282
453375
453387
453389
453620
453909
454210
452315
388896
452452
440655
441178
446396
446699
447322
447420
447955
448640
449088
449268
449370
450545
450821
450895
451005
451213
451536
451654
451673
451782
451905
451986
452037
452090
452151
452168
452169
452369
452373
452442
452478
452571
452590
452659
452668
452700
452704
452784
452797
452857
452881
386960
452954
453011
453055
453079
453117
453208
453291
453301
453307
453371
453395
453399
453476
453497
453609
453632
453719
453731
453761
453816
453838
388698
453913
454107
454129
454335
454647
454969
454970
455594
447835
447837
445273
445999
446398
446702
449249
449278
449672
449677
450183
450549
451131
451224
451233
451551
451612
451624
451657
451682
451784
451825
451922
451966
452036
452040
452091
452115
452176
452178
452272
452353
452368
452380
452458
452484
452485
452541
452559
452578
452650
452671
452689
452765
452769
452779
452783
452790
452815
452824
452849
452867
452868
452882
452900
452998
453044
453105
453112
453160
453276
453306
453384
453434
453486
453566
453604
453707
453717
453718
453791
453809
453894
454013
454033
454131
454218
454315
454459
454528
454665
455787
453027
447134
447516
447822
447838
448137
448983
449685
449798
449970
450416
450504
450610
450719
451425
451503
451520
451521
451564
451596
451608
451614
451754
451775
451895
451943
452074
452242
452247
452262
452298
452339
452450
452461
452474
452494
452583
452594
452640
452642
452661
452666
452762
452764
452766
452816
452843
452851
452875
452941
452945
453165
453191
453295
453470
387930
453715
453729
453884
453920
453986
453990
454004
454040
454112
454375
454418
454560
454716
455279
450396
441998
442413
447524
447943
448439
449164
449786
450168
450587
450644
451093
451322
451507
451571
451588
451647
451882
451929
451947
451949
451997
452034
452161
452278
452363
452376
452436
452459
452462
452480
452507
452510
452548
452579
452580
452631
452632
452638
452651
452705
452813
452850
452858
452864
452872
452880
452893
452951
452971
452978
452992
453050
453061
453085
453096
453108
453122
453289
453366
453390
453407
453474
453536
453568
453586
453613
453615
453625
453710
453767
453789
453814
453886
453944
453987
454025
454124
454134
454187
454194
454224
454269
454331
454750
389160
447433
449974
450095
450393
450801
450802
451007
451098
451187
451228
451818
452057
452069
452093
452136
452146
452156
452244
452331
452394
452653
452675
452753
452761
452793
452840
452873
452895
452969
453006
453072
453078
453081
453092
453093
453116
453156
453226
453280
453299
453314
453326
453471
453567
453724
453774
453821
453875
453904
453947
454056
454175
454201
454423
454487
455385
453328
452920
441137
445980
447200
447513
447918
450826
450911
451119
451404
451611
451643
451918
451928
452253
452257
452289
452496
452577
452587
452607
452646
452660
452679
452697
452740
452898
452955
452961
452975
453082
453087
453167
453194
453272
453286
453324
453367
453376
453385
453386
453436
453450
453501
453504
453519
453593
453596
453610
453637
453720
453726
453739
453782
453815
453912
453914
453939
453978
453994
454060
454100
454103
454132
454147
454193
454292
388016
454381
454479
454804
389690
388974
451313
389087
450717
443840
445787
449064
449364
449577
449664
449756
449864
450208
450372
450580
450705
450810
451298
451633
451880
451903
451953
452011
452143
452246
452546
452563
452788
452792
452831
452838
452861
452876
452888
452890
452979
453147
453150
453211
453239
453284
453419
453489
453600
453646
453675
453686
453706
453776
453781
453795
453796
453805
453928
453995
454019
454021
454023
454030
454070
454079
454089
454091
454102
454152
454156
454254
445080
454302
454383
454636
454693
454834
455082
389339
443618
447205
447449
447919
449401
450786
450899
451104
451154
451516
451525
452550
452585
452643
452684
452708
452736
452768
452952
453073
453075
453106
453129
453152
453319
453502
453514
453531
452721
453595
453681
453689
453692
453714
453777
453794
453810
453811
453812
453813
453890
453893
453898
453902
453917
453951
453956
453960
453964
453985
453999
454002
388882
454216
454301
454324
454334
454342
454388
454389
454404
454405
454417
454436
454621
454824
455133
453948
450496
389702
389334
452426
389081
387679
445394
445824
449499
449567
449880
449975
450698
450896
451326
451556
451630
451632
451828
452044
452150
452250
452322
452360
452455
452539
452560
452598
452641
452648
452690
452709
452795
452822
452865
453045
453071
453137
453161
453171
453172
453200
453287
453296
453361
453377
453432
453482
453490
453491
453564
453565
453571
453673
453688
453694
453698
453779
453783
453822
453895
453915
453967
454007
454026
454039
454104
454197
454199
454220
454226
454263
454327
454338
454531
454596
454632
454690
454748
454895
454938
455144
455276
455389
390199
389766
449160
449259
450706
450758
451009
451105
451720
451842
451904
451919
452088
452141
452149
452261
452515
452533
452601
452878
452948
452956
452965
452995
453178
453275
453365
453388
453397
453406
453451
453487
453488
453492
453581
453611
453624
453690
453771
453786
453832
453861
453878
453880
453919
453983
454006
454024
454044
454084
454096
454191
454222
454225
454251
454289
454308
454390
454413
454416
454505
454543
454563
454593
454627
454666
454695
454831
454840
454843
454903
454912
454921
454972
455138
455147
455163
455209
388883
456202
452204
389550
453022
448570
388990
446096
446098
449189
450389
450905
450941
451320
451627
451628
451694
451838