/*--------------------------------*- C++ -*----------------------------------*\
| =========                 |                                                 |
| \\      /  F ield         | OpenFOAM: The Open Source CFD Toolbox           |
|  \\    /   O peration     | Version:  2406                                  |
|   \\  /    A nd           | Website:  www.openfoam.com                      |
|    \\/     M anipulation  |                                                 |
\*---------------------------------------------------------------------------*/
FoamFile
{
    version     2.0;
    format      ascii;
    arch        "LSB;label=32;scalar=64";
    class       Cloud<dsmcParcel>;
    location    "0.009/lagrangian/dsmc";
    object      positions;
}
// * * * * * * * * * * * * * * * * * * * * * * * * * * * * * * * * * * * * * //

9421
(
(0.2880780527 0.1130718812 2.710505431e-19) 207
(0.2799339418 0.08350874954 0) 56
(0.2957349672 0.1160919323 0) 208
(0.2906219849 0.0860789182 0) 58
(0.2785197227 0.08684328432 0) 86
(0.3002214073 0.1030726957 5.421010862e-20) 149
(0.2699716541 0.08927147924 2.168404345e-19) 85
(0.2926940046 0.09950857771 4.33680869e-19) 118
(0.2740053336 0.09050814682 0) 115
(0.2462962959 0.07826655993 2.168404345e-19) 82
(0.3021763562 0.1120132847 -1.084202172e-19) 179
(0.2690610459 0.08816311293 -3.252606517e-19) 85
(0.2951519426 0.1346562134 2.168404345e-19) 328
(0.3017804829 0.1055106312 -1.863472484e-20) 149
(0.2968576054 0.1190215072 0) 238
(0.278491463 0.1283348812 1.084202172e-19) 296
(0.2362432296 0.09096515678 -1.084202172e-19) 141
(0.233795093 0.1164502984 -2.168404345e-19) 290
(0.2607001427 0.1023122698 0) 174
(0.2680635707 0.08797260688 -3.117081246e-19) 85
(0.2936803461 0.09425124215 -2.168404345e-19) 88
(0.2650585506 0.08603201174 0) 84
(0.2326310915 0.06690985954 -2.439454888e-19) 20
(0.2596734088 0.0713758831 2.168404345e-19) 24
(0.2799732256 0.09609524394 2.168404345e-19) 116
(0.2947110337 0.0912382929 0) 88
(0.2618699451 0.08662327284 -1.084202172e-19) 84
(0.2880313461 0.114753807 0) 207
(0.2762055705 0.09217432574 0) 116
(0.2791194112 0.08657070745 -2.168404345e-19) 86
(0.2112047473 0.08126090137 2.168404345e-19) 137
(0.2731205809 0.08196572175 2.168404345e-19) 55
(0.2909850917 0.1048609638 1.626303259e-19) 148
(0.2456951526 0.07610693136 0) 52
(0.3029584919 0.1244837817 2.168404345e-19) 239
(0.2252874473 0.07372874658 2.168404345e-19) 79
(0.2872486264 0.093092074 0) 87
(0.2410007727 0.0887118468 0) 141
(0.2870287392 0.09061468615 -2.710505431e-20) 87
(0.2315175644 0.09324717 0) 170
(0.2698840773 0.08045067936 -6.776263578e-21) 55
(0.3018478242 0.1239368088 -5.421010862e-20) 239
(0.2965260659 0.1011544863 0) 118
(0.2909428487 0.139441063 -2.168404345e-19) 358
(0.2742361672 0.09932179726 0) 145
(0.2761436091 0.08139556564 -1.626303259e-19) 56
(0.2901740096 0.08249799003 0) 28
(0.2545207879 0.09597501445 2.168404345e-19) 143
(0.2592220666 0.08798479881 -2.168404345e-19) 114
(0.2841120485 0.1177927494 3.252606517e-19) 237
(0.2877019337 0.08270103149 4.33680869e-19) 57
(0.3023852058 0.1303091824 0) 299
(0.2441834576 0.1134895294 0) 262
(0.2639549469 0.08122200206 0) 54
(0.2888753488 0.09244751449 0) 87
(0.2203606675 0.06544565284 0) 48
(0.2684403872 0.1438563137 1.084202172e-19) 385
(0.2950840871 0.09940832117 0) 118
(0.2849995843 0.1399108855 -1.626303259e-19) 357
(0.2943497357 0.08272064757 2.168404345e-19) 28
(0.2634536926 0.086628914 5.421010862e-20) 84
(0.2888860268 0.125819997 4.33680869e-19) 267
(0.2673313874 0.09093948177 0) 115
(0.2501802788 0.07118817164 -2.168404345e-19) 22
(0.2892862641 0.1200556183 -4.33680869e-19) 237
(0.2137140953 0.1083040284 -2.168404345e-19) 258
(0.2983724076 0.113716907 -4.33680869e-19) 209
(0.2106128947 0.06049662876 1.084202172e-19) 17
(0.257820473 0.09031191907 -2.168404345e-19) 113
(0.2676144588 0.07575958681 -1.084202172e-19) 25
(0.2373193642 0.07225883615 0) 51
(0.2941613867 0.09347202139 1.084202172e-19) 88
(0.2796082672 0.1227511413 -1.084202172e-19) 266
(0.3042921834 0.1335355176 2.168404345e-19) 299
(0.1710686482 0.06120155106 0) 72
(0.2608462306 0.08721492875 -2.168404345e-19) 114
(0.2954684895 0.09051595234 2.168404345e-19) 88
(0.2935886776 0.1227072598 -1.355252716e-19) 238
(0.3033420948 0.1295568885 4.33680869e-19) 269
(0.3031181144 0.151841155 2.168404345e-19) 389
(0.2940779249 0.08246150184 -1.626303259e-19) 28
(0.274501778 0.1327029992 -2.168404345e-19) 326
(0.2409084694 0.06457079722 4.33680869e-19) 21
(0.2788723134 0.08709949947 -2.168404345e-19) 86
(0.2911437934 0.09326437806 2.168404345e-19) 88
(0.2968992267 0.08725419148 2.710505431e-19) 58
(0.2903767014 0.108019314 0) 178
(0.2708036346 0.08623185774 1.084202172e-19) 85
(0.300485704 0.08574264653 4.33680869e-19) 29
(0.2852120363 0.08176490532 -2.168404345e-19) 27
(0.1665612864 0.05181729956 0) 41
(0.2333161717 0.06391097131 0) 20
(0.2766321049 0.09927401941 2.168404345e-19) 146
(0.3037223126 0.1053335862 3.252606517e-19) 149
(0.3009049943 0.09056933039 -4.33680869e-19) 59
(0.2333962469 0.06302476448 0) 20
(0.1926797196 0.06039853912 3.252606517e-19) 45
(0.2491064363 0.1120920625 2.168404345e-19) 232
(0.2423262928 0.1056022536 -4.33680869e-19) 201
(0.234977684 0.08575248307 2.168404345e-19) 110
(0.271772331 0.09606679834 -2.168404345e-19) 145
(0.2937934571 0.1270484027 1.897353802e-19) 268
(0.1650305384 0.08031802722 2.168404345e-19) 161
(0.2352915554 0.1037958871 4.33680869e-19) 200
(0.2628738425 0.07976205427 0) 54
(0.2193907569 0.0672163087 1.084202172e-19) 48
(0.2215465211 0.0808175711 5.421010862e-20) 109
(0.2870650955 0.104871233 0) 177
(0.2350596039 0.09559666866 0) 170
(0.2641801232 0.08313141622 -2.168404345e-19) 84
(0.2272513564 0.07756992655 2.168404345e-19) 79
(0.2455631706 0.06596918131 0) 22
(0.2673357579 0.08261777127 7.453889936e-20) 55
(0.272499445 0.08587640984 0) 85
(0.2937163852 0.09241966372 -5.421010862e-20) 88
(0.2939836124 0.0895838339 2.710505431e-19) 58
(0.2533455039 0.07244385291 -3.523657061e-19) 23
(0.2963104735 0.107906647 -2.168404345e-19) 178
(0.2686113219 0.1018427132 0) 175
(0.2153650336 0.1118869959 0) 258
(0.1978196092 0.06599825712 0) 75
(0.2573523398 0.09840854628 -2.168404345e-19) 173
(0.2879536796 0.1049577573 0) 147
(0.2824426266 0.08341168739 0) 57
(0.2911592164 0.08898441207 -6.505213035e-19) 58
(0.2186823008 0.08078488943 0) 108
(0.24782401 0.07952287212 0) 82
(0.2480297092 0.07645195637 -2.168404345e-19) 52
(0.2860505385 0.07871491349 0) 27
(0.2902157647 0.1072202621 -2.168404345e-19) 178
(0.2656081137 0.1375904482 0) 354
(0.2557756551 0.1034805483 0) 203
(0.2990837616 0.1324609642 2.032879073e-19) 299
(0.2453021457 0.07936001206 0) 82
(0.295142247 0.1296215725 0) 298
(0.2954974738 0.08559439732 0) 58
(0.253948414 0.09687117448 -4.33680869e-19) 143
(0.2837840285 0.0864140651 0) 57
(0.2512065108 0.09122563709 4.33680869e-19) 142
(0.2546480477 0.1030653521 -5.421010862e-20) 203
(0.2689497846 0.1510425551 -4.33680869e-19) 415
(0.2840212902 0.127375429 -1.084202172e-19) 297
(0.2419290565 0.06687776928 -1.084202172e-19) 21
(0.270428899 0.08563496358 1.626303259e-19) 85
(0.2188917437 0.06536758595 0) 48
(0.2697724845 0.07498758098 1.626303259e-19) 25
(0.2343626759 0.1014786541 0) 200
(0.2973852025 0.1111089788 -1.084202172e-19) 179
(0.1710697847 0.0693895631 -1.084202172e-19) 102
(0.1680563581 0.06110549209 9.486769009e-20) 72
(0.2955908247 0.1121320632 -2.168404345e-19) 178
(0.2821291315 0.1037402445 0) 177
(0.2568970128 0.1262759822 0) 293
(0.2412726149 0.07641758643 0) 81
(0.2379740276 0.08723034952 -1.084202172e-19) 111
(0.2874118974 0.07870261449 0) 27
(0.2910103382 0.1364186807 -4.065758147e-19) 328
(0.2124751344 0.06058008178 0) 17
(0.1555106079 0.06130264149 3.252606517e-19) 100
(0.2443727064 0.06861791822 -5.421010862e-20) 22
(0.2627130298 0.1125121434 -1.76182853e-19) 234
(0.2775901412 0.1127875586 -6.505213035e-19) 206
(0.1705975214 0.07273233029 4.878909776e-19) 132
(0.3020974512 0.1216360167 5.421010862e-20) 239
(0.2938123168 0.1124373295 2.168404345e-19) 208
(0.2622520311 0.1016980367 1.626303259e-19) 174
(0.2706198793 0.08276592216 1.355252716e-20) 55
(0.2659598687 0.1118371017 0) 234
(0.2601133267 0.14740081 2.168404345e-19) 414
(0.228868588 0.07215846015 0) 50
(0.3025242189 0.08144702514 0) 29
(0.2618184765 0.1051482979 2.168404345e-19) 204
(0.2937321341 0.0970600428 -1.084202172e-19) 118
(0.2757188974 0.1244583343 -2.168404345e-19) 266
(0.2969294835 0.1149028078 -1.084202172e-19) 208
(0.2868284997 0.1017159424 0) 147
(0.2876732143 0.08052020477 2.168404345e-19) 27
(0.2541603291 0.1002659576 0) 173
(0.270472926 0.08417096378 3.04931861e-20) 85
(0.2631930704 0.1146228452 -1.626303259e-19) 234
(0.241512621 0.1206306518 -1.084202172e-19) 291
(0.2868063621 0.1396732662 2.168404345e-19) 357
(0.264754317 0.1207142357 -2.168404345e-19) 264
(0.3046562756 0.1230324883 0) 239
(0.2897654883 0.117378919 4.33680869e-19) 238
(0.2134735995 0.05982828594 -4.33680869e-19) 18
(0.3042104515 0.1490779592 0) 389
(0.253527311 0.08357980586 1.084202172e-19) 83
(0.2329511549 0.1097298475 3.252606517e-19) 230
(0.289752586 0.08039677597 -4.33680869e-19) 28
(0.2773082385 0.1437312201 -5.421010862e-20) 386
(0.2660824221 0.09633392227 0) 144
(0.2452030335 0.08157968689 1.084202172e-19) 82
(0.2205895485 0.09099696371 4.33680869e-19) 168
(0.2624842298 0.1014333205 -2.710505431e-20) 174
(0.2720893798 0.1002440133 1.084202172e-19) 145
(0.2763257667 0.1070629368 5.421010862e-20) 176
(0.2948541079 0.09946691706 2.168404345e-19) 118
(0.2791772665 0.09852560711 -2.168404345e-19) 146
(0.2522033928 0.1014451636 0) 173
(0.245198845 0.07163539026 -2.168404345e-19) 52
(0.2758013141 0.0774064252 0) 26
(0.182994058 0.09092583939 -1.084202172e-19) 194
(0.2267420737 0.06907966615 1.084202172e-19) 49
(0.23524449 0.07255247856 -8.67361738e-19) 50
(0.2919885827 0.1140676501 -1.084202172e-19) 208
(0.1972168854 0.06432512761 0) 45
(0.2245157031 0.07728261596 2.168404345e-19) 79
(0.301560936 0.1589047329 4.33680869e-19) 449
(0.3033636992 0.08911766666 2.710505431e-19) 59
(0.2418088321 0.07019789511 -2.168404345e-19) 21
(0.2226014588 0.06398527609 0) 19
(0.3039812041 0.1115802344 -2.168404345e-19) 179
(0.2609277979 0.06997290277 -4.33680869e-19) 24
(0.2661545656 0.07360174996 1.626303259e-19) 24
(0.256468514 0.09171179547 2.168404345e-19) 113
(0.2877561829 0.1614452427 -2.168404345e-19) 477
(0.3016064171 0.1079694298 -2.710505431e-19) 149
(0.2900395477 0.0812439953 0) 28
(0.2796279215 0.1092874735 -2.168404345e-19) 206
(0.2736699378 0.09019039479 4.33680869e-19) 85
(0.2705944933 0.1356905422 2.168404345e-19) 355
(0.2256838089 0.06172628035 -4.33680869e-19) 19
(0.2749614343 0.1254167224 -2.168404345e-19) 296
(0.2794951819 0.094176994 -5.421010862e-20) 116
(0.2434277123 0.07576576289 0) 51
(0.2812080579 0.1279161078 1.084202172e-19) 296
(0.2499308084 0.07352970601 0) 52
(0.205878104 0.08346848729 0) 137
(0.2507748035 0.1162490639 -2.168404345e-19) 262
(0.296077859 0.106449793 2.168404345e-19) 148
(0.2677831161 0.07220623702 -2.168404345e-19) 25
(0.2971728425 0.1135691844 0) 208
(0.2494789957 0.08116465645 0) 82
(0.2161398249 0.07001544247 0) 48
(0.2931874808 0.1105369491 0) 178
(0.2180183375 0.06678941085 0) 48
(0.2246378911 0.1038847052 -5.421010862e-20) 229
(0.2919896692 0.08485451534 3.252606517e-19) 58
(0.2926055112 0.1652434432 5.421010862e-20) 478
(0.2835039573 0.07923344318 2.168404345e-19) 27
(0.2651078412 0.1123656772 -2.168404345e-19) 234
(0.2464559732 0.07707913764 -2.168404345e-19) 52
(0.2734002299 0.08955902082 2.168404345e-19) 85
(0.2931613284 0.1159214395 0) 208
(0.2608144064 0.09666243231 2.168404345e-19) 144
(0.2156919698 0.08860999646 1.084202172e-19) 168
(0.2896881608 0.08611046185 3.388131789e-19) 58
(0.2269132245 0.07379901228 0) 79
(0.2457589242 0.08894048473 0) 112
(0.1759605613 0.05402532065 0) 43
(0.2832569965 0.1082091107 0) 177
(0.2485938969 0.07409800309 0) 52
(0.249793251 0.09945518335 0) 172
(0.2521104669 0.08757611793 2.168404345e-19) 113
(0.2416117116 0.06605417907 0) 21
(0.2919924996 0.1083208066 5.421010862e-20) 178
(0.2545701105 0.1103152101 1.084202172e-19) 233
(0.2603755002 0.1240593273 -4.33680869e-19) 294
(0.1853199318 0.07046732717 -4.031876829e-19) 104
(0.2264054516 0.09366550351 0) 169
(0.2378397678 0.08359113344 0) 111
(0.2805521339 0.08786233784 2.168404345e-19) 86
(0.2336757803 0.0635132979 4.33680869e-19) 20
(0.2892647215 0.1471383672 2.168404345e-19) 387
(0.2028861718 0.0580199764 0) 16
(0.2338017103 0.09789985944 0) 170
(0.2857366156 0.1033858671 4.33680869e-19) 147
(0.2923779817 0.1052164152 1.084202172e-19) 148
(0.2828166096 0.09038253004 3.252606517e-19) 87
(0.2845162725 0.09682087627 -1.219727444e-19) 117
(0.2389843692 0.06935669376 0) 21
(0.3031208376 0.1065406789 -2.168404345e-19) 149
(0.2342371178 0.07650645614 2.168404345e-19) 80
(0.145301555 0.0520895799 2.168404345e-19) 69
(0.271182935 0.09618428721 -2.168404345e-19) 145
(0.2481749331 0.1504601648 2.168404345e-19) 442
(0.2503039824 0.1102195252 5.421010862e-20) 232
(0.2536843062 0.1331338046 3.252606517e-19) 353
(0.1855689299 0.05845956547 -8.131516294e-20) 44
(0.3045212322 0.1149002811 -2.168404345e-19) 209
(0.2140110584 0.07683036782 2.168404345e-19) 108
(0.2610930503 0.07964964618 1.084202172e-19) 54
(0.283258974 0.08461912365 -3.523657061e-19) 57
(0.282921136 0.07600895114 0) 27
(0.1922915017 0.05350155247 5.421010862e-20) 15
(0.2283996824 0.07697887085 -4.33680869e-19) 79
(0.2328151042 0.1040417847 0) 230
(0.2914070156 0.08057063197 -4.33680869e-19) 28
(0.3046878709 0.1195553244 0) 209
(0.2394384788 0.0701823239 4.33680869e-19) 51
(0.2851812395 0.0925557787 -2.168404345e-19) 87
(0.2185732317 0.09598682773 0) 198
(0.2838162471 0.1613055153 -2.168404345e-19) 477
(0.2702997457 0.1169905907 -2.168404345e-19) 235
(0.2911281695 0.1639486383 -4.33680869e-19) 478
(0.2310290569 0.06671660982 -5.421010862e-19) 20
(0.2849260668 0.09337638602 -5.421010862e-20) 117
(0.2558313274 0.09877210709 4.33680869e-19) 173
(0.2561003381 0.09485508745 -5.421010862e-20) 143
(0.2505634582 0.07576168878 2.57498016e-19) 52
(0.2740246675 0.0809229655 -1.084202172e-19) 55
(0.2445937742 0.07671430072 1.727947212e-19) 52
(0.2438152573 0.08744240319 0) 111
(0.2631832072 0.08883397272 2.168404345e-19) 114
(0.2973589223 0.1440411766 -4.33680869e-19) 359
(0.2799906191 0.08061480061 0) 26
(0.2208201979 0.0769658343 0) 78
(0.2750886995 0.07897790084 -5.421010862e-20) 26
(0.2918964677 0.0982089819 -5.421010862e-20) 118
(0.2646297443 0.07151188394 -6.505213035e-19) 24
(0.2523553932 0.07343433795 2.168404345e-19) 53
(0.2292720434 0.08588447058 -1.151964808e-19) 140
(0.2337139781 0.1364926109 -2.168404345e-19) 380
(0.2890243986 0.1058532569 4.33680869e-19) 177
(0.2739995349 0.09804726305 -3.252606517e-19) 145
(0.2978593994 0.08387972133 0) 29
(0.3038967758 0.1123550567 -2.168404345e-19) 179
(0.2411265908 0.08761112598 0) 111
(0.2521703554 0.1284853454 2.168404345e-19) 323
(0.2639368179 0.1203492623 0) 264
(0.1934852377 0.09721318606 -1.084202172e-19) 225
(0.2415261853 0.08543380437 1.084202172e-19) 111
(0.3021133655 0.1340754071 2.168404345e-19) 299
(0.2586552182 0.07662885821 1.084202172e-19) 53
(0.1604306738 0.04572361146 2.168404345e-19) 11
(0.2772616791 0.07447084461 -2.168404345e-19) 26
(0.2443706051 0.08063868645 -2.168404345e-19) 82
(0.2331245361 0.06864308223 -2.168404345e-19) 50
(0.2777722581 0.1004429562 1.084202172e-19) 146
(0.2539098011 0.11772005 -1.084202172e-19) 263
(0.2814193573 0.07627244698 0) 26
(0.2211817432 0.06503924568 -2.168404345e-19) 19
(0.2911270108 0.09889626895 -4.33680869e-19) 118
(0.3035441099 0.144202821 0) 359
(0.2410216832 0.09773654495 1.084202172e-19) 171
(0.2279085387 0.1097963348 2.168404345e-19) 259
(0.2997380158 0.103735154 -1.084202172e-19) 149
(0.2916778186 0.1191586789 1.084202172e-19) 238
(0.2801233217 0.09303328944 0) 116
(0.2880821741 0.1280303066 0) 297
(0.2430131398 0.08590730036 0) 111
(0.2593145366 0.07071972788 0) 24
(0.2381394391 0.07182585272 1.084202172e-19) 51
(0.2095828379 0.06709382539 6.776263578e-20) 47
(0.2462740022 0.0702080051 1.084202172e-19) 22
(0.2780946592 0.1255299633 2.236166981e-19) 296
(0.288258219 0.1024316487 4.33680869e-19) 147
(0.2410066113 0.1220746206 -1.084202172e-19) 291
(0.2069626416 0.08981257727 0) 167
(0.2502390804 0.06817084679 0) 22
(0.2979093679 0.1019800522 2.168404345e-19) 149
(0.2574376528 0.1107924226 0) 233
(0.2348184329 0.1392262184 2.168404345e-19) 380
(0.1857048102 0.103538902 0) 254
(0.2713428636 0.1014704217 0) 175
(0.2516968161 0.07670769956 -2.710505431e-19) 53
(0.2838350465 0.08713369865 4.33680869e-19) 57
(0.2890637642 0.1078216918 -4.878909776e-19) 177
(0.2622698399 0.1205141217 0) 264
(0.1937567648 0.05592045206 2.168404345e-19) 15
(0.2966612473 0.105757758 -2.168404345e-19) 148
(0.1929244792 0.05444881563 -1.084202172e-19) 15
(0.2966337354 0.1165896337 0) 208
(0.1830810751 0.1040257389 0) 254
(0.2978326862 0.1011202426 -4.33680869e-19) 119
(0.2735268438 0.1139724012 -2.168404345e-19) 235
(0.2480425813 0.08397867353 0) 112
(0.267417276 0.08455190163 0) 85
(0.2735088322 0.08251864899 0) 55
(0.2355709076 0.06726975532 0) 20
(0.2872898513 0.07985374178 2.168404345e-19) 27
(0.2967148008 0.0966716106 6.505213035e-19) 118
(0.2344023147 0.06589135344 2.168404345e-19) 20
(0.2802914862 0.08007955737 0) 26
(0.269947124 0.08905005718 0) 85
(0.2410818213 0.08748760349 1.084202172e-19) 111
(0.2906296166 0.1055462896 -2.168404345e-19) 148
(0.3028329456 0.08791883724 2.168404345e-19) 59
(0.2480190484 0.06838683561 1.084202172e-19) 22
(0.282063201 0.08265812581 0) 57
(0.2580502932 0.1106163586 2.168404345e-19) 233
(0.2981773667 0.1350090283 0) 329
(0.285553495 0.07830353633 -6.776263578e-20) 27
(0.2741526858 0.1319972226 1.084202172e-19) 325
(0.2821545781 0.08734356002 5.421010862e-20) 87
(0.2650284651 0.08400659628 -2.168404345e-19) 84
(0.2442173888 0.09121579017 -2.168404345e-19) 142
(0.2739034575 0.1439454107 5.421010862e-20) 385
(0.1997873588 0.06149431268 3.252606517e-19) 46
(0.2339407131 0.08671308128 0) 140
(0.2693469408 0.1045963904 -3.252606517e-19) 175
(0.2229041376 0.08018319544 1.084202172e-19) 109
(0.2209807267 0.07843730947 -3.252606517e-19) 109
(0.2987103948 0.08348120124 1.084202172e-19) 29
(0.2130155721 0.07985397719 -2.168404345e-19) 107
(0.2324697184 0.08905211588 3.388131789e-20) 140
(0.2098817473 0.05717835646 2.168404345e-19) 17
(0.2999947457 0.09644372042 2.168404345e-19) 89
(0.254368752 0.1091804515 1.084202172e-19) 233
(0.2687732976 0.08275759386 -2.168404345e-19) 55
(0.2472132784 0.07126292209 -2.168404345e-19) 22
(0.2624654357 0.1053611785 1.084202172e-19) 204
(0.2557767028 0.08096228045 0) 83
(0.2296212546 0.09442609396 -2.032879073e-19) 170
(0.2209324557 0.07493889443 0) 78
(0.2317197307 0.09554985632 -8.131516294e-20) 170
(0.209441004 0.1049641228 -3.862470239e-19) 257
(0.2506270866 0.09141858096 0) 142
(0.2799559984 0.1051506785 -1.084202172e-19) 176
(0.2897486794 0.08544851507 0) 58
(0.2423512197 0.07760901068 2.168404345e-19) 81
(0.223441242 0.07590828975 0) 79
(0.2843682592 0.0935050734 -2.168404345e-19) 117
(0.2403562032 0.07253376695 2.168404345e-19) 51
(0.250552723 0.1520420827 -4.33680869e-19) 442
(0.2942946623 0.0795417318 0) 28
(0.2684594145 0.1359293277 0) 355
(0.2734385203 0.1101623484 0) 205
(0.2255889487 0.07606417998 -5.421010862e-20) 79
(0.236079123 0.06687215921 0) 20
(0.2630100833 0.1180725462 -1.084202172e-19) 264
(0.2355504213 0.06432026621 -4.33680869e-19) 20
(0.3040360928 0.1606188501 -3.184843882e-19) 449
(0.2777026601 0.07831362005 1.084202172e-19) 26
(0.2723422692 0.1095285733 1.626303259e-19) 205
(0.2954476707 0.1273323632 0) 268
(0.2213039448 0.06429127212 2.168404345e-19) 19
(0.2873154925 0.08222112499 -1.084202172e-19) 27
(0.2878610359 0.08633207021 2.168404345e-19) 57
(0.2038340784 0.06231868153 -4.33680869e-19) 46
(0.2547122264 0.1037441493 2.710505431e-19) 203
(0.2132004635 0.06000138167 5.421010862e-20) 17
(0.261782502 0.09356115205 0) 144
(0.2346801191 0.08168688374 4.33680869e-19) 110
(0.283270091 0.09632006738 -1.084202172e-19) 117
(0.2490631219 0.09895832361 2.168404345e-19) 172
(0.2543592134 0.112186397 -2.168404345e-19) 233
(0.2842608972 0.08987353586 1.084202172e-19) 87
(0.2923257797 0.114924627 -1.084202172e-19) 208
(0.2483554132 0.1283444992 -5.421010862e-20) 322
(0.2471098565 0.0698577629 1.626303259e-19) 22
(0.2246221111 0.06923183701 2.032879073e-19) 49
(0.2584330151 0.07034939497 0) 23
(0.2115753424 0.1048765155 -2.168404345e-19) 227
(0.1221234716 0.05608267306 0) 96
(0.2908351532 0.09420679507 -2.710505431e-19) 88
(0.2896361353 0.1299315425 0) 298
(0.2388087591 0.06481773535 0) 21
(0.1981676904 0.07491345029 3.252606517e-19) 106
(0.2457879158 0.08214189417 1.355252716e-19) 82
(0.2076553348 0.06495296441 -2.710505431e-20) 47
(0.2811246276 0.1157217884 -2.168404345e-19) 236
(0.2747741238 0.07624066523 -2.168404345e-19) 26
(0.1878813645 0.05657063799 3.252606517e-19) 14
(0.2342884773 0.1058862748 2.168404345e-19) 230
(0.2923847344 0.08293682083 0) 28
(0.2881025654 0.1288780707 2.168404345e-19) 297
(0.2508184136 0.06939218791 1.084202172e-19) 22
(0.2901812638 0.09994457536 0) 118
(0.2700500077 0.08210729124 2.168404345e-19) 55
(0.2635445925 0.1557745191 2.710505431e-19) 444
(0.2302968232 0.06523487477 3.252606517e-19) 20
(0.2534155881 0.1009624854 5.421010862e-19) 173
(0.2781066547 0.09200406346 6.945670167e-20) 116
(0.2231456025 0.08091029173 1.76182853e-19) 109
(0.2743013921 0.07984424595 2.168404345e-19) 55
(0.2768555378 0.105905682 0) 176
(0.2640022636 0.07819330287 -4.33680869e-19) 54
(0.2726087353 0.07546994892 0) 25
(0.2480446442 0.1024361814 -2.168404345e-19) 202
(0.2769291854 0.09534090108 -5.421010862e-20) 116
(0.3038525293 0.09611527033 0) 89
(0.1793548346 0.05775014175 -2.710505431e-20) 43
(0.285426292 0.08805178992 -2.981555974e-19) 87
(0.2312415196 0.09398883425 2.981555974e-19) 170
(0.2851318521 0.1036122969 0) 147
(0.2300324391 0.09722877703 -1.084202172e-19) 170
(0.2168068966 0.09916405989 0) 198
(0.2632369017 0.08955571386 0) 114
(0.2861920448 0.08046742282 5.421010862e-20) 27
(0.214969609 0.07174748324 3.252606517e-19) 78
(0.2171691531 0.09300974133 -2.137699401e-19) 168
(0.2749412279 0.1425765205 0) 386
(0.2401207525 0.07824543939 0) 81
(0.2763149892 0.1023881524 0) 176
(0.3036842842 0.1456198395 2.168404345e-19) 359
(0.2672825313 0.07767397071 0) 55
(0.2999593511 0.09411125946 -7.115076757e-20) 89
(0.2700820892 0.09652947781 -1.084202172e-19) 145
(0.290688619 0.09625546632 0) 118
(0.2783854893 0.1010354052 -5.421010862e-20) 146
(0.3035494337 0.1423878518 0) 359
(0.1929981904 0.05534045091 -2.710505431e-19) 15
(0.2592635208 0.1110289766 -2.168404345e-19) 234
(0.1455574365 0.06422454419 0) 99
(0.2884611978 0.1324031381 2.168404345e-19) 297
(0.2181085804 0.07902946067 1.084202172e-19) 108
(0.2533407706 0.1022184179 0) 173
(0.1477417752 0.04008181305 5.421010862e-20) 9
(0.1873310781 0.07124148922 -2.168404345e-19) 104
(0.2838658584 0.0765781273 -2.168404345e-19) 27
(0.2403789194 0.07380388193 3.523657061e-19) 51
(0.2470325885 0.1125631085 2.168404345e-19) 232
(0.2312298855 0.06954523104 0) 50
(0.2512357535 0.07710235565 0) 52
(0.1825508942 0.08674951243 0) 193
(0.2776563384 0.1021159499 -2.168404345e-19) 146
(0.1604009842 0.04709664747 1.084202172e-19) 11
(0.3002597295 0.1051310543 1.626303259e-19) 149
(0.2093463975 0.06894279462 -9.486769009e-20) 77
(0.2612333134 0.146150144 1.084202172e-19) 414
(0.1864743907 0.08163925996 -1.084202172e-19) 164
(0.2695682857 0.07596133543 -3.252606517e-19) 25
(0.2662729256 0.08196137854 2.168404345e-19) 54
(0.259999462 0.08798499624 3.252606517e-19) 114
(0.2489041402 0.06801801544 0) 22
(0.2821739069 0.126357653 1.490777987e-19) 297
(0.2218577021 0.09663038288 -2.168404345e-19) 199
(0.2754790189 0.1228034823 -2.168404345e-19) 266
(0.2020651288 0.07744130976 2.168404345e-19) 106
(0.2986462692 0.1061592244 2.168404345e-19) 149
(0.1856858987 0.07335902131 1.084202172e-19) 104
(0.2886624847 0.1160402666 0) 207
(0.2151593608 0.06633789281 -1.084202172e-19) 48
(0.2727180157 0.1046317679 2.168404345e-19) 175
(0.2595354076 0.1259292495 -4.33680869e-19) 294
(0.2663365685 0.0863267875 -2.168404345e-19) 84
(0.2640367228 0.07846670727 1.084202172e-19) 54
(0.2099211252 0.0948783343 0) 197
(0.2473804362 0.1241507611 0) 292
(0.2807651472 0.08494010861 0) 56
(0.2903343202 0.1199200737 3.794707604e-19) 238
(0.2762636344 0.1010923098 0) 146
(0.2695178789 0.09943913406 1.084202172e-19) 145
(0.2224250014 0.09519721808 -1.084202172e-19) 169
(0.1634031212 0.04636239041 2.981555974e-19) 11
(0.2855390036 0.1131094725 -2.710505431e-20) 207
(0.2444980946 0.07389645391 0) 52
(0.293651713 0.1396328322 0) 358
(0.2492700513 0.08607402642 -2.168404345e-19) 112
(0.2443086467 0.07343171854 2.168404345e-19) 52
(0.2758406673 0.08716969002 -1.084202172e-19) 86
(0.2701694138 0.1276321948 1.084202172e-19) 295
(0.2845904981 0.1008825214 -8.131516294e-20) 147
(0.2054893541 0.07508032438 2.168404345e-19) 106
(0.2873299392 0.1010090291 0) 147
(0.2856556116 0.08021340375 6.505213035e-19) 27
(0.2867128208 0.1274052073 2.168404345e-19) 297
(0.2956515808 0.1149178339 2.710505431e-20) 208
(0.2131589703 0.06839693788 -4.33680869e-19) 47
(0.259344349 0.08249504196 4.33680869e-19) 84
(0.2237357238 0.1029180462 -2.168404345e-19) 229
(0.1840222679 0.06225128038 0) 74
(0.2615221287 0.1224859755 -1.084202172e-19) 294
(0.2136796877 0.07405945971 0) 78
(0.3024431095 0.08486037174 3.252606517e-19) 29
(0.2518404443 0.08282162792 1.084202172e-19) 83
(0.2750936038 0.09277532739 6.505213035e-19) 116
(0.2428152814 0.07043083472 -4.33680869e-19) 21
(0.2929997925 0.1515935786 -2.710505431e-20) 418
(0.2324988568 0.09010699655 8.809142651e-20) 140
(0.2049589191 0.1236559782 -2.168404345e-19) 346
(0.2579232021 0.07034323645 0) 23
(0.2881872141 0.1254896007 0) 267
(0.2603934711 0.07094249651 2.168404345e-19) 24
(0.2498904311 0.08875667679 0) 112
(0.2471222742 0.08342056703 -2.168404345e-19) 82
(0.1998508807 0.08719153206 -2.168404345e-19) 166
(0.2301057206 0.09596520116 0) 170
(0.2859680413 0.09121485737 2.710505431e-20) 87
(0.2246918432 0.08719283595 -1.185846126e-20) 139
(0.2797902811 0.09265015424 4.33680869e-19) 116
(0.1813316088 0.07377600541 -4.33680869e-19) 133
(0.1720797682 0.04828517504 1.084202172e-19) 12
(0.2388761827 0.07949411578 0) 81
(0.2978587252 0.08027628176 -4.33680869e-19) 29
(0.2593647603 0.1591693451 -1.626303259e-19) 474
(0.1791337705 0.1119853387 0) 313
(0.2474461025 0.07750738933 -2.168404345e-19) 52
(0.2578726314 0.07419822602 0) 23
(0.2915293063 0.1250977561 1.084202172e-19) 268
(0.2504418793 0.08939788982 4.33680869e-19) 112
(0.1810710865 0.1316408736 0) 403
(0.2688780715 0.09136539685 3.252606517e-19) 115
(0.1844524285 0.05793398714 -1.084202172e-19) 44
(0.29638827 0.1492409551 0) 388
(0.1503940196 0.0690057234 5.421010862e-20) 129
(0.2228287666 0.07286537848 -2.168404345e-19) 79
(0.2663780232 0.09239058395 2.168404345e-19) 114
(0.2915282813 0.07883675826 0) 28
(0.2134229174 0.07447065896 2.168404345e-19) 78
(0.2556899889 0.07135238775 1.965116438e-19) 23
(0.2559042573 0.1262854818 -1.626303259e-19) 293
(0.2769783008 0.1368938406 2.168404345e-19) 356
(0.255156755 0.07136539199 2.371692252e-20) 23
(0.2059759737 0.09723744211 2.168404345e-19) 197
(0.2948167757 0.0970779638 3.252606517e-19) 118
(0.2905301782 0.1014600773 0) 148
(0.2498454523 0.09722862475 0) 172
(0.2129822384 0.06015289112 -2.168404345e-19) 17
(0.2380131371 0.07440187033 -5.421010862e-20) 51
(0.263837717 0.1100492562 2.168404345e-19) 204
(0.2852632347 0.08405267134 -5.421010862e-20) 57
(0.2928338048 0.08042121971 -5.421010862e-20) 28
(0.2350829943 0.08572983708 -4.33680869e-19) 110
(0.3024317732 0.1085124176 -4.33680869e-19) 179
(0.2027831961 0.08639879597 0) 166
(0.3024983527 0.1175477687 0) 209
(0.3015677537 0.116134013 -3.252606517e-19) 209
(0.2916068097 0.1149403562 -1.084202172e-19) 208
(0.2314792406 0.07591627917 -3.252606517e-19) 80
(0.2524289963 0.09917876605 -2.168404345e-19) 173
(0.2406811802 0.07209710594 -1.084202172e-19) 51
(0.2686683779 0.09523358584 2.168404345e-19) 145
(0.3002003299 0.1376882903 -2.168404345e-19) 329
(0.2499175834 0.1315214644 0) 352
(0.2556909592 0.09908828126 0) 173
(0.2747817333 0.1007918382 0) 146
(0.2522179461 0.07495403073 -1.084202172e-19) 53
(0.2993287415 0.08642249641 2.168404345e-19) 59
(0.1621643098 0.06011638759 -5.421010862e-20) 71
(0.282565817 0.1060565031 2.168404345e-19) 177
(0.170760266 0.05541754008 -1.219727444e-19) 42
(0.2842168103 0.08197851473 0) 57
(0.2627263154 0.1567540488 -8.131516294e-20) 474
(0.2162492998 0.08779669138 0) 138
(0.2689478506 0.07228555826 3.252606517e-19) 25
(0.2857426931 0.137061999 -2.168404345e-19) 327
(0.1536432139 0.05776582395 -1.084202172e-19) 70
(0.2752066271 0.08801070422 -2.846030703e-19) 86
(0.2615164052 0.07174672155 0) 24
(0.2866960397 0.08004359264 -2.168404345e-19) 27
(0.2589190147 0.1397073663 -4.33680869e-19) 383
(0.2072415432 0.09354933531 -6.776263578e-20) 197
(0.190789868 0.08406032888 0) 165
(0.2899231274 0.1215336359 -2.168404345e-19) 238
(0.2484169768 0.1296403718 2.168404345e-19) 322
(0.1691560856 0.06599501779 -5.421010862e-20) 102
(0.2675838287 0.1448158662 6.505213035e-19) 385
(0.2433961669 0.06631004459 0) 21
(0.1699231225 0.05113129133 0) 12
(0.3009563981 0.08876438389 -6.776263578e-21) 59
(0.2517534536 0.1131992096 -2.168404345e-19) 233
(0.2412401611 0.1044931165 0) 201
(0.2370586571 0.1066061105 1.084202172e-19) 231
(0.2722654824 0.08516219056 2.168404345e-19) 85
(0.2036096986 0.06576331712 -1.084202172e-19) 46
(0.2422162431 0.07648429961 2.168404345e-19) 51
(0.2026615634 0.0902206684 -2.710505431e-19) 166
(0.269316778 0.1184652551 3.252606517e-19) 265
(0.2171244278 0.06162595839 5.421010862e-20) 18
(0.2894786352 0.08898836244 4.33680869e-19) 87
(0.2264473295 0.07914575162 0) 109
(0.1909396307 0.05793774898 1.084202172e-19) 45
(0.2523961149 0.1130781369 -2.168404345e-19) 233
(0.2866163776 0.1053342276 0) 177
(0.2306091321 0.1025040521 -1.084202172e-19) 200
(0.2423551256 0.09276019291 0) 141
(0.199641544 0.1068989059 1.084202172e-19) 256