/*--------------------------------*- C++ -*----------------------------------*\
| =========                 |                                                 |
| \\      /  F ield         | OpenFOAM: The Open Source CFD Toolbox           |
|  \\    /   O peration     | Version:  2406                                  |
|   \\  /    A nd           | Website:  www.openfoam.com                      |
|    \\/     M anipulation  |                                                 |
\*---------------------------------------------------------------------------*/
FoamFile
{
    version     2.0;
    format      ascii;
    arch        "LSB;label=32;scalar=64";
    class       vectorField;
    location    "0.009/lagrangian/dsmc";
    object      U;
}
// * * * * * * * * * * * * * * * * * * * * * * * * * * * * * * * * * * * * * //


9421
(
(517.1681405 340.4359001 -69.50558836)
(1441.270563 -815.0874951 -225.6999032)
(484.7271844 627.4871135 0.05051684971)
(245.1815592 102.5161729 -121.8269033)
(118.1008263 202.8195204 -729.7353959)
(516.0632295 429.6125299 -350.6165545)
(484.1909199 63.70346206 -505.8195883)
(957.3871932 1121.792094 368.9516091)
(177.7938642 29.60212407 758.2418892)
(1281.568105 506.9374586 -419.6839316)
(1203.268813 769.0916585 611.4708882)
(-19.33268567 1127.172764 162.9546243)
(1011.806339 661.2231939 -406.1663591)
(586.5878123 -444.1437425 2.272895858)
(1153.80916 679.618341 71.32935906)
(1142.116194 202.5311341 529.5549495)
(-267.0235616 719.1771427 148.8823861)
(978.0445726 468.8449565 382.855671)
(601.1826413 219.7731045 -97.97069877)
(293.6456705 1116.346299 -352.7430834)
(4.168634454 161.5386368 -1275.551315)
(265.15622 456.5418674 -939.1139221)
(607.2354383 238.3235742 128.8799882)
(-217.5723794 -8.517920076 -284.0931676)
(1381.551596 139.149853 120.1876548)
(1389.245267 532.9938531 195.4730792)
(-130.4184659 -152.1254813 -545.261337)
(618.590406 700.8689939 297.0895708)
(397.2414716 339.3507929 42.64225589)
(-137.2735176 663.2623909 -420.6462195)
(354.9802063 -427.8082017 558.6580877)
(664.0590211 344.8518225 65.79686072)
(1134.935047 520.9312192 -302.0335115)
(281.7615794 219.455332 -155.5621809)
(358.5930097 -12.88175557 -253.0695103)
(979.7051835 809.0769306 -547.6198852)
(32.80381814 24.05659071 516.1904776)
(335.4881493 -608.5886853 634.321351)
(103.1795273 73.85134455 292.6491196)
(716.8678947 412.6245452 -197.338057)
(393.8830665 809.2760973 137.2143214)
(1000.228314 1472.046645 636.906935)
(657.9930486 136.9689961 522.9149303)
(1272.504973 623.7616994 -109.7467252)
(1252.190184 478.4133477 454.3998782)
(822.5782076 50.84633876 -119.9725134)
(36.44668794 453.1098262 -297.3810474)
(93.41235701 225.0949085 -185.7811671)
(-70.38202341 5.71556513 25.86911377)
(1198.83739 179.9242812 -377.6226103)
(814.9563224 66.62785285 650.8357892)
(744.9999326 1491.624813 499.4282775)
(788.2449882 30.12387404 174.6714706)
(678.5025808 -760.5605662 -517.4531726)
(641.3243863 -308.964155 -79.75690237)
(-57.61000839 -79.57324091 518.3677428)
(1826.504529 452.985485 255.3910738)
(1360.835353 -292.5270008 -384.5027988)
(1788.961532 1129.441143 -101.5131125)
(984.9011381 -92.8438877 193.387472)
(227.2327873 717.1152557 -454.7322904)
(485.8757951 187.6639167 249.2925269)
(673.8939939 780.9665567 -714.9846322)
(303.2620715 -188.5721044 -345.4120016)
(1572.758932 421.1415424 -746.9774751)
(1423.467555 636.3671516 -637.9871928)
(976.832712 449.44413 510.5022785)
(-24.23975209 981.8482411 259.1977651)
(19.63575223 -616.0311673 293.1336352)
(-178.9951559 463.8301538 736.3855399)
(-18.16823147 44.28311345 587.3790916)
(564.9386908 243.2529095 611.9917219)
(843.2794517 240.9494479 -468.4346281)
(1363.945249 -10.33212543 -77.10568315)
(458.9866535 552.9959661 -359.2605104)
(970.4117411 -196.7964962 76.31563158)
(332.8660534 505.7001769 313.6962672)
(704.7373698 183.1188446 -784.8815086)
(1380.223182 588.002125 385.3242717)
(707.0007243 630.3539375 501.4659896)
(839.3741001 569.35617 -316.0545948)
(1187.730471 723.3293286 57.36194907)
(226.7064637 464.8713594 104.0019161)
(161.4290055 49.32136783 29.98784068)
(99.13039273 600.5726097 360.8992231)
(575.1711264 -49.88898745 105.7522539)
(7.320590579 161.6067544 -410.1545302)
(232.7093291 -291.5392576 16.21756561)
(1207.705804 408.6229902 163.1487244)
(1362.285314 -450.2034578 59.04714361)
(84.41665782 767.9121104 -31.1191536)
(836.2757306 138.5465856 271.8029767)
(161.2922338 466.2471584 -76.25970488)
(1432.514038 128.4733758 -231.9463557)
(366.4715386 -75.30682709 -774.0994192)
(1004.396065 198.2385286 232.7841149)
(117.8002363 753.9024459 -282.0724551)
(2062.020497 870.7673671 166.2213305)
(-483.8922176 -420.6866934 752.0062374)
(1637.217253 -514.0124117 -325.4227294)
(729.4185647 969.8816945 -116.4606354)
(438.1045504 568.4770517 241.0254433)
(318.1929443 184.7772202 -700.1764799)
(127.661597 725.4013277 87.2625844)
(229.971918 81.18556257 -14.38809683)
(598.5668301 211.6879571 -681.0850305)
(508.0491105 -173.4212616 -153.5508817)
(557.8961322 4.092310212 78.40687453)
(1359.643908 -6.928157134 16.74320531)
(179.4066544 -129.689903 29.24757822)
(670.6884501 -51.38236564 363.7292287)
(-22.23245307 938.4315921 -308.6182204)
(-458.320897 474.6855656 -463.283788)
(1092.089613 -374.6268155 -887.7058945)
(-6.949914003 484.4138608 -635.1654833)
(751.4333055 -29.94906935 221.6768423)
(619.0996613 -100.5679734 161.0562757)
(291.7219759 538.0404262 -611.3727874)
(1021.956876 580.4517704 -120.4232899)
(934.8371253 696.8145545 245.8126135)
(336.0606272 702.2616485 -340.2980055)
(579.7840681 401.2535226 559.3047227)
(1864.736636 -380.5281997 -1233.808609)
(1079.791855 211.9729806 -912.1852392)
(239.6743516 902.956037 -34.98020533)
(870.6464793 -116.4125584 -222.6994258)
(192.1458331 226.0055898 706.5726822)
(599.0758498 149.7389273 884.4034127)
(122.0016482 -74.09755532 100.5197935)
(21.32099358 80.65402052 384.9299602)
(1015.511459 983.2825683 -500.8337816)
(1472.017274 632.4669022 55.68888029)
(1058.995194 121.297816 -340.3353487)
(286.0429656 164.7747227 -5.907266352)
(1705.457046 292.3404145 307.2353858)
(364.9342481 177.5823372 311.1726331)
(161.6746789 674.8037889 -425.1371991)
(-11.70785512 196.8630676 -166.9411921)
(-301.9891396 187.1284491 394.5730474)
(850.2580711 637.4529649 -131.2147299)
(798.3458828 -182.3945636 521.0914253)
(1203.820362 163.0461266 -598.2912408)
(243.6919943 -880.0823361 -819.1505351)
(740.2854092 -457.2346215 654.1200146)
(-313.897492 398.2167213 13.80401199)
(484.7587408 -462.1174118 -170.0870915)
(1092.364679 59.554739 71.13753083)
(306.1611732 777.798086 -51.71149023)
(-104.5041245 422.2117855 -47.90392367)
(145.588807 395.512297 -227.4747219)
(808.6414171 679.8222487 -288.3262117)
(358.4649088 51.52691704 8.918260479)
(-64.57709411 271.8687621 295.4866502)
(129.788973 -522.0388596 663.3092924)
(-54.42328334 -159.421881 -468.3412484)
(39.80870515 -2.639789095 140.1026391)
(994.376015 1032.555547 -570.7669879)
(640.6486173 54.20664 261.8330959)
(1044.34274 -218.9830581 775.0644189)
(-2.64528182 -86.45862646 294.3366015)
(700.3505897 -202.3987279 -159.1095697)
(743.3670453 682.2612934 1400.827946)
(751.885353 924.9437974 946.4179103)
(538.9101898 683.1834194 834.4448426)
(202.0389176 191.9299956 -559.6447445)
(689.5203591 717.3260242 -631.7790952)
(62.11349523 80.569266 -463.1179699)
(1269.07316 349.4652758 -252.1973237)
(1781.439 580.1202207 -686.6992523)
(266.2133816 740.8014002 -460.5508907)
(620.3936011 -797.6119641 448.9963941)
(213.1986793 421.4320259 -217.7761294)
(1058.158077 566.9980979 -163.4523001)
(555.1358584 553.3877287 192.8371496)
(1294.673211 233.6004732 17.40026601)
(2081.736342 547.4563754 -225.6147877)
(100.0097749 366.3317674 -282.8000968)
(544.4982725 724.3645308 -22.7698406)
(-296.9699292 368.0258047 -155.204773)
(346.7728956 286.1232942 -57.95515581)
(283.9294174 1137.312812 663.1172525)
(1146.516341 -285.2311516 -46.36554415)
(1519.872268 622.2678469 257.5217349)
(161.5182069 668.6018942 519.2306022)
(1140.427118 19.897044 -436.6571035)
(-64.28661749 -643.657137 -385.0802707)
(793.992791 702.9124198 -1017.472051)
(1047.363806 36.80705797 -37.63056832)
(125.5777522 331.0718383 538.2955505)
(306.3638043 -240.8114491 -921.2648724)
(1542.826896 565.9968031 -773.61652)
(259.8849423 912.8884488 -90.70070234)
(-242.4324352 -660.4402036 944.0017898)
(207.2518574 983.753059 921.560508)
(708.3955882 -218.9575341 -152.3284592)
(315.5953582 480.4316028 -34.76981538)
(1528.247198 -661.0819691 951.3931633)
(1130.992132 610.0884956 -222.311341)
(927.866737 -164.088011 49.6871654)
(1109.506725 1202.013126 35.51473319)
(308.4335793 -505.5001596 -37.40788755)
(-142.839163 1245.733979 -325.293174)
(1345.420898 379.4957028 -239.8331396)
(-85.28970075 101.3684959 -83.82136393)
(800.2373218 310.2465818 551.7201112)
(795.8581429 -30.82191628 231.5794377)
(791.1525021 170.174537 143.4154585)
(1208.312289 103.8645661 1465.877862)
(1532.914397 345.0428077 425.7126141)
(411.3330879 146.5892764 731.0719035)
(56.50406307 460.4164098 97.06269966)
(396.8942281 183.419831 593.8563249)
(1069.659245 164.756888 512.400906)
(9.096492375 751.1918334 -10.72133587)
(336.263296 -228.9722507 85.20038482)
(-225.1138994 598.7235205 285.8925441)
(2152.663588 975.8699684 14.42654507)
(220.3203326 282.2855162 371.0152755)
(394.8154839 -612.7394047 -659.2118954)
(413.988798 476.5634843 -127.4783239)
(-240.1689462 187.4443113 581.787324)
(812.6662333 470.435202 -815.0562095)
(-1032.647675 -70.17530933 442.606793)
(1206.183204 148.9539927 -719.5236837)
(1467.854442 -26.20166992 372.4115747)
(433.0511639 450.2513478 -128.2077171)
(1959.832833 525.0335242 206.1405288)
(289.264709 12.65356411 -514.4458372)
(918.2152624 279.1999844 23.94903562)
(-207.9663854 911.6646843 238.5682943)
(1634.088937 182.3864369 50.08780712)
(376.5929862 -32.82955588 132.9319385)
(541.9673742 92.6635163 -172.2527929)
(815.0803865 728.1354484 471.4268043)
(1043.61664 -693.8743974 468.2125802)
(439.5495062 698.3940202 -427.1435274)
(211.5563715 339.8866996 -400.5770961)
(943.7281308 681.3939696 232.4758639)
(329.7455464 284.839124 777.9367591)
(785.1279901 338.0057722 -1068.701998)
(588.9924827 -91.64795411 908.9350967)
(577.9960724 173.3180965 408.6836757)
(918.214948 -334.8321251 1010.20998)
(1137.036314 232.3516293 -774.4689481)
(1471.867093 1148.931418 264.6091388)
(570.1038202 564.2991142 764.8357694)
(48.00510381 1304.811778 343.6808645)
(547.2113174 412.7891752 248.3598122)
(-225.0552494 486.0982158 -422.8367184)
(1067.995358 840.9149953 566.0924711)
(513.11579 -130.9166496 -264.1620918)
(-142.7037058 548.6004418 -274.0625852)
(181.1162371 -479.0345428 55.53511947)
(1041.599462 -1.861491759 199.3939289)
(668.4878351 570.0561397 220.6255323)
(-96.46594612 -183.6078043 133.1912939)
(1962.072554 588.8760963 364.957758)
(496.1223016 -393.8750745 252.7787573)
(1776.242174 814.6286152 -556.3423456)
(351.336969 731.5585548 -1446.799892)
(-256.9451041 570.1139757 370.548952)
(300.610088 119.7349636 268.9508855)
(-158.1903192 265.583901 783.8350947)
(-457.3484188 471.4616375 -87.50616631)
(1551.768104 619.9822252 -447.4198494)
(-217.2104791 285.1336648 214.3797822)
(1000.692888 -915.4035603 928.6737598)
(568.4216163 219.2320295 1390.533625)
(222.055852 178.2559083 -24.27353709)
(885.6987686 362.9005907 -106.6444402)
(-489.2346084 384.7938226 -441.5671792)
(56.14413017 293.8687011 331.8768256)
(505.8615212 312.3236279 269.9906389)
(-175.2342772 144.0806825 -880.7329748)
(684.6743914 647.2338517 -400.5847213)
(-193.2943276 696.5451609 -114.250903)
(769.8439803 610.9575548 72.96535701)
(655.1147703 1075.061803 -770.0077171)
(1356.290227 830.9865174 -119.3609019)
(798.3905207 370.184819 244.4809746)
(721.1626738 220.8001921 354.803826)
(-539.8881583 911.1089994 184.5814586)
(267.9538447 -245.9109712 184.4512169)
(527.3827183 870.5783181 162.3986555)
(110.8465684 550.2090153 337.3570574)
(325.6433568 -572.6483386 656.6259981)
(27.0314725 -189.1052601 -151.8711658)
(-97.69387575 1213.310367 -823.810928)
(755.8752063 -9.674060386 357.9279449)
(974.0228506 275.6867392 106.8137744)
(1139.940125 -346.2021931 -357.3922562)
(853.745599 371.0152849 162.9755746)
(260.3734445 481.5449312 -551.9443141)
(777.3340422 -366.2578839 -227.0235782)
(551.9314428 -185.2596268 101.5785732)
(402.4163808 225.7493562 434.1310986)
(258.6938679 -365.9861716 -274.0359403)
(796.17343 696.2894759 161.3929552)
(191.599249 882.8865827 150.178994)
(-496.2662339 318.6252042 -430.8052816)
(-205.4381149 713.9594087 217.1236798)
(153.45157 236.0279933 -199.7443076)
(-381.6523673 -175.539372 661.9964779)
(-1017.287724 369.853337 -327.8290152)
(70.74090534 635.5819884 195.9567711)
(714.0693641 364.427522 991.4004889)
(343.8113259 619.7984838 317.9615057)
(571.5544467 208.2471356 357.5390781)
(-374.8067497 379.8192591 573.4257867)
(207.0533965 340.5782939 -489.2170731)
(75.35364981 216.5339424 1172.98182)
(421.83791 -180.9297703 -28.693567)
(-773.3389221 949.7694768 -758.5873501)
(946.4590277 323.4716131 92.359452)
(276.191014 474.8372662 184.1430273)
(780.0825256 -509.8844477 1157.923457)
(590.0085019 -198.2228317 -1193.741088)
(1418.61674 -106.9143095 666.2307832)
(-73.27369343 40.51052356 -95.90220087)
(1518.758201 241.2978359 -570.4718417)
(32.34272034 780.5798824 -74.96142534)
(601.2101271 1603.37949 442.6472868)
(-92.76536189 78.7721466 186.9239493)
(153.0557646 898.1276367 -457.3115037)
(469.9559486 488.5893943 251.4910143)
(-724.5209086 484.5516047 -12.47321679)
(732.5688696 720.0624905 -138.1400159)
(-413.2057172 194.2482887 10.4928456)
(288.1008281 348.2529121 1004.82044)
(208.4354288 -282.8412778 152.3004111)
(185.1229059 386.8196045 -667.7955778)
(-389.5437207 344.3767182 451.403965)
(388.5187851 121.4940876 -162.8710452)
(169.3520831 547.3442412 833.4530625)
(1801.960426 150.2918002 -558.9984048)
(992.9385447 -183.4677814 -678.7685893)
(1325.723529 836.9485958 84.49955628)
(736.1349373 759.8772501 187.0858271)
(1393.54405 2.496672632 -294.3285959)
(537.106532 891.8193751 134.3728403)
(2094.308248 805.2256082 318.0238934)
(1120.076479 -588.5339217 142.2276195)
(283.8547763 -62.31819753 153.6155649)
(92.52901576 180.6313186 -225.878306)
(863.2512265 296.7118751 713.1599489)
(-310.657544 435.4238519 -684.2286761)
(1193.456014 349.1810795 311.1766461)
(1016.848442 250.6571359 -347.8997531)
(1164.177074 237.2008917 213.1857564)
(646.4044119 545.1968131 -565.629309)
(-990.579544 92.67178651 -731.9057523)
(-283.4496986 350.2785456 416.1502085)
(819.3791096 878.3034709 15.63497642)
(1822.036285 1138.766344 7.754208774)
(979.557345 194.0618285 -770.7541972)
(1748.303386 1002.842816 -465.8635718)
(-257.3283 155.042502 422.1994178)
(382.545477 54.09249104 879.6092065)
(996.033309 331.8188932 -1137.662431)
(122.7133122 166.3530313 -913.5461109)
(1016.336767 -552.5834965 -398.4951466)
(1092.967032 -185.2058659 214.435215)
(175.8156413 -472.5716822 -259.8496098)
(1737.431571 550.8519512 -395.6539238)
(1253.119601 686.6272635 217.2234254)
(949.9929783 -378.0350214 95.73901787)
(636.6394537 38.58088697 380.2224073)
(302.4552256 -123.8271935 316.1931131)
(1304.005323 309.8966827 -74.79974053)
(-224.511088 506.0093796 251.5744485)
(-29.1337678 639.3890813 -614.0054549)
(611.6696217 -52.52673825 4.710045025)
(1081.357723 628.6998622 538.9284944)
(330.7059883 -39.81059974 367.6322934)
(789.5801211 -766.9769992 468.8733637)
(337.9855984 345.9203877 -967.8334099)
(635.8375749 546.3865177 -357.7568161)
(901.7308938 71.96527862 -224.9092179)
(799.195284 79.98210615 -304.0005177)
(-160.9716256 739.0573354 274.1549502)
(-61.11912414 52.85887268 -287.5960239)
(731.1280129 855.261414 240.7726559)
(1179.395111 4.884566967 155.6821545)
(-184.8866921 168.3710707 53.32467955)
(1266.882512 908.9685146 -109.2179225)
(512.5625537 -80.47724131 277.3258832)
(247.0544696 461.0683013 673.286471)
(1267.231036 783.2501318 783.9582111)
(365.0986047 991.2734657 400.2202151)
(-664.2905405 306.1702742 -570.1437742)
(53.45376833 -181.1120949 862.345783)
(1412.366361 141.3531738 105.6522371)
(516.9839065 414.4110909 -686.3505021)
(84.75447496 596.7546963 -831.984614)
(1137.915561 214.5334205 -41.5875)
(-339.3225066 -194.0675971 -35.42680505)
(636.0575628 376.2495636 871.1337159)
(-26.17209747 -179.4641518 0.5102002788)
(467.2231191 1169.992574 -52.65291642)
(951.9635872 570.9493076 -287.7250148)
(1216.750026 640.7284815 -494.0365139)
(223.2693379 -110.2123509 -214.7878291)
(482.9524221 181.8848721 483.1452105)
(199.6591113 23.89976771 -870.3350246)
(263.1684445 -57.92512917 -96.72818917)
(682.4272689 -11.73350925 -844.3403003)
(1027.674389 -181.2820085 -432.2591733)
(1132.867875 -391.3557966 -105.288393)
(1339.993029 -26.57716705 -714.6548396)
(842.3133321 1385.143908 1.389477907)
(212.3427333 -660.5928936 -48.88071474)
(-83.94779224 735.4844944 854.9690517)
(871.8682926 706.4457046 1309.312418)
(1070.494126 274.0202589 232.6735113)
(466.240436 581.3670963 244.1671403)
(1292.003967 -547.2259623 576.9564915)
(634.121704 867.577906 -211.3071164)
(353.7029447 539.0187828 158.454593)
(888.2975581 -102.2573839 -71.64863014)
(-742.5284787 368.0390845 -39.31245398)
(881.0989649 -14.4051957 -292.3718034)
(659.197997 -103.0179923 1254.720864)
(602.212852 -60.32078735 120.9359758)
(1008.869051 1212.872829 -120.851132)
(174.3547972 -3.673990869 -256.5378951)
(870.7940835 -315.9537987 538.3896229)
(993.348426 1067.338024 792.7681241)
(223.6986529 743.0408393 155.8405354)
(90.13052497 -133.3497392 222.2394556)
(-259.7934651 103.4776143 -280.3583857)
(716.3819917 418.5231888 2.950414565)
(1128.912692 -866.4676301 307.9643568)
(190.0480059 -603.7885696 52.74183143)
(535.4094303 839.6978333 -24.51556606)
(-131.9827303 660.3187947 515.9646721)
(431.3304758 814.8286119 -376.633992)
(188.7507151 223.6700308 75.55936091)
(627.0464487 689.7011406 489.6682416)
(-74.13893161 146.8140011 660.4567745)
(917.6625356 519.1902981 -253.4732713)
(1282.241879 57.67463788 -189.9898821)
(447.9552938 -710.5857771 -716.6775915)
(231.6104848 1108.5224 148.5760191)
(-210.9354417 261.9700608 159.5021601)
(43.58287987 675.3263919 421.1196959)
(338.1652157 960.9891765 331.9034988)
(575.9122866 309.5442693 191.9686598)
(304.7930921 776.8409995 -78.76505118)
(-142.6530947 -210.1578384 983.7564705)
(117.2260582 169.115849 -422.2538212)
(606.6147001 28.00818662 -8.610391881)
(-259.4108173 98.86740764 -142.3131033)
(1478.695078 58.10910627 -345.6523985)
(-336.5989865 601.1923669 150.9186073)
(144.7222829 -148.1297202 613.8959457)
(1503.136594 1253.222852 -503.9206068)
(-24.95809157 320.6354396 -318.9845086)
(1841.58508 803.9583567 -686.9014568)
(1261.522304 -163.2244005 263.6145367)
(275.3490873 258.0303799 -417.7498971)
(84.46181064 -161.5045752 -417.4168176)
(1660.895988 31.42937448 -507.3897108)
(386.2473599 302.0686321 107.3707844)
(986.4819892 406.4600322 141.7884221)
(433.3716253 277.683479 -805.7398717)
(411.4522276 1080.360057 -541.8586277)
(-319.0475957 -354.5368123 -859.6888389)
(1394.543181 60.87595063 -746.8554255)
(-637.4457887 -39.91653642 177.9118513)
(732.5864598 -313.5429607 -87.3087584)
(979.8911195 948.4364225 -798.3347679)
(-151.1994607 -548.7978616 231.9002106)
(1216.144832 39.73213191 -251.7296528)
(1095.637335 -16.15416583 -292.7037895)
(1017.564127 374.4897389 244.1876779)
(883.187719 649.3991718 -310.4088477)
(797.2989028 620.5401623 65.79893542)
(1591.327663 875.743272 4.756052983)
(-212.6905921 94.14410101 -492.7293859)
(650.0103031 -58.98188463 -571.0558586)
(-188.1315129 -317.6820345 647.7960878)
(545.8198682 481.6026277 -296.9638834)
(1091.427264 642.9962255 271.5700718)
(1755.281637 412.63296 -644.2756199)
(1026.034903 473.2889494 -95.79071249)
(1132.104333 430.5062807 -1151.340577)
(1339.748611 776.6320298 -237.3630123)
(791.8657267 -73.97590681 -97.3335068)
(253.3429264 23.62880979 268.8195604)
(376.2755955 -261.7303692 269.1143172)
(264.1449815 184.2260199 314.0091258)
(118.2123053 596.5074107 -521.896125)
(989.2739888 604.9488234 -423.865305)
(418.2369308 79.0707279 871.855259)
(561.8425032 330.4718131 -858.2506552)
(-733.4376988 540.7907155 690.4568741)
(1472.603169 469.810056 149.2752412)
(1353.557921 215.0327417 -165.1700889)
(1335.622513 463.4284365 -961.0294403)
(294.2840595 325.3043274 -198.6410189)
(310.7476402 597.4706962 567.7275461)
(-118.4357283 -44.94972249 -59.36421913)
(1077.592875 -242.7883584 119.489439)
(1196.6805 488.1641866 417.8776358)
(144.1478572 463.2796748 173.9053441)
(428.4374593 626.4318947 -379.5125053)
(-51.12028956 -140.387021 -308.2748641)
(373.1309192 530.4260419 247.1533596)
(1476.920566 -776.7126275 415.79802)
(900.1308149 -288.315755 -768.5488187)
(740.849686 624.9613429 387.211719)
(2121.184277 183.7921922 -377.2787892)
(80.11720161 579.0016806 305.2315517)
(846.0343106 380.2981809 872.1542493)
(313.370668 -3.918172009 60.58004593)
(793.0935951 163.5173419 350.5985321)
(-321.9385624 -20.92521678 -129.6005556)
(1403.486743 -304.092175 -1162.866518)
(-906.2874398 437.3481475 290.3080375)
(1369.477682 -676.1452854 437.02966)
(488.5200734 466.2511968 182.3640803)
(617.6300935 -193.3320514 42.75325992)
(311.6203217 900.8498769 25.57299504)
(1294.206025 310.1157188 51.89547217)
(804.1128977 129.779733 -112.1345282)
(1020.989317 -20.52145017 686.2772088)
(255.6115746 612.7742927 397.7127621)
(121.1814872 -865.7858001 -200.7915768)
(889.3627538 -19.58149879 52.5504014)
(117.5175858 669.229175 633.0387232)
(618.8808544 1091.304698 672.3204913)
(1123.312818 789.7855872 -207.287105)
(1165.241162 -22.87693047 212.5252422)
(-136.1371782 824.2208092 22.80129483)
(391.1589336 91.46133233 332.1736311)
(286.3808982 455.4751664 -81.24722136)
(-245.5468172 646.3715898 95.40626913)
(557.5315259 340.0462542 436.5294071)
(496.6469721 362.6879947 -107.7098906)
(509.2263424 593.8843966 -93.38924349)
(575.0122084 714.1048814 125.507439)
(633.8652963 197.4111193 204.7119121)
(449.4366189 1130.83939 308.035785)
(751.0271802 549.3817853 153.5425678)
(703.0293887 161.9855324 -688.0798749)
(978.7427193 -128.895823 -389.7739478)
(-27.34561633 595.6408947 -68.65533231)
(1018.923309 -676.1619082 -116.070441)
(163.2113146 935.8903425 152.5518985)
(562.8038027 325.5799042 631.1733394)
(1457.122634 -405.3801558 626.2445856)
(873.4213226 282.7285238 -89.69811207)
(468.8960171 555.8554274 115.5056996)
(441.2825369 -586.1574473 -858.634903)
(1012.337447 264.6364648 -202.8391016)
(1163.672379 536.9645083 -49.34551842)
(971.6177634 -44.8092998 864.9881615)
(826.6761118 507.6124347 -650.129648)
(735.5252402 -59.52593276 -835.0697391)
(-444.5436352 465.6523046 192.0013948)
(1149.194831 757.2971075 93.44510841)
(121.4895353 -372.700202 357.1373109)
(516.1082558 977.24062 317.070908)
(529.1914047 -113.5555646 -106.3523569)
(735.6332918 135.2017678 400.074811)
(-446.6954588 99.21052765 -151.3621389)
(-119.3372042 986.9579052 -37.4343908)
(-575.74411 348.2746985 28.23807349)
(316.3754068 296.118251 -295.4935697)
(703.7091631 326.8941464 -363.2672415)
(136.7335436 27.44375663 481.6004241)
(-524.1654314 639.2262491 -531.5101824)
(739.0429843 201.3517678 -1307.391533)
(743.9576699 339.0347215 -145.6270023)
(515.5538686 -312.4566767 -881.2297571)
(677.640225 726.2737788 119.142246)
(274.4822511 811.6326854 -160.1129585)
(744.6372043 615.1054211 -500.5427055)
(1043.659119 490.7801816 -915.9043074)
(402.6072027 -533.5984912 -325.2643496)
(531.8747745 348.5228513 -419.103156)
(567.5770975 1001.06377 73.44804006)
(636.6796422 1127.462499 406.4706679)
(1190.79113 1392.637011 266.5359505)
(851.6107929 359.119462 -48.97194299)
(-814.8899529 331.2870339 -85.25178597)
(678.0598038 881.240219 184.7626635)
(230.6652502 0.5058550337 -1239.76472)
(520.5557735 -34.08315909 539.6280243)
(1057.161961 327.5904114 -857.1663175)
(-576.0780041 474.8991418 -529.6088001)
(113.8266697 651.8127951 -133.0240465)
(308.824776 -466.4635926 -303.9798918)
(1241.556096 457.3192404 532.4083886)
(1278.03355 467.2713558 11.36514474)
(-32.36608532 204.7669966 -454.8386327)
(1872.569142 -195.0044842 41.85486256)
(1211.183721 -382.2286996 351.2759572)
(471.7022022 359.4303189 405.6620202)
(1064.022214 42.75672707 -32.8941423)
(-64.6003254 652.1685425 -263.5942412)
(-125.6948492 256.9511536 36.29791364)
(325.5975546 -1129.612462 -846.4538693)
(-510.8869663 180.1107907 -78.3250697)
(780.6903405 249.3262999 14.3264023)
(185.2304351 352.0128662 45.27130849)
(1391.67399 118.4381363 -14.7865001)
(437.6562113 138.3572157 -82.67753059)
(1047.079383 227.1424886 311.5177381)
(-57.54648549 900.6250255 -79.19383127)
(88.33286132 228.4476916 880.8037414)
(933.4546164 234.0726752 201.2308672)
(608.9951701 -44.27831716 522.9201702)
(309.7130651 -472.2714685 -167.703047)
(-105.8327377 1155.212275 254.6106399)
(1457.058264 -176.6182967 705.499875)
(835.0039093 -381.5732744 572.7918191)
(-232.3420776 1101.78898 -656.1014146)
(560.4864494 928.9481889 193.2786465)
(568.2330162 68.32589495 67.9267591)
(459.6040786 -800.7269827 255.272743)
(1639.01821 -844.7938092 798.0484105)
(698.2990702 -432.494506 -546.8570056)
(-516.9722006 -185.0699616 567.8774911)
(-124.0734472 354.0630309 -48.05539495)
(863.3615714 610.0657432 -806.3144803)
(1007.206121 44.07442213 -103.3282121)
(-145.1877939 -15.22041514 242.7908477)
(686.502376 414.6290011 -312.2872831)
(221.7486388 240.9616311 -514.3784722)
(1066.072364 641.874729 473.914008)
(-45.23345927 21.89216389 -451.5038404)
(1542.752276 -286.0192352 128.7095742)
(1053.5505 173.6395372 -1364.86822)
(703.3193166 617.6019759 -21.04835441)
(1435.674977 1058.366873 -87.93998348)
(824.6898767 755.5096965 -53.48459815)
(27.52223697 1021.979645 168.2966972)
(440.558624 459.254316 135.3255707)
(1533.228642 1125.005419 -196.9437875)
(338.7173998 442.6478986 268.1013756)
(-382.7173194 -266.8967085 -2.899989059)
(32.90121685 -363.983578 626.674524)
(1450.483201 964.2528149 606.9163979)
(131.8643608 908.6659521 303.4382665)
(644.2832199 549.3668838 -399.3083559)
(-283.9213466 -28.42768021 90.82396461)
(798.7885339 578.8219956 200.5795885)
(686.993908 845.5823006 192.1911447)
(777.8369241 354.9861582 338.9941632)
(465.8451738 407.7516334 60.23699562)
(174.4165977 40.83219852 -300.5150749)
(247.6712281 750.0136644 60.83021669)
(81.0879657 39.690671 549.0488284)
(-245.4221697 -17.27643987 175.1441561)
(1514.907168 295.7375178 210.165286)
(684.0296804 225.0544143 -335.5749644)
(1007.175036 -123.0442604 251.6115945)
(1842.967893 241.2624235 -332.0017536)
(1096.370494 18.27870553 -421.3915233)
(860.3624916 97.21246272 97.93660316)
(-36.29852914 -93.96005275 -413.3512595)
(476.9741451 410.9031934 92.9164935)
(-17.74016886 537.1371591 -209.1794991)
(957.398894 229.4307876 -73.70489848)
(6.393981837 709.6580066 -59.77794732)
(-183.9216613 170.0306886 -303.1529187)
(-212.8849856 -236.8596123 480.9367755)
(1665.268245 -549.6479293 1128.393099)
(-578.956158 151.0392343 -734.2921399)
(1547.107069 -270.5227498 315.7592291)
(802.2174541 215.7538931 241.4064792)
(848.250836 781.2416006 -46.55995008)
(316.0317026 538.8529477 580.0021585)
(901.9467786 -41.82012854 -628.8753536)
(1413.382417 229.4572426 659.2748003)
(1351.061849 -333.7264026 -334.486127)
(409.0008391 100.694796 38.5385487)
(1109.848785 1242.985194 78.52850554)
(414.7357438 410.2109912 327.490825)
(-162.8948373 505.5333961 -410.5740011)
(608.4122577 233.270518 -393.9792437)
(536.7568237 -706.1926986 751.7051068)
(1281.436663 265.953394 -1027.623082)
(-493.6597626 127.9483223 530.5917232)
(423.4544083 163.5613067 36.09690758)
(1672.836335 -334.7901164 -358.6963361)
(1244.592078 163.2435171 278.1292583)
(1056.928629 935.0489397 -300.6725703)
(1453.393445 427.6743985 -174.4668411)
(-517.3595641 15.07130367 -31.98549599)
(1644.762976 -181.7593215 94.37929166)
(116.2902878 -99.72241725 621.615035)
(-236.3422751 345.4826961 -180.9915002)
(713.7264559 486.2365441 222.3963021)
(370.3956276 578.4318185 -69.30229514)
(218.8413037 355.1490613 -127.7389053)
(863.0762447 362.8600653 96.4259888)
(1278.852158 1231.888751 -789.9953325)
(175.2099295 365.7837819 -227.7308152)
(-527.4244801 834.7696897 695.8323936)
(131.5510839 604.3779541 667.0047409)
(-418.4523964 520.5469045 98.43100105)
(727.6234515 -943.6315037 -634.6055643)
(1023.073805 505.9110488 -1076.082886)
(111.6580982 1317.376864 -678.6108681)
(632.3234845 -55.37809524 -410.347279)
(431.1262465 93.82208323 154.1295282)
(574.7261709 598.768355 734.9451885)
(1204.986839 -303.8366152 -544.8279498)
(501.9162314 -23.59485655 157.8333602)
(-123.4845045 358.7880239 -120.7579789)
(462.3628939 -423.9833961 102.1212697)
(1076.40323 1242.15481 -549.8183951)
(991.0437517 -447.2383052 -234.6946566)
(431.8075482 755.5048333 37.77412554)
(708.5008274 7.597812908 646.1841938)
(-229.6997015 832.4130969 630.4463157)
(1173.090703 26.64198979 280.2555162)
(1050.055748 99.47642113 134.3783174)
(645.3199924 267.3379695 570.4621688)
(527.6267522 262.1254944 -351.5335546)
(1826.990953 416.2606248 368.7595685)
(523.8808473 206.9748387 17.72062214)
(-263.2319469 436.7631446 47.68742144)
(-295.0215533 459.710965 282.6413148)
(1260.85649 903.6713175 -349.0613528)
(-81.21206367 226.3797489 -270.2967423)
(638.9565228 1099.415294 78.68788303)
(97.06631887 303.8748709 242.8458119)
(1655.265746 -536.7251103 -602.9996641)
(1105.37053 -314.7495226 9.950648718)
(848.6286042 382.0206114 78.54252412)
(771.4755908 584.7761615 -256.0107708)
(248.0315689 298.0909973 503.0350759)
(682.5855745 -316.1359925 -416.875686)
(-46.06742751 125.8689397 -395.7238544)
(1176.513564 -556.4237261 85.30808691)
(445.4757505 -4.719718427 308.5010166)
(464.3563183 392.4998732 -472.9853191)
(1204.661787 583.2989391 -488.8596371)
(-158.7369025 -241.0953953 -608.2621908)
(2261.142407 310.1196136 0.6641216135)
(-39.99352047 497.6953231 -107.6577023)
(144.8933706 76.90504984 294.1544592)
(1365.001349 399.1036006 658.4010489)
(337.7252856 249.9215005 1088.523159)
(920.9968898 114.5268898 507.6682097)
(741.713235 468.6025579 -583.999391)
(763.5433217 -225.8980319 416.1304682)
(787.901038 299.6760867 183.3426898)
(188.3751451 850.7144022 234.2593474)
(-224.9867641 -325.3794666 696.6901278)
(326.4692718 1025.518038 -317.1581502)
(510.5030938 265.2361976 -83.28441861)
(533.4735056 243.7708032 -439.9892132)