/*--------------------------------*- C++ -*----------------------------------*\
| =========                 |                                                 |
| \\      /  F ield         | OpenFOAM: The Open Source CFD Toolbox           |
|  \\    /   O peration     | Version:  2406                                  |
|   \\  /    A nd           | Website:  www.openfoam.com                      |
|    \\/     M anipulation  |                                                 |
\*---------------------------------------------------------------------------*/
FoamFile
{
    version     2.0;
    format      ascii;
    arch        "LSB;label=32;scalar=64";
    class       volScalarField;
    location    "0.007";
    object      dsmcRhoNMean;
}
// * * * * * * * * * * * * * * * * * * * * * * * * * * * * * * * * * * * * * //

dimensions      [0 -3 0 0 0 0 0];

internalField   nonuniform List<scalar> 
654
(
16.91428571
17.62342857
17.76342857
17.542
17.35914286
17.33485714
15.10657143
15.65142857
16.09142857
16.558
17.004
17.39628571
17.38971429
17.39142857
17.57657143
17.41142857
17.23885714
11.35171429
11.89114286
12.34628571
12.80114286
13.37771429
14.07657143
14.59771429
15.09714286
15.64314286
16.09085714
16.50771429
16.88457143
16.99057143
17.12342857
17.18228571
17.00657143
9.331714286
9.434857143
9.492857143
9.738571429
9.930571429
10.20028571
10.438
10.88971429
11.36885714
11.85285714
12.42742857
12.94685714
13.58057143
14.06771429
14.582
15.12428571
15.59628571
16.07571429
16.538
16.75314286
16.80685714
17.03857143
8.990285714
8.964285714
8.892
8.920571429
9.036571429
9.055142857
9.096857143
9.113142857
9.220857143
9.334571429
9.473714286
9.614285714
9.825714286
10.10514286
10.35571429
10.69428571
11.128
11.496
11.98628571
12.59542857
13.18657143
13.65085714
14.21085714
14.81628571
15.35514286
15.822
16.14257143
16.454
16.62542857
9.094571429
9.052857143
9.073714286
9.083714286
9.030571429
8.941428571
8.931142857
8.958
8.979142857
9.003142857
9.026285714
9.164857143
9.291428571
9.479714286
9.636285714
9.883428571
10.07685714
10.36142857
10.73257143
11.07685714
11.578
12.12085714
12.73628571
13.194
13.77085714
14.39028571
14.79714286
15.29
15.58457143
15.91228571
9.027142857
8.931714286
8.889714286
8.848857143
8.858571429
8.836857143
8.844571429
8.859714286
8.845428571
8.970285714
9.006857143
8.977428571
9.031428571
9.161428571
9.304857143
9.411428571
9.541428571
9.68
10.01485714
10.34971429
10.57428571
11.098
11.66228571
12.25314286
12.84742857
13.25342857
13.91657143
14.482
15.03857143
15.35
9.051714286
9.047428571
8.978571429
8.935428571
8.938571429
8.815714286
8.723714286
8.681428571
8.656571429
8.628285714
8.602285714
8.733142857
8.778285714
8.797714286
8.948857143
9.046285714
9.219428571
9.441714286
9.486857143
9.719142857
10.102
10.41085714
10.64657143
11.24828571
11.77485714
12.23171429
12.76028571
13.26285714
13.834
14.30171429
9.048285714
8.980571429
8.962571429
8.878857143
8.765428571
8.724
8.731142857
8.724571429
8.675428571
8.658571429
8.599142857
8.617142857
8.619714286
8.578571429
8.632571429
8.754
8.808857143
8.936857143
9.156
9.364
9.544857143
9.89
10.13171429
10.34971429
10.79285714
11.38057143
11.88685714
12.42
12.984
13.57428571
8.860571429
8.808571429
8.751428571
8.703428571
8.736
8.704857143
8.693142857
8.653142857
8.626571429
8.523428571
8.570285714
8.499428571
8.431142857
8.462571429
8.476285714
8.458857143
8.552571429
8.726
8.876
8.940285714
9.147428571
9.375142857
9.765428571
10.01057143
10.358
10.77857143
11.20971429
11.63057143
12.02857143
12.46542857
8.917142857
8.866571429
8.867428571
8.803428571
8.746
8.691428571
8.596571429
8.542857143
8.558571429
8.531428571
8.433714286
8.362
8.388
8.394857143
8.337428571
8.293428571
8.272857143
8.386857143
8.452285714
8.619428571
8.781428571
8.964571429
9.158857143
9.484571429
9.725714286
10.04514286
10.42857143
10.81571429
11.33971429
11.91657143
9.079428571
8.960285714
8.823428571
8.758285714
8.682285714
8.650857143
8.58
8.520857143
8.435142857
8.346
8.385142857
8.405142857
8.326571429
8.236571429
8.266285714
8.374
8.370571429
8.326857143
8.440571429
8.436571429
8.569142857
8.629142857
8.728571429
8.863714286
9.075142857
9.367142857
9.722
10.15171429
10.63742857
11.122
8.838
8.850857143
8.775428571
8.696
8.564285714
8.526571429
8.441142857
8.376285714
8.322
8.323428571
8.278285714
8.183714286
8.257142857
8.260285714
8.248
8.274
8.309142857
8.308
8.270857143
8.335142857
8.362
8.406
8.473714286
8.584857143
8.756
8.936857143
9.151714286
9.542857143
9.845714286
10.23485714
8.796
8.711714286
8.681428571
8.618857143
8.604571429
8.513142857
8.524857143
8.434
8.392571429
8.395714286
8.313142857
8.285142857
8.192
8.230857143
8.266571429
8.227714286
8.185714286
8.193142857
8.116285714
8.174
8.117142857
8.198571429
8.32
8.433142857
8.554
8.709142857
8.881714286
9.052571429
9.335142857
9.659142857
8.833142857
8.733714286
8.686571429
8.668857143
8.584571429
8.601714286
8.589714286
8.558285714
8.47
8.402
8.343428571
8.354857143
8.262285714
8.195714286
8.068285714
8.094
8.016857143
7.947428571
7.953142857
7.949428571
7.906857143
7.977714286
7.972571429
8.020857143
8.156857143
8.286571429
8.439714286
8.671142857
8.767142857
9.008571429
8.934857143
8.864571429
8.785714286
8.720857143
8.671428571
8.631428571
8.526571429
8.524571429
8.497428571
8.431428571
8.328
8.264857143
8.209428571
8.126
8.075142857
8.000857143
7.910857143
7.919428571
7.88
7.896571429
7.902571429
7.95
7.973714286
8.017714286
7.936857143
7.952857143
8.03
8.144285714
8.44
8.645428571
8.968285714
8.981428571
8.949714286
8.782857143
8.669714286
8.548857143
8.44
8.362571429
8.285714286
8.260285714
8.224857143
8.147714286
8.124857143
8.085428571
8.047714286
8.034
8.050571429
8.024
8.055428571
8.004857143
8.011428571
7.940857143
7.834
7.821714286
7.854571429
7.801142857
7.870285714
7.978285714
7.996857143
8.223714286
8.966285714
8.863714286
8.828571429
8.796857143
8.722571429
8.706571429
8.637428571
8.602857143
8.446857143
8.345714286
8.253428571
8.219142857
8.153714286
8.118
8.076571429
8.007142857
7.978285714
7.95
7.871714286
7.804857143
7.785714286
7.719142857
7.779714286
7.778
7.871428571
7.878
7.940285714
7.906857143
7.912857143
8.001714286
8.878
8.73
8.705428571
8.673142857
8.634857143
8.575142857
8.466571429
8.445714286
8.405142857
8.298
8.299714286
8.290571429
8.25
8.126857143
8.084
8.018
7.9
7.875142857
7.784285714
7.774
7.762571429
7.772571429
7.684571429
7.721428571
7.709428571
7.630857143
7.62
7.695142857
7.796285714
7.752571429
8.921714286
8.81
8.797428571
8.682571429
8.645428571
8.570285714
8.531714286
8.428
8.415142857
8.331428571
8.313714286
8.163714286
8.061428571
8.069428571
8.020571429
8.02
8.019142857
7.903714286
7.888857143
7.86
7.747714286
7.687428571
7.592857143
7.588857143
7.581142857
7.656571429
7.576571429
7.547142857
7.590857143
7.628571429
8.918
8.883428571
8.763142857
8.715714286
8.668857143
8.625428571
8.645428571
8.625714286
8.544
8.502285714
8.398857143
8.342285714
8.317142857
8.2
8.110285714
8.040857143
7.950285714
7.855142857
7.803714286
7.720571429
7.718857143
7.774857143
7.788571429
7.721428571
7.601142857
7.615428571
7.660571429
7.728857143
7.744857143
7.77
9.052
8.974285714
8.960571429
8.913714286
8.808
8.697714286
8.568
8.463142857
8.417714286
8.351428571
8.247428571
8.219142857
8.156
8.096857143
8.038857143
7.985428571
7.959714286
7.906857143
7.822571429
7.779142857
7.678285714
7.594571429
7.548571429
7.518285714
7.52
7.543142857
7.488571429
7.425142857
7.378
7.374285714
8.946285714
8.857428571
8.772571429
8.719714286
8.672857143
8.644857143
8.587428571
8.467714286
8.441142857
8.377142857
8.299428571
8.290285714
8.256285714
8.224285714
8.1
8.031714286
7.952
7.951142857
7.886857143
7.796571429
7.733428571
7.588285714
7.582571429
7.516285714
7.481714286
7.367714286
7.407142857
7.389714286
7.424571429
7.416571429
8.68
8.679714286
8.626571429
8.580571429
8.521142857
8.420571429
8.393142857
8.365428571
8.282857143
8.242285714
8.212285714
8.057142857
7.948857143
7.901428571
7.874
7.889714286
7.785142857
7.673142857
7.582
7.569714286
7.571142857
7.596285714
7.468285714
7.425142857
7.310571429
7.269714286
7.211142857
7.190285714
7.133714286
7.179428571
)
;

boundaryField
{
    flow
    {
        type            calculated;
        value           nonuniform List<scalar> 
55
(
16.91428571
17.33485714
17.23885714
17.00657143
17.03857143
16.62542857
15.91228571
15.35
14.30171429
13.57428571
12.46542857
11.91657143
11.122
10.23485714
9.659142857
9.008571429
8.645428571
8.223714286
8.001714286
7.752571429
7.628571429
7.77
7.374285714
7.416571429
7.179428571
8.68
8.679714286
8.626571429
8.580571429
8.521142857
8.420571429
8.393142857
8.365428571
8.282857143
8.242285714
8.212285714
8.057142857
7.948857143
7.901428571
7.874
7.889714286
7.785142857
7.673142857
7.582
7.569714286
7.571142857
7.596285714
7.468285714
7.425142857
7.310571429
7.269714286
7.211142857
7.190285714
7.133714286
7.179428571
)
;
    }
    obstacle
    {
        type            calculated;
        value           nonuniform List<scalar> 0();
    }
    frontAndBack
    {
        type            empty;
    }
    procBoundary3to1
    {
        type            processor;
        value           nonuniform List<scalar> 
36
(
16.69
17.91285714
17.758
17.53714286
17.24314286
17.24314286
16.00571429
16.50314286
17.156
17.40028571
17.65771429
17.58171429
17.58171429
12.28085714
12.72514286
13.25228571
13.89828571
14.45657143
14.45657143
9.569428571
9.697428571
10.08857143
10.30914286
10.53428571
10.894
10.894
9.055714286
9.024285714
9.022
9.068285714
9.044285714
9.112857143
9.247714286
9.247714286
9.000285714
9.000285714
)
;
    }
    procBoundary3to2
    {
        type            processor;
        value           nonuniform List<scalar> 
19
(
9.143714286
9.040857143
9.155714286
9.078571429
8.952
9.017714286
9.081714286
8.929428571
8.870571429
8.928857143
8.968
9.05
9.006
8.936857143
8.913142857
9.056857143
9.028
9.037714286
8.784571429
)
;
    }
}


// ************************************************************************* //
