/*--------------------------------*- C++ -*----------------------------------*\
| =========                 |                                                 |
| \\      /  F ield         | OpenFOAM: The Open Source CFD Toolbox           |
|  \\    /   O peration     | Version:  2406                                  |
|   \\  /    A nd           | Website:  www.openfoam.com                      |
|    \\/     M anipulation  |                                                 |
\*---------------------------------------------------------------------------*/
FoamFile
{
    version     2.0;
    format      ascii;
    arch        "LSB;label=32;scalar=64";
    class       volScalarField;
    location    "0.007";
    object      iDofMean;
}
// * * * * * * * * * * * * * * * * * * * * * * * * * * * * * * * * * * * * * //

dimensions      [0 -3 0 0 0 0 0];

internalField   nonuniform List<scalar> 
654
(
4.818832303e+20
4.840633095e+20
4.923269092e+20
4.906327305e+20
4.899960576e+20
4.938651872e+20
3.937322254e+20
4.114368308e+20
4.266678816e+20
4.428758378e+20
4.588144966e+20
4.735744331e+20
4.776438629e+20
4.820166425e+20
4.915996599e+20
4.91471925e+20
4.911301788e+20
2.837839882e+20
2.997173284e+20
3.137732067e+20
3.280571436e+20
3.457278281e+20
3.668866802e+20
3.837373231e+20
4.003041668e+20
4.184062084e+20
4.341754011e+20
4.493850907e+20
4.637690912e+20
4.709065867e+20
4.789256935e+20
4.850039202e+20
4.845124243e+20
2.223870153e+20
2.26609488e+20
2.298059237e+20
2.376338009e+20
2.442662649e+20
2.529332518e+20
2.60941845e+20
2.744762331e+20
2.889324671e+20
3.037552585e+20
3.211690575e+20
3.374422118e+20
3.569991866e+20
3.730086379e+20
3.900238838e+20
4.080946563e+20
4.245735182e+20
4.415521887e+20
4.583632219e+20
4.685691569e+20
4.744067036e+20
4.854240953e+20
2.031764146e+20
2.040958339e+20
2.03967319e+20
2.061678236e+20
2.104377946e+20
2.124869922e+20
2.151151164e+20
2.17178171e+20
2.214695677e+20
2.259740993e+20
2.311709442e+20
2.364864578e+20
2.436451247e+20
2.526206785e+20
2.610167127e+20
2.717886474e+20
2.851792121e+20
2.970976202e+20
3.124062248e+20
3.311022471e+20
3.496449291e+20
3.651186582e+20
3.834478514e+20
4.033397831e+20
4.217602215e+20
4.385187385e+20
4.514920703e+20
4.644466146e+20
4.736537675e+20
2.040267246e+20
2.045904978e+20
2.065872637e+20
2.083649164e+20
2.08710089e+20
2.082221681e+20
2.095772186e+20
2.118315319e+20
2.139847732e+20
2.16240433e+20
2.185110231e+20
2.236344249e+20
2.285450071e+20
2.350654686e+20
2.408996161e+20
2.491127127e+20
2.560970868e+20
2.655341557e+20
2.773679091e+20
2.887032115e+20
3.043566053e+20
3.213872788e+20
3.406566739e+20
3.560102635e+20
3.748803673e+20
3.952584651e+20
4.101140486e+20
4.276464742e+20
4.399052777e+20
4.533365329e+20
2.025140386e+20
2.018527252e+20
2.023980168e+20
2.029776955e+20
2.047349103e+20
2.057869768e+20
2.075457445e+20
2.09507354e+20
2.107981877e+20
2.154512593e+20
2.180406904e+20
2.190609259e+20
2.22149686e+20
2.271730405e+20
2.326141588e+20
2.372159061e+20
2.424894991e+20
2.480710656e+20
2.588196111e+20
2.697512177e+20
2.779714673e+20
2.942659869e+20
3.1193046e+20
3.306233575e+20
3.497421117e+20
3.640323682e+20
3.857083429e+20
4.050474976e+20
4.244933542e+20
4.373171714e+20
2.030652731e+20
2.04467816e+20
2.044210848e+20
2.049634964e+20
2.065838307e+20
2.052946172e+20
2.047097241e+20
2.052913962e+20
2.062974738e+20
2.072369914e+20
2.082467059e+20
2.131000386e+20
2.159230291e+20
2.181541326e+20
2.23714437e+20
2.280124493e+20
2.343060704e+20
2.419644756e+20
2.451742088e+20
2.533162316e+20
2.655562619e+20
2.760462406e+20
2.847632106e+20
3.035095594e+20
3.205437894e+20
3.359689076e+20
3.536610033e+20
3.70949254e+20
3.904919452e+20
4.074518071e+20
2.029883554e+20
2.029568747e+20
2.040568036e+20
2.036658443e+20
2.025822388e+20
2.031588331e+20
2.048840421e+20
2.063116051e+20
2.067468643e+20
2.079644052e+20
2.081706227e+20
2.102694845e+20
2.120225822e+20
2.127201166e+20
2.15807543e+20
2.206453614e+20
2.238716481e+20
2.290264108e+20
2.366236807e+20
2.440599184e+20
2.509103746e+20
2.62235593e+20
2.70992355e+20
2.792636409e+20
2.938110633e+20
3.125905381e+20
3.294532705e+20
3.47375357e+20
3.664990181e+20
3.867275687e+20
1.987771915e+20
1.990697506e+20
1.992495714e+20
1.996418105e+20
2.019021017e+20
2.027130497e+20
2.039923398e+20
2.046225201e+20
2.055825343e+20
2.047184982e+20
2.074720404e+20
2.073971062e+20
2.073842165e+20
2.098437014e+20
2.119005205e+20
2.13206259e+20
2.173583089e+20
2.236227395e+20
2.293874825e+20
2.330163801e+20
2.404629694e+20
2.485840391e+20
2.611953352e+20
2.701126376e+20
2.819730636e+20
2.960553813e+20
3.106857366e+20
3.252958024e+20
3.395301615e+20
3.551365449e+20
2.000463108e+20
2.003805274e+20
2.018906232e+20
2.0193564e+20
2.021332138e+20
2.024003309e+20
2.017262022e+20
2.020145697e+20
2.039620034e+20
2.049106448e+20
2.041658768e+20
2.040436672e+20
2.063230126e+20
2.081646117e+20
2.084292004e+20
2.090366152e+20
2.102495418e+20
2.149314658e+20
2.184371949e+20
2.246536753e+20
2.308417487e+20
2.376976465e+20
2.449714054e+20
2.559197168e+20
2.64760521e+20
2.759102791e+20
2.890357747e+20
3.025050412e+20
3.200858124e+20
3.394997596e+20
2.036870127e+20
2.024984266e+20
2.00888846e+20
2.009001413e+20
2.006606823e+20
2.014555298e+20
2.013373404e+20
2.014943345e+20
2.010205399e+20
2.004569606e+20
2.029900467e+20
2.050964122e+20
2.048120309e+20
2.042396511e+20
2.066506862e+20
2.110674288e+20
2.127328898e+20
2.133938334e+20
2.18134456e+20
2.198877546e+20
2.252612893e+20
2.288036799e+20
2.334625791e+20
2.391672926e+20
2.470501889e+20
2.572876278e+20
2.694526111e+20
2.839336076e+20
3.002624123e+20
3.168626408e+20
1.982708263e+20
2.000253887e+20
1.997959967e+20
1.994714132e+20
1.979335248e+20
1.985612465e+20
1.980789339e+20
1.980756249e+20
1.983241969e+20
1.999148327e+20
2.004032155e+20
1.996932657e+20
2.031042668e+20
2.048276851e+20
2.06193556e+20
2.085469164e+20
2.111717207e+20
2.129105799e+20
2.137484356e+20
2.172441569e+20
2.198160228e+20
2.228869983e+20
2.266459303e+20
2.31642961e+20
2.383622481e+20
2.454689557e+20
2.536467073e+20
2.669044611e+20
2.779147118e+20
2.915881939e+20
1.973286038e+20
1.968808256e+20
1.976558365e+20
1.977018862e+20
1.988645883e+20
1.982485292e+20
2.000433641e+20
1.994404071e+20
2.000060068e+20
2.016510162e+20
2.012470507e+20
2.021682546e+20
2.015019217e+20
2.040979557e+20
2.066578272e+20
2.073802824e+20
2.080348617e+20
2.099671156e+20
2.09753757e+20
2.130441876e+20
2.133793422e+20
2.17386979e+20
2.225345416e+20
2.27549294e+20
2.328632541e+20
2.392143197e+20
2.461634546e+20
2.531916451e+20
2.635028258e+20
2.751862537e+20
1.981618616e+20
1.973780128e+20
1.977729273e+20
1.988488024e+20
1.984023582e+20
2.003111245e+20
2.015652962e+20
2.023794151e+20
2.018512314e+20
2.01801987e+20
2.019802132e+20
2.038693738e+20
2.032307693e+20
2.032265294e+20
2.017008392e+20
2.040100001e+20
2.037434603e+20
2.036701523e+20
2.05537564e+20
2.071910372e+20
2.078514578e+20
2.115309054e+20
2.132418922e+20
2.164246961e+20
2.220519403e+20
2.276075341e+20
2.33913087e+20
2.425234578e+20
2.474699074e+20
2.56651662e+20
2.004437099e+20
2.003353268e+20
2.000301799e+20
2.000415937e+20
2.004097589e+20
2.010030914e+20
2.000835899e+20
2.015821654e+20
2.025048903e+20
2.02508812e+20
2.016067137e+20
2.016732568e+20
2.019306209e+20
2.014978464e+20
2.018722641e+20
2.016623293e+20
2.010495359e+20
2.029525897e+20
2.036472918e+20
2.058133877e+20
2.077387971e+20
2.107960548e+20
2.132724601e+20
2.163398932e+20
2.16062941e+20
2.184413965e+20
2.225575446e+20
2.277877723e+20
2.382356525e+20
2.463058198e+20
2.011936447e+20
2.029762457e+20
2.037640751e+20
2.01463768e+20
2.003701377e+20
1.990802202e+20
1.980521157e+20
1.977513206e+20
1.974594592e+20
1.983982469e+20
1.991098022e+20
1.988148189e+20
1.998503818e+20
2.004918095e+20
2.011865696e+20
2.024976947e+20
2.04600288e+20
2.056324618e+20
2.081809915e+20
2.086357092e+20
2.106003785e+20
2.105536281e+20
2.095355305e+20
2.110512781e+20
2.13822899e+20
2.142742532e+20
2.181309438e+20
2.231449153e+20
2.25727071e+20
2.34291301e+20
2.011487754e+20
2.003159558e+20
2.010059354e+20
2.017849026e+20
2.015917458e+20
2.027529694e+20
2.026849529e+20
2.034334026e+20
2.012997067e+20
2.004500998e+20
1.998014679e+20
2.005577689e+20
2.005601942e+20
2.012994745e+20
2.019079772e+20
2.018207596e+20
2.02763193e+20
2.037360491e+20
2.034331578e+20
2.034229796e+20
2.046669157e+20
2.046748235e+20
2.080835519e+20
2.098717451e+20
2.142817965e+20
2.163852909e+20
2.20071045e+20
2.211471275e+20
2.233560053e+20
2.279665815e+20
1.991681824e+20
1.972940717e+20
1.982022604e+20
1.989471093e+20
1.995645367e+20
1.996923448e+20
1.986756379e+20
1.997174171e+20
2.003056005e+20
1.993040809e+20
2.009219663e+20
2.023007204e+20
2.029285727e+20
2.015191007e+20
2.020936857e+20
2.020944149e+20
2.007736067e+20
2.018176719e+20
2.011736935e+20
2.026187302e+20
2.040585462e+20
2.060914942e+20
2.055387734e+20
2.08345293e+20
2.09871712e+20
2.095970097e+20
2.111940853e+20
2.152256842e+20
2.200655487e+20
2.208685759e+20
2.001488673e+20
1.991020385e+20
2.002968868e+20
1.991633847e+20
1.998088583e+20
1.995792349e+20
2.002042731e+20
1.99298524e+20
2.005439136e+20
2.001069793e+20
2.012608809e+20
1.992052381e+20
1.982902037e+20
2.000950626e+20
2.005080194e+20
2.021448251e+20
2.03801552e+20
2.025498786e+20
2.03876192e+20
2.048602049e+20
2.036679926e+20
2.038339137e+20
2.030856969e+20
2.047681528e+20
2.063794243e+20
2.103033049e+20
2.099904294e+20
2.110862677e+20
2.1426692e+20
2.173358468e+20
2.000655385e+20
2.007614883e+20
1.995162797e+20
1.999236253e+20
2.003503278e+20
2.008633673e+20
2.028726801e+20
2.039739099e+20
2.036147487e+20
2.042106821e+20
2.033220462e+20
2.035626162e+20
2.04580111e+20
2.033327993e+20
2.027508064e+20
2.026705296e+20
2.020515887e+20
2.013051301e+20
2.016757987e+20
2.012261889e+20
2.029094072e+20
2.061521004e+20
2.083204552e+20
2.08345293e+20
2.069238808e+20
2.091732327e+20
2.123185513e+20
2.161686401e+20
2.186138738e+20
2.213651089e+20
2.030716813e+20
2.028148203e+20
2.040112668e+20
2.044654062e+20
2.0356613e+20
2.0254671e+20
2.010557497e+20
2.001295523e+20
2.006051926e+20
2.005873474e+20
1.996562181e+20
2.005577689e+20
2.006164168e+20
2.007752002e+20
2.00965148e+20
2.012734491e+20
2.022912116e+20
2.026304212e+20
2.021631328e+20
2.027527718e+20
2.018428878e+20
2.013717838e+20
2.019011878e+20
2.028639441e+20
2.047149504e+20
2.071877585e+20
2.075514408e+20
2.076740441e+20
2.082586072e+20
2.100913186e+20
2.007000988e+20
2.001739015e+20
1.997309463e+20
2.000153785e+20
2.004427738e+20
2.013158073e+20
2.015116584e+20
2.002376537e+20
2.011635278e+20
2.0120496e+20
2.009150496e+20
2.02293747e+20
2.030831833e+20
2.039350061e+20
2.024936732e+20
2.024400847e+20
2.020951545e+20
2.037653373e+20
2.038245048e+20
2.032070255e+20
2.032924553e+20
2.012051167e+20
2.028105855e+20
2.028099768e+20
2.036727087e+20
2.02369256e+20
2.052945861e+20
2.066831432e+20
2.095731795e+20
2.112960305e+20
1.947262698e+20
1.961576386e+20
1.96406869e+20
1.968236786e+20
1.969364285e+20
1.96092786e+20
1.969525711e+20
1.978188855e+20
1.973913712e+20
1.97965917e+20
1.988054677e+20
1.966047583e+20
1.955212405e+20
1.959292198e+20
1.968438482e+20
1.988609619e+20
1.978545868e+20
1.96640984e+20
1.959459095e+20
1.972943011e+20
1.990263706e+20
2.014172402e+20
1.997537923e+20
2.003506929e+20
1.990137307e+20
1.996774867e+20
1.998622991e+20
2.011053194e+20
2.013631609e+20
2.045398936e+20
)
;

boundaryField
{
    flow
    {
        type            calculated;
        value           nonuniform List<scalar> 
55
(
4.818832303e+20
4.938651872e+20
4.911301788e+20
4.845124243e+20
4.854240953e+20
4.736537675e+20
4.533365329e+20
4.373171714e+20
4.074518071e+20
3.867275687e+20
3.551365449e+20
3.394997596e+20
3.168626408e+20
2.915881939e+20
2.751862537e+20
2.56651662e+20
2.463058198e+20
2.34291301e+20
2.279665815e+20
2.208685759e+20
2.173358468e+20
2.213651089e+20
2.100913186e+20
2.112960305e+20
2.045398936e+20
1.947262698e+20
1.961576386e+20
1.96406869e+20
1.968236786e+20
1.969364285e+20
1.96092786e+20
1.969525711e+20
1.978188855e+20
1.973913712e+20
1.97965917e+20
1.988054677e+20
1.966047583e+20
1.955212405e+20
1.959292198e+20
1.968438482e+20
1.988609619e+20
1.978545868e+20
1.96640984e+20
1.959459095e+20
1.972943011e+20
1.990263706e+20
2.014172402e+20
1.997537923e+20
2.003506929e+20
1.990137307e+20
1.996774867e+20
1.998622991e+20
2.011053194e+20
2.013631609e+20
2.045398936e+20
)
;
    }
    obstacle
    {
        type            calculated;
        value           nonuniform List<scalar> 0();
    }
    frontAndBack
    {
        type            empty;
    }
    procBoundary3to1
    {
        type            processor;
        value           nonuniform List<scalar> 
36
(
4.754933936e+20
4.920130452e+20
4.921764479e+20
4.904968809e+20
4.867217287e+20
4.867217287e+20
4.171671603e+20
4.338262611e+20
4.54895227e+20
4.654043996e+20
4.764535027e+20
4.786223138e+20
4.786223138e+20
3.070118362e+20
3.207383788e+20
3.367986357e+20
3.561738139e+20
3.736093427e+20
3.736093427e+20
2.280520592e+20
2.329160146e+20
2.442271551e+20
2.515564854e+20
2.591160663e+20
2.70135065e+20
2.70135065e+20
2.04655068e+20
2.054618922e+20
2.069492974e+20
2.095817245e+20
2.106174399e+20
2.138413077e+20
2.186824641e+20
2.186824641e+20
2.019115296e+20
2.019115296e+20
)
;
    }
    procBoundary3to2
    {
        type            processor;
        value           nonuniform List<scalar> 
19
(
2.03636595e+20
2.013458981e+20
2.03903843e+20
2.021858189e+20
1.993669905e+20
2.008304913e+20
2.022558153e+20
1.988643097e+20
1.97553522e+20
1.988515836e+20
1.997233211e+20
2.015495156e+20
2.005696064e+20
1.990297475e+20
1.985016175e+20
2.017022287e+20
2.01059561e+20
2.012759046e+20
1.956382449e+20
)
;
    }
}


// ************************************************************************* //
