/*--------------------------------*- C++ -*----------------------------------*\
| =========                 |                                                 |
| \\      /  F ield         | OpenFOAM: The Open Source CFD Toolbox           |
|  \\    /   O peration     | Version:  2406                                  |
|   \\  /    A nd           | Website:  www.openfoam.com                      |
|    \\/     M anipulation  |                                                 |
\*---------------------------------------------------------------------------*/
FoamFile
{
    version     2.0;
    format      ascii;
    arch        "LSB;label=32;scalar=64";
    class       volScalarField;
    location    "0.007";
    object      iDof;
}
// * * * * * * * * * * * * * * * * * * * * * * * * * * * * * * * * * * * * * //

dimensions      [0 -3 0 0 0 0 0];

internalField   nonuniform List<scalar> 
654
(
5.413046422e+20
4.944066096e+20
5.265994252e+20
4.754735161e+20
6.492203801e+20
5.982840727e+20
2.867000299e+20
3.417374188e+20
5.303045403e+20
5.349388064e+20
3.50775609e+20
3.811182555e+20
5.768077011e+20
3.048733487e+20
2.796903036e+20
3.669506496e+20
6.267737962e+20
3.749882808e+20
4.032814433e+20
4.066300929e+20
2.56271762e+20
4.134970393e+20
5.212727859e+20
3.943124063e+20
4.507588555e+20
4.012041048e+20
4.317238265e+20
4.08340988e+20
4.944066053e+20
4.711679067e+20
4.195354554e+20
3.387236796e+20
5.128149242e+20
1.668191995e+20
2.88219929e+20
2.178746906e+20
2.196116981e+20
3.93558444e+20
3.223568795e+20
2.749914059e+20
1.512305424e+20
3.558013342e+20
5.894250526e+20
2.325920846e+20
2.345727517e+20
5.783248626e+20
4.507588593e+20
5.349388064e+20
4.587065656e+20
4.355637243e+20
6.042747451e+20
7.483254923e+20
4.195354516e+20
4.516315688e+20
5.128149242e+20
2.259955035e+20
2.049089647e+20
3.211361299e+20
1.61780529e+20
1.630114445e+20
2.346589066e+20
2.128247171e+20
2.383131422e+20
4.083115693e+20
1.694580953e+20
2.684142998e+20
1.96779222e+20
2.975601988e+20
2.749914081e+20
3.780763531e+20
3.303869478e+20
3.587804609e+20
3.618099064e+20
3.38827308e+20
2.365874418e+20
3.446979454e+20
3.209632811e+20
3.50775609e+20
3.266727904e+20
4.120055008e+20
2.494418308e+20
4.754735161e+20
3.951776227e+20
6.267737905e+20
2.916407266e+20
1.355973001e+20
2.959796114e+20
2.293829482e+20
3.004495539e+20
9.314939619e+19
1.877271225e+20
1.65530333e+20
2.621444544e+20
3.122382565e+20
2.420829896e+20
2.196116964e+20
1.721818165e+20
9.918673137e+19
3.749882838e+20
1.260254531e+20
2.541438101e+20
2.56271762e+20
2.584356517e+20
2.606363951e+20
2.891624337e+20
3.446979512e+20
4.012041048e+20
3.777583514e+20
3.538955291e+20
2.746703387e+20
4.434521475e+20
5.593806071e+20
6.492203801e+20
3.703663341e+20
4.486780409e+19
9.039820073e+19
2.959796157e+20
1.376297699e+20
6.933451245e+19
1.164367452e+20
1.173294524e+20
2.364719079e+20
1.429878853e+20
2.401832742e+20
3.147078865e+20
2.440129979e+20
1.96779222e+20
2.231701474e+20
1.74994531e+20
3.024610825e+20
2.033150464e+20
3.587804668e+20
2.325920846e+20
2.606363908e+20
2.628749353e+20
2.651522679e+20
1.337347016e+20
4.856893048e+20
2.722273253e+20
4.120055044e+20
3.603048699e+20
4.475044857e+20
3.387236796e+20
4.843252062e+20
1.346034132e+20
2.711946022e+20
1.138383129e+20
2.293829499e+20
2.080035373e+20
2.794481907e+20
2.346589049e+20
2.128247155e+20
2.621444564e+20
2.642016016e+20
3.631244872e+20
1.708090998e+20
7.379220824e+19
3.223568795e+20
2.249929685e+20
1.764356329e+20
3.558013342e+20
3.075261144e+20
3.101227794e+20
2.867000299e+20
2.365874438e+20
1.325761351e+20
4.012041048e+20
6.206030006e+20
3.811182588e+20
2.472033026e+20
4.157363846e+20
3.356283643e+20
2.540427574e+20
5.697943602e+20
2.019051184e+20
3.163937025e+20
2.504442902e+20
2.981978349e+20
9.24460166e+19
3.027355376e+20
1.642612334e+20
1.418831447e+20
1.906505138e+20
2.642016037e+20
1.452497949e+20
1.22006498e+20
2.705714281e+20
1.735767813e+20
1.749945324e+20
2.772559945e+20
1.524862836e+20
3.331532879e+20
2.067485196e+20
2.345727537e+20
2.891624337e+20
2.121218143e+20
2.139755207e+20
5.126720439e+20
3.266727904e+20
3.021373699e+20
3.603048699e+20
3.635973946e+20
2.258157844e+20
4.55835484e+20
1.346034123e+20
1.581968501e+20
1.593736369e+20
1.605680637e+20
2.773380518e+20
1.397240964e+20
1.173294533e+20
1.655303355e+20
1.668191995e+20
2.642016016e+20
1.936663932e+20
1.708090998e+20
1.229870137e+20
2.479668304e+20
1.74994531e+20
1.512305424e+20
2.541438101e+20
3.075261144e+20
2.067485196e+20
1.563818345e+20
1.577249612e+20
2.386370411e+20
2.942163435e+20
2.428446524e+20
4.08340988e+20
2.746703339e+20
3.04873346e+20
5.31411572e+20
1.693618383e+20
3.418766161e+20
1.346034132e+20
1.581968524e+20
2.276766275e+20
2.293829482e+20
2.311150398e+20
2.095861414e+20
1.642612322e+20
2.128247139e+20
1.429878842e+20
1.441099645e+20
3.147078865e+20
3.172168948e+20
9.838961021e+19
1.239834152e+20
1.499953123e+20
1.764356314e+20
7.624314242e+19
1.025087048e+20
2.325920846e+20
2.085091126e+20
2.891624313e+20
1.856065891e+20
2.674694032e+20
2.428446524e+20
1.633363966e+20
2.197362709e+20
2.217260738e+20
3.356283643e+20
3.66950653e+20
3.418766161e+20
2.019051199e+20
2.711946022e+20
1.138383137e+20
3.440744248e+20
1.848920332e+20
2.328734905e+20
1.642612334e+20
3.31060671e+20
2.859757706e+20
1.441099645e+20
9.683319659e+19
1.464077999e+20
1.475844165e+20
1.983734643e+20
1.499953135e+20
1.260254531e+20
1.524862848e+20
2.050174079e+20
2.067485196e+20
1.303181965e+20
1.840124563e+20
2.386370411e+20
2.407224629e+20
3.50775612e+20
1.633363966e+20
2.472033026e+20
2.49441833e+20
1.678141836e+20
2.82269733e+20
2.27917742e+20
3.140746287e+20
1.807964001e+20
2.049089632e+20
1.605680649e+20
3.004495539e+20
2.09586143e+20
1.877271239e+20
1.18235953e+20
3.574697133e+20
3.842932387e+20
2.420829896e+20
1.952103983e+20
1.475844153e+20
1.735767799e+20
3.49989062e+20
1.26025451e+20
7.624314242e+19
3.075261144e+20
2.842792168e+20
2.867000323e+20
1.577249625e+20
3.181827242e+20
2.674694032e+20
2.968101307e+20
2.450045949e+20
3.021373699e+20
2.217260718e+20
2.796903036e+20
3.387236766e+20
3.133868981e+20
2.467729243e+20
2.485950538e+20
2.276766258e+20
1.376297689e+20
1.848920332e+20
1.630114433e+20
1.407953429e+20
1.655303355e+20
2.383131422e+20
3.602749141e+20
1.210414967e+20
2.196116981e+20
1.229870128e+20
1.239834152e+20
2.249929685e+20
2.016407233e+20
2.033150481e+20
2.306445858e+20
1.809049547e+20
2.345727537e+20
1.577249625e+20
1.060609063e+20
1.337347005e+20
5.126720439e+20
4.08340988e+20
2.472033026e+20
3.048733514e+20
3.076593339e+20
3.387236766e+20
2.848971775e+20
2.243390205e+20
2.259955002e+20
2.049089632e+20
1.835063599e+20
2.311150415e+20
3.027355399e+20
3.050565786e+20
2.128247171e+20
2.14481828e+20
2.401832742e+20
1.936663917e+20
1.952103983e+20
2.95168833e+20
1.735767813e+20
1.999937497e+20
1.26025451e+20
2.541438081e+20
1.537630572e+20
3.359663444e+20
1.563818345e+20
1.314374688e+20
1.590913621e+20
3.209632838e+20
2.698273915e+20
2.177818603e+20
2.746703339e+20
1.662945538e+20
3.356283643e+20
2.82269733e+20
1.994280279e+20
3.140746287e+20
9.039820073e+19
3.187472785e+20
2.064446549e+20
9.244601728e+19
2.561608414e+20
2.346589031e+20
1.418831437e+20
2.14481828e+20
2.642016016e+20
3.389161854e+20
2.196116981e+20
2.705714302e+20
7.439004912e+19
2.749914081e+20
2.268458155e+20
1.524862848e+20
1.281358799e+20
1.033742598e+20
1.303181954e+20
2.1029995e+20
2.651522702e+20
1.604816419e+20
1.618964349e+20
1.088909311e+20
8.240110161e+19
2.771575897e+20
1.957832107e+20
4.234045957e+20
2.848971775e+20
1.570373155e+20
2.48595052e+20
2.504442884e+20
1.146914749e+20
1.61780529e+20
2.095861414e+20
9.386356194e+19
1.418831437e+20
1.429878842e+20
4.803665484e+19
2.178746923e+20
1.708090985e+20
2.459740255e+20
1.487800982e+20
1.999937497e+20
1.26025451e+20
1.524862848e+20
2.050174096e+20
7.753069486e+19
1.563818358e+20
2.891624313e+20
2.121218143e+20
2.674694032e+20
2.428446545e+20
1.633363966e+20
2.19736269e+20
1.662945553e+20
1.957832125e+20
4.234045957e+20
2.848971801e+20
1.794712164e+20
2.259955018e+20
1.593736381e+20
1.835063586e+20
1.848920332e+20
1.630114445e+20
2.581247953e+20
2.364719061e+20
2.621444564e+20
1.921466208e+20
2.904995898e+20
1.464077987e+20
1.96779222e+20
2.231701491e+20
1.999937513e+20
2.520509041e+20
2.287294291e+20
3.075261119e+20
1.809049532e+20
2.085091126e+20
2.628749375e+20
4.242436287e+20
2.674694009e+20
2.428446524e+20
2.722273277e+20
1.648022018e+20
1.662945538e+20
1.678141821e+20
1.975888113e+20
1.994280242e+20
1.794712164e+20
2.259955002e+20
9.107065033e+19
2.523212449e+20
1.61780529e+20
2.794481886e+20
2.111930144e+20
1.655303355e+20
2.383131422e+20
1.441099645e+20
1.69458094e+20
1.464077999e+20
1.475844165e+20
2.231701474e+20
1.499953135e+20
2.016407233e+20
7.62431418e+19
2.562717599e+20
2.067485196e+20
1.042545563e+20
2.628749353e+20
7.954568038e+19
1.337347016e+20
5.396547831e+19
4.08340988e+20
1.922692354e+20
1.662945553e+20
2.517212732e+20
2.82269733e+20
2.564074644e+20
2.692068284e+20
6.779865104e+19
2.049089647e+20
2.293829499e+20
1.61780529e+20
2.561608395e+20
2.346589049e+20
7.094157237e+19
3.098070848e+20
3.362565839e+20
2.662912886e+20
1.952103968e+20
1.967792204e+20
1.983734643e+20
1.999937497e+20
2.268458137e+20
1.01657524e+20
1.537630572e+20
1.809049547e+20
2.867000323e+20
1.051499759e+20
2.651522702e+20
8.024082096e+19
3.237928699e+20
2.994500579e+20
1.922692354e+20
1.108630369e+20
1.957832125e+20
3.387236766e+20
2.27917742e+20
2.467729225e+20
1.581968501e+20
9.107065033e+19
1.376297699e+20
1.386690249e+20
1.862987938e+20
2.815906858e+20
2.837662873e+20
2.383131422e+20
2.161649468e+20
2.178746923e+20
3.172168997e+20
1.967792204e+20
2.975601941e+20
2.749914059e+20
2.016407216e+20
1.779006656e+20
3.331532906e+20
1.809049562e+20
1.303181965e+20
2.891624289e+20
2.386370411e+20
3.209632838e+20
1.888791741e+20
1.905591294e+20
2.472033026e+20
4.157363846e+20
1.118761214e+20
1.693618383e+20
1.994280261e+20
3.813763348e+20
9.039820073e+19
2.504442884e+20
1.835063586e+20
1.617805302e+20
2.561608414e+20
2.346589049e+20
1.891775249e+20
2.383131404e+20
1.921466208e+20
2.420829915e+20
1.220064989e+20
1.96779222e+20
1.487800982e+20
1.999937497e+20
1.764356329e+20
4.320444772e+20
2.818989382e+20
5.168712991e+19
1.824454736e+20
2.365874438e+20
2.386370411e+20
3.477102212e+20
1.349136969e+20
2.722273277e+20
1.922692354e+20
3.880206256e+20
1.398451505e+20
1.693618383e+20
1.709383065e+20
1.346034132e+20
2.033959516e+20
1.821413007e+20
9.175317996e+19
1.155575207e+20
1.397240953e+20
1.642612334e+20
2.837662873e+20
1.906505138e+20
1.921466194e+20
1.210414957e+20
1.464077987e+20
1.475844153e+20
1.487800982e+20
2.99990627e+20
2.016407233e+20
2.54143806e+20
1.793902319e+20
2.584356495e+20
2.085091144e+20
1.577249625e+20
2.121218143e+20
3.209632838e+20
1.618964349e+20
2.177818622e+20
1.648022018e+20
2.771575897e+20
2.796903036e+20
2.540427597e+20
5.697943654e+19
2.243390205e+20
2.259955018e+20
2.276766275e+20
1.376297699e+20
3.004495539e+20
1.862987924e+20
1.642612334e+20
1.891775263e+20
1.906505138e+20
2.642016016e+20
1.936663917e+20
1.464077987e+20
9.838961099e+19
9.918673216e+19
1.499953123e+20
3.024610849e+20
2.541438101e+20
2.306445858e+20
2.067485196e+20
2.345727517e+20
1.577249625e+20
3.181827242e+20
2.139755226e+20
2.698273915e+20
2.722273253e+20
2.472033026e+20
1.385787961e+20
3.076593339e+20
2.258157844e+20
1.13958871e+20
)
;

boundaryField
{
    flow
    {
        type            zeroGradient;
    }
    obstacle
    {
        type            calculated;
        value           nonuniform List<scalar> 0();
    }
    frontAndBack
    {
        type            empty;
    }
    procBoundary3to1
    {
        type            processor;
        value           nonuniform List<scalar> 
36
(
3.418766161e+20
5.493406677e+20
5.543151795e+20
5.593806071e+20
4.234045957e+20
4.234045957e+20
4.430818643e+20
5.520373642e+20
5.303045313e+20
4.012041014e+20
4.587065696e+20
3.811182621e+20
3.811182621e+20
4.749851594e+20
2.016407249e+20
3.812157121e+20
6.663065757e+20
5.168712991e+20
5.168712991e+20
2.383131422e+20
3.362565839e+20
2.420829915e+20
2.684142977e+20
2.21376623e+20
1.735767813e+20
1.735767813e+20
6.779865006e+19
2.504442884e+20
2.523212449e+20
1.386690259e+20
2.09586143e+20
2.346589049e+20
1.655303355e+20
1.655303355e+20
2.692068265e+20
2.692068265e+20
)
;
    }
    procBoundary3to2
    {
        type            processor;
        value           nonuniform List<scalar> 
19
(
2.449773118e+20
1.55894653e+20
2.672479765e+20
2.672479746e+20
2.004359824e+20
2.672479765e+20
2.895186433e+20
2.449773118e+20
3.117893059e+20
3.117893059e+20
6.681199412e+19
1.781653177e+20
2.895186412e+20
8.908265819e+19
1.558946541e+20
1.55894653e+20
1.781653177e+20
8.908265883e+19
1.113533235e+20
)
;
    }
}


// ************************************************************************* //
