/*--------------------------------*- C++ -*----------------------------------*\
| =========                 |                                                 |
| \\      /  F ield         | OpenFOAM: The Open Source CFD Toolbox           |
|  \\    /   O peration     | Version:  2406                                  |
|   \\  /    A nd           | Website:  www.openfoam.com                      |
|    \\/     M anipulation  |                                                 |
\*---------------------------------------------------------------------------*/
FoamFile
{
    version     2.0;
    format      ascii;
    arch        "LSB;label=32;scalar=64";
    class       volScalarField;
    location    "0.007";
    object      internalEMean;
}
// * * * * * * * * * * * * * * * * * * * * * * * * * * * * * * * * * * * * * //

dimensions      [1 -1 -2 0 0 0 0];

internalField   nonuniform List<scalar> 
654
(
2.333406338
2.165216652
2.253376302
2.297054835
2.309353884
2.351616554
1.46569999
1.586983314
1.690271389
1.805242062
1.916916333
2.021310634
2.07706364
2.122590204
2.204937676
2.240193937
2.288159384
0.8387418381
0.9087485727
0.9993108041
1.073155848
1.18421855
1.305174293
1.410283588
1.503654979
1.628917463
1.729733756
1.835069824
1.943136818
1.998077926
2.065610966
2.133596311
2.160553027
0.5279901433
0.5492339801
0.5707527842
0.5988649549
0.6370946781
0.6802182698
0.7263841449
0.7930123048
0.8569547254
0.9455119069
1.0405198
1.104382327
1.229961179
1.335791984
1.434188411
1.550854434
1.653365362
1.762439813
1.880060101
1.959564028
2.003873614
2.106662282
0.4305761425
0.4386767131
0.4409324851
0.4501298769
0.4636146458
0.4732689707
0.4850732177
0.5060214171
0.5184962854
0.5407467634
0.5603275545
0.5952553953
0.6358966419
0.6824457737
0.7188231207
0.7650764817
0.8295494049
0.9045437625
0.9880635689
1.07784022
1.180725755
1.280643429
1.391290027
1.500100654
1.615396786
1.734289064
1.833159697
1.932629377
1.987225296
0.4284301859
0.4304245949
0.4347157871
0.4373151212
0.4432670891
0.4515391071
0.4600301514
0.4738618847
0.4866681726
0.5024777074
0.5079852201
0.5273392677
0.5537384042
0.5785327951
0.6113442216
0.648402205
0.693412108
0.7334375514
0.7923612557
0.8628009273
0.9348303101
1.016044627
1.126266222
1.225537029
1.342485798
1.439587579
1.535327537
1.646434945
1.736887967
1.839917443
0.4223902781
0.4221664059
0.4286619244
0.4324298306
0.434288772
0.437963764
0.445101279
0.455398614
0.4597172717
0.4818296194
0.4905204827
0.49755387
0.5153811195
0.5371932767
0.5675002731
0.5928574216
0.6192192664
0.6446964678
0.6888339441
0.734108164
0.7965880524
0.8805775275
0.974423594
1.076917944
1.172385421
1.261026418
1.381753413
1.479880179
1.594486324
1.702376904
0.4270238794
0.4284679316
0.4294380182
0.4342361436
0.442893798
0.4422305877
0.4420682178
0.4454983643
0.4466612053
0.4459275377
0.4578098746
0.4715718019
0.4823648444
0.4933903447
0.5098968315
0.5379613692
0.5716478219
0.6164253156
0.6421971278
0.6807301036
0.7211746493
0.7760216589
0.8246750714
0.915677998
1.009810723
1.095359666
1.197447337
1.311764517
1.408816433
1.508448807
0.4222715568
0.425437729
0.4291280026
0.4282252705
0.4243248765
0.4290557082
0.4360389976
0.4369814054
0.4420540389
0.4481662273
0.452816087
0.4636654702
0.4745943834
0.4849164114
0.498759695
0.517434592
0.5330001771
0.560221567
0.58707246
0.6254945253
0.6588202822
0.709356007
0.7535543713
0.7907676885
0.8694669411
0.9636470877
1.043801376
1.138012
1.254454762
1.363211987
0.4093176131
0.4123943266
0.4118205654
0.4141968996
0.4198059319
0.4192173275
0.424205369
0.4320464048
0.4365656941
0.4423747967
0.4510356833
0.4524154343
0.4523743983
0.4629041025
0.4720206371
0.4817939314
0.4977289738
0.5193595138
0.5474998131
0.5635134156
0.598742067
0.6329421507
0.6925557638
0.7422037414
0.7909684704
0.8663150929
0.9472640905
1.027751604
1.107599485
1.194805714
0.4145564023
0.4156035008
0.417186683
0.4195956797
0.4179433931
0.4176872281
0.4200413728
0.4255473188
0.4333470414
0.4355269985
0.4370154164
0.4408436731
0.4505861091
0.4549256641
0.4576270092
0.4618850463
0.4670501496
0.4902550836
0.5045916431
0.5270043011
0.5590732133
0.5881672126
0.6127227743
0.6614890181
0.711080637
0.7616620691
0.8234699165
0.8962046233
0.9882052717
1.084114713
0.4173196566
0.4176691407
0.4193735147
0.418551362
0.423105547
0.4271470177
0.425327929
0.4241356805
0.4227892121
0.4230865342
0.4282337249
0.4344917277
0.4364767762
0.4349663638
0.4446154429
0.4602952324
0.4660615878
0.4702471744
0.4930877872
0.5111534614
0.5294377419
0.5416835457
0.57052965
0.5984099301
0.6342948102
0.6798825161
0.7360815256
0.806917754
0.8796765371
0.9560023443
0.414154134
0.4181869139
0.4202576037
0.4173469982
0.4103947656
0.4121959524
0.4096935023
0.4160126823
0.4110202819
0.4180660841
0.4199256098
0.4194755604
0.4264037347
0.435087605
0.4421348351
0.4527896022
0.4617203119
0.4706180485
0.4773606075
0.485857841
0.4991651476
0.5153682386
0.5268974736
0.5524381852
0.5862914524
0.6205385576
0.6599999206
0.7133147445
0.7765042839
0.837689327
0.4101110852
0.4085900547
0.4081113699
0.4121529584
0.4162510549
0.4105072439
0.4154699008
0.4147157778
0.4171881859
0.4210188649
0.4247697735
0.4275851256
0.4285813201
0.4348352291
0.444212343
0.4480141956
0.4504321655
0.456596195
0.4541404909
0.4696759326
0.4741614642
0.4894078612
0.5142900275
0.5347266883
0.5569315478
0.5853788583
0.616249048
0.6528371992
0.6908940757
0.7448247018
0.4126296849
0.4112013404
0.4084613069
0.4120356566
0.4113289372
0.4187115103
0.4230309204
0.4233755596
0.4211302395
0.4239923005
0.421335088
0.4246267274
0.4247894903
0.4250327815
0.4230360849
0.4287587556
0.4335083298
0.4391967928
0.4487075346
0.4585356571
0.4607802463
0.4698928008
0.48003138
0.4966674292
0.5150530676
0.5358512181
0.5607942566
0.6005962069
0.6374162977
0.6802212277
0.4127009565
0.4116533467
0.4144890614
0.4166175714
0.4188555337
0.4183315352
0.4149373146
0.4171648181
0.4228895835
0.4214928199
0.4208825151
0.4238888916
0.4222517281
0.4200783413
0.422203526
0.4239946607
0.4237404745
0.431553302
0.4371237084
0.4428707676
0.4568610026
0.468972873
0.4747570623
0.4881942442
0.496001488
0.5085563082
0.5248437486
0.5481469998
0.5859772189
0.6186362118
0.4175309698
0.4255833036
0.427177229
0.4225973108
0.414971139
0.4145153652
0.4136500749
0.4149713593
0.4122804863
0.4136971168
0.4108180096
0.4089202056
0.4133853125
0.4177967378
0.4236227351
0.4293686528
0.4356131468
0.4387145813
0.444970823
0.4461126032
0.4506846192
0.4546741313
0.4578676216
0.4607699986
0.4733962963
0.4821318117
0.4991788335
0.5206323391
0.5341590444
0.5709408515
0.4208670439
0.4186443719
0.4174705286
0.4191772803
0.4233293003
0.4256576382
0.4252479984
0.4238784195
0.4181266525
0.4180574652
0.4181693571
0.4230468584
0.4203357499
0.4208095604
0.4169815053
0.4175140747
0.418184542
0.4227661767
0.4234588429
0.4323125805
0.4351508005
0.4337036404
0.4491287153
0.456053496
0.4743627885
0.4779578992
0.4873083541
0.4982208932
0.5150020398
0.5334549123
0.4148394868
0.4116635575
0.4141034618
0.416706933
0.4146336811
0.4110727941
0.4142142202
0.4188027791
0.4207858919
0.4201557623
0.4195109075
0.419628243
0.4251100969
0.4207839118
0.4259231942
0.423609924
0.4171582874
0.422947659
0.4250366974
0.4280035324
0.4353731334
0.4392921107
0.4388030655
0.4516385931
0.4578479697
0.4608685907
0.4675261112
0.4830754729
0.498919477
0.5057075414
0.4183763057
0.4166032569
0.4182883484
0.4154790857
0.4181857818
0.4215082389
0.4228872176
0.420244337
0.4190086831
0.4154225721
0.4217464611
0.4183090815
0.418862577
0.4197380617
0.4185694421
0.4226720262
0.4314216479
0.4249324317
0.4282850567
0.4333449846
0.4312056502
0.4314073491
0.4297533896
0.4335841533
0.4403781804
0.450881565
0.4571248487
0.4675195185
0.4802648201
0.4961727516
0.4099213425
0.4128116271
0.4090761272
0.4107312095
0.4121834151
0.4141134097
0.4173447035
0.4218639411
0.4247284777
0.427602255
0.4247505816
0.4220339416
0.4254707611
0.422301905
0.4211255916
0.420724868
0.420677976
0.4182270795
0.4170342909
0.4193498365
0.4271595415
0.4361554674
0.4376135911
0.4408704258
0.4408522332
0.446483876
0.4508732093
0.4640034046
0.475837126
0.4872160348
0.4180359347
0.419745471
0.4215036972
0.4190671286
0.4180330863
0.4171773871
0.4178959238
0.4154043072
0.4146913727
0.4154661413
0.4164881644
0.4194864997
0.414794321
0.4163661723
0.4146600134
0.4145886428
0.4151168191
0.4206912644
0.4239155528
0.4188789192
0.4172699313
0.4254699496
0.4279433836
0.4341503522
0.4377585828
0.4488569208
0.4545973117
0.4536101336
0.4535642348
0.4657210276
0.4180463645
0.4172341728
0.4145163171
0.4144186853
0.4158714153
0.4159717985
0.4121545784
0.4085542339
0.4119983035
0.4119145106
0.4136858561
0.4193672895
0.4214206758
0.4233265975
0.4230462081
0.4226878484
0.4228755632
0.4269334953
0.4271068588
0.4328997167
0.4293542132
0.4216481842
0.4275870905
0.4266207474
0.4290093407
0.4286035063
0.4366415554
0.4420920295
0.4530754002
0.4533919955
0.4030221547
0.4044271571
0.4065535683
0.4091995621
0.4112690213
0.4050504127
0.4085934182
0.4121856379
0.4098832074
0.4102018685
0.4079301535
0.4039125018
0.3997948902
0.401353005
0.4053504379
0.4118086568
0.4119592882
0.4088483676
0.4079046069
0.4117925622
0.4159025235
0.4170237752
0.4183147069
0.4178496236
0.4172894318
0.4197881799
0.424774421
0.4281935027
0.4267108562
0.4414055755
)
;

boundaryField
{
    flow
    {
        type            calculated;
        value           nonuniform List<scalar> 
55
(
2.333406338
2.351616554
2.288159384
2.160553027
2.106662282
1.987225296
1.839917443
1.702376904
1.508448807
1.363211987
1.194805714
1.084114713
0.9560023443
0.837689327
0.7448247018
0.6802212277
0.6186362118
0.5709408515
0.5334549123
0.5057075414
0.4961727516
0.4872160348
0.4657210276
0.4533919955
0.4414055755
0.4030221547
0.4044271571
0.4065535683
0.4091995621
0.4112690213
0.4050504127
0.4085934182
0.4121856379
0.4098832074
0.4102018685
0.4079301535
0.4039125018
0.3997948902
0.401353005
0.4053504379
0.4118086568
0.4119592882
0.4088483676
0.4079046069
0.4117925622
0.4159025235
0.4170237752
0.4183147069
0.4178496236
0.4172894318
0.4197881799
0.424774421
0.4281935027
0.4267108562
0.4414055755
)
;
    }
    obstacle
    {
        type            calculated;
        value           nonuniform List<scalar> 0();
    }
    frontAndBack
    {
        type            empty;
    }
    procBoundary3to1
    {
        type            processor;
        value           nonuniform List<scalar> 
36
(
2.355964234
2.319596909
2.339081065
2.364279021
2.353488176
2.353488176
1.644244351
1.734196445
1.871643993
1.985406562
2.056512154
2.103507975
2.103507975
0.954874462
1.02549643
1.129119954
1.251723502
1.352694961
1.352694961
0.5726466001
0.5924470621
0.6330941714
0.6758714058
0.7134164214
0.7729936283
0.7729936283
0.4483034935
0.4497680536
0.4594507368
0.4719186546
0.4815630468
0.4932969003
0.5102331021
0.5102331021
0.4284057882
0.4284057882
)
;
    }
    procBoundary3to2
    {
        type            processor;
        value           nonuniform List<scalar> 
19
(
0.4242557095
0.4198894922
0.4301791347
0.4172249024
0.4083608651
0.4186211546
0.4154218096
0.4111069163
0.4107850351
0.4145404146
0.4106936415
0.4166109716
0.4227845209
0.4152791175
0.4158593745
0.415426714
0.4142481826
0.4168173375
0.4032778691
)
;
    }
}


// ************************************************************************* //
