/*--------------------------------*- C++ -*----------------------------------*\
| =========                 |                                                 |
| \\      /  F ield         | OpenFOAM: The Open Source CFD Toolbox           |
|  \\    /   O peration     | Version:  2406                                  |
|   \\  /    A nd           | Website:  www.openfoam.com                      |
|    \\/     M anipulation  |                                                 |
\*---------------------------------------------------------------------------*/
FoamFile
{
    version     2.0;
    format      ascii;
    arch        "LSB;label=32;scalar=64";
    class       volScalarField;
    location    "0.007";
    object      internalE;
}
// * * * * * * * * * * * * * * * * * * * * * * * * * * * * * * * * * * * * * //

dimensions      [1 -1 -2 0 0 0 0];

internalField   nonuniform List<scalar> 
654
(
2.161896823
2.470026058
2.92869508
2.103001613
3.626182735
2.333386436
0.9689783095
1.109946794
3.164095395
2.068018139
0.9398117166
1.941615487
3.098521339
1.359880444
1.476473273
1.572629117
2.532799914
0.774782048
0.7700755333
1.116922255
0.7618497399
1.503978331
2.490515302
1.152936132
1.321182865
2.013471859
1.314792781
2.26412981
1.296029815
2.283855968
1.029164083
1.458266559
1.81015313
0.587393946
1.287327565
1.243576894
0.5490698663
1.20725067
0.9819224245
0.6412938154
0.2724082301
0.5777480998
1.27787884
0.7435557659
0.472942434
1.430268515
1.941737316
2.141604584
2.710569389
1.552302799
2.475565034
1.395874218
1.674453765
1.452426723
1.486689462
0.3766451284
0.269600379
0.5687601762
0.4154466848
0.4604193876
0.420061643
0.3491524735
0.6753413267
1.205892437
0.2682638885
0.7576722206
0.829311437
0.7173709219
0.452164372
1.31110051
0.5778064217
1.186432188
1.2488918
0.8627581225
1.234542674
0.6715551032
1.11756142
0.8598456611
2.092379078
2.0414467
0.6646258231
1.704852178
2.925998481
2.528862851
0.4730768122
0.2456934084
0.1479668438
0.590993672
0.5849671298
0.1095316111
0.2816476608
0.474180232
0.3663228654
1.238417677
0.6951084318
0.3873390271
0.2518890178
0.3531943826
1.074578987
0.1591751942
0.3892093381
0.831232359
0.5206161046
1.502213024
1.465597771
0.9829289704
1.234425587
1.030608567
2.15457228
1.220420268
1.792271627
2.281609976
2.959794622
1.570310361
0.02721183354
0.1442673389
0.6111542205
0.2112339284
0.01791367605
0.1731386775
0.09363112691
0.5210066316
0.2603406941
1.028634948
0.7048769244
0.5162418368
1.588024114
0.1900680317
0.2673470688
0.9578201265
0.3487275989
1.621052209
0.4163075988
0.9558126505
0.6523199068
0.7020230236
0.2972586718
2.076088252
0.6611606597
1.292971751
1.037815223
1.506515826
1.019859851
1.806765261
0.2694232039
0.4803721244
0.1766524417
0.4562422064
0.4867341008
0.7791381906
0.3167350577
0.6119705009
0.6812354436
0.4990192244
0.8441001645
0.4012587022
0.07501167747
0.7097666464
0.5787170368
0.4141100059
0.7396481785
0.760481435
0.9428904525
0.4315785496
0.776707834
0.2466848432
1.020508579
2.480098888
0.4620733568
1.900500652
1.638470113
0.9044807575
1.057303916
1.722372506
0.3028467185
0.7584509334
0.4214171718
0.7951444398
0.1673352406
0.6459739854
0.4238391281
0.6171557684
0.4292002071
0.4988598508
0.2152203106
0.4298043742
1.172005542
0.375062137
0.6861321055
0.3406336382
0.5517522203
1.680302335
0.5668579823
0.6782975956
0.522888434
0.6161697756
0.5813447502
0.9708027008
1.135942433
0.6791516952
0.9959936695
1.217627063
0.4757651079
1.687314951
0.1649352216
0.1932705588
0.2946847563
0.6362635409
0.9134072346
0.2627681245
0.2851693527
0.4071281489
0.3172448785
0.4049522956
0.3541846503
0.4854671245
0.2615156908
0.5834676945
0.6809398639
0.1582998126
0.8394140696
0.4470007118
0.6582311681
0.4232240125
0.6419925699
0.600852969
0.9389381499
0.4792054121
1.622125002
0.6187227711
0.6320504658
1.716659226
0.2481711992
1.312013066
0.1678792334
0.2694639373
0.3643680952
0.4661180605
0.4872334601
0.3293173804
0.3454068963
0.4426259627
0.2945040923
0.1333792424
1.299716719
0.9244469372
0.211156025
0.1957567529
0.2801113434
0.2775922034
0.1608615276
0.08274560796
0.4078613218
0.2672959381
0.2640316957
0.1794150604
0.659113244
1.010991544
0.3017675659
0.6088107313
0.4828939423
0.5191735076
1.238431895
1.00330464
0.3830612488
0.9342699504
0.239311671
0.7199621218
0.269257419
0.2829396805
0.4433222689
0.8144605202
0.4985971764
0.2336675225
0.2236654956
0.2976299675
0.1493450602
0.3463414205
0.2028542951
0.3635659549
0.4227624616
0.2549836305
0.6516088154
0.2072088789
0.3590178896
0.4771793525
0.8492481886
0.5852675128
0.2611659967
0.3582424564
0.6047035177
0.6148358688
1.423302113
1.254008232
0.5774399695
0.2080059252
0.4475155457
0.4395370434
0.7125433347
0.2673844646
0.2698477602
0.4087532256
0.8938515128
1.045561384
0.3466392866
0.4978252883
0.07781949366
0.4031678433
0.6838808564
0.2000664898
0.1577679019
0.5284165033
0.8660778802
0.9971337281
0.4101529013
0.6156291698
0.4059888743
0.4867543522
0.2993939765
0.7886931137
0.4487984076
0.3596798466
0.9190469931
0.616619412
0.8078739832
0.3225319857
0.4680859818
0.3033162333
0.2961822046
0.2105774319
0.517676415
0.3077199958
0.5779361359
0.9473943074
0.2533375315
0.4100193952
0.07870831874
0.1660139395
0.1937502268
0.3097942224
0.5641376781
0.518321988
0.5485044342
0.4198041978
0.4403313927
0.1362426173
0.1204734778
1.067414217
1.228614038
0.5307694784
1.232690922
0.7215793418
1.502647084
1.051771407
0.5415944268
0.6257347457
0.2937112404
0.32628629
0.5874220709
0.7852718322
0.5770991186
0.5073362528
0.7641572247
0.4766734658
0.6045964468
0.6233586037
0.6772485861
0.3909660786
0.243272778
0.07936547308
0.3157662859
0.1991840581
0.4960954152
0.2808902709
0.545943587
0.3151170932
0.6320667975
0.4188816587
0.439425165
0.5818221427
0.4449770537
1.258885953
0.840568393
0.506405733
0.5230106747
0.4435232282
0.5770263686
0.2436862859
0.3322088989
0.8448080844
0.4898914111
0.4932062793
0.3498504102
0.6542057042
0.5086450047
0.3138287809
0.4495275818
0.2637351795
0.6294871277
0.2661814822
0.228287728
0.2615240756
0.2618919659
0.2608113087
0.3237610252
0.6152736748
0.1526277726
0.3213175399
0.2157624572
0.104726636
0.7309804409
0.464868667
0.6825408143
0.5823199709
0.3862916131
0.2276634894
0.596015303
0.230525729
0.2134697727
0.5605374573
0.236540452
0.4390236074
0.5361583254
0.08648763002
0.5000786921
0.4191744367
0.6702120297
0.1321468741
0.2741346574
0.09779757284
0.4704891184
0.5230949882
0.05686216088
0.1037601251
0.9327323622
0.8127401514
0.7104081764
0.7715569669
0.5890099473
0.5707275996
0.2906331115
0.802997367
1.557712934
0.4284740209
0.167067524
0.4426885854
0.3582051874
0.3276414723
0.318821256
0.6169059504
0.61791052
0.7045839806
0.5824327795
0.4965413599
0.6247704537
0.1129544139
0.2380303766
0.7039658996
0.357956765
0.6198847831
0.4707244372
0.5313321781
0.289320522
0.53781216
0.942674431
1.151573785
0.8136426286
0.2844532436
0.6964807808
0.2655083893
0.1480636599
0.3512491084
0.7252561052
0.4452302067
0.4082160957
0.3838419809
0.3874921677
0.6878781556
0.2559241484
0.4070193025
0.4373722251
0.3558245889
0.3004004131
0.3570075749
0.2900444517
0.1317422079
0.3775823137
0.799219345
0.1722936899
0.6663046075
0.07331157548
0.3404201932
0.3328531888
0.03770640237
0.7136476566
0.1432005065
0.2672489298
0.06034757677
0.6717458721
0.2116865748
0.4535118594
0.4498127759
0.996006207
0.9000825749
0.5242132427
0.1547527195
0.331768874
0.4904152389
0.4057976964
0.4232618842
0.4135372631
0.2512111906
0.6153142006
0.6526034324
0.5307726909
0.6479475694
0.5637925032
0.2343998566
0.698539247
0.8244069898
0.2134677226
0.525534728
0.161689482
0.5028530198
0.1158656218
0.6167865208
0.06828588005
0.4772415864
0.3947771207
0.332407522
0.344762532
0.4302540729
0.8721954633
0.6498940949
0.4647332218
0.3100232664
0.1273099987
0.2072688444
0.2684942084
0.4751715754
0.6437806265
0.4819751748
0.5278751663
0.4101853084
0.5544469053
0.901699409
0.3697240392
1.13135773
0.6506971808
0.4197131587
0.4306891667
0.7465201549
0.3919072899
0.182106006
0.7475241659
0.5733156695
0.5396575232
0.5948051005
0.2248385764
0.4343924782
1.152689002
0.08884649651
0.3175474025
0.3176427723
0.8533162317
0.1744062448
0.7792438453
0.2620919213
0.4878890039
0.33623303
0.412909676
0.3203117152
0.3987970632
0.2939075105
0.3778628564
0.5077233091
0.5235565827
0.2859149229
0.3271203973
0.3641362894
0.8608945895
0.8734471898
0.01310470073
0.4240908077
0.2213052547
0.1674107288
0.854401712
0.3263072901
0.5754874938
0.3256677676
0.9878552618
0.4787041055
0.480121085
0.3778858981
0.1780257011
0.2760631486
0.342883499
0.06073669033
0.2685529736
0.4000135454
0.3512255288
0.4598294032
0.5606963753
0.4401804711
0.2975468908
0.2780093925
0.3196596744
0.2045567029
0.4232654197
0.2837721873
0.3804593939
0.4797968422
0.4433138428
0.4863015021
0.4002459757
0.4760455468
0.9430012566
0.2646028917
0.7358826163
0.2372567807
0.4334470988
0.5636052466
0.4410315594
0.1273923631
0.4715456181
0.4741846293
0.3678155658
0.291395891
0.5356374778
0.2421499213
0.3227374954
0.2187972911
0.5133855027
0.6684169831
0.4914361824
0.1648747304
0.3101701534
0.2198441129
0.3259043855
0.5368524552
0.4641999118
0.2188753259
0.5077574763
0.4529582349
0.2467565357
0.583215307
0.3486538946
0.5823862338
0.5678983527
0.4023701119
0.3503158427
0.4574355561
0.4582997751
0.5080270152
)
;

boundaryField
{
    flow
    {
        type            zeroGradient;
    }
    obstacle
    {
        type            calculated;
        value           nonuniform List<scalar> 0();
    }
    frontAndBack
    {
        type            empty;
    }
    procBoundary3to1
    {
        type            processor;
        value           nonuniform List<scalar> 
36
(
1.199217298
2.323628429
2.559168551
2.405418054
2.776419528
2.776419528
2.143565962
3.345075378
3.706279269
0.9646257556
1.907599178
2.323260647
2.323260647
1.51279582
0.5697154908
2.086765414
2.954177274
1.307524004
1.307524004
0.510862605
1.051392905
0.9974777893
0.5502517195
0.4698056984
0.7902339662
0.7902339662
0.2185041485
0.3716322506
0.4912960423
0.3208571043
0.431889308
0.4785932391
0.2950932735
0.2950932735
0.6036307627
0.6036307627
)
;
    }
    procBoundary3to2
    {
        type            processor;
        value           nonuniform List<scalar> 
19
(
0.6211480692
0.3916198758
0.7323618202
0.499014187
0.4414025425
0.6651981252
0.737266527
0.4557421809
0.7669978697
0.6807593129
0.1782915647
0.3670740139
0.8173758536
0.08391737263
0.3784680922
0.3661298264
0.4221656479
0.2056103586
0.2685676357
)
;
    }
}


// ************************************************************************* //
