/*--------------------------------*- C++ -*----------------------------------*\
| =========                 |                                                 |
| \\      /  F ield         | OpenFOAM: The Open Source CFD Toolbox           |
|  \\    /   O peration     | Version:  2406                                  |
|   \\  /    A nd           | Website:  www.openfoam.com                      |
|    \\/     M anipulation  |                                                 |
\*---------------------------------------------------------------------------*/
FoamFile
{
    version     2.0;
    format      ascii;
    arch        "LSB;label=32;scalar=64";
    class       volScalarField;
    location    "0.007";
    object      internalT;
}
// * * * * * * * * * * * * * * * * * * * * * * * * * * * * * * * * * * * * * //

dimensions      [1 2 -2 0 0 0 0];

internalField   nonuniform List<scalar> 
654
(
701.4471557
647.9561125
663.0198752
678.2054014
682.7226349
689.7703045
539.2504569
558.7474997
573.8691612
590.472744
605.2188207
618.2885605
629.9295762
637.8969426
649.7273416
660.2878438
674.8947494
428.1409985
439.2161366
461.3506376
473.8705245
496.1853305
515.3270799
532.3764166
544.132272
563.9587736
577.1124523
591.5348452
606.9430997
614.6445786
624.7795301
637.2552196
645.9611665
343.9242408
351.095859
359.7768523
365.062382
377.821688
389.5729225
403.2450322
418.5251683
429.643188
450.9097185
469.3135032
474.0961601
499.0804705
518.7598337
532.673884
550.4989898
564.1080935
578.2007508
594.1667816
605.8040309
611.8795068
628.666022
306.98918
311.3557133
313.1539593
316.2738985
319.1389441
322.6428764
326.6500772
337.5196995
339.1391989
346.6423842
351.1196471
364.6224984
378.0726003
391.3322589
398.9331445
407.774382
421.376964
441.0388108
458.1541305
471.561842
489.1794462
508.0899414
525.6029111
538.7604889
554.8300774
572.9011946
588.1614713
602.7804712
607.7605539
304.1861269
304.7600378
304.823375
304.0299001
307.6581632
314.1338984
317.9718131
324.0466746
329.4552803
336.6094429
336.76281
341.5842622
350.9775235
356.5213527
367.6174363
377.0465667
392.2231118
400.1189752
413.8218494
432.917744
444.9348792
457.9631137
478.9283612
498.6666425
518.7563213
527.5982053
542.3039796
557.7069776
571.9512751
587.9278273
302.1378799
302.9670878
306.7997879
308.612652
307.2791531
308.2951489
310.6643417
314.8754716
315.9150721
323.9596009
325.88622
329.0194621
336.069577
342.5470063
353.4079601
362.0369127
369.9115762
376.4658417
385.5349534
394.2239802
415.126031
433.484856
452.5185677
471.8407872
485.5890441
501.799914
518.940913
529.2574724
544.1220201
563.9045341
304.6231471
303.5566583
304.3134865
306.8992637
310.5629697
312.0452774
312.8219495
314.3560072
313.6394778
311.7047441
318.458917
320.5610103
323.6108561
327.6224098
330.1677881
341.7739274
353.4202347
369.0415414
379.4372595
389.276634
393.3963297
407.2287246
419.5129623
437.0355881
456.3510035
472.2848953
490.4736114
512.2568509
522.6232512
536.2912684
301.34716
303.6537393
304.6366662
304.5793734
303.419526
305.9316246
308.2929528
306.8214355
309.7296844
312.173847
315.1002912
319.4294127
324.2551431
330.221023
334.7889605
339.7090023
344.8852774
354.3403871
359.4015126
371.255973
380.3599138
391.8492425
402.8134402
410.1860798
428.6781299
446.569012
458.9553539
474.5633925
495.8251904
510.6280429
298.29109
300.0915786
299.4036104
300.5396266
301.1994188
299.5738605
301.2372679
305.8604795
307.6166144
313.0254782
314.9181725
315.9956605
315.986637
319.5519632
322.6824619
327.3465543
331.7134448
336.4329521
345.7487818
350.319415
360.6932084
368.8392893
384.0924143
398.0380903
406.3478325
423.8862407
441.6682262
457.6738538
472.5532818
487.3582524
300.1922517
300.4485277
299.3371964
300.9985692
299.5202445
298.9416148
301.631126
305.1487282
307.7747343
307.8909764
310.0701776
312.9737332
316.3563287
316.57742
318.0529914
320.0795559
321.7917133
330.4216562
334.6261381
339.818509
350.8332344
358.4448357
362.3222691
374.4253896
389.0559165
399.8902783
412.7076665
429.161705
447.2260991
462.575009
296.7918022
298.7838603
302.4068148
301.7969981
305.4448682
307.145802
306.0172954
304.921725
304.6701179
305.7415481
305.5994171
306.8808917
308.7109792
308.5048618
311.669346
315.9087503
317.3621057
319.2204665
327.4510395
336.7415139
340.4667698
342.9486022
354.0033231
362.4460765
371.9224262
382.7906917
395.7217489
411.679147
424.3932205
437.053214
302.5865242
302.8528842
304.7019237
303.0840123
300.3508412
300.7153732
299.6175061
304.2439383
300.2160779
302.9328126
303.5387033
304.2913746
304.1223594
307.7049288
310.6175884
314.5133403
316.7303057
320.1973507
323.5117293
323.9720247
328.951073
334.949484
336.7631704
345.4705096
356.3054688
366.2002154
376.9303022
387.1433171
404.7424135
416.159147
301.0633319
300.6289278
299.0993366
301.9910049
303.2105374
299.9557901
300.858174
301.2200004
302.1588791
302.4457872
305.7528254
306.3769058
308.1062047
308.6259685
311.3760186
312.9469419
313.6459442
315.0122221
313.6366995
319.3559521
321.899485
326.1247899
334.7781231
340.4103581
346.455337
354.4836902
362.6428187
373.5097309
379.8154179
392.0791373
301.6385144
301.7881257
299.1785681
300.163734
300.3231649
302.8002499
304.0204164
303.0441088
302.2257211
304.3539415
302.1796404
301.7183583
302.7824513
302.9621855
303.8198237
304.4443678
308.2195397
312.3763674
316.2412774
320.5889487
321.1346562
321.789124
326.094519
332.4338678
336.0035022
341.0389536
347.2925245
358.7362235
373.1188293
383.9303973
298.2561733
297.6600223
300.1676925
301.6919176
302.755325
301.483998
300.4120989
299.779525
302.508701
301.5037049
302.4142781
304.4739365
302.9114246
301.9995391
302.9644007
304.5664119
305.3115767
308.0251977
310.9367976
311.7093232
318.5758676
322.2787291
322.465349
326.8906075
332.5439832
337.2488674
341.6127771
348.5884814
356.3037355
363.8371679
300.6220517
303.7286533
303.6874712
303.8618483
300.0069354
301.6191553
302.551994
303.9800832
302.4553249
302.0585007
298.8843887
297.9450792
299.6377024
301.8664223
305.0188454
307.1543352
308.4190081
309.0557247
309.6255997
309.7435338
309.9987823
312.8123673
316.540042
316.2587905
320.7133519
325.9434034
331.501335
337.9796438
342.7940999
353.0054032
303.0916172
302.7443954
300.8592293
300.9230565
304.194937
304.1162356
303.9255198
301.8321113
300.8923233
302.1176546
303.1795675
305.5592133
303.5973565
302.823347
299.1642631
299.6758062
298.7619271
300.5929239
301.5337053
307.8536173
307.9913649
306.9552328
312.665144
314.7807848
320.6798952
319.9692964
320.7652769
326.3525661
334.0086498
338.9791063
301.7216866
302.255899
302.6541661
303.4167074
300.9730488
298.1973068
302.0137992
303.7665947
304.3087756
305.3799581
302.4560221
300.4786917
303.4622111
302.4748769
305.2986927
303.6394617
300.9820899
303.580472
306.0565211
305.9948818
309.0674263
308.7732964
309.2589599
314.0174272
316.0194303
318.5212614
320.6789984
325.1376699
328.416371
331.6743583
302.8031178
303.1051759
302.5157334
302.1941601
303.1802614
305.9405992
305.9832223
305.452853
302.6634201
300.7282677
303.5557588
304.1886025
305.9966697
303.8703868
302.4002672
302.8916328
306.6485002
303.9025119
304.3076056
306.4238538
306.6959622
306.5896533
306.5394485
306.7307998
309.1048322
310.5723439
315.3419337
320.8382689
324.6923429
330.7104705
296.8073432
297.8639283
297.0107688
297.6048359
298.0209908
298.651674
298.0010115
299.6016379
302.1680534
303.3248066
302.6188029
300.327952
301.267795
300.8583014
300.88147
300.7142295
301.601783
300.9564844
299.5465897
301.8828035
304.9539956
306.478459
304.3023345
306.5304847
308.6233839
309.204688
307.6188091
310.9387693
315.3022008
318.8297231
298.202067
299.8007604
299.290984
296.899971
297.4757269
298.3609387
301.0911817
300.6811274
299.4533861
300.039546
302.1803517
302.9876295
299.5109682
300.4081901
298.8944209
298.3852221
297.2622172
300.7497295
303.7552479
299.2733897
299.4677349
306.0671173
307.0392105
310.0142746
309.7644022
313.8269473
317.2835157
316.4076144
315.4875609
321.1176217
301.7333142
301.9387243
300.6371666
300.138936
300.548846
299.3177069
296.2827383
295.5632042
296.6829461
296.5615256
298.2665852
300.3021851
300.5995149
300.697747
302.6375041
302.461186
303.1119697
303.5123167
303.5474216
308.5993318
305.9432433
303.5691343
305.4079686
304.7186637
305.1267669
306.8015737
308.1016096
309.8518018
313.1707403
310.8342801
299.8132171
298.6630421
299.8523821
301.1648027
302.5145993
299.2222336
300.5218892
301.836324
300.8003661
300.1605461
297.2376935
297.6046204
296.2031642
296.738371
298.3013359
299.9800233
301.6161379
301.1858939
301.5565784
302.3502666
302.710392
299.9235534
303.3573339
302.1172793
303.7391291
304.5422153
307.8746109
308.4344739
306.9729238
312.6123903
)
;

boundaryField
{
    flow
    {
        type            calculated;
        value           nonuniform List<scalar> 
55
(
701.4471557
689.7703045
674.8947494
645.9611665
628.666022
607.7605539
587.9278273
563.9045341
536.2912684
510.6280429
487.3582524
462.575009
437.053214
416.159147
392.0791373
383.9303973
363.8371679
353.0054032
338.9791063
331.6743583
330.7104705
318.8297231
321.1176217
310.8342801
312.6123903
299.8132171
298.6630421
299.8523821
301.1648027
302.5145993
299.2222336
300.5218892
301.836324
300.8003661
300.1605461
297.2376935
297.6046204
296.2031642
296.738371
298.3013359
299.9800233
301.6161379
301.1858939
301.5565784
302.3502666
302.710392
299.9235534
303.3573339
302.1172793
303.7391291
304.5422153
307.8746109
308.4344739
306.9729238
312.6123903
)
;
    }
    obstacle
    {
        type            calculated;
        value           nonuniform List<scalar> 0();
    }
    frontAndBack
    {
        type            empty;
    }
    procBoundary3to1
    {
        type            processor;
        value           nonuniform List<scalar> 
36
(
717.7457083
682.9396098
688.4475269
698.2466762
700.4508784
700.4508784
570.9560035
579.0670482
596.0164729
617.9671181
625.2549732
636.6454204
636.6454204
450.5443601
463.1584818
485.6419085
509.0879509
524.4795301
524.4795301
363.746721
368.4653031
375.5093568
389.2019012
398.8367403
414.5160498
414.5160498
317.3189568
317.10546
321.603965
326.1821072
331.2113589
334.1667103
337.9878358
337.9878358
307.3552315
307.3552315
)
;
    }
    procBoundary3to2
    {
        type            processor;
        value           nonuniform List<scalar> 
19
(
301.7993273
302.0915786
305.6119479
298.9275405
296.7134686
301.9520059
297.5326801
299.4638023
301.2147505
301.9842005
297.8760583
299.4300224
305.3517088
302.2515239
303.4791399
298.3528026
298.4573511
299.9855851
298.6049688
)
;
    }
}


// ************************************************************************* //
