/*--------------------------------*- C++ -*----------------------------------*\
| =========                 |                                                 |
| \\      /  F ield         | OpenFOAM: The Open Source CFD Toolbox           |
|  \\    /   O peration     | Version:  2406                                  |
|   \\  /    A nd           | Website:  www.openfoam.com                      |
|    \\/     M anipulation  |                                                 |
\*---------------------------------------------------------------------------*/
FoamFile
{
    version     2.0;
    format      ascii;
    arch        "LSB;label=32;scalar=64";
    class       volScalarField;
    location    "0.007";
    object      linearKE;
}
// * * * * * * * * * * * * * * * * * * * * * * * * * * * * * * * * * * * * * //

dimensions      [1 -1 -2 0 0 0 0];

internalField   nonuniform List<scalar> 
654
(
13.15716303
15.21366366
16.58156458
14.86635179
20.96068536
19.03011951
8.720572472
12.12844613
16.33874015
16.73338678
14.19055355
12.26071544
17.9325988
8.019695832
9.98627981
13.39146999
15.40399798
13.03383653
14.15376501
14.5221515
7.092427738
15.70875967
21.00816225
16.33977367
14.20011015
13.68902167
17.26465744
12.20678939
17.25274164
14.98274842
11.73880373
10.11107824
15.11972608
5.114931061
9.006284224
8.11533793
7.558509349
14.11019911
10.34329483
10.03607404
4.249530192
12.5408859
20.47016445
8.855983481
7.688460908
19.82968369
14.7625138
15.55611709
17.46670203
14.79571634
18.38603393
25.34998331
12.08172486
16.29467449
16.63438627
8.87205775
6.979676634
12.61722674
5.803373324
5.835303606
8.493192218
9.256487492
10.73189732
14.9402043
7.546977277
10.78252974
7.716776102
10.97871103
9.88152998
14.88254887
12.36482923
12.65088248
13.68513632
12.70294512
8.859225735
12.92572098
12.36658581
12.97638028
12.8185571
14.87479679
10.82575168
17.05354133
13.28930857
20.28110487
10.77907555
4.627120311
9.40391651
7.211781244
11.29716939
4.065161064
7.674248629
6.679514648
8.453627038
13.05571251
9.515821512
9.491049667
8.567167506
3.476436331
16.3871951
3.819891128
10.95517144
9.607814501
8.753566718
9.750599147
14.85979471
13.76776639
17.00095265
11.20313637
10.69357511
7.359987432
14.85146627
18.70470891
21.38269598
12.34549213
1.53045653
3.744967342
10.88828348
5.837725873
2.859419535
3.457448918
4.483281508
8.787676649
4.520737708
8.802814768
12.23009699
10.73074897
7.786408262
8.802745213
7.073140225
11.62097411
7.520299343
12.80702233
8.738856702
10.12117572
10.11081874
9.507008133
5.680035951
17.64658662
11.42848619
13.24179687
10.53005052
17.77927167
14.27936779
16.1393591
4.944061253
8.559617377
5.334040762
9.314507911
8.793975434
9.672085637
8.961744486
10.06180355
11.62785086
11.35323189
15.62544017
8.295589841
3.501308792
12.35475682
10.14871085
5.573613396
12.1594008
9.620907999
12.79961619
11.01963347
7.086132552
5.005103789
13.90550427
23.47101437
14.11406429
11.0240788
14.34968279
11.77638222
8.489624508
22.03002545
7.667741162
13.41044632
10.13415164
13.07825868
4.46198689
11.43721844
6.588807015
6.498266585
7.417230146
10.72447662
5.246884674
5.521419062
11.71331011
8.807940051
6.86777721
9.789542747
5.854705919
13.58390841
9.445272173
9.707520977
10.89195367
9.415686894
9.505578187
17.94444925
10.23888425
11.86314369
9.971378024
14.38910131
4.838828818
17.2910331
5.427760728
6.782558224
5.355446696
6.225638874
10.0367356
5.744331884
5.98076803
9.275069578
7.273057353
9.281177436
8.122390485
7.055721147
4.371748468
11.42901014
6.915913831
5.348839746
8.815060853
12.43131909
7.498722855
5.367308957
6.638178959
9.840998518
9.506007767
11.375402
13.73713233
10.34350119
10.62152221
18.3930726
5.910207756
8.634390406
4.357151361
6.91204809
8.029331931
8.591338386
8.710584402
8.52414795
7.06055182
9.643302904
5.554675128
6.481809976
12.22795897
11.45906209
4.622805357
4.736947845
6.173987141
7.931697976
2.642052977
2.504742108
9.356179938
7.755717027
11.28360977
5.624084171
9.614466932
8.960743207
4.806724321
8.669823204
9.031147508
13.28653805
11.26975524
14.15295264
10.122944
10.16557752
4.537249165
12.85178629
6.521817759
10.1571727
6.147543023
14.3519984
9.488382905
6.114520774
3.339765589
6.241734588
4.840666734
7.42068179
6.041825327
4.586932231
4.865182704
6.721574986
7.099334996
5.161421888
6.75662342
6.899889025
9.639516849
13.77442872
7.897207652
8.525879183
9.409608082
5.955605882
11.66300255
8.253912368
12.16877031
8.327342707
8.533084552
7.192931115
12.613254
7.753232926
8.427426519
4.143131051
13.36397331
15.37730373
9.715269735
7.959303464
4.483842971
7.306098257
11.89025198
3.76017635
1.985779574
9.236413132
11.62849153
11.97026884
6.717662193
10.46727178
9.466475719
9.497705722
10.00567508
9.549701598
7.926122342
10.12932401
13.398615
13.89801515
7.790931969
9.595543466
9.389534624
4.974117821
7.474348519
6.4186159
7.342244987
6.926078272
8.934583428
14.08948462
4.820333255
7.748961208
5.23750933
3.314145567
8.547986796
7.696282878
8.650742821
10.95661483
7.723383233
7.828361458
5.3258656
3.603031491
5.657878367
17.97624279
17.63638622
11.14322349
11.40961512
12.27528242
14.60111321
11.82220905
10.38618732
8.099108677
8.625064688
7.383788569
8.298962033
10.86276859
10.76508178
7.589571463
6.053697195
9.377576159
9.425891484
8.150527732
12.70033369
6.586734252
7.634260732
4.083761581
9.114400722
5.854409309
12.78169818
4.055546861
4.163586684
6.251359909
11.40626917
11.55397747
8.414510088
10.63759445
6.652455138
11.4459845
11.96519875
7.164594522
13.65017428
3.466645926
13.83581352
6.617194871
3.024893371
9.237878275
10.04770295
4.34321933
7.861260192
10.19191857
13.74153979
8.408322544
11.57599922
2.442863416
10.52913616
8.976869752
6.488552942
4.251254678
3.79188812
4.810696325
9.132073898
11.59684512
5.980755037
5.260498799
3.353411502
3.007791717
10.94511111
5.597429073
13.48032409
14.21157612
5.753324998
10.24724385
9.418721315
3.959093182
6.417991194
8.579391569
3.647112828
5.005887937
4.582674624
1.933864566
8.718859026
7.292382704
9.568477494
4.886710875
7.587919856
4.622891145
7.173068467
9.600147244
3.793354336
6.328054921
12.70850601
7.796356595
8.851944567
7.591717286
7.575842178
8.284337518
6.193207178
6.293894719
19.52976515
10.19889847
7.493014704
9.274051779
6.545938068
6.477278429
7.344503842
7.075839951
12.05596502
10.27637892
10.54284316
6.438817798
11.72887094
6.960640131
8.766077023
8.298402426
8.075106815
8.987601404
6.912619043
11.13145253
7.04864157
8.109248036
10.44031876
16.70657862
10.96995779
9.385171695
9.37752682
6.595203271
6.083349876
6.70802836
7.393945371
8.549415174
6.261693278
10.04095557
3.868397794
10.20545845
5.589063836
10.20593833
7.47874609
6.076214685
7.258242012
5.317603369
6.243313628
5.159899939
6.039824843
9.184936519
7.156049457
7.701441792
2.974567194
9.496239134
9.435455925
3.502468492
9.297350761
2.39743705
5.238876994
2.917538011
13.9495566
8.617001891
5.417748768
9.025815667
12.04974246
9.32071855
9.264094775
1.996116829
8.409193071
8.947023622
5.042087948
13.11458915
10.637456
3.948303431
13.81863659
13.09214495
11.15443431
7.502498094
7.010850977
8.409002707
8.966076284
9.836030945
3.518409323
4.432083438
5.511104713
11.65269021
3.916938101
11.46303768
2.908984188
11.91538166
10.94748433
8.40635814
5.072440901
8.947168647
14.43949101
10.71872956
9.481983156
6.400744393
3.068924379
5.224265113
6.04877329
7.644370207
10.38811797
11.20844198
7.539626355
8.180439465
9.16272397
12.92339437
7.344216372
11.07743592
12.82657528
7.349918544
6.222574178
11.91556888
7.300934374
4.640477681
11.41631371
11.24925702
11.54429413
7.333951167
6.122395675
7.73437993
15.59951082
5.544605192
6.153852389
7.222171157
14.33579927
2.33604384
8.715290277
6.543658008
5.853247605
9.331660353
10.52968678
7.508291315
9.316222111
7.621861123
10.03067097
5.555183083
7.126622894
5.872224438
7.139508305
8.110879747
16.68419137
11.34287634
1.893036121
6.74423984
9.773025198
8.409537801
11.39911378
5.470010667
9.920585448
7.800686783
15.35530636
4.038882094
8.533543211
5.112915157
5.64191226
7.212845501
5.927381277
2.78411351
6.14625345
5.705047946
5.079163649
12.03647055
6.847618061
7.656636741
4.730188432
5.86801189
5.784222878
5.9547354
11.83835028
5.924347315
9.700172454
5.741578253
9.607247001
8.286741718
6.569485801
6.982068404
13.5006664
7.574077802
8.393755311
6.953630695
8.163636153
10.82277252
9.171227455
2.514786901
9.409684033
8.982222984
8.713613087
6.372461516
11.97443738
8.034576601
6.133682275
7.310702749
7.676122079
9.941624553
8.175494497
6.397225108
4.289799899
4.521810826
5.91568463
11.71161579
9.393572186
9.531595103
8.983778067
8.439944523
5.868558651
13.07188304
7.403932613
10.16437831
11.96199928
10.5868951
4.797717792
11.77536739
8.195509926
3.259985919
)
;

boundaryField
{
    flow
    {
        type            zeroGradient;
    }
    obstacle
    {
        type            calculated;
        value           nonuniform List<scalar> 0();
    }
    frontAndBack
    {
        type            empty;
    }
    procBoundary3to1
    {
        type            processor;
        value           nonuniform List<scalar> 
36
(
7.980563046
17.00039607
16.51173537
16.37734909
13.21110747
13.21110747
16.10130314
18.65896728
15.7523201
14.92973881
13.00667348
11.01339762
11.01339762
17.54947914
6.401249683
12.93336635
23.82959789
20.49070043
20.49070043
9.481865224
10.94251053
8.091830695
10.53050094
7.028869273
6.349798202
6.349798202
2.029811486
11.67139106
9.853954889
5.563231052
8.377727411
8.342926228
6.364583763
6.364583763
10.37493724
10.37493724
)
;
    }
    procBoundary3to2
    {
        type            processor;
        value           nonuniform List<scalar> 
19
(
8.537079916
8.196720818
11.26971424
9.174248573
6.947398867
10.83869401
12.60597924
7.632674114
13.9372073
12.07537569
3.029870314
7.19618232
11.22462965
3.261595355
5.646228204
5.507914572
5.927877706
3.069607927
5.29128305
)
;
    }
}


// ************************************************************************* //
