/*--------------------------------*- C++ -*----------------------------------*\
| =========                 |                                                 |
| \\      /  F ield         | OpenFOAM: The Open Source CFD Toolbox           |
|  \\    /   O peration     | Version:  2406                                  |
|   \\  /    A nd           | Website:  www.openfoam.com                      |
|    \\/     M anipulation  |                                                 |
\*---------------------------------------------------------------------------*/
FoamFile
{
    version     2.0;
    format      ascii;
    arch        "LSB;label=32;scalar=64";
    class       volScalarField;
    location    "0.007";
    object      linearKEMean;
}
// * * * * * * * * * * * * * * * * * * * * * * * * * * * * * * * * * * * * * //

dimensions      [1 -1 -2 0 0 0 0];

internalField   nonuniform List<scalar> 
654
(
14.6600494
15.62078349
15.72708726
15.5023075
15.42952693
15.36205836
13.4604129
14.01400304
14.43276155
14.87189547
15.24375309
15.50888079
15.61334437
15.72834367
15.9572839
15.83692015
15.68632715
10.33764976
10.83632874
11.23631422
11.6527631
12.11865075
12.7519995
13.19871676
13.67452009
14.2385273
14.68987273
15.13316997
15.40512978
15.59765498
15.68348029
15.82325701
15.78197084
8.498823485
8.64349087
8.727057477
8.980475544
9.23690068
9.460801429
9.69700212
10.09358476
10.58931128
11.03551183
11.55942573
11.99023948
12.58846538
12.99677261
13.45044937
13.98126224
14.50035835
14.95907933
15.31477636
15.62135046
15.71833438
16.00678525
7.941105439
7.957723378
7.944570861
8.039019225
8.19299878
8.263808765
8.331740075
8.363933321
8.501082707
8.643614605
8.798805694
8.975086687
9.205550179
9.494503729
9.722162295
10.02849029
10.42049088
10.79994988
11.26337736
11.79746892
12.42884855
12.8487751
13.40876941
13.95273136
14.54299204
15.02820357
15.29259297
15.66568485
15.86747158
7.996702928
8.040123513
8.093965562
8.172503659
8.163999346
8.121324312
8.16824363
8.240052461
8.306603006
8.35114594
8.400166194
8.581580678
8.71381486
8.93521501
9.103953196
9.388893764
9.592611975
9.903150505
10.2539561
10.58632217
11.03438093
11.56698874
12.15603712
12.60136829
13.18375661
13.7621219
14.21494104
14.79505733
15.09365584
15.49307308
7.963218617
7.939066868
7.956993345
7.964102
8.027692064
8.03932577
8.084407487
8.163355209
8.22503478
8.358483752
8.430542032
8.460262543
8.564422084
8.698141927
8.834850473
8.948544808
9.125663191
9.318675919
9.644584084
9.998679353
10.28958847
10.76931609
11.30043741
11.85107945
12.41425288
12.84197763
13.53823894
14.09469482
14.71412764
15.04257277
7.975817462
8.007209221
7.99627733
8.01118313
8.066935155
8.041093367
8.007482057
8.010130474
8.050475094
8.068532416
8.070763459
8.218713156
8.32301414
8.410721555
8.582949355
8.753074157
8.954883438
9.185654871
9.296511493
9.50414188
9.895448777
10.25627007
10.53599365
11.06115103
11.52576889
12.04161262
12.53540828
13.1179437
13.62940247
14.18878098
7.953336045
7.931846226
7.996849994
7.951787148
7.921490692
7.929857177
7.994664978
8.056508173
8.058238298
8.115357302
8.112844407
8.195088589
8.225074998
8.226891182
8.339948519
8.498864218
8.582835913
8.755393893
9.008977653
9.255171494
9.45931348
9.748935194
10.03064902
10.32142869
10.77017503
11.34347332
11.86662224
12.36147826
12.99267331
13.62537289
7.766402839
7.792019443
7.781808383
7.811151945
7.880865449
7.91365988
7.968196169
8.010876552
8.029626588
7.992805274
8.08772036
8.0696488
8.081163275
8.160399772
8.217546749
8.24755271
8.390631263
8.593013093
8.775082795
8.850083812
9.09316538
9.357540331
9.770390809
10.05243138
10.43960861
10.86229115
11.3241348
11.80087144
12.26817856
12.68125605
7.85795651
7.861226439
7.917225832
7.927544468
7.931408191
7.957822716
7.924937066
7.908871371
7.977884703
8.011886655
7.983917246
7.94535819
8.027947382
8.12650788
8.105184467
8.139672101
8.16378106
8.302707702
8.399601087
8.619056322
8.84115722
9.082376987
9.293882632
9.639206312
9.888888803
10.25756434
10.74757831
11.08983167
11.61650874
12.23669123
7.986299729
7.937365982
7.877177023
7.886951686
7.875106971
7.908119683
7.900541288
7.879562629
7.862837586
7.862578314
7.948862165
8.01386142
7.990515699
7.964697526
8.06486528
8.207804386
8.261638021
8.275432539
8.446387466
8.480237615
8.6314052
8.749797935
8.920702705
9.12417427
9.374306244
9.671822824
10.00565643
10.53925971
11.07152598
11.57928229
7.808772522
7.88358085
7.871029718
7.823937577
7.743473498
7.77325821
7.774714351
7.767548068
7.776787092
7.830392935
7.850406348
7.833302557
7.9591948
8.006466284
8.045896087
8.139346643
8.212115867
8.285630169
8.289830413
8.399617636
8.467724493
8.569690399
8.653525914
8.811529025
9.045340818
9.283656017
9.580561969
9.992641783
10.31471923
10.75872641
7.713280458
7.698163748
7.725899175
7.727480169
7.791595739
7.766315723
7.81674901
7.812920006
7.854155852
7.920797673
7.896527709
7.923656007
7.888527178
7.996239006
8.050472382
8.083886906
8.079489897
8.144374861
8.122325309
8.238841689
8.25571889
8.390099096
8.578162286
8.717971287
8.887316596
9.120544066
9.328029729
9.531696708
9.878733185
10.28408548
7.757671567
7.760427716
7.773423184
7.816973159
7.782855461
7.86330339
7.88940945
7.916109182
7.882797905
7.892368993
7.902139428
7.977942505
7.962909968
7.966292155
7.8873984
7.952473334
7.964862623
7.9388872
8.018494284
8.078478836
8.082452605
8.193427201
8.239348479
8.327182841
8.514999583
8.676793708
8.906968591
9.194733581
9.331958104
9.656919755
7.87449504
7.842831712
7.845761562
7.834201208
7.862005101
7.90612632
7.857184809
7.910055045
7.936894197
7.9346067
7.890000357
7.883620137
7.889922863
7.852913055
7.87743316
7.859028245
7.859236951
7.945435948
7.943748981
8.048410525
8.129298835
8.217217937
8.288280562
8.385209737
8.350845988
8.456261426
8.535769134
8.728687925
9.071200166
9.31069335
7.894402101
7.943886231
7.977082974
7.891538911
7.855066985
7.807989557
7.770654771
7.757054151
7.736671842
7.773566453
7.791103985
7.791830491
7.818227348
7.856572212
7.898778378
7.943056665
7.993729735
8.008807247
8.108514477
8.124916249
8.184070736
8.190985161
8.166859379
8.220473375
8.307905607
8.328878623
8.455030579
8.605125549
8.659082195
8.895344899
7.896419387
7.874637865
7.909145826
7.936769834
7.935403501
7.973462367
7.945014916
7.969826593
7.886281577
7.859062577
7.824825437
7.86302666
7.872996047
7.887149853
7.901309442
7.895633773
7.950452418
7.980601037
7.948674837
7.932932875
7.978129102
7.986896536
8.091811812
8.170211707
8.350605174
8.38119627
8.522901038
8.565724472
8.654398764
8.811590276
7.791263438
7.731783667
7.739397276
7.760927395
7.793369403
7.780941635
7.762334649
7.818471979
7.837331105
7.784833432
7.850864201
7.893445234
7.911648205
7.87578384
7.908059403
7.907294443
7.861064337
7.890639199
7.867677393
7.951240176
8.007512211
8.064076066
8.045898358
8.11533966
8.133956156
8.127307819
8.195581373
8.323150182
8.508955821
8.5301946
7.870158299
7.792307437
7.829956612
7.774227306
7.807879335
7.784754832
7.808621249
7.774404291
7.845670494
7.814758772
7.877638771
7.818840912
7.770864542
7.817612037
7.822912034
7.888898878
7.978233448
7.905170917
7.964812434
7.990582181
7.936666349
7.914285068
7.879364847
7.952084841
8.038946218
8.173025512
8.167199041
8.21083399
8.283957059
8.378314954
7.837523195
7.87013525
7.856413313
7.871533889
7.858758462
7.892386436
7.954677807
7.990539611
7.978964411
7.987266527
7.951214658
7.929156147
7.96497643
7.922207563
7.916319763
7.920328377
7.903410046
7.88731622
7.901892686
7.868707201
7.913360579
8.069516932
8.155458501
8.144647029
8.076047883
8.145688307
8.237988679
8.382456822
8.444615073
8.533305248
7.940048562
7.938476307
7.951263827
7.985790679
7.962995276
7.917327229
7.869010935
7.845286068
7.847065978
7.874532999
7.841590742
7.889600311
7.890749061
7.922514391
7.904081697
7.894253869
7.922754524
7.930467488
7.915999019
7.951396974
7.932471484
7.887567795
7.903827631
7.94200966
8.009425679
8.068919548
8.078002106
8.07436106
8.066467964
8.135805294
7.88067973
7.856832138
7.863946735
7.861960016
7.887559627
7.911869933
7.929922191
7.888646674
7.921681713
7.915895156
7.886202949
7.946828111
7.973948732
8.009947963
7.958690365
7.969072596
7.941566406
7.990647105
7.973823656
7.964772003
7.960308393
7.877182515
7.939879089
7.939931215
7.988402139
7.918958658
8.008065084
8.033147416
8.160074158
8.228429928
7.651472077
7.723911277
7.730448909
7.735052122
7.747167991
7.713992952
7.754677348
7.767848227
7.779625811
7.796197114
7.82317617
7.735182743
7.670331457
7.705677063
7.74480524
7.810869665
7.764708275
7.749866405
7.722669441
7.767370156
7.827204528
7.915790836
7.84794475
7.87191236
7.821565218
7.847524078
7.861463055
7.914952156
7.919503199
8.007681509
)
;

boundaryField
{
    flow
    {
        type            calculated;
        value           nonuniform List<scalar> 
55
(
14.6600494
15.36205836
15.68632715
15.78197084
16.00678525
15.86747158
15.49307308
15.04257277
14.18878098
13.62537289
12.68125605
12.23669123
11.57928229
10.75872641
10.28408548
9.656919755
9.31069335
8.895344899
8.811590276
8.5301946
8.378314954
8.533305248
8.135805294
8.228429928
8.007681509
7.651472077
7.723911277
7.730448909
7.735052122
7.747167991
7.713992952
7.754677348
7.767848227
7.779625811
7.796197114
7.82317617
7.735182743
7.670331457
7.705677063
7.74480524
7.810869665
7.764708275
7.749866405
7.722669441
7.767370156
7.827204528
7.915790836
7.84794475
7.87191236
7.821565218
7.847524078
7.861463055
7.914952156
7.919503199
8.007681509
)
;
    }
    obstacle
    {
        type            calculated;
        value           nonuniform List<scalar> 0();
    }
    frontAndBack
    {
        type            empty;
    }
    procBoundary3to1
    {
        type            processor;
        value           nonuniform List<scalar> 
36
(
14.17417868
15.40470667
15.2507827
15.14832294
14.89221831
14.89221831
14.09310603
14.51838591
14.99997944
15.23980685
15.49496362
15.52592489
15.52592489
11.04717372
11.42464188
11.90598689
12.45466601
12.94433985
12.94433985
8.634866057
8.795000492
9.194028486
9.400975937
9.601948997
9.912314716
9.912314716
8.0046417
8.013892103
8.024713071
8.121908586
8.148995667
8.227805959
8.386976442
8.386976442
7.879016119
7.879016119
)
;
    }
    procBoundary3to2
    {
        type            processor;
        value           nonuniform List<scalar> 
19
(
7.993009047
7.93384203
7.988619201
7.927123948
7.788890376
7.879072554
7.911152569
7.835630859
7.728027747
7.78608768
7.840873261
7.915222663
7.886213937
7.804801872
7.791635819
7.888343829
7.854263474
7.903908859
7.708603245
)
;
    }
}


// ************************************************************************* //
