/*--------------------------------*- C++ -*----------------------------------*\
| =========                 |                                                 |
| \\      /  F ield         | OpenFOAM: The Open Source CFD Toolbox           |
|  \\    /   O peration     | Version:  2406                                  |
|   \\  /    A nd           | Website:  www.openfoam.com                      |
|    \\/     M anipulation  |                                                 |
\*---------------------------------------------------------------------------*/
FoamFile
{
    version     2.0;
    format      ascii;
    arch        "LSB;label=32;scalar=64";
    class       volVectorField;
    location    "0.007";
    object      momentumMean;
}
// * * * * * * * * * * * * * * * * * * * * * * * * * * * * * * * * * * * * * //

dimensions      [1 -2 -1 0 0 0 0];

internalField   nonuniform List<vector> 
654
(
(0.01512676938 0.004798682309 -1.382209027e-05)
(0.01573268058 0.005068292909 3.045246897e-06)
(0.01589056673 0.005167344791 2.773277628e-05)
(0.01575770726 0.005078383628 1.708502556e-05)
(0.01575732302 0.005018601793 2.665076374e-05)
(0.01578262483 0.004994014412 1.118767734e-05)
(0.01353337709 0.003560882012 4.309127806e-06)
(0.01404900599 0.003839857475 -1.247585675e-05)
(0.01444204983 0.004164845775 -5.894504767e-05)
(0.01491372221 0.004415121535 -6.9588119e-05)
(0.01527344203 0.00469392397 -8.993032092e-06)
(0.01559781933 0.004901156509 -7.493382051e-05)
(0.01574114243 0.004935021089 -5.108188019e-05)
(0.01582886132 0.005048396828 -3.523150658e-05)
(0.01608882987 0.005178149049 -2.564893293e-05)
(0.01605352313 0.005087438761 3.383712282e-06)
(0.01597655883 0.005024905294 3.341649766e-05)
(0.01056968098 0.001625406485 1.199396833e-05)
(0.01102874368 0.001867924863 -9.805739739e-06)
(0.01141419624 0.002137190096 2.584810351e-06)
(0.01179115063 0.002408458814 -2.777352462e-05)
(0.01226844236 0.002699219369 -1.185853189e-05)
(0.01284241443 0.003141435042 -3.042767156e-05)
(0.01329908105 0.003384402083 -6.029370428e-07)
(0.01376906063 0.003657567635 -3.730590795e-05)
(0.01428410769 0.004013486927 -4.787243852e-05)
(0.01471712105 0.004284263524 -2.115570529e-05)
(0.01513736727 0.004595492082 7.373872639e-06)
(0.01545360325 0.004803496934 -2.179774914e-05)
(0.01568225231 0.004891819524 -1.641877975e-05)
(0.01581896087 0.004968598371 1.902648164e-05)
(0.01596260783 0.005072346305 -3.094666542e-05)
(0.01595529223 0.005006644488 -2.83173743e-05)
(0.008900328043 0.0004221949305 6.621012865e-06)
(0.009020248612 0.0005070584593 1.833928763e-06)
(0.00908943772 0.0006109794821 7.521109452e-06)
(0.009299877726 0.0007566021117 3.39773466e-05)
(0.009521956572 0.0008923573424 2.777071306e-05)
(0.009747939166 0.00103681067 -1.269562622e-05)
(0.009954717011 0.001199447929 -7.383259896e-07)
(0.0103229716 0.001446341851 -1.531041452e-05)
(0.01078631516 0.001681136069 -1.162374099e-05)
(0.01118390499 0.001983472478 -9.220819801e-06)
(0.0116985926 0.002247695963 -1.804156261e-05)
(0.01211291281 0.0025502074 1.215630359e-05)
(0.01266072864 0.002945690041 -2.246958935e-05)
(0.01308974214 0.003213117033 2.367244634e-05)
(0.0135521587 0.003506439107 -1.028408586e-05)
(0.01406488281 0.003853306991 -2.995104171e-05)
(0.0145375789 0.004151324681 -5.165208145e-05)
(0.01497049496 0.004465043179 -5.147485922e-05)
(0.01538814224 0.004665066118 -1.495384696e-05)
(0.01569075948 0.004841944932 2.453432148e-06)
(0.01582106536 0.004946192249 1.489746515e-05)
(0.01615389757 0.005028088827 2.108983266e-05)
(0.008395478983 7.509655493e-05 2.14479651e-05)
(0.008414657959 9.467358314e-05 2.128087545e-05)
(0.008394665795 0.0001237726213 2.305204097e-05)
(0.00846788726 0.0001386386121 1.741700854e-05)
(0.008609797117 0.00018362372 8.425555759e-06)
(0.008675442828 0.0002210336533 5.534750755e-06)
(0.00874590093 0.0002766800357 9.3773156e-06)
(0.008790756478 0.0003154366726 8.706072204e-06)
(0.008910786833 0.0003898031206 -1.308981205e-05)
(0.009032356729 0.0004790968317 -1.996988756e-05)
(0.009179366503 0.0005750130788 -2.488941045e-05)
(0.009335345111 0.0006965953214 -1.077283038e-05)
(0.009531356333 0.0008267836659 5.38865273e-06)
(0.009810842428 0.000973603554 -3.090611714e-06)
(0.01002064509 0.001141190455 -6.144249464e-06)
(0.01030619369 0.001340086061 -2.165443973e-05)
(0.01069012469 0.001546998191 -2.808283747e-06)
(0.01102744286 0.00182822802 2.331758206e-06)
(0.01146378378 0.002083075805 1.970894928e-05)
(0.0119618902 0.002439074252 2.557503154e-05)
(0.01252414104 0.002794955821 -2.72319799e-05)
(0.01295138014 0.003058129363 2.614465881e-05)
(0.01347855128 0.003388664359 1.551461876e-05)
(0.01400471814 0.003727876993 3.982032546e-07)
(0.01456762682 0.004028536729 -3.438961127e-06)
(0.01505118466 0.004335866905 -2.314599545e-06)
(0.0153502491 0.004533508359 -4.506284001e-05)
(0.01574324567 0.004715449546 -4.190571561e-06)
(0.01596963207 0.004916560553 -3.865015713e-06)
(0.008457041264 5.859977167e-05 -4.326087143e-06)
(0.008490123951 8.347850468e-05 -7.267438973e-06)
(0.008548826677 8.855816387e-05 5.884705674e-06)
(0.008621238359 8.93408619e-05 3.497821094e-06)
(0.008611973918 0.0001016588047 4.844778393e-06)
(0.008565479656 0.0001337607267 1.968826862e-05)
(0.008600123198 0.000185087394 1.495401163e-05)
(0.008658914542 0.0002363716051 -1.295290083e-06)
(0.008727610904 0.0002627666287 -5.357276667e-06)
(0.008768119825 0.0002889556133 3.281020741e-06)
(0.008812040892 0.0003449557201 3.002478502e-07)
(0.008978541517 0.0004285732655 6.330731657e-06)
(0.009100389916 0.0005280555363 5.282203038e-06)
(0.009309658916 0.0006268914288 2.245424826e-05)
(0.009453912808 0.0007428164069 3.40822545e-05)
(0.009724935841 0.00087549651 3.461910998e-05)
(0.009905316081 0.001047676835 8.750900515e-06)
(0.01017640544 0.001245919254 -3.282181025e-06)
(0.01050845394 0.001459911812 -2.411112265e-05)
(0.0108178646 0.001694354972 -4.315635189e-05)
(0.01125871738 0.001952451254 -2.836566064e-05)
(0.01173828985 0.002279893737 -2.86393181e-05)
(0.01231459387 0.002608671182 -2.281899803e-05)
(0.01273741924 0.002869126837 3.044746553e-05)
(0.01326310601 0.003212612701 1.125115906e-05)
(0.0138520595 0.003588868589 -2.156084038e-05)
(0.01426989334 0.003868229643 -1.344641997e-05)
(0.01481859654 0.004172852635 -4.101027798e-05)
(0.01514897006 0.004411159814 -6.241586027e-05)
(0.01552983909 0.004618632829 -2.966854213e-05)
(0.008420380639 4.689939206e-05 -9.16922087e-08)
(0.008394626973 3.183073364e-05 8.891063361e-07)
(0.008403309572 5.575548866e-05 6.370971076e-06)
(0.008410327311 7.486813092e-05 8.475644726e-06)
(0.008468753718 9.082571214e-05 -4.219136498e-06)
(0.008489785048 0.0001105974686 3.722044313e-06)
(0.008542313406 0.0001209701465 6.929455618e-06)
(0.00860946416 0.0001392801221 7.567844141e-06)
(0.008652699379 0.0001891806557 3.884328216e-06)
(0.008793911748 0.000245666498 -3.661508081e-06)
(0.008868846411 0.0002822089047 -7.839742823e-06)
(0.008874474613 0.0003300320846 -2.243248608e-05)
(0.008960973582 0.0003949135224 -2.323550103e-05)
(0.009093969632 0.0004822214115 -2.561020569e-05)
(0.009211583676 0.0006019842665 -2.766379582e-05)
(0.00933123631 0.0006971430899 -3.259729011e-05)
(0.009479292476 0.000822334382 -6.248175153e-06)
(0.00963798489 0.0009810905308 -1.969106296e-05)
(0.009961594513 0.001141540376 6.989888862e-06)
(0.01028546553 0.001335773187 5.271884759e-06)
(0.01054131919 0.001517351152 -2.118844331e-06)
(0.01098877704 0.001820963177 -7.862346205e-07)
(0.01150917983 0.002115791158 -2.938996973e-05)
(0.01203297229 0.002426072217 -1.559503186e-05)
(0.01257420552 0.002734696414 -2.392910429e-06)
(0.01297738295 0.003008224864 9.186898805e-06)
(0.0136234621 0.003406847217 -3.057398616e-06)
(0.01417978438 0.003747408248 -4.703416622e-06)
(0.0147907874 0.00405455583 -7.259474577e-05)
(0.01514413972 0.004300289397 -8.076881011e-05)
(0.008438628011 4.421422032e-05 1.142584236e-05)
(0.008480093 4.762803053e-05 6.435282576e-06)
(0.008474493329 4.227969668e-05 -2.752200484e-06)
(0.00848763934 5.03390272e-05 -1.704095705e-05)
(0.008541995831 6.56505172e-05 -1.569627626e-05)
(0.008494707254 8.809175403e-05 -2.446636007e-05)
(0.008458158192 0.0001105214591 -1.891652706e-05)
(0.008466757619 0.0001206511325 -1.69576775e-05)
(0.008488956068 0.0001340626291 -1.252809661e-05)
(0.008499461345 0.0001619468596 -5.520747083e-06)
(0.008503150653 0.0001819033182 -1.230957921e-05)
(0.008661364258 0.000229009205 -9.062048284e-06)
(0.008767180196 0.000285161072 1.831556508e-06)
(0.008834460663 0.0003705826716 -1.223491569e-06)
(0.008988225007 0.0004622940137 -1.100504328e-05)
(0.009132481599 0.0005645288511 -9.053798521e-06)
(0.009315130065 0.0006560531319 -1.056798434e-05)
(0.009529229637 0.0007780133255 -9.266672402e-06)
(0.009609390889 0.0009140088669 -2.555828071e-05)
(0.009809920501 0.001076410457 -1.54210154e-05)
(0.01018602461 0.001257747913 -1.736873213e-05)
(0.01049800644 0.001460914764 -1.799475425e-05)
(0.01076998417 0.001612900211 -9.798157014e-06)
(0.01126993516 0.001953804955 -3.929442947e-05)
(0.01172468881 0.002282638184 -1.43465465e-05)
(0.01220400457 0.002564432237 8.86193448e-07)
(0.01267615283 0.002901145511 -2.250436889e-05)
(0.01319516979 0.003233623187 1.796471422e-05)
(0.01371326168 0.003554571163 2.269294319e-05)
(0.01426307174 0.003829258042 -2.688825783e-05)
(0.008428458946 1.717862609e-05 -3.399450457e-06)
(0.00841276506 2.622556081e-05 -3.497858594e-06)
(0.008463419079 4.038372317e-05 -7.484837045e-06)
(0.008435719398 5.788524241e-05 -1.04343967e-05)
(0.008395272542 7.776943151e-05 3.496161633e-06)
(0.00839983538 7.942505494e-05 -2.965572674e-06)
(0.008459101502 8.24460074e-05 -1.990725945e-05)
(0.008519639511 8.048192432e-05 -1.218372468e-05)
(0.008515307571 0.000102318743 -9.218757738e-06)
(0.008558940359 0.0001226960279 -7.544600797e-06)
(0.008544763926 0.0001668219323 -3.611554055e-06)
(0.008624027947 0.0001980524705 -1.808879121e-05)
(0.00865639544 0.0002442026859 -8.501122095e-06)
(0.008661900025 0.0002682195925 4.528070615e-07)
(0.008753812835 0.0003151713549 -2.27424675e-06)
(0.008899787188 0.0004037542552 -1.965461885e-05)
(0.008977306904 0.0005042537305 -1.446988128e-05)
(0.009118780336 0.0006309623405 -1.768830553e-05)
(0.009362732853 0.0007165898797 -2.632811424e-05)
(0.009578204408 0.000854822445 -3.580576714e-05)
(0.009774845043 0.0009740192635 -3.353116684e-05)
(0.01004861352 0.001178170418 -1.437901798e-05)
(0.01030427392 0.001373260091 -1.113807406e-05)
(0.01056853276 0.001551791607 -5.462888337e-06)
(0.01097612831 0.001819981232 -5.197445054e-06)
(0.01152070512 0.002165853172 -2.887359583e-05)
(0.01202255319 0.002432140333 -1.851344414e-05)
(0.01251287557 0.00272037486 -1.269306124e-05)
(0.01312116257 0.003043853529 2.617387694e-05)
(0.01371201323 0.003437246748 2.943551135e-05)
(0.008247455956 -1.041491999e-05 -2.385851521e-07)
(0.008267101811 -5.524798479e-07 -3.40994109e-06)
(0.00826142738 2.298207326e-05 1.037706939e-05)
(0.008281210319 3.05105167e-05 1.212612917e-05)
(0.008354368283 3.886731481e-05 1.42804932e-05)
(0.008384298482 5.135747934e-05 1.222971401e-05)
(0.008433681525 5.539737031e-05 2.070603023e-05)
(0.008466702902 8.515119164e-05 8.253444435e-06)
(0.008489814622 9.087353622e-05 1.228804884e-05)
(0.008447655958 9.957813745e-05 1.142857492e-05)
(0.008538727252 0.0001322303215 8.924482652e-06)
(0.008515098996 0.0001530963941 1.823970124e-05)
(0.008518236246 0.0001678427232 2.466926138e-07)
(0.008587400255 0.0002228935307 -1.047644779e-05)
(0.008641408877 0.0002675985493 -1.881843674e-05)
(0.008666134789 0.0003107761714 -2.385595454e-05)
(0.008798789478 0.0003782661933 -1.707174869e-05)
(0.008992341077 0.0004445362207 6.224537945e-06)
(0.009158332166 0.00055765162 6.480294469e-06)
(0.009236018466 0.0006623821556 -7.535076724e-06)
(0.009458519638 0.0007930153461 2.614009205e-06)
(0.009705023271 0.0009242722041 -1.332057293e-05)
(0.01008132084 0.00113691636 -1.180082576e-05)
(0.01036431165 0.001262680753 -1.203125751e-05)
(0.01072388689 0.001486141947 -1.696876285e-05)
(0.01112237219 0.001727850424 -7.209018168e-06)
(0.01155601634 0.002022591637 9.657975118e-06)
(0.01197785486 0.002352529122 2.978172629e-06)
(0.01238800555 0.002680877241 6.838548458e-06)
(0.01281364518 0.002927923553 2.300169165e-05)
(0.008321217992 1.330285733e-05 1.322124965e-05)
(0.00832697797 1.594181009e-05 6.228273675e-06)
(0.008388177812 1.019704318e-05 -2.559071597e-06)
(0.008391122358 5.922659374e-06 1.37921168e-06)
(0.008397094554 1.210510568e-05 -4.813723029e-06)
(0.008410514549 1.898229327e-05 1.605512104e-06)
(0.008378457167 4.050861543e-05 7.79450091e-06)
(0.008368685809 5.489096485e-05 1.778183178e-05)
(0.008438951143 7.57867657e-05 2.072277864e-06)
(0.008471935319 8.946268656e-05 -4.999208174e-06)
(0.008430950141 0.0001069394425 -6.682194308e-07)
(0.008394072915 0.0001412064477 2.133682806e-07)
(0.00847795707 0.0001645545897 2.095690761e-05)
(0.008551783834 0.000184652216 9.925426909e-06)
(0.008523778079 0.0002089422915 1.566386008e-06)
(0.008539721872 0.0002263869128 2.342678888e-06)
(0.008559867133 0.0002757497023 1.018559188e-05)
(0.008699289609 0.0003490660475 -1.121824051e-05)
(0.008800702312 0.0004106412073 -8.332412214e-07)
(0.009001602142 0.0005007670881 -3.273790783e-06)
(0.009217385319 0.0005740374316 -2.76210893e-05)
(0.009443218784 0.0006903741421 -3.067902301e-05)
(0.009638337467 0.0008278675063 -2.016426727e-05)
(0.009976988637 0.0009950708837 -1.860105362e-05)
(0.01022547726 0.001151246291 -3.677726937e-05)
(0.01055446225 0.001409452265 -3.005190548e-05)
(0.0109727043 0.001703727567 -3.165775901e-05)
(0.01132674588 0.001948822214 2.547918504e-06)
(0.01183005856 0.002228347347 -1.791131016e-05)
(0.01244442162 0.002518678692 -3.408714449e-05)
(0.008469561028 1.271867219e-05 -2.300536372e-05)
(0.008421425358 1.367866686e-05 -1.227048102e-05)
(0.008354847513 6.718812429e-06 -3.570087922e-06)
(0.008354886255 3.083226769e-06 1.207670061e-06)
(0.008343013535 1.27565699e-05 3.192626792e-06)
(0.008371850145 3.254766011e-05 1.530273452e-06)
(0.008362032913 3.470005379e-05 -2.775758372e-06)
(0.00834401085 4.909107828e-05 5.043237568e-06)
(0.008321957234 6.149984448e-05 -3.640596248e-07)
(0.00831046787 7.998064769e-05 8.687773811e-06)
(0.008400405654 9.517162808e-05 5.776772264e-06)
(0.008466110206 0.0001131685012 -1.043125048e-05)
(0.008441360613 0.0001269699277 -1.632381073e-05)
(0.008415243742 0.0001322800817 -1.216007397e-05)
(0.008507497216 0.0001730189167 -1.068889822e-05)
(0.008647439146 0.0002147606733 -6.908859876e-06)
(0.008703211352 0.0002267274881 -1.93368411e-05)
(0.008703895529 0.0002547089499 9.267193092e-06)
(0.008860447182 0.00030329294 -1.527989691e-05)
(0.008885463856 0.0003836918778 7.483136319e-06)
(0.0090469692 0.0004439058247 1.508252571e-05)
(0.009155631171 0.0005260941245 4.758213091e-06)
(0.009286040135 0.000651870369 5.695733e-06)
(0.009465828158 0.0007921276728 -8.492182894e-07)
(0.009705402597 0.0009255182447 9.319787947e-07)
(0.009993039004 0.00110428564 2.538254994e-06)
(0.01032754381 0.001312961524 -2.566552722e-06)
(0.01081075405 0.001561343747 -1.94865777e-05)
(0.01131931541 0.001806183951 -4.012712098e-05)
(0.01179832131 0.002083548992 -3.702659242e-05)
(0.008263826214 1.725790124e-06 -4.190365283e-07)
(0.008339858132 7.091183716e-06 -2.471007605e-06)
(0.008324893467 1.825837636e-05 -1.42878725e-05)
(0.008288874208 2.49085115e-05 -2.784544087e-05)
(0.008214708989 2.99583509e-05 -2.410579678e-05)
(0.008244402182 1.931677414e-05 -1.806379076e-05)
(0.008233449205 2.699382831e-05 -1.015236083e-05)
(0.008225321769 3.323298178e-05 -3.004697538e-05)
(0.008233369825 5.437633353e-05 -2.252259679e-05)
(0.008289021558 5.847043768e-05 -1.626623335e-05)
(0.008308070183 6.422859364e-05 -1.757169173e-05)
(0.008280082537 6.115405234e-05 -7.745234797e-06)
(0.008412111297 8.476007606e-05 -9.477461021e-06)
(0.008460764871 0.0001079462743 1.487597582e-05)
(0.008499774855 0.0001380659038 2.329177107e-05)
(0.00857953645 0.0001544962667 1.675197783e-05)
(0.008661965948 0.0001723468639 1.402786814e-05)
(0.008728420192 0.0001836537061 -3.229900063e-06)
(0.008728189972 0.0002447928361 -6.54938618e-06)
(0.008839103266 0.0002877262585 5.473078451e-06)
(0.008889143701 0.0003713898066 -1.199307897e-06)
(0.008984211067 0.0004250768746 2.347958573e-06)
(0.00906746521 0.0005145688269 -3.454626278e-06)
(0.009211173954 0.0006326570017 1.297657937e-07)
(0.009424885417 0.0007319921747 1.130789075e-05)
(0.00965185839 0.0008356282103 -3.799753019e-06)
(0.009911413453 0.001011489936 1.539309734e-06)
(0.01029861907 0.001216139147 -3.136769583e-05)
(0.01060297936 0.00143510265 -1.869910381e-06)
(0.01101990879 0.001707518614 3.751296499e-06)
(0.008194367683 -3.40479621e-06 -1.334483092e-05)
(0.008178695573 4.217339249e-06 -2.206806032e-05)
(0.008206103231 1.07419352e-05 -1.403140587e-05)
(0.00820206804 1.713243115e-05 -1.493693543e-05)
(0.008262554103 2.599206239e-05 -8.136879623e-06)
(0.008236052681 2.944058518e-05 -1.534494706e-05)
(0.008292716648 2.769924514e-05 -2.207684612e-05)
(0.00827879235 2.482316555e-05 -6.145225117e-06)
(0.008307280666 2.60593439e-05 8.463249069e-07)
(0.008373454692 3.257613675e-05 -5.685596404e-06)
(0.00834957584 4.823911814e-05 -4.387728789e-06)
(0.008375051094 6.540981201e-05 7.580482205e-06)
(0.008346171585 4.457361834e-05 2.728391637e-06)
(0.008451473707 3.711029475e-05 -1.206391673e-05)
(0.008525236041 5.838748191e-05 -8.310889903e-06)
(0.00854168445 0.0001092930057 -1.501676325e-05)
(0.008541742028 0.0001403674845 -1.626786225e-05)
(0.008600723522 0.000180181509 5.933816975e-07)
(0.008575359572 0.0001990506026 3.514180135e-06)
(0.008685542246 0.0002277172747 -8.797744337e-06)
(0.008700409874 0.0002514884566 1.127165127e-06)
(0.008822574821 0.0003476048422 -1.386611955e-05)
(0.009000408024 0.0004199634803 5.43526497e-07)
(0.009136146649 0.0004679395259 1.110616306e-05)
(0.009302041595 0.0005743804124 1.848743147e-05)
(0.009523229742 0.0006678226903 3.36856481e-05)
(0.009715158156 0.0008138644242 2.327915887e-05)
(0.009901590222 0.0009612215032 3.129824527e-05)
(0.01022172115 0.001148859677 2.411119784e-05)
(0.01057926062 0.001391474845 2.501215995e-05)
(0.008239284052 1.291566325e-05 -1.193145409e-05)
(0.008223135291 6.043667082e-06 -5.83238915e-06)
(0.008238389388 4.247541869e-06 -4.064708772e-06)
(0.008285044805 2.544459175e-06 -3.080951725e-06)
(0.008252354201 -2.250395408e-07 -4.804022087e-06)
(0.008332409379 5.893058898e-06 -6.014339237e-06)
(0.008366600113 9.828099247e-06 5.777216009e-06)
(0.008394632166 1.371822641e-05 2.352321085e-06)
(0.008363677877 2.167994181e-05 -1.044149594e-05)
(0.008366768876 3.145884062e-05 -1.534646921e-05)
(0.008371939557 2.145832243e-05 -9.466977077e-06)
(0.008453158069 2.315459594e-05 -1.505477745e-05)
(0.008422695871 4.797891434e-05 -5.344755076e-06)
(0.008423751398 6.481464878e-05 2.65730291e-06)
(0.008348667344 6.6234764e-05 4.367503054e-06)
(0.008419789984 6.629431161e-05 -8.807735343e-07)
(0.008416498251 7.726420363e-05 1.091070761e-05)
(0.008389255456 0.0001192181724 -1.25255413e-05)
(0.008458678575 0.0001579031216 -2.442022654e-06)
(0.00850875936 0.0002163602263 1.503778183e-05)
(0.008512618163 0.0002196104988 1.656055861e-05)
(0.008624236316 0.000247371807 2.631022658e-05)
(0.008664240678 0.0002779695685 9.054078625e-06)
(0.008740765192 0.0003513193403 4.648530359e-06)
(0.008933579558 0.0004022141123 4.70799095e-07)
(0.009099281663 0.0004930163611 -6.253096475e-06)
(0.009306586653 0.0006151634086 5.613118266e-06)
(0.009573670936 0.0007710520704 1.433594913e-05)
(0.009698560158 0.000917762749 1.748596935e-05)
(0.009987363953 0.001119995898 2.069723172e-05)
(0.00834520777 1.296631715e-05 1.511307177e-05)
(0.00832497982 1.299569173e-05 1.504007209e-05)
(0.008322509169 6.504313697e-06 1.878360962e-05)
(0.008315014697 -3.625335623e-06 7.13442524e-06)
(0.008332056799 -8.226276152e-06 6.3228886e-06)
(0.008372079569 -9.854629796e-06 2.080410023e-06)
(0.008326517312 -1.220324345e-05 -8.118508696e-06)
(0.008388553582 4.575689892e-06 -9.898403636e-06)
(0.008421395297 6.276079476e-06 -6.21687505e-06)
(0.008414313921 1.336209088e-05 -9.12553985e-06)
(0.008363524015 3.058671073e-05 -1.500632089e-05)
(0.008357354382 3.464386194e-05 -1.965486672e-05)
(0.008363391639 3.407423916e-05 -1.130879233e-05)
(0.008335177924 4.67808067e-05 -1.402081588e-05)
(0.008344299949 6.950260402e-05 -1.535692814e-05)
(0.008324371293 9.592587315e-05 -1.006383927e-05)
(0.008309494958 0.0001026604156 -9.147805582e-07)
(0.008385709805 0.0001131032394 1.041716595e-05)
(0.008392976885 0.0001036564677 2.746786967e-06)
(0.008483783526 0.0001162560114 -1.427115684e-05)
(0.008547386886 0.0001636856372 -2.105785413e-05)
(0.008647757508 0.0001928284753 -1.541274648e-05)
(0.008712098586 0.0002411560698 7.075786602e-06)
(0.00880445151 0.0002959845778 3.046990793e-06)
(0.008775913906 0.0003311575591 1.217186631e-05)
(0.008854311222 0.0004067437873 -8.774978579e-06)
(0.008947886353 0.0004667605712 -9.202416573e-06)
(0.009125030542 0.0005517319113 -6.372269622e-06)
(0.009451977684 0.0007129018177 -3.76830669e-06)
(0.009687621266 0.0008546372526 -1.064582692e-05)
(0.008366644537 1.717859261e-05 -1.297772952e-05)
(0.008431689582 7.506189027e-06 -1.517025308e-05)
(0.008464559533 9.37746385e-06 -1.484702915e-05)
(0.00837454639 1.430037777e-05 -2.212136183e-05)
(0.008335791264 1.423209242e-05 -1.424577655e-05)
(0.008281848442 1.005070907e-05 -7.156586379e-06)
(0.008237738112 1.623685579e-05 -9.049418172e-07)
(0.008223152641 -8.981349105e-06 -2.014432094e-06)
(0.008201919271 -6.060377608e-06 -3.90792439e-06)
(0.008242054753 -1.955953843e-06 8.430950046e-07)
(0.008264368574 1.042726208e-05 4.07330477e-06)
(0.008256569084 3.195724557e-05 6.288679985e-06)
(0.008285248569 5.254044918e-05 -2.346955304e-06)
(0.008322066666 4.663768195e-05 -1.515117971e-05)
(0.008357523473 5.229035451e-05 -2.026626902e-05)
(0.008403424098 4.330835641e-05 -1.935634665e-05)
(0.008461573245 5.881420014e-05 -2.27240577e-05)
(0.008488999633 7.493874568e-05 -2.189676276e-05)
(0.008585802792 0.00010013222 -1.483881995e-05)
(0.008598244566 0.0001038768434 -7.534566522e-06)
(0.008660483155 0.0001217298865 -5.818977456e-06)
(0.00865516147 0.0001556892038 -1.883103332e-05)
(0.008611215756 0.0001999139615 -2.641033778e-05)
(0.008648670778 0.0002597720883 -2.766840208e-05)
(0.008734476309 0.0002945627468 -2.366867044e-05)
(0.008733644709 0.0003257090332 -1.069320523e-05)
(0.008855150758 0.0003917253744 -1.171885339e-05)
(0.008995822868 0.0004597456606 -1.269116221e-05)
(0.009052387886 0.0005286227133 -5.711778759e-06)
(0.009296395176 0.0006488227773 -5.268035054e-06)
(0.008373900433 -1.589891186e-06 -2.07952893e-05)
(0.008342911265 9.257485227e-06 -1.108734444e-05)
(0.008375915641 1.533199905e-05 -1.26733944e-05)
(0.008406121205 2.182651099e-05 -1.08033309e-05)
(0.008404188837 2.272358835e-05 -1.489394391e-05)
(0.008450270932 3.299672775e-05 -1.444240808e-05)
(0.008432631307 1.969293671e-05 -1.06116078e-05)
(0.008457444447 2.523963877e-05 -1.604757523e-05)
(0.00837211682 1.966239489e-05 -2.488897153e-06)
(0.008339222628 9.671963265e-06 9.011782626e-06)
(0.008305813631 1.963666513e-05 9.136193844e-06)
(0.008342060048 5.657561777e-06 8.560690899e-06)
(0.00834228176 2.739295308e-05 1.335748524e-05)
(0.008360108701 3.37392194e-05 7.446504824e-06)
(0.008377130279 1.307435779e-05 7.161698158e-06)
(0.008370239878 3.04193772e-05 5.60921616e-06)
(0.008413352292 4.930230316e-05 1.209416872e-05)
(0.008440360568 5.035136429e-05 -5.703294923e-06)
(0.008412439763 5.602651835e-05 -1.080881281e-05)
(0.008402642072 8.191680716e-05 -8.72034797e-06)
(0.008447500804 0.0001201591697 -1.788183526e-05)
(0.008440793227 0.0001396013075 -1.739451819e-05)
(0.008555202865 0.0001622868438 -2.607705503e-05)
(0.008620030554 0.0001774518761 -2.050972437e-05)
(0.008781759948 0.0002471601081 -1.805754305e-05)
(0.00883256305 0.0002572852412 -1.531639646e-05)
(0.008960306203 0.0003150131773 1.106439478e-05)
(0.008985443644 0.0003750646748 6.631660688e-06)
(0.00905815701 0.000429393799 7.58070546e-06)
(0.009194664833 0.0005468812753 1.318180467e-06)
(0.008282665925 1.583172859e-07 6.588631241e-06)
(0.008214829684 1.003425364e-05 5.158456571e-06)
(0.008235585907 1.604792156e-05 1.133657093e-06)
(0.008258715229 9.242845362e-06 -1.591044536e-06)
(0.008283854276 -6.098414563e-06 -1.587809037e-06)
(0.008279726847 -1.801908221e-07 -1.637992945e-06)
(0.008247786023 1.834600829e-05 -6.858811408e-07)
(0.008299136159 1.956832e-05 -6.243583098e-07)
(0.008322256406 1.964486693e-05 -1.174387009e-05)
(0.008274282339 1.894649352e-05 5.03440584e-06)
(0.008339971258 2.968496117e-05 9.871463515e-07)
(0.008389177071 2.095799693e-05 -4.21527567e-06)
(0.00841177479 -6.201095015e-06 4.107748236e-06)
(0.008360011211 1.490125464e-05 1.172227291e-05)
(0.008386389476 2.45802733e-05 1.082796628e-05)
(0.008385545735 3.479517569e-05 7.767265614e-06)
(0.008328851874 2.481832031e-05 8.883035927e-07)
(0.008361136056 4.304350925e-05 4.030279098e-06)
(0.008333995775 6.384489207e-05 1.548174808e-05)
(0.008405386051 5.600726903e-05 1.599598712e-05)
(0.008462002226 6.230057102e-05 2.250429114e-05)
(0.008522937394 8.078810597e-05 4.317610026e-05)
(0.008496769926 0.0001114418618 4.608554571e-05)
(0.008569646785 0.000144085538 2.872870792e-05)
(0.008602301398 0.0001717675752 1.459440107e-05)
(0.008571643427 0.0002369237041 1.550646959e-05)
(0.008634470411 0.0002518656912 6.248221938e-06)
(0.00876190379 0.0002975955912 1.358658504e-05)
(0.008934381797 0.0003673937148 8.025520867e-06)
(0.008950717517 0.0003894585201 1.595492999e-05)
(0.008342081292 7.97671849e-06 3.610409943e-06)
(0.008278227356 -1.128011016e-05 -1.396899821e-08)
(0.008323230748 -1.317939103e-05 -2.146128425e-06)
(0.008266953646 -6.316688823e-06 -4.598789304e-06)
(0.008296184276 1.051235163e-05 -1.19531065e-05)
(0.008279619813 1.206962648e-05 -5.840365118e-06)
(0.008307630025 7.18050529e-06 -3.672228712e-06)
(0.008272852295 2.199767334e-05 1.144484154e-06)
(0.008335141599 1.426117106e-05 -3.292827545e-06)
(0.008309045501 1.223023874e-05 -1.11741982e-05)
(0.008363486426 -6.540475405e-07 -7.549696872e-06)
(0.008292292695 -4.989498359e-06 9.984164078e-06)
(0.008245701638 1.542941794e-05 -3.532442858e-06)
(0.008306386894 1.356107227e-05 3.620824154e-06)
(0.008312462058 2.313817874e-05 -4.233066699e-06)
(0.008379286607 2.010478831e-05 -2.852620995e-07)
(0.008459576244 3.308828733e-05 1.265236215e-05)
(0.008400010102 2.614146013e-05 1.228548967e-05)
(0.008448948671 4.288762627e-05 7.393353665e-06)
(0.008477661413 4.607164028e-05 1.207110047e-05)
(0.008417790479 7.214182007e-05 1.481113055e-05)
(0.008403317006 7.321351723e-05 9.545267054e-06)
(0.008367584162 9.154667844e-05 9.358032389e-06)
(0.008427873956 0.0001137854866 9.53742912e-06)
(0.008501372892 0.0001253430774 1.776893828e-05)
(0.008632932796 0.0001625994149 1.609232763e-05)
(0.008609236307 0.0002247607606 5.772246646e-06)
(0.008649877034 0.0002461004243 -7.737202766e-06)
(0.008724481016 0.000292871306 4.449068194e-06)
(0.008826189007 0.0003248870112 2.316635582e-06)
(0.008323609645 2.208017082e-05 -9.221612208e-06)
(0.008354170602 2.230878183e-05 -1.483796648e-06)
(0.008325565008 1.67065086e-05 8.017773332e-06)
(0.008342749539 9.396760253e-06 1.912179738e-05)
(0.00834463996 2.202086914e-06 2.272025075e-05)
(0.008373424103 -2.309645978e-06 3.10838443e-05)
(0.00844580968 -6.278063911e-06 1.868666896e-05)
(0.008485038146 -1.257572714e-05 1.172090033e-05)
(0.008469082462 7.679604316e-06 3.81677328e-06)
(0.008483874339 5.718729674e-06 1.06791109e-05)
(0.008448111976 1.67280635e-05 3.944992205e-06)
(0.00843787299 2.810322977e-05 3.61095845e-06)
(0.008482436694 1.286356691e-05 -2.262856861e-06)
(0.008432097121 1.0671915e-05 -2.411178196e-06)
(0.008413505164 8.207722989e-06 1.166233269e-05)
(0.008413483752 1.14125577e-05 1.294972732e-05)
(0.008388390027 1.782351985e-05 1.879544942e-05)
(0.008362321829 2.833288524e-05 2.931687853e-05)
(0.008377500245 1.97079165e-05 1.827666705e-05)
(0.008346676087 5.978540025e-05 1.102117047e-05)
(0.008401918236 6.768866877e-05 1.193946067e-05)
(0.008549686268 6.235834762e-05 1.091343827e-05)
(0.008632850603 7.059350656e-05 -7.95645018e-07)
(0.008626093185 8.699529396e-05 -6.260806843e-07)
(0.008554968884 0.000104581027 9.716566924e-06)
(0.008624472034 0.0001249330763 1.647526961e-05)
(0.008723556239 0.0001528424447 -3.634729733e-06)
(0.008857853172 0.0001979822803 4.943493816e-06)
(0.008931421143 0.0002160148404 7.629978134e-06)
(0.009005861423 0.0002746788925 -5.831141092e-06)
(0.008437596531 7.640045086e-06 -7.224243677e-06)
(0.008431572651 -1.150997896e-06 -7.649795601e-06)
(0.008460195386 -4.22455822e-06 -1.30875988e-05)
(0.008490816715 5.165559877e-06 -1.212742333e-05)
(0.008459655449 4.295458257e-06 -1.020207334e-05)
(0.008414994506 7.675852581e-06 -1.066304183e-05)
(0.008357407585 6.633723941e-06 -2.257353687e-07)
(0.0083242954 7.808186656e-06 2.539641423e-06)
(0.008337121645 -7.659536245e-06 6.901099429e-06)
(0.008350066244 -3.686710384e-06 6.678370445e-06)
(0.008316151812 -7.546779386e-06 8.588498589e-06)
(0.008355174267 8.616512913e-06 1.421228829e-05)
(0.008352861584 1.550463953e-05 2.285892098e-05)
(0.00837597148 2.454661616e-05 1.60165611e-05)
(0.008368085252 1.698414904e-05 1.583623119e-05)
(0.008370292587 2.479912882e-05 1.540961884e-05)
(0.008403700307 4.464817037e-05 3.297952318e-06)
(0.008414880097 3.175004717e-05 -4.578815477e-06)
(0.008403047088 2.397079277e-05 -8.086600117e-06)
(0.008425240592 1.452137858e-05 -1.784219051e-05)
(0.008393183028 1.632424912e-05 -1.163091517e-05)
(0.008354234293 3.481766869e-05 -7.435850292e-06)
(0.008373457647 3.387927167e-05 4.466415119e-07)
(0.00840595749 5.175439931e-05 -4.148950029e-06)
(0.008476358931 6.647993527e-05 -3.060537188e-06)
(0.008546476035 9.191215626e-05 -7.166751639e-06)
(0.008551243204 0.0001149258924 1.019885969e-05)
(0.008539371483 0.0001448562404 -7.912769017e-06)
(0.008530918275 0.000191879652 -9.382807264e-06)
(0.008591490066 0.0002130027378 1.749335499e-05)
(0.008358539425 -4.729271345e-06 2.153428506e-06)