/*--------------------------------*- C++ -*----------------------------------*\
| =========                 |                                                 |
| \\      /  F ield         | OpenFOAM: The Open Source CFD Toolbox           |
|  \\    /   O peration     | Version:  2406                                  |
|   \\  /    A nd           | Website:  www.openfoam.com                      |
|    \\/     M anipulation  |                                                 |
\*---------------------------------------------------------------------------*/
FoamFile
{
    version     2.0;
    format      ascii;
    arch        "LSB;label=32;scalar=64";
    class       volVectorField;
    location    "0.007";
    object      momentum;
}
// * * * * * * * * * * * * * * * * * * * * * * * * * * * * * * * * * * * * * //

dimensions      [1 -2 -1 0 0 0 0];

internalField   nonuniform List<vector> 
654
(
(0.01501790165 0.005072750764 0.0008236849168)
(0.01511670124 0.007586987389 -0.0002915488744)
(0.01526501243 0.00724910211 0.0008610265623)
(0.01630952818 0.00511439063 -0.0005181971035)
(0.02133887181 0.00676178355 0.0006192596156)
(0.01831955338 0.009228555391 0.0008265246264)
(0.008978157873 0.004015581421 -0.001552087146)
(0.0121593293 0.003132204575 -0.0004866626462)
(0.01735743785 0.005205516879 -0.00126812231)
(0.01762473129 0.00634249496 -0.0002947720588)
(0.01240413878 0.004227545689 0.0006783162138)
(0.01236859881 0.002943739022 8.355666474e-05)
(0.01863059172 0.00561311454 0.001322151746)
(0.009200088821 0.001340544015 -0.001008004498)
(0.009631377087 0.003760212056 0.000864491068)
(0.01304844329 0.004207582969 0.000384123507)
(0.01724995794 0.006415070566 0.0002717720201)
(0.01287204755 0.001790969916 -0.000279200458)
(0.01527972505 0.001568265654 -0.0006824839927)
(0.01476099155 0.003698848191 -0.001211414037)
(0.007641819875 0.003023566971 -0.0001964526582)
(0.01513624732 0.002555095342 0.0007763925294)
(0.02073767884 0.003709538681 0.0006043094694)
(0.01606973789 0.003464440011 -2.474319615e-05)
(0.01518497734 0.004645152476 -0.0001596796999)
(0.01392353106 0.004849031637 0.000148961737)
(0.01568615029 0.005020605122 -0.0003773026841)
(0.01290347026 0.004967295247 0.00055155239)
(0.01630340607 0.005959602992 2.214930787e-05)
(0.0148492848 0.004463742371 0.003837748126)
(0.01291030667 0.00216413112 0.0004241019144)
(0.0100769128 0.002048872314 0.001456562493)
(0.01565444901 0.006107811019 -0.0001448413579)
(0.005169790448 0.000836573978 7.528848578e-05)
(0.01054761099 -8.865249025e-06 0.0007526850009)
(0.008629251746 0.001250361649 4.865419249e-05)
(0.008046343265 0.000459290107 -0.0003155197358)
(0.0148373485 -0.001005469119 0.0006249862903)
(0.01110549301 0.001380570532 0.000675962883)
(0.008610972681 0.004058705249 0.0008394945892)
(0.004664722416 0.0006475149911 -0.0007515710598)
(0.01240053348 0.003558531934 -0.0002591541812)
(0.02213245711 0.002297708614 -0.001493139172)
(0.008424620209 0.002908691287 -0.0003460560055)
(0.008224238025 0.0002031501697 6.573449173e-05)
(0.02059397584 0.005296930981 0.001197437408)
(0.01563613362 0.00470206769 0.0001169700115)
(0.01668890405 0.006601362838 -0.0006131956077)
(0.01597436642 0.006270378513 -0.00133448086)
(0.01460965986 0.004636138241 -0.003260613946)
(0.0194533503 0.004591152043 0.0004419867837)
(0.02586269968 0.006731664094 0.0004535179966)
(0.01341662779 0.002072951452 -0.001171313404)
(0.01503898684 0.004348320597 -0.001311508427)
(0.01764778037 0.004492952581 -2.400115726e-05)
(0.00952438684 0.0002505439703 0.0001425444048)
(0.007438340338 0.001300603653 -0.0008764138084)
(0.01345888856 0.000108556832 -0.0002005765109)
(0.006310688588 0.0006748659248 -0.0008149100231)
(0.006145318067 0.0003166887498 0.001132713684)
(0.009191631805 3.938963356e-05 -8.012676034e-06)
(0.009207793032 0.0004067087161 0.001827997876)
(0.009919234567 0.00187235079 0.0001042003099)
(0.01628789966 0.002102871625 -0.000165330348)
(0.007469669925 0.0006081670819 -0.0001816968926)
(0.0111165515 0.0006163774003 -0.0002555573131)
(0.008009147857 0.001540149998 0.0009132789248)
(0.0115430122 0.0009366733684 -0.0005302009802)
(0.01044359208 0.001512646374 -0.001725539422)
(0.01551454291 0.001148619468 0.0008117902099)
(0.01243918124 0.001741250225 0.0004475400359)
(0.01293314349 0.002324120274 0.0001676580912)
(0.01357934853 0.003487568994 0.0004666908602)
(0.01346470286 0.0008191905699 -5.53435007e-05)
(0.008973822485 0.001861663013 -0.0003232558325)
(0.01254719885 0.00213102306 0.000779906854)
(0.01238983732 0.002746006447 0.0008183517506)
(0.01232995046 0.00260748209 0.0009827358787)
(0.011733075 0.005027859196 -0.0005782750753)
(0.01553318173 0.002486075435 -0.0003879569409)
(0.01019634455 0.002020028768 0.0004932346592)
(0.01556447099 0.00640604132 -0.001274748486)
(0.01275467835 0.005222328602 0.000449712351)
(0.02011031567 0.008762139835 -0.001398588074)
(0.01161995001 0.00101878134 -0.0004271733207)
(0.005133930518 6.668275018e-05 0.0005118898036)
(0.01077602096 0.001512188781 0.001122960703)
(0.008492309433 0.0002202376526 0.0004460846712)
(0.01197734016 0.001164857105 -0.0009669317894)
(0.004144165263 -3.096281638e-05 0.0005829179452)
(0.007689433792 0.0009773167748 0.0004474765379)
(0.006836798479 0.0003064570747 -0.0007139726129)
(0.009692832256 -0.0006449251176 -0.0003158036857)
(0.01316133974 0.0001582803762 -0.001200622725)
(0.009453041255 0.0008850889032 -0.0001295882696)
(0.009084608629 -0.0001346771611 -0.001463154695)
(0.008039197984 -0.0002932453761 -0.000127602799)
(0.003812959329 0.0003218135363 0.0005632511026)
(0.01623787623 0.0004567508643 3.963609515e-05)
(0.004213188998 0.0004097878366 -0.000355755543)
(0.0106142349 0.001630807224 2.443411433e-05)
(0.01021485658 0.0004244097647 -0.0002024726847)
(0.009578478179 0.001923695043 -0.0003538250913)
(0.009803093945 0.002158223654 -0.0001605752734)
(0.01344319489 0.001104262856 0.0007907060026)
(0.01279461397 0.004255641189 0.0006511179245)
(0.01708928156 0.001990706582 0.00133517225)
(0.01247943203 0.001874040086 -0.0006756111252)
(0.01142524554 0.002690473351 -0.001230766625)
(0.008874165533 0.002035202405 0.0004125225025)
(0.01515259459 0.005097160655 -9.863255711e-06)
(0.01865985595 0.006045041864 0.001157956005)
(0.02188372363 0.004155201236 0.002120140431)
(0.01218321399 0.003776909972 -0.00215075309)
(0.001692409654 -0.0002019542462 0.000201784751)
(0.003923710167 0.0001214989646 -1.031988167e-05)
(0.01191348372 0.001073701921 -0.0008528106534)
(0.005872620805 0.0006325079773 -0.0005995882033)
(0.003022678162 -0.000329551125 -0.0002035918098)
(0.00416826581 0.0003777604401 -0.0002330573527)
(0.00472796456 -0.0002734759239 -0.0002554471471)
(0.009695172862 0.0001428308497 0.0001756419822)
(0.005005123197 0.0007734347546 -0.0002829068271)
(0.009066868287 0.0008712425891 0.0007247035439)
(0.013061565 -0.0001772815071 5.50098787e-05)
(0.01069065811 0.000513394428 -0.001278677198)
(0.008012912388 0.0007924096302 0.0007200783069)
(0.009329621627 0.0006435981353 2.135854239e-05)
(0.006831037128 0.0005525844214 0.0008495377711)
(0.01222276601 0.000930020697 -0.0002186596888)
(0.007198574655 0.003222025412 0.0004639270986)
(0.01357810962 0.001982152498 1.200807512e-05)
(0.008698264505 0.001204606877 8.138530587e-05)
(0.01031669819 -0.0001980098016 -0.0002573676849)
(0.01062694842 0.0009012829623 -0.0002900190738)
(0.009997455042 0.002511641783 0.0004395458623)
(0.005284945439 0.002469169607 0.000540268804)
(0.01811246731 0.004928161678 -0.0005085799706)
(0.01034221214 0.003009019393 -7.282130498e-05)
(0.01461063668 0.003976631463 -0.0003326521048)
(0.01120162253 0.00399061638 0.001744235779)
(0.01737781285 0.003846550833 -0.00108696315)
(0.01197163494 0.005044658693 0.001083768839)
(0.01660419602 0.004812570554 -0.001039943551)
(0.005244807832 -0.0001136668197 -0.0006379865971)
(0.01012773588 -0.0004044052319 2.624857399e-05)
(0.005176433206 -0.0002954757215 0.0004480923606)
(0.009685931658 0.000371492121 0.0003027781112)
(0.008682875493 -0.001414955968 4.931100008e-05)
(0.01096844208 -9.458699587e-05 -0.0004380110041)
(0.009530330788 -0.0001684884747 0.00059211479)
(0.009635936414 0.0004930486707 9.30844712e-05)
(0.01175757984 -0.0003226581152 -0.0008551415289)
(0.01162247992 -3.332956381e-05 -0.0001520202015)
(0.01526093912 0.002612644539 0.0003283163301)
(0.007806704508 0.0001204298447 0.000915280683)
(0.003504302737 0.0005897440335 -0.0005045456571)
(0.01277055939 0.001407154707 -0.001018206647)
(0.009078194734 0.001153239864 0.0005414559888)
(0.006255388968 0.0007377448064 -0.000272267285)
(0.01265451254 0.003061384556 0.0005432765724)
(0.01110682513 0.001966679687 0.0005485906473)
(0.01244982395 0.001048850035 0.0005427600364)
(0.01171067456 0.001024215637 0.0001105453573)
(0.007861025971 0.001175510568 6.271366766e-05)
(0.004956717537 0.0007195810706 -0.0004402148092)
(0.01473774302 0.003817303857 1.719587672e-05)
(0.0232233774 0.004455854863 -0.0006901969167)
(0.01417861839 0.003671640504 6.259035087e-05)
(0.008884739994 0.005125455613 0.0004878916831)
(0.01345719244 0.005474085393 0.001683532637)
(0.01235363035 0.002967310361 0.001735542214)
(0.008141551118 0.002336697475 0.0006586823529)
(0.02173128934 0.004763484862 0.0007575605438)
(0.00829013302 -0.0003652063111 -0.0003755203261)
(0.01380409749 -0.0007370149275 -0.0001634253066)
(0.01055498232 -0.0004593844149 -0.0002159254201)
(0.01334488889 -6.280249129e-06 -0.0006177675879)
(0.004201829712 -0.0004359129941 4.441650146e-05)
(0.0124725305 -0.0001593956612 -0.0002353642864)
(0.006846287015 0.0006626035386 1.745171135e-05)
(0.006565224753 0.0003154119422 -0.0001188439077)
(0.00783001281 -7.72168633e-05 -0.0004807053518)
(0.01118008478 -0.0003122475221 -0.0003121515254)
(0.005619755075 0.001445431424 -0.0001316635353)
(0.005025151236 -0.0001377299629 -0.0004658143147)
(0.01145652624 0.000207971315 -0.0003838494917)
(0.008313812348 9.190499722e-05 -0.0002747803957)
(0.007280489161 -6.585145552e-05 -0.0002434967566)
(0.01061730616 0.0007266337077 0.0005262398025)
(0.006222991535 -7.441017929e-05 -0.000459915981)
(0.01423770945 0.0006994010746 0.000820222611)
(0.009155037453 0.0007601983538 -0.0008501968406)
(0.009780779366 -0.0002501669395 -3.837230443e-05)
(0.01161116965 -0.000327169286 -9.468075824e-06)
(0.009224534474 0.0006369661364 0.0009701410904)
(0.008428123317 0.001519973262 -7.974090156e-06)
(0.01923259396 0.002914396892 -0.0001029679424)
(0.01135796828 0.001925942142 -0.001106229722)
(0.01188219558 0.001455371276 0.0002454101248)
(0.01139672681 0.002033791824 0.000789636103)
(0.01325521331 0.004710281726 -0.00111554942)
(0.005723916039 0.00167765118 -0.000113621994)
(0.01652981357 0.004817706109 -0.001961724806)
(0.00579795994 0.0004826390048 -0.0003667708047)
(0.006708218489 -3.282662393e-05 -0.0003497505961)
(0.005922128245 0.0002319952483 -0.0003875874011)
(0.006651489102 0.0001692202713 -0.000260993625)
(0.01122134229 -0.0007938586301 0.001286720208)
(0.005946183177 -0.0001323083949 -0.0002007181079)
(0.005609771876 -3.947704346e-05 0.0001934601212)
(0.00840965359 -0.000902677744 0.0005171049947)
(0.007207306651 -0.0001929247261 -0.0001997382866)
(0.01046453163 8.980744988e-05 -0.0005854912486)
(0.008282288568 -0.0009507661858 0.0002887804387)
(0.007241968415 4.786930356e-05 8.623418008e-08)
(0.004880117612 0.0002089631395 0.0002987096772)
(0.01151455459 -0.0005753411163 0.001405557248)
(0.007149473085 0.0002646195939 0.0005415152212)
(0.005552837452 -0.0001734977885 0.001454141482)
(0.009697049812 0.0002757617333 0.0002713313468)
(0.01310510462 -0.0003305948662 -0.0007274952256)
(0.007740392149 0.0006915371209 -0.000282703461)
(0.005493506524 0.001045029414 -0.000409933007)
(0.006730441544 0.0007879860366 -0.0002629552292)
(0.01022069878 0.000493881357 0.0009012086656)
(0.01095992728 0.0006318584337 9.998895827e-05)
(0.01055642947 0.001457368409 0.000681591772)
(0.01500101357 0.002165918561 0.0004502526403)
(0.01075348118 0.0007143036147 0.00041490587)
(0.01094462714 0.001701209098 -0.000879482463)
(0.01901160261 0.002449463741 -0.001239025893)
(0.006565123972 0.0006654174278 0.0002334568244)
(0.0100079467 0.002173483979 -0.001049899035)
(0.005023524805 0.0002140618364 0.0006056027379)
(0.006951305386 0.0004718371966 -0.000403857003)
(0.009053723021 -0.0004133458216 0.0002056615378)
(0.009385765735 -0.0009413885897 0.0004704942743)
(0.009509631456 -6.997132664e-05 0.0007732572793)
(0.008950084656 -0.0006580997811 -0.0009807625868)
(0.007155387295 0.0006241621335 -0.0004058997205)
(0.009402445961 0.0001521428872 -0.0004306688702)
(0.00580590588 0.0005517557864 0.0002411370431)
(0.006691094085 9.369927454e-05 0.0003983159345)
(0.01294723266 -0.0005086989924 0.0006917071398)
(0.01227159989 -0.0001354041703 -0.0007160257527)
(0.004415681381 -0.0002344571989 -2.824671953e-05)
(0.005163023265 3.768218473e-05 0.0003220090011)
(0.006304536567 0.0001404993141 0.0001486267091)
(0.007669382953 0.0002794341613 0.0001026735902)
(0.002951035972 5.932130344e-05 0.0001306029937)
(0.003318125739 0.0005480682785 0.0003385146997)
(0.009943606413 -6.384252143e-05 -0.0006754248882)
(0.008210201182 0.001123965706 0.0002660257753)
(0.0116886176 0.0001708253556 -0.00123067149)
(0.006877347379 0.000162087615 -0.0009738928531)
(0.01022942348 0.001076076656 -0.000388513419)
(0.009172496556 0.002170757323 -0.0005798304625)
(0.005898428726 -0.0001092944723 -0.0003228840451)
(0.008383476453 0.001357936113 9.618782457e-06)
(0.008647722984 0.002871343972 -6.387574128e-05)
(0.01395984786 0.002246811192 0.0006437230131)
(0.0119861136 0.001242858224 -0.001759276829)
(0.01382383645 0.001483875127 0.0006252954592)
(0.009676300232 0.0003721364516 -6.404304676e-05)
(0.01107586035 -6.635214494e-05 0.0001499301544)
(0.004920213593 0.0006533571287 0.0007502436598)
(0.01421420228 -0.0004413950389 9.548732483e-05)
(0.007283189548 -0.0001574838672 -0.0001613128999)
(0.01044762844 -0.0003168799601 0.0005991604857)
(0.006708886468 2.103282056e-05 -0.0006901936725)
(0.0150714289 -0.0008088035002 0.0004856105903)
(0.01057809858 0.0006577459953 -1.990412067e-05)
(0.005938511627 -0.0001347138448 0.0003609641059)
(0.003794118162 -0.0004964582155 -0.0004803564624)
(0.006256471065 -0.0001182708074 -0.0004030011868)
(0.005625978942 0.0002555798549 -0.0006019575279)
(0.008062165224 -4.216049667e-05 7.089406708e-05)
(0.00637121389 7.959899498e-05 -0.0003065027883)
(0.005016924659 0.0005665408672 0.000144973963)
(0.005580324599 5.080485624e-05 0.0001257442363)
(0.007114337307 0.0005737874999 1.322082873e-05)
(0.007762992312 0.000430567923 0.001338901362)
(0.005632933923 0.0001977420456 -0.0004808094507)
(0.00738372913 9.80151226e-05 -0.001018698504)
(0.007363840377 0.00114486616 -0.001016299459)
(0.009638710743 0.0003601835724 0.0002038154699)
(0.01446593084 0.0004068876799 -0.00125117092)
(0.007163234472 0.0007149940967 0.000196251453)
(0.008466792242 0.002338843203 0.001385757352)
(0.009486929204 0.0008046231094 0.0007271102863)
(0.006314988377 0.001824402291 -0.0005021281665)
(0.01121121327 0.001954375209 -0.0007843418875)
(0.008622085936 0.0004791557613 -0.000293403842)
(0.01300138902 0.0004844362802 0.000269072252)
(0.008401812677 0.0001236148991 0.0002292155078)
(0.008688747912 0.001038551216 -0.0005917900618)
(0.006881779656 -0.0001142978807 -0.000920384384)
(0.01279486886 0.001312514883 0.0008258802991)
(0.008367890798 -0.0003770684599 -0.0004419274948)
(0.008427703387 -0.0001194374743 -0.0001512364065)
(0.004539404122 -0.0005475424018 -0.000454730406)
(0.01433418508 -0.001131850828 -0.001092980768)
(0.01622969033 -0.0006399037303 -0.0003012849704)
(0.009976638545 0.00109008073 0.001401977976)
(0.008171964275 0.0001962354286 0.0002223944574)
(0.005480360525 0.0001364427294 -0.0001977573803)
(0.007528672835 -0.0005052783612 0.0007952872183)
(0.01362796382 0.0002064708208 -0.0005871146068)
(0.004437714109 0.0009947564355 -6.124922605e-05)
(0.002594903648 -0.0001697372123 7.597744209e-05)
(0.0107065162 -0.0007118565656 -0.0003350952588)
(0.01155257488 0.001151354817 -0.00125026559)
(0.01215972178 0.0005723588354 -0.0002647978786)
(0.006613815028 0.0007231341367 2.795048524e-05)
(0.01129633669 0.002141005805 0.001675202693)
(0.009728832203 0.002419395675 0.001051363877)
(0.01041214099 0.003105873056 -0.0006295526302)
(0.01016341611 0.001054505653 -0.0003450765211)
(0.01070014452 0.001842595983 0.0009109598996)
(0.008499426782 0.001893866828 0.0002750215473)
(0.009871375382 0.002564485948 -0.0001518798345)
(0.01302886372 0.001111379102 -0.0002619916846)
(0.01253472583 0.003632192737 0.001304174718)
(0.009332575458 -1.374637456e-05 0.0002291257405)
(0.01047540866 -3.72461584e-05 -1.387329903e-06)
(0.009696121653 0.0006807721194 6.385754329e-05)
(0.005154626681 -0.0005313511807 0.001332487119)
(0.007713406588 0.000335853792 -0.0002049404889)
(0.006635811881 -0.0003932815468 -0.0003450451539)
(0.007016725403 0.0006539977745 0.0002568360293)
(0.007157318181 0.0004833852832 -6.468267615e-06)
(0.009507797134 -0.000331147237 0.0007658385161)
(0.01483656836 -0.0007290514162 -0.0008392557668)
(0.005225490382 0.000405218825 -0.0001839256483)
(0.0086079055 -0.0005833788614 -0.0003957971905)
(0.005409583882 0.0006152601115 -0.0001657527411)
(0.00415643779 -0.0004190984192 -0.0001129672927)
(0.009057160864 -0.0006606798036 0.0001567981182)
(0.008218419359 3.941280556e-05 -0.000180495426)
(0.008739840329 0.001108721295 0.0003243874352)
(0.01044198334 -0.0002769340087 0.001287566332)
(0.007895043342 0.0004881803407 0.0005560752613)
(0.008274509479 0.001914389138 -0.0002282404128)
(0.006039364956 -0.0004075384703 -0.0004468835553)
(0.004014868187 0.000761360166 -0.0006072327051)
(0.005483735283 0.000983307961 0.0002123054313)
(0.01965803971 -7.098602752e-05 -0.0006148107137)
(0.01735750567 -1.967391352e-05 0.0008221501988)
(0.01087947248 -0.001191705868 -8.564087247e-05)
(0.01203056454 0.002202444151 0.0001808882359)
(0.01241330189 0.001534857045 0.0004668190692)
(0.01446862733 0.001571554465 -0.0006802344195)
(0.01180626226 0.0006554766969 0.000760577007)
(0.01026038787 -2.97384628e-05 0.0007965418297)
(0.009156535123 0.0001827521171 -0.0008741338945)
(0.008898032018 8.454545349e-05 -0.0008941044638)
(0.007458810344 0.000743639664 -0.0002045688653)
(0.009064597956 -0.0005376762426 -0.0005445234273)
(0.01213696347 4.211427574e-05 -0.000533301688)
(0.01206165291 -0.0009306002394 0.0003353528011)
(0.008313106459 3.580554556e-05 -4.685707516e-05)
(0.007752974738 -0.0008490140599 -0.0001165044794)
(0.009945821629 -0.0004034467316 -0.0004940064729)
(0.00879395481 -0.0004025195476 0.0006743427354)
(0.008383478006 0.0001901426832 -0.0008765370412)
(0.01251222757 -0.0003993055692 -0.000198882697)
(0.007257551711 0.0006905778367 -6.970134186e-05)
(0.008106575528 3.148252803e-05 -0.0007281604219)
(0.004643455538 0.0004395173909 0.0006132377605)
(0.01008244961 -0.0003208429174 0.0009789318229)
(0.00629044473 -0.0004623803921 -0.0001742775819)
(0.01372945005 -0.001156203765 -0.0004582351197)
(0.004839387086 0.0005185991136 -0.0009673828758)
(0.004598943108 -0.000687180163 -7.269786902e-05)
(0.006392094 0.000363212029 -0.0003841937816)
(0.01275741631 -0.000275803038 -0.001374285317)
(0.01168749682 0.0001776246085 -0.0002789275584)
(0.009046135645 0.0006733980178 0.0001126404845)
(0.0113149555 0.000151261117 -7.985621281e-06)
(0.006371603359 0.0007416029368 0.0002547575987)
(0.01268007741 0.001414859537 -0.0005794630086)
(0.01166002936 0.001452861606 -5.548829357e-06)
(0.007494410163 0.001079231672 0.0005769474232)
(0.01393350624 0.0002550586775 0.0003439413516)
(0.003638055592 0.0002603258873 -0.0001297309117)
(0.01384466012 -0.0003335022179 0.0006844725071)
(0.007824548291 0.0002769684943 -0.0006681968874)
(0.003449892958 -0.0003752763332 -0.0001423853571)
(0.01018911531 0.0008932217972 6.613597208e-06)
(0.01016105919 -0.0006684456385 -8.287708139e-05)
(0.005148002503 -0.0003906708751 -0.0003310781423)
(0.008545436241 1.208970788e-05 0.0001259084121)
(0.01090488864 -4.555247376e-05 0.000246826268)
(0.01459960107 0.001737606416 0.0005955373844)
(0.009172807965 0.0007847950931 -6.248494525e-05)
(0.0114200356 0.0007688528391 -0.0009159379701)
(0.002897183654 -0.0001354824628 0.0001314280572)
(0.01123957182 0.0004899525438 -0.000494632121)
(0.009392098533 -0.0003176980345 -0.0002995199142)
(0.006512493078 0.0005463406018 0.0007538847958)
(0.00492706255 -0.0003808659977 0.0001100031552)
(0.004197638946 -0.0001676081346 -0.00017691523)
(0.005150245008 0.0001249532777 0.0008137563282)
(0.008859635115 1.218174057e-05 0.0004138763078)
(0.01204004343 0.0001607871901 -7.340608635e-05)
(0.006568228653 -0.0003769134525 -4.652965576e-05)
(0.005714192277 0.001017325311 -3.732868952e-05)
(0.003984642487 6.427713675e-05 -0.0006079008435)
(0.003337308775 8.927923854e-05 0.0001406034862)
(0.01095585287 0.001503061366 -0.0008935967204)
(0.006379344654 0.0007988476334 0.0004248313328)
(0.01545067493 -0.001075666532 0.0003314682808)
(0.01324594187 -0.0007528969348 0.000526022156)
(0.006246640593 -0.0003710159374 -0.0003969258921)
(0.0105384851 0.0004120068025 0.0007195317039)
(0.01007606576 -0.001122895015 0.000639870239)
(0.004471952281 0.0004841267772 -8.115578337e-05)
(0.006748509302 -0.0003595708338 -1.511623423e-05)
(0.009029779108 0.0003033127921 -0.0006616313335)
(0.003758502796 0.0004205360877 -0.0005749287335)
(0.005692896373 0.0004778141591 0.0003943113062)
(0.005407231752 0.000498916439 -0.0002218460037)
(0.002020383784 0.0005720984462 -0.0001698367891)
(0.008981576776 0.0003095893827 -0.001012952359)
(0.007452211943 -0.0002297506265 -0.0003055852938)
(0.009971166735 0.000178425867 0.0003095707919)
(0.005503680161 -6.854235729e-05 -0.0001939433254)
(0.008210074256 -0.0001529688519 3.81066189e-05)
(0.005058480734 -0.000192170934 -0.0001559931347)
(0.007044758833 -0.0006667188294 0.0004636675026)
(0.009474465666 -0.0004049820842 0.0005030111042)
(0.003831151586 -8.762517546e-05 -0.0002632208748)
(0.006823047854 0.0002755904969 0.0004725560056)
(0.01250310091 0.0008904261236 0.0007470693461)
(0.008060545644 0.000772268508 -0.0008628913269)
(0.009666188967 0.001186978804 2.859595374e-05)
(0.009015155311 -0.0007712848228 0.0004528437506)
(0.007507146858 -0.0001993773923 1.4767847e-05)
(0.00880398947 -0.0008380327259 -0.001975517666)
(0.006829440286 0.0001389391355 0.0001401583198)
(0.007136873443 0.0003853201345 -0.0002573141898)
(0.01872473033 0.003505692316 0.001202299466)
(0.0114365705 -0.0004780986478 -0.0003121580941)
(0.007676861978 6.685684527e-07 -9.923648302e-05)
(0.009482832431 0.0003938699134 0.0002944704729)
(0.006766480624 2.647727727e-05 0.0008488910537)
(0.007233274559 0.0009011926448 0.0004479008895)
(0.007877807859 -1.444861811e-05 6.870262896e-06)
(0.007098454325 0.0002852459612 0.0004128766877)
(0.01186197074 7.279097581e-07 0.0006578557541)
(0.01041783766 -1.899056119e-05 -0.000418413389)
(0.01093233637 0.0001539470862 -0.0006359355052)
(0.007454290232 -0.00109827463 -0.0004602404201)
(0.01231577901 -0.001202862861 0.0002469421498)
(0.006959190668 -0.0004181387099 -0.0003909825315)
(0.008822086154 -0.0003928273341 0.0008590205007)
(0.008865874628 0.0006440026629 0.0005223858957)
(0.008366754327 -2.862627939e-05 0.0006871694283)
(0.009888835842 -0.0007369131687 -0.0006712757808)
(0.008275766132 -0.0001345455344 -6.968080419e-05)
(0.01187327533 0.0005319577435 0.0007327430735)
(0.007354881122 0.0005222379603 0.0004040494293)
(0.008705082335 -0.0007203352774 -0.0003612605084)
(0.0111452832 -0.0001255991357 -0.0001547395612)
(0.01756795786 -7.784185979e-06 -7.983929676e-05)
(0.01151210572 0.001028760117 -0.0002203982466)
(0.01001319879 0.0006932346662 0.0005797168377)
(0.01055310247 0.0003548650239 0.0003856240831)
(0.007033029979 0.0008556886339 0.0001034067193)
(0.00629238876 0.0008016320821 0.0004098719065)
(0.007081222933 1.478048447e-05 -0.000673282118)
(0.00718054072 0.001703875582 0.0008892080957)
(0.008667570147 0.0008952349006 0.0005667056222)
(0.007110596192 -1.534543687e-05 -1.08862015e-05)
(0.009703936141 -0.0001250439554 0.0001081175157)
(0.003954318398 0.0004924988462 -9.045341699e-05)
(0.01088727012 -0.0007841841826 -0.0003961363063)
(0.006260739529 0.0004445851782 7.374745837e-05)
(0.01097840406 -0.0007408243242 7.007873321e-05)
(0.008105755372 -0.0002762811676 0.0008319836267)
(0.006743892653 0.0002818567437 -0.0003215364465)
(0.008607011434 -0.0006065533709 -0.0001569201789)
(0.005864959082 0.000347094608 -0.0006831340655)
(0.006808544029 -0.0001409250598 0.0002834498912)
(0.005766565051 0.000248817007 -0.0001027329412)
(0.006234163887 0.0004088349393 -0.0005924532659)
(0.009482039421 3.494952563e-05 0.0002693702657)
(0.006868360564 0.0007390928978 0.0004884465511)
(0.008488189663 0.0007778203458 -0.0002016875848)
(0.003308940429 0.0004431371254 0.0001400156048)
(0.01012117387 -0.0003654810544 -0.0001634151187)
(0.009542671421 0.0001411226318 -0.0005714655333)
(0.003940213833 8.488383589e-05 0.0008459724813)
(0.01027248212 0.000576847824 -0.0007711995038)
(0.003014305087 0.0001408046496 -0.0003010067407)
(0.005708932482 1.077308904e-06 -0.0004390149743)
(0.002784727029 -0.0001366256474 0.0002586814753)
(0.01521517209 0.0003978180662 -0.0001492240474)
(0.008140675602 0.0008973371672 -0.0008862156907)
(0.006462973898 -0.0002055906824 -0.000182575999)
(0.009948279861 4.980556436e-05 -0.0001449038116)
(0.01183216341 0.002186434387 -0.001028180635)
(0.009826910737 0.0008453584954 -0.0007465351807)
(0.01046303001 0.0002358712154 0.0001305138344)
(0.002420513882 -5.819719468e-05 -0.0003370389146)
(0.008765955829 0.0005676124581 -0.001275515288)
(0.009841295359 0.0004789306207 0.0005276321036)
(0.005871088392 0.0004629705255 -9.000676624e-05)
(0.01246210462 -0.0001078194142 0.0004752668664)
(0.01033617143 0.0007161860978 -0.0002579741293)
(0.003596450525 -0.0001691344212 -0.0001323091706)
(0.01372855656 -0.0002092536316 0.0002323416601)
(0.01381223781 -0.0001232269407 -0.0003199100066)
(0.01183891312 -3.039386355e-05 -0.0005774228087)
(0.007985142758 -0.000111143818 -0.0006549650512)
(0.007655499655 0.0002011857551 0.0006344013757)
(0.008734167153 0.0001626516331 0.0001523749525)
(0.008990810839 -1.8213082e-05 0.0003614416689)
(0.01008739868 0.000268764984 0.0004748418487)
(0.003970495858 -8.76278939e-05 0.0005086707527)
(0.005413925801 0.0002159078399 0.0002490658359)
(0.006572245145 -0.0002878648959 -0.0006500779323)
(0.01217641059 -0.0004372705981 0.0003785844816)
(0.00419058654 -9.880821786e-05 -0.000432376244)
(0.01174961669 -3.735460535e-06 -0.00010892636)
(0.003173892004 -6.69704915e-05 -0.0005037859001)
(0.01200250447 0.002481102211 -0.0002464756742)
(0.01158037884 0.001927014991 -0.0008923300587)
(0.008257517924 0.0004395360662 -0.0001072684238)
(0.004937311399 0.0005136559893 0.0003429802413)
(0.0086782147 0.0006370513077 0.0006959428225)
(0.01417860975 0.001838694364 0.001588159357)
(0.01028581936 0.0004633906278 -0.0004480052174)
(0.01044446134 -0.0003108477163 -0.0007886181994)
(0.006770995739 4.038334614e-05 -0.0002478650813)
(0.003584857706 0.0002390517007 -0.0002474306291)
(0.005822348638 0.0007976372322 0.0001125378333)
(0.006197096969 -0.0002160953069 1.143959065e-05)
(0.008071634506 0.001371461902 0.0005556114364)
(0.01140702348 -0.0006967518407 -0.0003426972137)
(0.01182394326 0.0003401918779 0.0001738154188)
(0.008793164778 -0.00051392914 -0.0003541936931)
(0.008832721646 7.711915038e-05 -0.0006816782848)
(0.009395525175 0.0007515296173 -0.001304289829)
(0.01355188172 -2.509933372e-05 2.187146737e-05)
(0.008129582271 -0.000856533815 -0.0005847257874)
(0.01199410188 -0.0004243438509 -0.0002831549642)
(0.01286603529 0.0001084544577 -0.000685328607)
(0.008179183235 5.386229989e-05 -0.000142423665)
(0.007018650861 0.000548908552 -0.0002870417316)
(0.01319053246 -0.000144600508 0.001012180076)
(0.007397959461 -0.0004694045165 -0.0008613207269)
(0.005265086308 0.0001683899609 -6.206819071e-06)
(0.01227956157 -0.0006358973291 -0.000691499268)
(0.01123839364 0.0005558519966 0.0009357728403)
(0.01262502473 0.001109257713 -0.001133742517)
(0.008049516865 -0.0005520335716 -0.0002516813906)
(0.007109037869 -0.0007109504609 -0.0001194712985)
(0.008952015205 0.0006302114898 -0.0004044633396)
(0.0160797222 0.002471183079 0.0005152091675)
(0.005341232502 0.0008108056436 -0.0001290406047)
(0.00690195217 0.0008072456149 0.000107724765)
(0.008027603998 0.0008245205217 -5.958691296e-05)
(0.01560441774 0.0003343777118 -0.0002801978878)
(0.003079561653 -0.0001804892475 2.703995283e-05)
(0.009884805942 0.0004145935264 -0.0001624451116)
(0.00717327669 -0.0002717589885 -0.0005229046324)
(0.006504214847 -0.000414222581 -0.0002953259151)
(0.009969702989 -0.0008840028507 -0.0001721396714)
(0.01007003413 0.0003033689697 0.0002375126351)
(0.007580958478 -0.00179501224 7.122349096e-05)
(0.009829817101 -0.0001366211192 -0.000568754815)
(0.008042611864 0.001073779053 0.0001474371188)
(0.01019525443 -0.0003755355658 -0.0006344708455)
(0.005498724525 -0.0004570068183 5.238347189e-05)
(0.00779504881 0.0008890886743 1.082324986e-05)
(0.006425067997 0.0002226738486 0.0005080868001)
(0.007826085613 -0.0005992843518 0.000542980438)
(0.008059099824 0.0007854906836 -0.0001584683131)
(0.0180266504 0.0006551595354 0.001147860461)
(0.01188499441 0.0009240884853 0.0008716663702)
(0.002114776221 5.806063348e-05 6.53133213e-06)
(0.007354360407 0.0001616850069 2.863788569e-05)
(0.01024912933 0.001241595497 0.0005373188403)
(0.009657246092 -0.0002272150014 8.176315944e-05)
(0.0130426843 0.0002480815323 0.0007316981529)
(0.005470896644 0.0009710739422 0.0002580928184)
(0.01087147035 -0.0006007828042 0.001118833924)
(0.00812763809 0.0008293414547 0.0003594519024)
(0.01591092835 0.0001501422567 -0.0006219837726)
(0.004807505187 0.0004625907375 0.0002367832365)
(0.00806023012 0.0003337913584 0.0002356941187)
(0.006254849262 -0.0002490727559 4.075071992e-05)
(0.005749250643 -0.0008660581635 -0.000652285851)
(0.008104936256 0.0003677930462 0.0008068562618)
(0.007016895414 0.0001787110096 -0.0001794696098)