/*--------------------------------*- C++ -*----------------------------------*\
| =========                 |                                                 |
| \\      /  F ield         | OpenFOAM: The Open Source CFD Toolbox           |
|  \\    /   O peration     | Version:  2406                                  |
|   \\  /    A nd           | Website:  www.openfoam.com                      |
|    \\/     M anipulation  |                                                 |
\*---------------------------------------------------------------------------*/
FoamFile
{
    version     2.0;
    format      ascii;
    arch        "LSB;label=32;scalar=64";
    class       volScalarField;
    location    "0.007";
    object      overallT;
}
// * * * * * * * * * * * * * * * * * * * * * * * * * * * * * * * * * * * * * //

dimensions      [1 2 -2 0 0 0 0];

internalField   nonuniform List<scalar> 
654
(
733.2675987
720.7775358
725.383797
727.340854
723.2045864
722.1820441
670.5454002
683.1787601
690.4951834
692.5000035
702.1994736
705.8399765
705.4884011
711.1677398
713.3057619
713.4711686
717.2031909
566.0933992
587.4598685
604.3460909
621.6396882
635.0801421
651.3018798
660.6910913
666.1637301
677.7534587
685.0545125
691.3419612
697.1422075
695.2946293
699.6232148
704.1380238
706.198867
413.1074082
430.7573227
447.2145388
473.471998
490.3600231
508.5321317
530.4935975
556.0556055
571.2429693
595.6191475
610.7073815
622.8762992
640.8439729
648.7527222
654.5836955
662.547357
671.689633
681.735016
686.2035907
689.970227
689.7038406
694.5756498
324.3789043
330.7610545
336.2983586
348.5542699
361.7935622
368.7451919
376.7351828
385.3676644
400.1269723
419.0093774
433.3280103
452.2437898
478.4371211
494.3421489
513.6988333
533.4239828
551.3025013
571.8192151
591.3759742
610.755663
627.8766849
636.884436
648.0181685
659.2323911
667.2926437
673.9776397
679.6787236
682.6658433
680.9003335
317.8281597
320.0598355
324.7619558
326.9492069
333.6331328
342.0889767
351.5427329
363.5827881
369.3363099
383.2871242
394.1405545
408.9585057
427.5443482
440.3437774
464.0757217
478.3733202
500.2591309
519.782321
539.1433042
559.3804735
575.2218239
595.3723515
609.4822963
626.0001035
644.2675854
645.4460601
654.5797007
661.9404276
662.8960048
671.9708362
313.2276006
313.1835828
320.1998985
324.6614784
329.3612031
332.1619032
335.777148
344.4252722
352.5126867
365.8917218
371.8011237
384.9748778
400.234995
415.206398
439.6426467
450.5256388
467.6555818
485.8436063
501.1769381
520.1728951
537.6122321
563.9289221
580.092511
600.5440364
615.8975032
626.7092368
639.8871417
644.5500354
649.3344881
653.416312
312.3667579
313.8590486
312.9839687
316.0507856
321.7049502
327.501619
330.7384574
333.1219945
342.4166921
348.7204091
358.3989594
366.3858921
370.3660878
381.9139607
402.2856075
418.0952452
438.0675951
460.97567
475.5485341
495.7658386
512.7738585
535.1722734
546.0568711
570.6311513
588.2803807
601.1832114
615.9335134
632.4881028
640.6501667
644.2181328
307.6989057
309.6609659
313.9459269
312.3308288
313.0051639
318.3567766
324.7726832
324.6244314
331.5060648
338.1216096
347.3781324
352.6070245
361.660005
368.6814517
381.9503733
397.5123367
411.0267704
431.6901736
446.7026407
469.2589195
482.8581974
510.1985346
525.5722194
536.6700403
562.6476827
581.4660868
594.9712424
609.093178
619.4519346
630.9874153
305.285187
306.5014169
307.0553299
309.0373295
313.3426781
314.9903013
319.0166391
322.5449691
326.2672886
330.8709868
338.4579462
343.5543967
344.8447897
355.7377512
363.6733117
373.1190648
385.4541626
401.5056576
420.5236674
431.0460345
451.2551247
468.8062538
496.2250272
508.3977474
525.3854464
548.8695542
566.4024904
584.0746997
598.9129192
608.3294128
305.8681353
306.332387
305.998239
308.8661854
308.973692
311.4123695
313.3170137
317.2407536
321.0821818
322.5069776
327.9690266
335.5530885
339.3598312
347.8354546
357.6423373
365.2313359
372.3034278
385.9602405
394.922793
412.0353413
424.2711159
439.2760726
458.6814454
476.4157279
493.4102669
513.0268135
535.2056122
552.1422525
573.1223634
584.2711895
301.4311866
301.3152113
303.4187294
306.1998059
308.3230132
311.0903761
311.7250332
315.2930193
316.5478988
317.5765768
321.5928641
328.0232761
331.502935
331.6104657
337.9469353
350.3668833
354.3376512
364.0085512
380.85267
393.104981
402.6123343
412.081104
435.2888079
449.9297802
465.187176
486.6221505
506.6006348
526.5239354
544.1619758
563.2206452
304.4659743
305.2491429
307.5156857
307.5490163
304.9844891
306.4166461
306.9222625
311.4355114
311.0129143
314.185936
315.2835535
317.1614462
319.8074587
325.5272519
332.0695123
342.5323524
347.4399079
352.4811252
361.0714666
368.0238667
384.3524742
394.002805
405.9520852
421.8364893
441.1654946
455.1294336
473.9186353
499.0009859
520.9417012
536.2701737
301.8090106
301.1015417
302.1017019
306.3885064
305.7301866
304.7193322
307.5606519
307.6987953
310.2582326
312.8588159
315.5025009
319.2919799
317.8253044
321.2884542
324.4912483
332.7512931
336.6417417
343.6622582
347.341563
359.2642135
361.0989319
374.4405121
388.912485
404.1771614
415.1562695
426.9562195
445.8387641
465.7266185
483.0785604
506.3896323
300.9217479
301.4308966
300.0960858
300.448085
302.1055655
304.2394889
307.4596711
307.9162925
308.456638
310.3401004
312.3433232
311.5252661
317.6767183
317.9052897
319.2098847
323.4151753
327.9200986
334.7592681
341.0969377
349.0443583
353.672489
363.3183928
372.1162649
388.4170323
396.0676723
407.3641137
423.4288851
445.0307223
461.7419479
481.4572846
300.9282628
300.1462592
301.0031948
301.7405183
304.2377435
303.3937042
303.3939853
303.3828994
304.8079205
306.7529727
309.5688921
311.4412291
311.9159036
311.5864896
317.1903704
320.916637
323.5464393
329.2454541
333.3117685
338.0376801
349.1477771
352.6276235
362.7949371
373.1895104
376.2490322
388.9550802
399.3925069
413.4660787
436.1118881
453.077522
303.8966454
304.1840482
304.6617897
303.2637315
301.2435418
302.6224683
303.5049733
303.7613067
304.6919292
304.7572264
305.3942193
306.3382168
310.2355972
309.5567894
311.9941905
315.3007037
319.7866641
321.0314459
324.5220003
327.4627353
331.7264006
336.4921812
343.3607542
352.9773381
360.9777862
372.2784204
383.1904899
399.5270312
407.9987374
427.2997318
302.4402374
303.5754687
302.8477552
303.3448167
303.3860314
302.3790426
303.2968887
303.8451864
302.0339889
303.3457192
303.740592
305.2259322
306.6705326
308.7509321
308.3048145
308.5755187
311.5406289
315.2186667
318.2130644
320.4474077
323.3379011
328.8976507
335.2788083
342.3906456
355.568713
357.6764645
367.5916317
376.8102564
387.3150921
402.3027867
298.9251764
298.4125015
299.2915588
301.7736745
303.0008534
301.4660726
302.8709408
304.7003912
304.0357508
303.3032055
303.5234958
303.1814982
305.1424462
306.1385853
308.5074317
308.0192138
308.9765295
313.1953838
315.4017311
317.6547242
319.9808035
323.817699
326.6541875
337.7823916
342.0366872
352.3018323
355.8521954
366.3686025
376.1849447
382.2097552
302.6356787
302.0779312
301.4437767
302.4823881
302.8404
303.764074
302.940745
301.4631314
302.2849472
301.2995663
303.7390604
303.1044451
304.0434842
303.6088727
306.2672936
307.9201717
310.498724
307.0468507
311.4399619
314.0291661
316.3503144
318.0121939
319.7657136
325.4015101
329.6591998
340.0033026
348.1277703
353.3097094
367.2436395
373.6506882
299.0894864
300.0724989
298.8087018
298.4622972
297.9088688
297.7387655
298.6976113
300.0783552
302.5156113
303.1535156
302.3750669
302.0719315
301.0603204
302.3172663
304.2381838
303.7917058
306.0483744
307.2472834
306.7896555
309.2942816
312.772442
315.2995724
317.2350457
319.2371197
321.8707712
326.7126607
330.3488071
341.7405756
345.6315412
357.9173888
299.5909269
300.1806517
299.3575482
298.5167164
300.2429158
299.6107504
300.8769057
301.9080828
300.5293478
301.2753694
301.8119944
304.7445693
305.1411828
304.0998431
303.7031478
304.0092257
304.8691073
305.6724783
305.5600556
307.503771
309.1269028
314.1013796
314.2145215
319.4793556
319.8239799
326.5354389
331.6478899
335.6046254
341.6241331
349.9933854
300.9861287
301.7806131
301.0720532
300.9241689
302.2670524
302.3431486
299.5745383
299.156726
299.7074824
298.9726216
299.7406207
301.0505737
301.2121305
301.7835056
304.1788424
303.1942597
303.4851753
305.7331023
306.5669524
307.8358132
310.1784731
309.2525351
311.9367238
312.6339243
315.7369384
318.4652154
322.6450527
326.2795159
333.8555605
338.0757824
298.4749828
299.5769311
301.7392475
301.0817262
300.7428462
299.3857348
300.6121183
301.017454
300.8458378
300.7493416
300.4311771
300.7887061
301.1824428
299.7107692
300.4455874
303.337843
302.5756364
304.0890446
301.7580857
302.5200287
304.0318545
307.6797669
309.8596459
309.0294659
312.1183229
310.4357048
314.1641329
321.2442539
321.98648
331.0945543
)
;

boundaryField
{
    flow
    {
        type            calculated;
        value           nonuniform List<scalar> 
55
(
733.2675987
722.1820441
717.2031909
706.198867
694.5756498
680.9003335
671.9708362
653.416312
644.2181328
630.9874153
608.3294128
584.2711895
563.2206452
536.2701737
506.3896323
481.4572846
453.077522
427.2997318
402.3027867
382.2097552
373.6506882
357.9173888
349.9933854
338.0757824
331.0945543
298.4749828
299.5769311
301.7392475
301.0817262
300.7428462
299.3857348
300.6121183
301.017454
300.8458378
300.7493416
300.4311771
300.7887061
301.1824428
299.7107692
300.4455874
303.337843
302.5756364
304.0890446
301.7580857
302.5200287
304.0318545
307.6797669
309.8596459
309.0294659
312.1183229
310.4357048
314.1641329
321.2442539
321.98648
331.0945543
)
;
    }
    obstacle
    {
        type            calculated;
        value           nonuniform List<scalar> 0();
    }
    frontAndBack
    {
        type            empty;
    }
    procBoundary3to1
    {
        type            processor;
        value           nonuniform List<scalar> 
36
(
742.2583887
735.4639007
733.5394853
739.4479909
736.3238296
736.3238296
690.3930932
691.3638991
702.344703
707.677898
715.2846771
714.7702105
714.7702105
603.5578012
617.907198
636.4333092
652.1631802
661.5336333
661.5336333
449.0253916
460.4212851
488.518189
508.3212672
523.9620221
544.3894953
544.3894953
338.8037186
342.1139276
349.9200941
367.2177563
381.7203854
385.4563533
394.5577855
394.5577855
325.4000536
325.4000536
)
;
    }
    procBoundary3to2
    {
        type            processor;
        value           nonuniform List<scalar> 
19
(
313.278358
307.8788667
309.3160112
304.4112635
301.5789525
304.7764033
299.7197906
302.2308603
301.767118
301.033516
300.5677666
302.3841194
302.9297014
299.5029506
300.6559121
299.2672315
299.1024571
300.6360274
298.1014087
)
;
    }
}


// ************************************************************************* //
