/*--------------------------------*- C++ -*----------------------------------*\
| =========                 |                                                 |
| \\      /  F ield         | OpenFOAM: The Open Source CFD Toolbox           |
|  \\    /   O peration     | Version:  2406                                  |
|   \\  /    A nd           | Website:  www.openfoam.com                      |
|    \\/     M anipulation  |                                                 |
\*---------------------------------------------------------------------------*/
FoamFile
{
    version     2.0;
    format      ascii;
    arch        "LSB;label=32;scalar=64";
    class       volScalarField;
    location    "0.007";
    object      p;
}
// * * * * * * * * * * * * * * * * * * * * * * * * * * * * * * * * * * * * * //

dimensions      [1 -1 -2 0 0 0 0];

internalField   nonuniform List<scalar> 
654
(
2.509827381
2.570784651
2.606632136
2.574421222
2.53757529
2.535784102
2.060473082
2.176010063
2.26278757
2.325119009
2.428862842
2.498349511
2.492296532
2.52893556
2.564540967
2.540923795
2.527229889
1.289163742
1.419948217
1.515537472
1.630900822
1.736706375
1.87914896
1.976800293
2.065691144
2.176717995
2.268944166
2.351108815
2.424426325
2.435038005
2.478017605
2.506813875
2.496349132
0.7050060193
0.7569302623
0.8019391557
0.8952650729
0.9533707444
1.026401756
1.10841547
1.227328396
1.327673239
1.451246879
1.562996172
1.68200831
1.812244046
1.893672038
1.98124495
2.076955027
2.178889912
2.288418926
2.365430926
2.41331101
2.428658035
2.474767981
0.4712268717
0.484244483
0.495246118
0.5267004258
0.5668889199
0.5859776703
0.6090333056
0.6255803398
0.6738992098
0.7288956028
0.7789786207
0.833661997
0.9172423486
0.9818446541
1.063476654
1.157988015
1.255848821
1.351581514
1.466911339
1.608094809
1.738678477
1.82168879
1.93135276
2.059161631
2.161124434
2.244254176
2.308555617
2.359508991
2.385806665
0.4604536637
0.4664387723
0.4821072524
0.4922601527
0.5056406938
0.5185106075
0.5409788113
0.5702196974
0.5848546285
0.6186088041
0.6522363336
0.700693684
0.7550712933
0.8052327352
0.8786928724
0.9388194293
1.011740637
1.099018778
1.192291263
1.282865946
1.391062561
1.524142017
1.63795892
1.747100796
1.883835313
1.975514055
2.065104234
2.159289668
2.197185938
2.278271129
0.4482294202
0.445893191
0.459866407
0.4699093444
0.4863043756
0.4944722408
0.5050681559
0.5266275042
0.5484782343
0.5857733303
0.6057048597
0.6385831851
0.6793830963
0.7271046172
0.7982921328
0.834366856
0.8919194439
0.9568782148
1.033195823
1.125003236
1.188320671
1.322215844
1.432272432
1.56649989
1.696737372
1.784189641
1.918480749
2.017171219
2.108341168
2.152756871
0.4451156689
0.4527041753
0.4498305566
0.4558171749
0.4693764254
0.4787384683
0.4842664433
0.4898229329
0.5149650282
0.5341857619
0.5535048232
0.5839254642
0.598518138
0.6296596507
0.6955228925
0.7381810533
0.7998392422
0.8723609302
0.9133108318
0.9910938268
1.085913044
1.182373826
1.239273334
1.382194232
1.496364928
1.593611243
1.707945836
1.82490257
1.939084517
2.014399458
0.4371058405
0.4394652243
0.4509838989
0.4463889491
0.4466670149
0.4580985942
0.4748862751
0.479240394
0.4938537069
0.5102518836
0.5301244137
0.5439300105
0.5658401085
0.5790457559
0.6158593938
0.6641751089
0.703363241
0.7640416798
0.8247457689
0.9006878823
0.954715239
1.066431179
1.136301508
1.197166288
1.322340123
1.448802311
1.559369214
1.675686955
1.77575461
1.898746418
0.4253132137
0.4270752949
0.4293617446
0.4337158023
0.4480143323
0.4551730631
0.4659338532
0.4713261541
0.4806803708
0.4844076013
0.5072263535
0.5181758184
0.5212311576
0.5502688696
0.5719564839
0.5940751285
0.6321236484
0.6867833074
0.7448455841
0.77993749
0.8492930787
0.9188539616
1.029532337
1.085174898
1.177152391
1.292038319
1.393135306
1.500827468
1.601215319
1.689093141
0.4276201079
0.4291685114
0.4326591909
0.4378749347
0.4399285844
0.4467278765
0.4471636639
0.4536523516
0.4645752003
0.4699854252
0.479060054
0.4938511348
0.5051925647
0.5297893008
0.5525648259
0.5704774863
0.5892384207
0.6275951196
0.656129856
0.713665613
0.7541191227
0.8092253249
0.8843109284
0.961795793
1.028962784
1.120809783
1.23083402
1.324231845
1.451846043
1.559470484
0.4281920722
0.4235667551
0.421712363
0.4287281873
0.4297502766
0.436289869
0.4385497323
0.4481792058
0.4502604416
0.4503821445
0.4655861817
0.484381828
0.4901848292
0.4892613509
0.5070930982
0.5439740074
0.5565622131
0.5802102067
0.6271113441
0.6537474103
0.6905019545
0.7236735898
0.7888693105
0.8391405307
0.8993919677
0.9872445416
1.079824318
1.182089776
1.293434969
1.415962963
0.4184415139
0.4237016049
0.4267257002
0.4275941899
0.4209470076
0.4252206806
0.4263409009
0.4324018645
0.4356565305
0.443949432
0.4470059751
0.4490452477
0.4630566625
0.4770881882
0.4930261518
0.520018957
0.5363329335
0.5497011875
0.5697299479
0.5959647391
0.6392794427
0.6668050347
0.7073183529
0.755964883
0.8190164229
0.8716944667
0.9430420451
1.056812535
1.14805436
1.240643044
0.4118040353
0.4096606177
0.4149390869
0.4221557026
0.4220160624
0.4213725592
0.4308962051
0.4295823119
0.4358260332
0.4451779137
0.4473444763
0.4576259755
0.4511137269
0.4645696835
0.4753962199
0.4952673094
0.5054732453
0.525807782
0.5354805854
0.5674975525
0.5703968213
0.6102516558
0.6528930828
0.701671332
0.7409943144
0.7848421323
0.8518776953
0.9214719437
1.003957957
1.106746876
0.4109955041
0.4103901029
0.4105490816
0.4126862058
0.4153976264
0.422028471
0.431006871
0.4347202421
0.4356008121
0.4378910596
0.4449541302
0.4476298307
0.45961608
0.4599728359
0.4587510638
0.4732874154
0.4796894621
0.4916468669
0.5074860838
0.5263682091
0.5385917933
0.5709647089
0.5929428259
0.6360686609
0.6685050152
0.7095382092
0.7656975715
0.841386632
0.8897479755
0.9682068429
0.4188632984
0.417383977
0.4164119118
0.4167294288
0.4222736911
0.4227479681
0.4218017516
0.4255220769
0.4282465423
0.4337233422
0.4374781377
0.4400553434
0.4431717975
0.4423039287
0.4552451118
0.4619306021
0.4659206053
0.481103749
0.4895493156
0.5052154948
0.5299315785
0.5425779387
0.5737173425
0.6034359457
0.6046476144
0.6385074275
0.6727955233
0.7181777678
0.804731401
0.8715300859
0.4251110538
0.4266467995
0.4294614121
0.4212109212
0.4178219394
0.4168134545
0.4158216022
0.4144735966
0.4173617233
0.4198573752
0.4257309978
0.4281190659
0.4377537083
0.4355364292
0.4397688129
0.4483482279
0.4623727404
0.4670477862
0.4806508166
0.488646497
0.5033316185
0.5120386515
0.5225268223
0.5499311837
0.5724516988
0.5963622039
0.6289024542
0.6786475769
0.7035009655
0.7712100583
0.4193595554
0.4205597621
0.4220693072
0.4247996856
0.4214531271
0.4216051885
0.4237820466
0.4285901951
0.4207707921
0.4208897037
0.4194590397
0.4222778122
0.4274271916
0.4345380509
0.4382153298
0.4381794912
0.4479956562
0.4570499145
0.4624982711
0.4617879204
0.4712884884
0.4853751629
0.5032678169
0.5227219742
0.5603777271
0.5718337754
0.6058731093
0.6266049281
0.6519891433
0.6995434596
0.4084312474
0.4029392353
0.4064353734
0.412946081
0.4192896689
0.4185829262
0.4161735137
0.4209484868
0.4201566793
0.4153936097
0.421978577
0.4259191711
0.4290330724
0.4292784439
0.4333840643
0.4337936379
0.4356253149
0.4452734498
0.4466670005
0.4551851076
0.460995327
0.4749649243
0.4799394603
0.5086055752
0.5206708379
0.5423304687
0.5529926166
0.5851740304
0.6198669181
0.6341273334
0.4179907274
0.4142500942
0.4158180251
0.4161395479
0.4174044799
0.4165104098
0.4158790731
0.411095855
0.4181354169
0.4167378809
0.4221709126
0.4158242586
0.4144065574
0.41913601
0.4274903947
0.4343672032
0.4404497364
0.4322600642
0.4450152861
0.451270721
0.4538285499
0.4581954241
0.4606576898
0.4775712811
0.4891841412
0.5220935118
0.5363363278
0.5463808103
0.5851635614
0.6035464611
0.4151744649
0.417913082
0.4132033146
0.412703546
0.4119249612
0.412003663
0.4189706613
0.4229827036
0.4255426919
0.4271998018
0.4241804089
0.4261184683
0.4249824118
0.4257150492
0.4289559069
0.4279009547
0.4310149124
0.4327971953
0.4338408409
0.4365088249
0.4454121525
0.4570779646
0.4686108896
0.4713294931
0.4723908906
0.4886190041
0.5063983527
0.5406108936
0.5521228086
0.5867683251
0.4212809006
0.4206319355
0.421659939
0.422870457
0.4245141558
0.4200899286
0.4174002543
0.4182294629
0.4171747421
0.4183182252
0.4156420005
0.4235406395
0.4277898442
0.4248938992
0.4257786929
0.4276123441
0.4328214352
0.4321679022
0.4281134832
0.4380783832
0.4397012867
0.444084261
0.4446113245
0.456242175
0.4614522162
0.4791511878
0.4888989462
0.4994790188
0.5161901291
0.5355191818
0.4163210097
0.4168700294
0.4155156811
0.4162257106
0.4198339044
0.4229793937
0.4197865364
0.4168330527
0.4189985028
0.4174960699
0.4170932532
0.4211091444
0.4228520869
0.425874175
0.4266371783
0.4243952924
0.4237433368
0.4321399164
0.4341879178
0.4311146244
0.439260265
0.4348049655
0.4428214202
0.4450903215
0.4538725732
0.4557604604
0.4709931644
0.4811567341
0.5029511922
0.5196174188
0.4000239653
0.4064896906
0.4108173991
0.4090114322
0.40725452
0.4054192924
0.4087978792
0.410321899
0.4099864769
0.4115429564
0.4152347353
0.4111149663
0.4109960432
0.4080535258
0.4102066753
0.4194912749
0.41414349
0.4154165616
0.4083588927
0.4121779142
0.4189285157
0.4349979411
0.4332586492
0.4337830309
0.4364755725
0.4333277217
0.4392371708
0.4578327782
0.4614937689
0.4848999606
)
;

boundaryField
{
    flow
    {
        type            calculated;
        value           nonuniform List<scalar> 
55
(
2.509827381
2.535784102
2.527229889
2.496349132
2.474767981
2.385806665
2.278271129
2.152756871
2.014399458
1.898746418
1.689093141
1.559470484
1.415962963
1.240643044
1.106746876
0.9682068429
0.8715300859
0.7712100583
0.6995434596
0.6341273334
0.6035464611
0.5867683251
0.5355191818
0.5196174188
0.4848999606
0.4000239653
0.4064896906
0.4108173991
0.4090114322
0.40725452
0.4054192924
0.4087978792
0.410321899
0.4099864769
0.4115429564
0.4152347353
0.4111149663
0.4109960432
0.4080535258
0.4102066753
0.4194912749
0.41414349
0.4154165616
0.4083588927
0.4121779142
0.4189285157
0.4349979411
0.4332586492
0.4337830309
0.4364755725
0.4333277217
0.4392371708
0.4578327782
0.4614937689
0.4848999606
)
;
    }
    obstacle
    {
        type            calculated;
        value           nonuniform List<scalar> 0();
    }
    frontAndBack
    {
        type            empty;
    }
    procBoundary3to1
    {
        type            processor;
        value           nonuniform List<scalar> 
36
(
2.490066972
2.616927208
2.594423077
2.596793326
2.554374417
2.554374417
2.217504401
2.294709545
2.428140337
2.465778322
2.55003663
2.533721597
2.533721597
1.495363702
1.596554582
1.713437934
1.83803551
1.941826294
1.941826294
0.7964036723
0.838870316
0.9506416649
1.020634082
1.086444705
1.176642437
1.176642437
0.4988924123
0.5088861873
0.5268725131
0.5708689438
0.603958611
0.6194865193
0.6525649548
0.6525649548
0.4703252864
0.4703252864
)
;
    }
    procBoundary3to2
    {
        type            processor;
        value           nonuniform List<scalar> 
19
(
0.4511502046
0.4332961414
0.4388688623
0.4299813148
0.4195213134
0.4251473161
0.4205112975
0.4174379914
0.412040531
0.4123653716
0.416878918
0.4234612602
0.4171954073
0.4089851039
0.4094115632
0.4175488
0.4157404894
0.4183236078
0.402144406
)
;
    }
}


// ************************************************************************* //
