/*--------------------------------*- C++ -*----------------------------------*\
| =========                 |                                                 |
| \\      /  F ield         | OpenFOAM: The Open Source CFD Toolbox           |
|  \\    /   O peration     | Version:  2406                                  |
|   \\  /    A nd           | Website:  www.openfoam.com                      |
|    \\/     M anipulation  |                                                 |
\*---------------------------------------------------------------------------*/
FoamFile
{
    version     2.0;
    format      ascii;
    arch        "LSB;label=32;scalar=64";
    class       volScalarField;
    location    "0.007";
    object      rhoMMean;
}
// * * * * * * * * * * * * * * * * * * * * * * * * * * * * * * * * * * * * * //

dimensions      [1 -3 0 0 0 0 0];

internalField   nonuniform List<scalar> 
654
(
1.155757539e-05
1.161130379e-05
1.181387183e-05
1.177318303e-05
1.17644517e-05
1.185423473e-05
9.442516792e-06
9.86602177e-06
1.023330058e-05
1.062511597e-05
1.10043507e-05
1.136428938e-05
1.14586488e-05
1.156438135e-05
1.179410354e-05
1.179147798e-05
1.179024164e-05
6.803995145e-06
7.185652769e-06
7.522667828e-06
7.865859168e-06
8.293429927e-06
8.798564917e-06
9.201125431e-06
9.595619439e-06
1.003085153e-05
1.040844901e-05
1.078095654e-05
1.112665707e-05
1.129598125e-05
1.148739875e-05
1.162785632e-05
1.16153632e-05
5.334684627e-06
5.435599276e-06
5.514991356e-06
5.699537711e-06
5.857983277e-06
6.065840412e-06
6.256554968e-06
6.583136519e-06
6.930315233e-06
7.28181509e-06
7.699977574e-06
8.092462659e-06
8.559774274e-06
8.943545618e-06
9.350321796e-06
9.786174001e-06
1.017525317e-05
1.058673572e-05
1.098691757e-05
1.123388648e-05
1.137736006e-05
1.16404663e-05
4.871964573e-06
4.896445295e-06
4.893722898e-06
4.947230617e-06
5.050100407e-06
5.099106529e-06
5.160788659e-06
5.210175815e-06
5.310531082e-06
5.417911389e-06
5.543137902e-06
5.672403815e-06
5.845084091e-06
6.058572204e-06
6.257926709e-06
6.513527121e-06
6.833538481e-06
7.121448491e-06
7.489671006e-06
7.939870341e-06
8.383538578e-06
8.752809976e-06
9.187566789e-06
9.66630208e-06
1.010701257e-05
1.051884948e-05
1.082798323e-05
1.11362313e-05
1.136004345e-05
4.894934298e-06
4.910398911e-06
4.958096021e-06
4.999503006e-06
5.008174267e-06
4.996605004e-06
5.02914632e-06
5.080263344e-06
5.131038654e-06
5.183956515e-06
5.239358154e-06
5.364683094e-06
5.480390991e-06
5.633436234e-06
5.775134846e-06
5.9733164e-06
6.14321842e-06
6.366829933e-06
6.648117215e-06
6.920952092e-06
7.296306131e-06
7.703353072e-06
8.168537736e-06
8.540201225e-06
8.989714354e-06
9.480638184e-06
9.831233225e-06
1.025452861e-05
1.05507763e-05
1.086931948e-05
4.862586086e-06
4.846531972e-06
4.858736647e-06
4.872362824e-06
4.914068382e-06
4.939193971e-06
4.980738371e-06
5.027679839e-06
5.059564905e-06
5.173467436e-06
5.233734359e-06
5.256041578e-06
5.331467157e-06
5.450781502e-06
5.578880719e-06
5.687872186e-06
5.812517298e-06
5.952645561e-06
6.209952585e-06
6.471715816e-06
6.666294605e-06
7.060621257e-06
7.48132791e-06
7.929337147e-06
8.389236563e-06
8.728473632e-06
9.249331991e-06
9.716802825e-06
1.018091699e-05
1.0489918e-05
4.872135015e-06
4.906713025e-06
4.904631796e-06
4.91595122e-06
4.955285373e-06
4.92752638e-06
4.913624718e-06
4.92762374e-06
4.951925804e-06
4.972105191e-06
4.995286872e-06
5.111912552e-06
5.181300575e-06
5.235909317e-06
5.371725764e-06
5.474964473e-06
5.622228547e-06
5.802354401e-06
5.877494911e-06
6.073802536e-06
6.371276803e-06
6.621866356e-06
6.833753535e-06
7.278169718e-06
7.686432789e-06
8.056724005e-06
8.477574564e-06
8.89010885e-06
9.35981885e-06
9.765183363e-06
4.867249133e-06
4.86585575e-06
4.892587998e-06
4.88621467e-06
4.860150101e-06
4.871350537e-06
4.913505511e-06
4.946468359e-06
4.955342397e-06
4.984406524e-06
4.990724852e-06
5.042109905e-06
5.083357402e-06
5.103096086e-06
5.173066871e-06
5.289472939e-06
5.369870118e-06
5.490008062e-06
5.67270718e-06
5.849719704e-06
6.010622955e-06
6.280482452e-06
6.489399156e-06
6.691664574e-06
7.044069258e-06
7.49260395e-06
7.895898932e-06
8.325219543e-06
8.782549588e-06
9.271139579e-06
4.771079289e-06
4.778429549e-06
4.781035163e-06
4.788686051e-06
4.841080241e-06
4.861030122e-06
4.892529321e-06
4.907823309e-06
4.931539681e-06
4.911301491e-06
4.976703544e-06
4.973042523e-06
4.972281967e-06
5.030216084e-06
5.078114869e-06
5.111102852e-06
5.210791938e-06
5.359089262e-06
5.496742333e-06
5.582087337e-06
5.760958736e-06
5.955561075e-06
6.256053554e-06
6.469895908e-06
6.75652969e-06
7.098238732e-06
7.452135999e-06
7.801527668e-06
8.141295425e-06
8.512480288e-06
4.797531202e-06
4.80354056e-06
4.840351043e-06
4.842082666e-06
4.848464427e-06
4.853164781e-06
4.838598866e-06
4.844661386e-06
4.890909908e-06
4.911907439e-06
4.892577799e-06
4.891359722e-06
4.945096667e-06
4.989699863e-06
4.995538949e-06
5.009510454e-06
5.037653739e-06
5.148510315e-06
5.233765009e-06
5.383784596e-06
5.531174544e-06
5.69686054e-06
5.872877575e-06
6.132535808e-06
6.344006256e-06
6.610279231e-06
6.926154134e-06
7.255084325e-06
7.676667824e-06
8.143913608e-06
4.883853588e-06
4.856244097e-06
4.817619549e-06
4.818159174e-06
4.813375653e-06
4.831264227e-06
4.827249859e-06
4.830173028e-06
4.818035897e-06
4.805224685e-06
4.866979705e-06
4.918697551e-06
4.911827314e-06
4.898069318e-06
4.956552707e-06
5.061279702e-06
5.102986561e-06
5.119619147e-06
5.235989328e-06
5.273519213e-06
5.400782491e-06
5.486640425e-06
5.599783061e-06
5.735794844e-06
5.922046043e-06
6.170237126e-06
6.462143465e-06
6.805206209e-06
7.194471439e-06
7.590576631e-06
4.754893357e-06
4.79808341e-06
4.792210802e-06
4.782902097e-06
4.744264595e-06
4.762915028e-06
4.75042669e-06
4.751962747e-06
4.758456114e-06
4.795300518e-06
4.807064819e-06
4.788135987e-06
4.870935428e-06
4.910029215e-06
4.945404302e-06
5.002677786e-06
5.066376927e-06
5.107777603e-06
5.127024335e-06
5.210231558e-06
5.270799021e-06
5.343611049e-06
5.43188625e-06
5.551616631e-06
5.716163937e-06
5.883607957e-06
6.077592716e-06
6.395629985e-06
6.661673547e-06
6.987938416e-06
4.73167129e-06
4.721531312e-06
4.739954398e-06
4.741478582e-06
4.768447219e-06
4.754080704e-06
4.795433933e-06
4.780540683e-06
4.792194242e-06
4.83355434e-06
4.824417471e-06
4.846187168e-06
4.829586773e-06
4.892805053e-06
4.952935995e-06
4.970214102e-06
4.98419158e-06
5.030471688e-06
5.026327057e-06
5.109279339e-06
5.118859035e-06
5.214832867e-06
5.341861353e-06
5.458786525e-06
5.585145698e-06
5.736862897e-06
5.903397402e-06
6.071940081e-06
6.318321857e-06
6.601231622e-06
4.753144923e-06
4.732086396e-06
4.741191072e-06
4.768166077e-06
4.755842534e-06
4.801287257e-06
4.832327914e-06
4.850616971e-06
4.838003066e-06
4.837518699e-06
4.844004746e-06
4.88993814e-06
4.876900688e-06
4.876343385e-06
4.841090491e-06
4.894500924e-06
4.888910993e-06
4.887508802e-06
4.931209004e-06
4.969594871e-06
4.984021166e-06
5.072886642e-06
5.112046797e-06
5.189447599e-06
5.322686589e-06
5.454198978e-06
5.606230883e-06
5.814567626e-06
5.933517216e-06
6.155214214e-06
4.80547655e-06
4.801720228e-06
4.795954556e-06
4.79529107e-06
4.801990037e-06
4.819291505e-06
4.798344271e-06
4.838432145e-06
4.861178951e-06
4.860017147e-06
4.834931683e-06
4.834678469e-06
4.840554301e-06
4.83190695e-06
4.839236516e-06
4.835555441e-06
4.822263449e-06
4.868159512e-06
4.886160348e-06
4.937071545e-06
4.982346502e-06
5.05319348e-06
5.11321281e-06
5.187526967e-06
5.180533181e-06
5.238670517e-06
5.333276506e-06
5.461118146e-06
5.712547546e-06
5.908772834e-06
4.823188343e-06
4.866819072e-06
4.885459082e-06
4.830330692e-06
4.806489349e-06
4.774562726e-06
4.747539581e-06
4.738406893e-06
4.730350107e-06
4.754588424e-06
4.774543289e-06
4.76750441e-06
4.792793557e-06
4.807484768e-06
4.824570793e-06
4.856574752e-06
4.904145462e-06
4.930684663e-06
4.989906903e-06
5.001433435e-06
5.049002574e-06
5.047632285e-06
5.024583843e-06
5.061657621e-06
5.126598569e-06
5.137160712e-06
5.22967655e-06
5.346955805e-06
5.406827411e-06
5.611140885e-06
4.824478898e-06
4.804411641e-06
4.821052422e-06
4.840248389e-06
4.835613014e-06
4.863632015e-06
4.864307394e-06
4.881249775e-06
4.830566607e-06
4.810834649e-06
4.793669436e-06
4.812851018e-06
4.81166943e-06
4.82994472e-06
4.84377866e-06
4.839620335e-06
4.862778949e-06
4.882933432e-06
4.877540076e-06
4.876293671e-06
4.908066307e-06
4.908969088e-06
4.989737657e-06
5.032192041e-06
5.138503692e-06
5.189151647e-06
5.278794214e-06
5.302967152e-06
5.356318308e-06
5.464953336e-06
4.778260381e-06
4.734110088e-06
4.756491397e-06
4.775354349e-06
4.789092395e-06
4.791921914e-06
4.765032397e-06
4.791677496e-06
4.805019574e-06
4.779851244e-06
4.818301588e-06
4.850651598e-06
4.867711239e-06
4.832096255e-06
4.845164759e-06
4.845148532e-06
4.812290952e-06
4.83961567e-06
4.825154176e-06
4.860306235e-06
4.894046019e-06
4.941003952e-06
4.928320306e-06
4.995655793e-06
5.033986866e-06
5.02675234e-06
5.064934711e-06
5.161564046e-06
5.274876683e-06
5.295371318e-06
4.803861827e-06
4.77826122e-06
4.806698682e-06
4.779189632e-06
4.79177848e-06
4.787177882e-06
4.802969903e-06
4.780864785e-06
4.812295751e-06
4.801380655e-06
4.827738153e-06
4.778404712e-06
4.755170213e-06
4.798799765e-06
4.810685869e-06
4.850730379e-06
4.889997243e-06
4.861729034e-06
4.891311192e-06
4.913603662e-06
4.883225417e-06
4.885932398e-06
4.870704492e-06
4.90911891e-06
4.947822406e-06
5.044342621e-06
5.036844868e-06
5.065507767e-06
5.144489876e-06
5.219270627e-06
4.801478893e-06
4.817762452e-06
4.78921705e-06
4.798492207e-06
4.808367456e-06
4.819324373e-06
4.868272593e-06
4.893660023e-06
4.885495675e-06
4.898699761e-06
4.878430438e-06
4.883313714e-06
4.909715131e-06
4.880830908e-06
4.866518839e-06
4.862762314e-06
4.848204997e-06
4.830680099e-06
4.839467711e-06
4.828890952e-06
4.871952582e-06
4.950036099e-06
5.000380537e-06
5.002724268e-06
4.9676896e-06
5.018198321e-06
5.089584508e-06
5.183937432e-06
5.239790508e-06
5.303763364e-06
4.870820097e-06
4.864262805e-06
4.889828261e-06
4.903372741e-06
4.884227703e-06
4.858682322e-06
4.821701517e-06
4.800119102e-06
4.812683756e-06
4.810482197e-06
4.790612896e-06
4.811581802e-06
4.812418316e-06
4.815105426e-06
4.81909175e-06
4.830017988e-06
4.85488183e-06
4.861929365e-06
4.853828867e-06
4.865813631e-06
4.84302917e-06
4.83244925e-06
4.844328223e-06
4.868163395e-06
4.909844248e-06
4.969308571e-06
4.978932666e-06
4.978873172e-06
4.992570452e-06
5.036420769e-06
4.814174465e-06
4.803224777e-06
4.795952115e-06
4.800603776e-06
4.811128818e-06
4.832134012e-06
4.838115706e-06
4.806367162e-06
4.826341178e-06
4.828067144e-06
4.819193906e-06
4.853581738e-06
4.869840422e-06
4.892276104e-06
4.858838261e-06
4.854377196e-06
4.846357768e-06
4.88906748e-06
4.88793425e-06
4.875339783e-06
4.877676312e-06
4.827696585e-06
4.86638234e-06
4.865862419e-06
4.886616179e-06
4.855434095e-06
4.927247131e-06
4.961098418e-06
5.030608763e-06
5.07170497e-06
4.673903894e-06
4.706918602e-06
4.712143212e-06
4.721841208e-06
4.724316924e-06
4.704091814e-06
4.725303974e-06
4.745613377e-06
4.735866411e-06
4.75096495e-06
4.770100337e-06
4.718289707e-06
4.693536749e-06
4.702788142e-06
4.724595488e-06
4.773498597e-06
4.749999802e-06
4.718239765e-06
4.701164135e-06
4.733087081e-06
4.775282843e-06
4.8323777e-06
4.791846488e-06
4.807050918e-06
4.774973844e-06
4.791058117e-06
4.794708197e-06
4.827155451e-06
4.832251326e-06
4.906703503e-06
)
;

boundaryField
{
    flow
    {
        type            calculated;
        value           nonuniform List<scalar> 
55
(
1.155757539e-05
1.185423473e-05
1.179024164e-05
1.16153632e-05
1.16404663e-05
1.136004345e-05
1.086931948e-05
1.0489918e-05
9.765183363e-06
9.271139579e-06
8.512480288e-06
8.143913608e-06
7.590576631e-06
6.987938416e-06
6.601231622e-06
6.155214214e-06
5.908772834e-06
5.611140885e-06
5.464953336e-06
5.295371318e-06
5.219270627e-06
5.303763364e-06
5.036420769e-06
5.07170497e-06
4.906703503e-06
4.673903894e-06
4.706918602e-06
4.712143212e-06
4.721841208e-06
4.724316924e-06
4.704091814e-06
4.725303974e-06
4.745613377e-06
4.735866411e-06
4.75096495e-06
4.770100337e-06
4.718289707e-06
4.693536749e-06
4.702788142e-06
4.724595488e-06
4.773498597e-06
4.749999802e-06
4.718239765e-06
4.701164135e-06
4.733087081e-06
4.775282843e-06
4.8323777e-06
4.791846488e-06
4.807050918e-06
4.774973844e-06
4.791058117e-06
4.794708197e-06
4.827155451e-06
4.832251326e-06
4.906703503e-06
)
;
    }
    obstacle
    {
        type            calculated;
        value           nonuniform List<scalar> 0();
    }
    frontAndBack
    {
        type            empty;
    }
    procBoundary3to1
    {
        type            processor;
        value           nonuniform List<scalar> 
36
(
1.141041273e-05
1.180062899e-05
1.181019012e-05
1.176946906e-05
1.168124947e-05
1.168124947e-05
1.000414018e-05
1.040430153e-05
1.091002315e-05
1.116127427e-05
1.143027873e-05
1.148077728e-05
1.148077728e-05
7.362601675e-06
7.69029135e-06
8.078847175e-06
8.544704471e-06
8.961716458e-06
8.961716458e-06
5.471512935e-06
5.585792191e-06
5.855733792e-06
6.032355405e-06
6.212546004e-06
6.47633533e-06
6.47633533e-06
4.908437787e-06
4.927495603e-06
4.965570291e-06
5.029729348e-06
5.052867676e-06
5.127354328e-06
5.245719842e-06
5.245719842e-06
4.840600512e-06
4.840600512e-06
)
;
    }
    procBoundary3to2
    {
        type            processor;
        value           nonuniform List<scalar> 
19
(
4.886763638e-06
4.834347401e-06
4.892787598e-06
4.849536851e-06
4.783009192e-06
4.817477882e-06
4.846762377e-06
4.770647892e-06
4.736001864e-06
4.771594649e-06
4.787987195e-06
4.829835428e-06
4.814403066e-06
4.772009041e-06
4.765353489e-06
4.84090503e-06
4.820739707e-06
4.828065419e-06
4.694420306e-06
)
;
    }
}


// ************************************************************************* //
