/*--------------------------------*- C++ -*----------------------------------*\
| =========                 |                                                 |
| \\      /  F ield         | OpenFOAM: The Open Source CFD Toolbox           |
|  \\    /   O peration     | Version:  2406                                  |
|   \\  /    A nd           | Website:  www.openfoam.com                      |
|    \\/     M anipulation  |                                                 |
\*---------------------------------------------------------------------------*/
FoamFile
{
    version     2.0;
    format      ascii;
    arch        "LSB;label=32;scalar=64";
    class       volScalarField;
    location    "0.007";
    object      rhoM;
}
// * * * * * * * * * * * * * * * * * * * * * * * * * * * * * * * * * * * * * //

dimensions      [1 -3 0 0 0 0 0];

internalField   nonuniform List<scalar> 
654
(
1.286823583e-05
1.176770132e-05
1.251865412e-05
1.133249172e-05
1.565496152e-05
1.419300759e-05
6.75204634e-06
8.2064298e-06
1.268064217e-05
1.296852148e-05
8.512784376e-06
9.221428418e-06
1.377444257e-05
7.547001169e-06
6.687954539e-06
8.625033885e-06
1.523259753e-05
9.049467183e-06
9.543151253e-06
9.706514461e-06
6.127970373e-06
9.870432763e-06
1.25509455e-05
9.515809864e-06
1.100673579e-05
9.593592554e-06
1.030551757e-05
9.944464195e-06
1.158586945e-05
1.122987132e-05
1.003193181e-05
8.062188115e-06
1.211154892e-05
3.957428039e-06
6.780614014e-06
5.305974966e-06
5.105971981e-06
9.557320837e-06
7.658951491e-06
6.559045015e-06
3.68296781e-06
8.440624222e-06
1.395861033e-05
5.578850366e-06
5.712628413e-06
1.388111108e-05
1.083120508e-05
1.296852148e-05
1.093286625e-05
1.057739282e-05
1.432213547e-05
1.813248099e-05
9.939354229e-06
1.068729654e-05
1.239445182e-05
5.47880899e-06
4.914855358e-06
7.694192288e-06
3.837896379e-06
3.867097212e-06
5.611163775e-06
5.182991277e-06
5.777425506e-06
9.890747308e-06
4.020030188e-06
6.402169075e-06
4.900786523e-06
7.164505688e-06
6.559045067e-06
9.207419452e-06
7.765618136e-06
8.596123572e-06
8.583164721e-06
8.136546848e-06
5.93571604e-06
8.10199263e-06
7.905058144e-06
8.334158643e-06
7.685249622e-06
9.851875535e-06
6.074740052e-06
1.142506921e-05
9.46817357e-06
1.476109256e-05
7.003415541e-06
3.152637228e-06
7.333691741e-06
5.409079302e-06
7.061951208e-06
2.396966837e-06
4.519999791e-06
3.848580243e-06
6.410385163e-06
7.339040126e-06
5.628429508e-06
5.105971941e-06
4.084644636e-06
2.388168525e-06
8.966719841e-06
3.013520633e-06
5.992965186e-06
6.04314442e-06
6.350797704e-06
6.23233748e-06
6.9840614e-06
8.453054373e-06
9.593592554e-06
8.961507405e-06
8.49839279e-06
6.749748903e-06
1.049374076e-05
1.346848657e-05
1.57483928e-05
8.799619202e-06
1.043176445e-06
2.251367189e-06
7.409052812e-06
3.199892151e-06
1.688526493e-06
2.784235452e-06
2.727909769e-06
5.732788463e-06
3.403349984e-06
5.743262453e-06
7.637476239e-06
5.834838805e-06
4.737951717e-06
5.681168051e-06
4.234117674e-06
7.365935561e-06
4.895318031e-06
8.511297759e-06
5.578850366e-06
6.318608022e-06
6.285865454e-06
6.340321031e-06
3.37492893e-06
1.173884067e-05
6.419392559e-06
9.942791503e-06
8.652305713e-06
1.077478925e-05
7.968756833e-06
1.154346394e-05
3.129529358e-06
6.604492545e-06
2.722101738e-06
5.409079341e-06
4.912581322e-06
6.805494936e-06
5.533491635e-06
5.104719037e-06
6.410385212e-06
6.301688565e-06
8.763162209e-06
4.052079874e-06
1.878503648e-06
7.658951491e-06
5.231086517e-06
4.352415012e-06
8.524745823e-06
7.404460019e-06
7.466981222e-06
6.838316985e-06
5.674681277e-06
3.170160542e-06
9.770657299e-06
1.48755841e-05
9.221428499e-06
5.838392668e-06
9.941088429e-06
7.98851445e-06
6.186787953e-06
1.371922371e-05
4.842806435e-06
7.655371629e-06
6.048912639e-06
7.236802686e-06
2.149369886e-06
7.269844626e-06
3.974417872e-06
3.455327518e-06
4.511506095e-06
6.301688614e-06
3.457187201e-06
2.836651078e-06
6.290785703e-06
4.199814206e-06
4.068622879e-06
6.61305957e-06
3.629427693e-06
8.254769658e-06
4.977987481e-06
5.712628461e-06
6.810038189e-06
5.107362985e-06
5.063463229e-06
1.236618935e-05
7.775356866e-06
7.206525613e-06
8.744044876e-06
8.731371897e-06
5.53051083e-06
1.069247597e-05
3.278041767e-06
3.678076765e-06
3.705437058e-06
3.885058994e-06
6.754106022e-06
3.325666367e-06
2.805581888e-06
4.005124704e-06
4.036309689e-06
6.381189229e-06
4.582873112e-06
4.052079874e-06
2.859448069e-06
6.175613911e-06
4.068622846e-06
3.599538961e-06
5.992965186e-06
7.489285972e-06
4.892445281e-06
3.722148297e-06
3.754116952e-06
5.811607408e-06
6.929062359e-06
5.824763901e-06
9.85435695e-06
6.477001143e-06
7.088305295e-06
1.272562901e-05
4.031094021e-06
8.137233258e-06
3.203785574e-06
3.827685842e-06
5.368842553e-06
5.409079302e-06
5.526422831e-06
5.104121164e-06
3.896745745e-06
5.026446798e-06
3.403349958e-06
3.748059994e-06
7.4772173e-06
7.456061105e-06
2.287558437e-06
2.964691424e-06
3.570138425e-06
4.102128431e-06
1.772653061e-06
2.46815334e-06
5.749934766e-06
5.106648805e-06
6.810038132e-06
4.666414803e-06
6.218663624e-06
5.824763901e-06
3.887678467e-06
5.290700064e-06
5.246870378e-06
8.173669431e-06
8.905327808e-06
8.137233258e-06
4.768550253e-06
6.529688034e-06
2.797462722e-06
8.303433403e-06
4.298739772e-06
5.722633155e-06
4.129762067e-06
8.245066012e-06
6.727818317e-06
3.350556675e-06
2.331501291e-06
3.403981347e-06
3.512755086e-06
4.776337087e-06
3.570138454e-06
2.930091784e-06
3.629427723e-06
4.851480686e-06
4.806903081e-06
3.20243936e-06
4.365301213e-06
5.548311206e-06
5.773862007e-06
8.423471582e-06
3.797571222e-06
5.929308549e-06
5.89126178e-06
4.179412244e-06
6.843065138e-06
5.299087501e-06
7.376491332e-06
4.427929835e-06
4.764133396e-06
3.809133266e-06
7.214949365e-06
4.94995895e-06
4.36465563e-06
2.90553031e-06
8.626697434e-06
9.252820455e-06
5.708558978e-06
4.700178365e-06
3.512755059e-06
4.363968214e-06
8.468235348e-06
3.180378282e-06
1.856774662e-06
7.234808113e-06
6.780576193e-06
6.838317042e-06
3.667105379e-06
7.748809943e-06
6.218663624e-06
7.079461272e-06
5.876571323e-06
7.115609731e-06
5.338609494e-06
6.595377048e-06
7.875325481e-06
7.286245381e-06
6.034495355e-06
6.079053047e-06
5.444203477e-06
3.199892128e-06
4.37523885e-06
3.790016058e-06
3.506508015e-06
3.926852502e-06
5.619662206e-06
8.614893745e-06
2.974473739e-06
5.348276887e-06
2.940865449e-06
2.882614403e-06
5.396581345e-06
4.688146816e-06
4.895318071e-06
5.447312573e-06
4.291582396e-06
5.540087169e-06
3.667105379e-06
2.465916071e-06
3.197864157e-06
1.218756362e-05
9.764249705e-06
6.02022443e-06
7.36352291e-06
7.338234495e-06
8.062188042e-06
6.812461308e-06
5.512907089e-06
5.4040044e-06
4.990216285e-06
4.342448624e-06
5.526422872e-06
7.26984468e-06
7.247909649e-06
4.948174672e-06
5.302229101e-06
5.743262453e-06
4.663002546e-06
4.619410063e-06
7.106927576e-06
4.199814206e-06
4.649854681e-06
3.013520585e-06
6.161208339e-06
3.659817033e-06
7.896759707e-06
3.635877651e-06
3.055921149e-06
3.78663957e-06
7.639461094e-06
6.452112587e-06
5.243642741e-06
6.567917023e-06
3.958087539e-06
8.173669431e-06
6.93649642e-06
4.731002616e-06
7.673516195e-06
2.101758167e-06
7.561596152e-06
5.027615496e-06
2.149369902e-06
6.109901815e-06
5.611163691e-06
3.29878309e-06
5.06558415e-06
6.301688565e-06
8.360578129e-06
5.348276887e-06
6.372203156e-06
1.811645663e-06
6.641792482e-06
5.35759406e-06
3.545306122e-06
2.979159209e-06
2.488993741e-06
3.116168688e-06
4.976485443e-06
6.603617289e-06
3.90826292e-06
3.942717845e-06
2.711928639e-06
1.915825612e-06
6.627392286e-06
4.55195965e-06
1.021788197e-05
6.906762274e-06
3.651117584e-06
6.004248492e-06
5.898190669e-06
2.742502549e-06
3.7613973e-06
5.027040039e-06
2.182327815e-06
3.455327492e-06
3.482231607e-06
1.196352889e-06
5.145716067e-06
4.052079843e-06
5.718896094e-06
3.541214305e-06
4.732602095e-06
3.013520585e-06
3.713549323e-06
5.021132633e-06
1.973673055e-06
3.89468962e-06
6.984061341e-06
5.019597584e-06
6.307195997e-06
6.092702554e-06
3.977785712e-06
5.47253178e-06
4.049826737e-06
4.737114672e-06
1.012445069e-05
7.001063304e-06
4.246961997e-06
5.329199928e-06
3.780798049e-06
4.342448593e-06
4.528237008e-06
3.790016086e-06
6.312089882e-06
5.81106062e-06
6.252621912e-06
4.705910928e-06
6.994503873e-06
3.646286227e-06
4.737951717e-06
5.270782989e-06
4.815349548e-06
5.943612369e-06
5.486202429e-06
7.234808053e-06
4.291582361e-06
5.020378159e-06
6.285865507e-06
1.003919517e-05
6.572793058e-06
6.003389634e-06
6.50949986e-06
4.013482954e-06
3.958087539e-06
4.086834716e-06
4.593939864e-06
4.636701564e-06
4.395474428e-06
5.32919989e-06
2.11739262e-06
6.170171969e-06
3.837896379e-06
6.497170384e-06
4.910237584e-06
3.926852502e-06
5.540780556e-06
3.430057339e-06
4.020030157e-06
3.48474965e-06
3.431337683e-06
5.352859968e-06
3.652885868e-06
5.021862213e-06
1.940896246e-06
5.958318417e-06
5.063529681e-06
2.423918434e-06
6.19885385e-06
1.937202469e-06
3.286396557e-06
1.344010237e-06
9.764249705e-06
4.652091485e-06
4.049826737e-06
5.945097093e-06
6.749633856e-06
5.961473548e-06
6.481827412e-06
1.576318637e-06
5.065577285e-06
5.712782367e-06
3.837896379e-06
6.26406402e-06
5.611163733e-06
1.727663759e-06
7.439659673e-06
7.976966903e-06
6.672049277e-06
4.619410027e-06
4.73795168e-06
4.776337087e-06
4.732602095e-06
5.441022866e-06
2.363537434e-06
3.57499108e-06
4.291582396e-06
6.838317042e-06
2.44473694e-06
6.603617289e-06
1.865599087e-06
7.796122824e-06
7.142428335e-06
4.652091485e-06
2.66930477e-06
4.829692162e-06
8.062188042e-06
5.487689433e-06
6.034495312e-06
3.752881276e-06
2.192753583e-06
3.42766942e-06
3.377052986e-06
4.639771459e-06
6.779999738e-06
6.832382783e-06
5.698543856e-06
5.105335676e-06
5.225845537e-06
7.617597827e-06
4.900786485e-06
7.082428554e-06
6.890034671e-06
4.771575627e-06
4.136190476e-06
8.000291866e-06
4.377124632e-06
3.116168714e-06
6.984061282e-06
5.98713821e-06
7.462396349e-06
4.659379397e-06
4.520607004e-06
5.747476786e-06
9.849349267e-06
2.693697314e-06
4.124525302e-06
4.825303539e-06
9.238280863e-06
2.101758167e-06
5.973551632e-06
4.418374348e-06
3.914395487e-06
5.955739563e-06
5.455819538e-06
4.633194056e-06
5.619662163e-06
4.626410263e-06
5.708559022e-06
2.917419403e-06
4.656534314e-06
3.705368347e-06
4.732602095e-06
4.268986162e-06
1.05497637e-05
6.893454126e-06
1.20172577e-06
4.328127905e-06
5.761692881e-06
5.899372809e-06
8.172795014e-06
3.226056321e-06
6.329285369e-06
4.743007367e-06
9.296697033e-06
3.34397724e-06
4.031094021e-06
4.162917558e-06
3.203785574e-06
4.953369409e-06
4.46086813e-06
2.20918719e-06
2.839710515e-06
3.325666342e-06
3.896745774e-06
6.832382783e-06
4.590387745e-06
4.546909564e-06
2.974473716e-06
3.646286227e-06
3.512755059e-06
3.541214305e-06
7.223024322e-06
4.771575665e-06
6.077086689e-06
4.340474797e-06
6.179713252e-06
5.020378201e-06
3.841128587e-06
5.019597584e-06
7.727993467e-06
3.942717845e-06
5.243642786e-06
3.831651191e-06
6.535653124e-06
6.780532029e-06
6.093356727e-06
1.3247719e-06
5.364394658e-06
5.628417973e-06
5.444203517e-06
3.351743664e-06
7.138450286e-06
4.408528048e-06
3.896745774e-06
4.476649688e-06
4.748151045e-06
6.301688565e-06
4.743132015e-06
3.40398132e-06
2.531810665e-06
2.388168544e-06
3.570138425e-06
7.282506772e-06
5.992965186e-06
5.616964479e-06
5.063529681e-06
5.626357768e-06
3.754116983e-06
7.748809943e-06
5.063463272e-06
6.63073832e-06
6.329285314e-06
5.929308549e-06
3.313696172e-06
7.523389476e-06
5.810804672e-06
2.743844716e-06
)
;

boundaryField
{
    flow
    {
        type            zeroGradient;
    }
    obstacle
    {
        type            calculated;
        value           nonuniform List<scalar> 0();
    }
    frontAndBack
    {
        type            empty;
    }
    procBoundary3to1
    {
        type            processor;
        value           nonuniform List<scalar> 
36
(
8.231534224e-06
1.359041345e-05
1.316304541e-05
1.365364155e-05
1.003101941e-05
1.003101941e-05
1.047419464e-05
1.326992674e-05
1.276840735e-05
9.593592472e-06
1.102217921e-05
9.221428579e-06
9.221428579e-06
1.12916472e-05
4.771575704e-06
9.031508507e-06
1.58309317e-05
1.26160531e-05
1.26160531e-05
5.777425506e-06
7.976966903e-06
5.948947433e-06
6.725242234e-06
5.391258692e-06
4.199814206e-06
4.199814206e-06
1.576318614e-06
6.124273558e-06
5.9423947e-06
3.300553932e-06
5.104121202e-06
5.68883583e-06
4.005124704e-06
4.005124704e-06
6.407571149e-06
6.407571149e-06
)
;
    }
    procBoundary3to2
    {
        type            processor;
        value           nonuniform List<scalar> 
19
(
5.695722499e-06
3.845698382e-06
6.434663154e-06
6.287231309e-06
4.80756839e-06
6.360947254e-06
6.878740257e-06
5.916870199e-06
7.322817262e-06
7.470249063e-06
1.553378863e-06
4.216059536e-06
6.952456108e-06
2.218603602e-06
3.845698409e-06
3.698266581e-06
4.216059536e-06
2.144887718e-06
2.736396573e-06
)
;
    }
}


// ************************************************************************* //
