/*--------------------------------*- C++ -*----------------------------------*\
| =========                 |                                                 |
| \\      /  F ield         | OpenFOAM: The Open Source CFD Toolbox           |
|  \\    /   O peration     | Version:  2406                                  |
|   \\  /    A nd           | Website:  www.openfoam.com                      |
|    \\/     M anipulation  |                                                 |
\*---------------------------------------------------------------------------*/
FoamFile
{
    version     2.0;
    format      ascii;
    arch        "LSB;label=32;scalar=64";
    class       volScalarField;
    location    "0.007";
    object      rhoNMean;
}
// * * * * * * * * * * * * * * * * * * * * * * * * * * * * * * * * * * * * * //

dimensions      [0 -3 0 0 0 0 0];

internalField   nonuniform List<scalar> 
654
(
2.409416152e+20
2.420316547e+20
2.461634546e+20
2.453163653e+20
2.449980288e+20
2.469325936e+20
1.968661127e+20
2.057184154e+20
2.133339408e+20
2.214379189e+20
2.294072483e+20
2.367872165e+20
2.388219314e+20
2.410083212e+20
2.457998299e+20
2.457359625e+20
2.455650894e+20
1.418919941e+20
1.498586642e+20
1.568866033e+20
1.640285718e+20
1.72863914e+20
1.834433401e+20
1.918686616e+20
2.001520834e+20
2.092031042e+20
2.170877005e+20
2.246925454e+20
2.318845456e+20
2.354532934e+20
2.394628468e+20
2.425019601e+20
2.422562122e+20
1.111935077e+20
1.13304744e+20
1.149029619e+20
1.188169005e+20
1.221331325e+20
1.264666259e+20
1.304709225e+20
1.372381165e+20
1.444662335e+20
1.518776292e+20
1.605845287e+20
1.687211059e+20
1.784995933e+20
1.865043189e+20
1.950119419e+20
2.040473282e+20
2.122867591e+20
2.207760944e+20
2.29181611e+20
2.342845785e+20
2.372033518e+20
2.427120476e+20
1.015882073e+20
1.02047917e+20
1.019836595e+20
1.030839118e+20
1.052188973e+20
1.062434961e+20
1.075575582e+20
1.085890855e+20
1.107347838e+20
1.129870497e+20
1.155854721e+20
1.182432289e+20
1.218225624e+20
1.263103392e+20
1.305083564e+20
1.358943237e+20
1.42589606e+20
1.485488101e+20
1.562031124e+20
1.655511236e+20
1.748224645e+20
1.825593291e+20
1.917239257e+20
2.016698916e+20
2.108801107e+20
2.192593692e+20
2.257460352e+20
2.322233073e+20
2.368268837e+20
1.020133623e+20
1.022952489e+20
1.032936319e+20
1.041824582e+20
1.043550445e+20
1.041110841e+20
1.047886093e+20
1.059157659e+20
1.069923866e+20
1.081202165e+20
1.092555115e+20
1.118172125e+20
1.142725035e+20
1.175327343e+20
1.204498081e+20
1.245563563e+20
1.280485434e+20
1.327670778e+20
1.386839546e+20
1.443516058e+20
1.521783026e+20
1.606936394e+20
1.70328337e+20
1.780051317e+20
1.874401836e+20
1.976292325e+20
2.050570243e+20
2.138232371e+20
2.199526388e+20
2.266682664e+20
1.012570193e+20
1.009263626e+20
1.011990084e+20
1.014888477e+20
1.023674552e+20
1.028934884e+20
1.037728723e+20
1.04753677e+20
1.053990938e+20
1.077256297e+20
1.090203452e+20
1.095304629e+20
1.11074843e+20
1.135865202e+20
1.163070794e+20
1.18607953e+20
1.212447496e+20
1.240355328e+20
1.294098055e+20
1.348756089e+20
1.389857337e+20
1.471329935e+20
1.5596523e+20
1.653116788e+20
1.748710559e+20
1.820161841e+20
1.928541714e+20
2.025237488e+20
2.122466771e+20
2.186585857e+20
1.015326366e+20
1.02233908e+20
1.022105424e+20
1.024817482e+20
1.032919153e+20
1.026473086e+20
1.02354862e+20
1.026456981e+20
1.031487369e+20
1.036184957e+20
1.04123353e+20
1.065500193e+20
1.079615146e+20
1.090770663e+20
1.118572185e+20
1.140062246e+20
1.171530352e+20
1.209822378e+20
1.225871044e+20
1.266581158e+20
1.32778131e+20
1.380231203e+20
1.423816053e+20
1.517547797e+20
1.602718947e+20
1.679844538e+20
1.768305016e+20
1.85474627e+20
1.952459726e+20
2.037259035e+20
1.014941777e+20
1.014784373e+20
1.020284018e+20
1.018329222e+20
1.012911194e+20
1.015794165e+20
1.02442021e+20
1.031558026e+20
1.033734321e+20
1.039822026e+20
1.040853114e+20
1.051347423e+20
1.060112911e+20
1.063600583e+20
1.079037715e+20
1.103226807e+20
1.11935824e+20
1.145132054e+20
1.183118404e+20
1.220299592e+20
1.254551873e+20
1.311177965e+20
1.354961775e+20
1.396318204e+20
1.469055316e+20
1.562952691e+20
1.647266352e+20
1.736876785e+20
1.83249509e+20
1.933637843e+20
9.938859576e+19
9.95348753e+19
9.962478569e+19
9.982090526e+19
1.009510509e+20
1.013565249e+20
1.019961699e+20
1.0231126e+20
1.027912672e+20
1.023592491e+20
1.037360202e+20
1.036985531e+20
1.036921082e+20
1.049218507e+20
1.059502602e+20
1.066031295e+20
1.086791545e+20
1.118113698e+20
1.146937413e+20
1.165081901e+20
1.202314847e+20
1.242920195e+20
1.305976676e+20
1.350563188e+20
1.409865318e+20
1.480276906e+20
1.553428683e+20
1.626479012e+20
1.697650808e+20
1.775682724e+20
1.000231554e+20
1.001902637e+20
1.009453116e+20
1.0096782e+20
1.010666069e+20
1.012001654e+20
1.008631011e+20
1.010072848e+20
1.019810017e+20
1.024553224e+20
1.020829384e+20
1.020218336e+20
1.031615063e+20
1.040823059e+20
1.042146002e+20
1.045183076e+20
1.051247709e+20
1.074657329e+20
1.092185974e+20
1.123268377e+20
1.154208744e+20
1.188488233e+20
1.224857027e+20
1.279598584e+20
1.323802605e+20
1.379551395e+20
1.445178874e+20
1.512525206e+20
1.600429062e+20
1.697498798e+20
1.018435063e+20
1.012492133e+20
1.00444423e+20
1.004500707e+20
1.003303412e+20
1.007277649e+20
1.006686702e+20
1.007471673e+20
1.0051027e+20
1.002284803e+20
1.014950233e+20
1.025482061e+20
1.024060155e+20
1.021198255e+20
1.033253431e+20
1.055337144e+20
1.063664449e+20
1.066969167e+20
1.09067228e+20
1.099438773e+20
1.126306447e+20
1.144018399e+20
1.167312895e+20
1.195836463e+20
1.235250944e+20
1.286438139e+20
1.347263056e+20
1.419668038e+20
1.501312062e+20
1.584313204e+20
9.913541315e+19
1.000126944e+20
9.989799837e+19
9.973570661e+19
9.896676241e+19
9.928062326e+19
9.903946693e+19
9.903781244e+19
9.916209847e+19
9.995741634e+19
1.002016077e+20
9.984663283e+19
1.015521334e+20
1.024138425e+20
1.03096778e+20
1.042734582e+20
1.055858604e+20
1.064552899e+20
1.068742178e+20
1.086220785e+20
1.099080114e+20
1.114434992e+20
1.133229651e+20
1.158214805e+20
1.191811241e+20
1.227344778e+20
1.268233537e+20
1.334522306e+20
1.389573559e+20
1.457940969e+20
9.866430191e+19
9.84404128e+19
9.882791823e+19
9.885094308e+19
9.943229414e+19
9.91242646e+19
1.000216821e+20
9.972020355e+19
1.000030034e+20
1.008255081e+20
1.006235254e+20
1.010841273e+20
1.007509609e+20
1.020489779e+20
1.033289136e+20
1.036901412e+20
1.040174309e+20
1.049835578e+20
1.048768785e+20
1.065220938e+20
1.066896711e+20
1.086934895e+20
1.112672708e+20
1.13774647e+20
1.16431627e+20
1.196071599e+20
1.230817273e+20
1.265958225e+20
1.317514129e+20
1.375931269e+20
9.908093081e+19
9.868900642e+19
9.888646364e+19
9.942440118e+19
9.920117909e+19
1.001555622e+20
1.007826481e+20
1.011897076e+20
1.009256157e+20
1.009009935e+20
1.009901066e+20
1.019346869e+20
1.016153847e+20
1.016132647e+20
1.008504196e+20
1.020050001e+20
1.018717301e+20
1.018350762e+20
1.02768782e+20
1.035955186e+20
1.039257289e+20
1.057654527e+20
1.066209461e+20
1.08212348e+20
1.110259702e+20
1.13803767e+20
1.169565435e+20
1.212617289e+20
1.237349537e+20
1.28325831e+20
1.00221855e+20
1.001676634e+20
1.000150899e+20
1.000207969e+20
1.002048794e+20
1.005015457e+20
1.000417949e+20
1.007910827e+20
1.012524452e+20
1.01254406e+20
1.008033569e+20
1.008366284e+20
1.009653104e+20
1.007489232e+20
1.00936132e+20
1.008311646e+20
1.00524768e+20
1.014762949e+20
1.018236459e+20
1.029066938e+20
1.038693985e+20
1.053980274e+20
1.066362301e+20
1.081699466e+20
1.080314705e+20
1.092206982e+20
1.112787723e+20
1.138938862e+20
1.191178263e+20
1.231529099e+20
1.005968223e+20
1.014881229e+20
1.018820375e+20
1.00731884e+20
1.001850688e+20
9.954011012e+19
9.902605785e+19
9.887566028e+19
9.872972958e+19
9.919912343e+19
9.955490108e+19
9.940740943e+19
9.992519092e+19
1.002459048e+20
1.005932848e+20
1.012488474e+20
1.02300144e+20
1.028162309e+20
1.040904958e+20
1.043178546e+20
1.053001893e+20
1.05276814e+20
1.047677652e+20
1.055256391e+20
1.069114495e+20
1.071371266e+20
1.090654719e+20
1.115724577e+20
1.128635355e+20
1.171456505e+20
1.005743877e+20
1.001579779e+20
1.005029677e+20
1.008924513e+20
1.007958729e+20
1.013764847e+20
1.013424765e+20
1.017167013e+20
1.006498534e+20
1.002250499e+20
9.990073393e+19
1.002788844e+20
1.002800971e+20
1.006497373e+20
1.009539886e+20
1.009103798e+20
1.013815965e+20
1.018680246e+20
1.017165789e+20
1.017114898e+20
1.023334578e+20
1.023374117e+20
1.04041776e+20
1.049358726e+20
1.071408983e+20
1.081926455e+20
1.100355225e+20
1.105735637e+20
1.116780027e+20
1.139832908e+20
9.958409119e+19
9.864703583e+19
9.910113018e+19
9.947355467e+19
9.978226834e+19
9.984617242e+19
9.933781896e+19
9.985870853e+19
1.001528002e+20
9.965204047e+19
1.004609831e+20
1.011503602e+20
1.014642863e+20
1.007595503e+20
1.010468429e+20
1.010472074e+20
1.003868034e+20
1.00908836e+20
1.005868467e+20
1.013093651e+20
1.020292731e+20
1.030457471e+20
1.027693867e+20
1.041726465e+20
1.04935856e+20
1.047985049e+20
1.055970426e+20
1.076128421e+20
1.100327744e+20
1.104342879e+20
1.000744336e+20
9.955101927e+19
1.001484434e+20
9.958169235e+19
9.990442915e+19
9.978961743e+19
1.001021365e+20
9.964926198e+19
1.002719568e+20
1.000534897e+20
1.006304405e+20
9.960261906e+19
9.914510186e+19
1.000475313e+20
1.002540097e+20
1.010724125e+20
1.01900776e+20
1.012749393e+20
1.01938096e+20
1.024301024e+20
1.018339963e+20
1.019169569e+20
1.015428484e+20
1.023840764e+20
1.031897122e+20
1.051516524e+20
1.049952147e+20
1.055431338e+20
1.0713346e+20
1.086679234e+20
1.000327692e+20
1.003807442e+20
9.975813987e+19
9.996181266e+19
1.001751639e+20
1.004316837e+20
1.0143634e+20
1.019869549e+20
1.018073743e+20
1.021053411e+20
1.016610231e+20
1.017813081e+20
1.022900555e+20
1.016663997e+20
1.013754032e+20
1.013352648e+20
1.010257943e+20
1.00652565e+20
1.008378993e+20
1.006130944e+20
1.014547036e+20
1.030760502e+20
1.041602276e+20
1.041726465e+20
1.034619404e+20
1.045866163e+20
1.061592757e+20
1.0808432e+20
1.093069369e+20
1.106825545e+20
1.015358407e+20
1.014074102e+20
1.020056334e+20
1.022327031e+20
1.01783065e+20
1.01273355e+20
1.005278748e+20
1.000647761e+20
1.003025963e+20
1.002936737e+20
9.982810903e+19
1.002788844e+20
1.003082084e+20
1.003876001e+20
1.00482574e+20
1.006367245e+20
1.011456058e+20
1.013152106e+20
1.010815664e+20
1.013763859e+20
1.009214439e+20
1.006858919e+20
1.009505939e+20
1.01431972e+20
1.023574752e+20
1.035938793e+20
1.037757204e+20
1.038370221e+20
1.041293036e+20
1.050456593e+20
1.003500494e+20
1.000869507e+20
9.986547314e+19
1.000076893e+20
1.002213869e+20
1.006579036e+20
1.007558292e+20
1.001188269e+20
1.005817639e+20
1.0060248e+20
1.004575248e+20
1.011468735e+20
1.015415917e+20
1.01967503e+20
1.012468366e+20
1.012200424e+20
1.010475773e+20
1.018826687e+20
1.019122524e+20
1.016035127e+20
1.016462276e+20
1.006025583e+20
1.014052927e+20
1.014049884e+20
1.018363543e+20
1.01184628e+20
1.026472931e+20
1.033415716e+20
1.047865898e+20
1.056480153e+20
9.736313488e+19
9.807881928e+19
9.820343448e+19
9.84118393e+19
9.846821425e+19
9.804639302e+19
9.847628556e+19
9.890944273e+19
9.86956856e+19
9.898295849e+19
9.940273386e+19
9.830237914e+19
9.776062026e+19
9.796460992e+19
9.842192409e+19
9.943048093e+19
9.89272934e+19
9.8320492e+19
9.797295474e+19
9.864715054e+19
9.951318529e+19
1.007086201e+20
9.987689615e+19
1.001753464e+20
9.950686533e+19
9.983874337e+19
9.993114956e+19
1.005526597e+20
1.006815804e+20
1.022699468e+20
)
;

boundaryField
{
    flow
    {
        type            calculated;
        value           nonuniform List<scalar> 
55
(
2.409416152e+20
2.469325936e+20
2.455650894e+20
2.422562122e+20
2.427120476e+20
2.368268837e+20
2.266682664e+20
2.186585857e+20
2.037259035e+20
1.933637843e+20
1.775682724e+20
1.697498798e+20
1.584313204e+20
1.457940969e+20
1.375931269e+20
1.28325831e+20
1.231529099e+20
1.171456505e+20
1.139832908e+20
1.104342879e+20
1.086679234e+20
1.106825545e+20
1.050456593e+20
1.056480153e+20
1.022699468e+20
9.736313488e+19
9.807881928e+19
9.820343448e+19
9.84118393e+19
9.846821425e+19
9.804639302e+19
9.847628556e+19
9.890944273e+19
9.86956856e+19
9.898295849e+19
9.940273386e+19
9.830237914e+19
9.776062026e+19
9.796460992e+19
9.842192409e+19
9.943048093e+19
9.89272934e+19
9.8320492e+19
9.797295474e+19
9.864715054e+19
9.951318529e+19
1.007086201e+20
9.987689615e+19
1.001753464e+20
9.950686533e+19
9.983874337e+19
9.993114956e+19
1.005526597e+20
1.006815804e+20
1.022699468e+20
)
;
    }
    obstacle
    {
        type            calculated;
        value           nonuniform List<scalar> 0();
    }
    frontAndBack
    {
        type            empty;
    }
    procBoundary3to1
    {
        type            processor;
        value           nonuniform List<scalar> 
36
(
2.377466968e+20
2.460065226e+20
2.460882239e+20
2.452484405e+20
2.433608644e+20
2.433608644e+20
2.085835802e+20
2.169131306e+20
2.274476135e+20
2.327021998e+20
2.382267514e+20
2.393111569e+20
2.393111569e+20
1.535059181e+20
1.603691894e+20
1.683993178e+20
1.78086907e+20
1.868046714e+20
1.868046714e+20
1.140260296e+20
1.164580073e+20
1.221135776e+20
1.257782427e+20
1.295580332e+20
1.350675325e+20
1.350675325e+20
1.02327534e+20
1.027309461e+20
1.034746487e+20
1.047908622e+20
1.053087199e+20
1.069206539e+20
1.09341232e+20
1.09341232e+20
1.009557648e+20
1.009557648e+20
)
;
    }
    procBoundary3to2
    {
        type            processor;
        value           nonuniform List<scalar> 
19
(
1.018182975e+20
1.00672949e+20
1.019519215e+20
1.010929094e+20
9.968349523e+19
1.004152456e+20
1.011279076e+20
9.943215487e+19
9.877676102e+19
9.942579182e+19
9.986166055e+19
1.007747578e+20
1.002848032e+20
9.951487377e+19
9.925080874e+19
1.008511144e+20
1.005297805e+20
1.006379523e+20
9.781912244e+19
)
;
    }
}


// ************************************************************************* //
