/*--------------------------------*- C++ -*----------------------------------*\
| =========                 |                                                 |
| \\      /  F ield         | OpenFOAM: The Open Source CFD Toolbox           |
|  \\    /   O peration     | Version:  2406                                  |
|   \\  /    A nd           | Website:  www.openfoam.com                      |
|    \\/     M anipulation  |                                                 |
\*---------------------------------------------------------------------------*/
FoamFile
{
    version     2.0;
    format      ascii;
    arch        "LSB;label=32;scalar=64";
    class       volScalarField;
    location    "0.007";
    object      rhoN;
}
// * * * * * * * * * * * * * * * * * * * * * * * * * * * * * * * * * * * * * //

dimensions      [0 -3 0 0 0 0 0];

internalField   nonuniform List<scalar> 
654
(
2.706523211e+20
2.472033048e+20
2.632997126e+20
2.37736758e+20
3.246101901e+20
2.991420364e+20
1.433500149e+20
1.708687094e+20
2.651522702e+20
2.674694032e+20
1.753878045e+20
1.905591277e+20
2.884038506e+20
1.524366744e+20
1.398451518e+20
1.834753248e+20
3.133868981e+20
1.874941404e+20
2.016407216e+20
2.033150464e+20
1.28135881e+20
2.067485196e+20
2.60636393e+20
1.971562032e+20
2.253794277e+20
2.006020524e+20
2.158619132e+20
2.04170494e+20
2.472033026e+20
2.355839534e+20
2.097677277e+20
1.693618398e+20
2.564074621e+20
8.340959977e+19
1.441099645e+20
1.089373453e+20
1.09805849e+20
1.96779222e+20
1.611784398e+20
1.374957029e+20
7.561527122e+19
1.779006671e+20
2.947125263e+20
1.162960423e+20
1.172863759e+20
2.891624313e+20
2.253794296e+20
2.674694032e+20
2.293532828e+20
2.177818622e+20
3.021373726e+20
3.741627461e+20
2.097677258e+20
2.258157844e+20
2.564074621e+20
1.129977517e+20
1.024544824e+20
1.605680649e+20
8.089026452e+19
8.150572227e+19
1.173294533e+20
1.064123585e+20
1.191565711e+20
2.041557846e+20
8.472904767e+19
1.342071499e+20
9.838961099e+19
1.487800994e+20
1.37495704e+20
1.890381765e+20
1.651934739e+20
1.793902305e+20
1.809049532e+20
1.69413654e+20
1.182937209e+20
1.723489727e+20
1.604816405e+20
1.753878045e+20
1.633363952e+20
2.060027504e+20
1.247209154e+20
2.37736758e+20
1.975888113e+20
3.133868952e+20
1.458203633e+20
6.779865006e+19
1.479898057e+20
1.146914741e+20
1.50224777e+20
4.65746981e+19
9.386356124e+19
8.276516651e+19
1.310722272e+20
1.561191282e+20
1.210414948e+20
1.098058482e+20
8.609090826e+19
4.959336569e+19
1.874941419e+20
6.301272653e+19
1.270719051e+20
1.28135881e+20
1.292178258e+20
1.303181976e+20
1.445812169e+20
1.723489756e+20
2.006020524e+20
1.888791757e+20
1.769477646e+20
1.373351693e+20
2.217260738e+20
2.796903036e+20
3.246101901e+20
1.851831671e+20
2.243390205e+19
4.519910036e+19
1.479898079e+20
6.881488497e+19
3.466725622e+19
5.821837262e+19
5.866472621e+19
1.182359539e+20
7.149394266e+19
1.200916371e+20
1.573539432e+20
1.220064989e+20
9.838961099e+19
1.115850737e+20
8.749726551e+19
1.512305412e+20
1.016575232e+20
1.793902334e+20
1.162960423e+20
1.303181954e+20
1.314374677e+20
1.32576134e+20
6.68673508e+19
2.428446524e+20
1.361136627e+20
2.060027522e+20
1.801524349e+20
2.237522429e+20
1.693618398e+20
2.421626031e+20
6.730170662e+19
1.355973011e+20
5.691915646e+19
1.146914749e+20
1.040017687e+20
1.397240953e+20
1.173294524e+20
1.064123577e+20
1.310722282e+20
1.321008008e+20
1.815622436e+20
8.540454992e+19
3.689610412e+19
1.611784398e+20
1.124964842e+20
8.821781643e+19
1.779006671e+20
1.537630572e+20
1.550613897e+20
1.433500149e+20
1.182937219e+20
6.628806754e+19
2.006020524e+20
3.103015003e+20
1.905591294e+20
1.236016513e+20
2.078681923e+20
1.678141821e+20
1.270213787e+20
2.848971801e+20
1.009525592e+20
1.581968513e+20
1.252221451e+20
1.490989174e+20
4.62230083e+19
1.513677688e+20
8.21306167e+19
7.094157237e+19
9.532525688e+19
1.321008018e+20
7.262489744e+19
6.100324899e+19
1.35285714e+20
8.678839064e+19
8.749726621e+19
1.386279972e+20
7.62431418e+19
1.665766439e+20
1.033742598e+20
1.172863768e+20
1.445812169e+20
1.060609072e+20
1.069877604e+20
2.56336022e+20
1.633363952e+20
1.510686849e+20
1.801524349e+20
1.817986973e+20
1.129078922e+20
2.27917742e+20
6.730170614e+19
7.909842506e+19
7.968681846e+19
8.028403187e+19
1.386690259e+20
6.986204818e+19
5.866472665e+19
8.276516776e+19
8.340959977e+19
1.321008008e+20
9.683319659e+19
8.540454992e+19
6.149350687e+19
1.239834152e+20
8.749726551e+19
7.561527122e+19
1.270719051e+20
1.537630572e+20
1.033742598e+20
7.819091724e+19
7.88624806e+19
1.193185206e+20
1.471081718e+20
1.214223262e+20
2.04170494e+20
1.373351669e+20
1.52436673e+20
2.65705786e+20
8.468091915e+19
1.709383081e+20
6.730170662e+19
7.909842621e+19
1.138383137e+20
1.146914741e+20
1.155575199e+20
1.047930707e+20
8.213061608e+19
1.064123569e+20
7.149394211e+19
7.205498226e+19
1.573539432e+20
1.586084474e+20
4.919480511e+19
6.19917076e+19
7.499765615e+19
8.821781572e+19
3.812157121e+19
5.12543524e+19
1.162960423e+20
1.042545563e+20
1.445812157e+20
9.280329456e+19
1.337347016e+20
1.214223262e+20
8.166819831e+19
1.098681355e+20
1.108630369e+20
1.678141821e+20
1.834753265e+20
1.709383081e+20
1.009525599e+20
1.355973011e+20
5.691915687e+19
1.720372124e+20
9.24460166e+19
1.164367452e+20
8.21306167e+19
1.655303355e+20
1.429878853e+20
7.205498226e+19
4.84165983e+19
7.320389993e+19
7.379220824e+19
9.918673216e+19
7.499765675e+19
6.301272653e+19
7.624314242e+19
1.02508704e+20
1.033742598e+20
6.515909824e+19
9.200622814e+19
1.193185206e+20
1.203612314e+20
1.75387806e+20
8.166819831e+19
1.236016513e+20
1.247209165e+20
8.390709182e+19
1.411348665e+20
1.13958871e+20
1.570373143e+20
9.039820007e+19
1.024544816e+20
8.028403246e+19
1.50224777e+20
1.047930715e+20
9.386356194e+19
5.911797652e+19
1.787348566e+20
1.921466194e+20
1.210414948e+20
9.760519915e+19
7.379220766e+19
8.678838995e+19
1.74994531e+20
6.301272551e+19
3.812157121e+19
1.537630572e+20
1.421396084e+20
1.433500161e+20
7.886248126e+19
1.590913621e+20
1.337347016e+20
1.484050653e+20
1.225022975e+20
1.510686849e+20
1.108630359e+20
1.398451518e+20
1.693618383e+20
1.566934491e+20
1.233864621e+20
1.242975269e+20
1.138383129e+20
6.881488446e+19
9.24460166e+19
8.150572167e+19
7.039767146e+19
8.276516776e+19
1.191565711e+20
1.80137457e+20
6.052074834e+19
1.09805849e+20
6.149350638e+19
6.19917076e+19
1.124964842e+20
1.008203616e+20
1.01657524e+20
1.153222929e+20
9.045247734e+19
1.172863768e+20
7.886248126e+19
5.303045313e+19
6.686735023e+19
2.56336022e+20
2.04170494e+20
1.236016513e+20
1.524366757e+20
1.53829667e+20
1.693618383e+20
1.424485887e+20
1.121695102e+20
1.129977501e+20
1.024544816e+20
9.175317996e+19
1.155575207e+20
1.513677699e+20
1.525282893e+20
1.064123585e+20
1.07240914e+20
1.200916371e+20
9.683319584e+19
9.760519915e+19
1.475844165e+20
8.678839064e+19
9.999687487e+19
6.301272551e+19
1.27071904e+20
7.68815286e+19
1.679831722e+20
7.819091724e+19
6.571873439e+19
7.954568105e+19
1.604816419e+20
1.349136958e+20
1.088909301e+20
1.373351669e+20
8.314727692e+19
1.678141821e+20
1.411348665e+20
9.971401394e+19
1.570373143e+20
4.519910036e+19
1.593736392e+20
1.032223275e+20
4.622300864e+19
1.280804207e+20
1.173294515e+20
7.094157183e+19
1.07240914e+20
1.321008008e+20
1.694580927e+20
1.09805849e+20
1.352857151e+20
3.719502456e+19
1.37495704e+20
1.134229078e+20
7.624314242e+19
6.406793997e+19
5.168712991e+19
6.51590977e+19
1.05149975e+20
1.325761351e+20
8.024082096e+19
8.094821746e+19
5.444546554e+19
4.12005508e+19
1.385787949e+20
9.789160537e+19
2.117022979e+20
1.424485887e+20
7.851865773e+19
1.24297526e+20
1.252221442e+20
5.734573747e+19
8.089026452e+19
1.047930707e+20
4.693178097e+19
7.094157183e+19
7.149394211e+19
2.401832742e+19
1.089373462e+20
8.540454926e+19
1.229870128e+20
7.439004912e+19
9.999687487e+19
6.301272551e+19
7.624314242e+19
1.025087048e+20
3.876534743e+19
7.819091789e+19
1.445812157e+20
1.060609072e+20
1.337347016e+20
1.214223272e+20
8.166819831e+19
1.098681345e+20
8.314727766e+19
9.789160625e+19
2.117022979e+20
1.4244859e+20
8.973560819e+19
1.129977509e+20
7.968681904e+19
9.175317928e+19
9.24460166e+19
8.150572227e+19
1.290623977e+20
1.18235953e+20
1.310722282e+20
9.607331042e+19
1.452497949e+20
7.320389936e+19
9.838961099e+19
1.115850746e+20
9.999687567e+19
1.26025452e+20
1.143647146e+20
1.537630559e+20
9.045247659e+19
1.042545563e+20
1.314374688e+20
2.121218143e+20
1.337347005e+20
1.214223262e+20
1.361136639e+20
8.240110088e+19
8.314727692e+19
8.390709107e+19
9.879440567e+19
9.971401212e+19
8.973560819e+19
1.129977501e+20
4.553532517e+19
1.261606224e+20
8.089026452e+19
1.397240943e+20
1.055965072e+20
8.276516776e+19
1.191565711e+20
7.205498226e+19
8.472904702e+19
7.320389993e+19
7.379220824e+19
1.115850737e+20
7.499765675e+19
1.008203616e+20
3.81215709e+19
1.281358799e+20
1.033742598e+20
5.212727816e+19
1.314374677e+20
3.977284019e+19
6.68673508e+19
2.698273915e+19
2.04170494e+20
9.61346177e+19
8.314727766e+19
1.258606366e+20
1.411348665e+20
1.282037322e+20
1.346034142e+20
3.389932552e+19
1.024544824e+20
1.146914749e+20
8.089026452e+19
1.280804198e+20
1.173294524e+20
3.547078618e+19
1.549035424e+20
1.681282919e+20
1.331456443e+20
9.760519839e+19
9.838961021e+19
9.918673216e+19
9.999687487e+19
1.134229068e+20
5.082876202e+19
7.68815286e+19
9.045247734e+19
1.433500161e+20
5.257498795e+19
1.325761351e+20
4.012041048e+19
1.618964349e+20
1.497250289e+20
9.61346177e+19
5.543151844e+19
9.789160625e+19
1.693618383e+20
1.13958871e+20
1.233864613e+20
7.909842506e+19
4.553532517e+19
6.881488497e+19
6.933451245e+19
9.314939689e+19
1.407953429e+20
1.418831437e+20
1.191565711e+20
1.080824734e+20
1.089373462e+20
1.586084499e+20
9.838961021e+19
1.487800971e+20
1.374957029e+20
1.008203608e+20
8.895033282e+19
1.665766453e+20
9.045247808e+19
6.515909824e+19
1.445812144e+20
1.193185206e+20
1.604816419e+20
9.443958704e+19
9.52795647e+19
1.236016513e+20
2.078681923e+20
5.593806071e+19
8.468091915e+19
9.971401303e+19
1.906881674e+20
4.519910036e+19
1.252221442e+20
9.175317928e+19
8.089026512e+19
1.280804207e+20
1.173294524e+20
9.458876244e+19
1.191565702e+20
9.607331042e+19
1.210414957e+20
6.100324947e+19
9.838961099e+19
7.439004912e+19
9.999687487e+19
8.821781643e+19
2.160222386e+20
1.409494691e+20
2.584356495e+19
9.122273678e+19
1.182937219e+20
1.193185206e+20
1.738551106e+20
6.745684847e+19
1.361136639e+20
9.61346177e+19
1.940103128e+20
6.992257527e+19
8.468091915e+19
8.546915325e+19
6.730170662e+19
1.016979758e+20
9.107065033e+19
4.587658998e+19
5.777876037e+19
6.986204766e+19
8.21306167e+19
1.418831437e+20
9.532525688e+19
9.607330968e+19
6.052074787e+19
7.320389936e+19
7.379220766e+19
7.439004912e+19
1.499953135e+20
1.008203616e+20
1.27071903e+20
8.969511596e+19
1.292178248e+20
1.042545572e+20
7.886248126e+19
1.060609072e+20
1.604816419e+20
8.094821746e+19
1.088909311e+20
8.240110088e+19
1.385787949e+20
1.398451518e+20
1.270213799e+20
2.848971827e+19
1.121695102e+20
1.129977509e+20
1.138383137e+20
6.881488497e+19
1.50224777e+20
9.314939619e+19
8.21306167e+19
9.458876315e+19
9.532525688e+19
1.321008008e+20
9.683319584e+19
7.320389936e+19
4.919480549e+19
4.959336608e+19
7.499765615e+19
1.512305424e+20
1.270719051e+20
1.153222929e+20
1.033742598e+20
1.172863759e+20
7.886248126e+19
1.590913621e+20
1.069877613e+20
1.349136958e+20
1.361136627e+20
1.236016513e+20
6.928939805e+19
1.53829667e+20
1.129078922e+20
5.69794355e+19
)
;

boundaryField
{
    flow
    {
        type            zeroGradient;
    }
    obstacle
    {
        type            calculated;
        value           nonuniform List<scalar> 0();
    }
    frontAndBack
    {
        type            empty;
    }
    procBoundary3to1
    {
        type            processor;
        value           nonuniform List<scalar> 
36
(
1.709383081e+20
2.746703339e+20
2.771575897e+20
2.796903036e+20
2.117022979e+20
2.117022979e+20
2.215409322e+20
2.760186821e+20
2.651522657e+20
2.006020507e+20
2.293532848e+20
1.905591311e+20
1.905591311e+20
2.374925797e+20
1.008203624e+20
1.90607856e+20
3.331532879e+20
2.584356495e+20
2.584356495e+20
1.191565711e+20
1.681282919e+20
1.210414957e+20
1.342071488e+20
1.106883115e+20
8.678839064e+19
8.678839064e+19
3.389932503e+19
1.252221442e+20
1.261606224e+20
6.933451296e+19
1.047930715e+20
1.173294524e+20
8.276516776e+19
8.276516776e+19
1.346034132e+20
1.346034132e+20
)
;
    }
    procBoundary3to2
    {
        type            processor;
        value           nonuniform List<scalar> 
19
(
1.224886559e+20
7.794732648e+19
1.336239882e+20
1.336239873e+20
1.002179912e+20
1.336239882e+20
1.447593216e+20
1.224886559e+20
1.55894653e+20
1.55894653e+20
3.340599706e+19
8.908265883e+19
1.447593206e+20
4.45413291e+19
7.794732703e+19
7.794732648e+19
8.908265883e+19
4.454132941e+19
5.567666177e+19
)
;
    }
}


// ************************************************************************* //
