/*--------------------------------*- C++ -*----------------------------------*\
| =========                 |                                                 |
| \\      /  F ield         | OpenFOAM: The Open Source CFD Toolbox           |
|  \\    /   O peration     | Version:  2406                                  |
|   \\  /    A nd           | Website:  www.openfoam.com                      |
|    \\/     M anipulation  |                                                 |
\*---------------------------------------------------------------------------*/
FoamFile
{
    version     2.0;
    format      ascii;
    arch        "LSB;label=32;scalar=64";
    class       volScalarField;
    location    "0.007";
    object      translationalT;
}
// * * * * * * * * * * * * * * * * * * * * * * * * * * * * * * * * * * * * * //

dimensions      [1 2 -2 0 0 0 0];

internalField   nonuniform List<scalar> 
654
(
754.4812273
769.3251514
766.9597448
760.0978224
750.1925542
743.7898705
758.0753623
766.1329336
768.2458648
760.5181766
766.8532421
764.2075872
755.8609511
760.014938
755.6913754
748.9267185
745.4088186
658.0616664
686.2890231
699.6763931
720.152464
727.6766831
741.9517464
746.2342077
747.5180355
753.6165822
757.015886
757.8800386
757.274946
749.0613298
749.5190046
748.7265598
746.3573341
459.2295198
483.8649652
505.5063298
545.7450754
565.3855798
587.8382712
615.3259744
647.7425637
665.6428236
692.0921002
704.9699671
722.0630586
735.3529745
735.4146479
735.8569031
737.2462685
743.4106594
750.7578594
747.5614634
746.0810244
741.5867298
738.5154017
335.9720539
343.6979486
351.7279582
370.0745175
390.2299743
399.480069
410.1252533
417.2663076
440.785488
467.2540395
488.1335857
510.6579841
545.3468017
563.0154089
590.2092925
617.1903834
637.9195262
659.0061513
680.1905367
703.5515437
720.3415108
722.7474324
729.62834
739.5469926
742.2676878
741.3619364
740.6902251
735.9227581
729.6601866
326.9228481
330.2597007
338.054343
342.2287449
350.9497793
360.7256956
373.923346
389.9401971
395.923663
414.4055783
432.3923842
453.874668
478.588898
496.2253938
528.3812453
545.9244892
572.2831437
599.5578848
622.6909407
643.6889599
662.079787
686.97851
696.518253
710.8890775
727.9417614
724.0112967
729.4301814
731.4293942
723.5258247
727.9995089
320.6207476
319.9945795
329.1333055
335.3606961
344.0825698
348.0730728
352.5190189
364.1251392
376.9110964
393.8464691
402.4110596
422.2784883
443.0119404
463.6459924
497.1324378
509.5181229
532.8182523
558.762116
578.2715946
604.1388384
619.2696995
650.8916328
665.1418065
686.3462025
702.7698092
709.9821187
720.5179609
721.4117441
719.4761335
713.0908306
317.5291651
320.7273089
318.7642901
322.1518002
329.1329372
337.8058467
342.682796
345.6326526
361.6015016
373.397519
385.0256544
396.9358133
401.5362423
418.108328
450.3641538
468.9761238
494.4991687
522.265089
539.6227171
566.7586417
592.3588776
620.4679726
630.419477
659.6948601
676.2332988
687.1154221
699.573448
712.6422708
719.334777
716.1693757
311.9334028
313.6657837
320.1521006
317.4984658
319.3955892
326.6402113
335.7591701
336.4930952
346.0236517
355.4201181
368.8966932
374.7254324
386.5965797
394.3217375
413.3913152
436.0478929
455.1210991
483.256698
504.9033928
534.5942172
551.1903865
589.0980626
607.4114055
620.9926807
651.9607178
671.39747
685.6485014
698.7797017
701.869764
711.2269969
309.9479183
310.7746425
312.1564762
314.7024649
321.4381843
325.2679285
330.8695532
333.6679623
338.7010714
342.7679925
354.1511286
361.9268875
364.0835582
379.8616098
391.0005449
403.6340718
421.2813078
444.8874613
470.3735912
484.8637808
511.6297356
535.4508968
570.9801025
581.9708522
604.7438557
632.1917632
649.5586665
668.3419304
683.1526774
688.9768531
309.6520578
310.2549598
310.4389341
314.1112629
315.2759904
319.726206
321.1076055
325.3021039
329.9538134
332.2509785
339.9015926
350.605992
354.6954995
368.6741444
384.0352346
395.3325226
405.9779042
422.9859634
435.1205629
460.1798961
473.2297035
493.1635638
522.9208962
544.4092867
562.9798339
588.4511702
616.8709093
634.1292842
657.0532063
665.4019764
304.5241095
303.0027786
304.0933392
309.1350111
310.2417766
313.7200921
315.5301917
322.2072154
324.4664194
325.466596
332.2551622
342.1181989
346.6975722
347.0142016
355.4653281
373.3389719
378.9880148
393.8672743
416.453757
430.6806258
444.0427106
458.1694386
489.4791312
508.2522493
527.3636759
555.843123
580.519892
603.0871277
624.0078127
647.3322661
305.718941
306.8466487
309.391527
310.5256856
308.0735877
310.2174947
311.7921001
316.2298934
318.2108052
321.6880183
323.1134536
325.7414938
330.2641916
337.4088007
346.3707949
361.2116939
367.912976
374.0036416
386.1112915
397.3917613
421.2867417
433.3716856
452.0780283
472.7471425
497.7388452
514.415579
538.577524
573.5727651
598.407893
616.3441915
302.3061298
301.4166177
304.1032787
309.3201741
307.4099527
307.8950269
312.0289706
312.0179918
315.6578017
319.800835
322.0022846
327.9020292
324.3047042
329.7301113
333.2347347
345.9541939
351.9722733
362.7622823
369.811472
385.8697212
387.2318965
406.6509935
425.0020595
446.6883636
460.9568912
475.2712391
501.3027276
527.2045437
551.9206554
582.5966291
300.4439036
301.1927438
300.7077642
300.6376523
303.2938327
305.1989815
309.7525076
311.164415
312.6105827
314.3308729
319.1191118
318.0632046
327.6062297
327.8673592
329.4699254
336.0623803
341.0538046
349.6812018
357.667378
368.0146313
375.3643776
391.0045721
402.7974288
425.739142
436.1104524
451.5808871
474.1864588
502.5603881
520.8240269
546.4752094
302.7096559
301.8037505
301.5601963
301.7729187
305.2260225
304.6668416
305.3819096
305.785149
306.3407335
310.2524846
314.3386348
316.0860908
317.9188896
317.97779
326.6743502
331.8167871
335.7030144
343.3922918
348.2284158
355.5899181
369.5290502
372.8602198
389.6813292
404.0554456
405.3857316
423.4258887
437.9123267
456.7178103
489.3173231
512.5710914
306.0797078
304.4876449
305.3113353
302.864987
302.067946
303.2913437
304.1402928
303.6154557
306.1829987
306.5563769
309.7341063
311.9336419
317.3008604
314.6837008
316.6444206
320.7316161
327.3651014
329.01526
334.4529341
339.2755364
346.2114795
352.2787238
361.2412289
377.4563698
387.8207425
403.1684318
417.6499266
440.5586228
451.4684957
476.8292842
302.0059842
304.1295176
304.1734392
304.9593234
302.846761
301.220914
302.8778014
305.1872365
302.7950993
304.1644289
304.1146083
305.0037449
308.7193166
312.7026554
314.3985154
314.5086604
320.0597634
324.969162
329.332637
328.8432679
333.5689252
343.5259293
350.3545846
360.7972195
378.8279248
382.8145765
398.8092016
410.4487166
422.8527203
444.5185736
297.0608362
295.8502364
297.0498206
300.6783193
304.3527232
303.6452498
303.4423684
305.3229223
303.8537344
301.9187038
304.235145
304.9833691
306.2626029
308.5810575
310.646591
310.9390485
314.3061559
319.6053251
321.6318711
325.4279525
327.2563884
333.8473007
338.2510059
353.6257012
359.381525
374.8222128
379.3009934
393.8558909
408.0306605
415.9000197
302.5240526
301.3931015
300.7291389
302.67454
302.6138258
302.3130572
300.9124268
298.8033169
302.0326319
301.680432
303.8612615
302.3816735
302.7413606
303.43453
308.8453112
311.2725311
313.0655398
309.1430766
316.1948661
319.0993743
322.7865491
325.6272209
328.5832237
337.8486504
343.3621116
359.6239418
369.9849947
374.9573363
395.6111706
402.2775
300.6109151
301.5448794
300.0073238
299.0339381
297.8341208
297.1301599
299.1620112
300.3961668
302.7473165
303.0393216
302.2125763
303.2345844
300.9220041
303.2899096
306.4759929
305.8433567
309.0127687
311.4411494
311.6183661
314.2352669
317.9847396
321.1803146
325.8568531
327.7082097
330.7023628
338.3846425
345.502139
362.2751132
365.8511015
383.9758325
300.5168335
300.4339126
299.4019243
299.5945466
302.0877084
300.4439581
300.7340551
302.7260532
301.2466556
302.0992517
301.5664229
305.9158626
308.8946592
306.560945
306.9089657
307.7585614
309.9403675
308.9543108
306.7632607
312.9906918
315.5663481
319.4575544
318.9980621
325.7894096
326.5303651
335.0077666
341.2241394
348.4026328
359.0485146
369.2438946
300.488005
301.6752057
301.3619775
301.4476575
303.4125233
304.3601096
301.7690716
301.5524071
301.72384
300.580019
300.723311
301.5494994
301.6205409
302.5073447
305.2064013
303.6829754
303.7339791
307.213626
308.5799729
307.3268008
313.0019597
313.041469
316.2892272
317.9107646
322.810386
326.2409766
332.3406814
337.2313253
347.6454407
356.2367839
297.5828265
300.1861903
302.9971578
301.0263419
299.5616775
299.4947355
300.672271
300.4715407
300.8761523
301.1418719
302.5601661
302.9114299
304.5019619
301.6923681
301.8750884
305.5763894
303.2153021
306.0244784
301.8924238
302.6332035
304.9128295
312.8505759
314.1945205
313.6375904
317.704452
314.3646978
318.3571476
329.7841073
331.9955175
343.4159969
)
;

boundaryField
{
    flow
    {
        type            calculated;
        value           nonuniform List<scalar> 
55
(
754.4812273
743.7898705
745.4088186
746.3573341
738.5154017
729.6601866
727.9995089
713.0908306
716.1693757
711.2269969
688.9768531
665.4019764
647.3322661
616.3441915
582.5966291
546.4752094
512.5710914
476.8292842
444.5185736
415.9000197
402.2775
383.9758325
369.2438946
356.2367839
343.4159969
297.5828265
300.1861903
302.9971578
301.0263419
299.5616775
299.4947355
300.672271
300.4715407
300.8761523
301.1418719
302.5601661
302.9114299
304.5019619
301.6923681
301.8750884
305.5763894
303.2153021
306.0244784
301.8924238
302.6332035
304.9128295
312.8505759
314.1945205
313.6375904
317.704452
314.3646978
318.3571476
329.7841073
331.9955175
343.4159969
)
;
    }
    obstacle
    {
        type            calculated;
        value           nonuniform List<scalar> 0();
    }
    frontAndBack
    {
        type            empty;
    }
    procBoundary3to1
    {
        type            processor;
        value           nonuniform List<scalar> 
36
(
758.6001757
770.4800946
763.600791
766.9155341
760.2391304
760.2391304
770.0178196
766.2284665
773.2301897
767.4850846
775.3044796
766.8534039
766.8534039
705.5667619
721.0730088
736.9609097
747.5466664
752.9030354
752.9030354
505.8778386
521.7252731
563.8574105
587.7341778
607.3788765
630.9717924
630.9717924
353.1268932
358.7862393
368.7975134
394.5748556
415.3930697
419.6494487
432.2710853
432.2710853
337.429935
337.429935
)
;
    }
    procBoundary3to2
    {
        type            processor;
        value           nonuniform List<scalar> 
19
(
320.9310451
311.7370588
311.7853868
308.0670788
304.8226084
306.659335
301.1778642
304.0755657
302.1353631
300.3997263
302.3622387
304.3535175
301.3150298
297.6705683
298.7737603
299.8768508
299.5325277
301.0696556
297.765702
)
;
    }
}


// ************************************************************************* //
