/*--------------------------------*- C++ -*----------------------------------*\
| =========                 |                                                 |
| \\      /  F ield         | OpenFOAM: The Open Source CFD Toolbox           |
|  \\    /   O peration     | Version:  2406                                  |
|   \\  /    A nd           | Website:  www.openfoam.com                      |
|    \\/     M anipulation  |                                                 |
\*---------------------------------------------------------------------------*/
FoamFile
{
    version     2.0;
    format      ascii;
    arch        "LSB;label=32;scalar=64";
    class       volVectorField;
    location    "0.007";
    object      UMean;
}
// * * * * * * * * * * * * * * * * * * * * * * * * * * * * * * * * * * * * * //

dimensions      [0 1 -1 0 0 0 0];

internalField   nonuniform List<vector> 
654
(
(1308.818578 415.1980106 -1.195933386)
(1354.94522 436.496452 0.2622657155)
(1345.076954 437.3963817 2.347475636)
(1338.440694 431.3517946 1.451181513)
(1339.401395 426.5903691 2.265363862)
(1331.391287 421.2852645 0.943770526)
(1433.23834 377.1115361 0.456353735)
(1423.978815 389.2001826 -1.264527592)
(1411.279745 406.9894892 -5.760120815)
(1403.629123 415.5363148 -6.549398537)
(1387.945772 426.5516521 -0.8172251449)
(1372.529228 431.2769894 -6.593797291)
(1373.734609 430.6808922 -4.457932263)
(1368.759889 436.547073 -3.046553509)
(1364.14182 439.0455815 -2.174725093)
(1361.451309 431.4504739 0.286962524)
(1355.066276 426.1918839 2.83425045)
(1553.452163 238.8900125 1.7627832)
(1534.828364 259.9520075 -1.364627551)
(1517.306958 284.1000221 0.3436028826)
(1499.028952 306.1914486 -3.53089523)
(1479.29656 325.4647827 -1.429870632)
(1459.603305 357.0394799 -3.458253914)
(1445.375476 367.8247958 -0.06552861901)
(1434.93192 381.17056 -3.887806117)
(1424.017457 400.1142788 -4.772519895)
(1413.959086 411.6140187 -2.032551178)
(1404.083878 426.2601435 0.6839720215)
(1388.881059 431.7107021 -1.959056437)
(1388.303678 433.0583964 -1.453506286)
(1377.070755 432.5259772 1.656291563)
(1372.790254 436.2236826 -2.66142482)
(1373.636963 431.0364128 -2.437924137)
(1668.388792 79.14149758 1.241125451)
(1659.476381 93.28473892 0.3373921936)
(1648.132723 110.7852112 1.363757251)
(1631.689831 132.7479789 5.96142149)
(1625.46667 152.3318351 4.740661034)
(1607.022029 170.9261372 -2.092970694)
(1591.085999 191.7106036 -0.1180083917)
(1568.093198 219.7040646 -2.325702114)
(1556.396037 242.577143 -1.677231208)
(1535.867754 272.3870976 -1.26628041)
(1519.302165 291.9094168 -2.343066904)
(1496.814174 315.1336629 1.50217605)
(1479.096087 344.131743 -2.625021248)
(1463.596508 359.2665784 2.646874892)
(1449.378855 375.0073188 -1.099864377)
(1437.219776 393.7500999 -3.060546615)
(1428.719135 407.9824466 -5.076245339)
(1414.080351 421.7582547 -4.8622031)
(1400.587757 424.6019039 -1.361059357)
(1396.734737 431.0124496 0.2183956685)
(1390.574376 434.7398891 1.309395596)
(1387.736294 431.94909 1.811768714)
(1723.222502 15.41401909 4.402323698)
(1718.523837 19.33516611 4.346188748)
(1715.394592 25.29211888 4.710532543)
(1711.641909 28.02347876 3.520557235)
(1704.876423 36.36040973 1.668393711)
(1701.365284 43.34752609 1.085435404)
(1694.683024 53.61196785 1.817031508)
(1687.228376 60.54242387 1.670974745)
(1677.946461 73.40190925 -2.464878153)
(1667.128914 88.42832549 -3.685901472)
(1655.987396 103.7342186 -4.490130119)
(1645.747626 122.8042544 -1.899164927)
(1630.661969 141.4494048 0.9219119256)
(1619.332426 160.6985146 -0.5101221228)
(1601.272362 182.3591915 -0.9818346794)
(1582.275394 205.738924 -3.324533594)
(1564.361526 226.3831828 -0.4109560156)
(1548.483131 256.721371 0.3274275183)
(1530.612462 278.1264762 2.631483981)
(1506.559891 307.1932093 3.221089318)
(1493.89675 333.3861705 -3.248267978)
(1479.682545 349.388296 2.987001761)
(1467.042536 368.8315347 1.688653712)
(1448.818589 385.6569929 0.04119499383)
(1441.338548 398.5882773 -0.3402549569)
(1430.877464 412.1997291 -0.2200430332)
(1417.646183 418.6844642 -4.161702049)
(1413.696002 423.4331543 -0.3763006935)
(1405.772094 432.7941679 -0.340228955)
(1727.712927 11.97151343 -0.8837886024)
(1729.009008 17.00035093 -1.480009894)
(1724.215635 17.86132489 1.186888202)
(1724.419077 17.86994863 0.6996337616)
(1719.583517 20.29857574 0.9673741637)
(1714.259912 26.77032236 3.940329204)
(1710.05627 36.80294471 2.973469188)
(1704.42238 46.52743156 -0.2549651456)
(1700.944291 51.21119649 -1.04409205)
(1691.395327 55.74036211 0.6329182608)
(1681.893208 65.83930892 0.05730622747)
(1673.638752 79.8878998 1.180075607)
(1660.536617 96.35362462 0.9638368953)
(1652.571988 111.2804695 3.985888421)
(1637.002955 128.6232143 5.901551291)
(1628.063071 146.5679116 5.795626359)
(1612.398486 170.542013 1.424481423)
(1598.347301 195.6891055 -0.5155125957)
(1580.666164 219.5977846 -3.626759557)
(1563.060177 244.8153014 -6.235609107)
(1543.070861 267.5944812 -3.887674137)
(1523.789671 295.9612154 -3.717773005)
(1507.564054 319.3559566 -2.793522999)
(1491.465939 335.9554139 3.565192989)
(1475.364565 357.3653817 1.251559128)
(1461.089351 378.5471525 -2.274197154)
(1451.485588 393.4633178 -1.367724645)
(1445.078277 406.9277871 -3.999235805)
(1435.815682 418.0886496 -5.915759989)
(1428.777498 424.9238269 -2.729567586)
(1731.66716 9.644948436 -0.01885667566)
(1732.089465 6.56773417 0.1834520728)
(1729.525633 11.47530577 1.311240254)
(1726.129111 15.36587763 1.739534807)
(1723.369123 18.4827937 -0.8585831881)
(1718.860425 22.39180508 0.7535732218)
(1715.069688 24.28759302 1.391250674)
(1712.412969 27.70266337 1.505235891)
(1710.166692 37.39069648 0.7677198117)
(1699.810013 47.48584988 -0.7077473911)
(1694.554175 53.92113649 -1.497925245)
(1688.433107 62.7909958 -4.267943042)
(1680.770662 74.07220391 -4.358181407)
(1668.379044 88.46830702 -4.698446577)
(1651.152649 107.9041293 -4.95866415)
(1640.549577 122.5665885 -5.731016634)
(1630.841164 141.4764619 -1.074951666)
(1619.109485 164.8158824 -3.307951525)
(1604.133748 183.8243305 1.125594562)
(1589.294991 206.4017063 0.8146038714)
(1581.286128 227.6153758 -0.3178443883)
(1556.347046 257.9041009 -0.1113548783)
(1538.387299 282.8095738 -3.928442929)
(1517.525623 305.9615416 -1.966751012)
(1498.849797 325.976791 -0.2852357793)
(1486.787209 344.6450079 1.052520657)
(1472.913084 368.3344073 -0.3305534518)
(1459.305559 385.662683 -0.4840498163)
(1452.795207 398.2505539 -7.13047222)
(1443.685235 409.9449965 -7.699660772)
(1732.018506 9.074916886 2.345140749)
(1728.263495 9.706707991 1.311526177)
(1727.855154 8.620361007 -0.5611431396)
(1726.550765 10.23993627 -3.466461786)
(1723.815116 13.24858454 -3.167582708)
(1723.929331 17.87747994 -4.965241824)
(1721.368374 22.49285721 -3.849811117)
(1718.223238 24.48464794 -3.441349907)
(1714.273679 27.07282669 -2.529944329)
(1709.429109 32.57108476 -1.110343983)
(1702.234701 36.41498934 -2.464238697)
(1694.349066 44.79912414 -1.772731476)
(1692.080988 55.03658162 0.3534935836)
(1687.282978 70.77713711 -0.2336731779)
(1673.247184 86.0606133 -2.048697898)
(1668.043993 103.1109615 -1.653672561)
(1656.839452 116.689161 -1.879678895)
(1642.303965 134.0857989 -1.597053844)
(1634.946697 155.5099376 -4.348498994)
(1615.12009 177.2218393 -2.538939208)
(1598.741496 197.4090833 -2.726099127)
(1585.354623 220.6197898 -2.717474694)
(1575.998332 236.0196636 -1.433788468)
(1548.457318 268.4472925 -5.398943827)
(1525.374531 296.9697708 -1.866476543)
(1514.760163 318.2971435 0.1099942666)
(1495.257014 342.2140954 -2.654576344)
(1484.252894 363.7326879 2.020753011)
(1465.120415 379.7692264 2.424506666)
(1460.6046 392.1337572 -2.753482124)
(1731.667872 3.529432256 -0.6984336254)
(1728.938442 5.389711935 -0.7188578482)
(1729.84504 8.254061692 -1.52983187)
(1726.432416 11.84664333 -2.135476521)
(1727.368984 16.00144643 0.7193526043)
(1724.334005 16.30452466 -0.6087783359)
(1721.60212 16.77946778 -4.05153905)
(1722.368141 16.27058307 -2.463115863)
(1718.409524 20.64816815 -1.860367458)
(1717.143318 24.6159753 -1.513640743)
(1712.128835 33.42639341 -0.723653209)
(1710.400628 39.27968138 -3.587544015)
(1702.889401 48.03964518 -1.672343969)
(1697.38133 52.56016896 0.0887318314)
(1692.190156 60.92543605 -0.4396321963)
(1682.547069 76.33166099 -3.715799112)
(1671.792186 93.90426945 -2.694642693)
(1660.977586 114.9292193 -3.221908843)
(1650.487599 126.3223814 -4.641190424)
(1637.378352 146.1304966 -6.120937233)
(1626.261557 162.0496363 -5.578650847)
(1599.974778 187.592343 -2.289476659)
(1587.862555 211.6159075 -1.716349048)
(1579.357817 231.8991919 -0.8163721114)
(1558.20846 258.370718 -0.7378469551)
(1537.610316 289.065482 -3.85361298)
(1522.632609 308.0257681 -2.344691124)
(1503.00848 326.7631377 -1.524651834)
(1494.003812 346.5797145 2.980213966)
(1478.999762 370.7469528 3.174961514)
(1728.635274 -2.18292746 -0.0500065368)
(1730.087621 -0.1156195445 -0.7136112513)
(1727.957879 4.806924124 2.17046498)
(1729.328302 6.371375442 2.532245597)
(1725.723985 8.02864503 2.949856744)
(1724.79871 10.5651432 2.515868798)
(1723.78763 11.32284891 4.232172946)
(1725.144197 17.35009316 1.681691438)
(1721.534282 18.42701106 2.491726649)
(1720.044264 20.27530536 2.326995185)
(1715.739581 26.56986102 1.793251813)
(1712.251395 30.7852574 3.667714716)
(1713.144247 33.75567281 0.04961356082)
(1707.163293 44.3109256 -2.082703329)
(1701.69622 52.69643483 -3.705791858)
(1695.550851 60.80413179 -4.66747691)
(1688.570487 72.59284153 -3.276229198)
(1677.960683 82.94995641 1.161491746)
(1666.138162 101.4512935 1.178933644)
(1654.581505 118.662091 -1.349867222)
(1641.830826 137.6533634 0.4537455179)
(1629.573293 155.1948158 -2.236661292)
(1611.450534 181.7305991 -1.886305105)
(1601.928655 195.1624525 -1.859575129)
(1587.188599 219.9564 -2.511461302)
(1566.919994 243.4195988 -1.015606609)
(1550.698531 271.4109937 1.296000921)
(1535.321717 301.5472382 0.3817422377)
(1521.625848 329.2936936 0.8399828407)
(1505.277515 343.9565736 2.70211394)
(1734.479182 2.77285478 2.755844433)
(1733.508412 3.318762461 1.296600621)
(1732.968898 2.106674308 -0.528695455)
(1732.95727 1.223163622 0.2848385242)
(1731.908047 2.496688563 -0.9928345566)
(1732.995876 3.911322637 0.3308175544)
(1731.58747 8.371972248 1.610900413)
(1727.40366 11.33019637 3.67039724)
(1725.435819 15.49543278 0.4236998641)
(1724.775034 18.21343086 -1.017773286)
(1723.212279 21.85748431 -0.1365781922)
(1716.102146 28.86854692 0.04362146575)
(1714.416854 33.27631406 4.237916673)
(1713.887422 37.00667797 1.989183154)
(1706.277974 41.82577568 0.3135569603)
(1704.701877 45.19142437 0.4676462719)
(1699.17735 54.73772446 2.021892017)
(1689.671201 67.79942666 -2.178929404)
(1681.52416 78.46000089 -0.1592049356)
(1671.984081 93.01395314 -0.6080835377)
(1666.442678 103.7821944 -4.993711387)
(1657.618037 121.1850171 -5.385250841)
(1641.160971 140.9645435 -3.433456089)
(1626.894477 162.260917 -3.033174889)
(1611.832784 181.4699174 -5.797167891)
(1596.674192 213.22129 -4.546238431)
(1584.242004 245.9846451 -4.570755775)
(1561.214918 268.6146882 0.3511907498)
(1541.040831 290.275338 -2.333214172)
(1528.064051 309.2712931 -4.185597506)
(1734.196342 2.604228804 -4.710494142)
(1734.143752 2.816717321 -2.526743049)
(1734.227335 1.394633254 -0.7410481226)
(1734.041146 0.6399179973 0.2506496813)
(1733.297822 2.650233604 0.6632822831)
(1732.848743 6.736882643 0.3167438957)
(1732.256079 7.188369113 -0.5750185826)
(1727.476594 10.16342023 1.044111161)
(1727.250982 12.76450524 -0.07556183319)
(1729.464992 16.64451778 1.807984929)
(1725.99973 19.55455618 1.186931653)
(1721.209755 23.00781864 -2.120734274)
(1718.578458 25.84983542 -3.323368207)
(1718.073632 27.00657608 -2.482625946)
(1716.414153 34.9071072 -2.156518624)
(1708.547967 42.43208949 -1.3650421)
(1705.513281 44.4303518 -3.789318445)
(1700.106058 49.75154257 1.810133298)
(1692.220252 57.92466734 -2.918244471)
(1684.921112 72.75822128 1.419002381)
(1675.121932 82.19287214 2.792655646)
(1668.713541 95.88638651 0.8672361813)
(1658.285693 116.4099327 1.017134581)
(1650.308007 138.1025114 -0.1480559038)
(1638.859699 156.2835273 0.1573744594)
(1619.5551 178.9697247 0.4113707371)
(1598.160713 203.1774025 -0.3971674005)
(1588.60051 229.4337157 -2.863480856)
(1573.335235 251.0516535 -5.577493957)
(1554.337948 274.4915299 -4.877968332)
(1737.962472 0.3629503324 -0.08812742933)
(1738.164475 1.477920059 -0.5149988848)
(1737.1718 3.810011103 -2.981478296)
(1733.021927 5.207823827 -5.821871387)
(1731.503128 6.314645884 -5.081039704)
(1730.957226 4.055662136 -3.792591438)
(1733.202035 5.682400775 -2.137147143)
(1730.93145 6.993527423 -6.323066274)
(1730.260746 11.42730588 -4.733173166)
(1728.571865 12.19327912 -3.392119699)
(1728.304172 13.36129136 -3.655388973)
(1729.291432 12.77199572 -1.617588727)
(1727.001193 17.40119066 -1.945716826)
(1723.159782 21.98485377 3.029712282)
(1718.721936 27.91802153 4.70978097)
(1714.988815 30.88271387 3.348602198)
(1709.696312 34.01777372 2.768816521)
(1708.848911 35.95569745 -0.6323493922)
(1702.389027 47.74559669 -1.277424438)
(1696.489526 55.22331499 1.050448217)
(1686.488835 70.46176588 -0.2275381573)
(1681.29959 79.5486181 0.4393954859)
(1669.30322 94.73114922 -0.6359901733)
(1659.187686 113.959058 0.02337441547)
(1648.813001 128.0565398 1.978230659)
(1640.465929 142.026494 -0.6458202257)
(1630.812382 166.4293715 0.253276224)
(1610.258738 190.1515801 -4.904551374)
(1591.63899 215.4267453 -0.28069679)
(1576.98997 244.3522699 0.5368244933)
(1731.812542 -0.719575812 -2.820320792)
(1732.212503 0.8932142922 -4.673920147)
(1731.262063 2.266252857 -2.960240687)
(1729.854496 3.613309825 -3.150269515)
(1732.755701 5.450844101 -1.70640027)
(1732.417515 6.192697813 -3.227742231)
(1729.294317 5.776170734 -4.603722296)
(1731.76904 5.19254352 -1.285466545)
(1733.502493 5.437873047 0.1766048837)
(1732.359689 6.739582192 -1.176276505)
(1730.690988 9.998951878 -0.9094836455)
(1728.173264 13.49716999 1.564215731)
(1728.133684 9.229282014 0.5649327293)
(1727.326884 7.584666535 -2.465644268)
(1721.248982 11.7884588 -1.677972401)
(1718.574748 21.98959712 -3.021351383)
(1713.766795 28.16253795 -3.263891845)
(1709.725063 35.81801472 0.1179574669)
(1706.088656 39.60160179 0.6991546899)
(1699.954469 44.56935306 -1.721914923)
(1699.677568 49.1297875 0.220198509)
(1691.823122 66.6569478 -2.65897679)
(1684.882371 78.61744298 0.1017485219)
(1673.6589 85.72226148 2.034547973)
(1665.496676 102.8407213 3.310107286)
(1660.006508 116.4090379 5.871788938)
(1645.689337 137.8637366 3.943349445)
(1630.712769 158.3054988 5.154570837)
(1617.790511 181.8298755 3.816076228)
(1602.619212 210.7901865 3.789014138)
(1733.438426 2.717287913 -2.51022308)
(1737.73989 1.277167527 -1.232519583)
(1737.620202 0.8958807616 -0.8573180684)
(1737.574713 0.533634763 -0.6461502546)
(1735.203414 -0.04731854328 -1.010130603)
(1735.453209 1.227391444 -1.252651407)
(1731.380871 2.033822916 1.195534763)
(1730.631839 2.828140522 0.4849529656)
(1728.745882 4.481175707 -2.158224334)
(1729.55794 6.50309437 -3.172384474)
(1728.309528 4.429872298 -1.954369901)
(1728.68405 4.735151095 -3.078725541)
(1727.059132 9.8379929 -1.095932728)
(1727.472972 13.29164984 0.5449376101)
(1724.542716 13.68178598 0.9021733972)
(1720.255061 13.54465198 -0.1799516535)
(1721.548677 15.8039702 2.231725558)
(1716.468613 24.39242102 -2.562765984)
(1715.335644 32.02117807 -0.4952178365)
(1712.163583 43.53679362 3.02595729)
(1707.981945 44.06291455 3.322730393)
(1700.064859 48.76351955 5.186440864)
(1694.867246 54.37539592 1.771125928)
(1684.334416 67.6987933 0.8957659309)
(1678.396691 75.56599577 0.08845140271)
(1668.30761 90.39207464 -1.146473845)
(1660.043414 109.7285184 1.001228523)
(1646.497479 132.6069486 2.465522813)
(1634.538134 154.6743214 2.946982154)
(1622.585926 181.9588821 3.362552626)
(1736.603578 2.698237525 3.144968375)
(1733.749453 2.706465831 3.132225823)
(1735.318605 1.356208367 3.916552878)
(1733.995825 -0.7560199308 1.487798162)
(1735.125799 -1.713097297 1.316722557)
(1737.201321 -2.044829574 0.4316837902)
(1735.289684 -2.543219653 -1.691939602)
(1733.733848 0.9456968198 -2.045787424)
(1732.377142 1.291061189 -1.278882163)
(1731.334205 2.749391715 -1.877676472)
(1729.812242 6.326192949 -3.103729664)
(1728.62672 7.165701331 -4.065392734)
(1727.775606 7.03932588 -2.33625978)
(1725.02865 9.681644781 -2.901714794)
(1724.300914 14.36230773 -3.173419626)
(1721.492266 19.8376121 -2.081216809)
(1723.152425 21.28884428 -0.1896994156)
(1722.562662 23.23326488 2.139857153)
(1717.703941 21.21429923 0.5621565342)
(1718.383752 23.54756466 -2.890611714)
(1715.534414 32.85312194 -4.226493304)
(1711.345022 38.15972535 -3.050100207)
(1703.840405 47.16331566 1.383824)
(1697.234842 57.0569714 0.5873686658)
(1694.017507 63.92345103 2.349539301)
(1690.18288 77.64255949 -1.67503922)
(1677.746568 87.51853961 -1.725471493)
(1670.908832 101.029111 -1.166843392)
(1654.59939 124.7957784 -0.659654324)
(1639.531852 144.6387053 -1.801698461)
(1734.670915 3.561667384 -2.690695158)
(1732.4847 1.542319309 -3.117077674)
(1732.602687 1.919464208 -3.039024358)
(1733.741833 2.960538043 -4.579678543)
(1734.278526 2.961016116 -2.963863127)
(1734.577367 2.10505331 -1.498898808)
(1735.159438 3.420056961 -0.190612801)
(1735.425603 -1.895436443 -0.4251285588)
(1733.892648 -1.281168935 -0.8261385102)
(1733.494893 -0.4113823676 0.1773223946)
(1730.923373 2.183928693 0.8531297182)
(1731.842988 6.703139175 1.319071666)
(1728.688806 10.96238521 -0.4896842053)
(1731.064594 9.701056625 -3.151581429)
(1732.283312 10.8383433 -4.200636677)
(1730.319109 8.917469331 -3.985596359)
(1725.391979 11.99275197 -4.633642676)
(1721.66752 15.19844622 -4.440917288)
(1720.633863 20.06695153 -2.973766894)
(1719.156053 20.76941436 -1.506481416)
(1715.285946 24.10968993 -1.152500394)
(1714.697304 30.84400666 -3.73066663)
(1713.816711 39.787168 -5.256223919)
(1708.663728 51.32154479 -5.46627294)
(1703.756632 57.45773594 -4.616837094)
(1700.091782 63.40253915 -2.081539945)
(1693.25018 74.90432164 -2.24083713)
(1682.419529 85.98269322 -2.373530412)
(1674.251312 97.76948163 -1.056401162)
(1656.774508 115.6311685 -0.9388527506)
(1735.710863 -0.3295467177 -4.31037004)
(1736.510501 1.926871783 -2.307742397)
(1737.36249 3.180218282 -2.628760962)
(1736.712774 4.509378287 -2.231978616)
(1737.977959 4.69921565 -3.080052904)
(1737.440437 6.784379995 -2.969469738)
(1733.572865 4.048456464 -2.181524919)
(1732.639147 5.170732893 -3.287595589)
(1733.154204 4.070411711 -0.5152391749)
(1733.425328 2.010454312 1.873226432)
(1732.662993 4.096374477 1.905887331)
(1733.288651 1.175511512 1.778715125)
(1733.760367 5.693024734 2.776060457)
(1730.891177 6.98542558 1.541737071)
(1729.461825 2.699206282 1.478535388)
(1729.524074 6.285488342 1.159019876)
(1730.153145 10.13870951 2.487089964)
(1728.543034 10.31170402 -1.168005872)
(1724.730014 11.48663414 -2.216037724)
(1723.161614 16.7989897 -1.788314765)
(1721.14643 24.48197767 -3.643356496)
(1719.463512 28.43800908 -3.54341571)
(1714.559653 32.5241235 -5.22613749)
(1712.977264 35.26333547 -4.07570383)
(1709.01112 48.09962646 -3.51416368)
(1702.120819 49.58136874 -2.951618588)
(1697.415326 59.67521457 2.096007977)
(1694.418122 70.72732378 1.250556622)
(1691.116265 80.16584794 1.415282854)
(1682.478197 100.0706212 0.2412061707)
(1733.406149 0.03313282938 1.378876561)
(1735.242639 2.119564914 1.089635956)
(1731.441354 3.373898998 0.2383389348)
(1729.445529 1.935530787 -0.3331783193)
(1729.733652 -1.273396723 -0.3315469625)
(1727.850953 -0.03760303806 -0.3418237972)
(1730.898205 3.850132961 -0.143940499)
(1731.989719 4.083814074 -0.1303005702)
(1731.992197 4.088405183 -2.444083715)
(1731.075282 3.96382493 1.053255757)
(1730.894405 6.160876531 0.2048743387)
(1729.494874 4.320656001 -0.8690122523)
(1728.075964 -1.273924173 0.8438767285)
(1730.100306 3.083807494 2.425918751)
(1730.87808 5.073155304 2.234798365)
(1730.709736 7.181446649 1.603101652)
(1730.7457 5.157277596 0.1845905831)
(1727.644637 8.893993281 0.8327684206)
(1727.19782 13.23167918 3.208549928)
(1729.394331 11.52340333 3.291147996)
(1729.040184 12.72987029 4.598299863)
(1724.940412 16.3505447 8.738325384)
(1724.070149 22.61254441 9.351166898)
(1715.419785 28.84216686 5.750738064)
(1708.844625 34.12157794 2.899173449)
(1705.20504 47.13255957 3.084788854)
(1704.754534 49.72733226 1.233623392)
(1697.528833 57.65608808 2.632261252)
(1693.761264 69.64972583 1.521461325)
(1690.290818 73.54697087 3.012995507)
(1736.536477 1.660480417 0.7515640693)
(1732.476936 -2.360714419 -0.002923448001)
(1731.589871 -2.74188001 -0.4464869898)
(1729.781466 -1.32170709 -0.9622529461)
(1731.337187 2.193830885 -2.494503147)
(1729.540873 2.521240443 -1.220001692)
(1729.686047 1.495013592 -0.7645745832)
(1730.409176 4.601191277 0.2393885218)
(1732.050986 2.963485996 -0.6842529461)
(1730.553376 2.547233726 -2.327288545)
(1732.381948 -0.1354770122 -1.56381656)
(1735.368433 -1.044176595 2.089434588)
(1734.049733 3.244766696 -0.742863599)
(1730.930087 2.825930011 0.7545270342)
(1727.916202 4.809746337 -0.8799299756)
(1727.427821 4.144693012 -0.05880807162)
(1729.975667 6.766524741 2.587396582)
(1727.78245 5.3769883 2.526979513)
(1727.3382 8.768124658 1.511527968)
(1725.34498 9.37634442 2.456669544)
(1723.817715 14.77339543 3.033063043)
(1719.900384 14.98455387 1.953622416)
(1717.94125 18.79536699 1.921289293)
(1716.779347 23.17839285 1.942798554)
(1718.204938 25.33297824 3.591264362)
(1711.408888 32.23401485 3.190173396)
(1709.25183 44.62332402 1.146004453)
(1707.603153 48.58356469 -1.527428862)
(1695.888461 56.92912478 0.8648220332)
(1691.077095 62.24758868 0.4438619393)
(1733.551231 4.598618741 -1.920577475)
(1734.035392 4.630527565 -0.3079846013)
(1738.397931 3.488359042 1.674130291)
(1738.618962 1.958273526 3.984959558)
(1735.441402 0.4579697651 4.725148599)
(1737.468461 -0.4792468402 6.449834435)
(1734.867865 -1.289587588 3.838459865)
(1733.883863 -2.56979992 2.395119456)
(1733.515497 1.571919172 0.781245862)
(1731.862485 1.167397463 2.179988858)
(1731.727465 3.428984735 0.8086601328)
(1727.899022 5.75495072 0.7394483872)
(1727.684085 2.62002307 -0.4608937181)
(1727.5946 2.186495538 -0.4940097786)
(1728.854946 1.686569653 2.396442524)
(1730.186098 2.346928961 2.663039335)
(1730.20531 3.676313164 3.876785209)
(1731.085822 5.865195926 6.068892564)
(1731.078859 4.072331438 3.776586215)
(1728.487177 12.38077249 2.282339896)
(1724.548442 13.89354014 2.450652069)
(1727.196751 12.59755411 2.204718926)
(1726.438726 14.11762686 -0.1591168936)
(1724.279157 17.38958401 -0.1251479495)
(1722.122269 21.05224669 1.955952909)
(1718.639137 24.89600218 3.283104523)
(1714.001649 30.03043657 -0.7141505809)
(1708.711436 38.19148725 0.9536175698)
(1704.53783 41.22585436 1.456160914)
(1698.01343 51.78943208 -1.099434626)
(1732.274312 1.568533621 -1.483167831)
(1733.371117 -0.2366232957 -1.572652611)
(1730.16207 -0.8639481786 -2.676494572)
(1731.627833 1.053470774 -2.473281957)
(1732.035434 0.8794549556 -2.088779221)
(1731.94993 1.579821868 -2.194636555)
(1733.290117 1.375805599 -0.04681653726)
(1734.185178 1.626665191 0.5290788352)
(1732.322768 -1.591531177 1.433939934)
(1735.806496 -0.7663910255 1.388295429)
(1735.926486 -1.575326487 1.792776577)
(1736.471416 1.790785914 2.953766323)
(1735.68901 3.221797964 4.74998628)
(1739.519852 5.097835662 3.326315768)
(1736.444477 3.52434648 3.286144363)
(1732.973378 5.13437608 3.190385393)
(1730.979373 9.196551416 0.679306404)
(1730.769714 6.530339045 -0.9417692304)
(1731.220304 4.938532739 -1.666024975)
(1731.517323 2.984368017 -3.666846259)
(1733.044079 3.370669171 -2.401578591)
(1728.778485 7.204973481 -1.53873324)
(1728.507496 6.993595419 0.09219885428)
(1726.720492 10.63119602 -0.8522618681)
(1726.400778 13.5401312 -0.6233471029)
(1719.852151 18.49596477 -1.442202982)
(1717.485208 23.08243556 2.048402814)
(1715.121311 29.09418164 -1.589269046)
(1708.722662 38.43303843 -1.879354003)
(1705.872178 42.2924826 3.473370434)
(1736.235254 -0.9823639295 0.4473100262)
(1735.252677 0.3331229745 3.372583247)
(1737.667012 1.604032025 2.079069782)
(1736.458423 0.5674074158 2.853760431)
(1736.97737 -0.1484223437 1.20123018)
(1735.535597 -0.9017470168 1.030381781)
(1737.181473 -1.944480484 -0.8464038756)
(1738.506564 0.5383600616 -0.9468242417)
(1738.457737 2.165223883 1.169442883)
(1737.720072 5.131272016 0.2894642431)
(1735.846384 4.685743608 -1.034699808)
(1736.182562 2.448581641 -0.8110838869)
(1736.183471 0.6652596241 -1.929834986)
(1735.904849 2.180291113 -2.613419432)
(1735.661187 4.460686298 -2.325081004)
(1738.091273 2.739537561 -2.774804888)
(1736.383432 0.001839756436 -0.5048798558)
(1733.091871 2.676735731 0.03018528857)
(1730.939098 4.375414521 1.010777704)
(1732.632236 8.504320993 1.196363347)
(1730.235262 9.743794263 0.9858225921)
(1730.02263 12.49714614 1.02075777)
(1729.166818 11.88095975 2.748532812)
(1728.877532 9.397245489 1.68056617)
(1729.378419 10.5072885 0.4769561255)
(1726.313837 11.3939702 2.787561446)
(1721.47804 16.12503966 2.793608787)
(1716.711179 19.58021515 4.090199871)
(1715.65449 27.58997968 1.880101588)
(1713.522891 36.23523834 1.23013881)
(1737.050136 3.887901039 2.516565865)
(1738.633301 3.638818956 0.6905306386)
(1737.669595 4.464099114 3.445022945)
(1736.779787 4.159763417 1.25137521)
(1738.125363 2.625490621 0.5703880736)
(1738.131501 6.371964411 0.01999749798)
(1738.56202 7.461727426 0.9319220733)
(1736.15602 7.972289966 2.16586354)
(1739.430347 8.749218099 1.243654326)
(1738.392878 7.923475309 0.968837683)
(1737.497618 6.152949498 2.113358669)
(1737.059256 5.869635134 1.403139708)
(1733.703763 6.128335504 0.2146279081)
(1736.858568 9.077282866 1.458201768)
(1737.220487 9.908310444 -0.9682748976)
(1734.592148 12.21680929 -0.8095116734)
(1734.254396 11.55379976 -3.855733861)
(1738.030287 13.16172177 -3.136515685)
(1739.167815 11.56322293 -0.2966938266)
(1738.041845 10.74795753 0.2400339213)
(1736.327494 14.03937593 -0.4981549097)
(1733.751374 14.19350588 0.09286099419)
(1733.185424 19.01297081 -0.5953916882)
(1733.270809 14.26843886 2.112645321)
(1732.496534 17.09009227 1.702682363)
(1733.276838 17.8918372 0.588982348)
(1733.228607 17.75698752 -1.373628591)
(1730.378001 24.50251196 -0.2429993182)
(1729.285337 28.84290757 1.159199063)
(1722.289778 34.9532266 0.6062249152)
)
;

boundaryField
{
    flow
    {
        type            calculated;
        value           nonuniform List<vector> 
55
(
(1308.818578 415.1980106 -1.195933386)
(1331.391287 421.2852645 0.943770526)
(1355.066276 426.1918839 2.83425045)
(1373.636963 431.0364128 -2.437924137)
(1387.736294 431.94909 1.811768714)
(1405.772094 432.7941679 -0.340228955)
(1428.777498 424.9238269 -2.729567586)
(1443.685235 409.9449965 -7.699660772)
(1460.6046 392.1337572 -2.753482124)
(1478.999762 370.7469528 3.174961514)
(1505.277515 343.9565736 2.70211394)
(1528.064051 309.2712931 -4.185597506)
(1554.337948 274.4915299 -4.877968332)
(1576.98997 244.3522699 0.5368244933)
(1602.619212 210.7901865 3.789014138)
(1622.585926 181.9588821 3.362552626)
(1639.531852 144.6387053 -1.801698461)
(1656.774508 115.6311685 -0.9388527506)
(1682.478197 100.0706212 0.2412061707)
(1690.290818 73.54697087 3.012995507)
(1691.077095 62.24758868 0.4438619393)
(1698.01343 51.78943208 -1.099434626)
(1705.872178 42.2924826 3.473370434)
(1713.522891 36.23523834 1.23013881)
(1722.289778 34.9532266 0.6062249152)
(1737.050136 3.887901039 2.516565865)
(1738.633301 3.638818956 0.6905306386)
(1737.669595 4.464099114 3.445022945)
(1736.779787 4.159763417 1.25137521)
(1738.125363 2.625490621 0.5703880736)
(1738.131501 6.371964411 0.01999749798)
(1738.56202 7.461727426 0.9319220733)
(1736.15602 7.972289966 2.16586354)
(1739.430347 8.749218099 1.243654326)
(1738.392878 7.923475309 0.968837683)
(1737.497618 6.152949498 2.113358669)
(1737.059256 5.869635134 1.403139708)
(1733.703763 6.128335504 0.2146279081)
(1736.858568 9.077282866 1.458201768)
(1737.220487 9.908310444 -0.9682748976)
(1734.592148 12.21680929 -0.8095116734)
(1734.254396 11.55379976 -3.855733861)
(1738.030287 13.16172177 -3.136515685)
(1739.167815 11.56322293 -0.2966938266)
(1738.041845 10.74795753 0.2400339213)
(1736.327494 14.03937593 -0.4981549097)
(1733.751374 14.19350588 0.09286099419)
(1733.185424 19.01297081 -0.5953916882)
(1733.270809 14.26843886 2.112645321)
(1732.496534 17.09009227 1.702682363)
(1733.276838 17.8918372 0.588982348)
(1733.228607 17.75698752 -1.373628591)
(1730.378001 24.50251196 -0.2429993182)
(1729.285337 28.84290757 1.159199063)
(1722.289778 34.9532266 0.6062249152)
)
;
    }
    obstacle
    {
        type            calculated;
        value           nonuniform List<vector> 0();
    }
    frontAndBack
    {
        type            empty;
    }
    procBoundary3to1
    {
        type            processor;
        value           nonuniform List<vector> 
36
(
(1293.114133 396.9871036 -1.73961686)
(1326.683883 430.6264885 3.70842879)
(1318.792775 429.4166452 2.263059909)
(1316.281851 423.8628974 -0.8480422196)
(1310.222976 420.785734 0.7733324745)
(1310.222976 420.785734 0.7733324745)
(1410.902918 402.2824601 -0.7060758582)
(1398.825098 415.2671616 -4.767423962)
(1381.244756 417.420935 -1.54876238)
(1374.34824 423.3609131 0.9296350113)
(1361.710232 433.2138278 0.002682117878)
(1361.20457 435.5697142 -2.331932833)
(1361.20457 435.5697142 -2.331932833)
(1521.993205 273.9640948 -7.81634175)
(1503.569226 296.0248329 -3.878981695)
(1486.675013 317.7243071 -5.237328656)
(1467.279768 341.9493984 -3.738169301)
(1450.713558 366.3222634 2.410823114)
(1450.713558 366.3222634 2.410823114)
(1645.80567 104.6832503 -0.8162247708)
(1638.612613 116.0685116 -0.2088520237)
(1622.726629 141.0817591 1.683512809)
(1606.902331 164.7247993 1.254932903)
(1591.660027 181.9343481 5.35207495)
(1572.652226 206.8572948 3.531191582)
(1572.652226 206.8572948 3.531191582)
(1719.362396 21.24067165 -2.603330175)
(1715.247956 28.66948715 -1.508358348)
(1706.700825 31.40033012 -3.531252511)
(1699.156106 43.94091826 -1.33914093)
(1692.321421 54.38213102 0.7227270363)
(1686.269198 58.42266324 0.1279721288)
(1679.372703 64.43514949 1.582387175)
(1679.372703 64.43514949 1.582387175)