/*--------------------------------*- C++ -*----------------------------------*\
| =========                 |                                                 |
| \\      /  F ield         | OpenFOAM: The Open Source CFD Toolbox           |
|  \\    /   O peration     | Version:  2406                                  |
|   \\  /    A nd           | Website:  www.openfoam.com                      |
|    \\/     M anipulation  |                                                 |
\*---------------------------------------------------------------------------*/
FoamFile
{
    version     2.0;
    format      ascii;
    arch        "LSB;label=32;scalar=64";
    class       volScalarField;
    location    "0.002";
    object      dsmcRhoNMean;
}
// * * * * * * * * * * * * * * * * * * * * * * * * * * * * * * * * * * * * * //

dimensions      [0 -3 0 0 0 0 0];

internalField   nonuniform List<scalar> 
654
(
7.281
9.403
9.468
9.514
9.513
9.508
9.474
9.563
9.408
9.334
9.317
9.401
9.249
9.357
9.344
9.389
9.449
9.583
10.099
13.059
7.308
9.512
9.711
9.54
9.547
9.652
9.654
9.682
9.662
9.649
9.631
9.637
9.71
9.678
9.604
9.61
9.773
10.116
10.777
12.457
7.515
9.682
9.722
9.693
9.701
9.76
9.805
9.681
9.753
9.788
9.851
9.824
9.733
9.753
9.919
9.978
9.868
9.985
10.354
11.327
7.528
9.554
9.567
9.51
9.439
9.325
9.407
9.498
9.448
9.435
9.403
9.452
9.638
9.587
9.567
9.569
9.726
10.024
10.298
11.03
7.421
9.497
9.547
9.639
9.706
9.663
9.562
9.517
9.446
9.541
9.556
9.575
9.607
9.664
9.758
9.916
9.995
10.111
10.271
10.71
7.476
9.545
9.657
9.55
9.527
9.59
9.602
9.69
9.834
9.825
9.746
9.713
9.612
9.586
9.623
9.582
9.656
9.872
10.042
10.213
7.405
9.603
9.596
9.512
9.621
9.632
9.663
9.553
9.624
9.613
9.666
9.691
9.834
9.795
9.799
9.775
9.884
9.818
9.95
10.177
7.462
9.561
9.585
9.709
9.69
9.686
9.776
9.804
9.824
9.663
9.565
9.52
9.497
9.512
9.68
9.739
9.696
9.74
9.792
9.908
7.413
9.648
9.699
9.634
9.572
9.499
9.621
9.518
9.519
9.609
9.812
9.724
9.653
9.531
9.371
9.437
9.538
9.665
9.656
9.668
7.469
9.48
9.68
9.734
9.804
9.766
9.706
9.664
9.64
9.585
9.599
9.585
9.667
9.629
9.646
9.71
9.634
9.491
9.611
9.756
7.472
9.555
9.591
9.49
9.525
9.355
9.395
9.443
9.549
9.53
9.552
9.567
9.686
9.645
9.658
9.516
9.677
9.707
9.831
9.878
7.447
9.575
9.52
9.472
9.502
9.656
9.673
9.603
9.622
9.549
9.583
9.475
9.367
9.451
9.5
9.579
9.635
9.637
9.572
9.662
7.494
9.623
9.712
9.678
9.584
9.504
9.506
9.469
9.422
9.517
9.468
9.484
9.684
9.734
9.678
9.79
9.726
9.735
9.781
9.755
7.427
9.515
9.596
9.688
9.689
9.726
9.651
9.583
9.49
9.445
9.43
9.48
9.368
9.396
9.487
9.385
9.397
9.519
9.457
9.5
7.344
9.619
9.59
9.581
9.592
9.631
9.703
9.782
9.785
9.82
9.783
9.74
9.822
9.673
9.604
9.461
9.457
9.394
9.25
9.289
7.55
9.676
9.719
9.715
9.633
9.671
9.752
9.701
9.79
9.611
9.639
9.475
9.333
9.337
9.416
9.499
9.562
9.585
9.681
9.636
7.431
9.474
9.574
9.658
9.647
9.654
9.549
9.52
9.467
9.546
9.688
9.742
9.901
9.967
9.869
9.815
9.834
9.794
9.681
9.616
7.482
9.565
9.578
9.544
9.531
9.569
9.651
9.724
9.721
9.648
9.631
9.606
9.687
9.58
9.582
9.616
9.711
9.676
9.66
9.717
7.485
9.62
9.636
9.53
9.522
9.557
9.523
9.526
9.63
9.622
9.665
9.669
9.492
9.62
9.563
9.583
9.541
9.487
9.642
9.547
7.416
9.676
9.854
9.922
9.918
9.934
9.879
9.856
9.802
9.831
9.796
9.746
9.977
9.948
9.944
9.904
9.962
9.929
9.915
10.001
7.406
9.49
9.508
9.552
9.49
9.516
9.514
9.408
9.498
9.544
9.664
9.655
9.635
9.593
9.725
9.779
9.795
9.702
9.748
9.746
7.42
9.577
9.58
9.388
9.494
9.494
9.517
9.695
9.733
9.769
9.648
9.645
9.552
9.567
9.51
9.546
9.546
9.553
9.634
9.556
22.951
26.453
26.707
27.82
28.358
28.358
28.317
28.198
27.035
27.884
15.675
18.847
20.54
21.922
23.134
23.598
23.79
24.494
24.375
23.689
13.002
14.922
16.85
18.308
19.543
20.304
21.143
22.475
22.801
22.924
12.013
13.099
14.2
15.935
16.627
17.789
19.285
20.155
20.472
20.904
11.189
12.091
13.008
14.205
14.911
15.812
16.89
17.478
18.539
19.696
10.531
11.162
11.805
12.24
13.028
13.812
14.849
15.836
16.777
17.436
10.334
10.67
11.133
11.716
12.019
12.582
13.425
14.088
15.059
16.027
10.151
10.299
10.207
10.73
11.087
11.461
12.117
12.868
13.584
14.337
9.753
10.054
10.211
10.316
10.778
11.079
11.061
11.623
12.454
13.08
9.751
9.775
9.977
9.957
9.973
10.489
10.955
11.243
11.417
11.684
10.011
9.865
9.956
10.134
10.186
10.141
10.129
10.488
10.846
11.113
9.596
9.755
9.684
9.552
9.585
9.764
10.037
10.167
10.176
10.452
9.732
9.687
9.651
9.574
9.543
9.575
9.629
9.826
10.023
10.368
9.485
9.417
9.447
9.615
9.573
9.591
9.544
9.591
9.624
9.625
9.344
9.43
9.442
9.422
9.394
9.517
9.47
9.467
9.42
9.45
9.753
9.784
9.589
9.429
9.396
9.226
9.321
9.315
9.318
9.447
9.561
9.469
9.3
9.268
9.152
9.209
9.317
9.321
9.225
9.284
9.629
9.533
9.518
9.479
9.56
9.362
9.319
9.271
9.249
9.359
9.582
9.669
9.654
9.605
9.615
9.54
9.491
9.34
9.194
9.177
9.796
9.777
9.608
9.5
9.421
9.318
9.369
9.392
9.244
9.265
9.656
9.586
9.505
9.448
9.376
9.312
9.17
9.165
9.207
9.051
9.607
9.459
9.316
9.325
)
;

boundaryField
{
    flow
    {
        type            calculated;
        value           nonuniform List<scalar> 
42
(
7.281
7.308
7.515
7.528
7.421
7.476
7.405
7.462
7.413
7.469
7.472
7.447
7.494
7.427
7.344
7.55
7.431
7.482
7.485
7.416
7.406
7.42
7.281
9.403
9.468
9.514
9.513
9.508
9.474
9.563
9.408
9.334
9.317
9.401
9.249
9.357
9.344
9.389
9.449
9.583
10.099
13.059
)
;
    }
    obstacle
    {
        type            calculated;
        value           nonuniform List<scalar> 10(22.951 26.453 26.707 27.82 28.358 28.358 28.317 28.198 27.035 27.884);
    }
    frontAndBack
    {
        type            empty;
    }
    procBoundary0to1
    {
        type            processor;
        value           nonuniform List<scalar> 
21
(
27.422
24.409
22.736
20.655
20.135
18.123
16.457
15.25
13.868
12.172
11.455
10.921
10.38
9.729
9.71
9.388
9.252
9.431
9.204
9.275
8.941
)
;
    }
    procBoundary0to2
    {
        type            processor;
        value           nonuniform List<scalar> 
31
(
7.404
9.49
9.675
9.6
9.646
9.635
9.637
9.544
9.467
9.467
9.458
9.585
9.608
9.573
9.623
9.491
9.456
9.4
9.29
9.228
9.418
9.458
9.349
9.335
9.303
9.28
9.311
9.349
9.583
9.418
9.449
)
;
    }
}


// ************************************************************************* //
