/*--------------------------------*- C++ -*----------------------------------*\
| =========                 |                                                 |
| \\      /  F ield         | OpenFOAM: The Open Source CFD Toolbox           |
|  \\    /   O peration     | Version:  2406                                  |
|   \\  /    A nd           | Website:  www.openfoam.com                      |
|    \\/     M anipulation  |                                                 |
\*---------------------------------------------------------------------------*/
FoamFile
{
    version     2.0;
    format      ascii;
    arch        "LSB;label=32;scalar=64";
    class       volScalarField;
    location    "0.002";
    object      dsmcSigmaTcRMax;
}
// * * * * * * * * * * * * * * * * * * * * * * * * * * * * * * * * * * * * * //

dimensions      [0 3 -1 0 0 0 0];

internalField   nonuniform List<scalar> 
654
(
5.545870265e-16
6.583265e-16
6.108646134e-16
5.866403003e-16
5.332180029e-16
5.865386616e-16
6.075073378e-16
6.097710396e-16
6.149143532e-16
5.649714428e-16
5.945007609e-16
5.560930303e-16
5.504853961e-16
7.435956121e-16
7.142083027e-16
8.133144452e-16
7.861222285e-16
8.292305946e-16
8.400282473e-16
8.475916329e-16
5.740937325e-16
5.570949844e-16
5.97946086e-16
5.553314995e-16
6.01485024e-16
5.607810702e-16
5.703114495e-16
5.636405963e-16
6.098132619e-16
5.94196257e-16
6.030638929e-16
5.846738039e-16
6.553753455e-16
6.598478855e-16
8.091481748e-16
7.124005114e-16
7.891737829e-16
8.206426095e-16
8.526199285e-16
8.28016637e-16
6.211151892e-16
6.113459007e-16
6.087117844e-16
5.475329516e-16
5.40843228e-16
6.316341362e-16
6.33175897e-16
5.540710556e-16
5.393133807e-16
5.603644805e-16
5.468772961e-16
5.583436818e-16
7.552568559e-16
7.437998786e-16
6.828513542e-16
7.91144581e-16
8.319128841e-16
8.422810019e-16
7.950223099e-16
8.23793436e-16
5.778627389e-16
6.143033311e-16
5.874503846e-16
5.378413069e-16
5.458398538e-16
5.481825641e-16
5.698828886e-16
5.823061711e-16
5.646849508e-16
5.875758281e-16
6.099231285e-16
6.052524311e-16
7.079043242e-16
5.57937352e-16
8.464675765e-16
7.136272456e-16
8.128549506e-16
7.727555622e-16
8.75177272e-16
8.054373094e-16
5.716620883e-16
5.638989759e-16
5.991898638e-16
5.626555824e-16
5.527892982e-16
6.289510285e-16
5.640277502e-16
5.522097523e-16
5.693625391e-16
5.816002663e-16
5.332127652e-16
5.795369263e-16
6.162829031e-16
8.146214203e-16
7.82038388e-16
7.551668782e-16
7.485669308e-16
7.758408337e-16
8.406740868e-16
8.693773448e-16
5.77710403e-16
5.97280081e-16
6.896273503e-16
6.461588741e-16
5.555605809e-16
5.924690271e-16
6.150211903e-16
5.850730453e-16
6.382477667e-16
6.988811651e-16
5.984243034e-16
5.935480576e-16
5.665427159e-16
5.911586132e-16
7.616743157e-16
8.188798544e-16
8.515114975e-16
8.011641301e-16
7.80522726e-16
8.388548759e-16
5.555597479e-16
5.933515596e-16
6.527787921e-16
5.738371716e-16
5.709237178e-16
5.582191494e-16
5.633473138e-16
6.111687575e-16
5.785326516e-16
5.675490909e-16
6.37474548e-16
5.97416961e-16
5.815334987e-16
5.863230428e-16
7.195637464e-16
6.615250447e-16
7.158232061e-16
8.44557443e-16
7.786441097e-16
7.847498069e-16
6.165851427e-16
5.639382311e-16
5.728719033e-16
6.180258642e-16
5.611097285e-16
5.757474427e-16
5.69401544e-16
6.088945174e-16
5.753337139e-16
5.858373707e-16
6.081993247e-16
5.563384642e-16
5.467178142e-16
5.611539752e-16
6.161260705e-16
6.5181888e-16
6.567743938e-16
7.334050312e-16
7.125467101e-16
7.573370579e-16
5.454241715e-16
5.633030443e-16
5.460544219e-16
5.993551142e-16
5.526490073e-16
5.900314281e-16
5.708516051e-16
6.073390027e-16
6.06307778e-16
6.131575238e-16
5.686682988e-16
5.996911128e-16
5.75034173e-16
7.75620383e-16
6.734183117e-16
7.435631247e-16
8.086437191e-16
6.703934069e-16
7.162611412e-16
8.151070576e-16
5.488059882e-16
5.652464074e-16
6.0170559e-16
5.883083293e-16
5.671685401e-16
5.6922348e-16
6.103039303e-16
6.216444193e-16
5.412824359e-16
5.526409208e-16
5.879136019e-16
7.740123766e-16
7.18589553e-16
8.668127552e-16
6.225176343e-16
6.581486151e-16
5.791998088e-16
6.242597611e-16
7.302805589e-16
6.760840209e-16
6.041266832e-16
5.735701826e-16
5.664621923e-16
5.799985819e-16
6.417237336e-16
6.117969708e-16
5.87008862e-16
5.627940751e-16
5.962778649e-16
5.753311256e-16
5.944569855e-16
5.491061477e-16
6.976918099e-16
6.321743583e-16
7.036849784e-16
6.370915379e-16
6.582667566e-16
6.13639926e-16
7.010058761e-16
7.585206033e-16
5.910259629e-16
5.859426981e-16
5.885909061e-16
6.079759554e-16
5.436068099e-16
6.160447692e-16
5.390975786e-16
5.799081431e-16
5.849482304e-16
5.644702646e-16
5.845412454e-16
6.344698596e-16
5.809390162e-16
7.58471593e-16
5.802302006e-16
6.812629315e-16
5.603285633e-16
5.771819709e-16
6.33985712e-16
7.465677151e-16
5.888429785e-16
5.76004318e-16
5.905273977e-16
5.741365823e-16
5.54002345e-16
5.31116114e-16
6.47602767e-16
8.319178339e-16
5.884552629e-16
6.001147191e-16
5.681992251e-16
5.395647684e-16
6.107884106e-16
6.358560781e-16
5.883468812e-16
7.194420647e-16
6.787889446e-16
7.097537872e-16
7.312468833e-16
7.541156975e-16
5.466418702e-16
5.568309501e-16
5.898607884e-16
6.296619976e-16
5.961724491e-16
5.84297473e-16
5.241133547e-16
5.997610831e-16
6.405633968e-16
5.800980733e-16
5.908239922e-16
6.024026035e-16
6.060483402e-16
5.708245374e-16
5.499442192e-16
6.269050723e-16
5.815399299e-16
5.335041511e-16
6.791446236e-16
5.931422637e-16
5.512701669e-16
6.093529047e-16
5.607241112e-16
5.980873217e-16
5.581194673e-16
6.09430894e-16
6.158757995e-16
6.080543672e-16
6.029160082e-16
6.01301436e-16
5.806199743e-16
6.010368771e-16
5.925285976e-16
5.56650975e-16
6.425022355e-16
6.017759154e-16
5.694287374e-16
6.731379102e-16
6.668952611e-16
7.037340402e-16
5.47780557e-16
6.420358384e-16
6.003252556e-16
5.624760305e-16
5.775312535e-16
5.696009414e-16
5.882179385e-16
5.594353906e-16
5.488330077e-16
5.355309376e-16
5.861486042e-16
5.432919999e-16
6.050673498e-16
6.173844951e-16
5.317620419e-16
6.040677189e-16
6.349999275e-16
5.807875913e-16
7.607696495e-16
8.224253836e-16
5.613203983e-16
5.854607187e-16
5.567638559e-16
5.790830046e-16
5.790745038e-16
5.58951803e-16
5.533642691e-16
6.379016037e-16
6.04755981e-16
5.704818195e-16
5.661172655e-16
5.712322196e-16
6.121425601e-16
5.677390827e-16
5.582110605e-16
5.628459797e-16
6.096271056e-16
5.857755162e-16
6.360648774e-16
5.571419826e-16
5.407145435e-16
5.871362703e-16
6.248716148e-16
5.912198198e-16
5.580684743e-16
5.60514116e-16
5.73735335e-16
6.453042671e-16
5.919924204e-16
5.858488691e-16
5.545165369e-16
6.562949228e-16
5.412496912e-16
5.755882202e-16
5.751900316e-16
7.014950086e-16
5.775855643e-16
6.154390625e-16
5.695971993e-16
5.970126066e-16
5.427199077e-16
5.686980609e-16
6.205721967e-16
5.994463657e-16
5.687528327e-16
6.328353514e-16
5.634834793e-16
5.687556099e-16
5.942256514e-16
5.429009397e-16
5.760957747e-16
5.956982267e-16
5.945222816e-16
5.505038981e-16
5.624198664e-16
5.944687306e-16
6.034090885e-16
5.606813552e-16
5.749860147e-16
5.71714865e-16
5.405624901e-16
5.585208452e-16
5.746134756e-16
5.68644198e-16
5.868275842e-16
6.275383727e-16
5.747438438e-16
5.967820226e-16
6.186324105e-16
5.676039301e-16
5.784613364e-16
5.424688785e-16
5.702587643e-16
5.651637788e-16
5.758909559e-16
5.895774947e-16
5.955173645e-16
5.861199473e-16
5.759856955e-16
5.833031359e-16
5.22038189e-16
6.392545043e-16
6.410104421e-16
5.398598705e-16
6.126807023e-16
6.084625081e-16
5.486691933e-16
5.745899952e-16
5.65825881e-16
5.768642577e-16
5.884116703e-16
5.411738663e-16
5.961308185e-16
5.921606767e-16
5.802720157e-16
5.939052763e-16
5.399762052e-16
6.097945829e-16
5.812289682e-16
7.360361807e-16
5.568132691e-16
5.690188334e-16
6.251922248e-16
6.042668291e-16
5.369712411e-16
5.853279503e-16
5.580311474e-16
6.033673745e-16
5.786348352e-16
5.944463972e-16
5.47849632e-16
5.755553466e-16
5.80744519e-16
6.374126035e-16
5.680924387e-16
6.092778192e-16
5.721152807e-16
6.584704632e-16
5.45646443e-16
5.94652402e-16
8.453550054e-16
8.616107347e-16
8.973969773e-16
8.46184324e-16
8.832627097e-16
8.510286863e-16
8.286451613e-16
8.301960974e-16
8.322765383e-16
8.861870315e-16
8.992199429e-16
8.667855115e-16
8.868853708e-16
8.650669446e-16
8.677149469e-16
8.721043237e-16
8.289997842e-16
8.452606045e-16
8.196807935e-16
8.48577127e-16
8.534464556e-16
8.305613272e-16
9.042527304e-16
8.622498068e-16
8.520156657e-16
8.478541056e-16
8.753232766e-16
8.990835831e-16
8.249923908e-16
8.178424391e-16
8.289239613e-16
8.664582486e-16
8.926095904e-16
8.668513972e-16
8.377339287e-16
8.741894131e-16
9.01183733e-16
8.65353347e-16
8.746815195e-16
8.616015149e-16
8.521052208e-16
8.323988984e-16
8.579090993e-16
8.278180519e-16
8.694991528e-16
8.289299647e-16
8.310862686e-16
8.519083801e-16
8.355123386e-16
8.436669506e-16
7.944674546e-16
8.141070739e-16
8.364532752e-16
8.158114962e-16
8.072370704e-16
8.229214402e-16
8.061699003e-16
8.701186061e-16
8.171116965e-16
8.015774699e-16
7.984099075e-16
7.550753221e-16
7.861610528e-16
7.948680311e-16
7.648704524e-16
8.690610594e-16
8.002221741e-16
8.066291803e-16
7.951707581e-16
8.175119747e-16
8.197556144e-16
8.145383646e-16
8.364221097e-16
8.100622612e-16
8.446612492e-16
7.717226775e-16
7.66248901e-16
7.704130804e-16
7.781685687e-16
7.79613904e-16
7.88567511e-16
7.384267473e-16
7.594603729e-16
8.216755699e-16
8.509071817e-16
8.216292749e-16
7.998066641e-16
7.965072234e-16
8.231248553e-16
7.855843253e-16
7.80821543e-16
8.714963824e-16
7.806095746e-16
7.689135866e-16
7.558470489e-16
7.860846232e-16
7.365021e-16
7.559296403e-16
7.517599112e-16
8.181151707e-16
7.923942113e-16
7.431896359e-16
7.568040303e-16
7.121211177e-16
8.340916304e-16
7.781071757e-16
7.70757212e-16
7.578104537e-16
8.224619015e-16
7.885171468e-16
7.505134331e-16
7.82787926e-16
7.666516212e-16
8.474835438e-16
7.726735124e-16
7.801974966e-16
7.767960708e-16
7.385492263e-16
7.522541446e-16
7.722123727e-16
6.707760365e-16
7.596550517e-16
7.109631994e-16
7.576247591e-16
7.215116208e-16
8.340129793e-16
8.554564059e-16
7.597127787e-16
7.400383764e-16
7.19051554e-16
7.337576922e-16
7.271087549e-16
7.209086579e-16
7.921505847e-16
6.989307017e-16
7.698744524e-16
8.362213781e-16
8.20990497e-16
7.574859381e-16
7.418016973e-16
6.975457105e-16
7.248349125e-16
7.955453536e-16
6.698144144e-16
7.1382965e-16
8.09522497e-16
6.815867643e-16
7.461590706e-16
7.606121039e-16
7.77492275e-16
6.496950112e-16
6.543441733e-16
5.791359158e-16
7.673319608e-16
6.867378687e-16
7.611687124e-16
6.975318364e-16
7.604074859e-16
7.554183107e-16
7.121637669e-16
6.173201726e-16
7.228061267e-16
5.480888131e-16
7.354754811e-16
7.088843805e-16
6.436039329e-16
7.85050646e-16
7.036132619e-16
6.85558606e-16
6.550539977e-16
6.601655289e-16
6.557143896e-16
5.939914013e-16
7.593987586e-16
7.728869008e-16
6.247773191e-16
7.352292279e-16
6.695281913e-16
7.102314207e-16
6.95855734e-16
6.521328793e-16
7.488498696e-16
6.759839495e-16
6.315380073e-16
5.969299901e-16
6.735487459e-16
7.188478668e-16
6.941893889e-16
7.049935492e-16
7.400506274e-16
6.082493288e-16
7.463672779e-16
5.664893025e-16
5.801414756e-16
6.057886381e-16
7.02401306e-16
6.389900846e-16
7.033326946e-16
7.126586439e-16
7.129952622e-16
5.624979498e-16
6.445124735e-16
6.672588082e-16
6.53506418e-16
7.941713625e-16
6.271007046e-16
5.739609456e-16
6.005376036e-16
6.530925618e-16
7.494816948e-16
5.282223899e-16
6.998634201e-16
6.998634201e-16
6.005756405e-16
)
;

boundaryField
{
    flow
    {
        type            zeroGradient;
    }
    obstacle
    {
        type            zeroGradient;
    }
    frontAndBack
    {
        type            empty;
    }
    procBoundary0to1
    {
        type            processor;
        value           nonuniform List<scalar> 
21
(
8.54301468e-16
8.442621287e-16
8.348217189e-16
8.127837483e-16
8.242168805e-16
8.322180879e-16
8.343970979e-16
8.389381493e-16
8.111939212e-16
8.121631546e-16
7.50498036e-16
7.526168605e-16
7.826106632e-16
7.510818402e-16
7.367926725e-16
7.385003536e-16
6.943071999e-16
6.934174671e-16
7.607753432e-16
7.028569844e-16
6.966554078e-16
)
;
    }
    procBoundary0to2
    {
        type            processor;
        value           nonuniform List<scalar> 
31
(
5.808734642e-16
5.640759853e-16
5.432848156e-16
5.800329944e-16
5.937390646e-16
5.950918012e-16
5.432373743e-16
5.912450245e-16
6.233426551e-16
6.059036725e-16
5.502069542e-16
5.515554647e-16
5.771182808e-16
5.772175745e-16
5.766217488e-16
5.570193897e-16
6.183894279e-16
7.249864719e-16
6.674069471e-16
5.484948016e-16
5.65417063e-16
6.659051421e-16
5.812992932e-16
6.549564637e-16
6.610674486e-16
6.553724077e-16
5.547098868e-16
6.175220492e-16
5.810054625e-16
5.65417063e-16
6.222574966e-16
)
;
    }
}


// ************************************************************************* //
