/*--------------------------------*- C++ -*----------------------------------*\
| =========                 |                                                 |
| \\      /  F ield         | OpenFOAM: The Open Source CFD Toolbox           |
|  \\    /   O peration     | Version:  2406                                  |
|   \\  /    A nd           | Website:  www.openfoam.com                      |
|    \\/     M anipulation  |                                                 |
\*---------------------------------------------------------------------------*/
FoamFile
{
    version     2.0;
    format      ascii;
    arch        "LSB;label=32;scalar=64";
    class       volScalarField;
    location    "0.002";
    object      iDof;
}
// * * * * * * * * * * * * * * * * * * * * * * * * * * * * * * * * * * * * * //

dimensions      [0 -3 0 0 0 0 0];

internalField   nonuniform List<scalar> 
654
(
1.666239693e+20
2.291079578e+20
1.041399808e+20
2.082799616e+20
1.874519654e+20
2.082799616e+20
2.499359539e+20
2.082799616e+20
1.24967977e+20
1.874519654e+20
2.707639501e+20
3.124199424e+20
1.666239693e+20
2.291079578e+20
1.666239693e+20
1.041399808e+20
1.666239693e+20
2.707639501e+20
2.291079578e+20
1.874519654e+20
8.331198464e+19
1.874519654e+20
2.499359539e+20
2.291079578e+20
2.082799616e+20
1.457959731e+20
2.707639501e+20
1.666239693e+20
2.082799616e+20
2.291079578e+20
1.874519654e+20
2.707639501e+20
1.666239693e+20
2.499359539e+20
2.082799616e+20
1.874519654e+20
1.874519654e+20
3.540759347e+20
1.874519654e+20
1.666239693e+20
1.24967977e+20
2.291079578e+20
2.291079578e+20
2.707639501e+20
2.082799616e+20
1.874519654e+20
2.915919462e+20
1.041399808e+20
1.457959731e+20
2.499359539e+20
2.082799616e+20
1.874519654e+20
2.499359539e+20
2.499359539e+20
1.666239693e+20
2.082799616e+20
2.082799616e+20
1.874519654e+20
2.707639501e+20
2.915919462e+20
1.666239693e+20
2.082799616e+20
1.041399808e+20
1.457959731e+20
1.874519654e+20
1.666239693e+20
1.666239693e+20
2.707639501e+20
1.457959731e+20
2.915919462e+20
2.915919462e+20
1.874519654e+20
1.041399808e+20
2.915919462e+20
2.291079578e+20
1.874519654e+20
2.499359539e+20
2.915919462e+20
1.457959731e+20
2.915919462e+20
1.874519654e+20
2.082799616e+20
1.457959731e+20
2.291079578e+20
2.707639501e+20
6.248398848e+19
1.874519654e+20
2.082799616e+20
6.248398848e+19
2.915919462e+20
2.915919462e+20
1.457959731e+20
2.291079578e+20
1.24967977e+20
2.707639501e+20
1.666239693e+20
2.082799616e+20
2.707639501e+20
3.124199424e+20
2.707639501e+20
1.874519654e+20
1.874519654e+20
3.332479385e+20
1.041399808e+20
1.666239693e+20
2.291079578e+20
1.24967977e+20
2.291079578e+20
3.749039309e+20
2.499359539e+20
2.291079578e+20
1.24967977e+20
1.666239693e+20
1.874519654e+20
3.124199424e+20
2.291079578e+20
1.24967977e+20
1.666239693e+20
1.874519654e+20
8.331198464e+19
1.457959731e+20
1.874519654e+20
2.915919462e+20
1.874519654e+20
2.499359539e+20
1.666239693e+20
2.291079578e+20
2.082799616e+20
2.291079578e+20
2.082799616e+20
1.666239693e+20
2.707639501e+20
2.499359539e+20
1.666239693e+20
1.457959731e+20
1.24967977e+20
1.24967977e+20
2.499359539e+20
8.331198464e+19
3.124199424e+20
1.24967977e+20
2.291079578e+20
1.874519654e+20
1.457959731e+20
2.499359539e+20
2.291079578e+20
2.082799616e+20
2.082799616e+20
1.874519654e+20
8.331198464e+19
1.457959731e+20
1.666239693e+20
1.666239693e+20
2.291079578e+20
2.082799616e+20
2.499359539e+20
1.24967977e+20
1.666239693e+20
1.24967977e+20
2.707639501e+20
1.041399808e+20
1.874519654e+20
1.041399808e+20
1.874519654e+20
3.124199424e+20
1.24967977e+20
2.082799616e+20
3.332479385e+20
8.331198464e+19
1.874519654e+20
2.499359539e+20
1.24967977e+20
2.291079578e+20
1.041399808e+20
1.874519654e+20
2.082799616e+20
1.666239693e+20
1.24967977e+20
2.291079578e+20
4.165599232e+19
2.082799616e+20
2.082799616e+20
1.874519654e+20
2.291079578e+20
2.499359539e+20
1.666239693e+20
1.666239693e+20
1.24967977e+20
2.291079578e+20
2.707639501e+20
1.041399808e+20
1.24967977e+20
2.915919462e+20
2.291079578e+20
1.666239693e+20
1.24967977e+20
2.082799616e+20
1.666239693e+20
1.457959731e+20
1.874519654e+20
1.24967977e+20
1.666239693e+20
1.666239693e+20
1.457959731e+20
3.124199424e+20
1.874519654e+20
1.874519654e+20
3.332479385e+20
2.707639501e+20
2.915919462e+20
8.331198464e+19
2.499359539e+20
3.124199424e+20
1.24967977e+20
1.24967977e+20
1.666239693e+20
6.248398848e+19
2.291079578e+20
2.082799616e+20
1.874519654e+20
1.874519654e+20
2.082799616e+20
1.874519654e+20
1.874519654e+20
1.666239693e+20
1.457959731e+20
1.874519654e+20
2.499359539e+20
1.874519654e+20
1.666239693e+20
1.874519654e+20
2.082799616e+20
1.666239693e+20
1.874519654e+20
2.291079578e+20
2.707639501e+20
2.915919462e+20
2.082799616e+20
1.666239693e+20
1.874519654e+20
1.874519654e+20
1.457959731e+20
1.874519654e+20
3.749039309e+20
1.666239693e+20
8.331198464e+19
2.082799616e+20
2.291079578e+20
2.707639501e+20
1.457959731e+20
2.291079578e+20
2.915919462e+20
1.457959731e+20
1.666239693e+20
2.291079578e+20
2.499359539e+20
2.707639501e+20
1.666239693e+20
1.874519654e+20
2.291079578e+20
1.874519654e+20
1.874519654e+20
1.041399808e+20
1.666239693e+20
2.499359539e+20
2.291079578e+20
2.082799616e+20
2.082799616e+20
2.082799616e+20
3.332479385e+20
1.874519654e+20
1.457959731e+20
1.874519654e+20
1.457959731e+20
2.291079578e+20
2.082799616e+20
1.666239693e+20
3.124199424e+20
3.332479385e+20
1.666239693e+20
1.24967977e+20
2.291079578e+20
1.874519654e+20
3.124199424e+20
1.457959731e+20
2.082799616e+20
2.291079578e+20
1.457959731e+20
2.082799616e+20
1.666239693e+20
2.291079578e+20
2.082799616e+20
1.041399808e+20
1.666239693e+20
2.082799616e+20
1.666239693e+20
2.915919462e+20
3.332479385e+20
1.874519654e+20
3.540759347e+20
1.666239693e+20
1.457959731e+20
2.291079578e+20
1.457959731e+20
2.499359539e+20
2.291079578e+20
1.874519654e+20
1.457959731e+20
1.041399808e+20
2.082799616e+20
1.874519654e+20
2.707639501e+20
1.874519654e+20
1.666239693e+20
2.082799616e+20
1.666239693e+20
2.082799616e+20
1.874519654e+20
1.457959731e+20
2.082799616e+20
1.666239693e+20
2.499359539e+20
2.291079578e+20
2.707639501e+20
4.165599232e+19
2.707639501e+20
1.041399808e+20
2.291079578e+20
1.666239693e+20
2.707639501e+20
8.331198464e+19
2.291079578e+20
1.24967977e+20
2.707639501e+20
2.499359539e+20
1.041399808e+20
2.291079578e+20
2.499359539e+20
1.457959731e+20
2.082799616e+20
1.24967977e+20
2.499359539e+20
1.666239693e+20
2.082799616e+20
1.666239693e+20
1.874519654e+20
2.082799616e+20
2.915919462e+20
1.666239693e+20
1.457959731e+20
2.291079578e+20
1.457959731e+20
2.082799616e+20
2.499359539e+20
2.082799616e+20
1.666239693e+20
3.332479385e+20
1.457959731e+20
2.915919462e+20
1.457959731e+20
1.457959731e+20
1.874519654e+20
1.874519654e+20
2.291079578e+20
2.499359539e+20
2.082799616e+20
2.082799616e+20
1.874519654e+20
1.041399808e+20
2.499359539e+20
2.707639501e+20
1.874519654e+20
1.666239693e+20
1.874519654e+20
2.291079578e+20
1.874519654e+20
2.082799616e+20
2.082799616e+20
1.874519654e+20
2.082799616e+20
1.041399808e+20
1.874519654e+20
1.041399808e+20
3.332479385e+20
2.707639501e+20
2.082799616e+20
8.331198464e+19
3.332479385e+20
1.874519654e+20
1.041399808e+20
8.331198464e+19
1.666239693e+20
3.124199424e+20
1.874519654e+20
2.915919462e+20
2.291079578e+20
1.666239693e+20
2.707639501e+20
1.041399808e+20
1.666239693e+20
2.291079578e+20
2.707639501e+20
2.707639501e+20
2.291079578e+20
1.874519654e+20
2.707639501e+20
1.666239693e+20
1.666239693e+20
2.291079578e+20
2.291079578e+20
2.291079578e+20
2.915919462e+20
2.707639501e+20
1.666239693e+20
2.082799616e+20
2.082799616e+20
1.041399808e+20
2.291079578e+20
2.915919462e+20
2.082799616e+20
1.666239693e+20
1.041399808e+20
1.457959731e+20
2.499359539e+20
1.457959731e+20
1.457959731e+20
2.291079578e+20
2.291079578e+20
2.082799616e+20
2.915919462e+20
8.331198464e+19
1.457959731e+20
2.082799616e+20
1.041399808e+20
2.082799616e+20
1.666239693e+20
3.540759347e+20
1.24967977e+20
3.95731927e+20
4.165599232e+19
4.80742724e+20
5.892762672e+20
5.933562479e+20
4.6945888e+20
6.876435216e+20
8.007095532e+20
4.141031247e+20
3.731706433e+20
6.190739994e+20
6.235786118e+20
4.180371515e+20
3.998660385e+20
6.357388374e+20
2.347294401e+20
4.512660612e+20
4.760975725e+20
5.448725329e+20
6.365852156e+20
6.854033565e+20
5.34495953e+20
2.717241484e+20
2.735925526e+20
3.390607131e+20
4.054417601e+20
4.297772014e+20
1.514855911e+20
5.666674338e+20
4.829267153e+20
5.08525071e+20
6.235786118e+20
2.090185757e+20
2.315013908e+20
3.178694187e+20
2.774075199e+20
3.223329006e+20
1.947671886e+20
5.230776316e+20
3.512194293e+20
3.979761425e+20
6.235786118e+20
2.717241484e+20
2.525469716e+20
1.695303566e+20
4.054417604e+20
3.653106212e+20
3.678935787e+20
3.269235197e+20
2.63414572e+20
3.979761428e+20
4.231426297e+20
1.881167181e+20
2.735925526e+20
3.390607131e+20
2.987465599e+20
3.867994807e+20
3.246119808e+20
2.397439141e+20
5.048779289e+20
4.864152849e+20
3.117893061e+20
3.344297211e+20
2.315013906e+20
2.966781241e+20
2.560684803e+20
2.363774608e+20
1.947671887e+20
3.487184211e+20
3.073170006e+20
2.432076426e+20
4.231426294e+20
1.254111454e+20
2.525469718e+20
2.754868295e+20
2.133903999e+20
2.148886004e+20
2.380487861e+20
3.051286184e+20
2.63414572e+20
3.316467854e+20
3.340599706e+20
2.926260059e+20
2.104558097e+20
2.119129457e+20
2.133904001e+20
2.578663208e+20
2.380487861e+20
2.833337169e+20
1.97560929e+20
1.326587142e+20
3.340599706e+20
1.672148606e+20
1.473190669e+20
2.119129458e+20
2.560684801e+20
2.578663207e+20
5.1937917e+20
3.705133224e+20
2.414633576e+20
1.768782856e+20
2.449773118e+20
1.672148605e+20
3.367292955e+20
2.119129457e+20
2.133904001e+20
1.719108804e+20
2.164079873e+20
1.961541117e+20
1.756097145e+20
2.653174283e+20
2.895186412e+20
2.299204332e+20
2.735925527e+20
1.271477675e+20
2.560684799e+20
1.719108804e+20
3.029711825e+20
3.051286195e+20
2.634145736e+20
1.547685006e+20
2.004359832e+20
2.090185757e+20
2.315013913e+20
2.119129465e+20
1.2803424e+20
1.933997397e+20
2.16407987e+20
1.743592102e+20
1.975609273e+20
2.653174272e+20
2.672479765e+20
2.299204325e+20
2.104558084e+20
2.119129442e+20
1.707123195e+20
1.504220205e+20
1.731263895e+20
2.833337155e+20
3.731706431e+20
1.768782848e+20
2.004359809e+20
2.299204345e+20
2.104558102e+20
2.119129457e+20
1.920513607e+20
2.793551828e+20
1.947671896e+20
2.179490135e+20
3.512194313e+20
1.547685003e+20
3.563306353e+20
2.090185754e+20
1.262734861e+20
1.271477683e+20
1.920513607e+20
2.578663208e+20
1.731263907e+20
1.743592108e+20
3.951218546e+20
1.768782848e+20
8.908265883e+19
2.299204329e+20
1.894102279e+20
3.178694163e+20
4.267807987e+20
1.504220205e+20
1.731263895e+20
2.179490135e+20
1.097560723e+20
1.326587145e+20
3.117893059e+20
1.045092877e+20
2.104558102e+20
2.119129471e+20
2.133903993e+20
2.363774592e+20
1.514855908e+20
2.397439131e+20
1.975609287e+20
2.432076433e+20
1.336239882e+20
1.254111461e+20
2.946381343e+20
2.119129457e+20
1.707123206e+20
2.578663208e+20
1.298447921e+20
1.307694081e+20
4.170730717e+20
1.547684992e+20
2.449773135e+20
2.090185754e+20
2.735925533e+20
1.271477674e+20
1.707123195e+20
2.578663208e+20
1.731263907e+20
1.961541121e+20
2.853657859e+20
2.432076433e+20
8.908265883e+19
1.463130028e+20
2.315013897e+20
3.602520076e+20
1.280342405e+20
1.933997406e+20
4.111751751e+20
1.525643094e+20
2.195121445e+20
2.210978576e+20
2.227066471e+20
2.090185754e+20
1.052279044e+20
1.695303565e+20
1.493732806e+20
)
;

boundaryField
{
    flow
    {
        type            zeroGradient;
    }
    obstacle
    {
        type            calculated;
        value           nonuniform List<scalar> 10(111.725522 112.2684201 1e-300 230.2779415 349.0599696 442.3450988 1e-300 750.4519539 76.67870087 101.1276253);
    }
    frontAndBack
    {
        type            empty;
    }
    procBoundary0to1
    {
        type            processor;
        value           nonuniform List<scalar> 
21
(
6.505831612e+20
5.832814553e+20
5.384136507e+20
2.01905119e+20
3.365085317e+20
3.365085322e+20
4.486780422e+20
4.03810238e+20
4.486780426e+20
2.692068253e+20
3.140746296e+20
4.486780438e+19
2.467729225e+20
2.019051184e+20
1.570373155e+20
1.794712164e+20
1.570373143e+20
2.019051199e+20
2.019051199e+20
2.019051184e+20
2.019051199e+20
)
;
    }
    procBoundary0to2
    {
        type            processor;
        value           nonuniform List<scalar> 
31
(
1.24967977e+20
2.291079578e+20
1.666239693e+20
1.041399808e+20
1.874519654e+20
1.874519654e+20
2.499359539e+20
3.124199424e+20
2.082799616e+20
1.874519654e+20
1.666239693e+20
2.291079578e+20
1.457959731e+20
2.291079578e+20
1.24967977e+20
1.666239693e+20
3.540759347e+20
1.874519654e+20
2.082799616e+20
1.041399808e+20
1.933997406e+20
2.164079869e+20
1.961541108e+20
1.317072858e+20
1.989880718e+20
1.781653177e+20
2.71724148e+20
2.315013913e+20
2.331042402e+20
1.933997406e+20
1.066951997e+20
)
;
    }
}


// ************************************************************************* //
