/*--------------------------------*- C++ -*----------------------------------*\
| =========                 |                                                 |
| \\      /  F ield         | OpenFOAM: The Open Source CFD Toolbox           |
|  \\    /   O peration     | Version:  2406                                  |
|   \\  /    A nd           | Website:  www.openfoam.com                      |
|    \\/     M anipulation  |                                                 |
\*---------------------------------------------------------------------------*/
FoamFile
{
    version     2.0;
    format      ascii;
    arch        "LSB;label=32;scalar=64";
    class       volScalarField;
    location    "0.002";
    object      iDofMean;
}
// * * * * * * * * * * * * * * * * * * * * * * * * * * * * * * * * * * * * * //

dimensions      [0 -3 0 0 0 0 0];

internalField   nonuniform List<scalar> 
654
(
1.5164864e+20
1.958456479e+20
1.971994676e+20
1.981575555e+20
1.981367275e+20
1.980325875e+20
1.973244356e+20
1.991781273e+20
1.959497879e+20
1.944085162e+20
1.940544402e+20
1.958039919e+20
1.926381365e+20
1.948875601e+20
1.946167961e+20
1.955540559e+20
1.968037357e+20
1.995946872e+20
2.103419332e+20
2.719928018e+20
1.522109959e+20
1.981158995e+20
2.022606707e+20
1.986990834e+20
1.988448793e+20
2.010318189e+20
2.010734749e+20
2.016566588e+20
2.012400989e+20
2.009693349e+20
2.00594431e+20
2.00719399e+20
2.022398427e+20
2.015733468e+20
2.000320751e+20
2.001570431e+20
2.035520065e+20
2.106960091e+20
2.244633146e+20
2.594543482e+20
1.565223911e+20
2.016566588e+20
2.024897787e+20
2.018857668e+20
2.020523907e+20
2.032812425e+20
2.042185023e+20
2.016358308e+20
2.031354465e+20
2.038644264e+20
2.051765902e+20
2.046142343e+20
2.027188866e+20
2.031354465e+20
2.065928939e+20
2.078217457e+20
2.055306661e+20
2.079675417e+20
2.156530722e+20
2.359187125e+20
1.567931551e+20
1.989906753e+20
1.992614393e+20
1.980742435e+20
1.965954557e+20
1.942210642e+20
1.959289599e+20
1.978243075e+20
1.967829077e+20
1.965121438e+20
1.958456479e+20
1.968662197e+20
2.00740227e+20
1.996779992e+20
1.992614393e+20
1.993030952e+20
2.025730906e+20
2.087798335e+20
2.144867044e+20
2.297327976e+20
1.545645595e+20
1.978034795e+20
1.988448793e+20
2.00761055e+20
2.021565307e+20
2.012609269e+20
1.991572993e+20
1.982200394e+20
1.967412517e+20
1.987199114e+20
1.990323313e+20
1.994280632e+20
2.000945591e+20
2.012817549e+20
2.032395865e+20
2.065304099e+20
2.081758216e+20
2.105918692e+20
2.139243486e+20
2.230678389e+20
1.557100993e+20
1.988032233e+20
2.011359589e+20
1.989073633e+20
1.984283194e+20
1.997404832e+20
1.999904191e+20
2.018232828e+20
2.048225142e+20
2.046350623e+20
2.029896506e+20
2.023023267e+20
2.001986991e+20
1.996571712e+20
2.00427807e+20
1.995738592e+20
2.011151309e+20
2.056139781e+20
2.091547374e+20
2.127163248e+20
1.542313116e+20
2.000112471e+20
1.998654511e+20
1.981158995e+20
2.00386151e+20
2.00615259e+20
2.012609269e+20
1.989698473e+20
2.00448635e+20
2.002195271e+20
2.013234109e+20
2.018441108e+20
2.048225142e+20
2.040102224e+20
2.040935344e+20
2.035936625e+20
2.05863914e+20
2.044892663e+20
2.072385618e+20
2.119665169e+20
1.554185073e+20
1.991364713e+20
1.996363432e+20
2.022190147e+20
2.018232828e+20
2.017399708e+20
2.036144905e+20
2.041976743e+20
2.046142343e+20
2.012609269e+20
1.992197833e+20
1.982825234e+20
1.978034795e+20
1.981158995e+20
2.016150028e+20
2.028438546e+20
2.019482508e+20
2.028646826e+20
2.039477384e+20
2.063637859e+20
1.543979355e+20
2.009485069e+20
2.020107347e+20
2.00656915e+20
1.993655792e+20
1.978451355e+20
2.00386151e+20
1.982408674e+20
1.982616954e+20
2.001362151e+20
2.043642983e+20
2.025314347e+20
2.010526469e+20
1.985116314e+20
1.95179152e+20
1.965537998e+20
1.986574274e+20
2.013025829e+20
2.011151309e+20
2.013650669e+20
1.555643033e+20
1.974494036e+20
2.016150028e+20
2.027397146e+20
2.041976743e+20
2.034062105e+20
2.021565307e+20
2.012817549e+20
2.00781883e+20
1.996363432e+20
1.999279351e+20
1.996363432e+20
2.013442389e+20
2.00552775e+20
2.00906851e+20
2.022398427e+20
2.00656915e+20
1.976785115e+20
2.001778711e+20
2.031979305e+20
1.556267873e+20
1.990115033e+20
1.997613112e+20
1.976576836e+20
1.983866634e+20
1.948459041e+20
1.956790239e+20
1.966787677e+20
1.988865353e+20
1.984908034e+20
1.989490193e+20
1.992614393e+20
2.017399708e+20
2.00886023e+20
2.011567869e+20
1.981992115e+20
2.015525188e+20
2.021773587e+20
2.047600302e+20
2.057389461e+20
1.551060874e+20
1.994280632e+20
1.982825234e+20
1.972827796e+20
1.979076195e+20
2.011151309e+20
2.014692068e+20
2.000112471e+20
2.00406979e+20
1.988865353e+20
1.995946872e+20
1.973452636e+20
1.9509584e+20
1.968453917e+20
1.978659635e+20
1.995113752e+20
2.00677743e+20
2.00719399e+20
1.993655792e+20
2.012400989e+20
1.560850032e+20
2.00427807e+20
2.022814987e+20
2.015733468e+20
1.996155152e+20
1.979492755e+20
1.979909315e+20
1.972202956e+20
1.962413798e+20
1.982200394e+20
1.971994676e+20
1.975327156e+20
2.016983148e+20
2.027397146e+20
2.015733468e+20
2.039060824e+20
2.025730906e+20
2.027605426e+20
2.037186304e+20
2.031771025e+20
1.546895275e+20
1.981783835e+20
1.998654511e+20
2.017816268e+20
2.018024548e+20
2.025730906e+20
2.010109909e+20
1.995946872e+20
1.976576836e+20
1.967204237e+20
1.964080038e+20
1.974494036e+20
1.95116668e+20
1.956998519e+20
1.975951996e+20
1.95470744e+20
1.957206799e+20
1.982616954e+20
1.969703597e+20
1.978659635e+20
1.529608038e+20
2.003444951e+20
1.997404832e+20
1.995530312e+20
1.997821392e+20
2.00594431e+20
2.020940467e+20
2.037394584e+20
2.038019424e+20
2.045309223e+20
2.037602864e+20
2.028646826e+20
2.045725783e+20
2.014692068e+20
2.000320751e+20
1.970536717e+20
1.969703597e+20
1.956581959e+20
1.926589645e+20
1.934712563e+20
1.57251371e+20
2.015316908e+20
2.024272947e+20
2.023439827e+20
2.00636087e+20
2.014275509e+20
2.031146185e+20
2.020523907e+20
2.039060824e+20
2.001778711e+20
2.00761055e+20
1.973452636e+20
1.943876882e+20
1.944710001e+20
1.961164118e+20
1.978451355e+20
1.991572993e+20
1.996363432e+20
2.016358308e+20
2.00698571e+20
1.547728395e+20
1.973244356e+20
1.994072352e+20
2.011567869e+20
2.009276789e+20
2.010734749e+20
1.988865353e+20
1.982825234e+20
1.971786396e+20
1.988240513e+20
2.017816268e+20
2.029063386e+20
2.0621799e+20
2.075926377e+20
2.055514941e+20
2.044267823e+20
2.048225142e+20
2.039893944e+20
2.016358308e+20
2.002820111e+20
1.558350673e+20
1.992197833e+20
1.994905472e+20
1.987823953e+20
1.985116314e+20
1.993030952e+20
2.010109909e+20
2.025314347e+20
2.024689507e+20
2.009485069e+20
2.00594431e+20
2.000737311e+20
2.017607988e+20
1.995322032e+20
1.995738592e+20
2.002820111e+20
2.022606707e+20
2.015316908e+20
2.011984429e+20
2.023856387e+20
1.558975513e+20
2.003653231e+20
2.00698571e+20
1.984908034e+20
1.983241794e+20
1.990531593e+20
1.983450074e+20
1.984074914e+20
2.00573603e+20
2.00406979e+20
2.013025829e+20
2.013858949e+20
1.976993395e+20
2.003653231e+20
1.991781273e+20
1.995946872e+20
1.987199114e+20
1.975951996e+20
2.00823539e+20
1.988448793e+20
1.544604195e+20
2.015316908e+20
2.052390742e+20
2.066553779e+20
2.065720659e+20
2.069053138e+20
2.057597741e+20
2.052807301e+20
2.041560184e+20
2.047600302e+20
2.040310504e+20
2.029896506e+20
2.078009177e+20
2.071969058e+20
2.071135938e+20
2.06280474e+20
2.074884977e+20
2.068011739e+20
2.065095819e+20
2.083007896e+20
1.542521396e+20
1.976576836e+20
1.980325875e+20
1.989490193e+20
1.976576836e+20
1.981992115e+20
1.981575555e+20
1.959497879e+20
1.978243075e+20
1.987823953e+20
2.012817549e+20
2.010943029e+20
2.00677743e+20
1.998029672e+20
2.025522626e+20
2.036769744e+20
2.040102224e+20
2.020732187e+20
2.030313066e+20
2.029896506e+20
1.545437315e+20
1.994697192e+20
1.995322032e+20
1.955332279e+20
1.977409955e+20
1.977409955e+20
1.982200394e+20
2.019274228e+20
2.027188866e+20
2.034686945e+20
2.009485069e+20
2.00886023e+20
1.989490193e+20
1.992614393e+20
1.980742435e+20
1.988240513e+20
1.988240513e+20
1.989698473e+20
2.00656915e+20
1.990323313e+20
4.79718533e+20
5.567187534e+20
5.65955904e+20
5.936520927e+20
6.093810933e+20
6.136897705e+20
6.171662201e+20
6.189803412e+20
5.977380563e+20
6.209952147e+20
3.276366175e+20
3.966460646e+20
4.352691907e+20
4.67794435e+20
4.971232885e+20
5.106795689e+20
5.185007023e+20
5.376730438e+20
5.389260263e+20
5.275697763e+20
2.717659521e+20
3.140421592e+20
3.570733134e+20
3.906751444e+20
4.199567924e+20
4.393947775e+20
4.608095982e+20
4.933535421e+20
5.041252236e+20
5.105327178e+20
2.510940149e+20
2.756760653e+20
3.00916383e+20
3.400376023e+20
3.572952759e+20
3.849681687e+20
4.203146719e+20
4.424267248e+20
4.526315327e+20
4.65545975e+20
2.338708843e+20
2.544621195e+20
2.756563599e+20
3.031210635e+20
3.204203925e+20
3.421843098e+20
3.681158832e+20
3.836633241e+20
4.098933173e+20
4.386430124e+20
2.20117462e+20
2.349107747e+20
2.501632323e+20
2.611898495e+20
2.799568686e+20
2.989027119e+20
3.236324892e+20
3.476194296e+20
3.709358743e+20
3.883113101e+20
2.159997961e+20
2.245563489e+20
2.359226826e+20
2.500081929e+20
2.582746092e+20
2.722845299e+20
2.925965502e+20
3.092487075e+20
3.329512628e+20
3.569319433e+20
2.121747562e+20
2.167484385e+20
2.162995438e+20
2.289678991e+20
2.382469913e+20
2.480251943e+20
2.640888192e+20
2.82468226e+20
3.003393289e+20
3.192945199e+20
2.038558168e+20
2.11592271e+20
2.163843088e+20
2.201335367e+20
2.316069338e+20
2.397584092e+20
2.410734033e+20
2.551389642e+20
2.75355271e+20
2.913002944e+20
2.038140133e+20
2.057205541e+20
2.11425546e+20
2.124728213e+20
2.143084013e+20
2.269903381e+20
2.387631439e+20
2.467975027e+20
2.524274233e+20
2.602104464e+20
2.092484961e+20
2.076146562e+20
2.109805287e+20
2.162498314e+20
2.188855285e+20
2.1945934e+20
2.207605553e+20
2.302243357e+20
2.398027356e+20
2.474938969e+20
2.005742252e+20
2.052996425e+20
2.052164967e+20
2.0383051e+20
2.059707236e+20
2.11300759e+20
2.187554253e+20
2.231779975e+20
2.249891803e+20
2.327729885e+20
2.034168778e+20
2.038685434e+20
2.045171847e+20
2.04299969e+20
2.050681907e+20
2.072106476e+20
2.098631043e+20
2.156926302e+20
2.216063811e+20
2.309022517e+20
1.982541183e+20
1.981862348e+20
2.001941584e+20
2.05174869e+20
2.057128575e+20
2.075569002e+20
2.08010537e+20
2.105340963e+20
2.127845766e+20
2.143551463e+20
1.953069581e+20
1.98459829e+20
2.000882033e+20
2.010564356e+20
2.018663529e+20
2.059554826e+20
2.063977158e+20
2.078121472e+20
2.082741818e+20
2.104577815e+20
2.038558166e+20
2.059099647e+20
2.03203325e+20
2.012058089e+20
2.019093292e+20
1.996580101e+20
2.031502755e+20
2.044755598e+20
2.060189822e+20
2.103909695e+20
1.998426599e+20
1.992806054e+20
1.970790381e+20
1.977702221e+20
1.966660474e+20
1.992901151e+20
2.030630958e+20
2.046072699e+20
2.039627736e+20
2.067608511e+20
2.012639862e+20
2.006275239e+20
2.01698743e+20
2.022727595e+20
2.054335009e+20
2.026011573e+20
2.031066842e+20
2.035097078e+20
2.044934085e+20
2.08431151e+20
2.002816003e+20
2.034897229e+20
2.045807577e+20
2.0496148e+20
2.066153896e+20
2.064532195e+20
2.068554087e+20
2.050243416e+20
2.032773688e+20
2.043778915e+20
2.047545964e+20
2.057626457e+20
2.036059582e+20
2.027208794e+20
2.024465507e+20
2.016489636e+20
2.041964307e+20
2.061658047e+20
2.043828595e+20
2.063377085e+20
2.018283364e+20
2.017429383e+20
2.014232548e+20
2.016112507e+20
2.01479552e+20
2.015191174e+20
1.998592453e+20
2.011828805e+20
2.035647975e+20
2.015717863e+20
2.008041454e+20
1.990701496e+20
1.974181002e+20
1.989865487e+20
)
;

boundaryField
{
    flow
    {
        type            calculated;
        value           nonuniform List<scalar> 
42
(
1.5164864e+20
1.522109959e+20
1.565223911e+20
1.567931551e+20
1.545645595e+20
1.557100993e+20
1.542313116e+20
1.554185073e+20
1.543979355e+20
1.555643033e+20
1.556267873e+20
1.551060874e+20
1.560850032e+20
1.546895275e+20
1.529608038e+20
1.57251371e+20
1.547728395e+20
1.558350673e+20
1.558975513e+20
1.544604195e+20
1.542521396e+20
1.545437315e+20
1.5164864e+20
1.958456479e+20
1.971994676e+20
1.981575555e+20
1.981367275e+20
1.980325875e+20
1.973244356e+20
1.991781273e+20
1.959497879e+20
1.944085162e+20
1.940544402e+20
1.958039919e+20
1.926381365e+20
1.948875601e+20
1.946167961e+20
1.955540559e+20
1.968037357e+20
1.995946872e+20
2.103419332e+20
2.719928018e+20
)
;
    }
    obstacle
    {
        type            calculated;
        value           nonuniform List<scalar> 10(271.0825339 292.1329054 290.4001241 274.7644421 285.4182126 309.4072825 287.0856249 286.4161312 276.5380528 279.6780256);
    }
    frontAndBack
    {
        type            empty;
    }
    procBoundary0to1
    {
        type            processor;
        value           nonuniform List<scalar> 
21
(
6.151824637e+20
5.47589117e+20
5.100571984e+20
4.633722481e+20
4.51706619e+20
4.065696086e+20
3.691947271e+20
3.421170072e+20
3.111133547e+20
2.730654565e+20
2.569803487e+20
2.450006458e+20
2.328639032e+20
2.18259433e+20
2.178331904e+20
2.106094724e+20
2.075584617e+20
2.115741317e+20
2.064816359e+20
2.080744415e+20
2.005815196e+20
)
;
    }
    procBoundary0to2
    {
        type            processor;
        value           nonuniform List<scalar> 
31
(
1.542104836e+20
1.976576836e+20
2.015108628e+20
1.999487631e+20
2.00906851e+20
2.00677743e+20
2.00719399e+20
1.987823953e+20
1.971786396e+20
1.971786396e+20
1.969911877e+20
1.996363432e+20
2.001153871e+20
1.993864072e+20
2.00427807e+20
1.976785115e+20
1.969495317e+20
1.957831639e+20
1.934920843e+20
1.922007486e+20
2.023820841e+20
2.04678674e+20
2.037605313e+20
2.049145855e+20
2.056873369e+20
2.066717685e+20
1.946171955e+20
1.96755137e+20
2.030761758e+20
2.023820841e+20
2.016325883e+20
)
;
    }
}


// ************************************************************************* //
