/*--------------------------------*- C++ -*----------------------------------*\
| =========                 |                                                 |
| \\      /  F ield         | OpenFOAM: The Open Source CFD Toolbox           |
|  \\    /   O peration     | Version:  2406                                  |
|   \\  /    A nd           | Website:  www.openfoam.com                      |
|    \\/     M anipulation  |                                                 |
\*---------------------------------------------------------------------------*/
FoamFile
{
    version     2.0;
    format      ascii;
    arch        "LSB;label=32;scalar=64";
    class       volScalarField;
    location    "0.002";
    object      internalT;
}
// * * * * * * * * * * * * * * * * * * * * * * * * * * * * * * * * * * * * * //

dimensions      [1 2 -2 0 0 0 0];

internalField   nonuniform List<scalar> 
654
(
300.5680826
304.2073502
304.1346782
304.9818388
300.538284
301.1420648
299.6621088
299.5046717
298.359662
299.1447591
299.9938445
305.911956
302.2890476
305.3082233
308.3422503
308.7458956
306.9730181
307.9778788
339.8836347
421.5726866
304.9175261
304.6820197
302.9749763
302.4551781
307.6383342
308.5260988
306.1141828
304.8512165
302.5310792
306.5333283
306.6047144
302.7883378
303.1798855
301.263055
300.3600279
301.7170783
309.4218477
324.6258034
340.885636
423.931171
300.0057574
301.4933304
303.2067912
299.4680051
298.0560717
295.9964217
292.7049181
295.073547
292.9428611
297.7462988
294.1201573
294.3964105
294.423732
295.5181578
299.6923057
307.9720339
307.241055
316.0802329
343.1819462
401.5391825
303.287698
297.8832127
297.6525228
297.9467108
296.1410684
291.9886322
296.810668
300.1540807
300.1244476
296.1269918
298.8156103
299.2240588
298.2529746
300.5682263
300.5444482
300.4295196
306.3071468
308.5143748
326.8825152
371.2516113
292.6197215
299.5254885
295.3238224
296.2355416
298.4724367
301.4011698
298.4392041
300.0612356
298.1141316
296.7953185
298.7217044
296.3421218
299.9699441
303.1455591
306.6108923
308.4298374
312.3486251
317.7043589
334.2891909
359.4309101
295.9695582
294.3849173
294.6869532
296.5755781
294.4728967
293.4417267
295.3375148
291.5435109
292.0357445
301.0619101
302.1401753
303.9708317
302.8164984
302.4573011
295.6082349
302.4682245
307.7999289
321.0906861
318.6719489
332.2700456
302.0580637
303.3006701
303.9213362
300.3204101
303.7280798
299.5477875
296.3800046
296.6594847
297.8384722
295.8867312
295.3548607
294.9139716
298.7641449
299.0718653
305.9969865
304.9540814
306.1497714
306.740691
306.865715
314.5507347
302.2055818
302.1450064
300.8045855
301.7689566
298.5475209
303.7606078
305.8612889
302.170109
305.1092698
303.8239789
298.4133547
302.6557543
299.8374816
301.0579556
301.3800739
302.0642926
307.8623001
311.0427382
318.4127769
311.2475133
302.9956659
305.338729
306.903024
304.72518
305.1761143
301.7359047
301.4423159
300.8852861
303.7941554
307.516883
309.3395514
307.4362947
308.1326258
308.0667917
305.0125783
307.5621151
307.8188845
314.0484642
313.9751031
316.3111565
305.4237587
302.9632013
299.4922206
299.9558342
298.7596308
304.3507875
303.712874
302.6933131
299.1477588
298.3489145
297.4315975
300.4623902
308.0803546
303.9091235
303.1728721
303.2253206
304.7316198
307.0928264
306.2569776
313.259848
293.7102797
296.5936906
300.1628742
297.6536191
298.5405019
297.7846682
296.803365
297.2433633
297.0207045
299.6457272
299.1404841
296.6369399
296.3372817
293.7799749
291.7346035
295.5236207
296.3159171
294.3093907
297.1529005
303.4370002
296.6181052
299.9282147
297.8700915
302.7793232
300.6397339
300.9489913
300.6417342
298.8404832
299.3462919
296.5062846
299.3064203
299.827051
299.3065958
301.9501976
302.7160285
298.8655927
298.2435517
296.6444142
299.3384813
303.2686286
294.0564089
292.6471272
292.4459975
292.4717663
290.2055725
289.7367564
292.1990524
297.2282645
296.8642326
294.1516444
290.6053082
290.224069
293.6734797
293.2433376
290.5204859
291.8838759
292.4604078
293.5934078
295.588644
294.9099916
296.0080522
292.7993887
293.2820971
297.3000864
301.0571703
298.9798956
299.023585
295.3867977
293.349469
294.3348343
295.8015385
297.1569359
296.843324
298.2680543
297.4108509
294.5113101
292.8669293
293.4864217
293.8087849
298.3069377
294.9681776
296.3659472
297.7310668
295.927277
295.0573533
296.617589
292.5238976
298.0381844
298.6931705
300.6449538
302.0213796
300.9841225
298.2825822
291.1850908
292.2880468
291.2344018
293.8566366
295.7724752
296.0503303
298.6415675
296.7243661
294.5032337
294.9623767
292.4197821
289.6807649
291.2347331
292.3522109
289.9509272
288.011823
288.1679512
287.1038041
290.5604042
293.7141931
296.3911253
295.6248064
297.0794449
303.1581541
297.6504304
298.0185902
301.6024044
299.2063929
299.6156069
298.2166917
295.3950755
295.7034219
295.8540866
297.3984539
297.4284188
296.258786
299.4058057
302.3305312
298.9902359
299.4729548
300.7666866
302.5713338
296.7800788
297.3764414
302.4977214
304.6911016
306.1679285
302.4500133
303.0425403
301.0424894
303.3663749
301.0515536
305.2730256
303.3897129
302.2148011
303.1853772
297.8264535
296.9468106
296.4904737
297.9154016
302.0046826
299.7267003
298.9157303
294.4631165
291.9127761
292.350568
289.0377056
300.8443556
301.6158134
301.9679925
300.0421751
298.8895923
298.4951108
298.2198116
296.8023644
299.6675251
298.9511467
299.7749532
300.308196
296.2673736
291.1626581
287.8156309
287.8451853
289.8855498
290.844158
290.3542684
292.1721997
300.0047201
300.8917377
300.184312
299.7209698
300.9272102
299.5728178
295.7438551
296.5029721
293.5522175
290.5314405
294.48582
295.8891805
297.3161117
297.9123525
300.6814562
301.8428626
301.379094
302.6893683
298.2433688
295.542832
301.0450912
298.9601063
297.3175501
294.8541269
293.5235458
291.6540297
292.1086535
294.9592106
298.9533301
298.7786896
299.1055765
297.4366903
298.897431
301.2031856
297.5598975
300.0788887
301.9909299
302.1876591
304.5297115
305.4102873
290.9241052
291.5019683
291.3385769
294.5901415
295.5956723
301.5669221
302.1336215
301.8571077
298.2809691
299.5070391
297.7671135
298.6518169
293.1718078
298.1673981
299.8295875
299.5097049
300.4228713
302.3376223
301.4810795
304.1120821
543.7686171
605.068901
617.7333075
648.4991827
663.2914736
671.5456292
687.7064048
681.2649332
698.4241095
715.2724001
496.9179109
577.1244362
606.0958457
639.551942
660.0275873
686.8418541
720.2598657
743.0961684
751.1319643
765.9048388
479.5106911
504.2624703
534.8873584
576.7287221
610.9990649
663.2684591
689.2491489
720.7559699
737.8745657
750.6566089
408.465085
450.9042942
476.7524502
540.6031028
570.068585
605.2791349
634.8955513
659.1692178
666.2890261
708.7468686
394.0906576
429.6173661
455.6115316
484.9272489
525.9892197
555.7137738
591.2522498
604.8144857
636.1637512
644.111883
362.4311784
388.0186929
408.1332518
445.3211344
465.8966665
501.5435823
548.3931091
547.5442578
578.4288566
600.8926177
341.8500515
369.3860417
363.4158592
391.9457978
419.6390339
435.0535447
471.9385966
497.198244
523.9393503
558.1784139
321.4971678
344.3437863
355.6483172
378.0966354
398.611664
409.3434107
444.9149059
457.6228389
484.1382412
511.734848
330.4483797
327.951397
331.9655574
342.8690618
364.5248151
384.7198303
399.7772791
425.8629466
447.3037746
474.6160844
320.3150183
322.1087357
329.5252823
334.71321
334.8961136
359.7023674
383.2078626
385.9053789
403.560924
425.2530743
309.5702883
326.3560909
318.6592257
327.6610067
332.7168455
344.7632963
347.7815398
352.9622282
375.6071269
393.7178866
300.4374221
310.3389694
307.4906917
305.7563404
316.2745856
312.194303
330.3085601
341.9466614
349.713943
361.3850351
297.845143
293.6891234
302.9643479
301.2702686
301.8442093
313.0582941
322.3129344
331.8323622
334.3959173
343.7310975
299.3434492
296.0479852
302.848188
310.7205748
310.7468234
312.8539044
316.7852188
321.7235567
333.5729786
331.8224824
299.1403338
299.5249392
299.5642903
304.9128251
307.6918745
310.9409315
316.0974559
320.1784083
324.2927169
326.0743042
304.6735333
310.2029427
305.6210652
302.2870645
304.00683
311.9610223
311.8803451
314.2384025
318.1250293
327.4573363
301.7082507
300.4127375
304.6012905
302.197926
296.9123176
300.1701088
303.6778168
310.1121907
316.877158
317.1547662
294.2576244
296.1314238
297.9668686
293.7113517
294.2877275
292.8886531
297.7434106
297.4778614
304.7007752
312.9906452
290.2057526
288.4751522
291.909987
300.6410238
303.6545815
301.4170843
301.2630134
302.8429049
302.0181776
306.1213575
301.5616096
303.5812041
303.7149277
302.6773952
300.2160014
307.8493723
311.9033155
315.158968
311.5709153
311.4747413
304.4554797
302.0960258
308.7169238
306.2101954
308.2972278
306.2719026
310.1397942
307.349586
310.9800437
308.2387692
307.225166
304.1887708
306.7344351
308.5974987
)
;

boundaryField
{
    flow
    {
        type            calculated;
        value           nonuniform List<scalar> 
42
(
300.5680826
304.9175261
300.0057574
303.287698
292.6197215
295.9695582
302.0580637
302.2055818
302.9956659
305.4237587
293.7102797
296.6181052
294.0564089
296.0080522
294.9681776
296.7243661
299.2063929
302.4500133
300.8443556
300.0047201
301.0450912
290.9241052
300.5680826
304.2073502
304.1346782
304.9818388
300.538284
301.1420648
299.6621088
299.5046717
298.359662
299.1447591
299.9938445
305.911956
302.2890476
305.3082233
308.3422503
308.7458956
306.9730181
307.9778788
339.8836347
421.5726866
)
;
    }
    obstacle
    {
        type            calculated;
        value           nonuniform List<scalar> 10(520.3596582 554.8846581 603.4805593 609.2777716 570.1331857 612.8103717 593.6519311 634.505739 627.4235046 609.3240098);
    }
    frontAndBack
    {
        type            empty;
    }
    procBoundary0to1
    {
        type            processor;
        value           nonuniform List<scalar> 
21
(
691.6537367
747.7511856
765.3888024
722.6666221
661.5450942
619.357963
584.9823823
541.0175722
494.1528804
439.2074899
410.0554349
384.8935895
352.8211438
338.6883673
329.6226398
335.9907547
318.9645836
314.332204
314.16886
310.8979002
306.9760402
)
;
    }
    procBoundary0to2
    {
        type            processor;
        value           nonuniform List<scalar> 
31
(
299.8388776
302.2619495
302.3641064
300.8182466
301.3681879
301.4649433
301.900647
298.8319652
298.3027942
297.0264244
296.0659238
295.8678605
298.3182427
298.5115631
300.4750624
298.6481277
293.7183589
293.7449671
293.8583014
295.3488059
311.2186586
308.6768218
306.5834809
305.9313192
300.0940385
301.9385357
294.3395243
296.8219304
295.9951149
311.2186586
293.902707
)
;
    }
}


// ************************************************************************* //
