/*--------------------------------*- C++ -*----------------------------------*\
| =========                 |                                                 |
| \\      /  F ield         | OpenFOAM: The Open Source CFD Toolbox           |
|  \\    /   O peration     | Version:  2406                                  |
|   \\  /    A nd           | Website:  www.openfoam.com                      |
|    \\/     M anipulation  |                                                 |
\*---------------------------------------------------------------------------*/
FoamFile
{
    version     2.0;
    format      ascii;
    arch        "LSB;label=32;scalar=64";
    class       volScalarField;
    location    "0.002";
    object      internalEMean;
}
// * * * * * * * * * * * * * * * * * * * * * * * * * * * * * * * * * * * * * //

dimensions      [1 -1 -2 0 0 0 0];

internalField   nonuniform List<scalar> 
654
(
0.31465525
0.4112796581
0.4140237762
0.4171941559
0.4110724672
0.4116818187
0.4081937045
0.4118118575
0.4035882425
0.4014674001
0.4018736484
0.4134962679
0.4019928071
0.410748723
0.4142542358
0.4167941575
0.417049057
0.4243479437
0.4935256358
0.7915593402
0.3203922606
0.4166964091
0.423030621
0.414868527
0.4222877313
0.42816416
0.4249049952
0.4243792112
0.4202794162
0.4252664263
0.4245719532
0.4195484233
0.4232731352
0.4192109172
0.4147585789
0.416892778
0.434790418
0.472164084
0.5282112844
0.7592938909
0.32416018
0.4197047439
0.4238338426
0.4173589516
0.4157340234
0.4153721448
0.4126470152
0.4107254252
0.4107922425
0.4190264357
0.4165874661
0.4158358756
0.41202221
0.4144035675
0.4274098964
0.4418306821
0.4359226942
0.4537811971
0.5108973898
0.6539490625
0.3282732506
0.4091969203
0.4094363833
0.4073992291
0.4019071343
0.3914856744
0.4014502575
0.4098996126
0.4077015371
0.4017177207
0.4039901796
0.4066505022
0.4133070337
0.4143114029
0.4134143758
0.4133426776
0.4283438005
0.4446492382
0.4840003425
0.5887690201
0.3122245977
0.4089981218
0.4053838976
0.4105539488
0.41652935
0.4187530697
0.4103039548
0.4105925386
0.4048849139
0.407147744
0.4104346426
0.4079747258
0.4143493133
0.4212202313
0.430179275
0.4397379966
0.4488730046
0.4618685323
0.4936693379
0.5534851636
0.3181393778
0.4040104313
0.4091704206
0.4072300782
0.4033690611
0.4046146164
0.4077382064
0.4061890831
0.4129213188
0.4252942022
0.4233854942
0.4245085004
0.4184989627
0.4168718673
0.4090045171
0.4167129663
0.4273334241
0.4557576271
0.4601136779
0.4879166218
0.3216004053
0.4187756189
0.4193267033
0.4107312817
0.4201518204
0.4148429182
0.4117768911
0.4074732529
0.4121331042
0.4089644171
0.4104800021
0.4109273353
0.4224348802
0.421192947
0.4311218138
0.4286001381
0.4350786444
0.4330075909
0.4390081069
0.4602688343
0.3242341961
0.41535537
0.414550707
0.4212599315
0.4159473261
0.4230356895
0.4299191572
0.4259473242
0.4309678239
0.4221192103
0.4103971345
0.4142733291
0.4094241443
0.4117399811
0.4194604156
0.4229751432
0.4291906054
0.4355922195
0.448294057
0.4433972331
0.3229471877
0.4235652072
0.4279856597
0.4221007023
0.4200048636
0.4121031838
0.4169898874
0.4117634
0.4157878857
0.4248623509
0.4364093849
0.4298344084
0.4276624126
0.4221671588
0.4109649443
0.417318737
0.4221372422
0.4364149533
0.4359067151
0.4396957242
0.3279943536
0.4129517482
0.4168329037
0.4198070676
0.42113982
0.4273583956
0.4238425745
0.4205918363
0.4146330133
0.4111664495
0.4105009683
0.414079114
0.4282100092
0.4207518316
0.4204735543
0.4233365676
0.4221096227
0.4190662978
0.4232097456
0.4394177692
0.3155419467
0.4074681711
0.4139252853
0.4061425304
0.408855019
0.4005412198
0.4009282841
0.4035740628
0.4077985786
0.4105840558
0.4108379906
0.4080393967
0.4126975094
0.4074042093
0.4051130531
0.4043409461
0.4122843147
0.410761981
0.4200285009
0.4309616731
0.3175997125
0.4129117063
0.4077227434
0.4123528435
0.4107357404
0.4178219385
0.4181302097
0.4126173156
0.4141334648
0.4070922989
0.4123999571
0.4084614947
0.4031047337
0.4103119558
0.4134853366
0.4116206773
0.4131653307
0.4110353033
0.4119707018
0.4213040276
0.316843957
0.4049075189
0.4083715195
0.4069777404
0.3999020616
0.3959233469
0.3993720831
0.404664692
0.4021629571
0.4025060758
0.3956060117
0.3957546829
0.4089032858
0.4104125062
0.4042625118
0.4108600237
0.408980345
0.4109446646
0.4156924097
0.413635544
0.3160953009
0.4005715019
0.4046475198
0.4141238626
0.4194005751
0.4180972795
0.4149338351
0.4069992972
0.4002696019
0.3997097264
0.4010635667
0.4050375611
0.3998298911
0.4029497027
0.405682992
0.3974086768
0.3956950806
0.4016802055
0.3995022749
0.4074628791
0.3114647652
0.4098824434
0.4105290093
0.4076589004
0.406927184
0.4107422463
0.4081017651
0.419180101
0.4202301548
0.4244890552
0.4248257483
0.4215058764
0.4212393311
0.4049779828
0.4036122109
0.3961692901
0.3995673405
0.3994932099
0.3937389448
0.3988598392
0.3221078084
0.4097198621
0.4121822605
0.4084610455
0.4012197559
0.4049632769
0.4099219421
0.4044288206
0.4054096652
0.39821292
0.3978982395
0.3958373223
0.3941370755
0.3978997304
0.4002288712
0.40574351
0.4167917212
0.410203841
0.4148247562
0.4178618102
0.3196827631
0.4081303605
0.4105125717
0.4101961147
0.410156614
0.4106633612
0.4083172148
0.4071181844
0.403259592
0.4109440889
0.4211310157
0.4187995646
0.4263220137
0.4310178738
0.4293406596
0.4188187731
0.4204727492
0.4259742018
0.4241125086
0.423306796
0.3253661754
0.4167634866
0.4145755826
0.4162928609
0.412553649
0.4200065624
0.4209924012
0.422534107
0.423760317
0.4131441953
0.411198137
0.4095004815
0.4149381307
0.4159874958
0.4129359458
0.4132799301
0.4111458858
0.4061159563
0.4060524721
0.403819972
0.3237686265
0.4171865226
0.4183683223
0.4111272813
0.409204179
0.4101662276
0.408330073
0.4065172921
0.4149225696
0.4135867973
0.4165798821
0.417493613
0.4043362207
0.4027280118
0.395739702
0.3966080713
0.3976688319
0.3967257008
0.4025283123
0.4010577411
0.3198887003
0.4186077001
0.4253061279
0.4275800584
0.4291278032
0.4278855799
0.4200778723
0.4201756071
0.4137148921
0.4106690032
0.414776607
0.4146260483
0.4265004632
0.4261135829
0.4299013917
0.4298259514
0.4316788299
0.4321194038
0.4251719503
0.4249765321
0.3205651808
0.4079252066
0.4064534452
0.4049511299
0.4005071263
0.3990464993
0.3995845248
0.3989884847
0.4082598308
0.4099974347
0.4156066824
0.4129028766
0.4140711684
0.4154464916
0.4160687526
0.4219208423
0.4253039637
0.4215402853
0.4268214944
0.4279678639
0.3103735495
0.4013951027
0.4012957813
0.3976421199
0.4035045064
0.4116555939
0.4134283138
0.4207753698
0.4174201014
0.420686169
0.4130618789
0.4141603163
0.4026406416
0.4101446209
0.4099737919
0.411086694
0.4123400442
0.415272394
0.4176070235
0.4178408596
1.800753376
2.325381883
2.413443938
2.657633183
2.790274896
2.844972105
2.929940615
2.911028737
2.881932013
3.066290677
1.123907802
1.580251512
1.821179851
2.065306323
2.265060459
2.421357061
2.578054928
2.758143687
2.794467112
2.789384108
0.8995948113
1.093196426
1.31847934
1.555395949
1.771327059
2.011860379
2.192559342
2.454709483
2.567879084
2.645565348
0.7080189835
0.8580982858
0.9903583518
1.268992574
1.406073374
1.608548374
1.842173097
2.01322295
2.081905766
2.27775669
0.6362472217
0.7546725785
0.8669944673
1.0147202
1.163457686
1.312698094
1.502487835
1.601865585
1.800086433
1.950410958
0.5507235516
0.6292296619
0.704821366
0.8029402029
0.9003976064
1.034885101
1.225173809
1.313944051
1.481161414
1.610758791
0.5097328143
0.572610649
0.5918711548
0.6764471247
0.7481887835
0.8177476038
0.953253261
1.061429322
1.204246202
1.375346274
0.4708954182
0.5152308151
0.5310433358
0.5976281056
0.6555880506
0.7008695691
0.8111115253
0.892341097
1.003772274
1.127950546
0.4650293206
0.479030192
0.4958752045
0.5210364567
0.5828170617
0.6367544993
0.6653053386
0.7500673207
0.8502557136
0.9544143865
0.450676532
0.4574396336
0.4809498606
0.4909416062
0.4954535059
0.5636431968
0.6316191686
0.6574688698
0.7032330018
0.7638811466
0.4471726347
0.4677387306
0.4641116546
0.4891410825
0.5027423152
0.5223104255
0.5300069997
0.5609615089
0.621786887
0.6726718299
0.4159898669
0.4398231738
0.4356100034
0.4302275966
0.449700522
0.4553859553
0.4988066824
0.5268213246
0.5431605044
0.5807060472
0.4182453374
0.4133250096
0.4277351415
0.424891631
0.4273018271
0.4478070061
0.4669468268
0.4940918003
0.5115602956
0.5478991093
0.4096807687
0.405031871
0.4185332655
0.4400963613
0.4412876122
0.4482624464
0.4548873357
0.4675832049
0.489987059
0.4910133771
0.4033167803
0.4103545027
0.4137758389
0.4232015722
0.428779058
0.4420840581
0.4503804065
0.4593212866
0.4662579328
0.4737346661
0.4287572121
0.4409373413
0.4287140302
0.4198688732
0.4237340152
0.4299724948
0.4373801037
0.4435619311
0.4524375882
0.4755929642
0.4162257936
0.413272948
0.4144057517
0.4125779203
0.403098522
0.4129588733
0.4256941413
0.4380195565
0.446164945
0.4526819263
0.4088343673
0.4101366781
0.4148821693
0.4101207406
0.4173467348
0.4096359563
0.4174649099
0.4179202191
0.4301366757
0.4503473232
0.4012367198
0.4052327093
0.412256335
0.4253770857
0.4331079007
0.4295790823
0.430195931
0.4286239465
0.4238144061
0.4318979537
0.4262489421
0.4312161483
0.4268843392
0.4235767082
0.4195636158
0.4285365493
0.4396648429
0.4485386842
0.4395972661
0.4436648664
0.4241891316
0.420723679
0.4292631906
0.4261750414
0.4287994284
0.426066129
0.4278931551
0.4268519365
0.4370074083
0.4289143809
0.4258758988
0.4180256417
0.4180258166
0.4239061554
)
;

boundaryField
{
    flow
    {
        type            calculated;
        value           nonuniform List<scalar> 
42
(
0.31465525
0.3203922606
0.32416018
0.3282732506
0.3122245977
0.3181393778
0.3216004053
0.3242341961
0.3229471877
0.3279943536
0.3155419467
0.3175997125
0.316843957
0.3160953009
0.3114647652
0.3221078084
0.3196827631
0.3253661754
0.3237686265
0.3198887003
0.3205651808
0.3103735495
0.31465525
0.4112796581
0.4140237762
0.4171941559
0.4110724672
0.4116818187
0.4081937045
0.4118118575
0.4035882425
0.4014674001
0.4018736484
0.4134962679
0.4019928071
0.410748723
0.4142542358
0.4167941575
0.417049057
0.4243479437
0.4935256358
0.7915593402
)
;
    }
    obstacle
    {
        type            calculated;
        value           nonuniform List<scalar> 10(9.737753077e-19 1.11901729e-18 1.209800288e-18 1.155658358e-18 1.123340985e-18 1.308911369e-18 1.17651355e-18 1.254546116e-18 1.197758568e-18 1.176414146e-18);
    }
    frontAndBack
    {
        type            empty;
    }
    procBoundary0to1
    {
        type            processor;
        value           nonuniform List<scalar> 
21
(
2.937286277
2.826607585
2.694974045
2.311647542
2.062858834
1.738322049
1.490911546
1.277731604
1.061288814
0.8279232971
0.7274381742
0.6509708006
0.5671662478
0.5103015703
0.4956723427
0.4884935447
0.4570213707
0.4590976255
0.4478145189
0.4465706002
0.425058787
)
;
    }
    procBoundary0to2
    {
        type            processor;
        value           nonuniform List<scalar> 
31
(
0.3191945328
0.4124305069
0.42061262
0.4152183125
0.4179706195
0.4176280167
0.4183184246
0.4100705417
0.4060418418
0.4043044811
0.4026139556
0.4077472109
0.412110706
0.410875559
0.4157382755
0.4075424579
0.3993370883
0.3970081098
0.3925136537
0.3918716952
0.4348017587
0.4361443153
0.4312433556
0.4327632891
0.4261068588
0.4307777879
0.3954425475
0.4031583571
0.4149512924
0.4348017587
0.4090891046
)
;
    }
}


// ************************************************************************* //
