/*--------------------------------*- C++ -*----------------------------------*\
| =========                 |                                                 |
| \\      /  F ield         | OpenFOAM: The Open Source CFD Toolbox           |
|  \\    /   O peration     | Version:  2406                                  |
|   \\  /    A nd           | Website:  www.openfoam.com                      |
|    \\/     M anipulation  |                                                 |
\*---------------------------------------------------------------------------*/
FoamFile
{
    version     2.0;
    format      ascii;
    arch        "LSB;label=32;scalar=64";
    class       volScalarField;
    location    "0.002";
    object      internalE;
}
// * * * * * * * * * * * * * * * * * * * * * * * * * * * * * * * * * * * * * //

dimensions      [1 -1 -2 0 0 0 0];

internalField   nonuniform List<scalar> 
654
(
0.2400706017
0.4045524293
0.1416555655
0.3202751114
0.2743662792
0.5168298212
0.4289847036
0.4746779203
0.2132031731
0.3582900491
0.4762898541
0.691313077
0.3244938398
0.5221282731
0.3572147321
0.2028742598
0.3545864529
0.3822282298
0.4054050583
1.101328972
0.1572146575
0.4704634537
0.5037906203
0.2741576979
0.2827639374
0.4351915925
0.6515210734
0.7336079678
0.3004701304
0.2755669037
0.3556427114
0.2388238541
0.4202266559
0.3585361132
0.3794308278
0.2870439089
0.3988124625
0.5526401188
0.4371525154
0.2237245165
0.2370252423
0.5013611719
0.3289993787
0.8261814751
0.5271516359
0.3934788353
0.3592435899
0.2702514656
0.2351317494
0.5607983135
0.4797508411
0.2400839954
0.2906242464
0.769453291
0.2802345329
0.6104979612
0.4530833725
0.3492421994
0.3696119501
1.07205589
0.5529959512
0.3188187302
0.1473790511
0.2172776204
0.163402721
0.1987755602
0.3653728141
0.7672811325
0.2358646078
0.807789326
0.5762911883
0.4906945147
0.3048038441
0.5994642525
0.3821067742
0.4483419642
0.4097389372
0.5917514963
0.367356584
1.252824401
0.4448736854
0.4416880714
0.324180043
0.2793659258
0.6191349999
0.181104376
0.6307839786
0.3654365387
0.08023020368
0.3665167847
0.5292689411
0.2079978598
0.587891748
0.5109837577
0.4847833562
0.2385380299
0.3125954118
0.6563491874
0.5462150402
1.371769869
0.2429650438
0.1743387284
0.7424624892
0.1552269504
0.4091963096
0.4918970489
0.2209727337
0.4777082959
0.6956226002
0.4485709128
0.473397017
0.1559383558
0.3612670661
0.4671387132
0.7062735771
0.4772021704
0.0880713895
0.4326111292
0.5540184294
0.2179612404
0.4262154763
0.2152877146
0.6565877198
0.3946588122
0.6078314107
0.2857467278
0.3151685741
0.6714277853
0.2757064256
0.2363142343
0.3918234197
0.6522513039
0.528972395
0.3017073623
0.6255605588
0.5383731206
0.3360032023
0.7703518154
0.1716835158
0.7477279107
0.2519422375
0.5177560279
0.3424214552
0.1859855752
0.3638315059
0.4792547433
0.4145708898
0.22907801
0.4161216722
0.2754364665
0.1825116157
0.5189368254
0.5005244816
0.3253773881
0.4961099492
0.6572745183
0.371441485
0.5540391162
0.3648214667
0.4803486586
0.1648840729
0.5903211916
0.329311733
0.2253111903
0.4769056752
0.1495141147
0.7805534209
0.7792040453
0.06262576809
0.4243709287
0.2544751591
0.3276213211
0.7411362402
0.3368197161
0.3607993994
0.6366098341
0.3568146357
0.2881426807
0.6196456381
0.2334088955
0.5039705302
0.5383200148
0.40280273
0.4680339534
0.6482660478
0.3949833975
0.2562899751
0.311506922
0.4230589993
0.6827536878
0.1197348505
0.151517779
0.7941719589
0.6644262165
0.3967701928
0.2170317904
0.6475515663
0.4554958894
0.2802089973
0.4171660743
0.3189095927
0.3944845017
0.3026196523
0.3581195049
0.6586024397
0.35661108
0.4619850843
0.490321104
0.6241599306
0.5302406432
0.1381727196
0.2592112513
0.6178217299
0.2331327866
0.2667615766
0.2965098738
0.1741699198
0.6053782394
0.7197435109
0.4012160579
0.3380330623
0.2904686422
0.4436766401
0.2523178171
0.3300665542
0.3729200163
0.2988610625
0.4510865244
0.3045946759
0.3496597208
0.450914856
0.5599486791
0.282368501
0.4097411129
0.5879909351
0.496569348
0.5977220154
0.391321817
0.2680531613
0.3044635846
0.3355642319
0.5291588545
0.3805103828
0.5831052545
0.6248438741
0.113421081
0.4267120953
0.4136011429
0.531178241
0.4477037082
0.4708689325
0.5885429772
0.2314322719
0.2854702796
0.5076251041
0.597902893
0.4880748458
0.4556514369
0.3317141109
0.3260985091
0.304308731
0.3341461842
0.1538747317
0.2286714044
0.8708792738
0.4432799444
0.5094855573
0.5349833687
0.5766415082
0.6845782984
0.6730743673
0.6453656277
0.1873300332
0.1807498434
0.8088950592
0.4365055956
0.1575538232
0.5584806118
0.6702895659
0.4905646817
0.233872889
0.4342367281
0.300554793
0.6455642695
0.3756784283
0.4074504735
0.4714701514
0.3297676601
0.3270575226
0.3328999644
0.609053084
0.3180266381
0.2259196879
0.2913553363
0.7117896947
0.3667356061
0.5521557486
0.5614324521
0.8442098889
0.5407408159
0.4294799799
0.3187276308
0.477348416
0.4438360331
0.6975333997
0.6610992199
0.4806530915
0.1681824254
0.2562503059
0.2785687237
0.3115701009
0.6467971974
0.4214371494
0.245608233
0.5601400609
0.4869814763
0.5037520493
0.3074306701
0.178399345
0.4695069082
0.3141325458
0.4566987325
0.4295224691
0.5730939431
0.02475299563
0.8259087962
0.1464383322
0.498876324
0.3399086132
0.3052520074
0.3144752564
0.7005245176
0.09308246047
0.6468249517
0.4159990494
0.2590771712
0.7503492848
0.357890535
0.2512092099
0.6494320168
0.2902339884
0.6113740243
0.4485819197
0.4194705242
0.5213372459
0.2014888096
0.4238195687
0.652406829
0.3316553453
0.3146761426
0.441041861
0.3275530292
0.4108046992
0.4208619406
0.5932909997
0.2128609053
0.6755699801
0.2737294255
0.4021825689
0.3807484483
0.5203792813
0.5490080302
0.7030781646
0.3697404834
0.4612208672
0.4250747113
0.4745374938
0.5609017835
0.3641342888
0.6665076208
0.6609525697
0.2966091739
0.4020270548
0.2412786892
0.4664014949
0.2388675442
0.4299761746
0.5432704584
0.314030393
0.420314245
0.09253152544
0.811879436
0.09863011645
0.7382787809
0.5133104126
0.3776638831
0.2871833842
0.6447205403
0.3076533781
0.1933873309
0.09856887754
0.4804764649
0.5270494334
0.5031342725
0.7924056526
0.4394202392
0.4473464617
0.6080017837
0.2217876162
0.2955538731
0.3623559801
0.4685320294
0.2933664283
0.4599708256
0.4318154723
0.4742025849
0.2960704951
0.3650942043
0.6376733263
0.3794935366
0.4318710296
0.438477723
0.8639322344
0.2831036579
0.3644874464
0.6070611888
0.342226314
0.6610018391
0.3360174824
0.2596360721
0.1871375259
0.3186845581
0.247558617
0.9504190151
0.4070997652
0.3548113979
0.7728723066
0.5816083332
0.1831659376
0.4197834507
0.09378882895
0.1638745845
0.1835782151
0.2731961299
0.3847141568
0.2378439812
0.5928218396
0.2779666239
0.7616109368
0.05120428446
2.383623238
2.531236259
2.605961107
2.364877623
2.897580429
4.515698568
2.010742403
1.695805359
3.007577139
3.1688754
1.234434226
1.918718115
2.137230086
1.225030049
1.843299687
2.846188088
2.598292236
3.095252406
4.534677263
1.857230353
1.201036505
0.7633175495
1.832869254
2.028399231
1.4510766
1.279381866
4.602664648
1.942949611
1.920893784
3.403211764
0.5569574299
0.5094839551
1.095822266
1.196691806
0.8376300998
0.5251425722
2.621311072
1.397023254
2.734242064
3.021722717
0.4277138335
0.512161972
0.3208154251
2.082259816
2.038735043
2.735616493
2.190082654
0.9831611287
2.379559161
2.551443802
0.3219402321
1.176276583
1.030411217
0.5358642784
1.065820778
1.191364622
1.091982968
1.414684423
1.359845592
1.058034328
0.9821229581
0.5977017994
0.7819025098
0.628288455
1.249648778
0.3004033439
0.638707664
0.8861476978
0.3482953481
2.077012375
0.3475335891
0.574211728
0.4960822855
0.8239117678
0.2994899755
0.3358560537
1.016622407
0.8996089057
1.141621031
1.056313685
0.9445273317
0.4537137537
0.8924188554
0.3412487445
0.5017600868
1.212140223
0.4196439113
0.4976277464
0.2423151798
0.8046999254
0.2407745483
0.2568341254
0.6959823251
0.8783332406
0.3743343274
1.368693104
1.885614206
0.8823100529
0.5742711318
0.7551112681
0.2155964186
0.7983970025
0.3452393642
0.4292713721
0.2728643104
0.6932537956
1.19923801
0.4008541891
0.5944086907
0.3879613693
0.4096439259
1.301974211
0.1992321486
0.309307636
0.4231767778
0.8466686451
0.8024903241
0.8470308709
0.3107253502
0.8310350559
0.5186417209
0.5068295516
0.5366372384
0.1217156313
0.2655826621
0.5563922771
0.2895315323
0.3342148397
0.731811025
0.6828393865
0.5229591991
0.5045501935
0.4456622712
0.4451480113
0.2093460235
0.2891434191
0.3957232522
0.6381778478
0.3103939351
0.5027597188
0.6233220595
0.2725925547
0.4794304401
0.6000840884
0.5015976413
0.4909917656
0.6799157752
0.9042528431
0.184032002
1.207437037
0.358962003
0.2421801163
0.1566240303
0.2892606799
0.4234584262
0.3215073118
0.214378093
0.5972712493
0.3244299001
0.04796287177
0.4345816948
0.5639994702
0.4989621876
0.6904651625
0.2204124359
0.2571822524
0.5727593419
0.2261282279
0.280367949
0.5964817773
0.1270292662
0.4344653413
0.4787124653
0.555304676
0.5737525539
0.3000916149
0.3070047365
0.3767145865
0.5220076805
0.4016615095
0.4770228546
0.7883159717
0.4162372571
0.5300072508
0.3374846551
0.5809296895
0.1492918514
0.7972406586
0.2577896128
0.4550841409
0.4343729737
0.7469201616
0.2905404928
0.5286930645
0.5457353129
0.2769712911
0.3033128944
0.9420995226
0.5458022536
0.3277742811
0.2768299955
0.5720635049
0.9771895888
0.3354701547
0.459945514
1.06156772
0.2967620549
0.30959802
0.7390580579
0.441770145
0.3822867733
0.2074460482
0.3192547477
0.7454902777
)
;

boundaryField
{
    flow
    {
        type            zeroGradient;
    }
    obstacle
    {
        type            calculated;
        value           nonuniform List<scalar> 10(5.218333876e-19 6.21049285e-19 0 9.196925565e-19 1.077493924e-18 4.117716643e-18 0 1.814580109e-18 2.216363327e-19 4.256416326e-20);
    }
    frontAndBack
    {
        type            empty;
    }
    procBoundary0to1
    {
        type            processor;
        value           nonuniform List<scalar> 
21
(
3.844453368
2.569011658
2.098073815
0.9556863585
2.132168304
2.155857437
2.266648704
1.60877219
1.131631235
0.5839371393
0.7351115661
0.05607639845
0.8930483083
0.519544068
0.2223654342
0.5957446588
0.2566816812
0.3927463387
0.4922446227
0.1940475238
0.5829707654
)
;
    }
    procBoundary0to2
    {
        type            processor;
        value           nonuniform List<scalar> 
31
(
0.2943021323
0.8461989115
0.2969140615
0.2542737211
0.2313401198
0.420445194
0.5590479608
0.7555108972
0.4042411498
0.288890594
0.1716391464
0.3290465402
0.2515304144
0.5853829134
0.1326551445
0.398216375
0.7603698301
0.3991868112
0.3779801345
0.2152382721
0.4171550036
0.4874687213
0.4520760131
0.3589051257
0.5639735311
0.5161268928
0.5817803343
0.5005686346
0.32676728
0.4171550036
0.2953987627
)
;
    }
}


// ************************************************************************* //
