/*--------------------------------*- C++ -*----------------------------------*\
| =========                 |                                                 |
| \\      /  F ield         | OpenFOAM: The Open Source CFD Toolbox           |
|  \\    /   O peration     | Version:  2406                                  |
|   \\  /    A nd           | Website:  www.openfoam.com                      |
|    \\/     M anipulation  |                                                 |
\*---------------------------------------------------------------------------*/
FoamFile
{
    version     2.0;
    format      ascii;
    arch        "LSB;label=32;scalar=64";
    class       volScalarField;
    location    "0.002";
    object      linearKE;
}
// * * * * * * * * * * * * * * * * * * * * * * * * * * * * * * * * * * * * * //

dimensions      [1 -1 -2 0 0 0 0];

internalField   nonuniform List<scalar> 
654
(
6.094464395
9.369578574
4.114091602
8.199347234
8.124451845
9.592540589
9.927684181
9.706320344
5.594212141
7.196178125
11.39368427
10.8230867
5.603388856
8.208493945
6.789612175
3.543055224
6.667508491
9.019006971
7.310723199
6.185669628
3.841571691
7.574506478
9.330046958
9.01138236
8.611371564
6.325348564
11.0542409
7.436381069
7.640306725
10.15417037
6.034363263
10.24958284
6.584966005
8.680291735
8.683348689
7.525942197
6.620342114
13.79262934
6.806114695
5.340240964
4.58670149
10.90360614
9.321321614
11.45236533
8.595221672
7.78461632
12.71767778
3.38822813
6.298312453
9.700506609
10.14822219
6.945034117
11.13593968
9.236532897
7.3819923
6.542442444
9.425637294
7.314613406
7.769676366
9.46696263
5.311536014
8.070507616
3.088548156
6.611042904
7.144654238
7.419328585
5.8967741
9.91925165
5.06497309
11.44213633
10.39965188
6.581826601
2.712843144
10.04637263
10.9196138
7.699608077
8.806732532
9.059345333
6.225041789
9.987640174
6.750131171
8.332096725
5.708867202
9.212637973
11.07259203
2.933533362
7.671864259
7.398854148
1.849057013
10.2628199
12.96060614
4.176682003
8.598962428
4.426622344
10.1630229
7.192145213
8.302988169
9.735447773
12.80971948
10.37389254
6.522459708
5.886242325
13.21922464
5.017315385
5.687939528
9.313353853
4.577124097
9.442274344
15.86460227
9.651524267
9.916891625
4.385969367
6.218098439
6.578342367
12.51234638
10.16152661
5.514106497
6.248309666
7.983462903
3.515822684
5.039719884
7.737826933
10.54914601
6.86779149
9.841959532
4.818021594
9.39796836
8.191605077
9.231876993
6.489181404
7.429891356
10.27297655
9.805703896
6.273599803
5.484669334
4.337649725
5.995322307
8.019042155
4.029519198
10.82924426
4.005785323
8.455825432
7.706516176
4.91007453
8.930403749
8.891944877
8.290912303
8.015354592
7.989540358
3.490383436
5.012666173
6.892280788
6.897262015
9.632485946
9.18256433
9.758572044
4.924014363
6.065125264
4.368133403
10.20272703
4.084909931
6.508394002
4.030342332
7.420691874
12.16678424
5.365202759
7.298938097
13.18980839
3.528669868
8.548099549
9.283531888
6.247429401
8.737232794
4.307111746
6.966332749
7.312783072
6.450693336
5.356776993
10.21042008
1.169547581
9.488632264
7.876455663
7.929833992
8.828708331
10.50150259
6.697518282
6.260307692
5.680531068
8.134509005
10.23580018
3.465170554
3.825336678
12.42810184
8.562765742
6.682739616
4.465729164
8.792128488
6.467399763
7.231260241
6.786544447
5.807370244
7.020104671
6.026036928
6.411850123
12.32505802
7.556820304
6.798461101
14.28950791
11.4131856
10.66100416
2.93906286
9.463350916
11.49221843
4.971350572
4.90192068
6.703190879
2.674645739
9.532612801
7.862386098
7.43906827
7.418911424
8.771131759
7.633698624
8.142228595
6.642239978
5.885544723
7.176857649
10.30098217
6.350616492
4.379408711
6.918702921
8.375137851
6.363904095
8.888427153
9.124645779
10.58009047
12.05691877
7.917560293
6.320910756
7.158196595
7.012598258
6.141949223
7.790220301
13.4150713
7.812092846
3.168467317
7.811844603
8.814683811
8.129227709
5.379697003
9.972740234
11.91559547
5.539966984
6.391744715
6.980636896
8.606911805
10.92858501
5.725042076
5.942266152
8.733291268
7.222149419
6.314489186
4.34109556
6.696263588
8.326048716
9.390906237
9.444756688
7.339224889
9.043275683
12.51043368
8.587668994
5.321004736
6.487308558
6.343456331
9.920963188
8.603679365
5.912014152
11.53487012
11.18136614
6.472456424
4.665609323
10.3938532
7.03683122
13.06112343
4.987410991
7.030050969
9.816717707
5.80593651
8.853117365
5.391869236
9.713883723
8.199988758
3.532702631
5.018151145
7.515871912
6.641834169
10.72085013
13.99540134
6.843427339
12.90222384
6.068117402
5.12789444
8.439113419
6.703092413
9.699635286
8.436840455
7.217705891
5.353159333
3.66537976
9.018869801
7.162370063
11.49611416
6.998793043
6.922135402
7.919329283
6.016196533
8.186361562
6.975586976
4.725603265
8.004472193
6.703887913
10.14199762
9.040203521
8.566200698
1.403325832
10.44373879
5.229961012
7.357741012
6.267460385
9.436069854
3.439024655
10.11451243
5.265388391
9.81411955
11.06639712
3.69840549
8.482529027
11.56432786
6.171931099
9.076438054
4.889479992
10.27459724
7.104938465
8.505314971
7.45699783
8.129212738
7.001940516
9.679904611
6.969240462
4.855978869
9.279902401
4.749615704
7.784701516
10.5199847
8.642403347
7.164876185
12.54795295
6.148709677
12.33452979
4.532315139
5.817006994
7.920546733
7.471645473
8.827007055
8.395078063
6.90011495
8.170906451
7.751547629
5.126626424
9.766389438
10.44671385
8.045655892
5.777714722
7.00599496
9.480571981
8.527493508
8.640499973
7.73410571
7.379673284
9.538488661
3.495268234
7.311954468
4.303357525
13.24458248
10.42568081
8.710667914
3.750098581
12.17047302
6.917865121
4.58217758
3.882096811
6.685679812
12.40967017
8.410198519
9.601342973
9.41390698
7.414077352
9.88307036
3.94785828
6.938119047
9.298147513
9.859704303
11.25279694
8.85152651
7.291392488
10.41737552
7.033304866
6.813450003
8.38372096
9.021410922
8.025645682
9.482548287
10.45133815
6.799643154
7.886003483
9.422245073
4.56865178
9.645260642
13.38305314
6.64926786
6.543334249
3.930265703
5.459761502
8.627609462
6.252367831
6.156061389
9.033111698
9.657332232
9.824337293
10.49572686
2.731113562
5.367823962
8.358740272
3.833076044
7.086121358
6.816080626
14.51637883
5.347333759
18.34720487
1.497869496
9.944158362
8.064726967
10.00867469
4.618161846
8.56182342
10.43350926
5.659653564
3.149305549
9.178533599
7.586812908
10.11395003
8.017356073
14.8893727
4.382152719
9.922423507
10.97079064
8.197456593
10.00010773
11.62297359
7.558047105
7.613414382
8.317897166
7.821767123
11.10394562
11.69977226
2.443974184
11.65926822
14.13890723
12.75531862
14.34166335
7.221020515
6.407375544
8.547006587
8.666347341
10.35544463
4.684471204
12.89060066
8.670004966
7.990506497
12.28062544
9.45657403
9.608691926
3.677819676
15.28373856
12.26962336
12.27375944
8.466129671
6.514934697
8.350239372
9.787132557
7.065920758
8.521313135
14.04862719
9.173196772
12.82039058
10.28447642
7.246098316
17.61547297
13.56391347
6.888278809
10.95179776
8.391896902
10.4755536
9.619219693
9.046523729
7.604464824
10.49995445
8.54802279
9.433079118
15.94682921
5.137701315
10.28833201
11.06110836
8.570519924
7.129243286
7.407208477
10.59324504
8.767162147
11.24071437
10.66216931
11.12506919
8.543799233
7.863417782
9.221216933
10.32729437
6.41182037
10.5033309
7.85543757
5.063717066
11.5569228
6.638666656
5.517082351
8.010646469
9.745449456
8.688157627
17.50241127
12.940903
9.299265021
5.345543241
10.15741101
5.773440684
11.30563665
7.990276137
8.07995881
6.975112991
6.489608943
5.551672758
6.408722189
11.08030192
11.4352682
8.68322991
9.246630157
4.119352194
9.000580267
6.811192322
10.52727063
12.65075097
10.81509741
5.817512177
7.860564341
7.893764135
8.091172345
8.499925907
4.808646299
6.909699407
7.636658611
6.762091265
7.267455428
10.33393063
9.049126459
8.358936486
8.04705262
8.829451558
7.758866171
6.726094765
6.558867655
13.38916421
14.70311729
6.831934128
7.339293964
7.648924941
7.147368846
9.043452458
7.946416801
11.39482825
7.540938585
9.02436257
12.38607891
5.173472871
13.07131624
7.460310917
5.908832719
5.589098423
9.349164592
8.953306254
7.062847603
6.633939007
13.63785714
7.585697087
2.477375779
9.256220508
8.69066968
12.49251465
15.43237819
5.288254593
7.861480025
9.825208751
4.146227285
5.351604642
10.2331908
4.444938474
7.639593736
6.957418166
8.198456109
9.604026998
5.542149491
8.367289594
6.622021281
9.344331011
5.171511289
5.251490445
12.24203434
7.186884025
6.769193668
8.759342601
4.307100401
6.384172451
15.73583593
6.495745925
10.36994035
7.918152617
10.75777939
5.543589681
8.519828241
11.43041851
8.373328665
6.404561633
11.43177938
10.38293888
3.849211575
5.29246927
9.315401581
14.55479442
5.090735882
7.066694454
16.81738747
5.680670614
9.206104972
8.608642335
9.236767314
8.007939376
3.658935536
6.923975276
5.838294959
)
;

boundaryField
{
    flow
    {
        type            zeroGradient;
    }
    obstacle
    {
        type            calculated;
        value           nonuniform List<scalar> 10(1.331577138e-18 1.413304269e-18 0 3.168677172e-18 3.902538772e-18 1.966124864e-18 0 1.57053693e-18 9.77955948e-19 7.330586097e-19);
    }
    frontAndBack
    {
        type            empty;
    }
    procBoundary0to1
    {
        type            processor;
        value           nonuniform List<scalar> 
21
(
7.631024068
8.330553218
10.26790788
4.65731389
7.294638807
7.260299229
10.39927305
16.51820076
15.37102086
9.165776732
9.303080644
2.134117467
10.50929279
8.242641804
7.105349608
7.522424696
4.858132076
7.825368582
9.218495678
7.546755213
8.342283699
)
;
    }
    procBoundary0to2
    {
        type            processor;
        value           nonuniform List<scalar> 
31
(
4.70774267
10.07290461
5.774311285
4.177565143
8.526441315
6.919543067
9.01607925
13.00283545
7.781170259
7.239782926
5.67888757
9.029863858
6.314526098
10.73781902
3.60356115
6.473878872
13.12013158
7.16156649
7.40063155
3.901577268
7.826184895
7.998236271
5.983064641
5.321981888
8.207542852
6.802988526
10.35751137
9.126308663
9.791488709
7.826184895
3.669961805
)
;
    }
}


// ************************************************************************* //
