/*--------------------------------*- C++ -*----------------------------------*\
| =========                 |                                                 |
| \\      /  F ield         | OpenFOAM: The Open Source CFD Toolbox           |
|  \\    /   O peration     | Version:  2406                                  |
|   \\  /    A nd           | Website:  www.openfoam.com                      |
|    \\/     M anipulation  |                                                 |
\*---------------------------------------------------------------------------*/
FoamFile
{
    version     2.0;
    format      ascii;
    arch        "LSB;label=32;scalar=64";
    class       volScalarField;
    location    "0.002";
    object      linearKEMean;
}
// * * * * * * * * * * * * * * * * * * * * * * * * * * * * * * * * * * * * * //

dimensions      [1 -1 -2 0 0 0 0];

internalField   nonuniform List<scalar> 
654
(
5.75587678
7.774765523
7.743043934
7.807692499
7.796701419
7.796246121
7.754359119
7.820536592
7.651562635
7.624004022
7.593658178
7.627819559
7.514438227
7.627815834
7.604528449
7.598601049
7.616249387
7.630316702
7.701548204
8.279139054
5.804463895
7.882960389
7.933635102
7.815032418
7.823443501
7.928046284
7.912260138
7.962678474
7.953919366
7.960544821
7.956731371
7.953631985
7.985937837
7.906745694
7.859262023
7.82817772
7.931727468
8.03045276
8.204545724
8.386118871
5.943898402
8.007475347
7.94987478
7.926407779
7.920836711
7.953793676
7.983678965
7.894986935
7.907112108
7.940864665
7.954848631
7.940764488
7.900801152
7.884641231
8.040894134
8.078286703
7.970198129
7.997655247
7.946861029
8.235551454
5.973176611
7.867568035
7.78173424
7.742458689
7.671690382
7.61155319
7.696050697
7.737555369
7.730263828
7.691917958
7.680232467
7.704519306
7.872385805
7.797044261
7.757253989
7.711046004
7.737580557
7.935380755
8.060148333
8.241474862
5.88450846
7.888902605
7.874386231
7.917246168
7.981602012
7.922518832
7.827274092
7.770066932
7.710629877
7.771936265
7.793129351
7.810872502
7.827260962
7.895920878
7.938635909
8.055353194
8.070024102
8.093941048
8.109197835
8.270966594
5.927084185
7.891288918
7.862943467
7.811676038
7.780757579
7.836155669
7.872036827
7.94289473
8.079738309
8.076962275
8.005089787
7.979043307
7.858195491
7.821022938
7.844915749
7.783145341
7.818647309
7.872097408
7.92570031
7.990447562
5.863829397
7.96039683
7.88081819
7.817415479
7.919010104
7.904569722
7.930519549
7.810498162
7.84303908
7.800095484
7.829856912
7.804891203
7.937064189
7.927085118
7.910639705
7.8864795
7.916695828
7.88429744
7.963574577
8.028778998
5.917959281
7.89416665
7.78074094
7.868188167
7.856418115
7.893864439
7.973641974
8.00752044
8.027212115
7.934449311
7.828744323
7.821939478
7.808873218
7.836848702
7.922561308
7.974848932
7.957081886
7.929195445
7.939142149
8.009092589
5.852295104
7.978633232
7.951685336
7.906624412
7.865621746
7.778925955
7.868570378
7.789595287
7.821589687
7.855234806
8.039090654
7.998308455
7.903487245
7.849643729
7.722303281
7.754239937
7.81692309
7.92389222
7.860750039
7.826342035
5.934838677
7.830474586
7.893757054
7.974476685
7.984772779
7.949939578
7.908629974
7.879330774
7.852606571
7.863973055
7.829722189
7.852252768
7.923389337
7.89858662
7.931446987
7.98183252
7.905990096
7.807432169
7.826749962
7.907074326
5.838582481
7.819964902
7.809454297
7.707649458
7.753834057
7.664494886
7.667420459
7.744097794
7.825676961
7.752660723
7.800134856
7.786619966
7.889402742
7.859726222
7.880892961
7.76139888
7.89818627
7.964758585
8.026434564
8.033562341
5.920915153
7.925437672
7.782292427
7.711231111
7.74897671
7.846844901
7.838541627
7.784488774
7.775846966
7.742358476
7.790988728
7.705370653
7.61428105
7.682421337
7.697671444
7.765762857
7.823224801
7.789026997
7.746949551
7.810771443
5.905352854
7.913135474
7.909882201
7.898001855
7.831828124
7.779337897
7.7842821
7.742831894
7.687655011
7.783078913
7.780957576
7.774385723
7.923820323
7.95782929
7.938099589
7.995543696
7.923955219
7.950921147
7.980757363
7.930028594
5.867058396
7.900388701
7.894058406
7.956043694
7.940422195
7.954060082
7.904173463
7.880726819
7.798156335
7.729988672
7.701337673
7.752094914
7.648671757
7.689275315
7.771013898
7.670677419
7.658116073
7.7380446
7.716858944
7.739362218
5.841007601
7.946959849
7.81549104
7.806941675
7.821700737
7.855544645
7.888296783
7.971464626
7.984978348
8.008876292
7.990361193
7.987020466
8.042076417
7.88666756
7.831515479
7.744463331
7.741473234
7.686439604
7.567385395
7.58180828
5.947384765
7.972389157
7.924523951
7.917696054
7.833019855
7.887553715
7.98080583
7.925615855
7.988401888
7.845582749
7.870158191
7.722410951
7.645774696
7.641131591
7.691122557
7.764193302
7.811924927
7.854479477
7.939653612
7.916069394
5.898975216
7.835662597
7.839003357
7.894186078
7.880118912
7.876318313
7.787653912
7.777019417
7.708845701
7.780870258
7.878471662
7.993738255
8.084516467
8.183257395
8.08747187
8.035113036
8.028575338
8.004036537
7.882114133
7.830513486
5.949767122
7.920598897
7.868293868
7.815184638
7.815028446
7.840913833
7.899641235
7.9650507
8.015636719
7.926769424
7.897242857
7.874695633
7.871694636
7.797083288
7.829492121
7.839905211
7.967729635
7.938391916
7.924074842
7.96196163
5.882325695
7.871121379
7.82560759
7.765457234
7.76149772
7.778712514
7.762154555
7.771417561
7.85943505
7.858802101
7.878016301
7.881589445
7.781999745
7.889291378
7.821240158
7.823138831
7.767383133
7.724128902
7.843492783
7.774072855
5.925059928
8.059915834
8.104202449
8.135528883
8.130695932
8.132417556
8.090355941
8.06161541
8.037993406
8.038813648
8.027735175
8.013420086
8.191929815
8.14660685
8.138527138
8.134444182
8.179382075
8.169977719
8.120669358
8.178079358
5.869436692
7.860182471
7.782050744
7.825727413
7.791581585
7.805150883
7.812239173
7.708413216
7.808732113
7.873698233
7.940790653
7.942074587
7.89850361
7.870583636
7.972608008
8.031158269
8.016905737
7.938561615
7.968423314
7.976282405
5.89859591
7.958930366
7.86407441
7.725066754
7.796118451
7.793355228
7.789174288
7.969573835
7.935576809
7.951100897
7.857816435
7.820785004
7.766165887
7.801470339
7.760518581
7.802340182
7.805214623
7.801351691
7.874615085
7.7984141
9.63745451
9.7064731
9.465528783
9.097556612
8.747252112
8.45589152
8.121563169
7.723031675
7.463597528
7.384788622
9.042131966
9.732386228
10.20645225
10.36801739
10.41294939
10.22385191
9.976104238
9.781476598
9.470860782
9.077120101
8.595893013
9.228594566
9.858067339
10.42196414
10.69376039
11.02484602
10.97161567
11.0866822
10.82827151
10.46676596
8.521235862
8.892848488
9.259504978
9.807830985
10.10258579
10.64097559
11.20937813
11.42171512
11.64913996
11.48007935
8.381953931
8.655224399
9.114486974
9.611306915
9.988591217
10.35039475
10.82723017
11.11132107
11.48006479
11.89731775
8.109915652
8.343907054
8.742644096
8.956411863
9.293904316
9.723415445
10.15052639
10.64623127
11.10962908
11.40009093
8.134924556
8.354731519
8.640331446
8.937006878
9.061771544
9.415756997
9.788027797
10.10475933
10.65903533
11.09508829
8.130989417
8.12958698
8.083006892
8.355691149
8.631439428
8.900750588
9.272635768
9.690004393
10.0248578
10.44833526
7.832659201
8.109761651
8.172030219
8.211644571
8.478414573
8.743577651
8.747974497
9.072180602
9.631720869
9.974503253
7.903297459
7.944712787
8.138405533
8.165329445
8.195563465
8.500632164
8.848736292
9.065684998
9.208136626
9.418919027
8.175328355
8.04517634
8.158899749
8.274660538
8.358155786
8.300268917
8.289071202
8.470135474
8.775976546
8.957248027
7.808454447
7.918488025
7.946891277
7.847665048
7.945452415
8.097878087
8.255831322
8.268743085
8.280027927
8.594538593
7.917294158
7.923105809
7.886432467
7.904957147
7.879039307
7.928787909
8.009797989
8.245053609
8.417459798
8.710176063
7.749073649
7.735507634
7.769026174
7.950287562
7.999763702
8.063001286
8.095246035
8.181667174
8.209259156
8.221570014
7.654335789
7.751630456
7.874407284
7.867854355
7.91474913
8.113094665
8.059342118
8.046896896
8.100722927
8.182168512
8.04678314
8.120155512
8.008271919
7.909481437
7.938817067
7.795611231
7.881702514
7.944303511
7.920922734
8.011713558
7.809478673
7.764654755
7.690032942
7.709756251
7.705975018
7.829578618
7.88495436
7.963702402
7.92895671
8.073004536
7.910510449
7.880349281
7.93449364
7.960203994
8.025117257
7.940311183
7.94840476
7.987805214
8.002594098
8.123170347
7.803045724
7.954665109
7.978331699
7.996881643
8.092063683
8.096041708
8.138650073
8.030053582
7.913252287
7.971670543
8.051613569
8.120027479
8.057557609
8.017584245
7.970205843
7.922931184
7.9919608
8.090212101
8.026130036
8.063465507
7.960241293
7.932222792
7.922029472
7.914773353
7.919397995
7.892209972
7.801607507
7.815671261
7.93167853
7.864545741
7.859697887
7.765690758
7.693622443
7.775664605
)
;

boundaryField
{
    flow
    {
        type            calculated;
        value           nonuniform List<scalar> 
42
(
5.75587678
5.804463895
5.943898402
5.973176611
5.88450846
5.927084185
5.863829397
5.917959281
5.852295104
5.934838677
5.838582481
5.920915153
5.905352854
5.867058396
5.841007601
5.947384765
5.898975216
5.949767122
5.882325695
5.925059928
5.869436692
5.89859591
5.75587678
7.774765523
7.743043934
7.807692499
7.796701419
7.796246121
7.754359119
7.820536592
7.651562635
7.624004022
7.593658178
7.627819559
7.514438227
7.627815834
7.604528449
7.598601049
7.616249387
7.630316702
7.701548204
8.279139054
)
;
    }
    obstacle
    {
        type            calculated;
        value           nonuniform List<scalar> 10(3.953860933e-18 3.745369915e-18 3.353640843e-18 3.015602389e-18 3.0223206e-18 2.921873708e-18 2.789848145e-18 2.654492561e-18 2.54795271e-18 2.569728786e-18);
    }
    frontAndBack
    {
        type            empty;
    }
    procBoundary0to1
    {
        type            processor;
        value           nonuniform List<scalar> 
21
(
7.098237542
8.838864417
10.22035928
11.17312703
12.12510486
11.71602688
11.34630051
11.00304048
10.58167603
9.602617716
9.172873745
8.923418679
8.800222306
8.289034648
8.392395568
8.043423304
8.060913547
8.237851895
7.976909547
8.134245316
7.796808617
)
;
    }
    procBoundary0to2
    {
        type            processor;
        value           nonuniform List<scalar> 
31
(
5.863650722
7.82722643
7.891660901
7.806132202
7.86442063
7.847082025
7.834270103
7.764721385
7.720766862
7.737563134
7.737313181
7.870506661
7.913744127
7.843672567
7.858715656
7.726692682
7.693010437
7.663172894
7.624878525
7.566333129
7.923109169
8.009003902
7.95981532
8.015317997
8.019038838
8.038214191
7.654033699
7.765491357
7.994989205
7.923109169
7.885778622
)
;
    }
}


// ************************************************************************* //
