/*--------------------------------*- C++ -*----------------------------------*\
| =========                 |                                                 |
| \\      /  F ield         | OpenFOAM: The Open Source CFD Toolbox           |
|  \\    /   O peration     | Version:  2406                                  |
|   \\  /    A nd           | Website:  www.openfoam.com                      |
|    \\/     M anipulation  |                                                 |
\*---------------------------------------------------------------------------*/
FoamFile
{
    version     2.0;
    format      ascii;
    arch        "LSB;label=32;scalar=64";
    class       volVectorField;
    location    "0.002";
    object      momentumMean;
}
// * * * * * * * * * * * * * * * * * * * * * * * * * * * * * * * * * * * * * //

dimensions      [1 -2 -1 0 0 0 0];

internalField   nonuniform List<vector> 
654
(
(0.006215070754 -1.250177395e-05 -1.112672098e-05)
(0.008211766116 -8.220050852e-06 -2.578815363e-05)
(0.008225874266 -1.297064628e-05 -2.280019626e-05)
(0.008275351652 -8.945584573e-06 -2.380435659e-05)
(0.008268252021 -1.026322258e-05 -2.930350199e-05)
(0.008266815135 -1.218436648e-05 -8.409426077e-06)
(0.008224908566 -2.251850795e-05 2.927505616e-06)
(0.008294481142 -3.023656238e-05 2.828460956e-06)
(0.008138865353 -2.414152774e-05 7.550938397e-06)
(0.008095181078 -3.145545139e-05 1.035137928e-05)
(0.008076432463 -2.838328533e-05 1.012149383e-05)
(0.008125393887 -1.344756084e-05 -1.387529496e-06)
(0.008004038883 -1.180962e-05 9.306258106e-06)
(0.008098889203 -5.754114225e-06 2.090992931e-05)
(0.008070900888 1.796834679e-08 8.712507478e-06)
(0.008071794197 -1.359961086e-05 8.855953553e-06)
(0.008065069074 -4.419690928e-05 7.08097171e-06)
(0.008021022657 -6.745694234e-05 1.691744522e-05)
(0.007877437244 -9.609791815e-05 1.981311482e-05)
(0.00771738176 7.153456708e-05 7.585020477e-05)
(0.006253689806 1.210362828e-05 5.859827921e-06)
(0.008307302766 -1.617914168e-05 8.267891953e-06)
(0.00842505355 8.571451188e-06 1.213652169e-05)
(0.008285907834 -2.722201726e-06 -9.529466195e-06)
(0.00829509924 -8.645805809e-06 -1.935832588e-05)
(0.008390843617 -5.480098475e-06 -2.408404535e-05)
(0.008379418781 -1.211178678e-05 -5.222919734e-05)
(0.00841744897 1.280291876e-05 -3.413782836e-05)
(0.00841034778 7.967500836e-06 -8.69230366e-06)
(0.008413590732 2.429713871e-06 8.534475113e-06)
(0.00840293106 2.137270363e-05 9.918671901e-06)
(0.008406569214 1.439086875e-05 8.190434645e-06)
(0.008442298947 1.517825303e-05 1.873981445e-05)
(0.008374726503 -6.445304607e-06 8.88101695e-07)
(0.008308990407 -2.563351511e-06 -2.243398137e-05)
(0.008270046949 5.127305166e-06 -1.771424737e-05)
(0.008358902295 2.904845092e-05 1.007426346e-05)
(0.00840550576 1.130194674e-05 -1.311448822e-05)
(0.008381892633 9.973890804e-05 1.383216037e-05)
(0.008102380767 0.0004530943324 -1.138394694e-05)
(0.006408581945 1.220319262e-05 2.695064691e-05)
(0.008439241633 2.282209567e-06 4.406439657e-05)
(0.00843641468 -7.842671923e-06 3.61648477e-05)
(0.008413057427 -2.603303032e-05 3.667869832e-05)
(0.00841756101 -3.292540259e-05 4.385906502e-05)
(0.008461690556 -2.052243494e-05 4.159093805e-05)
(0.008498910133 -1.284133135e-05 4.851051725e-05)
(0.008400291305 -6.953458801e-06 4.369898915e-05)
(0.008434914938 3.10356863e-05 1.38268774e-05)
(0.008462843498 2.823824999e-05 3.911724752e-07)
(0.008493680389 1.813500588e-05 -2.16669434e-05)
(0.008476999724 1.984245027e-07 -2.435485205e-05)
(0.008415706647 1.489866214e-06 -2.146564995e-05)
(0.008403748625 9.845365067e-06 -8.286617609e-06)
(0.008534911718 2.110484812e-05 -1.821444248e-05)
(0.008543655763 5.848349048e-06 -8.63347039e-07)
(0.008388404776 3.702512044e-05 2.831953424e-05)
(0.008345330195 6.151120222e-05 4.947538167e-06)
(0.008156234944 0.0001854616868 -1.19412633e-05)
(0.008268181655 0.000384348746 1.723959212e-05)
(0.00644006213 -6.718503529e-06 -8.152063051e-07)
(0.008315134614 4.456699354e-07 6.799622835e-06)
(0.008285425777 4.431247554e-06 8.643824179e-06)
(0.008241160097 5.568909387e-06 2.986521617e-05)
(0.008170598655 2.90588042e-05 2.119193731e-05)
(0.00809466134 4.662509765e-06 1.142514308e-05)
(0.008173304611 -1.671527407e-05 -8.851156346e-06)
(0.008236511221 -2.36336516e-05 -2.585371033e-05)
(0.008207354112 -3.210974625e-05 -1.764101822e-05)
(0.008181523492 -3.028550671e-06 -1.745520491e-05)
(0.008159720494 -9.034865011e-07 -7.443357632e-06)
(0.00818938576 4.002896457e-05 -9.645419357e-06)
(0.008345796522 4.546366529e-05 -3.281993946e-05)
(0.008275184742 3.3589797e-05 -1.083568372e-05)
(0.008237739942 3.946227394e-05 -1.712230087e-05)
(0.008180327615 2.395524637e-05 -4.134300205e-06)
(0.008198697531 3.115297559e-05 -2.569090689e-05)
(0.008324447886 5.053156997e-05 -4.487087225e-06)
(0.008389700461 0.0001071772723 -7.221271593e-05)
(0.008430604287 0.0003327969516 -6.930207077e-05)
(0.006343255538 -2.9269112e-06 -1.673956713e-05)
(0.008308340076 -1.801144307e-05 -8.347434328e-06)
(0.008326124428 -1.009291299e-05 2.819591552e-06)
(0.008386353836 8.745662043e-06 -2.871415425e-06)
(0.008446653767 1.71883331e-05 5.332667075e-07)
(0.008391731212 1.741688755e-05 9.898327638e-06)
(0.008301230093 5.370186324e-05 3.126146756e-05)
(0.008250446692 3.593464238e-05 4.742649128e-05)
(0.008188077625 1.073055209e-05 2.995333786e-05)
(0.008263040217 5.472279289e-06 3.071433278e-05)
(0.008275830156 -3.39296585e-05 3.491563101e-05)
(0.008294201203 -3.624606227e-05 2.891991795e-05)
(0.00832497659 -4.516883769e-05 2.753614228e-05)
(0.008378346935 -2.127707677e-05 1.186360256e-05)
(0.008434089629 -4.987760769e-06 5.245894895e-06)
(0.008528779719 7.716682938e-06 -2.179493438e-05)
(0.008533618887 3.902360278e-05 -2.240707017e-05)
(0.008513429605 8.544846758e-05 -4.45016143e-05)
(0.008481405297 0.0001128023464 -4.220225795e-05)
(0.008560392884 0.0002691095071 -2.297761635e-05)
(0.00638757352 4.301391072e-06 2.236202226e-05)
(0.008320342767 1.249224645e-05 7.777004932e-06)
(0.008353382919 1.039111477e-05 3.391076584e-06)
(0.008279758053 -2.682710996e-06 -6.402357036e-06)
(0.008256541491 9.739537187e-06 -2.924491567e-06)
(0.008319929543 -2.991147826e-06 4.913051214e-06)
(0.008343153782 -6.091439193e-06 -1.460559636e-06)
(0.008416014144 -1.035123465e-05 -7.319110108e-06)
(0.008549540315 3.454982833e-06 1.738157161e-05)
(0.008538769334 1.833190427e-05 3.139183297e-05)
(0.008470257328 2.311741853e-05 2.531995807e-05)
(0.008449181034 6.035955665e-06 2.889572493e-05)
(0.008336233622 3.372424138e-06 2.465911411e-05)
(0.008303502042 -1.235163561e-05 8.295470353e-06)
(0.008310495386 -1.932321447e-05 2.708170166e-05)
(0.008251920522 -3.025656578e-05 2.136256621e-05)
(0.008262269764 -9.778505764e-07 -7.347585467e-06)
(0.008291773072 5.993935009e-05 -2.471933061e-05)
(0.00834344672 7.30331731e-05 -2.2420744e-05)
(0.008354008028 0.000190347899 -5.062800323e-05)
(0.006324352324 9.823483796e-06 -2.310414501e-05)
(0.008387371197 8.183228252e-06 -2.413461442e-05)
(0.008347926217 8.142352603e-06 -2.912772706e-05)
(0.008275391243 1.686178094e-05 -3.184937522e-05)
(0.008371809451 4.526353718e-06 -5.150470813e-05)
(0.008365653215 -2.041616327e-06 -4.94441299e-05)
(0.008389134645 -2.205105387e-05 -3.539243572e-05)
(0.008282846838 -2.412977938e-05 -3.48779383e-05)
(0.008332279096 -3.142110092e-05 -3.08769193e-05)
(0.008298994563 -2.029346687e-05 -3.768556779e-05)
(0.008338232977 -6.925595943e-06 -5.385792755e-05)
(0.008334799895 -7.295732378e-07 -4.290208402e-05)
(0.008464890956 -1.007821238e-06 -3.23869352e-05)
(0.008444958009 -1.747966776e-06 -3.109522685e-05)
(0.00844184615 -5.319355314e-06 -3.261986119e-05)
(0.008401255804 2.643656188e-05 -1.312322702e-05)
(0.008423614299 2.47117703e-05 -1.267476179e-06)
(0.008361669079 3.847732365e-05 -2.963849742e-07)
(0.008406520592 7.144496542e-05 2.722480978e-05)
(0.008465800204 0.0001263591415 4.378693803e-05)
(0.006372563087 -1.332178802e-05 7.919394299e-06)
(0.008323211204 3.301470563e-06 -8.933222734e-06)
(0.008275554771 -8.557799775e-06 -1.038723883e-05)
(0.008370060296 -2.016707963e-05 -1.495200556e-05)
(0.008369609614 -1.421693177e-05 6.729583972e-07)
(0.008388617332 -1.657978479e-05 -7.25674338e-06)
(0.008476542707 1.708328344e-05 -9.330619682e-06)
(0.008501846983 2.587857785e-06 -3.651839451e-08)
(0.008519521013 1.214265646e-05 -1.381055232e-05)
(0.008404491794 -1.345318217e-05 -1.493164178e-05)
(0.00830136699 -2.804808391e-05 3.596911437e-07)
(0.008279607607 -1.001700548e-05 -1.928503635e-05)
(0.008262314669 8.797659551e-08 4.621762198e-06)
(0.008280088072 1.330471805e-06 1.46323956e-06)
(0.008378624483 1.566574974e-05 2.856383945e-06)
(0.00842800416 6.116405492e-06 1.304721783e-05)
(0.008399276312 9.822500576e-06 -2.953203606e-06)
(0.008372587878 2.344533089e-05 -2.618871028e-05)
(0.008379326782 4.429403118e-05 -1.109666638e-05)
(0.008431475917 5.885593154e-05 -1.001245424e-05)
(0.006317858534 8.734114971e-07 -1.916463118e-05)
(0.008409929425 -3.495267499e-06 -1.683189981e-05)
(0.008427542088 1.149885147e-05 -4.421947021e-06)
(0.008367554597 1.476295226e-05 1.991603263e-06)
(0.008315007473 -1.355348009e-05 5.543559333e-06)
(0.008232525758 -1.091694873e-05 6.774242347e-06)
(0.008329674844 -2.509103078e-05 3.160417345e-06)
(0.008248569574 -9.82010664e-06 -1.355912905e-05)
(0.008266116331 -2.785124352e-06 1.450090384e-06)
(0.008319995228 1.744533676e-05 4.814034954e-06)
(0.008510803479 1.233822808e-05 2.410013729e-06)
(0.008453724524 -1.346487689e-06 -5.725539093e-06)
(0.008371539973 -2.746457876e-05 -1.081665283e-05)
(0.00828125314 -1.206933815e-05 -2.820256762e-06)
(0.008153481352 -1.029364797e-05 7.767057194e-06)
(0.008178951361 -1.894583976e-06 5.608170471e-06)
(0.00824901508 2.492448313e-05 1.282221611e-05)
(0.008367064961 2.11902494e-05 2.02099814e-05)
(0.008286445118 5.552007062e-05 2.097226322e-05)
(0.008235066247 9.459664775e-05 1.605904292e-05)
(0.006384529701 4.118385228e-07 2.991216551e-05)
(0.008258357449 -2.434707522e-05 4.234008568e-05)
(0.008380436475 -2.436862484e-05 3.111839792e-05)
(0.008452570947 -3.115903108e-05 2.765539315e-05)
(0.008488356137 4.333475306e-06 1.737107964e-05)
(0.008449406775 1.953292318e-05 2.849651244e-05)
(0.008405978443 -7.097856202e-06 3.741228933e-05)
(0.008372289604 -1.435278306e-05 2.51275133e-05)
(0.008347885781 -7.035048135e-06 2.922875063e-05)
(0.008328306467 7.808092304e-06 7.488715662e-06)
(0.008310819541 7.64532167e-06 1.925497686e-05)
(0.008310499003 3.092194014e-05 1.94739725e-05)
(0.008370338475 3.3568791e-05 3.564025548e-05)
(0.008353053131 4.469005625e-05 7.895504731e-06)
(0.008380540172 2.236649685e-05 -5.655896619e-06)
(0.00842372849 1.498767977e-05 -5.305732939e-06)
(0.008354493054 2.69410409e-05 1.56899546e-05)
(0.008238588088 3.828155446e-05 2.760857248e-05)
(0.008265235462 4.572017768e-05 2.814289632e-05)
(0.008336926475 5.904659103e-05 2.330601915e-05)
(0.006331029821 4.273975245e-06 -3.974284594e-06)
(0.008286129556 4.66280388e-06 -1.210126325e-05)
(0.008295474123 -8.07757373e-06 -2.025542959e-05)
(0.008200403888 -1.420124944e-05 -9.406730225e-06)
(0.008239611014 -1.180317237e-05 -1.596639896e-06)
(0.008125262494 -2.467151683e-05 4.839264507e-06)
(0.008140698552 3.01357169e-06 -3.71152912e-06)
(0.00820067693 2.574030227e-05 -2.058902124e-05)
(0.008290036187 3.235290986e-06 -2.873884354e-05)
(0.008240923796 -4.181754284e-06 -1.432100145e-05)
(0.008273199297 -1.655258891e-05 -2.319481563e-05)
(0.008278685001 -2.636538391e-06 -1.260842116e-05)
(0.008375519105 8.134066439e-06 -1.558660762e-05)
(0.008340958928 4.522354487e-06 -1.474741063e-05)
(0.008352541235 3.034032865e-05 -2.056063282e-05)
(0.008238195298 2.143438329e-05 -9.855818984e-06)
(0.008379179615 2.754607083e-05 -1.250594679e-05)
(0.008431085498 -6.943278655e-06 -3.373049771e-05)
(0.008499291452 1.510467504e-05 -3.305602384e-05)
(0.008495046812 6.190615372e-05 -2.253649347e-05)
(0.00636371133 -7.172749203e-06 -1.885520433e-05)
(0.008343359626 3.980089923e-06 -2.339658286e-05)
(0.008253233192 1.399632944e-05 -3.402628127e-06)
(0.008196944961 3.41782838e-06 -1.576364971e-05)
(0.008229263536 -2.69190274e-06 -4.237310554e-05)
(0.008345309789 -1.123074247e-05 -5.397472192e-05)
(0.008343734986 -8.634964187e-07 -4.695931929e-05)
(0.008287894554 -2.569891269e-05 -2.666022253e-05)
(0.008283686993 -1.452301005e-05 -2.651626555e-05)
(0.008234786604 4.38374191e-07 -1.886343717e-05)
(0.008278933297 2.536463528e-05 -2.198694275e-05)
(0.008189823485 1.341180351e-05 -2.786167387e-05)
(0.008098826091 9.027907295e-06 -1.501405719e-05)
(0.008165637614 -3.385764833e-06 -1.992795406e-05)
(0.008194118611 -2.651387072e-08 -5.823918406e-06)
(0.00825636739 -1.865994084e-06 5.888043514e-07)
(0.008304906078 -7.923651043e-06 -1.005217222e-05)
(0.008287188453 -4.984401889e-06 -4.275564466e-06)
(0.008233670465 -2.715345289e-06 -8.763889847e-06)
(0.008279538755 1.189279355e-05 4.089119883e-06)
(0.00637958157 3.287895716e-05 -9.424611699e-07)
(0.008358528811 3.233764048e-05 -3.62566468e-05)
(0.008400043156 2.429124527e-05 -4.717117211e-05)
(0.008382211492 2.507060232e-05 -4.523564593e-05)
(0.008308451103 4.299007272e-06 -4.592408808e-05)
(0.008248677675 1.746727316e-05 -4.042147882e-05)
(0.008253601244 -2.510887763e-05 -2.963618418e-05)
(0.008213974574 -1.104780154e-05 -3.330173934e-05)
(0.008164998724 5.34291305e-06 -2.19651885e-05)
(0.008256152988 -1.41680711e-06 -1.874151072e-05)
(0.008233854839 -1.410325625e-05 -1.212775929e-05)
(0.008238169886 -2.339776631e-05 -9.33016607e-06)
(0.008399675048 -2.679068159e-05 -2.078262948e-05)
(0.008431025244 -1.602805055e-05 -3.296765999e-05)
(0.008396016704 -1.093327758e-05 -2.89255631e-05)
(0.00846890656 -2.386315676e-05 -3.545099922e-05)
(0.008398118017 -1.99509234e-06 -3.484106498e-05)
(0.008419192098 -3.647272102e-06 -1.184737183e-05)
(0.008452435006 4.562933906e-06 -2.393689771e-07)
(0.008409537457 3.35781694e-05 -1.099250974e-05)
(0.006332997351 7.807819217e-06 -2.997777658e-05)
(0.008320049584 9.049539065e-07 -2.528358317e-05)
(0.008354773528 1.274688346e-05 -1.89985549e-05)
(0.008421637243 3.153738183e-05 -6.890216849e-06)
(0.008415434094 4.781409424e-05 -1.214313458e-07)
(0.008434865641 3.830544746e-05 5.706196871e-06)
(0.008377023129 4.095145569e-05 -4.079836939e-06)
(0.008337608155 4.182792615e-05 -1.157037766e-06)
(0.008253547811 -9.249708487e-08 -3.333817472e-06)
(0.008200952544 -1.509450251e-05 4.005471495e-06)
(0.008172368417 -8.293420248e-06 -2.407984018e-06)
(0.008223322855 -2.348703959e-05 -7.482760777e-06)
(0.008117680496 -3.112679108e-05 -2.790255789e-06)
(0.008157361725 -2.324125653e-05 1.295446159e-05)
(0.008236734379 -3.001797826e-05 -1.911377916e-06)
(0.008141620979 -1.937585453e-05 -2.383782428e-05)
(0.008139732097 -1.508771841e-05 -3.86586699e-05)
(0.008218549558 -1.101041251e-06 -2.230863121e-05)
(0.008189692482 1.779826677e-05 -4.186588858e-05)
(0.008212650644 1.460717419e-05 -1.509003217e-05)
(0.006284658864 2.800896063e-05 2.043881555e-05)
(0.008375636326 3.401781961e-05 1.901266646e-05)
(0.008300860735 1.989738804e-05 2.370120678e-05)
(0.008296419321 -1.700757264e-06 2.129263461e-05)
(0.008302613186 2.037821981e-05 -2.122419704e-06)
(0.008337391775 2.557605534e-05 -5.410039718e-06)
(0.008381482687 3.85406228e-05 1.203137792e-07)
(0.008466543189 1.072719741e-05 -7.628374212e-06)
(0.00847443815 1.944627275e-05 -7.788718851e-07)
(0.008500746045 2.082323577e-05 -1.178208635e-05)
(0.008481722724 -8.984601959e-06 -1.654294081e-05)
(0.008462623808 -3.253648219e-05 2.488842332e-06)
(0.008530245313 -8.174531962e-06 -1.037931278e-05)
(0.008380906157 -2.700921389e-06 -2.496546611e-05)
(0.008321789478 1.385162764e-05 -1.708654093e-05)
(0.008211775945 2.841253601e-05 -1.228407346e-05)
(0.008201724416 2.533354597e-05 -1.285428259e-06)
(0.008141683683 2.010249388e-05 -2.244792786e-05)
(0.008012229126 1.091139639e-05 -2.225300337e-05)
(0.008036578813 -1.40850986e-05 -3.444573729e-05)
(0.006430921539 -1.607757134e-05 -2.557983731e-05)
(0.008423952848 -1.505011594e-05 -3.348996992e-05)
(0.00841843565 1.832064052e-05 -2.12611256e-05)
(0.008409339946 2.967124023e-05 -2.266928564e-05)
(0.008333056256 1.666233677e-05 -1.236715172e-05)
(0.008381043044 -2.409976692e-06 -1.561131112e-05)
(0.008465295843 1.248277594e-05 -2.388280007e-05)
(0.008410873038 1.682814875e-05 -9.725866651e-06)
(0.008478025875 3.82386037e-06 -2.407768283e-05)
(0.008322030964 1.424358832e-05 -2.121677161e-05)
(0.008344686734 2.777342908e-05 -2.075638249e-05)
(0.008200373043 6.8773495e-05 -2.209906836e-05)
(0.008100919724 7.324659019e-05 -2.802719819e-06)
(0.008097696764 5.827937792e-05 9.785874614e-06)
(0.008164391923 2.319018031e-05 1.6176753e-05)
(0.008236825708 -8.746877003e-06 -5.287821579e-06)
(0.0082885827 -2.012153421e-05 -2.261669657e-05)
(0.008325793389 -7.815780717e-06 -1.816786996e-05)
(0.008410582085 -2.268830534e-06 -1.206027886e-05)
(0.00838095477 -2.017987019e-06 -1.253258254e-05)
(0.006350743319 3.564952912e-05 1.590580461e-05)
(0.008263509655 2.190512348e-05 5.334243111e-08)
(0.008314057729 -9.612947984e-06 -1.583839133e-05)
(0.008377741351 3.887842226e-07 -2.569991849e-05)
(0.008360917379 2.971056589e-05 -1.656343446e-05)
(0.008357699136 3.899404507e-05 -1.785115814e-05)
(0.008263484371 3.475417907e-05 -1.384103041e-05)
(0.008252691593 2.586392358e-05 -1.10133175e-05)
(0.008194587148 4.671256303e-05 -1.2453235e-05)
(0.008270229915 4.483527681e-05 -2.611245762e-05)
(0.008385174265 4.225650553e-05 -2.587263353e-05)
(0.008471823483 3.556120994e-05 -3.81933439e-05)
(0.008587855685 -4.249715164e-06 -4.536856688e-05)
(0.008669257532 -1.900985281e-05 -5.512657563e-05)
(0.008576085675 -1.166171966e-05 -4.508471858e-05)
(0.008512089714 7.542505095e-06 -3.460852917e-05)
(0.008518209181 1.286351975e-05 -2.678413977e-05)
(0.00848458127 -2.169177158e-05 -4.0405908e-06)
(0.008369621673 4.645041625e-06 -8.034544283e-06)
(0.008307046116 3.93894673e-06 6.359333053e-06)
(0.006399325616 -1.823967068e-05 4.498803076e-06)
(0.00835009412 1.070706191e-06 1.860650089e-05)
(0.008330621276 3.110219649e-05 2.785550349e-05)
(0.008288560519 2.539699054e-05 1.646576562e-05)
(0.00828438335 6.899612341e-06 1.711925228e-05)
(0.008318347054 -9.412652257e-06 1.331414668e-05)
(0.008384686556 1.17653472e-05 2.491221944e-06)
(0.008454589167 3.641943046e-05 1.906718688e-06)
(0.008480692679 1.11548355e-05 3.063160591e-06)
(0.008399371746 -6.513526398e-06 -1.194880698e-05)
(0.008371967932 -4.057836621e-06 -1.614818785e-05)
(0.00834642632 -7.894588331e-06 -7.766604441e-06)
(0.008373695972 8.458787974e-06 -8.298208064e-06)
(0.008289215466 9.848969301e-06 -1.581598088e-05)
(0.008307669158 1.54976331e-05 3.858858256e-06)
(0.008332997137 2.621841876e-05 1.605192465e-05)
(0.008440856153 2.190609588e-05 7.531604906e-06)
(0.008412094106 2.780998584e-05 -1.600538905e-05)
(0.008396067278 3.115173961e-05 -2.277308258e-05)
(0.008435897919 2.939605612e-05 -3.987140565e-05)
(0.00636707972 1.664624308e-05 -1.254338666e-05)
(0.008340496356 -1.709244072e-07 -2.480794948e-05)
(0.008331742806 9.621507857e-06 -4.107230247e-06)
(0.008257599634 -1.543098216e-05 2.175812408e-06)
(0.00825010325 4.707438677e-06 -3.838957459e-05)
(0.008269580557 -1.443551998e-06 -4.346329182e-05)
(0.008243390242 -8.750516506e-07 -4.170285646e-05)
(0.008246493671 -2.636542154e-05 -3.135188154e-05)
(0.008333801673 -1.564536667e-06 -4.162670246e-05)
(0.008327199193 1.32569603e-05 -3.083920631e-05)
(0.008363628132 1.415204967e-05 -8.17999594e-06)
(0.008368011838 5.262475368e-06 -5.49117878e-06)
(0.008248037798 2.119776678e-05 -1.348223159e-05)
(0.008363208239 1.409038445e-05 -7.508116956e-06)
(0.00829621916 2.901563625e-05 -2.750837329e-05)
(0.008304456594 1.25609274e-05 -3.954133945e-05)
(0.008254504674 2.044056279e-05 -2.584677636e-05)
(0.008208571291 4.589056954e-06 -8.168977027e-06)
(0.008333946065 3.330933111e-06 2.31634304e-06)
(0.008273247373 3.326491261e-06 5.816793729e-06)
(0.006364564759 5.997638154e-06 -3.754517235e-05)
(0.008469689064 1.058557793e-05 -5.185709088e-05)
(0.008576900827 1.127856043e-05 -6.226597772e-05)
(0.008617220661 9.928656996e-06 -6.059536669e-05)
(0.008614719092 9.065235407e-06 -3.548581587e-05)
(0.008626154079 4.551812595e-06 -1.720572749e-05)
(0.008577534659 -1.953018154e-05 -1.702956342e-05)
(0.008556216168 8.36511118e-06 -2.344283843e-05)
(0.008521952186 9.905622161e-06 -1.294842814e-05)
(0.008534501751 1.331315477e-05 -3.409245929e-05)
(0.008512365224 -5.664352944e-06 -3.043725052e-05)
(0.008482086149 9.458340973e-06 -3.461268875e-05)
(0.008669726059 2.400774119e-05 -3.733009276e-05)
(0.008632822286 2.741104888e-05 -1.920810927e-05)
(0.008631077562 -7.378766312e-06 -3.076665632e-05)
(0.00861491119 7.71503474e-06 -2.053370542e-05)
(0.008667388009 2.03509464e-05 9.916558262e-07)
(0.008651973859 3.213601926e-05 -3.13092293e-06)
(0.008603040611 3.498925451e-05 -3.955144122e-05)
(0.008667660368 -2.573500469e-06 -3.043961975e-05)
(0.006324703261 -4.002812016e-05 -1.098736825e-05)
(0.008282791905 -3.590360872e-05 -1.457844551e-05)
(0.008251434068 -5.346608259e-06 -1.708312809e-05)
(0.008292225152 -1.2119377e-05 -1.818312308e-05)
(0.008245475229 -1.268131808e-05 -2.763210967e-05)
(0.008261217812 -1.356990215e-05 -2.118734941e-05)
(0.008266768847 3.417513083e-06 5.904584162e-07)
(0.008169081754 -1.734120214e-05 -8.556731821e-06)
(0.008265481785 -1.65124235e-05 1.080449407e-05)
(0.008318415809 -9.173675399e-06 5.040382506e-06)
(0.008403724945 -1.147218666e-06 1.572506312e-05)
(0.008408448712 -8.346596227e-06 -1.043598296e-05)
(0.008380331324 -2.717024081e-05 -8.41033209e-06)
(0.008345649945 -1.316556245e-05 -6.611036831e-06)
(0.008453033132 3.152732588e-05 6.935837617e-06)
(0.008504346516 1.671204061e-05 1.264403618e-05)
(0.008498719262 -1.155607474e-06 -1.118475453e-05)
(0.008411424499 -7.060007102e-06 -1.085052847e-05)
(0.008454606521 1.721333906e-05 -5.491827415e-06)
(0.008453833061 1.197406067e-05 -1.633494624e-05)
(0.006347239989 8.589305702e-06 2.035333349e-05)
(0.008368608516 6.565941291e-06 2.80813392e-05)
(0.00832641897 -5.277878253e-05 2.279388667e-05)
(0.008172354453 -3.858302634e-05 1.836809749e-05)
(0.008253986714 -2.556158818e-05 2.098795831e-05)
(0.008254935481 6.624320598e-06 6.693285182e-06)
(0.008267982506 1.783811378e-05 1.243694559e-05)
(0.008436751952 2.916971405e-05 1.249321152e-05)
(0.008426455057 1.703657026e-05 1.844311772e-06)
(0.00845324659 -1.685783983e-05 1.337831043e-05)
(0.008351181408 -3.726521606e-07 2.600633468e-05)
(0.008326455788 -2.687559856e-05 9.933474676e-06)
(0.008260355483 -1.143586144e-05 2.369611511e-05)
(0.008283169339 -1.654065723e-05 2.666683384e-07)
(0.008237507949 -3.728565279e-05 -1.443329618e-05)
(0.008277829021 -2.726743284e-05 -2.376736187e-05)
(0.008280530036 -1.639182222e-05 -8.616108543e-06)
(0.008280573092 9.179258258e-06 -1.925449204e-05)
(0.008351272384 2.516968067e-05 -1.562465993e-05)
(0.008271572777 3.355193626e-05 -2.367597942e-05)
(0.007768552217 0.00176147782 -8.227071829e-05)
(0.007987792031 0.002295391482 -0.0001180266549)
(0.007898452335 0.002268281578 -0.0001027221924)
(0.007566623318 0.002088038422 0.0001571003272)
(0.007223339234 0.002156957123 9.170832409e-05)
(0.006964929788 0.002036408679 7.384349451e-05)
(0.006575859349 0.001804758499 2.52332644e-05)
(0.006177139101 0.001871374642 3.308599449e-05)
(0.005951615325 0.001599683415 -6.583087211e-05)
(0.005832834181 0.001737878708 -1.055038052e-05)
(0.008345455186 0.001242098003 -0.0001043531036)
(0.008892275044 0.002114412223 -0.0001705767149)
(0.009396986161 0.002589372608 -5.982763083e-05)
(0.00969389028 0.002788282996 -0.000101562425)
(0.009867427785 0.002851630605 -2.600535459e-05)
(0.009658044139 0.002885854735 -0.0001249552768)
(0.009524709421 0.002912522559 -5.792522567e-05)
(0.009382516025 0.002959938181 -0.0002389953139)
(0.009064832219 0.00266161196 -8.213764048e-05)
(0.00863709725 0.002586638813 -7.292557443e-05)
(0.008365635652 0.0008903696951 -9.561018091e-06)
(0.008923530943 0.001483063621 -0.0001727139588)
(0.009528771156 0.00203689976 -8.961305352e-05)
(0.009990460079 0.002538074738 -0.0001537109027)
(0.01026669889 0.002906304345 -8.852736034e-05)
(0.01070523454 0.003135215539 -0.0001275415355)
(0.01075719125 0.003248608458 -0.0001017069908)
(0.01086543341 0.003385594152 -0.0001831436513)
(0.01069157567 0.003326882667 -0.0002628859057)
(0.01042800874 0.003291747669 -0.0001254013076)
(0.00856404815 0.0006364793459 1.702005741e-05)
(0.00881258906 0.001059674308 -2.500123755e-05)
(0.009120026753 0.001536186071 8.063166742e-06)
(0.009530162984 0.002053353507 -1.047263687e-05)
(0.009972469804 0.002296388308 3.418598693e-05)
(0.01050601041 0.002743638664 -4.409018952e-05)
(0.01101064698 0.003148704648 2.381547951e-05)
(0.01135071685 0.003325297325 -6.455431438e-05)
(0.01152938743 0.00356779593 -0.0001186954988)
(0.01143192867 0.003603034675 -0.0001014142416)
(0.008613263483 0.000478654728 -3.295692864e-05)
(0.008779829515 0.0007973813728 9.138924739e-06)
(0.009145820999 0.001136197778 6.39608641e-06)
(0.009565263339 0.00152691586 -6.533592549e-05)
(0.009975604228 0.001854577639 -5.919348116e-06)
(0.01028445436 0.002184455963 8.294564334e-05)
(0.01068983075 0.002635484635 6.746568628e-05)
(0.01102330164 0.002978706512 1.717881417e-05)
(0.01138305402 0.003411073157 -3.411727459e-05)
(0.01186787479 0.003616982786 -9.007886239e-06)
(0.008417005765 0.0003270920426 -2.165079423e-05)
(0.008577390101 0.0005111878334 1.859605451e-06)
(0.008835089684 0.0008397104149 2.109717996e-05)
(0.008998407281 0.001083676918 -8.840949725e-06)
(0.009324084203 0.001379178582 7.702841001e-06)
(0.00973936287 0.001714180926 3.453876476e-06)
(0.01014403651 0.002102006053 9.978514915e-06)
(0.01060559505 0.002450110565 4.452582537e-05)
(0.01098339987 0.002870264353 1.375870697e-06)
(0.01138436088 0.00304345281 2.347714038e-06)
(0.008486902748 0.0002666873677 1.886854037e-05)
(0.008621507416 0.0003914021258 6.344214513e-06)
(0.008872876232 0.0005515714656 6.028877793e-06)
(0.009076887592 0.0008626923073 -1.488437825e-05)
(0.009221447942 0.001028241871 -4.414540486e-05)
(0.009492147523 0.001288998654 -6.225469025e-05)
(0.009845138395 0.001648338976 -2.221945294e-05)
(0.01012695633 0.001981887151 -8.724115613e-06)
(0.01063497004 0.00235773073 5.122711106e-05)
(0.01104714697 0.002730381975 1.013800021e-06)
(0.008492819111 0.0001542713579 -2.037714711e-05)
(0.008439849028 0.0002820758151 -2.891044419e-05)
(0.00837863319 0.0003576126558 8.783250864e-07)
(0.008572817237 0.0005580268727 -8.228447913e-06)
(0.008827951985 0.000747364103 4.629671422e-06)
(0.009052126756 0.0009946409981 9.010546014e-06)
(0.009410136739 0.001193779722 1.768571525e-05)
(0.00980328424 0.001496585243 -5.122928594e-05)
(0.01011798825 0.001840438949 -4.555930536e-05)
(0.0105213097 0.002176618419 4.316746498e-05)
(0.008224056317 0.0001317625689 -7.019973541e-06)
(0.00846801443 0.0001868580473 3.778069981e-05)
(0.008542780738 0.0002800916099 1.211273353e-05)
(0.008543349503 0.0003795617453 1.039961788e-05)
(0.008798019477 0.0005453432686 9.95781578e-05)
(0.00898837968 0.0007159152131 8.598090494e-05)
(0.008963153575 0.000879464983 -2.085675384e-05)
(0.009231553301 0.001140054205 -1.338899904e-05)
(0.009746804111 0.001342671728 -8.648579049e-06)
(0.0101263088 0.001593211847 -6.95367266e-05)
(0.008308585119 7.313148384e-05 7.658029979e-06)
(0.008328636443 0.0001407403294 4.40214965e-06)
(0.008493107134 0.0002174461063 6.448351931e-06)
(0.008497273053 0.0002377499553 -2.511419663e-05)
(0.00851952027 0.0003391178209 1.270320085e-05)
(0.008782654384 0.0005188652859 1.339519846e-05)
(0.00914426917 0.0006164813999 -3.041633838e-05)
(0.009301980059 0.0008023371538 -2.02529776e-06)
(0.009340260957 0.001072778569 1.598343493e-05)
(0.009536710302 0.001193278066 -6.510915448e-06)
(0.00860768287 9.415035869e-05 -1.695063112e-05)
(0.008450310487 0.0001397770123 -3.220114429e-06)
(0.008539891086 0.0001811296007 -1.626938198e-05)
(0.008668524617 0.0002343499574 3.645264866e-06)
(0.008740114796 0.0002453448466 -8.17112177e-07)
(0.008629636082 0.0003580992835 -1.308890621e-05)
(0.00858419759 0.0004932154432 2.23365e-05)
(0.008756815371 0.000618078682 4.543535475e-06)
(0.009047749985 0.0007542416964 2.807636165e-05)
(0.0092412311 0.0009742736014 2.018259654e-05)
(0.008247562403 5.044504743e-05 2.05383131e-07)
(0.008374475001 3.33500175e-05 1.853598776e-05)
(0.008356332012 8.169129013e-05 -1.155755517e-05)
(0.008226158232 0.0001640470166 9.697542789e-06)
(0.008314217104 0.0002303859487 5.590933044e-06)
(0.008478302674 0.0002653802474 -5.444893886e-06)
(0.008647326948 0.0003411053197 -1.738392968e-06)
(0.00866000184 0.0004750822522 -4.45925489e-05)
(0.008643880171 0.0005736491118 -3.372470169e-05)
(0.008917119519 0.0006736002384 -4.955350473e-05)
(0.008378119263 5.769501111e-05 -1.757168992e-05)
(0.008380892939 9.88774768e-05 -9.976644646e-06)
(0.008330119911 0.0001298031208 1.107222201e-06)
(0.008343762448 0.0001190747841 -2.394377094e-05)
(0.008328123438 0.0001574398988 -3.682259283e-05)
(0.0083410035 0.0002114513307 -4.016282381e-05)
(0.008431832006 0.0002264924164 -2.261018771e-05)
(0.008620299575 0.0003038056832 -3.136116935e-05)
(0.008789536091 0.0004158523998 -3.60379949e-05)
(0.00904733182 0.000547453175 -3.192392155e-05)
(0.008198527113 3.434503428e-05 -1.613845198e-05)
(0.008192524817 2.423826453e-05 -1.934043741e-05)
(0.008216256414 7.354773342e-05 -2.458410243e-05)
(0.00839752333 9.777094528e-05 -6.782525903e-06)
(0.008436594591 0.0001038893517 -4.074747139e-05)
(0.008478686263 0.0001518618447 -2.965687775e-05)
(0.008485410693 0.0001509997105 -3.045812986e-06)
(0.008544847795 0.0002432374076 2.314310286e-06)
(0.008574860592 0.000258787297 -2.140531605e-05)
(0.00856819019 0.0003752221212 2.017079634e-06)
(0.008084836079 1.184407589e-05 -3.065687568e-05)
(0.008203367339 1.715355867e-05 -3.267215568e-05)
(0.008303714246 2.942228965e-06 -3.128413572e-05)
(0.008313512214 1.544174803e-05 -2.407189199e-05)
(0.008324692786 4.311453926e-05 5.166155921e-06)
(0.00850454412 8.344783741e-05 -1.05997519e-05)
(0.008474574163 0.0001354584205 -3.255267742e-05)