/*--------------------------------*- C++ -*----------------------------------*\
| =========                 |                                                 |
| \\      /  F ield         | OpenFOAM: The Open Source CFD Toolbox           |
|  \\    /   O peration     | Version:  2406                                  |
|   \\  /    A nd           | Website:  www.openfoam.com                      |
|    \\/     M anipulation  |                                                 |
\*---------------------------------------------------------------------------*/
FoamFile
{
    version     2.0;
    format      ascii;
    arch        "LSB;label=32;scalar=64";
    class       volVectorField;
    location    "0.002";
    object      momentum;
}
// * * * * * * * * * * * * * * * * * * * * * * * * * * * * * * * * * * * * * //

dimensions      [1 -2 -1 0 0 0 0];

internalField   nonuniform List<vector> 
654
(
(0.006721155315 2.861330842e-06 0.0001667786232)
(0.009755856451 0.0001827988167 0.0007104960576)
(0.004391791292 1.936590503e-05 -0.0002183577769)
(0.008829265803 9.830906815e-05 8.124620416e-05)
(0.008221737354 -0.000431154485 -0.000710869637)
(0.009406962069 -0.0004045859861 0.0007629688498)
(0.01057964881 0.0007947033503 0.0006823464506)
(0.009577980813 -9.178514344e-05 -0.0006224763882)
(0.005494967939 -9.97248569e-05 -9.844062776e-05)
(0.007545193524 -0.0004323717494 -6.323833458e-05)
(0.0119084309 -0.0001723260228 -0.0001145641539)
(0.01224123849 0.0001566835729 -0.0004114792665)
(0.006293873644 4.886359153e-05 0.0002073090916)
(0.008982211856 -0.0001872011113 0.000180276397)
(0.00697562495 0.0002364824214 0.0007014094827)
(0.004125787257 6.190116943e-06 -5.011211219e-05)
(0.007049690759 -0.0003182215348 -0.0002506029429)
(0.009170452202 0.0002027560413 -0.0005322276702)
(0.005349512575 -0.0005317280254 0.0006009038856)
(0.0054648068 0.001041937081 0.0004615779857)
(0.003779220706 -0.0001013263091 -0.0001155271579)
(0.00791929916 0.0008444694026 0.0003472792765)
(0.009939819609 -0.0004342550114 -0.0001898356167)
(0.009337442476 0.001557447288 0.001544410252)
(0.00879817687 -0.0001038807295 -0.0009375322867)
(0.006329859416 -0.0001525637376 -0.0006806807786)
(0.01144889948 -0.0007375687809 6.503317252e-05)
(0.00739608409 2.267743381e-05 0.0002032149054)
(0.008437035216 0.0003651672625 0.0005709863984)
(0.01010161264 -0.0001585431286 -0.0001477536192)
(0.007062140019 0.0002792945787 -1.964202937e-05)
(0.01126960603 0.0006803162176 -0.001228644912)
(0.00711277207 -0.000345457981 -2.552102145e-05)
(0.009895122142 5.77216889e-05 -0.0004185780642)
(0.008935175249 -4.730206949e-05 -0.0002925331535)
(0.008084358715 -0.0003658888398 -0.0003140903228)
(0.007246458474 0.000443981839 -0.0006124853769)
(0.0146991167 -0.0009132137696 -0.0001487387179)
(0.00718484297 0.000639379324 0.001373711049)
(0.005013027991 -0.0002505698028 -0.000759851662)
(0.005056657007 -0.000161148717 -2.828618947e-05)
(0.01077393738 1.487129828e-05 0.0002703722142)
(0.009685231952 -3.620400561e-05 0.0007615588676)
(0.0117540876 0.001027297603 0.000775516662)
(0.008730561552 -0.001080896587 0.0004124313403)
(0.007782386551 -0.0002682518263 0.0008729633414)
(0.01284844655 0.001286882583 -5.047921168e-05)
(0.003975505715 0.0001742378269 8.108580952e-07)
(0.006318818796 -0.0005309284989 -0.0006103751616)
(0.01048874413 0.0005567193854 7.340099445e-05)
(0.009755569348 0.0001122229898 0.0006822697025)
(0.007573162576 -0.0002636626857 0.0003441319204)
(0.01119589922 0.0002788208118 -0.0008926487526)
(0.01025145094 0.0004776161997 0.000367179316)
(0.007577737158 0.0001118981371 -6.454676025e-05)
(0.00773952401 0.000334713456 0.0003510251197)
(0.00925732637 -5.805314984e-05 -0.0003742275576)
(0.007785285378 -0.0004419950747 -0.0005609625702)
(0.009309108319 0.001039896831 0.0003055074957)
(0.009299688084 0.0005744994887 9.684609621e-05)
(0.006177122261 0.0001153752249 -0.0002446350916)
(0.008638825899 0.0004562337933 -0.0007471476577)
(0.003868624341 0.0001866950821 -0.0001305990332)
(0.00639554119 0.0002516369127 0.0007046917662)
(0.007691289782 0.0004934440369 0.0006541567164)
(0.00745691427 -7.562592822e-05 -0.0002719771212)
(0.006659488764 -0.0002014672139 0.0001741918338)
(0.01098017211 0.0003714709451 8.549624e-05)
(0.005841338393 -0.0002856809863 0.0001636809026)
(0.01244017935 9.123988647e-06 0.0003252665533)
(0.01149300039 0.0005762031257 0.0006067551896)
(0.007496359924 -3.135130874e-05 -0.0001601193252)
(0.003539541804 0.0002285903979 0.0002353691113)
(0.01153484746 -0.0004355043545 -0.000368264046)
(0.01072219868 0.0008681714653 0.001171233288)
(0.007914949856 0.0001081101332 0.0001769086699)
(0.00967740339 0.0002844297043 -0.0004185254958)
(0.009679717609 -0.000222952148 -0.0006405584827)
(0.00644961026 1.913482454e-05 0.0001299686309)
(0.01111706441 6.840484316e-05 -0.0001433923335)
(0.007481127842 -0.0005191150647 0.0003290868169)
(0.008742347202 0.0002577095871 0.0001533706276)
(0.00615023521 -0.0001892863068 4.683902294e-05)
(0.009594291638 -0.0008139386921 0.0002271086699)
(0.01162221197 0.0001167857982 -0.0003662422979)
(0.002879511783 0.0002884421474 -0.0002545133072)
(0.008081683582 -0.000297800286 0.0006294363624)
(0.008122389027 -0.0003391803723 0.0002755708346)
(0.002070253795 -0.0001199888462 -0.0001146252085)
(0.01153458896 0.0001834342833 0.0001940918085)
(0.01280565224 -0.0004708750676 -0.0003767285225)
(0.005167111228 -0.0003791802035 -0.0003049728503)
(0.009472706269 -0.0001964843269 -0.0003861016196)
(0.00504227537 0.000285987677 -0.0001909195188)
(0.0111302236 -0.0007530573972 0.001118945921)
(0.007321075567 7.483117948e-05 -0.0006236159717)
(0.008632992634 0.0006584310128 0.0006523667641)
(0.01015051409 0.0004313293542 0.001155367188)
(0.01333016713 0.0005973042979 0.0002317378023)
(0.00917836193 0.001108670206 -0.0002891253588)
(0.007442152879 -0.0005281748686 0.0006228074856)
(0.006897696506 0.0003735092537 -0.000727807789)
(0.01398022253 0.0001000994853 0.0009111479322)
(0.004946501316 1.92313833e-06 0.0007709774817)
(0.006374837142 -0.0003735854517 0.0006850446162)
(0.009595503804 0.0006318628774 0.0001623911231)
(0.005024520213 0.0001862761317 3.377135962e-05)
(0.00984696319 -0.0001727071024 0.0006617556097)
(0.0159869312 0.0006763834131 0.001252930515)
(0.01026897063 0.000228891921 0.0003960655769)
(0.009984749589 0.0003617028136 0.0002940518935)
(0.00485818296 -0.0001599354039 -5.330919554e-05)
(0.006717254919 -0.0001325206822 -0.0005126344443)
(0.007305626724 0.0004028221304 -0.0002451232416)
(0.01305675868 -0.0006537939359 -0.0003456442891)
(0.01022762522 -0.001045189275 0.0001744255971)
(0.005585095767 -0.0004084813524 0.0005317496915)
(0.006446099603 0.000615656987 0.001133913375)
(0.008316975799 0.000212259977 -0.0002272158375)
(0.00365125815 -0.0005505789939 -0.0001796602401)
(0.005665403653 -1.615191368e-05 0.0002098523142)
(0.008050501536 0.0002902157212 -0.0006259938476)
(0.01172714414 -0.0002557085625 -7.833638467e-06)
(0.007496415323 -0.0001706053036 -0.0006592741129)
(0.01019942769 0.0007160135744 0.0003544953442)
(0.005833051611 -0.0002995961133 -0.0004017305215)
(0.009470576455 0.0002962502136 -9.037242444e-05)
(0.008731760731 0.0003829198121 0.000450592934)
(0.009744309249 0.0002058647448 -9.081412134e-05)
(0.007714894527 -0.0001732778799 -7.024373599e-05)
(0.007696886669 -0.0002086433351 0.0002957239015)
(0.01099474158 -4.124964874e-05 0.0001447790075)
(0.01054473864 0.0002777258655 -0.000164067904)
(0.006804012762 0.0003299494463 0.0008026077273)
(0.005814075445 0.0001591174272 0.0001483616611)
(0.004895423454 -2.131733546e-06 -0.0002619166676)
(0.005890356538 0.0004616738389 -4.754846444e-05)
(0.009489422537 -0.0001118276438 0.0003235813905)
(0.004036968074 7.322844772e-05 -0.0003619713799)
(0.01117777911 0.001301869551 0.0003601199466)
(0.004854276854 1.760521651e-05 0.000183968607)
(0.009238156365 -0.0008592782873 0.0009556114493)
(0.007675072278 3.645897417e-05 0.0007102551294)
(0.005669721204 4.615375223e-05 -0.000531527815)
(0.009981491108 0.0002589249654 -0.0001280012038)
(0.009321427809 -0.0002250864185 -0.0003196309146)
(0.008813927607 -0.000691612585 -0.0007169065534)
(0.008798066451 7.210614895e-05 -4.584917293e-05)
(0.008266599244 -0.0008157373783 0.0002194906483)
(0.003637590683 2.987902085e-05 0.0002169628551)
(0.005697843012 -0.0008467129232 0.0003192113364)
(0.007104479754 0.0004659980421 -4.469835493e-06)
(0.006974680136 0.0005195257141 2.92017425e-05)
(0.009995609826 -0.0006399775537 0.001403952751)
(0.00943557962 -0.00030975012 1.007786368e-06)
(0.01062156761 0.0003604639456 -0.0004678677345)
(0.005061450942 -0.0007354247611 -0.0003174923081)
(0.00661230231 -0.0004730572079 0.0009234786344)
(0.004905092254 0.000273155935 -0.0003051548001)
(0.01141152359 -0.000337916229 -0.0002220136522)
(0.004296204864 -0.0007675207281 5.096961523e-05)
(0.007358026548 0.0004598455998 -0.000759709228)
(0.004300112256 -0.0003070062795 0.0003511816157)
(0.007869131535 0.0002039555108 0.0004543237519)
(0.01321829812 -8.419245677e-07 -0.0004466996802)
(0.005449030312 7.8010288e-05 -0.0001165339766)
(0.008172743523 0.000690954187 2.460476086e-05)
(0.01406994225 -0.001303125903 -0.000825669666)
(0.00365771924 -0.0004495538125 0.0002885579382)
(0.00843799643 0.0001915369926 6.19424792e-05)
(0.009852316274 0.0005764187106 1.306292756e-05)
(0.005903098227 -2.745725584e-05 -0.0001852026756)
(0.009323193555 0.0004542099981 0.001049017668)
(0.004500894072 7.086544337e-05 0.0002267091656)
(0.007554432191 -6.605970207e-05 0.0002747664561)
(0.00807681852 6.403245847e-05 -0.0006794712304)
(0.006707090175 -0.0009260347454 -0.0004363060356)
(0.005544051884 1.378757498e-05 2.401946244e-05)
(0.01026577744 -0.0004252562658 0.0002227417529)
(0.001334392631 -0.000429357999 0.0001976946015)
(0.009421562731 0.0002314770556 -0.001191380013)
(0.008326659122 0.0003581324859 0.0003241545138)
(0.008221657598 0.0002098109582 0.0003301617621)
(0.009463741574 -6.725962114e-05 0.0002379469654)
(0.01072351323 -0.0006730490162 0.0001647851162)
(0.007068952206 -0.0005403942728 -0.0003257381959)
(0.00666448165 0.0008977609136 0.0003357740102)
(0.005729954466 -0.0002526003856 -0.0006857492811)
(0.0089931289 0.0006637198918 -4.631272819e-05)
(0.01097009116 -0.0009919018337 -0.0003487953392)
(0.004078218854 9.334219155e-05 -0.0001620566138)
(0.004646057658 -0.0002399207075 -0.0003337132595)
(0.01262598749 0.0003468489473 0.000436582298)
(0.009515674509 0.0005120498322 -6.796037176e-05)
(0.007066403927 -0.0005890228369 5.961356148e-05)
(0.00503055445 0.000398756449 1.111039775e-05)
(0.008998903682 -9.19873779e-05 6.032280195e-05)
(0.00690358476 -1.142946637e-05 -0.0001062007567)
(0.006664892954 0.0004838873261 -0.0009309096498)
(0.00737665586 0.0003191927369 -4.282461242e-05)
(0.005757410229 -9.09117915e-05 0.0003339856224)
(0.00719651866 0.0006019200007 0.0008506415767)
(0.006413065861 -0.0004458138052 -0.0002910080985)
(0.006676897041 0.000250542892 0.0004481153431)
(0.01276468299 -0.0005400553957 -0.0003036840418)
(0.008209811282 0.000242381724 0.0003126984773)
(0.007454088257 0.0004359930239 2.343369453e-05)
(0.0147167025 -0.0002898956466 -0.0004088832819)
(0.01179475021 0.0001085139186 -2.227037705e-05)
(0.01169759058 -0.0002391268516 0.0005942643904)
(0.003342978856 0.0002048142954 -5.707840391e-05)
(0.01024005198 7.693662383e-05 -0.0003307091661)
(0.01270899807 -0.0003782960163 -0.000211834418)
(0.005141873185 0.0001188259028 0.0003626304999)
(0.005144258778 -4.902301179e-05 -8.296353181e-05)
(0.007048686345 -0.0001865336513 0.0005816586457)
(0.002801777291 2.043852144e-05 -8.032634639e-05)
(0.009652471661 -0.0005905855429 0.0001599637792)
(0.008560773418 -9.022548222e-06 -0.0004780020536)
(0.007899803964 -8.605812497e-05 -0.0001189263327)
(0.007667044992 -0.0002252931503 0.0005907423829)
(0.008960541943 0.0003197658753 0.0002654280282)
(0.008120513881 -5.310764694e-05 0.0002905762729)
(0.008230955046 -0.0009412914433 -0.0001967662181)
(0.006891149615 0.0003274731362 4.238982434e-05)
(0.006388368237 -6.60452968e-05 0.0003297660809)
(0.007701369759 0.0002769507243 -0.001094156169)
(0.01044560182 -0.0007085824599 0.0005627632436)
(0.007213348548 0.0001021028511 -0.0001078354437)
(0.005660969612 -4.292731145e-06 -0.0002073863821)
(0.007477352914 -0.0001596775665 -0.0004810559652)
(0.008743687995 0.0003269919612 -0.0006987723797)
(0.006839830914 0.001096639864 0.0003276893802)
(0.008779121635 0.0001065048636 0.0002555248675)
(0.00980783829 0.0002972871399 7.006221603e-05)
(0.01138867884 0.0003782466105 0.0005267047711)
(0.01256582335 -0.0001384589693 -0.0003239518708)
(0.008612744357 0.0002351130762 -0.0003134628442)
(0.006587751518 0.0005667446156 -0.00107810843)
(0.007837533863 0.0001533191087 0.0001947435569)
(0.007282845894 0.0004624302543 -0.0004925977597)
(0.006318492805 0.0003511922834 0.0005267549323)
(0.008100571705 5.624221059e-05 9.645575352e-05)
(0.01464971966 0.0008127343838 -0.0004549095147)
(0.007635179796 0.00105014836 0.00020903218)
(0.003300186035 -0.0001797758974 -0.000421248588)
(0.008509587045 -0.001056297112 -0.0007029107347)
(0.009270465152 -0.0008910122125 9.869060039e-05)
(0.009984245428 -0.0001819655776 0.0002844119779)
(0.005986074499 -0.000334293347 8.4138e-05)
(0.01022241559 0.0005201795427 -0.0004525726157)
(0.01255543719 -5.796544666e-07 2.408080144e-05)
(0.006117807783 -0.0001429293411 -0.0001507804258)
(0.006932132424 9.891145426e-05 3.119002753e-05)
(0.008279610415 0.00080994462 0.0003578146052)
(0.00984660325 0.001042789962 0.0002330158989)
(0.01157991975 0.0008780174628 -0.000852628243)
(0.00652666034 -0.0007236295488 0.0002911916)
(0.006737803347 -0.0006513424329 0.001338042195)
(0.009450565086 -3.687318416e-05 0.0004873722373)
(0.007851398507 -0.0001299613926 -0.0005364587073)
(0.007163706374 0.0001294586792 5.192056968e-05)
(0.004544268452 -0.0001339503589 0.0001873851412)
(0.007071582153 -0.0005586263189 0.0002530188528)
(0.009562858782 -0.001129366898 -0.000373021809)
(0.00959616533 -0.0003812659422 0.0003933982441)
(0.009616489282 0.0002557174962 -0.0002376022441)
(0.008157165744 0.0008268843753 -0.0001820920328)
(0.009044365193 0.0007432838091 0.0004039433913)
(0.0134348027 8.579442692e-07 -0.000468710826)
(0.008576423498 0.0002027267078 2.927999238e-05)
(0.005881421225 0.0002447385479 2.287128313e-05)
(0.007279544013 -0.0001525087001 -0.000150752675)
(0.006444778265 -0.000759701069 -0.0003509795848)
(0.01006394767 -1.208433077e-05 -0.0002770797613)
(0.009112639824 -0.0001305305679 -1.733143515e-05)
(0.006630258944 0.000111248173 0.0006005077648)
(0.01278408591 -0.0001549012567 -8.410309669e-05)
(0.01190487762 0.0001133483091 -0.0004809869827)
(0.006756353067 -0.0003187545542 0.0006066754005)
(0.005220092785 0.0001756710182 0.0009085753133)
(0.01017119939 9.212297019e-05 0.0001162800102)
(0.007736868866 -0.0007922514941 0.0005828120859)
(0.01358221798 0.0002722867515 -0.0004484523512)
(0.005674287031 0.0001056022315 -0.0002141599426)
(0.008102715638 -0.0004203802188 -0.0001512100989)
(0.009847562887 0.0005185003917 0.0006470284509)
(0.006360255994 0.0004214920917 0.0002129803491)
(0.008961673792 -0.0007114957346 0.0004285877777)
(0.006089494681 3.046875977e-05 -0.0005584496606)
(0.01000395267 -0.0003786544278 -0.0006427508233)
(0.008837553422 0.0003785255439 0.00046946223)
(0.004043057198 -0.0001192342816 0.0002729863805)
(0.005996472537 -0.0006308052809 -0.0007708069467)
(0.008268281337 -0.0001656056717 0.0002597637066)
(0.007195179049 0.0005834864449 -0.0002724619658)
(0.011798498 -0.0002921238031 0.0006298645438)
(0.01449291772 -6.61019587e-05 0.0004313040473)
(0.007216669882 0.0002017747316 -0.0007174231658)
(0.01431192501 3.660616474e-05 -0.0001309580196)
(0.006725795815 -0.0007261083892 0.0002351437922)
(0.005686363483 -0.000248251454 -0.0002461548593)
(0.009269193703 0.001089337925 -0.0003668959126)
(0.006525778125 -0.0004689598812 -0.0001110239463)
(0.01043437752 0.0005389075626 0.0002289969607)
(0.009046568089 0.0005281334289 0.000763469431)
(0.007814711173 -0.0004872424318 3.593623251e-05)
(0.005910820249 0.0003012065207 -0.0004897609547)
(0.004140449751 -0.0004340473132 -0.0002247666262)
(0.009164077883 -0.0006977458078 -0.0002966863089)
(0.007694651306 -0.0005632129106 -0.000284021069)
(0.01160648962 -0.0001689288647 0.0001358204066)
(0.007621411239 0.0004520818285 0.0001965763399)
(0.007263997018 -0.0004755671225 -0.0002494654563)
(0.008442624429 -0.0005880977072 -0.0004725634583)
(0.006961661452 -6.447975444e-05 -0.0004575979698)
(0.008694706423 -0.0002367010026 -0.0005338027414)
(0.007735327834 -0.0001305496067 -0.0001669537023)
(0.005582367391 0.0006254163872 0.0002446713499)
(0.008518003183 1.16416907e-05 -0.0001673740603)
(0.007087139335 -0.0001289259864 -0.0002824836983)
(0.0106269287 0.0006389453923 1.584559534e-05)
(0.009708268262 -0.000381108281 5.583257811e-05)
(0.01014908382 0.000223846604 0.0002665537764)
(0.001510497434 -0.000378720444 2.041420733e-05)
(0.01152232879 -0.0002408478394 -0.0006759732491)
(0.004919924249 0.0002730023534 0.0006736451965)
(0.008491623794 0.0001092978209 -2.073795711e-05)
(0.006706967238 -0.0002758392171 6.724191382e-05)
(0.01066624996 0.0002413119173 0.000226196246)
(0.00356259473 0.0003442644831 -0.0002078968657)
(0.01017029998 0.0007723580388 -0.0009070798169)
(0.005309352205 -0.0001580551792 0.0002583928144)
(0.01069003693 -0.0004673396462 -5.71831931e-05)
(0.01115752788 -0.0007621914146 -9.928041621e-06)
(0.004135991318 -6.975436646e-05 -0.0004327990285)
(0.009300957789 -0.0009831163709 -9.80418818e-05)
(0.01141970652 -0.0005535074488 -0.0001572364701)
(0.006342716146 6.318274201e-06 0.0001659908324)
(0.00854712473 0.0007313541454 0.0002705681048)
(0.005071948671 -5.681415318e-06 -0.0001089164234)
(0.01078284148 0.0001534865249 -1.646876963e-05)
(0.007356645958 -2.099513974e-05 -0.0001969445019)
(0.008841142768 0.0008914188721 -0.0002221863131)
(0.007474668733 -0.0003730285592 0.0006690676833)
(0.008393036171 -0.0004779074647 0.0001650089259)
(0.008024257858 0.0007026833855 0.0008861230603)
(0.01117026011 -0.0001559852548 0.0004363565622)
(0.007328381489 -0.0001553234331 -0.0004092509303)
(0.005477040606 -0.0002613318207 0.0006713307741)
(0.00986940404 0.0005254348056 -0.0003839908568)
(0.005529520504 0.0008491304109 0.0004318902579)
(0.008475834893 0.0005292237322 0.00062260786)
(0.01064375705 0.000323025227 -0.0002533250094)
(0.008964969606 0.0001710338735 -0.0006336793403)
(0.007396611809 -0.0005167278678 -0.0001674920697)
(0.01352775699 -0.0002681855208 0.0004331702233)
(0.006288482203 0.0004987943797 -4.873429562e-05)
(0.0127462318 0.0008367922664 0.0005156496989)
(0.005264633298 -0.0006831617126 -0.0002435674387)
(0.006277438208 -5.8934038e-05 0.0001057203278)
(0.008048537121 -0.0003743553976 0.0002038528324)
(0.007992407538 -7.422161501e-05 0.0002086630717)
(0.009369538868 -0.0002654972372 0.0006454466574)
(0.009588762274 2.765275621e-06 -6.459917557e-05)
(0.008064449549 -0.0006038093301 0.0004662423287)
(0.00843468 0.0001187461613 0.0006509383821)
(0.008231938536 0.000363820006 0.0001573395879)
(0.004809208309 -0.0005400852598 0.0008716420561)
(0.01027342 0.0002065244653 -0.001023608461)
(0.01092223764 0.0007360033803 -8.789143992e-05)
(0.008092465481 0.0001702288896 0.0007811096915)
(0.006410622018 0.0007221015659 -0.0003356402857)
(0.007564611161 -0.0002039791097 0.0001048131665)
(0.009871480898 0.0001844760195 -9.732068937e-05)
(0.008439830566 0.0003966646623 -0.0003538001794)
(0.008853368453 0.0003920321909 -0.0001967182269)
(0.008309513542 0.0005184036092 0.0001844413085)
(0.00765272606 -0.0009540705792 -0.0002246899252)
(0.009465113731 0.0003173227458 0.0003554380977)
(0.004100937055 0.0001143801788 0.0004533033552)
(0.007767474374 6.3191211e-05 -0.00015412925)
(0.00434447496 0.0005571245963 -0.0006331991277)
(0.01391894351 -0.0005226133472 0.0004073725598)
(0.01100812744 0.0002498354131 0.00110722213)
(0.008843808228 0.0005421703876 -0.0002903918891)
(0.003763755523 3.612594316e-05 0.0004846348698)
(0.01344378653 0.001040211809 -0.0004523985761)
(0.007663613039 -0.0004939590321 -4.373006185e-05)
(0.004581948625 -0.0005484848336 -0.0002868184442)
(0.003859701595 5.445379844e-05 -0.0002167071667)
(0.007181425824 -9.157286947e-05 0.0003526036741)
(0.01320155857 0.0008513539087 0.0007819814263)
(0.008442197386 0.000293597164 3.425456406e-05)
(0.0112840095 0.0003499641484 0.0003603401605)
(0.009666980313 0.0001938191212 -0.0005884882585)
(0.00742992777 -0.0002684472145 -0.0003487639135)
(0.01096455636 0.000640523644 -0.0001221328298)
(0.004288148295 0.0001855374413 0.0005258574846)
(0.007322933595 0.0003939876648 0.0006111333583)
(0.00955492733 0.0001858701703 1.935570742e-06)
(0.01096897494 0.0002608133188 0.0009590020237)
(0.01169575032 -0.0003276027843 0.0008272295297)
(0.009374197473 -3.363477295e-05 -0.0005071637058)
(0.007850827327 0.0002493317039 -0.0004467794649)
(0.01106334636 -0.0005592178823 -0.001185822706)
(0.00713457607 0.0005142682404 -0.0005598056641)
(0.007222098767 0.0002481365339 0.001022216551)
(0.009341565502 -0.0001761550619 -0.0004638440488)
(0.009560527675 -0.0003446593892 0.0002200017643)
(0.009008831543 -0.0006492882957 0.0002411471931)
(0.01104277704 0.0007107644798 0.0002381243545)
(0.01113027621 -5.208588099e-05 0.0001087066482)
(0.007140113944 0.0006222365096 -0.0003406251873)
(0.008635960667 -0.0003421997538 0.0003786581988)
(0.009332501618 -0.0004965000641 -0.0004414084934)
(0.004520501853 6.226876489e-06 -0.0001568188255)
(0.009789236871 0.0002784157077 0.0004872047678)
(0.01331011228 0.001741698388 0.0001425031515)
(0.007712345709 -0.001206902924 -0.0002167710255)
(0.006973146046 0.0003505180788 -0.0005668877447)
(0.004134867701 -0.0002421950484 1.427137809e-05)
(0.005903438806 -8.092578405e-05 0.0002068450686)
(0.009815309435 -0.0002748492222 -7.161867582e-05)
(0.006387284927 0.0009474656213 7.223514816e-05)
(0.006562424926 0.0001889271874 0.0002095651049)
(0.009378403361 -0.000686944667 5.434664323e-05)
(0.009641863947 0.0006722901488 0.0004783842864)
(0.009666845652 -0.0005034045185 -0.0006617218559)
(0.01129415432 -0.0004322284779 0.0001089030152)
(0.003224199376 0.00011865571 -0.0001182009833)
(0.00567770545 -0.000461544459 0.0004862069165)
(0.008772952259 -0.0004503971064 0.000845342189)
(0.0041649488 -0.0002302024186 -0.000493060161)
(0.008057426792 -3.023676672e-05 0.0002839570989)
(0.007138014003 0.0003162965414 0.0005267852026)
(0.01519112962 0.0001224748111 0.0004768284222)
(0.005451429102 -0.0002675720684 -0.0001281464653)
(0.01798644579 -0.0005501628605 -0.000815079309)
(0.001691490369 -0.0001688409461 2.955175897e-05)
(0.00829803557 0.002122077043 0.0001487324033)
(0.005805572037 0.003427563169 -0.0006677897815)
(0.007749575265 0.0007971519923 0.0008353899586)
(0.00486508338 0.002256581995 -0.002405498195)
(0.008150464924 0.003139727804 -0.0004140279532)
(0.008431749455 0.003369097776 0.0007712069316)
(0.00570841163 0.001086139822 -0.0006863859436)
(0.002090162631 0.002239645814 0.0007271189778)
(0.00840133658 -0.0003408821408 -0.0004724956694)
(0.006636599102 0.001943790201 0.0009194724103)
(0.009113480261 0.0003632767823 0.0008046191569)
(0.008166580962 0.002783328352 -0.0008386971702)
(0.01444953877 0.004162157248 0.001472484248)
(0.005107017214 0.0009107453971 0.0003746903444)
(0.008694919591 0.003819354586 -0.002010634062)
(0.009362338397 0.002290326599 -0.00180913578)
(0.00677167941 0.002065533211 0.0007989917887)
(0.009414212399 0.003836127667 -0.003055628362)
(0.01240458758 0.003690651705 -9.870699489e-05)
(0.006447932537 0.002395391765 0.001597899629)
(0.007091847775 0.001322491329 0.0008458279818)
(0.008944456658 0.001303009016 -0.0003562948479)
(0.006165759986 0.002525719197 0.0003639461246)
(0.01168449162 0.001532517776 -0.001628621822)
(0.01195160297 0.002701986396 -0.0009896103101)
(0.001558571743 0.0009281722735 -0.0003059815906)
(0.01173995068 0.004644524674 -0.001042067226)
(0.01488958798 0.001770991879 -0.001977404505)
(0.01258692715 0.003646317721 -0.0006142825258)
(0.01333655 0.005468632124 0.002445614548)
(0.007526587836 0.0008638551196 -0.0002564453589)
(0.006080856347 0.001177467421 0.0008600018442)
(0.008203492711 0.002639214851 4.807185771e-05)
(0.008122590221 0.002750292783 -0.000598654777)
(0.01027371434 0.001985642186 0.0003811047939)
(0.00448400943 0.002663779359 0.000239839824)
(0.01348821528 0.004179993834 -0.0005179689572)
(0.008815201041 0.00244385691 0.0006870652318)
(0.007501307247 0.00485280765 -0.0002186330025)
(0.013398229 0.005597873161 -0.002736488773)
(0.009708790704 -0.0003658424703 -0.000415689778)
(0.01035701627 -7.027048156e-06 -0.0007231975825)
(0.004276662861 0.0007803066434 0.0002141540409)
(0.01499290522 0.003352284476 -0.0001948474261)
(0.01134466177 0.004986338067 -0.001128561539)
(0.01060498935 0.003814839497 0.0008056573419)
(0.008934169655 0.00191974375 -0.000927160956)
(0.007100869212 0.001469785241 -0.0004038485354)
(0.009269365586 0.003088243774 0.001851644713)
(0.009877356925 0.003118218525 0.0009911522639)
(0.006833926686 0.0006342825117 -0.0004801030579)
(0.01006168432 -5.490588236e-05 0.0002163422462)
(0.01287430317 0.0007590777033 0.001033382083)
(0.009907842364 0.00170518229 -0.0002024129003)
(0.01224502447 0.004087366274 -0.001355137587)
(0.0104085387 0.0006492310748 -0.000906844898)
(0.007657012755 0.001687476979 -0.000308410223)
(0.01732563499 0.001941434475 0.0007317756822)
(0.01398845349 0.00199320432 -6.78751647e-05)
(0.007800482031 0.0032158476 -0.002029032551)
(0.01146986808 0.0001680862509 -0.0004144762943)
(0.007749206373 0.002309506226 0.0005211276815)
(0.0104644038 0.0006043135543 -0.0001689213616)
(0.01036350176 0.0003516289784 0.0005612534266)
(0.009105580741 0.0005776293168 0.0005926322638)
(0.007980995127 0.0002663451787 0.0003305831882)
(0.01170166525 0.001749155232 0.0006613761866)
(0.00913363721 0.001747218465 0.000180573938)
(0.009888760668 0.001229581327 0.0002065495114)
(0.01434033252 0.003961476607 0.002251843891)
(0.00535196674 0.0006638145975 4.414124691e-05)
(0.01012274377 -0.0002242184889 0.0002521394375)
(0.01113575067 0.0001619306738 -0.0005660541096)
(0.009007348774 -0.0001844954889 0.0003358273678)
(0.007479519435 -6.033080657e-05 0.0002021091692)
(0.008213505766 0.0008455569894 0.000298864504)
(0.01082934005 0.001398249832 -0.001735045716)
(0.0081419042 0.0007283886355 -0.002073733282)
(0.01147286923 0.002738915766 -0.001180899384)
(0.01103108792 0.001546817918 -0.0003112967072)
(0.01147300415 0.00117834416 -0.0003601763816)
(0.008634650598 0.001088017632 0.0003862429574)
(0.008057076494 0.0006393020502 -0.0008410327857)
(0.009519889284 -0.0001465705474 -0.0001159362328)
(0.009157935684 0.001182052016 0.001117675616)
(0.007338199283 0.00173273913 -2.125066407e-07)
(0.01083829968 0.0004047188169 -0.0007226187735)
(0.007977529925 0.0001654105002 -0.0007703912433)
(0.004834724417 0.0005297000901 0.0005490642711)
(0.01242135397 0.0003833490812 0.0003653578088)
(0.007003356351 3.035000247e-05 0.0007148921567)
(0.005822481348 0.000558529827 0.001030431694)
(0.008813139341 0.0005512486898 -0.0002669207474)
(0.01039976438 0.0003420041886 -0.0002521928461)
(0.009143752737 0.001241513829 0.0004872002562)
(0.01936461005 0.001575869403 0.0006315817474)
(0.01266404092 0.002819636524 -0.0007908682501)
(0.009661409273 0.0002220509169 -0.0002369602237)
(0.005749671817 0.00190036518 -2.70412736e-05)
(0.01043405203 -0.0002671637025 -0.0007160335283)
(0.006419527696 -0.0001913831564 -0.0006707230917)
(0.0128563058 1.886183987e-05 -0.0003089955625)
(0.0082198552 0.0006513860542 0.0008984136675)
(0.008676325714 0.0001120809444 -5.360584941e-05)
(0.007261974721 -0.0009085224223 -0.0006301676977)
(0.007847112616 0.0002795727055 0.0008759840984)
(0.005644540474 0.002266072793 -0.0007214802476)
(0.006588550545 1.768392407e-05 -0.0001137892911)
(0.01125979542 -0.0006466124139 -0.0001623915843)
(0.01202136047 -0.0004587927841 0.00060277472)
(0.009552262311 -6.264193148e-05 -0.0008304386101)
(0.01023147592 0.001441838909 0.0005106435489)
(0.004574870021 0.0003542313651 -0.0005104422888)
(0.01006557629 0.001019538939 0.0001166940851)
(0.007095111984 -0.0002591865411 0.0002881273538)
(0.01167808159 0.0004349777066 0.0003444953955)
(0.01310349404 0.0005130000009 -0.0006734614673)
(0.01060616606 0.0005902213965 -8.832669268e-05)
(0.004746415854 0.00219659429 -5.298047698e-05)
(0.007864084722 0.001298291408 -0.0005746224367)
(0.008634698102 -0.0004002110748 0.0003017819229)
(0.008432983794 0.001188441439 -0.0001670417864)
(0.00869822884 0.001071214272 0.0004725947544)
(0.00479893625 -4.554276713e-05 -0.0007455946748)
(0.007759443394 0.0001712089589 -0.0002233597262)
(0.008439039493 7.173288644e-05 -0.000559276709)
(0.006957956727 0.0005870191472 0.0008711563542)
(0.007887050469 -0.0005006285057 0.0001864826602)
(0.01075221506 0.0002383067068 -0.0002060319585)
(0.009604962909 0.001155644648 -0.0004985174502)
(0.009174899119 -0.0005149311837 0.0002684563469)
(0.008523377049 -0.0001956817694 -0.0008142449468)
(0.009065023061 -0.0004790285751 0.0006271794465)
(0.007228540321 0.0006345018224 -0.0008013171562)
(0.006650568885 -7.4970315e-05 -0.0005055916368)
(0.006983012969 -0.0001058571379 0.0006339896971)
(0.01295775375 0.0006821218607 0.001123708979)
(0.0157560243 -0.00106540257 -0.0003434268887)
(0.007452587757 -8.747265592e-05 -0.0005890128265)
(0.007168019841 0.002215641458 0.0006604828556)
(0.008775318818 -0.0009222564985 8.426482771e-05)
(0.007770574104 -9.806312705e-05 -0.0005509134212)
(0.008588002931 0.0003207517464 0.0005939034964)
(0.008126041526 -0.0005480234827 0.0005279165797)
(0.01164783808 -7.596028241e-05 0.00145306952)
(0.008082384884 -0.0003708103215 -0.0001766560105)
(0.009490280577 -0.0002870854134 -7.496009747e-05)
(0.01379589289 0.0003401771076 0.0003878943137)
(0.005789874502 0.0003506169577 0.0002525629884)
(0.01323612719 0.0003775737108 0.0002810141018)
(0.008271281056 0.0002113107581 0.0001230287191)
(0.005642165692 0.0001346865296 -0.0004342836298)
(0.005550196875 -0.0004131044812 0.0001285502261)