/*--------------------------------*- C++ -*----------------------------------*\
| =========                 |                                                 |
| \\      /  F ield         | OpenFOAM: The Open Source CFD Toolbox           |
|  \\    /   O peration     | Version:  2406                                  |
|   \\  /    A nd           | Website:  www.openfoam.com                      |
|    \\/     M anipulation  |                                                 |
\*---------------------------------------------------------------------------*/
FoamFile
{
    version     2.0;
    format      ascii;
    arch        "LSB;label=32;scalar=64";
    class       volScalarField;
    location    "0.002";
    object      overallT;
}
// * * * * * * * * * * * * * * * * * * * * * * * * * * * * * * * * * * * * * //

dimensions      [1 2 -2 0 0 0 0];

internalField   nonuniform List<scalar> 
654
(
290.4057715
297.8851245
294.1033208
298.6338615
297.3853472
298.1237174
298.4177129
299.2979703
296.7362942
296.1857772
295.7609572
299.9577682
296.0017247
304.506812
310.4210662
316.829402
334.8547963
385.8143523
561.40062
958.673719
293.1112953
303.7183074
299.6766546
300.4415076
301.9636944
305.1082561
305.0634738
305.8127044
303.0756785
302.6906817
301.5083888
298.1862726
302.9667759
305.439032
310.7175459
324.8806074
344.9826929
415.5470074
569.4584718
860.3315773
295.5227214
305.6000745
299.8526257
296.5060888
293.9300942
294.0946248
290.8064326
290.3912921
289.4588322
293.7859108
293.4246553
292.4094992
295.3945477
301.5204978
314.1252549
333.8491526
357.5995778
409.8567111
544.4102967
697.5944574
292.0230952
301.7702492
295.8335505
296.5991835
295.6985259
291.0025455
293.8346331
293.8803012
296.5533501
294.5011724
296.8338508
298.9624753
306.1472722
309.3631943
313.256484
329.4459048
359.6592158
408.545388
462.061282
598.7688105
288.5456179
298.964049
293.668929
294.908576
297.146778
300.7803148
299.0444157
300.4544209
299.8357833
298.9777057
302.0145253
300.4770686
297.0728762
303.5390796
307.4454835
324.1861968
342.4541265
382.0113973
433.569796
513.777651
292.2840322
302.8768407
299.9773821
300.741156
297.1464889
293.2803997
295.2998521
295.9239932
298.9377262
304.304378
302.3183512
301.0162389
300.4077522
301.709614
308.8525629
316.1338372
337.9116527
383.4771936
399.983671
444.8105971
293.8155734
304.6540056
301.8256459
301.1352443
304.8296846
304.2613666
303.594125
300.0321999
299.5717211
299.4118249
299.2302755
297.674742
300.6975034
301.0196338
302.9279285
310.3731738
328.8665115
337.9631927
362.6294569
393.8272642
295.7871412
306.0751865
301.4128943
304.5458949
298.6006089
301.8548474
300.9723336
301.8555396
303.6448313
301.9766865
299.4924224
302.2245851
301.5365736
302.959397
309.9819907
312.1818773
317.1717223
332.3074785
343.8032496
357.6638121
295.6655709
308.4650457
302.2075851
304.85929
306.1573782
305.8425341
306.498829
304.6753672
305.2618098
307.6693933
307.4440735
306.7659127
307.4829384
313.2749333
308.2119925
316.2581377
318.556801
318.8417911
339.176208
359.1782318
298.1766637
305.0321704
300.4832504
299.5691541
297.7535624
301.4429955
299.1599701
297.0004713
297.9612976
299.4474974
301.3644413
304.9304231
314.4725598
307.5124462
306.610745
312.3863584
310.3978952
312.5476871
327.0455478
345.8895732
293.7089009
302.929958
303.321343
299.8275078
300.7584885
298.0867238
299.0809939
302.623699
299.5484234
300.9148984
300.8143758
296.7519655
301.3584444
300.9623014
304.3616415
301.4838624
302.8222065
301.6646684
312.2194249
326.4828706
296.4605745
307.2003205
300.5733918
300.4997379
300.5247644
301.8295157
302.8984016
300.9595899
304.4952657
302.2813186
303.1775784
302.0219273
301.1263603
305.3687976
305.2179613
306.8037721
311.3326937
309.5346272
311.2672448
324.5924215
292.9654035
303.5715275
299.4430641
298.5793775
297.793725
296.3648204
296.7575949
299.0636962
297.2974644
297.8545829
298.2766491
297.4503027
299.4694602
300.3072888
299.528387
301.1039256
303.0098585
302.7859507
305.0393778
307.4104615
291.5743526
298.7420598
296.4213755
299.8320995
300.5502221
301.2127867
300.1060512
299.2322329
298.0754539
295.8042207
297.8309843
297.3567053
298.5868046
297.5951011
300.0040088
296.9654618
295.5562441
303.3615686
299.9845591
306.0652354
293.0546141
305.056359
299.9283774
297.0935366
299.1282227
300.2871102
299.2935559
300.0214603
299.9389283
301.6943241
299.0943875
299.8535297
296.2688448
292.3846542
293.592256
295.426846
300.1726495
302.7719617
302.8526324
303.2389384
291.6066634
300.3879181
298.1187794
297.9646358
295.2981298
294.5782354
296.5165387
296.0623588
298.3683441
298.8874142
298.7426
297.4285326
298.0326008
300.1490059
297.4402723
299.4278363
302.2785351
299.8489724
302.5196772
304.147577
294.8780911
302.9941131
298.8924216
298.4071114
300.081355
301.2830234
301.6377908
299.1732203
297.65737
297.6452169
298.8916237
299.2389848
300.001135
301.749451
302.4232508
305.1046457
302.500596
305.6608954
304.6574303
309.0408388
297.6607095
304.1499798
301.2025935
301.3203049
300.6252877
300.9526856
299.4236414
297.9746954
299.116245
298.2527445
298.4395752
298.1920307
299.3992037
299.5268641
299.4824744
297.3819199
296.0144502
296.1812791
296.9889435
297.8397071
291.1454934
302.9748427
298.2678959
296.0706932
296.7191802
298.1046171
301.0761089
300.9256255
303.6672925
306.0427408
303.6241239
304.4577441
299.9769247
296.0484411
297.0107735
297.9314024
298.0465298
297.3382278
300.377779
293.1811828
293.0249723
303.6968758
299.1187703
299.8390702
299.7398548
298.2698478
297.5824898
296.5202617
294.2517546
292.8507102
294.3696374
295.9246923
300.187702
300.9505335
300.4864088
299.9850691
300.3036828
300.7675283
304.2980797
303.6649261
293.3969664
302.1233282
298.2188482
299.0610068
299.3584666
298.6460997
298.8347626
298.0087899
299.3748445
300.1415939
299.8523481
297.2577143
296.4412577
297.3604102
297.1620902
299.4846015
301.0758887
302.7148612
300.5638112
302.922588
291.8538704
303.6040597
298.0738361
297.7820058
298.7191628
300.2427614
297.1528384
299.4516479
299.6705863
299.2063639
298.502393
299.079281
294.9930995
299.3281399
299.8009496
297.599212
297.9491977
300.1043367
300.2145075
303.5374311
1048.295188
983.0684685
961.7808056
936.4435316
912.3916617
898.2317439
890.3363651
864.2564191
874.6095464
859.2483452
996.4975951
1010.362188
995.1322744
978.6252517
962.596338
964.3951843
957.5130542
946.6730413
947.3931391
950.8923671
866.7727058
901.7096296
914.5624228
935.227066
940.1030485
941.2511115
936.8945875
947.6200133
943.5102535
933.6953724
717.0765764
796.8430635
833.2126362
894.8694665
875.1381798
881.8811876
903.0711616
896.6220101
899.4946546
911.8495705
592.5103197
694.4973135
748.215514
798.3512786
806.2370883
835.8149417
862.0794409
850.5616941
863.8872977
864.5132277
512.4765697
597.7984614
669.1920513
710.5651083
740.8709629
762.3064413
800.4873911
809.3585913
834.6975056
828.3592101
452.5230767
520.2583575
553.7883939
622.3019006
641.8537428
681.8018634
719.5881269
746.3637068
770.7924659
796.6183187
413.3638629
477.0797014
490.5707287
564.0078006
586.729277
613.7225553
653.9759088
682.362434
713.3621756
733.2430928
392.1494469
415.654551
435.6172176
475.302281
516.6185862
559.0630757
575.8377199
624.3324949
663.3771749
677.8542589
366.7015922
388.190758
413.6140735
428.659433
439.9581899
501.5388861
522.8419308
555.2797864
598.7461486
621.0944957
345.9224004
374.8570349
388.7785307
404.8295337
418.0084702
457.6103045
482.5613294
516.8535578
539.1524813
549.6181173
330.5841566
346.2783684
361.6001236
382.9832059
391.5809872
397.2208725
426.842415
457.8071137
480.2740379
499.3291713
323.7695332
327.3754235
350.3594028
346.778107
351.497987
381.0913137
387.2389755
415.1036301
428.9002035
461.2013369
319.3356461
316.0952778
333.1861176
343.6400274
345.6793499
361.2082741
372.2114216
388.3310153
405.2240139
421.8516967
317.6123478
317.8510372
319.6819886
324.8803281
339.3911402
345.5744132
352.208497
368.653961
379.5775041
391.9160947
304.4554826
320.0887013
317.3356512
319.2437847
326.3057029
334.0845468
351.9464036
348.2785529
361.3289262
374.5581626
310.9811173
314.9098967
318.114906
312.7215793
307.6409517
314.6090213
334.0994761
338.4213723
342.6142478
355.3468194
303.5466853
305.5180373
306.2518482
307.3106727
309.3316635
312.5515112
321.1825768
321.3815454
322.8998968
334.3745993
299.8611349
301.6905181
303.501433
306.4087333
309.2293281
311.097029
314.8160326
320.1425764
318.5482427
325.7029549
307.5087573
305.3389337
304.82119
304.9050611
305.5704272
312.4833372
313.129956
318.0439908
327.6603369
320.7268075
303.4434113
303.0452599
305.2098938
302.8200876
309.8542106
311.9745704
314.039169
315.3211773
325.5207587
318.9642505
300.9031746
300.5745997
304.2589026
306.6477516
)
;

boundaryField
{
    flow
    {
        type            calculated;
        value           nonuniform List<scalar> 
42
(
290.4057715
293.1112953
295.5227214
292.0230952
288.5456179
292.2840322
293.8155734
295.7871412
295.6655709
298.1766637
293.7089009
296.4605745
292.9654035
291.5743526
293.0546141
291.6066634
294.8780911
297.6607095
291.1454934
293.0249723
293.3969664
291.8538704
290.4057715
297.8851245
294.1033208
298.6338615
297.3853472
298.1237174
298.4177129
299.2979703
296.7362942
296.1857772
295.7609572
299.9577682
296.0017247
304.506812
310.4210662
316.829402
334.8547963
385.8143523
561.40062
958.673719
)
;
    }
    obstacle
    {
        type            calculated;
        value           nonuniform List<scalar> 10(919.1282622 875.3260015 836.2379102 818.6123728 780.7359216 742.5331054 764.9623764 753.7693665 750.6900896 742.2834301);
    }
    frontAndBack
    {
        type            empty;
    }
    procBoundary0to1
    {
        type            processor;
        value           nonuniform List<scalar> 
21
(
842.5383381
917.5035992
918.8245453
907.9368444
861.8789095
829.2759911
799.0035028
758.1629865
705.8591401
645.2313504
584.7862801
540.0782926
474.4559181
448.7843015
408.0617981
396.2119322
361.7311243
344.8038849
337.3357802
331.1055254
325.0367033
)
;
    }
    procBoundary0to2
    {
        type            processor;
        value           nonuniform List<scalar> 
31
(
290.5357047
300.7420607
298.6413602
298.7741556
297.7464199
298.1894898
299.4636045
300.4078216
301.225789
299.5835506
299.2132705
299.9877511
302.0737904
299.7113827
299.1368971
298.6187555
297.754434
298.0321311
299.891339
301.2568335
308.975694
311.6722649
303.7365596
306.4376721
304.730488
310.9419627
297.7363327
302.495402
300.2503479
308.975694
299.4824887
)
;
    }
}


// ************************************************************************* //
