/*--------------------------------*- C++ -*----------------------------------*\
| =========                 |                                                 |
| \\      /  F ield         | OpenFOAM: The Open Source CFD Toolbox           |
|  \\    /   O peration     | Version:  2406                                  |
|   \\  /    A nd           | Website:  www.openfoam.com                      |
|    \\/     M anipulation  |                                                 |
\*---------------------------------------------------------------------------*/
FoamFile
{
    version     2.0;
    format      ascii;
    arch        "LSB;label=32;scalar=64";
    class       volScalarField;
    location    "0.002";
    object      p;
}
// * * * * * * * * * * * * * * * * * * * * * * * * * * * * * * * * * * * * * //

dimensions      [1 -1 -2 0 0 0 0];

internalField   nonuniform List<scalar> 
654
(
0.2969242449
0.3970338767
0.3912640101
0.402721496
0.4038848887
0.4048046727
0.4053685526
0.4113381748
0.399928386
0.3948488946
0.3924229775
0.4000826348
0.3880576976
0.4089517485
0.4189090109
0.4349814881
0.4801820179
0.6030931815
1.029612597
2.472358217
0.299716588
0.4144997175
0.4153551187
0.410265043
0.4093053292
0.4202588443
0.422474249
0.4266100014
0.4215403548
0.4163813207
0.4128100286
0.4089205965
0.4227772604
0.4288957818
0.4385959135
0.4702358417
0.5180721624
0.6925703003
1.118510681
2.062006002
0.3160868807
0.429232981
0.416019545
0.4104790721
0.4061423761
0.4109241549
0.4081862978
0.3998630421
0.4026495166
0.4097371668
0.4149456348
0.4111583448
0.4142865067
0.4284319843
0.4617161122
0.5037048337
0.5550062964
0.6781651672
1.010180837
1.457544651
0.3079522386
0.4180961762
0.405266233
0.404328313
0.4009061417
0.3892821709
0.3947415477
0.39562017
0.3996163248
0.3980418176
0.399524709
0.4060580084
0.4315397031
0.434516774
0.4425578095
0.4798791394
0.5526908176
0.6849336328
0.8175889479
1.19013601
0.3049794984
0.4077203913
0.4015978437
0.4074888711
0.4134460069
0.4173154235
0.4116907292
0.4114892388
0.4087820276
0.4121374566
0.4179750375
0.4174623735
0.4076797668
0.4221315579
0.4321308464
0.477178548
0.5209801833
0.6176810912
0.7380275759
0.9496142883
0.3115367228
0.423434126
0.4214132824
0.4167630536
0.4094728734
0.4042438712
0.4076515455
0.4163608302
0.4291863107
0.4329283065
0.4238016206
0.4176314713
0.4129507302
0.4151543262
0.4395460096
0.4480916784
0.4970093448
0.6033437966
0.6557832145
0.7633472363
0.3069741433
0.4218899319
0.4145075894
0.4125886197
0.4226915993
0.425722623
0.4284818422
0.4151941769
0.416130401
0.4170848549
0.4194566629
0.4173386739
0.4269909716
0.4257647933
0.4239151096
0.4412939824
0.4888843817
0.5064658388
0.5719692773
0.6536055087
0.3127570315
0.4243599946
0.4159479311
0.4277207951
0.4160705997
0.4186122246
0.4184659505
0.4252082813
0.4275202837
0.4178416371
0.4128704727
0.4132896927
0.4132909572
0.416074138
0.4394139778
0.4465875935
0.4508210364
0.4852250314
0.5078728955
0.5536035137
0.3099259147
0.4307932399
0.4170724375
0.4224103142
0.422255671
0.4214510663
0.4286478106
0.420407983
0.4191357278
0.4252135287
0.4319525545
0.4282722785
0.4261595593
0.4340623409
0.4181496048
0.4369842128
0.4466802159
0.4475166342
0.4942198888
0.5390096923
0.3150232701
0.4176519032
0.4191317605
0.4189050958
0.4187761838
0.4205533679
0.4132529976
0.4074081797
0.4118921939
0.413689784
0.4195475088
0.4243417359
0.4430178683
0.4290662942
0.4284202561
0.444652962
0.4351910206
0.4314726894
0.4710885214
0.5157020486
0.3155394779
0.4219763876
0.4211845114
0.4110862446
0.4139176205
0.4012183632
0.4060560665
0.4157490694
0.413582688
0.4134824866
0.4146695144
0.4083031027
0.4243521425
0.4240045582
0.4343369769
0.4179324696
0.4273720467
0.4278713481
0.4555229644
0.4855138363
0.3173185894
0.4295975746
0.4138898446
0.407178594
0.4104739539
0.4198593956
0.4233611357
0.4174938308
0.4260057924
0.4203071501
0.4212897622
0.4134450481
0.4071894844
0.4180543609
0.4191810626
0.4298424626
0.4433866026
0.4408034498
0.4393327094
0.4706760968
0.3148847043
0.4300992454
0.424656023
0.4211424228
0.4173294654
0.411018689
0.4097562978
0.408829473
0.4031411248
0.4109510126
0.413011226
0.4121777167
0.4223535724
0.4268899133
0.4251535042
0.4324904856
0.4335678211
0.4323894381
0.4378436797
0.4428571077
0.3082043466
0.4141215342
0.4118664012
0.4200021377
0.418223532
0.4233014515
0.4174372711
0.4158300317
0.4110171249
0.4030354626
0.4056496188
0.4054913848
0.4037438282
0.4014344758
0.4115783162
0.4029279961
0.4017510087
0.4242062391
0.4134979752
0.4251248793
0.3080971272
0.4299142501
0.4155786432
0.4103365632
0.4162843897
0.4192112167
0.4238424136
0.4238291127
0.4231512405
0.4269584474
0.4179638633
0.4188670246
0.4164996119
0.4077585553
0.4066137864
0.4056743351
0.4138808536
0.4152499575
0.4088170751
0.4090934369
0.3128486428
0.4233647156
0.419533555
0.4213697524
0.414186891
0.41271187
0.4196536361
0.418636047
0.4297063168
0.4229012347
0.4247819912
0.4114316791
0.4037952432
0.4063078751
0.4043252904
0.4110891315
0.4147761729
0.4152536706
0.4252668471
0.4237389208
0.3119752435
0.4158005825
0.4120628739
0.4171671486
0.42027733
0.4232228489
0.4180179725
0.4110986404
0.4064324511
0.4069166477
0.4131473109
0.4193802744
0.4275751867
0.4333651474
0.42899045
0.4383982818
0.4325481699
0.4333981173
0.4240343946
0.4299269237
0.3167792056
0.419301856
0.4149430571
0.4116133468
0.4115800752
0.4100997414
0.4118200074
0.4126537765
0.4142813158
0.4141297785
0.4146433221
0.4134173493
0.418382543
0.410299165
0.412375159
0.4097455279
0.4147559841
0.4160133602
0.4167897173
0.4243157062
0.3063721044
0.4203194746
0.4098243528
0.4020575309
0.4042517275
0.4092719232
0.4148482632
0.4159297111
0.4241527642
0.4299383525
0.4254948313
0.4271082347
0.4127740151
0.4139911416
0.4168115424
0.4197702623
0.4163277322
0.411489417
0.42568822
0.4033660856
0.3074847707
0.4251119907
0.4227899992
0.4278608606
0.4263058184
0.4247838183
0.4244305679
0.4202164425
0.4153580349
0.4161328534
0.4145038727
0.4147089854
0.4333659651
0.4333562622
0.4294366078
0.4254167705
0.4291115635
0.4275467052
0.439557815
0.4444418404
0.3069917849
0.415118797
0.4085070056
0.4145806416
0.4137765181
0.4149909674
0.4149192816
0.4058637121
0.4092192191
0.413114498
0.4173360789
0.4124887846
0.4084001565
0.4066126564
0.4151416833
0.4205281966
0.4231561582
0.4227659969
0.417557311
0.4221578908
0.3120267558
0.4291691874
0.4167579234
0.4048228292
0.4106107364
0.4086430059
0.4020691193
0.4151868633
0.4206611964
0.4199822908
0.4147618426
0.4151483043
0.4068095624
0.412805721
0.409908528
0.4067163391
0.4066813832
0.4101598873
0.4146829629
0.4165249375
4.58541796
4.746575415
4.653729345
4.624354903
4.536761996
4.445547566
4.368766221
4.214225795
4.093598974
4.094971262
3.007121281
3.557365891
3.769456158
3.890256481
3.995635883
4.052144196
3.99340463
4.017501248
4.011397967
3.912241774
2.110478133
2.529246895
2.87828977
3.166803099
3.361484407
3.417179438
3.505527521
3.742443802
3.760601185
3.72071521
1.599579456
1.955335803
2.224483532
2.654979763
2.660162929
2.833679492
3.139042306
3.221929804
3.296374071
3.365635778
1.170151271
1.53015967
1.795000075
2.107797203
2.196611106
2.415448847
2.649529446
2.686644486
2.874029176
3.06272599
0.9307199746
1.196211164
1.456209215
1.600024351
1.786095431
1.931648636
2.163853583
2.361072148
2.574857525
2.627007514
0.7847738366
0.9624065304
1.108616224
1.339054575
1.408512456
1.590747651
1.78695184
1.947968818
2.149877048
2.354535683
0.6951566253
0.846245131
0.8668134584
1.087387103
1.171243053
1.284092683
1.446333327
1.622725596
1.795862255
1.941686887
0.6097458487
0.6925397704
0.7539255104
0.8564537873
0.9881065468
1.117683898
1.153635372
1.332670728
1.53479291
1.635573482
0.5594514309
0.6138492179
0.6854991248
0.7206014476
0.7545058504
0.9340660615
1.015203652
1.138408872
1.27010607
1.350196992
0.5346900224
0.5835926021
0.6343205802
0.6811398051
0.7175381166
0.8072458653
0.8723398713
0.995081273
1.07301349
1.116600918
0.4855591856
0.5247141161
0.5633678535
0.6113365621
0.6281600509
0.6620943268
0.7417700694
0.8243226788
0.8811276175
0.9501411659
0.478918675
0.4923393437
0.5392583327
0.5318603659
0.5444547008
0.6100007752
0.6237148081
0.7007405751
0.7525153934
0.8599736737
0.4552828948
0.4507440124
0.4884111406
0.5178067572
0.52396634
0.5637340652
0.587535979
0.6289252863
0.6654013476
0.7130475012
0.44482502
0.4521996373
0.4600887549
0.4693911603
0.5024023938
0.5241516826
0.5361329967
0.575224653
0.5987358313
0.6331642717
0.4282457857
0.4643574937
0.4561020167
0.4591229456
0.4755354334
0.480793518
0.5310276466
0.5236439896
0.5548452638
0.5896069091
0.437546646
0.4465121273
0.4450475565
0.4365237441
0.4273744688
0.446066084
0.4967690405
0.5046619715
0.5065615739
0.5435358461
0.4303443584
0.4318038286
0.4341085256
0.4417695208
0.4529045523
0.4554702894
0.472238187
0.4738898342
0.4729552392
0.5016279108
0.4234858418
0.4361729739
0.4395401282
0.4389783092
0.4463601668
0.4525721483
0.4624515431
0.469431977
0.4624747705
0.4779431557
0.4402591549
0.4353773711
0.4294758376
0.4287724896
0.4320353153
0.4392876043
0.4425466691
0.4553820261
0.4774317012
0.4656292838
0.4218389883
0.422926981
0.4211357942
0.4183112745
0.4324086799
0.4392881146
0.4368596266
0.4453037219
0.4710631849
0.4537885675
0.4112699786
0.4097477983
0.4124029477
0.4194423591
)
;

boundaryField
{
    flow
    {
        type            calculated;
        value           nonuniform List<scalar> 
42
(
0.2969242449
0.299716588
0.3160868807
0.3079522386
0.3049794984
0.3115367228
0.3069741433
0.3127570315
0.3099259147
0.3150232701
0.3155394779
0.3173185894
0.3148847043
0.3082043466
0.3080971272
0.3128486428
0.3119752435
0.3167792056
0.3063721044
0.3074847707
0.3069917849
0.3120267558
0.2969242449
0.3970338767
0.3912640101
0.402721496
0.4038848887
0.4048046727
0.4053685526
0.4113381748
0.399928386
0.3948488946
0.3924229775
0.4000826348
0.3880576976
0.4089517485
0.4189090109
0.4349814881
0.4801820179
0.6030931815
1.029612597
2.472358217
)
;
    }
    obstacle
    {
        type            calculated;
        value           nonuniform List<scalar> 10(3.628956006 3.756116476 3.637635828 3.413667868 3.608742742 3.364172725 3.40457592 3.44074717 3.251401537 3.397035999);
    }
    frontAndBack
    {
        type            empty;
    }
    procBoundary0to1
    {
        type            processor;
        value           nonuniform List<scalar> 
21
(
4.005237009
3.896088694
3.595399518
3.299376972
3.104008269
2.720266682
2.400017442
2.132459105
1.819088994
1.475195022
1.244058921
1.088410798
0.8930496769
0.786770706
0.6922613945
0.634418475
0.5591498623
0.5332732701
0.5028511812
0.4949473142
0.4667387149
)
;
    }
    procBoundary0to2
    {
        type            processor;
        value           nonuniform List<scalar> 
31
(
0.3026883236
0.4089740761
0.4119815578
0.4105158936
0.4095988411
0.4100653842
0.4126904154
0.4136746425
0.4126730133
0.4101056349
0.409747309
0.4172101848
0.42075752
0.4136279735
0.4126524592
0.4074756545
0.4084827798
0.4066652337
0.4059444445
0.4049364102
0.4295790376
0.4431983247
0.424569176
0.4339570808
0.4370791024
0.4521865403
0.4030485176
0.4160016775
0.4248935424
0.4295790376
0.4220334555
)
;
    }
}


// ************************************************************************* //
