/*--------------------------------*- C++ -*----------------------------------*\
| =========                 |                                                 |
| \\      /  F ield         | OpenFOAM: The Open Source CFD Toolbox           |
|  \\    /   O peration     | Version:  2406                                  |
|   \\  /    A nd           | Website:  www.openfoam.com                      |
|    \\/     M anipulation  |                                                 |
\*---------------------------------------------------------------------------*/
FoamFile
{
    version     2.0;
    format      ascii;
    arch        "LSB;label=32;scalar=64";
    class       volScalarField;
    location    "0.002";
    object      rhoMMean;
}
// * * * * * * * * * * * * * * * * * * * * * * * * * * * * * * * * * * * * * //

dimensions      [1 -3 0 0 0 0 0];

internalField   nonuniform List<scalar> 
654
(
3.636894296e-06
4.696463198e-06
4.727801626e-06
4.753317379e-06
4.753591476e-06
4.75310056e-06
4.733188995e-06
4.775391098e-06
4.696885173e-06
4.659809674e-06
4.65592067e-06
4.697287154e-06
4.620716566e-06
4.675566469e-06
4.668719682e-06
4.689959448e-06
4.716325817e-06
4.783283659e-06
5.039982255e-06
6.516521808e-06
3.651692587e-06
4.752073115e-06
4.854712647e-06
4.768045063e-06
4.772124227e-06
4.823935741e-06
4.823594371e-06
4.837980684e-06
4.830501767e-06
4.824758031e-06
4.811560371e-06
4.813914351e-06
4.847334329e-06
4.828046563e-06
4.793521868e-06
4.801046399e-06
4.883012686e-06
5.052695663e-06
5.382919793e-06
6.220728438e-06
3.754345449e-06
4.836119286e-06
4.857764365e-06
4.840963461e-06
4.845595816e-06
4.879268229e-06
4.899611766e-06
4.836531264e-06
4.871121567e-06
4.887932467e-06
4.919474385e-06
4.905779144e-06
4.864745701e-06
4.875947413e-06
4.956608827e-06
4.98407658e-06
4.929292286e-06
4.98884515e-06
5.174358862e-06
5.662770165e-06
3.762708931e-06
4.774686695e-06
4.784635812e-06
4.758825968e-06
4.721135001e-06
4.661862898e-06
4.701847235e-06
4.748051229e-06
4.723287158e-06
4.717336599e-06
4.701426926e-06
4.72612039e-06
4.82039644e-06
4.791976848e-06
4.783463821e-06
4.785880077e-06
4.8650098e-06
5.015865934e-06
5.151170429e-06
5.51329451e-06
3.707102347e-06
4.742741131e-06
4.766540032e-06
4.813228277e-06
4.845948851e-06
4.825677587e-06
4.779250109e-06
4.758492928e-06
4.723214885e-06
4.77225211e-06
4.778826467e-06
4.787682531e-06
4.802558094e-06
4.832711201e-06
4.87857549e-06
4.955362897e-06
4.99582482e-06
5.056754832e-06
5.13761307e-06
5.356955405e-06
3.736562714e-06
4.770328437e-06
4.825116064e-06
4.769647361e-06
4.756165608e-06
4.78722494e-06
4.793587477e-06
4.839166005e-06
4.914964915e-06
4.908193734e-06
4.867869692e-06
4.854715979e-06
4.800084562e-06
4.789217555e-06
4.805824966e-06
4.788038898e-06
4.825665923e-06
4.934469501e-06
5.014310291e-06
5.100357408e-06
3.70121573e-06
4.800276388e-06
4.800126842e-06
4.75676108e-06
4.810578539e-06
4.816043181e-06
4.828573095e-06
4.772547868e-06
4.808860021e-06
4.800017287e-06
4.827957628e-06
4.838547206e-06
4.910208009e-06
4.892563156e-06
4.898154015e-06
4.884877417e-06
4.939039579e-06
4.906872197e-06
4.973206241e-06
5.08540624e-06
3.726474049e-06
4.772630139e-06
4.784596864e-06
4.847263722e-06
4.842888801e-06
4.842399552e-06
4.890601158e-06
4.903953362e-06
4.913569439e-06
4.832985298e-06
4.779392989e-06
4.759256274e-06
4.747980622e-06
4.752693581e-06
4.832531039e-06
4.86186019e-06
4.844760197e-06
4.867239228e-06
4.891455106e-06
4.951695711e-06
3.704538212e-06
4.822894966e-06
4.847316e-06
4.813426768e-06
4.779956178e-06
4.741641413e-06
4.801271549e-06
4.752014171e-06
4.749740796e-06
4.795529479e-06
4.900037074e-06
4.857698756e-06
4.823868467e-06
4.763411043e-06
4.684896787e-06
4.711755738e-06
4.760596139e-06
4.826439267e-06
4.822632534e-06
4.832373163e-06
3.73131156e-06
4.733681577e-06
4.83363409e-06
4.862954909e-06
4.897128236e-06
4.877210007e-06
4.847327664e-06
4.822094338e-06
4.816194392e-06
4.787837075e-06
4.796271164e-06
4.785768855e-06
4.826166836e-06
4.808799412e-06
4.817927906e-06
4.850367718e-06
4.81156537e-06
4.739835625e-06
4.79746315e-06
4.871953853e-06
3.735315117e-06
4.77668764e-06
4.793707029e-06
4.741695357e-06
4.758988842e-06
4.673908561e-06
4.694519529e-06
4.722451538e-06
4.76909417e-06
4.760858572e-06
4.767720355e-06
4.776638695e-06
4.83598807e-06
4.815513316e-06
4.825186671e-06
4.756354101e-06
4.837420828e-06
4.85353399e-06
4.918820594e-06
4.939581107e-06
3.718796642e-06
4.780374821e-06
4.7557403e-06
4.731393205e-06
4.746954843e-06
4.825183338e-06
4.832381494e-06
4.798001345e-06
4.807477875e-06
4.767508534e-06
4.787075395e-06
4.733397484e-06
4.682752961e-06
4.725360376e-06
4.749226552e-06
4.786379324e-06
4.817702755e-06
4.817568206e-06
4.782300161e-06
4.824297107e-06
3.745623934e-06
4.806514372e-06
4.851129398e-06
4.83494063e-06
4.79004151e-06
4.749715802e-06
4.750822185e-06
4.73173291e-06
4.706215491e-06
4.75566636e-06
4.733454761e-06
4.741961122e-06
4.839018127e-06
4.857094953e-06
4.828115504e-06
4.881317496e-06
4.848326158e-06
4.853442764e-06
4.877372882e-06
4.866781637e-06
3.710421496e-06
4.754904681e-06
4.796610868e-06
4.840610427e-06
4.842128788e-06
4.860459716e-06
4.821107508e-06
4.789695141e-06
4.742729467e-06
4.719421482e-06
4.708090219e-06
4.732992171e-06
4.678204543e-06
4.694659077e-06
4.741966121e-06
4.690366427e-06
4.695419091e-06
4.755531812e-06
4.725715077e-06
4.748743968e-06
3.671607484e-06
4.803612199e-06
4.79032727e-06
4.785624309e-06
4.788882849e-06
4.80942321e-06
4.843186225e-06
4.88585425e-06
4.885307723e-06
4.903566378e-06
4.884959687e-06
4.866136178e-06
4.905086405e-06
4.827486707e-06
4.794831741e-06
4.724963395e-06
4.723508976e-06
4.692242821e-06
4.615685564e-06
4.634502409e-06
3.774810205e-06
4.835833526e-06
4.857345722e-06
4.853271557e-06
4.814390271e-06
4.831964517e-06
4.874084349e-06
4.846974629e-06
4.893726816e-06
4.802013234e-06
4.813710862e-06
4.732501255e-06
4.661186821e-06
4.662917003e-06
4.704413036e-06
4.746053615e-06
4.777733414e-06
4.792800803e-06
4.843907915e-06
4.823909082e-06
3.713254728e-06
4.734223105e-06
4.786370992e-06
4.82822006e-06
4.821307665e-06
4.823111786e-06
4.768197941e-06
4.755878181e-06
4.729661358e-06
4.769502815e-06
4.843368054e-06
4.872895695e-06
4.954441674e-06
4.988539395e-06
4.940324459e-06
4.910658935e-06
4.916205847e-06
4.894560769e-06
4.833704697e-06
4.801745803e-06
3.740157626e-06
4.781116506e-06
4.788997403e-06
4.77239499e-06
4.767616423e-06
4.788086178e-06
4.827243227e-06
4.86528223e-06
4.863415833e-06
4.828479161e-06
4.817006684e-06
4.801315496e-06
4.839712532e-06
4.783830185e-06
4.785625975e-06
4.805330717e-06
4.849748919e-06
4.837350221e-06
4.829188562e-06
4.857480271e-06
3.737956524e-06
4.803751747e-06
4.8134301e-06
4.760169165e-06
4.756433039e-06
4.772485592e-06
4.758847629e-06
4.757335933e-06
4.807698027e-06
4.806236943e-06
4.830989351e-06
4.835270337e-06
4.748868519e-06
4.811542042e-06
4.782423046e-06
4.793624759e-06
4.769632365e-06
4.740518367e-06
4.81992052e-06
4.773778803e-06
3.707025075e-06
4.832662255e-06
4.924167349e-06
4.954821369e-06
4.95343589e-06
4.963872591e-06
4.935446334e-06
4.925756317e-06
4.897124903e-06
4.911857586e-06
4.892082237e-06
4.866973463e-06
4.983247626e-06
4.970721044e-06
4.970162854e-06
4.950241292e-06
4.984532505e-06
4.971516674e-06
4.959911314e-06
5.001005367e-06
3.697908244e-06
4.739627137e-06
4.748481535e-06
4.772546202e-06
4.740592307e-06
4.750907788e-06
4.752490091e-06
4.699849622e-06
4.747706525e-06
4.769499482e-06
4.82740277e-06
4.827180952e-06
4.819633094e-06
4.796399048e-06
4.860940634e-06
4.886538658e-06
4.892080571e-06
4.843115618e-06
4.867873024e-06
4.866352997e-06
3.709375722e-06
4.786927516e-06
4.788862854e-06
4.691681298e-06
4.744252827e-06
4.745149056e-06
4.756424708e-06
4.844275946e-06
4.860333498e-06
4.880248395e-06
4.819378992e-06
4.81592696e-06
4.767651414e-06
4.776431873e-06
4.748209105e-06
4.763711799e-06
4.76481485e-06
4.770893292e-06
4.808256218e-06
4.768899011e-06
1.149917408e-05
1.335484949e-05
1.359013593e-05
1.426137934e-05
1.463293273e-05
1.473023577e-05
1.482380321e-05
1.486066697e-05
1.43534887e-05
1.490837247e-05
7.856240118e-06
9.504774486e-06
1.043565302e-05
1.122486126e-05
1.193559343e-05
1.225645443e-05
1.244434269e-05
1.289536137e-05
1.292243945e-05
1.266774895e-05
6.516981392e-06
7.531082438e-06
8.5689195e-06
9.368763184e-06
1.007333165e-05
1.054808173e-05
1.105144362e-05
1.183565157e-05
1.209158532e-05
1.223927606e-05
6.023352045e-06
6.609673866e-06
7.220834241e-06
8.157466229e-06
8.566661699e-06
9.225143344e-06
1.008713998e-05
1.061650901e-05
1.086347362e-05
1.116989264e-05
5.615027151e-06
6.110180148e-06
6.61298675e-06
7.274082264e-06
7.690258323e-06
8.216522203e-06
8.844589557e-06
9.206301534e-06
9.84866011e-06
1.053842777e-05
5.284121274e-06
5.636454643e-06
6.004910177e-06
6.264571749e-06
6.715339891e-06
7.163378349e-06
7.77146658e-06
8.338490995e-06
8.89108572e-06
9.307916086e-06
5.181190286e-06
5.388678494e-06
5.663436203e-06
5.999512713e-06
6.194725634e-06
6.527099273e-06
7.009698392e-06
7.412367518e-06
7.980938831e-06
8.560727706e-06
5.089559887e-06
5.197461716e-06
5.184401691e-06
5.487652939e-06
5.708812001e-06
5.945161959e-06
6.33354754e-06
6.777006083e-06
7.213343893e-06
7.659267321e-06
4.889571958e-06
5.073122526e-06
5.187915628e-06
5.278863667e-06
5.553861641e-06
5.752815943e-06
5.77924958e-06
6.116170263e-06
6.603630293e-06
6.985991943e-06
4.886524471e-06
4.939252221e-06
5.07585098e-06
5.09997508e-06
5.145767126e-06
5.451373904e-06
5.732966586e-06
5.92346648e-06
6.051749701e-06
6.246788049e-06
5.024983598e-06
4.981130608e-06
5.061646452e-06
5.183976424e-06
5.249340208e-06
5.261307309e-06
5.295577567e-06
5.52230079e-06
5.751200108e-06
5.928718638e-06
4.803934958e-06
4.917205712e-06
4.916690371e-06
4.883855413e-06
4.939113056e-06
5.063669256e-06
5.24224917e-06
5.348446552e-06
5.39258737e-06
5.577316748e-06
4.875492258e-06
4.88887858e-06
4.903377381e-06
4.898796372e-06
4.91222553e-06
4.962986944e-06
5.028649301e-06
5.171214784e-06
5.311668601e-06
5.535886161e-06
4.756288321e-06
4.753839147e-06
4.79739585e-06
4.915818081e-06
4.93418459e-06
4.981853605e-06
4.992069811e-06
5.047718606e-06
5.102902478e-06
5.142246335e-06
4.677596631e-06
4.757065476e-06
4.798860413e-06
4.823949279e-06
4.838778597e-06
4.936239813e-06
4.950820379e-06
4.983852022e-06
4.992181129e-06
5.041533527e-06
4.896352096e-06
4.943238053e-06
4.876197016e-06
4.827422208e-06
4.845112405e-06
4.784881037e-06
4.867958998e-06
4.900100387e-06
4.940845488e-06
5.046762011e-06
4.792184136e-06
4.779422586e-06
4.728266033e-06
4.743660042e-06
4.715524264e-06
4.783490582e-06
4.875743265e-06
4.915005989e-06
4.896039157e-06
4.96575269e-06
4.830072933e-06
4.814151825e-06
4.843319782e-06
4.861552262e-06
4.938501023e-06
4.864053865e-06
4.871634674e-06
4.88447423e-06
4.908083684e-06
5.00193339e-06
4.811591125e-06
4.889405562e-06
4.912992063e-06
4.916366101e-06
4.954883949e-06
4.955405087e-06
4.970335098e-06
4.920706685e-06
4.877322526e-06
4.896195426e-06
4.910883695e-06
4.928945789e-06
4.88120936e-06
4.861941273e-06
4.857602805e-06
4.836829558e-06
4.893941354e-06
4.941941631e-06
4.900976051e-06
4.949427625e-06
4.843332445e-06
4.843080627e-06
4.830882366e-06
4.832045738e-06
4.828291785e-06
4.828438305e-06
4.789422597e-06
4.823254962e-06
4.878223755e-06
4.831911786e-06
4.807066677e-06
4.768677975e-06
4.731660063e-06
4.768196129e-06
)
;

boundaryField
{
    flow
    {
        type            calculated;
        value           nonuniform List<scalar> 
42
(
3.636894296e-06
3.651692587e-06
3.754345449e-06
3.762708931e-06
3.707102347e-06
3.736562714e-06
3.70121573e-06
3.726474049e-06
3.704538212e-06
3.73131156e-06
3.735315117e-06
3.718796642e-06
3.745623934e-06
3.710421496e-06
3.671607484e-06
3.774810205e-06
3.713254728e-06
3.740157626e-06
3.737956524e-06
3.707025075e-06
3.697908244e-06
3.709375722e-06
3.636894296e-06
4.696463198e-06
4.727801626e-06
4.753317379e-06
4.753591476e-06
4.75310056e-06
4.733188995e-06
4.775391098e-06
4.696885173e-06
4.659809674e-06
4.65592067e-06
4.697287154e-06
4.620716566e-06
4.675566469e-06
4.668719682e-06
4.689959448e-06
4.716325817e-06
4.783283659e-06
5.039982255e-06
6.516521808e-06
)
;
    }
    obstacle
    {
        type            calculated;
        value           nonuniform List<scalar> 10(6.501946566e-24 7.003450633e-24 6.946414072e-24 6.617179515e-24 6.866773209e-24 7.405707873e-24 6.8913554e-24 6.873818824e-24 6.628644576e-24 6.689731674e-24);
    }
    frontAndBack
    {
        type            empty;
    }
    procBoundary0to1
    {
        type            processor;
        value           nonuniform List<scalar> 
21
(
1.477912314e-05
1.313220777e-05
1.22212002e-05
1.112330006e-05
1.084427728e-05
9.747392064e-06
8.854515567e-06
8.206468783e-06
7.460980799e-06
6.556912037e-06
6.163403896e-06
5.864603858e-06
5.582424592e-06
5.237375699e-06
5.220188451e-06
5.052905312e-06
4.983305925e-06
5.078452403e-06
4.947502575e-06
4.989807494e-06
4.809582309e-06
)
;
    }
    procBoundary0to2
    {
        type            processor;
        value           nonuniform List<scalar> 
31
(
3.699628429e-06
4.739075612e-06
4.831902242e-06
4.796824355e-06
4.819237779e-06
4.811773858e-06
4.809915792e-06
4.764742576e-06
4.725524918e-06
4.730488646e-06
4.727371319e-06
4.789836354e-06
4.8004226e-06
4.782370767e-06
4.805342381e-06
4.740525032e-06
4.719301929e-06
4.689357311e-06
4.637261702e-06
4.606410857e-06
4.848422119e-06
4.90218452e-06
4.881065328e-06
4.910889004e-06
4.929841482e-06
4.951444679e-06
4.667509572e-06
4.72098409e-06
4.868611347e-06
4.848422119e-06
4.835508391e-06
)
;
    }
}


// ************************************************************************* //
