/*--------------------------------*- C++ -*----------------------------------*\
| =========                 |                                                 |
| \\      /  F ield         | OpenFOAM: The Open Source CFD Toolbox           |
|  \\    /   O peration     | Version:  2406                                  |
|   \\  /    A nd           | Website:  www.openfoam.com                      |
|    \\/     M anipulation  |                                                 |
\*---------------------------------------------------------------------------*/
FoamFile
{
    version     2.0;
    format      ascii;
    arch        "LSB;label=32;scalar=64";
    class       volScalarField;
    location    "0.002";
    object      rhoM;
}
// * * * * * * * * * * * * * * * * * * * * * * * * * * * * * * * * * * * * * //

dimensions      [1 -3 0 0 0 0 0];

internalField   nonuniform List<scalar> 
654
(
3.942947953e-06
5.395700685e-06
2.559135888e-06
5.118271776e-06
4.565080198e-06
5.049331109e-06
6.01783293e-06
5.118271776e-06
2.905505464e-06
4.358258196e-06
6.639965176e-06
7.470585662e-06
4.01188862e-06
5.395700685e-06
3.942947953e-06
2.490195221e-06
3.942947953e-06
6.571024508e-06
5.602522687e-06
4.496139531e-06
1.937003643e-06
4.565080198e-06
5.948892263e-06
5.395700685e-06
4.980390442e-06
3.389756375e-06
6.571024508e-06
3.942947953e-06
4.911449774e-06
5.53358202e-06
4.496139531e-06
6.571024508e-06
4.01188862e-06
6.01783293e-06
4.980390442e-06
4.634020865e-06
4.496139531e-06
8.439087484e-06
4.427198864e-06
4.01188862e-06
2.974446132e-06
5.53358202e-06
5.464641352e-06
6.502083841e-06
5.049331109e-06
4.358258196e-06
7.124216086e-06
2.559135888e-06
3.389756375e-06
5.948892263e-06
5.118271776e-06
4.496139531e-06
6.01783293e-06
6.01783293e-06
4.149769955e-06
4.911449774e-06
5.049331109e-06
4.496139531e-06
6.571024508e-06
6.917394084e-06
4.01188862e-06
4.980390442e-06
2.490195221e-06
3.458697042e-06
4.427198864e-06
4.01188862e-06
4.01188862e-06
6.502083841e-06
3.596578377e-06
7.055275419e-06
6.986334752e-06
4.496139531e-06
2.490195221e-06
7.055275419e-06
5.671463354e-06
4.358258196e-06
6.01783293e-06
6.986334752e-06
3.52763771e-06
7.124216086e-06
4.496139531e-06
4.980390442e-06
3.52763771e-06
5.464641352e-06
6.571024508e-06
1.521693399e-06
4.634020865e-06
4.980390442e-06
1.452752732e-06
6.848453417e-06
6.986334752e-06
3.389756375e-06
5.53358202e-06
3.112327466e-06
6.502083841e-06
4.01188862e-06
5.049331109e-06
6.433143174e-06
7.608466997e-06
6.433143174e-06
4.496139531e-06
4.358258196e-06
8.092717908e-06
2.628076555e-06
3.942947953e-06
5.326760018e-06
2.905505464e-06
5.53358202e-06
8.923338395e-06
5.948892263e-06
5.464641352e-06
2.974446132e-06
3.942947953e-06
4.496139531e-06
7.401644995e-06
5.53358202e-06
3.043386799e-06
3.874007286e-06
4.634020865e-06
2.074884977e-06
3.458697042e-06
4.427198864e-06
7.124216086e-06
4.496139531e-06
5.811010928e-06
3.942947953e-06
5.464641352e-06
4.980390442e-06
5.602522687e-06
4.980390442e-06
4.149769955e-06
6.295261839e-06
6.01783293e-06
4.080829287e-06
3.458697042e-06
2.974446132e-06
3.043386799e-06
6.01783293e-06
2.074884977e-06
7.677407664e-06
3.043386799e-06
5.602522687e-06
4.427198864e-06
3.596578377e-06
5.879951596e-06
5.326760018e-06
5.049331109e-06
5.187212443e-06
4.634020865e-06
2.00594431e-06
3.52763771e-06
3.942947953e-06
3.942947953e-06
5.671463354e-06
5.049331109e-06
6.086773598e-06
2.974446132e-06
3.942947953e-06
2.974446132e-06
6.708905843e-06
2.490195221e-06
4.427198864e-06
2.421254554e-06
4.427198864e-06
7.677407664e-06
2.974446132e-06
4.980390442e-06
8.02377724e-06
2.00594431e-06
4.496139531e-06
5.811010928e-06
2.974446132e-06
5.464641352e-06
2.490195221e-06
4.358258196e-06
4.911449774e-06
3.942947953e-06
3.043386799e-06
5.464641352e-06
9.685018214e-07
5.049331109e-06
4.980390442e-06
4.496139531e-06
5.53358202e-06
5.948892263e-06
4.01188862e-06
4.01188862e-06
3.043386799e-06
5.395700685e-06
6.639965176e-06
2.490195221e-06
2.974446132e-06
6.986334752e-06
5.602522687e-06
4.080829287e-06
2.974446132e-06
5.049331109e-06
3.942947953e-06
3.458697042e-06
4.358258196e-06
3.043386799e-06
4.080829287e-06
3.874007286e-06
3.665519044e-06
7.401644995e-06
4.702961533e-06
4.358258196e-06
8.161658575e-06
6.433143174e-06
6.986334752e-06
2.074884977e-06
5.879951596e-06
7.401644995e-06
2.905505464e-06
2.974446132e-06
3.942947953e-06
1.590634067e-06
5.464641352e-06
5.049331109e-06
4.496139531e-06
4.496139531e-06
4.980390442e-06
4.496139531e-06
4.565080198e-06
3.874007286e-06
3.596578377e-06
4.496139531e-06
5.948892263e-06
4.427198864e-06
3.874007286e-06
4.496139531e-06
4.911449774e-06
4.01188862e-06
4.702961533e-06
5.740404021e-06
6.502083841e-06
6.917394084e-06
4.980390442e-06
3.874007286e-06
4.496139531e-06
4.496139531e-06
3.52763771e-06
4.427198864e-06
8.992279062e-06
4.01188862e-06
2.00594431e-06
5.049331109e-06
5.395700685e-06
6.502083841e-06
3.52763771e-06
5.602522687e-06
7.193156754e-06
3.596578377e-06
3.942947953e-06
5.326760018e-06
5.948892263e-06
6.639965176e-06
4.01188862e-06
4.427198864e-06
5.464641352e-06
4.565080198e-06
4.358258196e-06
2.490195221e-06
4.01188862e-06
5.879951596e-06
5.395700685e-06
5.118271776e-06
5.049331109e-06
4.980390442e-06
7.885895906e-06
4.496139531e-06
3.389756375e-06
4.496139531e-06
3.458697042e-06
5.395700685e-06
5.118271776e-06
3.942947953e-06
7.53952633e-06
7.816955239e-06
4.01188862e-06
3.112327466e-06
5.464641352e-06
4.565080198e-06
7.53952633e-06
3.52763771e-06
4.980390442e-06
5.395700685e-06
3.665519044e-06
4.911449774e-06
3.942947953e-06
5.464641352e-06
4.980390442e-06
2.490195221e-06
3.942947953e-06
4.911449774e-06
4.080829287e-06
6.917394084e-06
8.230599242e-06
4.358258196e-06
8.508028151e-06
4.01188862e-06
3.458697042e-06
5.395700685e-06
3.389756375e-06
6.01783293e-06
5.464641352e-06
4.565080198e-06
3.52763771e-06
2.490195221e-06
4.980390442e-06
4.427198864e-06
6.502083841e-06
4.496139531e-06
4.080829287e-06
4.980390442e-06
4.218710622e-06
4.980390442e-06
4.634020865e-06
3.52763771e-06
4.980390442e-06
4.080829287e-06
6.086773598e-06
5.602522687e-06
6.502083841e-06
9.685018214e-07
6.708905843e-06
2.490195221e-06
5.326760018e-06
3.874007286e-06
6.571024508e-06
1.937003643e-06
5.464641352e-06
2.974446132e-06
6.502083841e-06
6.086773598e-06
2.490195221e-06
5.53358202e-06
6.01783293e-06
3.458697042e-06
4.911449774e-06
2.974446132e-06
5.948892263e-06
4.01188862e-06
4.980390442e-06
4.080829287e-06
4.496139531e-06
4.911449774e-06
7.055275419e-06
4.080829287e-06
3.458697042e-06
5.671463354e-06
3.52763771e-06
5.049331109e-06
5.811010928e-06
5.049331109e-06
4.080829287e-06
7.885895906e-06
3.458697042e-06
7.055275419e-06
3.458697042e-06
3.52763771e-06
4.496139531e-06
4.496139531e-06
5.602522687e-06
5.879951596e-06
5.049331109e-06
4.911449774e-06
4.565080198e-06
2.490195221e-06
6.01783293e-06
6.364202506e-06
4.496139531e-06
3.874007286e-06
4.496139531e-06
5.464641352e-06
4.565080198e-06
4.980390442e-06
4.980390442e-06
4.496139531e-06
5.049331109e-06
2.559135888e-06
4.427198864e-06
2.421254554e-06
8.092717908e-06
6.433143174e-06
4.842509107e-06
2.074884977e-06
8.161658575e-06
4.496139531e-06
2.490195221e-06
2.00594431e-06
4.080829287e-06
7.470585662e-06
4.427198864e-06
6.986334752e-06
5.395700685e-06
4.01188862e-06
6.639965176e-06
2.490195221e-06
4.149769955e-06
5.464641352e-06
6.502083841e-06
6.502083841e-06
5.395700685e-06
4.496139531e-06
6.364202506e-06
4.080829287e-06
4.149769955e-06
5.602522687e-06
5.464641352e-06
5.53358202e-06
7.124216086e-06
6.502083841e-06
3.942947953e-06
4.980390442e-06
4.980390442e-06
2.559135888e-06
5.464641352e-06
7.193156754e-06
4.980390442e-06
4.080829287e-06
2.559135888e-06
3.458697042e-06
5.948892263e-06
3.52763771e-06
3.596578377e-06
5.326760018e-06
5.395700685e-06
5.118271776e-06
6.77951275e-06
2.00594431e-06
3.389756375e-06
5.049331109e-06
2.490195221e-06
4.980390442e-06
3.942947953e-06
8.714850153e-06
2.974446132e-06
9.54547064e-06
1.037442489e-06
1.145400893e-05
1.42579602e-05
1.386567595e-05
1.112681563e-05
1.677012127e-05
1.940443859e-05
9.916462143e-06
9.184827094e-06
1.475938744e-05
1.508792993e-05
1.006528951e-05
9.714850633e-06
1.541221664e-05
5.669356149e-06
1.07053203e-05
1.149905482e-05
1.302899201e-05
1.53092159e-05
1.659427856e-05
1.309047401e-05
6.594327043e-06
6.570009466e-06
8.163734319e-06
9.63841759e-06
1.020570431e-05
3.736933125e-06
1.360786458e-05
1.159133873e-05
1.211594146e-05
1.486678223e-05
5.205607627e-06
5.521729082e-06
7.46060717e-06
6.661621505e-06
7.70762432e-06
4.671599223e-06
1.26665428e-05
8.383827289e-06
9.765229048e-06
1.516164583e-05
6.525141895e-06
6.011038836e-06
4.011723977e-06
9.638417597e-06
8.991368831e-06
8.768418837e-06
7.817395204e-06
6.415022876e-06
9.545678883e-06
1.013292974e-05
4.442898844e-06
6.639670339e-06
8.163734319e-06
7.087121962e-06
9.064216054e-06
7.690490641e-06
5.790469374e-06
1.202904592e-05
1.174825572e-05
7.322817268e-06
7.98304646e-06
5.521729078e-06
7.178339126e-06
6.024224388e-06
5.495775963e-06
4.599968182e-06
8.396267783e-06
7.363095823e-06
5.947311254e-06
1.020664564e-05
2.984994279e-06
5.871717093e-06
6.545355157e-06
5.102591243e-06
4.99615996e-06
5.677896364e-06
7.238522625e-06
6.124388798e-06
8.003521324e-06
7.988042017e-06
7.080295232e-06
4.893097575e-06
5.067262357e-06
5.243855691e-06
6.137648213e-06
5.677896364e-06
6.731791165e-06
4.738608637e-06
3.230681886e-06
8.061757917e-06
4.026115807e-06
3.425168305e-06
5.137405545e-06
6.165488829e-06
6.137648209e-06
1.250535197e-05
8.902999239e-06
6.19529122e-06
4.25878692e-06
5.843154299e-06
3.887745507e-06
8.037938738e-06
5.207548727e-06
5.173223469e-06
4.068056097e-06
5.246378837e-06
4.704865344e-06
4.37355994e-06
6.388180381e-06
6.805024308e-06
5.622390667e-06
6.639670343e-06
3.166615149e-06
6.165488825e-06
3.99692797e-06
7.330604168e-06
7.23852265e-06
6.197047357e-06
3.671551031e-06
4.807568411e-06
5.06723733e-06
5.521729093e-06
5.207548748e-06
3.047428303e-06
4.638800201e-06
5.174747786e-06
4.12599276e-06
4.811267116e-06
6.314996963e-06
6.655810854e-06
5.484020351e-06
5.102080163e-06
5.067262322e-06
4.251590316e-06
3.63956823e-06
4.0968196e-06
6.948214501e-06
9.039510048e-06
4.331970293e-06
4.733852456e-06
5.41483525e-06
4.962758461e-06
5.137405542e-06
4.606458582e-06
6.637264256e-06
4.671599245e-06
5.283737933e-06
8.383827336e-06
3.744734414e-06
8.505834972e-06
4.928867026e-06
3.005519426e-06
2.956185612e-06
4.606458582e-06
6.066520087e-06
4.025188584e-06
4.125992774e-06
9.549875714e-06
4.331970293e-06
2.218603618e-06
5.622390659e-06
4.543109545e-06
7.530750299e-06
1.03464469e-05
3.781824484e-06
4.0968196e-06
5.139455687e-06
2.6244872e-06
3.230681895e-06
7.617680863e-06
2.429840939e-06
4.893097588e-06
5.067262391e-06
5.102591229e-06
5.709160304e-06
3.59367103e-06
5.718328226e-06
4.81126715e-06
5.87412788e-06
3.254189527e-06
2.915809146e-06
7.268301862e-06
4.926975987e-06
4.1103259e-06
6.20877634e-06
3.162153504e-06
3.184670985e-06
1.006024151e-05
3.817917778e-06
5.843154341e-06
5.067237323e-06
6.570009484e-06
3.026328777e-06
4.110325872e-06
6.279904467e-06
4.096819628e-06
4.704865354e-06
6.85273008e-06
5.87412788e-06
2.071171818e-06
3.470962463e-06
5.452068183e-06
8.586288732e-06
3.047428314e-06
4.49654397e-06
9.846346996e-06
3.691402441e-06
5.32163292e-06
5.213708579e-06
5.325361345e-06
4.928867026e-06
2.446548777e-06
4.362439899e-06
3.472928773e-06
)
;

boundaryField
{
    flow
    {
        type            zeroGradient;
    }
    obstacle
    {
        type            calculated;
        value           nonuniform List<scalar> 10(2.967429864e-24 2.610240768e-24 1e-300 5.35396214e-24 8.699945831e-24 1.028452355e-23 1e-300 1.99320039e-23 1.782779795e-24 2.685949727e-24);
    }
    frontAndBack
    {
        type            empty;
    }
    procBoundary0to1
    {
        type            processor;
        value           nonuniform List<scalar> 
21
(
1.557159579e-05
1.415534356e-05
1.288939846e-05
4.917062665e-06
7.898079577e-06
7.972335805e-06
1.080304556e-05
1.005689398e-05
1.087730179e-05
6.481827337e-06
7.673516217e-06
1.117432668e-06
5.737470449e-06
4.842806435e-06
3.725373801e-06
4.321218212e-06
3.79962999e-06
4.694294037e-06
4.84280647e-06
4.694294003e-06
4.917062686e-06
)
;
    }
    procBoundary0to2
    {
        type            processor;
        value           nonuniform List<scalar> 
31
(
2.905505464e-06
5.53358202e-06
3.942947953e-06
2.559135888e-06
4.427198864e-06
4.634020865e-06
6.086773598e-06
7.401644995e-06
4.911449774e-06
4.496139531e-06
3.874007286e-06
5.53358202e-06
3.52763771e-06
5.809344689e-06
2.905505464e-06
4.080829287e-06
8.439087484e-06
4.358258196e-06
4.911449774e-06
2.421254554e-06
4.852184604e-06
5.246378826e-06
4.777006444e-06
3.134852914e-06
4.772839451e-06
4.216059536e-06
6.663512183e-06
5.591389966e-06
5.63010314e-06
4.852184604e-06
2.621927837e-06
)
;
    }
}


// ************************************************************************* //
