/*--------------------------------*- C++ -*----------------------------------*\
| =========                 |                                                 |
| \\      /  F ield         | OpenFOAM: The Open Source CFD Toolbox           |
|  \\    /   O peration     | Version:  2406                                  |
|   \\  /    A nd           | Website:  www.openfoam.com                      |
|    \\/     M anipulation  |                                                 |
\*---------------------------------------------------------------------------*/
FoamFile
{
    version     2.0;
    format      ascii;
    arch        "LSB;label=32;scalar=64";
    class       volScalarField;
    location    "0.002";
    object      rhoNMean;
}
// * * * * * * * * * * * * * * * * * * * * * * * * * * * * * * * * * * * * * //

dimensions      [0 -3 0 0 0 0 0];

internalField   nonuniform List<scalar> 
654
(
7.582432002e+19
9.792282394e+19
9.859973382e+19
9.907877773e+19
9.906836373e+19
9.901629374e+19
9.866221781e+19
9.958906364e+19
9.797489393e+19
9.720425808e+19
9.702722011e+19
9.790199595e+19
9.631906824e+19
9.744378003e+19
9.730839806e+19
9.777702797e+19
9.840186785e+19
9.97973436e+19
1.051709666e+20
1.359964009e+20
7.610549797e+19
9.905794973e+19
1.011303354e+20
9.934954168e+19
9.942243967e+19
1.005159095e+20
1.005367375e+20
1.008283294e+20
1.006200494e+20
1.004846675e+20
1.002972155e+20
1.003596995e+20
1.011199214e+20
1.007866734e+20
1.000160376e+20
1.000785215e+20
1.017760032e+20
1.053480046e+20
1.122316573e+20
1.297271741e+20
7.826119557e+19
1.008283294e+20
1.012448893e+20
1.009428834e+20
1.010261954e+20
1.016406213e+20
1.021092512e+20
1.008179154e+20
1.015677233e+20
1.019322132e+20
1.025882951e+20
1.023071171e+20
1.013594433e+20
1.015677233e+20
1.03296447e+20
1.039108728e+20
1.027653331e+20
1.039837708e+20
1.078265361e+20
1.179593562e+20
7.839657754e+19
9.949533765e+19
9.963071963e+19
9.903712174e+19
9.829772787e+19
9.711053209e+19
9.796447994e+19
9.891215376e+19
9.839145386e+19
9.825607188e+19
9.792282394e+19
9.843310985e+19
1.003701135e+20
9.983899959e+19
9.963071963e+19
9.965154762e+19
1.012865453e+20
1.043899168e+20
1.072433522e+20
1.148663988e+20
7.728227975e+19
9.890173976e+19
9.942243967e+19
1.003805275e+20
1.010782654e+20
1.006304634e+20
9.957864964e+19
9.911001972e+19
9.837062586e+19
9.935995568e+19
9.951616565e+19
9.971403161e+19
1.000472796e+20
1.006408774e+20
1.016197933e+20
1.03265205e+20
1.040879108e+20
1.052959346e+20
1.069621743e+20
1.115339194e+20
7.785504964e+19
9.940161167e+19
1.005679795e+20
9.945368166e+19
9.92141597e+19
9.987024158e+19
9.999520956e+19
1.009116414e+20
1.024112571e+20
1.023175311e+20
1.014948253e+20
1.011511633e+20
1.000993495e+20
9.982858559e+19
1.002139035e+20
9.97869296e+19
1.005575655e+20
1.02806989e+20
1.045773687e+20
1.063581624e+20
7.711565578e+19
1.000056236e+20
9.993272557e+19
9.905794973e+19
1.001930755e+20
1.003076295e+20
1.006304634e+20
9.948492365e+19
1.002243175e+20
1.001097635e+20
1.006617054e+20
1.009220554e+20
1.024112571e+20
1.020051112e+20
1.020467672e+20
1.017968312e+20
1.02931957e+20
1.022446331e+20
1.036192809e+20
1.059832585e+20
7.770925367e+19
9.956823564e+19
9.981817159e+19
1.011095074e+20
1.009116414e+20
1.008699854e+20
1.018072452e+20
1.020988372e+20
1.023071171e+20
1.006304634e+20
9.960989163e+19
9.914126172e+19
9.890173976e+19
9.905794973e+19
1.008075014e+20
1.014219273e+20
1.009741254e+20
1.014323413e+20
1.019738692e+20
1.03181893e+20
7.719896776e+19
1.004742535e+20
1.010053674e+20
1.003284575e+20
9.968278962e+19
9.892256776e+19
1.001930755e+20
9.912043372e+19
9.913084772e+19
1.000681075e+20
1.021821492e+20
1.012657173e+20
1.005263235e+20
9.92558157e+19
9.7589576e+19
9.827689988e+19
9.932871368e+19
1.006512914e+20
1.005575655e+20
1.006825334e+20
7.778215166e+19
9.87247018e+19
1.008075014e+20
1.013698573e+20
1.020988372e+20
1.017031052e+20
1.010782654e+20
1.006408774e+20
1.003909415e+20
9.981817159e+19
9.996396757e+19
9.981817159e+19
1.006721194e+20
1.002763875e+20
1.004534255e+20
1.011199214e+20
1.003284575e+20
9.883925577e+19
1.000889355e+20
1.015989653e+20
7.781339365e+19
9.950575165e+19
9.988065558e+19
9.882884178e+19
9.919333171e+19
9.742295204e+19
9.783951196e+19
9.833938387e+19
9.944326766e+19
9.92454017e+19
9.947450966e+19
9.963071963e+19
1.008699854e+20
1.004430115e+20
1.005783935e+20
9.909960573e+19
1.007762594e+20
1.010886794e+20
1.023800151e+20
1.02869473e+20
7.75530437e+19
9.971403161e+19
9.914126172e+19
9.864138981e+19
9.895380975e+19
1.005575655e+20
1.007346034e+20
1.000056236e+20
1.002034895e+20
9.944326766e+19
9.97973436e+19
9.86726318e+19
9.754792001e+19
9.842269585e+19
9.893298176e+19
9.975568761e+19
1.003388715e+20
1.003596995e+20
9.968278962e+19
1.006200494e+20
7.804250161e+19
1.002139035e+20
1.011407493e+20
1.007866734e+20
9.98077576e+19
9.897463775e+19
9.899546575e+19
9.861014782e+19
9.812068991e+19
9.911001972e+19
9.859973382e+19
9.876635779e+19
1.008491574e+20
1.013698573e+20
1.007866734e+20
1.019530412e+20
1.012865453e+20
1.013802713e+20
1.018593152e+20
1.015885513e+20
7.734476374e+19
9.908919173e+19
9.993272557e+19
1.008908134e+20
1.009012274e+20
1.012865453e+20
1.005054955e+20
9.97973436e+19
9.882884178e+19
9.836021186e+19
9.820400189e+19
9.87247018e+19
9.755833401e+19
9.784992596e+19
9.879759978e+19
9.773537198e+19
9.786033995e+19
9.913084772e+19
9.848517984e+19
9.893298176e+19
7.64804019e+19
1.001722475e+20
9.987024158e+19
9.97765156e+19
9.989106958e+19
1.002972155e+20
1.010470234e+20
1.018697292e+20
1.019009712e+20
1.022654611e+20
1.018801432e+20
1.014323413e+20
1.022862891e+20
1.007346034e+20
1.000160376e+20
9.852683583e+19
9.848517984e+19
9.782909796e+19
9.632948224e+19
9.673562816e+19
7.86256855e+19
1.007658454e+20
1.012136473e+20
1.011719913e+20
1.003180435e+20
1.007137754e+20
1.015573093e+20
1.010261954e+20
1.019530412e+20
1.000889355e+20
1.003805275e+20
9.86726318e+19
9.719384408e+19
9.723550007e+19
9.805820592e+19
9.892256776e+19
9.957864964e+19
9.981817159e+19
1.008179154e+20
1.003492855e+20
7.738641973e+19
9.866221781e+19
9.970361761e+19
1.005783935e+20
1.004638395e+20
1.005367375e+20
9.944326766e+19
9.914126172e+19
9.858931982e+19
9.941202567e+19
1.008908134e+20
1.014531693e+20
1.03108995e+20
1.037963189e+20
1.02775747e+20
1.022133912e+20
1.024112571e+20
1.019946972e+20
1.008179154e+20
1.001410055e+20
7.791753363e+19
9.960989163e+19
9.974527361e+19
9.939119767e+19
9.92558157e+19
9.965154762e+19
1.005054955e+20
1.012657173e+20
1.012344753e+20
1.004742535e+20
1.002972155e+20
1.000368656e+20
1.008803994e+20
9.97661016e+19
9.97869296e+19
1.001410055e+20
1.011303354e+20
1.007658454e+20
1.005992214e+20
1.011928193e+20
7.794877563e+19
1.001826615e+20
1.003492855e+20
9.92454017e+19
9.916208971e+19
9.952657965e+19
9.917250371e+19
9.920374571e+19
1.002868015e+20
1.002034895e+20
1.006512914e+20
1.006929474e+20
9.884966977e+19
1.001826615e+20
9.958906364e+19
9.97973436e+19
9.935995568e+19
9.879759978e+19
1.004117695e+20
9.942243967e+19
7.723020976e+19
1.007658454e+20
1.026195371e+20
1.033276889e+20
1.03286033e+20
1.034526569e+20
1.02879887e+20
1.026403651e+20
1.020780092e+20
1.023800151e+20
1.020155252e+20
1.014948253e+20
1.039004588e+20
1.035984529e+20
1.035567969e+20
1.03140237e+20
1.037442489e+20
1.034005869e+20
1.03254791e+20
1.041503948e+20
7.712606978e+19
9.882884178e+19
9.901629374e+19
9.947450966e+19
9.882884178e+19
9.909960573e+19
9.907877773e+19
9.797489393e+19
9.891215376e+19
9.939119767e+19
1.006408774e+20
1.005471515e+20
1.003388715e+20
9.990148358e+19
1.012761313e+20
1.018384872e+20
1.020051112e+20
1.010366094e+20
1.015156533e+20
1.014948253e+20
7.727186575e+19
9.973485961e+19
9.97661016e+19
9.776661397e+19
9.887049777e+19
9.887049777e+19
9.911001972e+19
1.009637114e+20
1.013594433e+20
1.017343472e+20
1.004742535e+20
1.004430115e+20
9.947450966e+19
9.963071963e+19
9.903712174e+19
9.941202567e+19
9.941202567e+19
9.948492365e+19
1.003284575e+20
9.951616565e+19
2.398592665e+20
2.783593767e+20
2.82977952e+20
2.968260464e+20
3.046905466e+20
3.068448852e+20
3.085831101e+20
3.094901706e+20
2.988690281e+20
3.104976073e+20
1.638183087e+20
1.983230323e+20
2.176345953e+20
2.338972175e+20
2.485616443e+20
2.553397844e+20
2.592503512e+20
2.688365219e+20
2.694630132e+20
2.637848881e+20
1.35882976e+20
1.570210796e+20
1.785366567e+20
1.953375722e+20
2.099783962e+20
2.196973887e+20
2.304047991e+20
2.46676771e+20
2.520626118e+20
2.552663589e+20
1.255470075e+20
1.378380326e+20
1.504581915e+20
1.700188011e+20
1.78647638e+20
1.924840843e+20
2.101573359e+20
2.212133624e+20
2.263157664e+20
2.327729875e+20
1.169354422e+20
1.272310597e+20
1.378281799e+20
1.515605318e+20
1.602101963e+20
1.710921549e+20
1.840579416e+20
1.91831662e+20
2.049466586e+20
2.193215062e+20
1.10058731e+20
1.174553874e+20
1.250816162e+20
1.305949248e+20
1.399784343e+20
1.49451356e+20
1.618162446e+20
1.738097148e+20
1.854679372e+20
1.941556551e+20
1.07999898e+20
1.122781745e+20
1.179613413e+20
1.250040964e+20
1.291373046e+20
1.361422649e+20
1.462982751e+20
1.546243537e+20
1.664756314e+20
1.784659716e+20
1.060873781e+20
1.083742193e+20
1.081497719e+20
1.144839496e+20
1.191234956e+20
1.240125971e+20
1.320444096e+20
1.41234113e+20
1.501696644e+20
1.5964726e+20
1.019279084e+20
1.057961355e+20
1.081921544e+20
1.100667684e+20
1.158034669e+20
1.198792046e+20
1.205367016e+20
1.275694821e+20
1.376776355e+20
1.456501472e+20
1.019070066e+20
1.02860277e+20
1.05712773e+20
1.062364107e+20
1.071542007e+20
1.13495169e+20
1.19381572e+20
1.233987514e+20
1.262137116e+20
1.301052232e+20
1.04624248e+20
1.038073281e+20
1.054902643e+20
1.081249157e+20
1.094427643e+20
1.0972967e+20
1.103802776e+20
1.151121679e+20
1.199013678e+20
1.237469484e+20
1.002871126e+20
1.026498212e+20
1.026082484e+20
1.01915255e+20
1.029853618e+20
1.056503795e+20
1.093777126e+20
1.115889988e+20
1.124945902e+20
1.163864943e+20
1.017084389e+20
1.019342717e+20
1.022585923e+20
1.021499845e+20
1.025340953e+20
1.036053238e+20
1.049315522e+20
1.078463151e+20
1.108031905e+20
1.154511258e+20
9.912705917e+19
9.909311738e+19
1.000970792e+20
1.025874345e+20
1.028564287e+20
1.037784501e+20
1.040052685e+20
1.052670482e+20
1.063922883e+20
1.071775731e+20
9.765347907e+19
9.922991452e+19
1.000441016e+20
1.005282178e+20
1.009331764e+20
1.029777413e+20
1.031988579e+20
1.039060736e+20
1.041370909e+20
1.052288907e+20
1.019279083e+20
1.029549824e+20
1.016016625e+20
1.006029045e+20
1.009546646e+20
9.982900504e+19
1.015751377e+20
1.022377799e+20
1.030094911e+20
1.051954847e+20
9.992132996e+19
9.964030268e+19
9.853951906e+19
9.888511105e+19
9.833302368e+19
9.964505756e+19
1.015315479e+20
1.02303635e+20
1.019813868e+20
1.033804256e+20
1.006319931e+20
1.003137619e+20
1.008493715e+20
1.011363798e+20
1.027167504e+20
1.013005787e+20
1.015533421e+20
1.017548539e+20
1.022467042e+20
1.042155755e+20
1.001408001e+20
1.017448615e+20
1.022903789e+20
1.0248074e+20
1.033076948e+20
1.032266097e+20
1.034277043e+20
1.025121708e+20
1.016386844e+20
1.021889457e+20
1.023772982e+20
1.028813228e+20
1.018029791e+20
1.013604397e+20
1.012232754e+20
1.008244818e+20
1.020982154e+20
1.030829023e+20
1.021914298e+20
1.031688543e+20
1.009141682e+20
1.008714692e+20
1.007116274e+20
1.008056253e+20
1.00739776e+20
1.007595587e+20
9.992962267e+19
1.005914402e+20
1.017823987e+20
1.007858931e+20
1.004020727e+20
9.953507478e+19
9.870905009e+19
9.949327437e+19
)
;

boundaryField
{
    flow
    {
        type            calculated;
        value           nonuniform List<scalar> 
42
(
7.582432002e+19
7.610549797e+19
7.826119557e+19
7.839657754e+19
7.728227975e+19
7.785504964e+19
7.711565578e+19
7.770925367e+19
7.719896776e+19
7.778215166e+19
7.781339365e+19
7.75530437e+19
7.804250161e+19
7.734476374e+19
7.64804019e+19
7.86256855e+19
7.738641973e+19
7.791753363e+19
7.794877563e+19
7.723020976e+19
7.712606978e+19
7.727186575e+19
7.582432002e+19
9.792282394e+19
9.859973382e+19
9.907877773e+19
9.906836373e+19
9.901629374e+19
9.866221781e+19
9.958906364e+19
9.797489393e+19
9.720425808e+19
9.702722011e+19
9.790199595e+19
9.631906824e+19
9.744378003e+19
9.730839806e+19
9.777702797e+19
9.840186785e+19
9.97973436e+19
1.051709666e+20
1.359964009e+20
)
;
    }
    obstacle
    {
        type            calculated;
        value           nonuniform List<scalar> 10(135.541267 146.0664527 145.2000621 137.3822211 142.7091063 154.7036412 143.5428125 143.2080656 138.2690264 139.8390128);
    }
    frontAndBack
    {
        type            empty;
    }
    procBoundary0to1
    {
        type            processor;
        value           nonuniform List<scalar> 
21
(
3.075912319e+20
2.737945585e+20
2.550285992e+20
2.316861241e+20
2.258533095e+20
2.032848043e+20
1.845973635e+20
1.710585036e+20
1.555566774e+20
1.365327283e+20
1.284901743e+20
1.225003229e+20
1.164319516e+20
1.091297165e+20
1.089165952e+20
1.053047362e+20
1.037792309e+20
1.057870659e+20
1.03240818e+20
1.040372207e+20
1.002907598e+20
)
;
    }
    procBoundary0to2
    {
        type            processor;
        value           nonuniform List<scalar> 
31
(
7.710524178e+19
9.882884178e+19
1.007554314e+20
9.997438156e+19
1.004534255e+20
1.003388715e+20
1.003596995e+20
9.939119767e+19
9.858931982e+19
9.858931982e+19
9.849559384e+19
9.981817159e+19
1.000576935e+20
9.969320362e+19
1.002139035e+20
9.883925577e+19
9.847476584e+19
9.789158195e+19
9.674604216e+19
9.610037428e+19
1.011910421e+20
1.02339337e+20
1.018802656e+20
1.024572927e+20
1.028436684e+20
1.033358842e+20
9.730859777e+19
9.837756849e+19
1.015380879e+20
1.011910421e+20
1.008162942e+20
)
;
    }
}


// ************************************************************************* //
