/*--------------------------------*- C++ -*----------------------------------*\
| =========                 |                                                 |
| \\      /  F ield         | OpenFOAM: The Open Source CFD Toolbox           |
|  \\    /   O peration     | Version:  2406                                  |
|   \\  /    A nd           | Website:  www.openfoam.com                      |
|    \\/     M anipulation  |                                                 |
\*---------------------------------------------------------------------------*/
FoamFile
{
    version     2.0;
    format      ascii;
    arch        "LSB;label=32;scalar=64";
    class       volScalarField;
    location    "0.002";
    object      rhoN;
}
// * * * * * * * * * * * * * * * * * * * * * * * * * * * * * * * * * * * * * //

dimensions      [0 -3 0 0 0 0 0];

internalField   nonuniform List<scalar> 
654
(
8.331198464e+19
1.145539789e+20
5.20699904e+19
1.041399808e+20
9.372598272e+19
1.041399808e+20
1.24967977e+20
1.041399808e+20
6.248398848e+19
9.372598272e+19
1.35381975e+20
1.562099712e+20
8.331198464e+19
1.145539789e+20
8.331198464e+19
5.20699904e+19
8.331198464e+19
1.35381975e+20
1.145539789e+20
9.372598272e+19
4.165599232e+19
9.372598272e+19
1.24967977e+20
1.145539789e+20
1.041399808e+20
7.289798656e+19
1.35381975e+20
8.331198464e+19
1.041399808e+20
1.145539789e+20
9.372598272e+19
1.35381975e+20
8.331198464e+19
1.24967977e+20
1.041399808e+20
9.372598272e+19
9.372598272e+19
1.770379674e+20
9.372598272e+19
8.331198464e+19
6.248398848e+19
1.145539789e+20
1.145539789e+20
1.35381975e+20
1.041399808e+20
9.372598272e+19
1.457959731e+20
5.20699904e+19
7.289798656e+19
1.24967977e+20
1.041399808e+20
9.372598272e+19
1.24967977e+20
1.24967977e+20
8.331198464e+19
1.041399808e+20
1.041399808e+20
9.372598272e+19
1.35381975e+20
1.457959731e+20
8.331198464e+19
1.041399808e+20
5.20699904e+19
7.289798656e+19
9.372598272e+19
8.331198464e+19
8.331198464e+19
1.35381975e+20
7.289798656e+19
1.457959731e+20
1.457959731e+20
9.372598272e+19
5.20699904e+19
1.457959731e+20
1.145539789e+20
9.372598272e+19
1.24967977e+20
1.457959731e+20
7.289798656e+19
1.457959731e+20
9.372598272e+19
1.041399808e+20
7.289798656e+19
1.145539789e+20
1.35381975e+20
3.124199424e+19
9.372598272e+19
1.041399808e+20
3.124199424e+19
1.457959731e+20
1.457959731e+20
7.289798656e+19
1.145539789e+20
6.248398848e+19
1.35381975e+20
8.331198464e+19
1.041399808e+20
1.35381975e+20
1.562099712e+20
1.35381975e+20
9.372598272e+19
9.372598272e+19
1.666239693e+20
5.20699904e+19
8.331198464e+19
1.145539789e+20
6.248398848e+19
1.145539789e+20
1.874519654e+20
1.24967977e+20
1.145539789e+20
6.248398848e+19
8.331198464e+19
9.372598272e+19
1.562099712e+20
1.145539789e+20
6.248398848e+19
8.331198464e+19
9.372598272e+19
4.165599232e+19
7.289798656e+19
9.372598272e+19
1.457959731e+20
9.372598272e+19
1.24967977e+20
8.331198464e+19
1.145539789e+20
1.041399808e+20
1.145539789e+20
1.041399808e+20
8.331198464e+19
1.35381975e+20
1.24967977e+20
8.331198464e+19
7.289798656e+19
6.248398848e+19
6.248398848e+19
1.24967977e+20
4.165599232e+19
1.562099712e+20
6.248398848e+19
1.145539789e+20
9.372598272e+19
7.289798656e+19
1.24967977e+20
1.145539789e+20
1.041399808e+20
1.041399808e+20
9.372598272e+19
4.165599232e+19
7.289798656e+19
8.331198464e+19
8.331198464e+19
1.145539789e+20
1.041399808e+20
1.24967977e+20
6.248398848e+19
8.331198464e+19
6.248398848e+19
1.35381975e+20
5.20699904e+19
9.372598272e+19
5.20699904e+19
9.372598272e+19
1.562099712e+20
6.248398848e+19
1.041399808e+20
1.666239693e+20
4.165599232e+19
9.372598272e+19
1.24967977e+20
6.248398848e+19
1.145539789e+20
5.20699904e+19
9.372598272e+19
1.041399808e+20
8.331198464e+19
6.248398848e+19
1.145539789e+20
2.082799616e+19
1.041399808e+20
1.041399808e+20
9.372598272e+19
1.145539789e+20
1.24967977e+20
8.331198464e+19
8.331198464e+19
6.248398848e+19
1.145539789e+20
1.35381975e+20
5.20699904e+19
6.248398848e+19
1.457959731e+20
1.145539789e+20
8.331198464e+19
6.248398848e+19
1.041399808e+20
8.331198464e+19
7.289798656e+19
9.372598272e+19
6.248398848e+19
8.331198464e+19
8.331198464e+19
7.289798656e+19
1.562099712e+20
9.372598272e+19
9.372598272e+19
1.666239693e+20
1.35381975e+20
1.457959731e+20
4.165599232e+19
1.24967977e+20
1.562099712e+20
6.248398848e+19
6.248398848e+19
8.331198464e+19
3.124199424e+19
1.145539789e+20
1.041399808e+20
9.372598272e+19
9.372598272e+19
1.041399808e+20
9.372598272e+19
9.372598272e+19
8.331198464e+19
7.289798656e+19
9.372598272e+19
1.24967977e+20
9.372598272e+19
8.331198464e+19
9.372598272e+19
1.041399808e+20
8.331198464e+19
9.372598272e+19
1.145539789e+20
1.35381975e+20
1.457959731e+20
1.041399808e+20
8.331198464e+19
9.372598272e+19
9.372598272e+19
7.289798656e+19
9.372598272e+19
1.874519654e+20
8.331198464e+19
4.165599232e+19
1.041399808e+20
1.145539789e+20
1.35381975e+20
7.289798656e+19
1.145539789e+20
1.457959731e+20
7.289798656e+19
8.331198464e+19
1.145539789e+20
1.24967977e+20
1.35381975e+20
8.331198464e+19
9.372598272e+19
1.145539789e+20
9.372598272e+19
9.372598272e+19
5.20699904e+19
8.331198464e+19
1.24967977e+20
1.145539789e+20
1.041399808e+20
1.041399808e+20
1.041399808e+20
1.666239693e+20
9.372598272e+19
7.289798656e+19
9.372598272e+19
7.289798656e+19
1.145539789e+20
1.041399808e+20
8.331198464e+19
1.562099712e+20
1.666239693e+20
8.331198464e+19
6.248398848e+19
1.145539789e+20
9.372598272e+19
1.562099712e+20
7.289798656e+19
1.041399808e+20
1.145539789e+20
7.289798656e+19
1.041399808e+20
8.331198464e+19
1.145539789e+20
1.041399808e+20
5.20699904e+19
8.331198464e+19
1.041399808e+20
8.331198464e+19
1.457959731e+20
1.666239693e+20
9.372598272e+19
1.770379674e+20
8.331198464e+19
7.289798656e+19
1.145539789e+20
7.289798656e+19
1.24967977e+20
1.145539789e+20
9.372598272e+19
7.289798656e+19
5.20699904e+19
1.041399808e+20
9.372598272e+19
1.35381975e+20
9.372598272e+19
8.331198464e+19
1.041399808e+20
8.331198464e+19
1.041399808e+20
9.372598272e+19
7.289798656e+19
1.041399808e+20
8.331198464e+19
1.24967977e+20
1.145539789e+20
1.35381975e+20
2.082799616e+19
1.35381975e+20
5.20699904e+19
1.145539789e+20
8.331198464e+19
1.35381975e+20
4.165599232e+19
1.145539789e+20
6.248398848e+19
1.35381975e+20
1.24967977e+20
5.20699904e+19
1.145539789e+20
1.24967977e+20
7.289798656e+19
1.041399808e+20
6.248398848e+19
1.24967977e+20
8.331198464e+19
1.041399808e+20
8.331198464e+19
9.372598272e+19
1.041399808e+20
1.457959731e+20
8.331198464e+19
7.289798656e+19
1.145539789e+20
7.289798656e+19
1.041399808e+20
1.24967977e+20
1.041399808e+20
8.331198464e+19
1.666239693e+20
7.289798656e+19
1.457959731e+20
7.289798656e+19
7.289798656e+19
9.372598272e+19
9.372598272e+19
1.145539789e+20
1.24967977e+20
1.041399808e+20
1.041399808e+20
9.372598272e+19
5.20699904e+19
1.24967977e+20
1.35381975e+20
9.372598272e+19
8.331198464e+19
9.372598272e+19
1.145539789e+20
9.372598272e+19
1.041399808e+20
1.041399808e+20
9.372598272e+19
1.041399808e+20
5.20699904e+19
9.372598272e+19
5.20699904e+19
1.666239693e+20
1.35381975e+20
1.041399808e+20
4.165599232e+19
1.666239693e+20
9.372598272e+19
5.20699904e+19
4.165599232e+19
8.331198464e+19
1.562099712e+20
9.372598272e+19
1.457959731e+20
1.145539789e+20
8.331198464e+19
1.35381975e+20
5.20699904e+19
8.331198464e+19
1.145539789e+20
1.35381975e+20
1.35381975e+20
1.145539789e+20
9.372598272e+19
1.35381975e+20
8.331198464e+19
8.331198464e+19
1.145539789e+20
1.145539789e+20
1.145539789e+20
1.457959731e+20
1.35381975e+20
8.331198464e+19
1.041399808e+20
1.041399808e+20
5.20699904e+19
1.145539789e+20
1.457959731e+20
1.041399808e+20
8.331198464e+19
5.20699904e+19
7.289798656e+19
1.24967977e+20
7.289798656e+19
7.289798656e+19
1.145539789e+20
1.145539789e+20
1.041399808e+20
1.457959731e+20
4.165599232e+19
7.289798656e+19
1.041399808e+20
5.20699904e+19
1.041399808e+20
8.331198464e+19
1.770379674e+20
6.248398848e+19
1.978659635e+20
2.082799616e+19
2.40371362e+20
2.946381336e+20
2.96678124e+20
2.3472944e+20
3.438217608e+20
4.003547766e+20
2.070515624e+20
1.865853217e+20
3.095369997e+20
3.117893059e+20
2.090185757e+20
1.999330192e+20
3.178694187e+20
1.1736472e+20
2.256330306e+20
2.380487862e+20
2.724362665e+20
3.182926078e+20
3.427016783e+20
2.672479765e+20
1.358620742e+20
1.367962763e+20
1.695303565e+20
2.027208801e+20
2.148886007e+20
7.574279557e+19
2.833337169e+20
2.414633576e+20
2.542625355e+20
3.117893059e+20
1.045092878e+20
1.157506954e+20
1.589347094e+20
1.387037599e+20
1.611664503e+20
9.73835943e+19
2.615388158e+20
1.756097146e+20
1.989880713e+20
3.117893059e+20
1.358620742e+20
1.262734858e+20
8.476517832e+19
2.027208802e+20
1.826553106e+20
1.839467894e+20
1.634617599e+20
1.31707286e+20
1.989880714e+20
2.115713149e+20
9.405835905e+19
1.367962763e+20
1.695303565e+20
1.493732799e+20
1.933997404e+20
1.623059904e+20
1.198719571e+20
2.524389644e+20
2.432076425e+20
1.558946531e+20
1.672148605e+20
1.157506953e+20
1.483390621e+20
1.280342401e+20
1.181887304e+20
9.738359437e+19
1.743592105e+20
1.536585003e+20
1.216038213e+20
2.115713147e+20
6.27055727e+19
1.262734859e+20
1.377434148e+20
1.066952e+20
1.074443002e+20
1.19024393e+20
1.525643092e+20
1.31707286e+20
1.658233927e+20
1.670299853e+20
1.46313003e+20
1.052279048e+20
1.059564728e+20
1.066952e+20
1.289331604e+20
1.19024393e+20
1.416668585e+20
9.878046449e+19
6.632935708e+19
1.670299853e+20
8.360743032e+19
7.365953343e+19
1.059564729e+20
1.2803424e+20
1.289331603e+20
2.59689585e+20
1.852566612e+20
1.207316788e+20
8.843914278e+19
1.224886559e+20
8.360743026e+19
1.683646477e+20
1.059564728e+20
1.066952e+20
8.595544022e+19
1.082039937e+20
9.807705585e+19
8.780485726e+19
1.326587142e+20
1.447593206e+20
1.149602166e+20
1.367962764e+20
6.357388374e+19
1.2803424e+20
8.595544022e+19
1.514855912e+20
1.525643097e+20
1.317072868e+20
7.738425031e+19
1.002179916e+20
1.045092878e+20
1.157506956e+20
1.059564733e+20
6.401712002e+19
9.669986985e+19
1.082039935e+20
8.717960508e+19
9.878046365e+19
1.326587136e+20
1.336239882e+20
1.149602162e+20
1.052279042e+20
1.059564721e+20
8.535615974e+19
7.521101025e+19
8.656319476e+19
1.416668578e+20
1.865853215e+20
8.84391424e+19
1.002179905e+20
1.149602172e+20
1.052279051e+20
1.059564728e+20
9.602568036e+19
1.396775914e+20
9.738359478e+19
1.089745067e+20
1.756097156e+20
7.738425015e+19
1.781653177e+20
1.045092877e+20
6.313674307e+19
6.357388413e+19
9.602568036e+19
1.289331604e+20
8.656319536e+19
8.717960539e+19
1.975609273e+20
8.84391424e+19
4.454132941e+19
1.149602165e+20
9.470511396e+19
1.589347082e+20
2.133903993e+20
7.521101025e+19
8.656319476e+19
1.089745067e+20
5.487803613e+19
6.632935727e+19
1.55894653e+20
5.225464384e+19
1.052279051e+20
1.059564735e+20
1.066951997e+20
1.181887296e+20
7.574279541e+19
1.198719566e+20
9.878046435e+19
1.216038217e+20
6.681199412e+19
6.270557303e+19
1.473190672e+20
1.059564728e+20
8.535616032e+19
1.289331604e+20
6.492239607e+19
6.538470404e+19
2.085365358e+20
7.73842496e+19
1.224886568e+20
1.045092877e+20
1.367962766e+20
6.35738837e+19
8.535615974e+19
1.289331604e+20
8.656319536e+19
9.807705606e+19
1.426828929e+20
1.216038217e+20
4.454132941e+19
7.315650138e+19
1.157506948e+20
1.801260038e+20
6.401712024e+19
9.669987032e+19
2.055875875e+20
7.628215471e+19
1.097560723e+20
1.105489288e+20
1.113533235e+20
1.045092877e+20
5.26139522e+19
8.476517826e+19
7.468664028e+19
)
;

boundaryField
{
    flow
    {
        type            zeroGradient;
    }
    obstacle
    {
        type            calculated;
        value           nonuniform List<scalar> 10(55.86276099 56.13421007 1e-300 115.1389708 174.5299848 221.1725494 1e-300 375.2259769 38.33935043 50.56381263);
    }
    frontAndBack
    {
        type            empty;
    }
    procBoundary0to1
    {
        type            processor;
        value           nonuniform List<scalar> 
21
(
3.252915806e+20
2.916407277e+20
2.692068253e+20
1.009525595e+20
1.682542658e+20
1.682542661e+20
2.243390211e+20
2.01905119e+20
2.243390213e+20
1.346034127e+20
1.570373148e+20
2.243390219e+19
1.233864613e+20
1.009525592e+20
7.851865773e+19
8.973560819e+19
7.851865717e+19
1.009525599e+20
1.009525599e+20
1.009525592e+20
1.009525599e+20
)
;
    }
    procBoundary0to2
    {
        type            processor;
        value           nonuniform List<scalar> 
31
(
6.248398848e+19
1.145539789e+20
8.331198464e+19
5.20699904e+19
9.372598272e+19
9.372598272e+19
1.24967977e+20
1.562099712e+20
1.041399808e+20
9.372598272e+19
8.331198464e+19
1.145539789e+20
7.289798656e+19
1.145539789e+20
6.248398848e+19
8.331198464e+19
1.770379674e+20
9.372598272e+19
1.041399808e+20
5.20699904e+19
9.669987032e+19
1.082039934e+20
9.807705538e+19
6.58536429e+19
9.949403591e+19
8.908265883e+19
1.35862074e+20
1.157506956e+20
1.165521201e+20
9.669987032e+19
5.334759983e+19
)
;
    }
}


// ************************************************************************* //
