/*--------------------------------*- C++ -*----------------------------------*\
| =========                 |                                                 |
| \\      /  F ield         | OpenFOAM: The Open Source CFD Toolbox           |
|  \\    /   O peration     | Version:  2406                                  |
|   \\  /    A nd           | Website:  www.openfoam.com                      |
|    \\/     M anipulation  |                                                 |
\*---------------------------------------------------------------------------*/
FoamFile
{
    version     2.0;
    format      ascii;
    arch        "LSB;label=32;scalar=64";
    class       volScalarField;
    location    "0.002";
    object      translationalT;
}
// * * * * * * * * * * * * * * * * * * * * * * * * * * * * * * * * * * * * * //

dimensions      [1 2 -2 0 0 0 0];

internalField   nonuniform List<scalar> 
654
(
283.6308974
293.6703073
287.4157492
294.4018765
295.2833893
296.1114857
297.5881157
299.1601694
295.6540491
294.2131227
292.9390324
295.9883097
291.8101761
303.9725379
311.8069435
322.2184062
353.4426485
437.7053347
709.0786102
1316.741074
285.2404748
303.0758325
297.4777735
299.0990605
298.1806013
302.8296943
304.3630011
306.4536963
303.4387447
300.1289173
298.1108384
295.1182291
302.8247029
308.2230167
317.622558
340.3229601
368.689923
476.1611435
721.8403623
1151.265181
292.5340307
308.3379039
297.6165154
294.5314779
291.1794425
292.8267601
289.5407756
287.2697888
287.1361463
291.1456521
292.9609874
291.0848917
296.0417581
305.5220579
323.7472211
351.1005651
391.1719264
472.3743632
678.5625303
894.9646406
284.51336
304.3616068
294.6209022
295.7008319
295.4034975
290.3451545
291.8506098
289.6977816
294.1726185
293.4172928
295.5126777
298.7880864
311.4101373
315.2265063
321.7311745
348.7901616
395.2272619
475.2327302
552.1804598
750.4469433
285.8295488
298.589756
292.5656667
294.0239323
296.2630055
300.3664115
299.4478901
300.7165445
300.9835511
300.4326304
304.2097393
303.2336998
295.1414977
303.8014265
308.0018776
334.6904364
362.5244608
424.8827563
499.7568661
616.6754782
289.8270149
308.538123
303.5043346
303.5182079
298.9288837
293.1728484
295.2747436
298.8443148
303.5390474
306.4660233
302.4371352
299.0465104
298.8019214
301.2111559
317.682115
325.2442456
357.9861353
425.0681987
454.1914858
519.8376314
288.3205798
305.5562294
300.428519
301.6784671
305.5640879
307.4037527
308.4035386
302.2806766
300.7272204
301.7618873
301.8138853
299.5152555
301.986409
302.3181461
300.8818898
313.9859021
344.0110049
358.7781938
399.8052848
446.6782838
291.5081808
308.6953066
301.8184335
306.3971871
298.636001
300.5843406
297.7130301
301.6458266
302.668539
300.7451583
300.2118008
301.9371389
302.6693015
304.2270246
315.716602
318.9269339
323.3780037
346.483972
360.7302314
388.6080113
290.7788409
310.5492569
299.0772925
304.9486967
306.8115541
308.5802871
309.8698377
307.202088
306.240246
307.7710668
306.1804215
306.3189914
307.0498135
316.7470277
310.3449353
322.0554862
325.715412
322.0373423
355.9769446
387.7562819
293.345267
306.4114831
301.1439369
299.3113674
297.0828502
299.5044675
296.1247008
293.2052434
297.1703235
300.1798861
303.9863372
307.9091118
318.73403
309.9146613
308.9026603
318.493717
314.1754121
316.184261
340.9045946
367.6427233
293.7079817
307.1541363
305.4269889
301.2767669
302.2371462
298.2880943
300.5994131
306.2105895
301.2335693
301.7610125
301.9303037
296.8286492
304.7058863
305.750519
312.7796668
305.4573568
307.1597328
306.5681869
322.2637745
341.8467842
296.355554
312.048391
302.375592
298.9800144
300.4481181
302.4165319
304.4028465
302.3723276
307.9279149
306.1313413
305.7583505
303.4851782
302.3395366
307.6478642
306.8859165
312.0958917
320.0587884
318.1281026
319.2197538
338.8082834
292.2380665
310.8544611
304.1077751
302.6511183
302.8524933
300.7835298
299.7966232
300.2873173
297.5862857
300.3232085
303.3908764
302.2677918
303.3334472
305.0165896
305.5336545
307.2506254
310.0428255
308.9143127
311.339867
315.7441081
288.6185529
302.7038406
298.5142277
301.5201082
300.2122566
302.7013807
300.8276953
301.7958564
301.2261105
296.7838116
299.1839481
297.4898849
299.749125
297.1464657
301.7327807
298.6015629
297.3491206
309.9449998
304.1017418
311.2374338
291.7789051
310.8499668
301.3932511
297.871043
301.8421356
302.7334576
303.8066614
301.3436442
300.7694336
302.3939042
297.1430595
299.0998012
294.9263532
293.1843631
294.4617288
298.2218089
304.3833248
307.4382861
307.3875005
306.3038523
288.1948615
304.311041
300.2230478
301.661205
299.0430397
296.807237
299.2927573
300.1366466
305.2726915
306.0337228
306.5017973
302.0072849
300.9115392
302.6542596
298.6505829
300.9934305
301.6921224
301.3146671
305.5204019
305.8443587
291.9925565
305.2464505
299.3429082
300.4151354
302.999977
304.9023147
304.4640154
300.3364213
298.5897594
296.471491
296.5990186
299.4048174
300.3532551
302.4046273
302.3245289
310.6543569
305.916699
307.769678
304.6349829
310.9561124
294.4678403
304.8882727
301.3093296
299.9562582
300.3411104
298.072459
296.7795937
295.1479583
296.4034902
298.5369385
299.4347516
299.326402
300.3884052
297.874985
299.3196571
296.3593797
297.0486727
299.0269478
300.0811938
303.7077081
284.6795853
303.8808622
295.8011649
293.4230385
295.2722387
297.8442881
302.980307
303.6744662
306.3338041
310.7704702
306.1902377
307.2241095
302.4499589
299.3056298
303.1408687
304.6555471
303.487183
301.6676076
307.0601195
293.8538381
288.3718072
305.5669679
298.4084091
299.9178037
298.9482846
297.4012011
298.8082463
296.5317881
294.7181127
294.39689
294.2921824
295.9483669
302.1020956
302.9759875
300.3563773
298.7465401
299.5867419
299.4863016
308.3345537
309.0796555
288.2982165
304.2321428
298.8197136
301.8655934
303.2484137
303.3074796
303.3188353
300.0418427
299.6558541
301.0501968
300.3501959
297.138397
294.8038089
294.7985599
296.8968853
299.0884101
300.4658612
303.0663293
297.9198777
301.2641219
292.4737139
311.6721206
302.5640089
299.9099154
300.8014899
299.3599877
293.8323164
297.848008
300.5969978
299.0059138
298.9925794
299.364257
296.2072939
300.1019677
299.7818576
296.3255501
296.3000819
298.6154796
299.3701262
303.1543304
1384.646235
1235.06818
1191.145804
1128.406431
1078.458454
1049.35582
1025.423005
986.2507431
992.0665043
955.2323086
1329.550718
1299.187356
1254.489894
1204.674125
1164.308838
1149.430738
1115.681846
1082.390957
1078.233922
1074.217386
1124.947382
1166.674402
1167.679132
1174.225962
1159.505704
1126.57288
1101.991547
1098.862709
1080.600712
1055.721215
922.8175706
1027.46891
1070.85276
1131.047042
1078.51791
1066.282556
1081.854902
1054.923872
1054.965074
1047.251372
724.7900944
871.0839451
943.2848355
1007.300632
993.0690006
1022.549054
1042.630902
1014.393166
1015.702995
1011.447457
612.5068306
737.6516404
843.2312509
887.3944242
924.1871604
936.1483473
968.5502458
983.9014802
1005.543272
980.0036049
526.3050935
620.8399014
680.703417
775.8726358
789.9968821
846.3007426
884.6878138
912.4740154
935.3612097
955.5782553
474.6083263
565.5703114
580.519003
687.9485774
712.141019
749.9753184
793.3499107
832.1888306
866.1781318
880.9152561
433.2834917
474.1233204
504.7183244
563.5910938
618.0144336
675.2919059
693.211347
756.6455271
807.4261084
813.3463753
397.6259747
432.2454396
469.6732677
491.2902483
509.9995741
596.0965652
615.9313095
668.196058
728.8696317
751.6554433
370.1571418
407.1909975
435.5247341
456.2752183
474.8695533
532.8416432
572.4145224
626.1144443
648.1827176
653.5516044
350.6819796
370.2379677
397.6730782
434.4677828
441.7852549
453.9052522
491.1983183
535.0474151
567.3141012
591.2919287
341.0524601
349.8329569
381.9561061
377.116666
384.6005054
426.44666
430.5230029
470.6178087
491.903061
539.5148299
332.6637774
329.4601395
353.4114039
365.5863291
368.9677009
393.4445206
409.1622234
432.7359877
452.9913707
481.8711728
329.9270238
330.0684359
333.0937874
338.1919968
360.5239841
368.663401
376.2825244
400.9709961
416.4340288
435.8106218
304.3101154
326.679207
325.1453752
330.5482648
341.1716182
348.8335631
378.6571092
370.9719866
390.131524
405.9587135
317.1630284
324.5746695
327.123983
319.7373481
314.7933745
324.2349629
354.3805823
357.2941601
359.7723077
380.8081882
309.7393925
311.7757797
311.7751679
316.3768867
319.3609542
325.6600832
336.8086876
337.3173348
335.0326446
348.6305688
306.2980564
310.5007621
311.2290636
310.2538729
312.9458258
317.5503255
323.8513788
331.6756908
329.568286
338.7573531
311.4735224
306.5107535
305.5586981
306.3901716
309.1400444
315.5726472
313.9477163
319.9673393
338.386618
326.8948517
302.768699
303.6780827
302.8718738
300.5600157
310.8921992
315.776349
316.6387522
320.6355714
335.2145686
326.1145714
296.6885137
298.1651523
302.6085476
305.3479202
)
;

boundaryField
{
    flow
    {
        type            calculated;
        value           nonuniform List<scalar> 
42
(
283.6308974
285.2404748
292.5340307
284.51336
285.8295488
289.8270149
288.3205798
291.5081808
290.7788409
293.345267
293.7079817
296.355554
292.2380665
288.6185529
291.7789051
288.1948615
291.9925565
294.4678403
284.6795853
288.3718072
288.2982165
292.4737139
283.6308974
293.6703073
287.4157492
294.4018765
295.2833893
296.1114857
297.5881157
299.1601694
295.6540491
294.2131227
292.9390324
295.9883097
291.8101761
303.9725379
311.8069435
322.2184062
353.4426485
437.7053347
709.0786102
1316.741074
)
;
    }
    obstacle
    {
        type            calculated;
        value           nonuniform List<scalar> 10(1184.973998 1088.953564 991.4094775 958.1687736 921.1377456 829.0149279 879.1693399 833.2784514 832.8678129 830.9230436);
    }
    frontAndBack
    {
        type            empty;
    }
    procBoundary0to1
    {
        type            processor;
        value           nonuniform List<scalar> 
21
(
943.1280724
1030.671875
1021.11504
1031.450326
995.4347863
969.2213431
941.6842498
902.9265961
846.9966465
782.5805908
701.2735103
643.5347614
555.5457676
522.181591
460.3545702
436.3593839
390.2421515
365.1183387
352.7803937
344.5772755
337.0771453
)
;
    }
    procBoundary0to2
    {
        type            processor;
        value           nonuniform List<scalar> 
31
(
284.3335894
299.7288015
296.1595294
297.4114282
295.3319079
296.0058541
297.8389095
301.4583926
303.1744522
301.2883014
301.3115017
302.7343449
304.5774889
300.5112623
298.244787
298.5991741
300.4451508
300.8902405
303.913364
305.1955185
307.4803842
313.6692271
301.838612
306.7752408
307.8214543
316.9442475
300.0008717
306.2777164
303.08717
307.4803842
303.2023431
)
;
    }
}


// ************************************************************************* //
