/*--------------------------------*- C++ -*----------------------------------*\
| =========                 |                                                 |
| \\      /  F ield         | OpenFOAM: The Open Source CFD Toolbox           |
|  \\    /   O peration     | Version:  2406                                  |
|   \\  /    A nd           | Website:  www.openfoam.com                      |
|    \\/     M anipulation  |                                                 |
\*---------------------------------------------------------------------------*/
FoamFile
{
    version     2.0;
    format      ascii;
    arch        "LSB;label=32;scalar=64";
    class       volVectorField;
    location    "0.002";
    object      UMean;
}
// * * * * * * * * * * * * * * * * * * * * * * * * * * * * * * * * * * * * * //

dimensions      [0 1 -1 0 0 0 0];

internalField   nonuniform List<vector> 
654
(
(1708.895076 -3.437486199 -3.059401808)
(1748.500046 -1.750264083 -5.490973217)
(1739.894124 -2.743483612 -4.822578878)
(1740.963414 -1.881966605 -5.007945966)
(1739.369499 -2.159045982 -6.164497336)
(1739.246841 -2.56345649 -1.769250613)
(1737.709729 -4.757576334 0.6185059628)
(1736.921851 -6.331745768 0.5922993318)
(1732.821871 -5.139901626 1.607648073)
(1737.234275 -6.750372566 2.221416755)
(1734.658521 -6.096170305 2.173897399)
(1729.805656 -2.862835589 -0.2953895409)
(1732.207282 -2.555798399 2.014029204)
(1732.17283 -1.230677451 4.472170259)
(1728.718243 0.003848666874 1.866144911)
(1721.079742 -2.899728881 1.888279345)
(1710.032213 -9.371046658 1.501374584)
(1676.886263 -14.10264311 3.536784858)
(1562.989083 -19.06711439 3.931187416)
(1184.279281 10.97741544 11.63967635)
(1712.545527 3.314525522 1.604688177)
(1748.142877 -3.404649147 1.739849483)
(1735.438153 1.765593931 2.49994646)
(1737.799816 -0.5709261742 -1.998610766)
(1738.240424 -1.811731086 -4.056542738)
(1739.418613 -1.136022279 -4.992613219)
(1737.173182 -2.510946371 -10.82785851)
(1739.868247 2.646335237 -7.056214273)
(1741.091958 1.649414744 -1.799461853)
(1743.836826 0.5035928964 1.768891841)
(1746.404578 4.441948552 2.061425221)
(1746.306353 2.989431822 1.701408469)
(1741.637439 3.131257719 3.866004112)
(1734.599365 -1.334971509 0.1839463815)
(1733.379055 -0.5347532736 -4.680062382)
(1722.550932 1.067955762 -3.689663856)
(1711.833008 5.948878856 2.063124573)
(1663.568582 2.236815255 -2.595542874)
(1557.127536 18.52877469 2.569638951)
(1302.481027 72.83621797 -1.830002235)
(1706.977164 3.250418159 7.178520803)
(1745.044143 0.4719092792 9.111519787)
(1736.686683 -1.614461167 7.444751327)
(1737.889057 -5.377654785 7.576735213)
(1737.157066 -6.79491312 9.05132551)
(1734.213033 -4.206047706 8.524011409)
(1734.608891 -2.620887525 9.900890022)
(1736.842139 -1.43769541 9.035192118)
(1731.616594 6.37136353 2.838540818)
(1731.374882 5.77713587 0.08002820781)
(1726.542253 3.68637063 -4.40432081)
(1727.961956 0.04044709247 -4.964522727)
(1729.93763 0.306257779 -4.412491684)
(1723.510923 2.019169657 -1.699488716)
(1721.925618 4.25792086 -3.674779091)
(1714.190307 1.173406739 -0.1732210621)
(1701.746273 7.511244676 5.745152163)
(1672.798001 12.32974774 0.9917201313)
(1576.279334 35.84244767 -2.307776406)
(1460.094868 67.87291993 3.044374328)
(1711.549378 -1.785549627 -0.2166540968)
(1741.503714 0.09334014228 1.424098223)
(1731.673235 0.926141033 1.806579334)
(1731.763286 1.170227578 6.275752964)
(1730.642876 6.155046232 4.488737837)
(1736.357657 1.000138757 2.450767714)
(1738.317772 -3.555044057 -1.882484884)
(1734.714059 -4.977547727 -5.445120343)
(1737.636065 -6.798177874 -3.734902756)
(1734.352281 -0.6420043614 -3.700224596)
(1735.583818 -0.1921728265 -1.583212448)
(1732.792456 8.469730194 -2.040874663)
(1731.350652 9.43151997 -6.808556074)
(1726.883289 7.009590837 -2.261213705)
(1722.128619 8.249727692 -3.579477448)
(1709.262975 5.005400468 -0.8638536985)
(1685.237619 6.403476432 -5.280751314)
(1659.623282 10.07434621 -0.8945787794)
(1628.6979 20.8063922 -14.01870059)
(1529.140929 60.3626291 -12.56999252)
(1711.108824 -0.7895415141 -4.515539514)
(1751.8013 -3.79768631 -1.760044265)
(1746.785797 -2.117450586 0.5915384185)
(1742.355308 1.817005457 -0.5965674719)
(1743.034033 3.546948932 0.1100438168)
(1738.974695 3.609210776 2.051178816)
(1736.931507 11.23646221 6.541082147)
(1733.836073 7.551685571 9.966704165)
(1733.581432 2.271874635 6.341726681)
(1731.476047 1.146686965 6.436024768)
(1731.770386 -7.099998029 7.306319082)
(1732.404174 -7.57069042 6.040483629)
(1733.446306 -9.405162166 5.733640643)
(1733.674243 -4.40272052 2.454854443)
(1728.801706 -1.022380566 1.075292348)
(1721.121116 1.557238713 -4.39825192)
(1708.150144 7.811243225 -4.485159303)
(1683.57571 16.89788618 -8.800429482)
(1650.845477 21.95617788 -8.214370637)
(1597.99592 50.23553245 -4.289305139)
(1709.478472 1.151162553 5.984650593)
(1744.186564 2.618739279 1.630287104)
(1731.229427 2.153547114 0.7027968943)
(1735.926668 -0.562454788 -1.34231245)
(1735.965938 2.047770829 -0.6148843014)
(1737.944142 -0.6248187339 1.026283761)
(1740.482222 -1.270747477 -0.3046903061)
(1739.145575 -2.139053433 -1.512473451)
(1739.491626 0.7029516778 3.536458938)
(1739.696882 3.734959389 6.395801525)
(1740.033703 4.74898056 5.201445329)
(1740.406868 1.24331798 5.95209381)
(1736.684743 0.7025759847 5.137224937)
(1733.790948 -2.579050851 1.732113912)
(1729.254695 -4.020790314 5.635182691)
(1723.444754 -6.31919799 4.461652601)
(1712.151213 -0.2026353651 -1.522605498)
(1680.377814 12.14707074 -5.00952141)
(1663.927088 14.56494889 -4.47135153)
(1637.926004 37.32050203 -9.926363817)
(1708.722967 2.65412354 -6.242312443)
(1747.26839 1.704741059 -5.027755168)
(1739.105338 1.696278634 -6.068116118)
(1739.711351 3.544802999 -6.695601206)
(1740.291606 0.9409167069 -10.70655176)
(1737.038665 -0.423919855 -10.26654622)
(1737.394149 -4.566784729 -7.32979185)
(1735.518861 -5.055953351 -7.308033207)
(1732.693208 -6.534001985 -6.420839692)
(1728.950974 -4.227790371 -7.85113168)
(1727.072526 -1.434477367 -11.15542673)
(1722.583152 -0.1507835321 -8.86672842)
(1723.937345 -0.2052502126 -6.59583772)
(1726.080531 -0.3572701507 -6.355610722)
(1723.475033 -1.085991845 -6.65962342)
(1719.849873 5.4119192 -2.686500786)
(1705.516662 5.003355389 -0.2566240174)
(1704.073133 7.841517387 -0.06040201624)
(1690.362351 14.36597679 5.474297356)
(1664.724469 24.84740364 8.61031272)
(1710.078482 -3.574904278 2.125170924)
(1743.946412 0.6917507679 -1.871760953)
(1729.624252 -1.788614594 -2.170974718)
(1726.759833 -4.160508028 -3.084628032)
(1728.226676 -2.935630438 0.1389580527)
(1732.326555 -3.423877897 -1.498584184)
(1733.231239 3.49308457 -1.907867638)
(1733.672071 0.5277084821 -0.007446725491)
(1733.876181 2.471249589 -2.810696478)
(1738.985591 -2.783617442 -3.089527666)
(1736.908224 -5.868545226 0.07525875033)
(1739.68518 -2.104741771 -4.052111347)
(1740.174472 0.01852926592 0.9734163988)
(1742.188494 0.2799405816 0.3078758466)
(1733.79631 3.241727702 0.5910741022)
(1733.493731 1.258038128 2.683585567)
(1733.682571 2.027448249 -0.6095665184)
(1720.192389 4.81696703 -5.380608813)
(1713.054009 9.055389495 -2.268581871)
(1702.745162 11.88601541 -2.022025347)
(1705.43754 0.2357679816 -5.173284787)
(1743.751312 -0.7247239517 -3.489999249)
(1738.599688 2.372209995 -0.9122464929)
(1738.377875 3.06703581 0.4137599592)
(1739.55726 -2.835482081 1.159751079)
(1736.218546 -2.302356458 1.428670318)
(1734.889343 -5.225913703 0.6582459069)
(1735.804919 -2.066514595 -2.853343565)
(1740.329986 -0.5863739668 0.3052988461)
(1734.948198 3.637833286 1.003858901)
(1736.885528 2.51798668 0.4918358152)
(1740.273522 -0.2771863296 -1.178652564)
(1735.441178 -5.693475879 -2.24231919)
(1738.513235 -2.533759535 -0.5920666382)
(1740.375876 -2.197198452 1.657892916)
(1735.860647 -0.4020972396 1.19025068)
(1732.769351 5.235580251 2.693405561)
(1733.589609 4.39045189 4.187348123)
(1718.241035 11.51239914 4.348716821)
(1704.145348 19.57560904 3.323220781)
(1711.068507 0.1103736625 8.016528512)
(1744.59505 -5.143369875 8.944430457)
(1733.775524 -5.041470741 6.437888624)
(1738.15532 -6.407427513 5.686952411)
(1733.333441 0.8849013334 3.547197215)
(1732.426277 4.004937895 5.842789709)
(1734.146942 -1.464282321 7.718126754)
(1736.235133 -2.97646252 5.210912839)
(1733.295026 -1.460706849 6.068847777)
(1739.471568 1.630818297 1.564112468)
(1732.766822 1.594013643 4.014572196)
(1736.502379 6.46122725 4.069141885)
(1734.365752 6.955580306 7.384795571)
(1737.035051 9.293391639 1.641886894)
(1739.449061 4.642347766 -1.173927201)
(1736.71956 3.090008972 -1.093882618)
(1736.335769 5.599225788 3.2608836)
(1738.159029 8.076557393 5.824795343)
(1722.83459 9.53007376 5.86620375)
(1711.208013 12.11969423 4.783710981)
(1694.911841 1.144207412 -1.063975721)
(1734.70199 0.9761584241 -2.533400581)
(1730.492513 -1.685037004 -4.225420842)
(1729.424451 -2.994972972 -1.983832683)
(1731.378511 -2.480184921 -0.3354998191)
(1738.429922 -5.278562152 1.035378515)
(1734.085565 0.6419339979 -0.7906089423)
(1736.52961 5.450622851 -4.35981631)
(1738.283182 0.6783868951 -6.026059146)
(1730.974292 -0.8783613755 -3.008071178)
(1735.252632 -3.471803646 -4.864969818)
(1733.161231 -0.5519652123 -2.639601186)
(1731.914757 1.681986457 -3.223045094)
(1732.101726 0.939121998 -3.062479462)
(1731.029659 6.287907747 -4.261106196)
(1732.039946 4.506473411 -2.07213735)
(1732.158502 5.694371404 -2.58525095)
(1737.102391 -1.430561457 -6.94967786)
(1727.912472 3.070792023 -6.720315004)
(1719.790935 12.53267279 -4.562430089)
(1711.228643 -1.928782317 -5.070243455)
(1745.335866 0.8325895085 -4.894298823)
(1735.425543 2.943039056 -0.7154781195)
(1732.459046 0.7223725089 -3.331714153)
(1733.587912 -0.5670799131 -8.92637637)
(1729.532166 -2.327526578 -11.18604582)
(1726.630026 -0.1786896212 -9.717634948)
(1727.363949 -5.356170381 -5.556526689)
(1723.083747 -3.02092083 -5.515629243)
(1727.272546 0.09195037362 -3.956665632)
(1729.43449 5.298566074 -4.59298025)
(1730.220949 2.833441214 -5.886189352)
(1729.501035 1.92790595 -3.206245837)
(1728.045475 -0.7165093376 -4.217234765)
(1725.358544 -0.005582776569 -1.226287763)
(1724.971389 -0.3898550361 0.1230166503)
(1723.831149 -1.644694877 -2.086507352)
(1720.201583 -1.034630269 -0.8874943298)
(1721.696712 -0.5677906442 -1.832567918)
(1716.216595 2.465186801 0.8476094636)
(1703.209314 8.777965365 -0.2516166029)
(1739.000066 6.727877621 -7.543230706)
(1731.564439 5.007338143 -9.723750541)
(1733.67413 5.185296831 -9.35598788)
(1734.525909 0.8974885214 -9.587409208)
(1736.667628 3.677540697 -8.510294196)
(1737.29955 -5.285164684 -6.238116904)
(1735.933691 -2.334832027 -7.037958391)
(1734.939409 1.135288654 -4.667272152)
(1736.066486 -0.2979197871 -3.940880057)
(1739.502173 -2.979484745 -2.562136938)
(1737.291739 -4.934196149 -1.967575404)
(1735.822191 -5.536387939 -4.294802981)
(1735.816435 -3.299925306 -6.787526353)
(1738.984226 -2.264502075 -5.991066923)
(1734.963269 -4.888671302 -7.262588277)
(1732.168535 -0.4115012635 -7.186204857)
(1734.684534 -0.7514814286 -2.441024321)
(1732.989298 0.9355310773 -0.04907744045)
(1727.946328 6.899460856 -2.25868152)
(1706.81346 2.104294411 -8.079345328)
(1749.782623 0.1903200942 -5.317369089)
(1741.807655 2.657477083 -3.960828889)
(1739.788271 6.51516628 -1.423418999)
(1737.961641 9.874601923 -0.02507809089)
(1735.404907 7.881033832 1.174003531)
(1737.572356 8.494200891 -0.8462447543)
(1740.738796 8.732899469 -0.2415681441)
(1740.252711 -0.01950292242 -0.702932245)
(1737.702932 -3.198379837 0.8487208678)
(1735.813894 -1.761525345 -0.511456643)
(1737.446959 -4.962408291 -1.580978904)
(1735.212819 -6.653576344 -0.5964373218)
(1737.583409 -4.950573865 2.759404118)
(1736.987184 -6.330281047 -0.4030770923)
(1735.817682 -4.130989515 -5.082294666)
(1733.547515 -3.213284718 -8.233273571)
(1728.208302 -0.2315285219 -4.691090733)
(1733.005979 3.766258964 -8.859164782)
(1729.436394 3.076007948 -3.177689148)
(1711.691376 7.628528035 5.56672129)
(1743.612094 7.081716467 3.957993625)
(1732.837918 4.15365943 4.947721825)
(1733.612751 -0.3553887965 4.449290884)
(1733.726518 4.255318089 -0.443197249)
(1733.553362 5.317904917 -1.124883272)
(1730.572044 7.957699953 0.02484186516)
(1732.868554 2.195562302 -1.561318415)
(1734.678475 3.980562505 -0.1594314891)
(1733.584373 4.246549177 -2.402758614)
(1736.293289 -1.839237687 -3.386505083)
(1739.084871 -6.686307371 0.5114617104)
(1739.061172 -1.666541889 -2.116030569)
(1736.080629 -0.5594881049 -5.17152457)
(1735.57487 2.88886626 -3.563532957)
(1737.955463 6.01328172 -2.599824048)
(1736.362619 5.363289474 -0.2721341836)
(1735.136904 4.284197269 -4.784050765)
(1735.869789 2.36398174 -4.821169696)
(1734.075874 -3.039182496 -7.432456444)
(1703.641028 -4.259173432 -6.776456542)
(1741.9857 -3.112207204 -6.925376926)
(1733.134953 3.771739046 -4.37710775)
(1732.715725 6.113657537 -4.670928748)
(1730.864302 3.460944343 -2.568788782)
(1734.500122 -0.4987571169 -3.230841423)
(1736.797158 2.561050456 -4.89995625)
(1735.283075 3.471887112 -2.006585013)
(1732.427288 0.7813800227 -4.920111754)
(1733.029577 2.96617015 -4.418307608)
(1733.524712 5.769650459 -4.31192963)
(1732.777785 14.53216625 -4.669638141)
(1737.952164 15.71415028 -0.6012888835)
(1736.616105 12.49848065 2.098659403)
(1735.475151 4.929452438 3.438633658)
(1735.510463 -1.84297897 -1.114151252)
(1734.835744 -4.211523009 -4.733771145)
(1737.145717 -1.630733477 -3.790658261)
(1736.32163 -0.4683884527 -2.489782852)
(1737.378261 -0.4183302348 -2.598013836)
(1710.29024 9.600615021 4.283520999)
(1745.483783 4.62697321 0.01126740965)
(1737.027435 -2.008400101 -3.309060528)
(1735.161456 0.08052330211 -5.322855663)
(1734.159685 6.162345977 -3.435465149)
(1732.843755 8.084831288 -3.70117031)
(1733.041387 7.288745036 -2.902780166)
(1735.26135 5.438306575 -2.315727417)
(1732.5949 9.876513243 -2.633007748)
(1733.981557 9.40040892 -5.47488043)
(1731.269268 8.724611689 -5.341868146)
(1738.560399 7.29775726 -7.837915336)
(1733.364978 -0.8577586422 -9.157150262)
(1737.834834 -3.810705158 -11.05064454)
(1735.935716 -2.360516958 -9.125861866)
(1733.390534 1.535945622 -7.047634468)
(1732.679519 2.61655434 -5.448132279)
(1733.471433 -4.43181168 -0.825526741)
(1731.512825 0.96096926 -1.662191794)
(1730.005389 0.8203155461 1.324379364)
(1710.977519 -4.87671176 1.202837828)
(1746.473676 0.2239448025 3.891664399)
(1739.533471 6.494511038 5.816562664)
(1736.771691 5.321644706 3.450210147)
(1737.636298 1.44718277 3.590736074)
(1737.301031 -1.965848547 2.780682341)
(1736.951333 2.437280793 0.5160754963)
(1737.73869 7.485574062 0.3919029971)
(1743.772889 2.293621578 0.6298372782)
(1739.548099 -1.348980949 -2.474652284)
(1738.002142 -0.8423979636 -3.352328304)
(1738.362398 -1.644255275 -1.61759927)
(1730.205238 1.747787274 -1.714607636)
(1732.757047 2.058804121 -3.306133427)
(1735.962903 3.238371153 0.8063434703)
(1734.115221 5.456111203 3.340441187)
(1740.472815 4.516954639 1.552988625)
(1738.988025 5.749012283 -3.308709999)
(1738.608292 6.450719247 -4.715716168)
(1736.68187 6.051708805 -8.208248603)
(1703.35842 4.453300347 -3.355680192)
(1736.246333 -0.03558144055 -5.16428633)
(1730.936698 1.99888804 -0.8532855284)
(1734.728189 -3.241687768 0.4570872027)
(1734.514747 0.9896993479 -8.071084838)
(1732.761765 -0.3024738304 -9.107055639)
(1732.224035 -0.1838788965 -8.76322583)
(1733.426814 -5.542055873 -6.590218136)
(1733.428686 -0.3254232396 -8.65834381)
(1732.581912 2.758282718 -6.416497287)
(1731.245408 2.92943094 -1.693234107)
(1730.619232 1.08835184 -1.135650832)
(1736.842737 4.463751038 -2.839040823)
(1738.155495 2.928455021 -1.560438814)
(1734.731345 6.067141274 -5.751974057)
(1732.396049 2.620340146 -8.248734819)
(1730.637509 4.285563587 -5.419029052)
(1731.57673 0.9680496096 -1.723224423)
(1729.062965 0.6910763564 0.4805770199)
(1733.060478 0.6968255963 1.218488323)
(1716.892827 1.617911407 -10.12811394)
(1752.592798 2.190423697 -10.73054316)
(1741.797185 2.290450269 -12.64497595)
(1739.158694 2.003837527 -12.22957644)
(1739.140121 1.830090387 -7.163879105)
(1737.787165 0.9169882005 -3.466190394)
(1737.945077 -3.957125703 -3.450460662)
(1737.036024 1.698238939 -4.759236333)
(1740.194983 2.022742396 -2.644087785)
(1737.530374 2.710411394 -6.940848485)
(1740.029053 -1.15786135 -6.221737298)
(1742.784548 1.94337221 -7.111747991)
(1739.774282 4.817689786 -7.491117352)
(1736.734411 5.514501546 -3.864250095)
(1736.578421 -1.484612583 -6.190271269)
(1740.301266 1.558516905 -4.148021117)
(1738.856753 4.082819477 0.1989466064)
(1740.308728 6.464027252 -0.6297721873)
(1734.515008 7.054411318 -7.974223471)
(1733.183576 -0.514596622 -6.086700077)
(1710.346186 -10.82453039 -2.971238743)
(1747.561921 -7.575196884 -3.075863372)
(1737.699517 -1.125961683 -3.597598088)
(1737.484521 -2.53939438 -3.809941761)
(1739.33439 -2.675049289 -5.828830636)
(1738.871428 -2.856275633 -4.459642316)
(1739.460512 0.7190994652 0.1242419037)
(1738.158114 -3.689735532 -1.820639491)
(1740.942019 -3.47797898 2.275729137)
(1744.085693 -1.923404213 1.056794853)
(1740.837744 -0.2376471823 3.257458279)
(1741.896315 -1.729082939 -2.161920812)
(1738.79031 -5.637408549 -1.74501501)
(1739.982404 -2.744884718 -1.378333363)
(1738.970658 6.485848781 1.42685092)
(1740.362066 3.420016045 2.587524026)
(1737.240248 -0.2362200412 -2.286298102)
(1736.779619 -1.457740772 -2.240402527)
(1736.81739 3.536110941 -1.128178033)
(1737.200952 2.460582016 -3.356712151)
(1711.134289 2.315566377 5.486997009)
(1748.221273 1.371640007 5.866255359)
(1738.704829 -11.0211514 4.759770193)
(1741.88184 -8.223709986 3.915035212)
(1739.786435 -5.387905981 4.423870118)
(1739.657782 1.396019497 1.4105532)
(1738.276755 3.750319804 2.614767678)
(1741.591942 6.021480686 2.578963639)
(1733.71952 3.505226601 0.3794619798)
(1732.134495 -3.45429955 2.74131752)
(1732.833508 -0.07732368864 5.396200366)
(1728.94146 -5.580566065 2.062629844)
(1732.583775 -2.398636236 4.970186168)
(1734.175125 -3.462973548 0.05583003077)
(1734.866298 -7.852571774 -3.039734743)
(1737.684682 -5.723988771 -4.989252682)
(1737.849276 -3.440180309 -1.808277722)
(1735.644163 1.924012485 -4.035825341)
(1736.860934 5.234679587 -3.249548114)
(1734.482688 7.035572819 -4.964663618)
(675.5747989 153.1829858 -7.154489333)
(598.1192103 171.8770012 -8.837737556)
(581.1900908 166.9064673 -7.558584621)
(530.5674254 146.4120947 11.01578771)
(493.6357851 147.4042944 6.267255225)
(472.8322003 138.246849 5.013055845)
(443.6013657 121.7473325 1.702212587)
(415.670381 125.9280385 2.226413832)
(414.6459059 111.4491012 -4.586402198)
(391.2455362 116.5706526 -0.7076815756)
(1062.27089 158.1033655 -13.28283021)
(935.5587613 222.4579054 -17.9464242)
(900.4693953 248.127511 -5.733003075)
(863.608917 248.4024462 -9.047989338)
(826.7228475 238.918209 -2.178807007)
(787.9965772 235.4559185 -10.19505906)
(765.384694 234.043905 -4.654743695)
(727.5884526 229.5351093 -18.53343284)
(701.479953 205.9682284 -6.356202386)
(681.8178416 204.1908805 -5.75679031)
(1283.667261 136.6230225 -1.467093048)
(1184.893542 196.925692 -22.93348402)
(1112.015483 237.7078884 -10.45791754)
(1066.358481 270.9081966 -16.40674438)
(1019.195957 288.5147087 -8.788290056)
(1014.89871 297.2308729 -12.09144362)
(973.3743049 293.9533125 -9.203050236)
(918.025792 286.0505086 -15.47389682)
(884.2162033 275.140321 -21.74122736)
(852.0118904 268.9495401 -10.24581086)
(1421.807672 105.6686279 2.825678673)
(1333.286519 160.3217237 -3.782522112)
(1263.015664 212.7435722 1.116653073)
(1168.274893 251.7146194 -1.283810018)
(1164.102209 268.0610474 3.990584446)
(1138.845221 297.408784 -4.779350074)
(1091.552908 312.1503868 2.360974424)
(1069.157182 313.2194701 -6.08055947)
(1061.298424 328.4212818 -10.92610918)
(1023.459136 322.5666344 -9.079249447)
(1533.966489 85.24530961 -5.869415722)
(1436.918274 130.5004686 1.495688264)
(1383.009122 171.8131037 0.9672008506)
(1314.978714 209.9118217 -8.982016304)
(1297.17414 241.1593422 -0.7697203224)
(1251.679738 265.8613838 10.09498195)
(1208.629375 297.9770422 7.627904704)
(1197.364827 323.550831 1.865984305)
(1155.797224 346.3489571 -3.464153926)
(1126.152312 343.2184444 -0.8547656668)
(1592.886561 61.90093407 -4.097331061)
(1521.770447 90.69315123 0.3299246723)
(1471.310881 139.8372982 3.513321489)
(1436.396236 172.9849959 -1.411261628)
(1388.475394 205.3773308 1.147051546)
(1359.6047 239.2978345 0.4821574833)
(1305.292432 270.4773972 1.283993801)
(1271.884212 293.8314098 5.339794142)
(1235.327182 322.8249556 0.1547472086)
(1223.083746 326.9746721 0.2522276755)
(1638.021821 51.47222029 3.641738545)
(1599.929821 72.63415812 1.177322885)
(1566.694832 97.3916622 1.064526478)
(1512.937471 143.7937294 -2.480931196)
(1488.596669 165.9866686 -7.126288954)
(1454.267375 197.4841503 -9.537880099)
(1404.502426 235.1511982 -3.169815832)
(1366.22426 267.3757266 -1.176967493)
(1332.546242 295.4202231 6.418682331)
(1290.444849 318.9427429 0.1184245143)
(1668.674561 30.31133563 -4.003714971)
(1623.840538 54.27184085 -5.562415995)
(1616.123458 68.97857788 0.169416866)
(1562.20106 101.6877122 -1.499447579)
(1546.372868 130.9141206 0.8109693262)
(1522.603895 167.3025907 1.515609848)
(1485.760812 188.4851601 2.792386911)
(1446.550899 220.832802 -7.559279911)
(1402.67654 255.1436582 -6.315975785)
(1373.670516 284.1810225 5.635978374)
(1681.958336 26.94766945 -1.435703084)
(1669.191782 36.83294584 7.447227937)
(1646.669173 53.98923769 2.334797711)
(1618.406923 71.90216858 1.970048583)
(1584.126513 98.19172746 17.9295352)
(1562.431298 124.4460487 14.94588142)
(1550.919968 152.1763286 -3.608903467)
(1509.368265 186.4000111 -2.189114833)
(1475.976649 203.3232735 -1.309670388)
(1449.516243 228.0580711 -9.953737016)
(1700.30564 14.9659506 1.567173156)
(1686.21404 28.49425847 0.8912583228)
(1673.238077 42.83934009 1.270398197)
(1666.140112 46.61786608 -4.924376343)
(1655.636577 65.90228679 2.468669985)
(1611.090074 95.1806453 2.457215135)
(1595.0327 107.5327042 -5.30551468)
(1570.360884 135.450611 -0.3419109008)
(1543.398425 177.2675047 2.64112624)
(1526.658216 191.0226594 -1.042282113)
(1712.977307 18.73645095 -3.373270935)
(1696.464347 28.0613024 -0.6464625567)
(1687.176528 35.78471994 -3.214247011)
(1672.176705 45.20660169 0.7031792908)
(1664.993018 46.73822555 -0.1556599772)
(1640.207571 68.0627955 -2.487766907)
(1621.01253 93.13723328 4.217953512)
(1585.718653 111.9241247 0.8227613177)
(1573.193388 131.1450971 4.881826596)
(1558.723168 164.3312258 3.404208865)
(1716.834736 10.50077652 0.04275310403)
(1703.09633 6.78231082 3.769618123)
(1699.584758 16.61509755 -2.350677853)
(1684.357446 33.58965464 1.985632655)
(1683.342132 46.64520656 1.13197106)
(1674.339742 52.40868509 -1.075286242)
(1649.545198 65.06850565 -0.3316120451)
(1619.162079 88.82621292 -8.337476774)
(1602.918892 106.3773422 -6.253899915)
(1598.818916 120.7749656 -8.884828847)
(1718.415048 11.83367916 -3.604085288)
(1714.27717 20.22498108 -2.040681617)
(1698.853518 26.47218655 0.2258080736)
(1703.227041 24.30694707 -4.887684468)
(1695.387027 32.05062509 -7.496112018)
(1680.641838 42.60565927 -8.092470172)
(1676.758808 45.04040804 -4.496274517)
(1666.97767 58.74938401 -6.064565224)
(1654.759879 78.29035113 -6.784684364)
(1634.305973 98.89169667 -5.766722909)
(1723.723744 7.220973994 -3.393076889)
(1723.349185 5.098671575 -4.068382798)
(1712.649252 15.33076188 -5.12446819)
(1708.265683 19.88904871 -1.379734927)
(1709.825491 21.05501929 -8.25819761)
(1701.913973 30.48300024 -5.952980576)
(1699.778051 30.24791644 -0.6101302868)
(1692.813816 48.18759257 0.4584863908)
(1680.388882 50.71374539 -4.194733515)
(1666.234877 72.96852323 0.3922565163)
(1728.416688 2.532085775 -6.553980195)
(1724.459623 3.605911829 -6.868132433)
(1730.351278 0.6131099285 -6.519075996)
(1723.383007 3.201059367 -4.990079828)
(1720.412005 8.910211202 1.067657017)
(1722.879042 16.90514249 -2.147333253)
(1711.75149 27.36080288 -6.575208739)
(1697.418815 40.92752683 -5.383634065)
(1697.781549 55.65522998 -0.586063225)
(1692.798985 59.63919243 3.246318925)
(1739.091118 -1.981526051 -4.445547652)
(1733.07092 1.80022154 -2.658402713)
(1733.198831 2.485848335 -6.689214815)
(1729.607245 5.703945071 -0.9604513237)
(1726.965944 12.81037455 -4.858860637)
(1719.448485 20.0789481 -9.111441708)
(1705.914906 26.87438839 -8.314276188)
(1709.19989 22.73061638 -5.804662718)
(1693.758489 23.82513393 -4.917970081)
(1680.322847 30.03206393 -10.88915385)
(1727.814547 0.1654981206 0.8405508792)
(1723.052555 4.097888844 1.877187328)
(1723.481525 4.949098321 -2.058494471)
(1724.657738 5.747400372 -2.594925494)
(1731.016456 4.877900608 -2.636683084)
(1730.238736 9.817609553 2.79603732)
(1711.277217 12.29016519 9.04222216)
(1712.323955 20.08790985 8.74534514)
(1711.047397 28.52680381 6.276002807)
(1709.320969 35.92265594 5.776741883)
(1734.383692 9.244608251 -7.83410618)
(1733.345008 13.92418049 -7.987490847)
(1734.183147 13.38450193 -2.757177585)
(1732.640733 10.11196341 -1.35802917)
(1724.759798 9.90962131 -0.4543489201)
(1727.388331 6.492342932 -7.852049804)
(1723.970774 11.9420899 -10.48393849)
(1726.057465 17.64398322 -6.883631195)
(1723.846334 13.82384433 -7.771114996)
(1716.538057 23.96750499 -8.628595366)
(1726.087732 3.69823101 -1.780152891)
(1728.059461 0.691362348 -4.900084255)
(1726.093193 5.680147124 -5.088242698)
(1727.77842 4.32140783 -7.948925539)
(1730.851787 8.534543102 -11.07036782)
(1730.131519 13.62069664 -5.694089999)
(1730.736275 14.89416248 -9.644510771)
(1725.431355 19.8247852 -8.737454294)
(1720.444607 21.94298352 -6.408627791)
(1721.337259 20.29682219 -3.440050997)
(1734.9674 1.852943087 -5.014038348)
(1740.638186 -1.714049944 -4.114542628)
(1742.842172 1.476798974 1.381526579)
(1741.685719 7.854149812 0.6829373479)
(1736.250435 12.30450606 -1.29221176)
(1733.046488 12.98410283 -1.266889126)
(1730.500652 12.1774217 -0.006977218537)
(1731.337359 11.26448641 2.752278767)
(1727.081371 16.18380141 -0.3616406181)
(1725.068478 15.55257491 2.700343529)
(1739.464191 7.360654768 -3.504198859)
(1735.941197 14.66534218 -2.840441861)
(1737.257478 10.87354506 -5.939695342)
(1736.694983 10.72328147 -4.027123147)
(1735.419056 7.913584857 0.4906067437)
(1730.906548 8.356248832 -2.742514794)
(1727.471565 7.109034003 0.2455766583)
(1721.557734 8.852906918 -4.027645876)
(1721.03947 14.15555295 0.920434127)
(1724.315566 13.11677791 8.440736202)
(1735.903638 3.803440082 -4.252430547)
(1731.803383 6.054025952 -1.852995176)
(1729.268593 10.54909138 -4.499953831)
(1731.322287 8.054303753 -5.325603645)
)
;

boundaryField
{
    flow
    {
        type            calculated;
        value           nonuniform List<vector> 
42
(
(1708.895076 -3.437486199 -3.059401808)
(1712.545527 3.314525522 1.604688177)
(1706.977164 3.250418159 7.178520803)
(1711.549378 -1.785549627 -0.2166540968)
(1711.108824 -0.7895415141 -4.515539514)
(1709.478472 1.151162553 5.984650593)
(1708.722967 2.65412354 -6.242312443)
(1710.078482 -3.574904278 2.125170924)
(1705.43754 0.2357679816 -5.173284787)
(1711.068507 0.1103736625 8.016528512)
(1694.911841 1.144207412 -1.063975721)
(1711.228643 -1.928782317 -5.070243455)
(1703.209314 8.777965365 -0.2516166029)
(1706.81346 2.104294411 -8.079345328)
(1711.691376 7.628528035 5.56672129)
(1703.641028 -4.259173432 -6.776456542)
(1710.29024 9.600615021 4.283520999)
(1710.977519 -4.87671176 1.202837828)
(1703.35842 4.453300347 -3.355680192)
(1716.892827 1.617911407 -10.12811394)
(1710.346186 -10.82453039 -2.971238743)
(1711.134289 2.315566377 5.486997009)
(1708.895076 -3.437486199 -3.059401808)
(1748.500046 -1.750264083 -5.490973217)
(1739.894124 -2.743483612 -4.822578878)
(1740.963414 -1.881966605 -5.007945966)
(1739.369499 -2.159045982 -6.164497336)
(1739.246841 -2.56345649 -1.769250613)
(1737.709729 -4.757576334 0.6185059628)
(1736.921851 -6.331745768 0.5922993318)
(1732.821871 -5.139901626 1.607648073)
(1737.234275 -6.750372566 2.221416755)
(1734.658521 -6.096170305 2.173897399)
(1729.805656 -2.862835589 -0.2953895409)
(1732.207282 -2.555798399 2.014029204)
(1732.17283 -1.230677451 4.472170259)
(1728.718243 0.003848666874 1.866144911)
(1721.079742 -2.899728881 1.888279345)
(1710.032213 -9.371046658 1.501374584)
(1676.886263 -14.10264311 3.536784858)
(1562.989083 -19.06711439 3.931187416)
(1184.279281 10.97741544 11.63967635)
)
;
    }
    obstacle
    {
        type            calculated;
        value           nonuniform List<vector> 10((424.3650286 113.7082667 -6.100541013) (346.2805842 92.78560292 -18.86343219) (316.1485213 84.71174096 9.972133904) (285.706286 76.5547686 0.9275748895) (283.3720628 75.92931533 35.92574737) (256.2389277 68.65901386 37.60255439) (217.5014869 58.27934759 21.56564463) (222.648932 59.65860165 12.57878403) (213.3843549 57.17616567 -19.62168241) (213.31135 57.1566038 -8.209700119));
    }
    frontAndBack
    {
        type            empty;
    }
    procBoundary0to1
    {
        type            processor;
        value           nonuniform List<vector> 
21
(
(369.6093799 104.2215368 9.156636934)
(643.9474883 203.4299416 -6.11905583)
(847.44663 267.8025889 -9.864795082)
(1011.309837 310.4094332 -1.348486966)
(1123.499584 339.3643344 -9.916028228)
(1202.69428 346.6088596 -9.500621698)
(1280.768562 330.6165645 1.519247168)
(1344.777841 305.7296066 -10.09794141)
(1424.542084 275.2748648 -0.4110777519)
(1483.604805 230.1169431 4.416096872)
(1528.027167 189.88766 -9.91876487)
(1570.325122 142.9811552 3.239384772)
(1631.173672 110.1007911 -7.493852763)
(1644.903112 94.68287326 -0.9526673141)
(1677.10536 69.56832463 -1.412464197)
(1674.726675 47.64989944 -6.088177266)
(1702.00858 41.02278253 6.095771367)
(1711.271081 27.58863554 -2.478804169)
(1708.46609 29.12562496 -1.96557199)
(1721.169662 18.40271579 -2.383170385)
(1717.779542 14.26011784 9.868920872)
)
;
    }
    procBoundary0to2
    {
        type            processor;
        value           nonuniform List<vector> 
31
(
(1710.071409 -8.21123937 -0.02866759347)
(1744.79896 -7.042861656 -1.878971123)
(1735.134301 0.0825645438 -1.595641095)
(1731.45491 4.5526823 -3.041473519)
(1734.584041 -1.128917329 -0.8769057983)
(1733.756225 -6.086231135 2.385409498)