/*--------------------------------*- C++ -*----------------------------------*\
| =========                 |                                                 |
| \\      /  F ield         | OpenFOAM: The Open Source CFD Toolbox           |
|  \\    /   O peration     | Version:  2406                                  |
|   \\  /    A nd           | Website:  www.openfoam.com                      |
|    \\/     M anipulation  |                                                 |
\*---------------------------------------------------------------------------*/
FoamFile
{
    version     2.0;
    format      ascii;
    arch        "LSB;label=32;scalar=64";
    class       volScalarField;
    location    "0.004";
    object      dsmcRhoNMean;
}
// * * * * * * * * * * * * * * * * * * * * * * * * * * * * * * * * * * * * * //

dimensions      [0 -3 0 0 0 0 0];

internalField   nonuniform List<scalar> 
654
(
16.7535
17.328
17.576
17.2085
17.0765
17.08
15.035
15.4725
15.9325
16.529
16.9585
17.2095
17.133
17.086
17.3895
17.2825
17.081
11.2985
11.84
12.2635
12.595
13.246
13.9625
14.4925
14.8265
15.3175
15.9025
16.383
16.839
16.88
16.864
16.9105
16.735
9.303
9.4815
9.5185
9.829
9.9765
10.1995
10.3635
10.838
11.334
11.9195
12.3995
12.7875
13.486
13.9805
14.384
14.727
15.2695
15.8305
16.3155
16.5065
16.5285
16.7165
8.9555
8.9145
8.827
8.897
8.9625
8.955
9.097
9.075
9.1835
9.3315
9.4055
9.5755
9.7865
10.103
10.3145
10.6195
10.9205
11.3825
11.9255
12.4615
13.0505
13.506
14.0355
14.5915
15.0295
15.437
15.776
16.1085
16.202
9.0365
9.0125
9.063
9.004
8.9775
8.893
8.913
8.922
8.941
9.0615
9.123
9.272
9.4145
9.519
9.665
9.8805
10.013
10.3475
10.629
10.88
11.4245
11.941
12.588
12.9965
13.5085
14.1025
14.449
14.991
15.2085
15.6615
9.043
8.934
8.8645
8.8735
8.9
8.849
8.8615
8.8905
8.914
9.0145
9.0225
9.031
9.0865
9.188
9.208
9.3775
9.538
9.6585
9.93
10.266
10.5365
11.009
11.4975
12.0965
12.7095
13.1285
13.796
14.2345
14.685
14.9495
9.0715
9.106
9.078
9.021
9.045
8.967
8.8475
8.804
8.6745
8.602
8.6045
8.692
8.7195
8.8065
8.9805
9.0405
9.222
9.436
9.4165
9.62
10.022
10.349
10.553
11.0805
11.575
11.9195
12.584
13.072
13.6105
14.016
9.1155
9.0695
9.066
8.9665
8.8395
8.796
8.7735
8.747
8.765
8.7685
8.65
8.634
8.648
8.5775
8.58
8.7025
8.805
8.913
9.178
9.3445
9.411
9.7045
10.042
10.1805
10.541
11.1095
11.547
12.09
12.714
13.324
8.9315
8.815
8.792
8.7105
8.784
8.747
8.776
8.709
8.651
8.5415
8.5325
8.461
8.405
8.428
8.468
8.4195
8.4995
8.676
8.7465
8.8425
9.0385
9.203
9.5805
9.933
10.217
10.5915
11.0445
11.448
11.758
12.156
9.0065
8.959
8.8955
8.752
8.679
8.5895
8.442
8.464
8.489
8.549
8.466
8.3665
8.329
8.29
8.2665
8.263
8.2575
8.349
8.4885
8.6315
8.7115
8.849
9.0695
9.375
9.6015
9.833
10.2195
10.581
11.2055
11.7065
8.9585
8.818
8.675
8.6935
8.6945
8.707
8.6635
8.568
8.43
8.2535
8.351
8.3765
8.347
8.3065
8.2915
8.424
8.4135
8.343
8.4095
8.3395
8.5755
8.708
8.7465
8.8675
9.096
9.368
9.6175
10.013
10.3585
10.857
8.84
8.858
8.8345
8.7805
8.6005
8.532
8.414
8.3565
8.2925
8.3325
8.253
8.2415
8.329
8.284
8.262
8.2105
8.252
8.3095
8.3245
8.4175
8.4195
8.3815
8.487
8.5555
8.704
8.936
9.1365
9.486
9.823
10.0935
8.922
8.833
8.7385
8.6715
8.5985
8.4925
8.4685
8.3515
8.3385
8.418
8.351
8.234
8.08
8.122
8.179
8.266
8.2055
8.195
8.0965
8.1355
8.023
8.0905
8.223
8.286
8.4615
8.6175
8.7605
8.958
9.173
9.568
8.812
8.711
8.6515
8.629
8.526
8.567
8.616
8.6235
8.4755
8.388
8.3475
8.3545
8.3045
8.381
8.2
8.153
8.0525
7.9565
7.9185
7.8495
7.826
7.9695
7.949
8.01
8.1135
8.285
8.4315
8.629
8.725
8.9305
8.9355
8.846
8.731
8.678
8.6885
8.6565
8.578
8.564
8.552
8.4905
8.376
8.345
8.2975
8.183
8.122
8.0455
7.9825
8.0215
7.985
7.997
7.9905
7.9805
8.004
8.075
8.01
7.9775
8.0285
8.177
8.4435
8.627
9.103
9.132
9.117
8.925
8.807
8.6815
8.5315
8.4525
8.38
8.3565
8.2995
8.1655
8.0825
8.029
8.0075
8.011
7.976
7.9255
7.997
7.9705
8.015
7.9615
7.9095
7.8585
7.838
7.7995
7.8115
7.9985
7.9815
8.2115
8.9715
8.8925
8.8995
8.8405
8.7725
8.8355
8.713
8.6205
8.4265
8.35
8.2785
8.257
8.24
8.1745
8.125
8.0385
7.983
7.9565
7.9
7.8285
7.769
7.714
7.678
7.679
7.7965
7.7775
7.8475
7.8255
7.875
7.95
8.8375
8.668
8.6065
8.564
8.5105
8.4205
8.361
8.3615
8.374
8.212
8.179
8.1355
8.085
7.9555
7.9805
7.894
7.8455
7.897
7.7705
7.795
7.7735
7.7275
7.6745
7.6635
7.6615
7.6115
7.5875
7.6465
7.787
7.7935
8.758
8.682
8.6595
8.5675
8.553
8.52
8.449
8.368
8.335
8.3165
8.2705
8.091
7.9895
8.016
7.947
7.916
7.915
7.8045
7.7695
7.7685
7.6695
7.669
7.6005
7.5765
7.6015
7.6265
7.5585
7.505
7.5165
7.5835
8.875
8.801
8.6535
8.635
8.528
8.539
8.573
8.6035
8.4655
8.4775
8.3975
8.421
8.415
8.2805
8.13
8.087
7.9695
7.8365
7.769
7.6415
7.7025
7.688
7.7125
7.633
7.5915
7.6325
7.6145
7.698
7.662
7.634
9.087
9.02
9.0205
8.969
8.886
8.6895
8.548
8.4395
8.404
8.329
8.223
8.1815
8.1515
8.137
8.079
8.06
8.016
7.9715
7.9105
7.8445
7.721
7.658
7.6265
7.556
7.475
7.489
7.44
7.331
7.279
7.3335
8.996
8.847
8.8125
8.7505
8.678
8.7125
8.6405
8.4895
8.4265
8.3815
8.287
8.2685
8.182
8.14
8.0415
7.9355
7.917
7.895
7.873
7.813
7.731
7.5925
7.5315
7.576
7.589
7.435
7.442
7.4305
7.4715
7.445
8.6405
8.67
8.602
8.5515
8.4345
8.347
8.336
8.393
8.3065
8.233
8.2015
8.075
8.004
7.9125
7.8985
7.9045
7.75
7.6415
7.536
7.496
7.507
7.5755
7.454
7.381
7.235
7.227
7.2265
7.18
7.1525
7.203
)
;

boundaryField
{
    flow
    {
        type            calculated;
        value           nonuniform List<scalar> 
55
(
16.7535
17.08
17.081
16.735
16.7165
16.202
15.6615
14.9495
14.016
13.324
12.156
11.7065
10.857
10.0935
9.568
8.9305
8.627
8.2115
7.95
7.7935
7.5835
7.634
7.3335
7.445
7.203
8.6405
8.67
8.602
8.5515
8.4345
8.347
8.336
8.393
8.3065
8.233
8.2015
8.075
8.004
7.9125
7.8985
7.9045
7.75
7.6415
7.536
7.496
7.507
7.5755
7.454
7.381
7.235
7.227
7.2265
7.18
7.1525
7.203
)
;
    }
    obstacle
    {
        type            calculated;
        value           nonuniform List<scalar> 0();
    }
    frontAndBack
    {
        type            empty;
    }
    procBoundary3to1
    {
        type            processor;
        value           nonuniform List<scalar> 
36
(
16.3275
17.6025
17.496
17.341
17.085
17.085
15.674
16.0545
16.79
16.9755
17.221
17.254
17.254
12.1215
12.663
13.058
13.7425
14.2535
14.2535
9.512
9.548
10.0175
10.154
10.326
10.79
10.79
9.0785
8.992
9.0115
9.0825
9.0425
9.142
9.2305
9.2305
8.9375
8.9375
)
;
    }
    procBoundary3to2
    {
        type            processor;
        value           nonuniform List<scalar> 
19
(
9.1135
9.0315
9.1565
9.1895
8.962
9.1355
8.9515
8.924
8.9825
8.94
8.977
9.0895
9.026
8.947
8.7395
8.986
8.998
9.106
8.7275
)
;
    }
}


// ************************************************************************* //
