/*--------------------------------*- C++ -*----------------------------------*\
| =========                 |                                                 |
| \\      /  F ield         | OpenFOAM: The Open Source CFD Toolbox           |
|  \\    /   O peration     | Version:  2406                                  |
|   \\  /    A nd           | Website:  www.openfoam.com                      |
|    \\/     M anipulation  |                                                 |
\*---------------------------------------------------------------------------*/
FoamFile
{
    version     2.0;
    format      ascii;
    arch        "LSB;label=32;scalar=64";
    class       volScalarField;
    location    "0.004";
    object      dsmcSigmaTcRMax;
}
// * * * * * * * * * * * * * * * * * * * * * * * * * * * * * * * * * * * * * //

dimensions      [0 3 -1 0 0 0 0];

internalField   nonuniform List<scalar> 
654
(
7.980335999e-16
8.510499318e-16
7.882417516e-16
8.185395861e-16
7.921136855e-16
7.795148605e-16
7.636653555e-16
7.907778722e-16
8.40417898e-16
8.568965137e-16
7.834647386e-16
8.169040204e-16
7.929385819e-16
7.868792537e-16
8.172885682e-16
7.971564263e-16
7.977650323e-16
8.124940744e-16
8.211519486e-16
8.184417067e-16
7.564326096e-16
7.515330444e-16
7.853451894e-16
8.011424753e-16
8.685466556e-16
7.920225089e-16
7.506732499e-16
7.508322526e-16
7.85809386e-16
7.725258974e-16
7.737920169e-16
7.863328433e-16
7.620180559e-16
7.40146455e-16
7.811862649e-16
7.406852583e-16
7.731761726e-16
7.682004693e-16
7.803754902e-16
7.691987643e-16
7.620467553e-16
7.725537371e-16
8.07509858e-16
7.393511622e-16
7.862093325e-16
7.707781906e-16
7.874335778e-16
7.489300834e-16
7.64439665e-16
7.728383818e-16
7.712022906e-16
8.25612385e-16
7.885946527e-16
7.818011794e-16
8.018539708e-16
6.928480711e-16
6.992722844e-16
7.473423118e-16
7.017822869e-16
8.236928249e-16
6.818470074e-16
8.225295936e-16
7.905387882e-16
7.419604998e-16
7.96002977e-16
7.669851737e-16
7.480346688e-16
7.464369014e-16
7.120732323e-16
7.483952767e-16
7.968829233e-16
7.935106557e-16
7.901581055e-16
7.879088938e-16
7.777776797e-16
7.649234477e-16
7.851626217e-16
7.504716912e-16
7.781229126e-16
8.098893667e-16
7.92820351e-16
7.811341004e-16
7.578257759e-16
8.117885275e-16
6.847267215e-16
7.87476191e-16
7.156772115e-16
7.131240711e-16
7.631919199e-16
6.970820132e-16
7.705432606e-16
7.701675694e-16
6.813871214e-16
7.35864953e-16
7.430277498e-16
7.362568252e-16
7.090067563e-16
7.299447281e-16
7.556623164e-16
7.425673067e-16
7.563772555e-16
7.615869871e-16
7.543204867e-16
7.541797933e-16
7.929113111e-16
7.647252296e-16
7.786232114e-16
7.897886731e-16
8.523151854e-16
7.499841578e-16
8.476150242e-16
7.753534304e-16
7.882226968e-16
7.660355334e-16
7.914683143e-16
6.68477034e-16
8.668047777e-16
6.859148071e-16
7.810660781e-16
7.292745429e-16
7.628297732e-16
6.982155583e-16
7.108383235e-16
7.497519677e-16
6.996306377e-16
6.995935554e-16
7.589259505e-16
7.319502683e-16
7.261254945e-16
7.507247578e-16
7.960811139e-16
7.256354466e-16
8.27688845e-16
7.078082128e-16
7.632827371e-16
7.948581676e-16
7.234251288e-16
7.593048261e-16
7.924521288e-16
7.513127943e-16
7.97024637e-16
7.691975017e-16
7.253594032e-16
8.019041272e-16
7.337702345e-16
6.239171255e-16
6.98996923e-16
7.14569641e-16
6.478923552e-16
7.386289374e-16
7.053025808e-16
7.116027513e-16
7.900941958e-16
7.349284883e-16
7.412101975e-16
6.809510584e-16
8.530392231e-16
7.185494944e-16
7.220454366e-16
7.292690328e-16
7.969678024e-16
7.36153171e-16
7.311806513e-16
7.618025216e-16
7.646069738e-16
7.342400038e-16
8.267208508e-16
7.690226295e-16
7.7284634e-16
7.997891142e-16
7.503721456e-16
7.537399249e-16
7.889093267e-16
8.011036862e-16
8.322312955e-16
7.75759303e-16
6.808035956e-16
6.300459743e-16
6.321234115e-16
6.746869498e-16
7.300891297e-16
7.217898588e-16
7.12940056e-16
6.778416275e-16
7.295759679e-16
6.963675105e-16
7.429963957e-16
6.952277444e-16
7.476242428e-16
7.470087562e-16
7.865095624e-16
7.624933934e-16
7.53720453e-16
8.020256074e-16
7.307861252e-16
7.672959553e-16
7.595260866e-16
8.065400032e-16
7.575303193e-16
7.738557342e-16
7.67861637e-16
7.37206177e-16
7.660419462e-16
7.698480508e-16
6.062148316e-16
6.374506369e-16
6.766980366e-16
7.761464287e-16
6.836891921e-16
7.70853229e-16
7.430541408e-16
6.745519413e-16
6.803491915e-16
6.952624312e-16
6.511027634e-16
7.115317436e-16
7.214576011e-16
7.157698601e-16
7.728898836e-16
7.135766824e-16
7.746791011e-16
7.986191416e-16
7.379146488e-16
7.167716286e-16
6.956806722e-16
7.13025732e-16
7.933080846e-16
7.34338577e-16
7.441657201e-16
7.573221538e-16
7.651140004e-16
7.445798955e-16
8.010809895e-16
7.222793636e-16
6.455371018e-16
6.220049877e-16
6.128879683e-16
7.362168087e-16
7.428048945e-16
6.467945897e-16
7.045359145e-16
7.205600263e-16
7.041987318e-16
7.29426917e-16
6.791536766e-16
7.062598054e-16
7.927192131e-16
7.548111514e-16
6.55185761e-16
7.75002524e-16
7.75002524e-16
6.93881157e-16
7.453923625e-16
7.561948064e-16
6.879574167e-16
7.012277525e-16
8.000760064e-16
6.917267604e-16
7.463902278e-16
6.994040162e-16
7.347086624e-16
7.623869362e-16
8.048121041e-16
7.147183334e-16
7.099477119e-16
6.106238645e-16
6.854493504e-16
6.926316907e-16
6.93067852e-16
6.127728312e-16
5.982598026e-16
8.167280312e-16
7.265353843e-16
6.762248489e-16
7.122962357e-16
6.962133266e-16
7.308425311e-16
7.124081785e-16
7.518583291e-16
7.315204159e-16
7.42448352e-16
6.719474119e-16
7.204261723e-16
6.755660393e-16
7.608048883e-16
6.759851886e-16
7.432292606e-16
7.560594252e-16
6.983815972e-16
7.085559368e-16
7.872382599e-16
7.542514426e-16
7.521499578e-16
7.335907641e-16
6.37448811e-16
7.220392638e-16
6.674057853e-16
7.484446952e-16
7.054848047e-16
6.456811402e-16
6.554550406e-16
7.726980826e-16
6.513290126e-16
6.457555764e-16
7.04676338e-16
7.209674548e-16
7.202922611e-16
6.756207537e-16
7.719890447e-16
6.621250442e-16
6.999789529e-16
6.558801315e-16
7.41563275e-16
8.236326513e-16
7.335419105e-16
7.24942972e-16
7.231163924e-16
7.235172586e-16
7.418388216e-16
7.28420348e-16
8.058054556e-16
7.239101039e-16
7.478157844e-16
8.102582565e-16
5.849488958e-16
5.85650476e-16
6.138078356e-16
6.871505636e-16
6.312927568e-16
6.413712825e-16
6.504137881e-16
6.334443497e-16
7.237820614e-16
6.0828398e-16
7.378670401e-16
6.980360978e-16
6.848276524e-16
6.303196815e-16
6.768620109e-16
6.752087478e-16
7.404307331e-16
6.951495767e-16
7.592504132e-16
7.172056132e-16
7.405446655e-16
6.743006225e-16
7.755008625e-16
7.322868707e-16
6.95677326e-16
7.39573484e-16
7.188569489e-16
7.74460213e-16
7.532297207e-16
7.410195004e-16
6.358749212e-16
5.997650229e-16
6.499295387e-16
6.774791772e-16
6.372364555e-16
7.1531369e-16
7.733181195e-16
6.310012968e-16
6.891191643e-16
7.222934949e-16
6.383411906e-16
6.602577861e-16
6.694801556e-16
7.316326165e-16
6.662740283e-16
6.889751822e-16
7.280282386e-16
7.177127139e-16
7.16604511e-16
6.790619984e-16
7.381009543e-16
6.855123112e-16
6.747386655e-16
7.286566196e-16
7.236371463e-16
6.936337438e-16
6.803515472e-16
7.743663123e-16
7.67058214e-16
7.190056788e-16
6.072398871e-16
6.606559732e-16
6.097252474e-16
6.108628662e-16
7.581511416e-16
6.314067262e-16
6.685022165e-16
5.918096503e-16
5.858372035e-16
6.047860738e-16
6.707890718e-16
5.852721657e-16
6.14131908e-16
6.113165407e-16
6.375809958e-16
6.987949917e-16
6.254553165e-16
6.951438677e-16
7.187791721e-16
7.250222875e-16
6.622548884e-16
7.547680637e-16
7.286855701e-16
7.66577936e-16
6.761001966e-16
7.462224167e-16
7.347271085e-16
7.114604935e-16
7.02310028e-16
7.130445785e-16
6.30590047e-16
6.475427186e-16
5.954466621e-16
5.929109814e-16
5.808262223e-16
5.946483229e-16
5.965214418e-16
6.249612116e-16
6.283598251e-16
5.977809354e-16
6.324615984e-16
5.848198741e-16
6.864459296e-16
6.40473552e-16
6.185720507e-16
6.262175552e-16
6.766572042e-16
7.001836653e-16
6.975172072e-16
6.703913279e-16
6.975367817e-16
6.87972788e-16
7.066620259e-16
6.367735655e-16
7.226907944e-16
6.809898348e-16
6.923303605e-16
6.811293053e-16
7.286728756e-16
6.810839822e-16
5.944166357e-16
6.001950503e-16
5.52735163e-16
5.993825378e-16
6.354971418e-16
5.825007556e-16
7.173888634e-16
7.034699384e-16
5.675683379e-16
6.197441859e-16
7.876973092e-16
5.702475907e-16
6.77544909e-16
6.901972293e-16
6.795390982e-16
6.151033526e-16
6.220212366e-16
6.910003856e-16
6.551015332e-16
6.689754142e-16
7.661445487e-16
6.762951461e-16
6.695672057e-16
6.694805611e-16
6.83927936e-16
6.818731106e-16
8.118661912e-16
6.937125764e-16
7.087253529e-16
7.118802431e-16
5.74208551e-16
5.892689761e-16
6.303176913e-16
6.457391279e-16
6.729712846e-16
5.826633754e-16
6.047990397e-16
6.085144185e-16
6.026505331e-16
5.979849794e-16
7.12601792e-16
5.825144672e-16
6.557697395e-16
6.204876654e-16
5.835104906e-16
6.92783865e-16
5.981151182e-16
6.672039525e-16
6.504781117e-16
6.574441417e-16
6.563957517e-16
6.153501801e-16
7.128520186e-16
6.676709048e-16
7.566156779e-16
7.566156779e-16
6.341835528e-16
6.787265053e-16
6.656890932e-16
7.205973831e-16
6.083468139e-16
6.283543255e-16
6.677695979e-16
6.305156261e-16
5.789675792e-16
6.335252489e-16
6.771487158e-16
5.88391533e-16
6.09891535e-16
6.340092006e-16
5.726520384e-16
5.795164602e-16
7.374880644e-16
6.384370783e-16
7.766104371e-16
6.583452333e-16
7.277776014e-16
6.469832473e-16
6.464108499e-16
6.439353043e-16
6.062267955e-16
7.152679061e-16
6.830133668e-16
6.736612797e-16
7.906143848e-16
6.798917221e-16
6.893758896e-16
6.703405989e-16
7.201442949e-16
7.294353685e-16
5.854388825e-16
6.114019378e-16
6.103020201e-16
6.455145347e-16
6.868512737e-16
5.771698457e-16
6.480866174e-16
6.109143235e-16
6.249953141e-16
6.225505745e-16
7.698799848e-16
6.719033704e-16
6.064416993e-16
6.029672539e-16
6.272631566e-16
7.456244091e-16
5.914331366e-16
5.880847782e-16
6.495793655e-16
6.236350824e-16
6.842053109e-16
6.519250135e-16
6.248308333e-16
6.951139892e-16
6.534201893e-16
6.518426379e-16
6.93784794e-16
6.942742877e-16
6.851274989e-16
6.709709611e-16
5.892368893e-16
6.072089781e-16
5.804043369e-16
6.253831573e-16
6.157471992e-16
6.283519662e-16
6.198731634e-16
5.602486371e-16
6.140228978e-16
6.622199637e-16
6.285176066e-16
7.060335158e-16
6.468963248e-16
5.601361579e-16
5.78833779e-16
6.071758702e-16
7.002708516e-16
5.867566169e-16
6.123753583e-16
7.453306644e-16
6.850648666e-16
6.22118367e-16
6.305039197e-16
6.12500169e-16
6.655517891e-16
7.303935944e-16
6.74704977e-16
6.121893289e-16
6.963022885e-16
7.075054988e-16
5.846818725e-16
6.124368291e-16
5.662836121e-16
6.214661249e-16
5.830285505e-16
5.992298122e-16
5.853985798e-16
6.264650785e-16
5.901998189e-16
5.971978032e-16
5.80682481e-16
6.232375567e-16
7.140667935e-16
6.7624509e-16
6.63947808e-16
6.449134702e-16
6.343061503e-16
6.81501371e-16
5.994680899e-16
6.783900925e-16
5.64356937e-16
6.407131818e-16
6.312674382e-16
6.665664006e-16
6.489319404e-16
6.902664881e-16
6.172244491e-16
7.04374288e-16
6.448518672e-16
6.773586846e-16
5.781621167e-16
5.664481677e-16
5.737298679e-16
5.678321649e-16
6.17667817e-16
6.336952962e-16
5.792964362e-16
5.627825986e-16
5.686205188e-16
5.785807332e-16
5.952494502e-16
7.025713414e-16
7.015880133e-16
5.6741347e-16
5.532363984e-16
6.791072652e-16
5.670592331e-16
7.082725433e-16
7.097820828e-16
5.980605662e-16
5.895375094e-16
6.481307862e-16
5.856521887e-16
6.500920694e-16
6.096708978e-16
7.570368798e-16
6.156456649e-16
6.971477648e-16
7.357452095e-16
5.865843616e-16
)
;

boundaryField
{
    flow
    {
        type            zeroGradient;
    }
    obstacle
    {
        type            zeroGradient;
    }
    frontAndBack
    {
        type            empty;
    }
    procBoundary3to1
    {
        type            processor;
        value           nonuniform List<scalar> 
36
(
8.304283798e-16
7.861651072e-16
8.443678858e-16
8.550175374e-16
8.243590926e-16
8.243590926e-16
8.255629763e-16
8.176765487e-16
8.479082261e-16
7.976933791e-16
8.263047111e-16
8.040632581e-16
8.040632581e-16
8.009945261e-16
8.281277951e-16
7.769487775e-16
7.916027984e-16
7.383477438e-16
7.383477438e-16
7.955951648e-16
7.698622212e-16
7.476516988e-16
7.592152768e-16
7.585163218e-16
7.718405695e-16
7.718405695e-16
6.95027693e-16
6.862707241e-16
7.722660295e-16
7.618253115e-16
7.884482978e-16
7.619876632e-16
7.239351027e-16
7.239351027e-16
7.520028169e-16
7.520028169e-16
)
;
    }
    procBoundary3to2
    {
        type            processor;
        value           nonuniform List<scalar> 
19
(
6.553724077e-16
6.930314524e-16
6.355903735e-16
6.190047568e-16
8.138014578e-16
5.934098666e-16
5.822443239e-16
5.843099207e-16
6.014207267e-16
6.432487934e-16
6.261642539e-16
6.586513849e-16
5.687664796e-16
5.75415477e-16
5.805987508e-16
5.930087405e-16
6.048617585e-16
6.049944151e-16
6.047924544e-16
)
;
    }
}


// ************************************************************************* //
