/*--------------------------------*- C++ -*----------------------------------*\
| =========                 |                                                 |
| \\      /  F ield         | OpenFOAM: The Open Source CFD Toolbox           |
|  \\    /   O peration     | Version:  2406                                  |
|   \\  /    A nd           | Website:  www.openfoam.com                      |
|    \\/     M anipulation  |                                                 |
\*---------------------------------------------------------------------------*/
FoamFile
{
    version     2.0;
    format      ascii;
    arch        "LSB;label=32;scalar=64";
    class       volScalarField;
    location    "0.004";
    object      iDof;
}
// * * * * * * * * * * * * * * * * * * * * * * * * * * * * * * * * * * * * * //

dimensions      [0 -3 0 0 0 0 0];

internalField   nonuniform List<scalar> 
654
(
6.552635142e+20
5.493406774e+20
5.265994252e+20
4.754735161e+20
3.669506496e+20
5.69794355e+20
4.430818643e+20
4.731748876e+20
5.303045403e+20
4.279510451e+20
5.396547831e+20
3.811182555e+20
4.394725342e+20
6.374624564e+20
4.195354554e+20
5.64539461e+20
5.128149242e+20
1.499953123e+20
3.276661727e+20
3.049725697e+20
2.56271762e+20
2.584356495e+20
3.648909501e+20
2.628749375e+20
3.181827215e+20
4.279510451e+20
3.777583482e+20
5.444546507e+20
4.669395717e+20
4.157363883e+20
5.034425464e+20
5.927664394e+20
5.413046422e+20
9.532525688e+19
4.323298936e+20
2.420829896e+20
3.41618197e+20
1.721818192e+20
2.975601965e+20
2.999906246e+20
2.520509041e+20
1.779006671e+20
2.818989382e+20
3.876534743e+20
3.909545862e+20
3.680249126e+20
3.446979512e+20
4.012041048e+20
3.777583482e+20
4.083409916e+20
3.296044064e+20
4.157363846e+20
4.195354516e+20
4.798585418e+20
5.128149242e+20
2.485950538e+20
1.593736392e+20
2.064446549e+20
2.773380498e+20
1.862987938e+20
1.877271253e+20
1.891775263e+20
3.098070848e+20
9.607331042e+19
1.694580953e+20
1.708090998e+20
9.838961099e+19
2.727635156e+20
1.749945324e+20
4.536916237e+20
3.303869478e+20
4.100348125e+20
2.584356474e+20
3.38827308e+20
2.891624289e+20
3.446979454e+20
3.209632811e+20
3.777583482e+20
5.444546507e+20
4.944066009e+20
3.880206256e+20
3.076593339e+20
5.363124879e+20
4.273457662e+20
1.346034123e+20
1.129977501e+20
2.276766242e+20
1.835063586e+20
3.004495539e+20
3.260228867e+20
1.407953419e+20
3.31060666e+20
1.429878842e+20
2.401832742e+20
1.210414948e+20
3.172168948e+20
1.967792189e+20
3.471535598e+20
2.499921892e+20
2.016407249e+20
1.524862861e+20
1.28135881e+20
1.809049562e+20
4.952091508e+20
3.417374217e+20
2.121218161e+20
3.744571645e+20
4.587065696e+20
4.083409951e+20
3.570714403e+20
4.711679067e+20
3.076593339e+20
7.621282723e+20
3.703663341e+20
2.019051184e+20
2.259955018e+20
1.593736392e+20
2.293829499e+20
3.466725622e+20
2.794481886e+20
1.877271239e+20
3.547078618e+20
2.14481828e+20
3.362565839e+20
2.904995875e+20
1.464077987e+20
2.459740275e+20
1.487800982e+20
2.249929685e+20
1.764356314e+20
2.287294272e+20
3.84407643e+20
3.618099093e+20
1.824454736e+20
2.365874418e+20
3.977284019e+20
4.546979854e+20
2.968101307e+20
2.994500579e+20
4.120055044e+20
4.434521475e+20
5.034425464e+20
4.234045996e+20
5.413046422e+20
2.916407287e+20
2.033959516e+20
2.276766258e+20
1.605680649e+20
1.61780529e+20
1.630114445e+20
2.815906858e+20
9.458876244e+19
9.532525688e+19
1.921466194e+20
2.178746923e+20
2.928155997e+20
1.475844165e+20
3.223568795e+20
1.499953123e+20
2.016407233e+20
2.033150481e+20
2.050174096e+20
3.618099093e+20
1.824454736e+20
2.1029995e+20
7.954568105e+19
5.081918661e+20
3.777583482e+20
3.266727933e+20
4.39472538e+20
4.711679026e+20
3.91566425e+20
4.234045957e+20
4.273457701e+20
2.916407266e+20
1.355973011e+20
2.959796157e+20
1.605680649e+20
1.155575207e+20
1.397240943e+20
1.877271239e+20
1.891775263e+20
2.859757706e+20
3.122382589e+20
1.69458094e+20
1.952103968e+20
2.459740255e+20
2.231701474e+20
3.249898459e+20
3.528712657e+20
2.54143806e+20
1.793902319e+20
2.842792145e+20
2.60636393e+20
1.314374699e+20
7.954568038e+19
2.674694009e+20
2.428446524e+20
3.266727904e+20
1.922692354e+20
2.771575922e+20
4.754735161e+20
4.516315688e+20
3.41876613e+20
2.019051184e+20
3.841923503e+20
3.187472738e+20
9.175317928e+19
1.848920346e+20
2.328734939e+20
1.173294533e+20
1.418831447e+20
1.668191995e+20
2.401832742e+20
2.662912906e+20
1.952103998e+20
1.96779222e+20
2.231701474e+20
1.999937497e+20
3.024610849e+20
2.033150481e+20
3.075261144e+20
2.067485196e+20
2.345727517e+20
2.628749353e+20
2.386370411e+20
3.209632838e+20
2.428446524e+20
1.088909301e+20
2.746703339e+20
4.157363809e+20
2.796903011e+20
4.798585418e+20
3.703663341e+20
2.243390221e+20
2.033959531e+20
1.366059765e+20
2.981978327e+20
2.311150398e+20
3.027355376e+20
1.407953419e+20
2.128247139e+20
1.429878842e+20
1.681282919e+20
1.694580927e+20
3.172168948e+20
2.459740255e+20
1.239834152e+20
2.999906246e+20
1.26025451e+20
3.558013313e+20
1.537630572e+20
2.584356495e+20
2.085091126e+20
2.628749375e+20
1.856065891e+20
2.674694032e+20
1.618964349e+20
3.53895526e+20
2.472033048e+20
3.603048699e+20
1.398451518e+20
1.693618398e+20
5.413046422e+20
2.019051199e+20
1.355973011e+20
1.593736392e+20
1.835063599e+20
1.61780529e+20
2.561608395e+20
2.581247953e+20
2.601190987e+20
2.383131422e+20
3.362565839e+20
2.178746923e+20
2.196116998e+20
2.213766247e+20
1.239834152e+20
2.499921892e+20
7.561527183e+19
1.27071904e+20
3.331532879e+20
2.325920846e+20
4.170182287e+20
3.154499251e+20
1.32576134e+20
1.604816419e+20
2.698273939e+20
2.722273277e+20
5.493406725e+19
1.385787961e+20
3.915664285e+20
2.540427597e+20
2.848971775e+20
2.243390205e+20
2.259955002e+20
2.276766258e+20
1.835063599e+20
1.61780529e+20
2.09586143e+20
1.173294524e+20
2.364719061e+20
1.191565711e+20
2.642016016e+20
2.178746906e+20
2.196116981e+20
1.229870128e+20
2.727635113e+20
2.749914059e+20
2.016407216e+20
3.049725697e+20
1.537630572e+20
1.809049562e+20
1.824454751e+20
2.365874438e+20
1.590913621e+20
2.139755226e+20
2.158619132e+20
4.900091899e+20
3.570714372e+20
1.385787949e+20
2.237522429e+20
4.234045957e+20
2.848971801e+20
2.243390221e+20
3.163937048e+20
1.821413007e+20
2.064446534e+20
1.386690249e+20
1.397240943e+20
2.346589049e+20
2.128247171e+20
2.859757706e+20
1.441099656e+20
1.694580953e+20
1.464077987e+20
1.721818179e+20
1.735767813e+20
1.74994531e+20
2.520509041e+20
1.01657524e+20
1.793902334e+20
2.584356495e+20
1.824454751e+20
2.891624313e+20
7.95456797e+19
1.337347005e+20
3.237928699e+20
4.355637205e+20
1.373351681e+20
2.49441833e+20
3.635973946e+20
1.129078922e+20
2.848971775e+20
1.570373143e+20
1.807964001e+20
1.138383129e+20
1.835063599e+20
2.311150415e+20
3.260228891e+20
1.877271253e+20
2.601190987e+20
2.14481828e+20
2.401832742e+20
2.420829896e+20
2.440129979e+20
1.96779222e+20
1.983734643e+20
1.499953123e+20
1.764356314e+20
2.287294272e+20
1.28135881e+20
2.325920846e+20
2.867000299e+20
2.1029995e+20
2.386370432e+20
2.407224629e+20
2.158619132e+20
2.450045928e+20
1.373351669e+20
2.217260718e+20
1.957832125e+20
2.258157864e+20
1.994280279e+20
1.794712164e+20
2.48595052e+20
1.82141302e+20
2.293829499e+20
1.848920346e+20
2.09586143e+20
2.581247934e+20
3.547078591e+20
1.906505138e+20
1.441099645e+20
3.389161854e+20
1.952103983e+20
1.721818192e+20
1.487800982e+20
1.499953135e+20
1.512305437e+20
1.779006656e+20
1.793902319e+20
2.067485196e+20
3.648909471e+20
1.05149975e+20
2.386370432e+20
1.872285822e+20
1.618964349e+20
4.355637243e+20
2.472033048e+20
1.662945538e+20
1.957832107e+20
2.258157844e+20
2.27917742e+20
2.467729243e+20
1.807964015e+20
2.049089632e+20
2.981978349e+20
1.848920332e+20
2.328734905e+20
1.642612334e+20
2.364719061e+20
1.668191983e+20
2.401832742e+20
1.69458094e+20
2.440129979e+20
9.838961021e+19
1.735767813e+20
1.74994531e+20
1.764356314e+20
1.524862848e+20
1.793902334e+20
1.809049547e+20
1.303181965e+20
1.840124563e+20
3.181827215e+20
1.337347016e+20
1.618964363e+20
3.811182588e+20
2.472033026e+20
1.940103145e+20
1.678141821e+20
2.540427574e+20
1.709383081e+20
1.346034123e+20
2.937941524e+20
1.138383129e+20
1.376297689e+20
1.848920332e+20
1.397240953e+20
9.386356194e+19
2.837662873e+20
1.429878853e+20
1.441099656e+20
2.178746923e+20
3.172168972e+20
2.459740275e+20
1.239834162e+20
1.749945324e+20
2.268458137e+20
1.524862861e+20
1.537630559e+20
2.584356474e+19
2.867000299e+20
2.365874438e+20
3.446979483e+20
1.337347005e+20
1.349136958e+20
1.633363966e+20
1.922692354e+20
2.771575897e+20
3.076593339e+20
2.258157844e+20
1.994280242e+20
1.794712164e+20
1.129977501e+20
2.276766258e+20
1.605680649e+20
2.311150415e+20
2.095861414e+20
1.642612334e+20
1.182359539e+20
3.336383991e+20
1.681282919e+20
1.452497949e+20
7.320389993e+19
2.95168833e+20
1.983734643e+20
2.749914081e+20
1.512305424e+20
1.779006642e+20
1.793902319e+20
1.809049547e+20
2.606363908e+20
1.577249612e+20
3.712131751e+20
4.012041048e+20
1.888791741e+20
3.538955229e+20
1.373351681e+20
1.940103145e+20
1.957832125e+20
8.468091991e+19
3.13386901e+20
3.140746332e+20
1.807964028e+20
2.504442902e+20
1.605680649e+20
1.155575207e+20
2.561608395e+20
3.754542478e+20
7.094157237e+19
9.532525688e+19
1.681282919e+20
7.262489688e+19
1.464077976e+20
1.721818179e+20
2.727635134e+20
2.749914059e+20
1.008203616e+20
2.033150481e+20
3.84407643e+20
5.168712991e+19
1.042545572e+20
1.840124578e+20
2.386370432e+20
1.872285822e+20
1.618964349e+20
2.177818603e+20
1.648022018e+20
1.940103145e+20
1.678141821e+20
2.258157844e+20
1.13958871e+20
3.140746287e+20
1.581968501e+20
2.73211951e+20
2.064446549e+20
1.61780529e+20
1.630114445e+20
1.642612334e+20
2.128247155e+20
1.906505138e+20
7.205498226e+19
2.420829915e+20
2.196116998e+20
1.475844153e+20
2.479668284e+20
1.999937497e+20
3.780763531e+20
3.049725697e+20
1.537630572e+20
1.55061391e+20
1.563818358e+20
2.102999483e+20
1.060609072e+20
1.604816419e+20
1.888791741e+20
2.994500605e+20
2.746703363e+20
1.385787949e+20
3.356283643e+20
1.975888113e+20
1.994280261e+20
8.973560819e+19
1.581968513e+20
2.504442884e+20
2.52321243e+20
2.773380518e+20
1.164367461e+20
3.050565763e+20
1.418831437e+20
1.429878842e+20
1.921466208e+20
1.69458094e+20
2.440129979e+20
1.96779222e+20
1.487800982e+20
1.249960936e+20
2.268458137e+20
2.287294291e+20
1.793902334e+20
1.292178248e+20
1.563818345e+20
7.886248126e+19
1.856065875e+20
2.674694009e+20
1.079309575e+20
1.088909311e+20
1.648022018e+20
3.325891077e+20
1.398451505e+20
2.540427574e+20
1.709383065e+20
2.467729243e+20
1.581968513e+20
6.830298775e+19
2.523212449e+20
1.386690249e+20
2.794481907e+20
9.386356194e+19
4.492966216e+20
3.098070848e+20
1.921466194e+20
2.662912906e+20
1.464077987e+20
2.21376623e+20
1.735767813e+20
1.999937513e+20
2.268458137e+20
2.54143806e+20
1.281358799e+20
1.292178248e+20
2.345727537e+20
1.840124563e+20
1.856065875e+20
1.337347016e+20
8.094821746e+19
4.900091899e+20
1.922692354e+20
1.385787949e+20
1.398451518e+20
1.975888131e+20
1.994280279e+20
2.916407266e+20
1.581968513e+20
2.73211953e+20
2.293829499e+20
2.311150415e+20
1.397240943e+20
9.386356194e+19
1.418831447e+20
3.098070848e+20
1.441099645e+20
1.210414948e+20
2.440129979e+20
2.459740275e+20
1.983734643e+20
2.749914059e+20
3.024610849e+20
2.287294291e+20
1.537630572e+20
2.842792145e+20
1.824454736e+20
1.314374688e+20
2.121218161e+20
2.674694032e+20
1.888791741e+20
3.266727904e+20
3.021373699e+20
1.385787961e+20
1.398451518e+20
1.975888113e+20
1.709383065e+20
)
;

boundaryField
{
    flow
    {
        type            zeroGradient;
    }
    obstacle
    {
        type            calculated;
        value           nonuniform List<scalar> 0();
    }
    frontAndBack
    {
        type            empty;
    }
    procBoundary3to1
    {
        type            processor;
        value           nonuniform List<scalar> 
36
(
5.128149242e+20
4.669395676e+20
3.325891077e+20
3.076593339e+20
5.64539461e+20
5.64539461e+20
6.77654616e+20
5.783248577e+20
3.181827188e+20
6.419265622e+20
4.85689309e+20
5.444546602e+20
5.444546602e+20
3.999875027e+20
3.024610873e+20
3.049725697e+20
2.306445839e+20
3.101227794e+20
3.101227794e+20
1.429878853e+20
2.161649468e+20
3.389161881e+20
4.392233962e+20
2.459740255e+20
1.983734643e+20
1.983734643e+20
2.033959502e+20
2.504442884e+20
9.175317996e+19
2.311150432e+20
1.630114445e+20
1.407953429e+20
1.891775263e+20
1.891775263e+20
2.019051199e+20
2.019051199e+20
)
;
    }
    procBoundary3to2
    {
        type            processor;
        value           nonuniform List<scalar> 
19
(
2.227066471e+20
6.681199412e+19
1.781653177e+20
1.558946518e+20
2.227066471e+20
1.336239882e+20
1.113533243e+20
1.55894653e+20
1.336239882e+20
2.895186412e+20
1.781653177e+20
1.336239882e+20
2.449773118e+20
2.004359809e+20
1.558946541e+20
2.004359824e+20
1.781653177e+20
1.336239882e+20
1.55894653e+20
)
;
    }
}


// ************************************************************************* //
