/*--------------------------------*- C++ -*----------------------------------*\
| =========                 |                                                 |
| \\      /  F ield         | OpenFOAM: The Open Source CFD Toolbox           |
|  \\    /   O peration     | Version:  2406                                  |
|   \\  /    A nd           | Website:  www.openfoam.com                      |
|    \\/     M anipulation  |                                                 |
\*---------------------------------------------------------------------------*/
FoamFile
{
    version     2.0;
    format      ascii;
    arch        "LSB;label=32;scalar=64";
    class       volScalarField;
    location    "0.004";
    object      iDofMean;
}
// * * * * * * * * * * * * * * * * * * * * * * * * * * * * * * * * * * * * * //

dimensions      [0 -3 0 0 0 0 0];

internalField   nonuniform List<scalar> 
654
(
4.773024907e+20
4.759487629e+20
4.87132184e+20
4.813050589e+20
4.820179053e+20
4.866043792e+20
3.918668135e+20
4.067332471e+20
4.224538545e+20
4.421001766e+20
4.57586782e+20
4.684896155e+20
4.70592683e+20
4.735514578e+20
4.863674534e+20
4.878326617e+20
4.866328733e+20
2.824536727e+20
2.98428268e+20
3.11669259e+20
3.227742842e+20
3.423238614e+20
3.639135637e+20
3.809715032e+20
3.9312801e+20
4.096962584e+20
4.290930094e+20
4.459900271e+20
4.625173792e+20
4.678420156e+20
4.716697279e+20
4.773322321e+20
4.767754309e+20
2.217027162e+20
2.277297714e+20
2.304266937e+20
2.398403756e+20
2.453959885e+20
2.529137687e+20
2.590794032e+20
2.731727698e+20
2.880465944e+20
3.054631267e+20
3.204472836e+20
3.332887847e+20
3.545131408e+20
3.706961313e+20
3.847279896e+20
3.973747995e+20
4.15677518e+20
4.348168797e+20
4.521964655e+20
4.616707955e+20
4.66549524e+20
4.762483711e+20
2.023902731e+20
2.029623296e+20
2.024763299e+20
2.056230524e+20
2.087128674e+20
2.101370509e+20
2.151184946e+20
2.162691765e+20
2.205723116e+20
2.258997453e+20
2.295064269e+20
2.3553243e+20
2.426727405e+20
2.525671087e+20
2.599779029e+20
2.698880148e+20
2.798615731e+20
2.941643756e+20
3.108219278e+20
3.275816007e+20
3.460369643e+20
3.612441729e+20
3.787162354e+20
3.972205018e+20
4.128157783e+20
4.278481713e+20
4.412394229e+20
4.546941954e+20
4.61590407e+20
2.027239558e+20
2.036784445e+20
2.063433245e+20
2.065364066e+20
2.074835285e+20
2.070943951e+20
2.091514803e+20
2.10980233e+20
2.130757788e+20
2.176420739e+20
2.208523114e+20
2.262488499e+20
2.315722445e+20
2.36039624e+20
2.416174508e+20
2.490388978e+20
2.544741971e+20
2.651772057e+20
2.746912542e+20
2.835723979e+20
3.003214749e+20
3.166183258e+20
3.366904848e+20
3.506811724e+20
3.677382888e+20
3.873538451e+20
4.00465005e+20
4.192837341e+20
4.292899196e+20
4.461917186e+20
2.028697762e+20
2.019043813e+20
2.018239464e+20
2.035429606e+20
2.056923869e+20
2.060697517e+20
2.079429885e+20
2.102353497e+20
2.124323349e+20
2.165132125e+20
2.184193774e+20
2.203681384e+20
2.235043001e+20
2.278319238e+20
2.301928059e+20
2.363607334e+20
2.424023641e+20
2.475200813e+20
2.566266e+20
2.675693188e+20
2.769781756e+20
2.919061318e+20
3.075229463e+20
3.263967042e+20
3.459873191e+20
3.60600951e+20
3.823666142e+20
3.981251626e+20
4.14513103e+20
4.259070394e+20
2.035091439e+20
2.05791504e+20
2.066848409e+20
2.069263591e+20
2.09043555e+20
2.088176605e+20
2.076144661e+20
2.081898661e+20
2.067247352e+20
2.066056525e+20
2.0830031e+20
2.120960994e+20
2.144770533e+20
2.183719892e+20
2.245054837e+20
2.278666198e+20
2.343714217e+20
2.418180346e+20
2.433559294e+20
2.507322079e+20
2.634532624e+20
2.744060844e+20
2.822604612e+20
2.989822412e+20
3.151031318e+20
3.273933073e+20
3.487751109e+20
3.656111648e+20
3.841832167e+20
3.993118876e+20
2.044962341e+20
2.049666204e+20
2.064116305e+20
2.05676222e+20
2.042941409e+20
2.048355222e+20
2.058779902e+20
2.068419778e+20
2.088814691e+20
2.106047056e+20
2.094017876e+20
2.106808207e+20
2.127183373e+20
2.126935488e+20
2.144932983e+20
2.193472993e+20
2.237736212e+20
2.284150196e+20
2.371922391e+20
2.435516774e+20
2.473916058e+20
2.573170184e+20
2.685927724e+20
2.74697776e+20
2.869548236e+20
3.051450101e+20
3.200338717e+20
3.38145577e+20
3.588777353e+20
3.795969993e+20
2.003683961e+20
1.992150334e+20
2.00173288e+20
1.99804017e+20
2.030114539e+20
2.036944452e+20
2.059366564e+20
2.059433846e+20
2.061646993e+20
2.051525437e+20
2.065573125e+20
2.064593991e+20
2.067411701e+20
2.089864447e+20
2.116933841e+20
2.122142587e+20
2.160095314e+20
2.223413807e+20
2.260407409e+20
2.304677286e+20
2.375995103e+20
2.440196322e+20
2.562490617e+20
2.68019548e+20
2.781346583e+20
2.909170841e+20
3.061066973e+20
3.201894567e+20
3.318927491e+20
3.463210121e+20
2.020509402e+20
2.024693715e+20
2.02529744e+20
2.007559563e+20
2.00584743e+20
2.000266846e+20
1.98099046e+20
2.001498198e+20
2.023040249e+20
2.053326811e+20
2.04947459e+20
2.041534731e+20
2.048717659e+20
2.055645024e+20
2.066560415e+20
2.082696604e+20
2.098592495e+20
2.139612941e+20
2.193731011e+20
2.249683007e+20
2.290035018e+20
2.346332439e+20
2.425813752e+20
2.529631796e+20
2.613790687e+20
2.70083344e+20
2.832412013e+20
2.959403102e+20
3.162973494e+20
3.335148839e+20
2.009741129e+20
1.992828335e+20
1.975094743e+20
1.994140675e+20
2.009429728e+20
2.027629482e+20
2.032967422e+20
2.026091307e+20
2.008979789e+20
1.982352654e+20
2.021635062e+20
2.043974893e+20
2.053145207e+20
2.059736477e+20
2.072810237e+20
2.123276833e+20
2.138238929e+20
2.138075293e+20
2.173314595e+20
2.173577199e+20
2.254284027e+20
2.308945949e+20
2.339421135e+20
2.392694415e+20
2.476179773e+20
2.57311171e+20
2.665563143e+20
2.800539035e+20
2.92389103e+20
3.093128656e+20
1.983156941e+20
2.001868141e+20
2.011409151e+20
2.014096992e+20
1.987704914e+20
1.986876636e+20
1.974420025e+20
1.976077483e+20
1.976211732e+20
2.001327132e+20
1.997910913e+20
2.011033122e+20
2.048717659e+20
2.054157207e+20
2.06543545e+20
2.069463931e+20
2.097194704e+20
2.129490206e+20
2.151347582e+20
2.193906838e+20
2.213275537e+20
2.222373752e+20
2.270012825e+20
2.308508248e+20
2.36946666e+20
2.454454125e+20
2.532250319e+20
2.65314222e+20
2.772735563e+20
2.875609687e+20
2.001552755e+20
1.996218282e+20
1.989552195e+20
1.989094235e+20
1.987242684e+20
1.977678118e+20
1.987208936e+20
1.974895139e+20
1.987174136e+20
2.021862818e+20
2.021635078e+20
2.009203025e+20
1.987470126e+20
2.013986597e+20
2.044686099e+20
2.083452773e+20
2.085377034e+20
2.10014709e+20
2.092424236e+20
2.120407375e+20
2.109045624e+20
2.145214405e+20
2.199400884e+20
2.235789766e+20
2.303451513e+20
2.366971623e+20
2.428039086e+20
2.505465739e+20
2.589260238e+20
2.725896194e+20
1.976875448e+20
1.968646802e+20
1.969744328e+20
1.979345475e+20
1.970486844e+20
1.995027208e+20
2.021821139e+20
2.039215498e+20
2.019823037e+20
2.014657304e+20
2.020787756e+20
2.038606591e+20
2.042691311e+20
2.078210006e+20
2.049935935e+20
2.054971004e+20
2.046493014e+20
2.039026274e+20
2.046422691e+20
2.045865349e+20
2.057259261e+20
2.113131017e+20
2.126114286e+20
2.161317406e+20
2.208716404e+20
2.275643716e+20
2.336854218e+20
2.413447629e+20
2.462803421e+20
2.54427429e+20
2.004581317e+20
1.999156209e+20
1.987844635e+20
1.990585239e+20
2.008043053e+20
2.015869385e+20
2.012904071e+20
2.025145404e+20
2.038053992e+20
2.03927609e+20
2.027687121e+20
2.036288467e+20
2.040969493e+20
2.029112573e+20
2.03043656e+20
2.027875565e+20
2.028702948e+20
2.055683922e+20
2.063608662e+20
2.084309217e+20
2.100502188e+20
2.116047692e+20
2.140825103e+20
2.178856187e+20
2.180540895e+20
2.191182627e+20
2.225159709e+20
2.287027592e+20
2.383344469e+20
2.45780795e+20
2.042158118e+20
2.063790923e+20
2.075727798e+20
2.047242828e+20
2.03543017e+20
2.021691208e+20
2.001992447e+20
1.998778786e+20
1.997064116e+20
2.007091531e+20
2.009167788e+20
1.992488134e+20
1.988085061e+20
1.990925681e+20
2.001812439e+20
2.019179776e+20
2.027051013e+20
2.03108185e+20
2.066709889e+20
2.07740237e+20
2.106942624e+20
2.111009781e+20
2.115549245e+20
2.120438575e+20
2.133717795e+20
2.142291288e+20
2.165016531e+20
2.237102893e+20
2.252935854e+20
2.339433194e+20
2.012657522e+20
2.009665e+20
2.026208132e+20
2.027859954e+20
2.027456701e+20
2.05755374e+20
2.044583038e+20
2.038506066e+20
2.008145693e+20
2.005530355e+20
2.004084045e+20
2.014815323e+20
2.026825986e+20
2.027004871e+20
2.031186537e+20
2.026111192e+20
2.028830036e+20
2.039026258e+20
2.041641614e+20
2.040391985e+20
2.04227539e+20
2.045384595e+20
2.05363006e+20
2.07200454e+20
2.12242036e+20
2.13624854e+20
2.174994185e+20
2.188716471e+20
2.222874128e+20
2.264932561e+20
1.982596093e+20
1.958928996e+20
1.95949888e+20
1.964435583e+20
1.966904561e+20
1.960911227e+20
1.961983103e+20
1.977259858e+20
1.995634253e+20
1.972385048e+20
1.979996787e+20
1.98516776e+20
1.988700012e+20
1.972700119e+20
1.995062666e+20
1.989689837e+20
1.99388523e+20
2.023778088e+20
2.008174215e+20
2.031660666e+20
2.04345831e+20
2.04896415e+20
2.052693935e+20
2.067822215e+20
2.085669653e+20
2.090653265e+20
2.102933231e+20
2.138651906e+20
2.198034411e+20
2.220346193e+20
1.96476117e+20
1.962092961e+20
1.971565756e+20
1.965238423e+20
1.97672695e+20
1.984082139e+20
1.982633087e+20
1.978796925e+20
1.98634004e+20
1.9974842e+20
2.002147366e+20
1.97430915e+20
1.965209477e+20
1.987702112e+20
1.986687911e+20
1.995234957e+20
2.011548257e+20
2.000072966e+20
2.007915779e+20
2.024753819e+20
2.01611935e+20
2.03345276e+20
2.032901199e+20
2.044347232e+20
2.069336014e+20
2.09477332e+20
2.094895661e+20
2.099075728e+20
2.121680429e+20
2.160517746e+20
1.991008807e+20
1.988986397e+20
1.970199682e+20
1.980721772e+20
1.970949074e+20
1.98850675e+20
2.011730791e+20
2.034486044e+20
2.017439905e+20
2.036153707e+20
2.032891921e+20
2.054833471e+20
2.069871425e+20
2.053289323e+20
2.032436482e+20
2.038335645e+20
2.025399078e+20
2.008273663e+20
2.007786578e+20
1.991652997e+20
2.024794189e+20
2.038490636e+20
2.062857772e+20
2.05959248e+20
2.066613758e+20
2.096421342e+20
2.110416467e+20
2.153055957e+20
2.162750675e+20
2.174905073e+20
2.038568679e+20
2.038479426e+20
2.053757003e+20
2.057335662e+20
2.053688274e+20
2.023554211e+20
2.005864319e+20
1.995704651e+20
2.002783632e+20
2.000486506e+20
1.990648439e+20
1.996392342e+20
2.005057285e+20
2.017706099e+20
2.01968688e+20
2.031530287e+20
2.037216782e+20
2.042870351e+20
2.044355206e+20
2.044562168e+20
2.029657393e+20
2.030536068e+20
2.039855386e+20
2.038815788e+20
2.034899275e+20
2.057006148e+20
2.062052468e+20
2.050409597e+20
2.054641368e+20
2.089293451e+20
2.018153843e+20
1.999382205e+20
2.006400265e+20
2.007215503e+20
2.00561633e+20
2.028910301e+20
2.027570267e+20
2.007528247e+20
2.008145693e+20
2.013096113e+20
2.00614175e+20
2.017621473e+20
2.012559477e+20
2.018449999e+20
2.010312189e+20
2.000149949e+20
2.012056512e+20
2.023265544e+20
2.034663869e+20
2.036352138e+20
2.032286142e+20
2.013168594e+20
2.01444581e+20
2.044212318e+20
2.06593319e+20
2.04217395e+20
2.062606783e+20
2.078238801e+20
2.10897831e+20
2.121059525e+20
1.938401306e+20
1.959381001e+20
1.95847435e+20
1.961568296e+20
1.949339817e+20
1.943795025e+20
1.956116631e+20
1.984708723e+20
1.979548116e+20
1.977428896e+20
1.985443639e+20
1.970404958e+20
1.968776116e+20
1.962037546e+20
1.97456329e+20
1.992336371e+20
1.969614528e+20
1.958300669e+20
1.947571055e+20
1.953730385e+20
1.973402156e+20
2.008661023e+20
1.993716931e+20
1.991595977e+20
1.969564699e+20
1.98504252e+20
2.00287934e+20
2.00817638e+20
2.018934247e+20
2.05211437e+20
)
;

boundaryField
{
    flow
    {
        type            calculated;
        value           nonuniform List<scalar> 
55
(
4.773024907e+20
4.866043792e+20
4.866328733e+20
4.767754309e+20
4.762483711e+20
4.61590407e+20
4.461917186e+20
4.259070394e+20
3.993118876e+20
3.795969993e+20
3.463210121e+20
3.335148839e+20
3.093128656e+20
2.875609687e+20
2.725896194e+20
2.54427429e+20
2.45780795e+20
2.339433194e+20
2.264932561e+20
2.220346193e+20
2.160517746e+20
2.174905073e+20
2.089293451e+20
2.121059525e+20
2.05211437e+20
1.938401306e+20
1.959381001e+20
1.95847435e+20
1.961568296e+20
1.949339817e+20
1.943795025e+20
1.956116631e+20
1.984708723e+20
1.979548116e+20
1.977428896e+20
1.985443639e+20
1.970404958e+20
1.968776116e+20
1.962037546e+20
1.97456329e+20
1.992336371e+20
1.969614528e+20
1.958300669e+20
1.947571055e+20
1.953730385e+20
1.973402156e+20
2.008661023e+20
1.993716931e+20
1.991595977e+20
1.969564699e+20
1.98504252e+20
2.00287934e+20
2.00817638e+20
2.018934247e+20
2.05211437e+20
)
;
    }
    obstacle
    {
        type            calculated;
        value           nonuniform List<scalar> 0();
    }
    frontAndBack
    {
        type            empty;
    }
    procBoundary3to1
    {
        type            processor;
        value           nonuniform List<scalar> 
36
(
4.651658708e+20
4.834884552e+20
4.84914919e+20
4.850109554e+20
4.822578345e+20
4.822578345e+20
4.085214789e+20
4.220325649e+20
4.451906541e+20
4.540426815e+20
4.64669755e+20
4.697010353e+20
4.697010353e+20
3.030280321e+20
3.191720624e+20
3.318609846e+20
3.52181466e+20
3.683612531e+20
3.683612531e+20
2.266834609e+20
2.293269902e+20
2.425066367e+20
2.47770798e+20
2.539927788e+20
2.6755621e+20
2.6755621e+20
2.051700148e+20
2.047268219e+20
2.067084453e+20
2.09910238e+20
2.105758553e+20
2.145251708e+20
2.182753946e+20
2.182753946e+20
2.00503001e+20
2.00503001e+20
)
;
    }
    procBoundary3to2
    {
        type            processor;
        value           nonuniform List<scalar> 
19
(
2.029637028e+20
2.011375083e+20
2.039213414e+20
2.046562719e+20
1.995896971e+20
2.034536574e+20
1.993558565e+20
1.987434118e+20
2.000462457e+20
1.990997425e+20
1.999237571e+20
2.024292069e+20
2.010150196e+20
1.992556357e+20
1.946344756e+20
2.001241931e+20
2.00391441e+20
2.027966728e+20
1.943672262e+20
)
;
    }
}


// ************************************************************************* //
