/*--------------------------------*- C++ -*----------------------------------*\
| =========                 |                                                 |
| \\      /  F ield         | OpenFOAM: The Open Source CFD Toolbox           |
|  \\    /   O peration     | Version:  2406                                  |
|   \\  /    A nd           | Website:  www.openfoam.com                      |
|    \\/     M anipulation  |                                                 |
\*---------------------------------------------------------------------------*/
FoamFile
{
    version     2.0;
    format      ascii;
    arch        "LSB;label=32;scalar=64";
    class       volScalarField;
    location    "0.004";
    object      internalE;
}
// * * * * * * * * * * * * * * * * * * * * * * * * * * * * * * * * * * * * * //

dimensions      [1 -1 -2 0 0 0 0];

internalField   nonuniform List<scalar> 
654
(
2.183476194
2.75488616
2.434768015
1.9632852
2.909138858
2.84623537
2.091987033
2.296261515
3.243317289
1.743126672
2.593724266
1.763659163
2.441555944
2.811043738
1.990620224
1.851538865
3.171626431
0.7691784372
1.233527949
1.030250429
1.58061452
0.8506670565
1.243703005
0.4297605233
1.063005312
1.840759277
1.660792111
1.760000048
2.791290683
1.572760105
2.662561739
3.291187975
2.493408283
0.09853344649
1.050394892
0.5183934113
1.206183531
0.3589767101
0.4435066081
0.9487870909
0.2845333361
0.4729556546
0.5247548859
1.080420248
0.8396832595
1.224925008
1.297161033
1.088876857
1.327538879
1.235563607
0.9695324643
2.231041429
1.599183023
2.186078258
2.029908082
0.6281396849
0.4042099067
0.456761954
0.5131514843
0.2494112481
0.3212565728
0.2861477517
1.269975908
0.1651334884
0.323917933
0.4289484096
0.4800035155
0.349876261
0.697406077
0.5665896722
0.9426953129
0.9447929896
0.5986134336
1.145053225
0.9723561505
1.343046913
1.485998205
2.12426761
3.141569778
2.248516771
1.536466143
0.9994751188
1.434096231
1.384614496
0.3968827121
0.278039024
0.4579888139
0.3008096361
0.6700337366
0.3234612957
0.185204672
0.3611088726
0.4367797574
0.7304345579
0.222693045
0.8530009065
0.3428233833
1.47755781
0.2050855998
0.2600546542
0.2808833127
0.127041792
0.5022506201
1.363747072
1.44372939
0.4911117413
1.162875303
1.333926156
1.169236056
1.589281709
1.891963447
1.967954982
2.874424014
1.459139258
0.429208845
0.3205250353
0.3295282508
0.374610399
0.8374009351
0.509898397
0.5294769321
0.549135102
0.5579082561
0.6060248823
0.5181394566
0.3956420551
0.3696251512
0.1981024391
0.3321937114
0.2937702216
0.3364468703
1.212941134
0.6120717236
0.605133735
0.5456363838
0.7474371386
1.977776959
1.184395079
0.7908519844
1.123358468
1.864808608
2.077328438
1.404046707
2.158187591
0.4198227365
0.4793478129
0.5277566448
0.4351397676
0.3068407513
0.4322064588
0.7430637725
0.2333669614
0.1190604642
0.5337903815
0.3760386978
0.5229798215
0.4409737224
0.7126154363
0.4682440159
0.3541802846
0.5298009516
0.7403303259
0.94359015
0.4321913748
0.4083140996
0.2683834201
1.318764558
0.4707029232
0.9470819672
1.518110653
2.069492725
1.266877564
1.735047703
1.217858701
0.6313424613
0.2304422321
0.6456621217
0.5178641226
0.4050693168
0.2487957461
0.2511340319
0.3754808493
0.6722171779
0.4212249691
0.5858843945
0.3973231033
0.4477751256
0.5986382145
0.2826154552
1.378431834
0.7000899257
0.461646006
0.2779473889
0.3217773181
0.4635384908
0.2184002711
0.8142306268
0.4648470571
0.6826110932
0.571244413
0.7603428881
1.982787609
1.520990902
1.107420115
0.2474335522
0.8191044846
1.043034223
0.1294679389
0.4681338492
0.4513601743
0.1249644862
0.3481745748
0.4577074503
0.3446522833
0.6800488168
0.342943915
0.3901141504
0.9249670807
0.3948941186
0.7104751134
0.6410888901
0.4043274136
0.6215170733
0.6826968146
1.091918021
0.2363802681
1.055183441
0.7194349905
0.06069190087
0.9520080728
1.222889751
1.152559458
1.598172135
0.8157257512
0.3788657909
0.2878829583
0.681136634
0.5651927939
0.6009135157
0.9563960311
0.3321620051
0.3099569703
0.2417694619
0.3008846164
0.3868761019
0.6440155712
0.4026474934
0.2015006503
0.4230304083
0.1517247188
0.8206850216
0.7918187878
0.393783699
0.3453631341
0.6699517637
0.7437164302
0.309320508
0.4654785646
0.9532525992
1.075583361
0.7692171661
0.8199891832
0.354419358
2.516091681
0.441991819
0.4399449632
0.4072400302
0.3904784107
0.3460786697
0.470356479
0.5138969005
0.4395835071
0.3878961841
0.8879674006
0.6355423833
0.3861308388
0.390989641
0.1486524232
0.4522624882
0.06011523403
0.1525200963
0.4543633455
0.2696601212
0.748705017
0.5549312342
0.3300313589
0.4383235002
0.7202843611
0.7629685282
0.04364715336
0.2631583705
0.7816790828
0.5783422852
0.9382692721
0.6908484425
0.260725816
0.8196434861
0.4218492527
0.1924724473
0.301536486
0.315114734
0.4201325648
0.1356719291
0.4239730053
0.3856827233
0.7526845507
0.2989850504
0.5912040444
0.4031631127
0.2033581149
0.4216565081
0.3397235174
0.7768634011
0.372913062
0.3969389424
0.6754326279
0.8328941254
0.136056693
1.330271606
0.9701839147
0.347413453
0.4122188649
1.52159961
0.5243334811
0.3662116407
0.2946785872
0.2236833632
0.4481142388
0.3060462591
0.1569740252
0.319461889
0.4283052086
0.6706448098
0.4525787671
0.2564554535
0.2331887834
0.3105057528
0.3087569842
0.3489874277
0.2532367626
0.2327655226
0.5271207576
0.3990286883
0.2552214613
0.7505798546
0.2810281276
0.3622286329
0.4888915203
1.14748584
0.2756349283
0.3744068388
0.9894499017
0.4675633561
0.9575345354
0.5403471546
0.3690703579
0.4938336608
0.358952909
0.7105074829
0.843423315
0.4045503272
0.3721691404
0.7523265711
0.3512146658
0.5086899859
0.2450037462
0.4950226588
0.4305870587
0.2393045965
0.5236661766
0.5053149161
0.2356696543
0.4049229653
0.8148565474
0.5133931062
0.486419288
0.6037090902
0.6164521846
0.3606476581
0.3702997407
0.637733995
0.3494756513
0.6701989687
0.376453768
0.3681790511
0.4546379232
0.4097909517
0.2730397338
0.4591456304
0.5019225133
0.5722207356
0.7912445416
0.2563191422
0.4073489349
0.8054038384
0.3551168739
0.2104601072
0.4328166882
0.3013741417
0.5619819855
0.5544262443
0.7057276394
0.6156603246
0.5185718768
0.2876545122
0.7929137178
0.3015933584
0.5363595278
1.09818522
0.5295080483
0.1261649693
0.3150274152
0.3091705015
0.8038430549
0.6042406225
0.4906965507
0.3339662274
0.6762107748
0.4872853127
0.685300953
0.2399487705
0.2723189026
0.2539399676
0.4393454669
0.3357256754
0.7531949505
0.2285520458
0.2180896891
0.4120089627
0.3972207337
0.3579358338
0.2970902599
0.5563196237
0.5037994562
0.5419061269
0.8824615647
0.1902616404
0.2693998909
0.70922017
0.6470849964
0.3076837436
0.2336450123
0.6096805982
0.2796004528
0.216225152
0.4555287189
0.1916874195
0.2674597773
0.5052645928
0.1788143415
0.2195272192
0.5934135682
0.2623750917
0.07399685981
0.7067742473
0.3776524344
0.4866366715
0.2009614576
0.4970028409
0.3620111499
0.251928806
0.3472247094
0.1515360627
0.478231048
0.5880410014
0.696798441
0.2457424014
0.2361827693
0.2889185991
0.3331379096
0.739169154
1.281509398
0.6099817601
0.8686174355
0.4597198378
0.2976076246
0.4245020501
0.2714631518
0.4506220057
0.2449955822
0.4261989778
0.1472606753
0.5064540151
0.3405357941
0.2483566341
0.1047854818
0.653652464
0.3480083847
0.4136204444
0.2409526757
0.2992643783
0.3443794598
0.3563850082
0.5009936407
0.5222374422
0.7219318566
0.8661577436
0.4308989344
1.31766474
0.5091275851
0.2312790937
0.5396084239
0.199534986
0.5101698225
0.8218465355
0.5106765698
0.5037290414
0.2597395398
0.2183929904
0.7409343818
0.9548897875
0.1103871426
0.2335833217
0.4351749446
0.3836383706
0.2869540625
0.6435839265
0.7086398973
0.6717552178
0.1018114509
0.2962898827
0.5933721371
0.3004730118
0.1245629027
0.1926053008
0.7915196034
0.6953224808
0.2149281715
0.3749944604
0.2662141505
0.3198655716
0.2426114061
1.019646499
0.2640606238
0.5697576585
0.306695924
0.454786757
0.4437169832
0.5203424163
0.04403679627
0.3035770295
0.5555469357
0.447901788
0.2885456445
0.9002357617
0.1491786578
0.4217028276
0.4042092839
0.3760677846
0.9265054911
0.3932223028
0.5155281316
0.2090893612
0.308245593
0.361868958
0.3516692033
0.3022719323
0.3373407168
0.5239368267
0.80618251
0.4048133445
0.4444081654
0.5442727079
0.522268961
0.2429697756
0.4417126272
0.6475706781
0.4879224306
0.4636902571
0.2121277147
0.6946720076
0.2817745794
0.2848186073
0.5125628784
0.4468655581
0.4389437937
0.4058345458
0.2904036965
0.1970412894
0.477966655
0.6775359052
0.2969479753
0.1196373985
0.3268723489
0.1273432619
0.5474176552
0.53629785
0.310386895
0.1450383176
0.2405282414
0.6835847409
0.1610976912
0.4817882433
0.3823841147
0.5209635154
0.1002953343
0.1761298011
0.2812748345
0.4496139012
0.6365308722
0.1861201679
0.9578419491
0.9684778331
0.2934571517
0.5710680456
0.5639953546
0.2302509731
0.3189417157
0.3358260652
0.513575349
0.4378930696
0.1242811548
0.5366962192
1.074939632
0.5215753365
0.1869533575
0.1119714199
0.1468811776
1.303023189
0.2317791678
0.2442285165
0.1679821746
0.5184251459
0.47217891
0.5317041527
0.375560489
0.561499081
0.6836716275
0.3549155194
0.1880171116
0.07717633216
0.2294176492
0.571310275
0.5213902823
0.2775650137
0.4180444674
0.5003241304
0.4755539492
0.7392906962
0.5396805451
0.352244878
0.1942876202
0.6812257987
0.5314039173
0.2780940433
0.3968399732
0.8605357059
0.507565175
0.7160121174
0.3467766433
0.1639197636
0.2799287421
0.3162795168
0.3910081111
)
;

boundaryField
{
    flow
    {
        type            zeroGradient;
    }
    obstacle
    {
        type            calculated;
        value           nonuniform List<scalar> 0();
    }
    frontAndBack
    {
        type            empty;
    }
    procBoundary3to1
    {
        type            processor;
        value           nonuniform List<scalar> 
36
(
2.409470399
3.970701799
2.751600308
0.6608215957
2.273206674
2.273206674
2.051201937
2.664320624
1.309958941
1.430561263
2.670783692
2.147372898
2.147372898
2.009327317
0.7342613293
0.8711747727
0.8069320273
0.696575014
0.696575014
0.2348282464
0.8000243766
0.6309207578
1.051170323
0.521930427
0.4617162972
0.4617162972
0.6141562307
0.632671709
0.1291748562
0.3547639936
0.3866796534
0.3253307763
0.4964794981
0.4964794981
0.2822323581
0.2822323581
)
;
    }
    procBoundary3to2
    {
        type            processor;
        value           nonuniform List<scalar> 
19
(
0.2699588592
0.09519893136
0.2453985039
0.4331354374
0.4560327378
0.2750009948
0.4161073519
0.155159148
0.1587638338
0.7300438816
0.1528168267
0.2945226896
0.5690996738
0.4488850158
0.7709484212
0.2868689154
0.2172529479
0.1495018888
0.1158182732
)
;
    }
}


// ************************************************************************* //
