/*--------------------------------*- C++ -*----------------------------------*\
| =========                 |                                                 |
| \\      /  F ield         | OpenFOAM: The Open Source CFD Toolbox           |
|  \\    /   O peration     | Version:  2406                                  |
|   \\  /    A nd           | Website:  www.openfoam.com                      |
|    \\/     M anipulation  |                                                 |
\*---------------------------------------------------------------------------*/
FoamFile
{
    version     2.0;
    format      ascii;
    arch        "LSB;label=32;scalar=64";
    class       volScalarField;
    location    "0.004";
    object      internalEMean;
}
// * * * * * * * * * * * * * * * * * * * * * * * * * * * * * * * * * * * * * //

dimensions      [1 -1 -2 0 0 0 0];

internalField   nonuniform List<scalar> 
654
(
2.281355722
2.11160535
2.207495689
2.217523445
2.245454934
2.304320412
1.44050961
1.54585942
1.655535477
1.781993403
1.895053153
1.985197775
2.027883207
2.066156079
2.15843348
2.195109533
2.245726766
0.8319270732
0.9054736051
0.9906915141
1.039975112
1.163865128
1.283312483
1.39121351
1.454977313
1.586010207
1.685955936
1.806335973
1.909870031
1.952714053
2.011266719
2.058072543
2.100010402
0.5259151984
0.5445212935
0.5643873016
0.5970128799
0.6280059239
0.6680991552
0.7092035653
0.7793048341
0.8454678876
0.948800849
1.036384529
1.083931478
1.206664195
1.321964647
1.398283334
1.482728435
1.594517298
1.717767691
1.822955684
1.896546532
1.941927743
2.029084939
0.4277472901
0.4352052487
0.4342148604
0.4426875862
0.4542344869
0.462329303
0.4828169561
0.5027239927
0.5163012302
0.5378351948
0.5590296726
0.5946680788
0.6286123297
0.6759724639
0.7089059759
0.7580829446
0.8096688058
0.8828308106
0.9806433976
1.068993189
1.152471169
1.251349134
1.364254722
1.456511156
1.551748987
1.666486988
1.763572743
1.880168295
1.924570274
0.4231238574
0.4233647396
0.4306016703
0.4303431364
0.4379231555
0.4482105424
0.4579166215
0.4692349344
0.4807277059
0.5012754408
0.5124629055
0.5338945171
0.5612984751
0.5844673794
0.6205822203
0.6471069
0.6831885986
0.7264090622
0.781810496
0.8372397701
0.9239159267
1.008193195
1.119122039
1.210784422
1.310970262
1.411456484
1.488291214
1.601965959
1.687820795
1.808883172
0.4224606944
0.4227603471
0.429791561
0.4402708793
0.4423182302
0.4414641247
0.4528890956
0.4608325043
0.4723782982
0.488276034
0.4966041103
0.499477921
0.5165382755
0.5362353011
0.5511721833
0.5866421984
0.6193903922
0.6490479668
0.6910214949
0.7319951454
0.7900328295
0.8721942685
0.9595199258
1.052285789
1.154744392
1.23187608
1.362263378
1.431042559
1.52675078
1.625728782
0.4279844218
0.4324503858
0.4347192939
0.4387142126
0.4512757144
0.452478565
0.4499669953
0.4534801568
0.4445227438
0.4443010862
0.4564037637
0.4696532796
0.480756216
0.4985253015
0.5168332976
0.5354143287
0.5689460282
0.6109980289
0.6283671377
0.6608612444
0.7067422194
0.765006755
0.8050904862
0.8938489998
0.9896011771
1.061538166
1.177754441
1.287605574
1.370833212
1.468091169
0.4284205528
0.4298429845
0.4373246686
0.434748235
0.4267568819
0.4317301696
0.440030945
0.4394521465
0.4492711337
0.4573971284
0.4576242411
0.4663062531
0.4704844681
0.4833184939
0.4976687095
0.5171459101
0.5318648458
0.5560605993
0.5855581632
0.6213202399
0.6405028035
0.6762092829
0.7436445264
0.7733726451
0.8435864213
0.9383416369
1.010131703
1.109749272
1.227252777
1.329701401
0.4145927914
0.411654454
0.409446538
0.4127715578
0.4218608343
0.4192649542
0.4246336878
0.4345514672
0.4387992432
0.443956882
0.4527052612
0.4550200293
0.4565199144
0.4642766305
0.4753063997
0.4792729742
0.494754034
0.5170704279
0.5400946396
0.5579333637
0.5913043296
0.6141477202
0.6620270995
0.7258427552
0.7804053533
0.8492394059
0.9255981831
1.003962554
1.07332992
1.166417263
0.4171785856
0.4203623849
0.4168630817
0.41256992
0.4122481966
0.4104651828
0.4127142669
0.4201689289
0.43023747
0.4342392733
0.4377953273
0.4382580789
0.4471338793
0.4510780944
0.4552899222
0.4627474651
0.469879213
0.4917918075
0.5051275081
0.5276954116
0.552969429
0.5784229624
0.6068407296
0.6488880157
0.6953927874
0.7484036279
0.8079320308
0.8768012161
0.9807767169
1.067449083
0.406428209
0.4038023079
0.4081962403
0.4126681783
0.4210339344
0.4290793541
0.4263975542
0.4262470407
0.4209717867
0.4214524353
0.4265782971
0.4332367777
0.4360933791
0.437718086
0.4467766028
0.468126789
0.4716321866
0.4747792077
0.4917707653
0.507153161
0.5358601563
0.5498881121
0.5639344006
0.5940939807
0.6338221009
0.6703188289
0.7257250976
0.7959017953
0.8479048776
0.9457662033
0.4157384109
0.4180205246
0.419865662
0.4167875948
0.411105705
0.4119530263
0.4111564473
0.4164002354
0.409762822
0.4196488238
0.422782832
0.4258736736
0.4295430815
0.4332108347
0.4404269366
0.4447724744
0.4587398733
0.4679473912
0.4826391453
0.4901555151
0.5030105648
0.5172759545
0.5333183197
0.5492697105
0.5810766117
0.6232906921
0.6607496983
0.7114253259
0.7713061329
0.8102233674
0.4139047163
0.4141390491
0.4135675643
0.4154870285
0.4162579177
0.4066332127
0.4106545093
0.4088105734
0.4135399785
0.418832247
0.4270449247
0.4246024246
0.4265115745
0.4359691728
0.4442287119
0.4535766203
0.4528976047
0.4548242259
0.4552026077
0.4688281328
0.4715353818
0.4870674307
0.5089304787
0.5254291387
0.5494436937
0.5765088129
0.608367473
0.6407437365
0.6675048165
0.7394596411
0.4098585143
0.4082301341
0.4053048378
0.4106272767
0.4065473984
0.4156134515
0.4209527149
0.4270132519
0.4198612105
0.4206479698
0.4200380991
0.4230644835
0.4278854638
0.4342931214
0.4291760441
0.43393522
0.4385020553
0.4464553009
0.4513380763
0.4545407922
0.453102312
0.4629781304
0.4762309018
0.4939146403
0.5146440423
0.5385734344
0.5566795815
0.5919728999
0.6268039559
0.6576655537
0.4111686343
0.4073918424
0.4067065989
0.4098853535
0.4152739641
0.4178625963
0.4153782509
0.4169091567
0.4227793543
0.4215733882
0.420489893
0.4265825135
0.4230984534
0.4160601888
0.4170081462
0.4191244503
0.4227364844
0.4317104865
0.4370517847
0.447181243
0.4629568251
0.471586713
0.4746915722
0.4882476892
0.4885909818
0.4944525594
0.5127198213
0.5384634111
0.5754045391
0.6064300476
0.4216579445
0.4330901569
0.4371791396
0.4304363295
0.4238764484
0.4217746297
0.417718785
0.4216140945
0.4235415645
0.4227343034
0.4149461882
0.4122485975
0.412377691
0.4181545365
0.4256819677
0.4306753673
0.43576432
0.4361710246
0.4413335107
0.4427893085
0.4494506418
0.4565249175
0.4642162764
0.4638240029
0.4778501594
0.4837100914
0.4951583915
0.5157447781
0.5237916593
0.5617942149
0.4237814566
0.420794383
0.4209390029
0.4216013695
0.4271576141
0.4345247753
0.4291232218
0.4249616167
0.4161554373
0.4192324924
0.4218309888
0.4263492863
0.4258729145
0.4243133089
0.4216965819
0.4166580096
0.4122682754
0.4192118499
0.4227552644
0.4328875026
0.432044338
0.4308955564
0.4441007587
0.451244183
0.4697380144
0.4695785171
0.4791130555
0.4954185496
0.5153888037
0.5336734729
0.4141121031
0.4102341458
0.4125923399
0.4133799535
0.4095777743
0.4044723205
0.4082140174
0.4133998749
0.4193570295
0.4149059786
0.4116011092
0.4069233891
0.4110511494
0.4084960282
0.4157536399
0.4155712072
0.4139181255
0.4232962998
0.4241409087
0.4258569054
0.4308090766
0.4338855552
0.4324758532
0.4495440326
0.455356832
0.4611940345
0.4643141431
0.4773265038
0.49503685
0.503693182
0.4174844864
0.4139515677
0.4139782288
0.4124785934
0.4155664904
0.4209366912
0.4202062156
0.4174047969
0.4131641752
0.4129445709
0.418784372
0.4167515266
0.4175614059
0.4185513883
0.4149515572
0.4182470132
0.4262757435
0.4168425354
0.4197091943
0.4282958421
0.4273554718
0.4290809962
0.4319540344
0.4304795754
0.4443183043
0.4499094465
0.4592849917
0.4672340504
0.4757915654
0.4926695093
0.4036798893
0.4068740857
0.4012418442
0.4027531541
0.3980977419
0.4029983657
0.4085620321
0.4163870431
0.4166214866
0.4209567794
0.4205249504
0.4196869732
0.4253986308
0.4190470203
0.4161225229
0.420210874
0.4161544157
0.4122011004
0.4122750145
0.4144540634
0.4266258093
0.4283911752
0.4308998048
0.4345274479
0.4363391413
0.442844604
0.4414403083
0.4532340588
0.467187048
0.4760678633
0.4226500899
0.4205921106
0.4254931643
0.421527245
0.4219056665
0.4164305327
0.4180253379
0.4138337096
0.4142514533
0.4127967176
0.4132015133
0.4129806526
0.407572044
0.411920639
0.412772948
0.4140666158
0.4146848597
0.4254594901
0.4293972173
0.4240313348
0.4207242318
0.4304519838
0.4304785638
0.4331977025
0.4318217867
0.4419004253
0.4482772883
0.4457045246
0.4405280874
0.4588748464
0.4154412586
0.4117720318
0.4112822709
0.4124365288
0.4144711792
0.4180772342
0.4128038973
0.4069348946
0.4057803686
0.4077838794
0.4090957032
0.4134449638
0.4111770196
0.4152304796
0.4147341053
0.4125601472
0.4133371021
0.4138456461
0.4188729635
0.4266686647
0.4228518213
0.4184479171
0.4249205642
0.4342539667
0.4398408387
0.4364060758
0.4406045479
0.4488184408
0.4626236116
0.4562186391
0.4034444101
0.4081765482
0.4093678815
0.4072868209
0.4053943892
0.4002685622
0.403017488
0.4068893209
0.4053447795
0.4059729802
0.4024147001
0.403627111
0.4027269496
0.3985334374
0.4035338499
0.4080634634
0.4064178726
0.4072833776
0.4067806303
0.4056066222
0.408771516
0.4161442461
0.4177509082
0.4113645602
0.4084454689
0.4160917559
0.424821686
0.4274379712
0.4286847676
0.4445653228
)
;

boundaryField
{
    flow
    {
        type            calculated;
        value           nonuniform List<scalar> 
55
(
2.281355722
2.304320412
2.245726766
2.100010402
2.029084939
1.924570274
1.808883172
1.625728782
1.468091169
1.329701401
1.166417263
1.067449083
0.9457662033
0.8102233674
0.7394596411
0.6576655537
0.6064300476
0.5617942149
0.5336734729
0.503693182
0.4926695093
0.4760678633
0.4588748464
0.4562186391
0.4445653228
0.4034444101
0.4081765482
0.4093678815
0.4072868209
0.4053943892
0.4002685622
0.403017488
0.4068893209
0.4053447795
0.4059729802
0.4024147001
0.403627111
0.4027269496
0.3985334374
0.4035338499
0.4080634634
0.4064178726
0.4072833776
0.4067806303
0.4056066222
0.408771516
0.4161442461
0.4177509082
0.4113645602
0.4084454689
0.4160917559
0.424821686
0.4274379712
0.4286847676
0.4445653228
)
;
    }
    obstacle
    {
        type            calculated;
        value           nonuniform List<scalar> 0();
    }
    frontAndBack
    {
        type            empty;
    }
    procBoundary3to1
    {
        type            processor;
        value           nonuniform List<scalar> 
36
(
2.261646898
2.26081626
2.263988798
2.317467688
2.310281465
2.310281465
1.600544592
1.673126125
1.796720164
1.908804714
1.96628065
2.038746968
2.038746968
0.9363999634
1.014152032
1.097356501
1.211877574
1.31910769
1.31910769
0.5598338624
0.5844583384
0.6239778212
0.662119983
0.6960569722
0.7646855507
0.7646855507
0.4477300831
0.4491655274
0.455201417
0.4705669306
0.4761508851
0.4955989362
0.510152697
0.510152697
0.4260679372
0.4260679372
)
;
    }
    procBoundary3to2
    {
        type            processor;
        value           nonuniform List<scalar> 
19
(
0.4173888026
0.4176379175
0.4308548904
0.4249777942
0.4103273654
0.423676045
0.4040855774
0.4120206205
0.4147430658
0.4118106987
0.4104519791
0.4158350579
0.4241126128
0.4175163749
0.413457684
0.4069532659
0.4146561692
0.4158873231
0.3998757194
)
;
    }
}


// ************************************************************************* //
