/*--------------------------------*- C++ -*----------------------------------*\
| =========                 |                                                 |
| \\      /  F ield         | OpenFOAM: The Open Source CFD Toolbox           |
|  \\    /   O peration     | Version:  2406                                  |
|   \\  /    A nd           | Website:  www.openfoam.com                      |
|    \\/     M anipulation  |                                                 |
\*---------------------------------------------------------------------------*/
FoamFile
{
    version     2.0;
    format      ascii;
    arch        "LSB;label=32;scalar=64";
    class       volScalarField;
    location    "0.004";
    object      internalT;
}
// * * * * * * * * * * * * * * * * * * * * * * * * * * * * * * * * * * * * * //

dimensions      [1 2 -2 0 0 0 0];

internalField   nonuniform List<scalar> 
654
(
692.3818998
642.6861633
656.4466539
667.4122785
674.8194175
685.9828407
532.5054696
550.5626192
567.6826397
583.8910282
599.9213575
613.8329672
624.2293248
632.0367713
642.8661549
651.8260608
668.5007062
426.662457
439.5236362
460.4589014
466.7350521
492.5064041
510.8349164
528.9902816
536.1281761
560.7772399
569.1689225
586.70499
598.1665955
604.6246208
617.7006551
624.5774726
638.0489188
343.630027
346.3709459
354.8059089
360.585122
370.7171518
382.6615691
396.5376429
413.2533306
425.1877763
449.9483569
468.5012188
471.1156457
493.0608122
516.5926062
526.4871755
540.5149282
555.6727468
572.2745509
583.9764666
595.0829378
602.9505754
617.1818168
306.1568838
310.616902
310.6539076
311.8688079
315.2661026
318.7096299
325.1255966
336.7296698
339.0771809
344.8894228
352.8469819
365.7381909
375.2392842
387.7025084
395.0013679
406.8923508
419.0931235
434.7442063
457.0312089
472.7176695
482.4518483
501.792361
521.8286751
531.1639086
544.5171726
564.2332112
578.9825417
598.9957118
603.981168
302.3492109
301.1036452
302.295502
301.8315698
305.7459288
313.5162968
317.1552198
322.1773229
326.8221379
333.6414272
336.1296971
341.8341749
351.1185349
358.6920585
372.0638102
376.4048785
388.9047573
396.8180896
412.2902484
427.693148
445.6485152
461.2688341
481.4963553
500.1505761
516.4168303
527.8445238
538.3562331
553.4669182
569.5371282
587.2667485
301.6583539
303.3157073
308.4832503
313.3359836
311.5035639
310.3327195
315.49609
317.529267
322.1185333
326.6836527
329.3559726
328.3325132
334.7827124
340.9472736
346.850195
359.5376447
370.1468107
379.8505444
390.0643728
396.2947202
413.1863699
432.8290576
451.9838003
467.0187734
483.4728363
494.8647882
516.0924604
520.6901008
533.5514267
552.9421222
304.6424592
304.4074284
304.6819238
307.122961
312.7170628
313.8897854
313.9564772
315.5332281
311.4927483
311.5168727
317.399106
320.7680294
324.7061187
330.701887
333.480106
340.373451
351.6517751
366.0138509
374.0398984
381.809348
388.600946
403.8479956
413.1816696
433.077044
454.9397472
469.6909741
489.1653245
510.1639858
516.8834512
532.5828597
303.4809123
303.7897393
306.9136539
306.1964418
302.6014609
305.3187836
309.6133637
307.7650551
311.5695453
314.6094486
316.5738481
320.621496
320.3957595
329.1739769
336.103478
341.5286971
344.3014048
352.6499804
357.6151947
369.5479306
375.0442175
380.6790847
401.0674919
407.830838
425.8556852
445.4522055
457.2234059
475.4091719
495.3747956
507.4318861
299.736011
299.3347302
296.3039759
299.2622573
301.0198008
298.1643903
298.694473
305.6608195
308.3173492
313.4803225
317.4836509
319.2583417
319.874158
321.8141268
325.246607
327.1559157
331.7896449
336.8804439
346.12227
350.6861461
360.5055177
364.5813715
374.2483393
392.3037634
406.4541186
422.8704232
438.0221376
454.2102032
468.4700917
487.8895264
299.0938823
300.7536529
298.1611257
297.6977278
297.7194901
297.2588451
301.7960119
304.0990956
308.0704949
306.349672
309.4389524
310.9707611
316.1563181
317.8703457
319.1437395
321.8580962
324.3429898
332.9603139
333.5523799
339.7882748
349.7883951
357.1103019
362.3795375
371.5855699
385.3947321
401.4065735
413.2042663
429.1838954
449.1806025
463.6372775
292.9477194
293.5251412
299.3832272
299.7723602
303.5223498
306.5458347
303.8300213
304.7535421
303.5455158
307.9739971
305.6626638
307.0408492
307.6849302
307.8429625
312.2319024
319.3767314
319.5167295
321.6733595
327.783063
337.9951477
344.3413922
344.9903623
349.1938426
359.6783644
370.7930671
377.3715675
394.3933342
411.6842501
420.0803326
442.9270506
303.6752976
302.4882689
302.3822783
299.7649157
299.6042644
300.3469274
301.6573809
305.2483993
300.3623388
303.7486284
306.5403316
306.7665265
303.7183389
305.5005741
308.8934108
311.3339195
316.8649019
318.3228261
324.9812904
323.6399387
329.2213727
337.1720683
340.3334135
344.6677255
355.2459959
367.8596223
377.9868903
388.4321685
402.962591
408.1513383
299.5571791
300.5277305
301.1185646
302.5857764
303.4296379
297.8472796
299.3501383
299.8641019
301.458805
300.0784615
305.9970212
306.1294033
310.8684231
313.5780132
314.7214757
315.3649318
314.6022583
313.7186046
315.1384524
320.2880657
323.8729741
328.9006895
335.197263
340.4313823
345.5337843
352.8249574
362.9582821
370.4608335
373.443668
392.9629096
300.3316154
300.3887422
298.070041
300.5194537
298.8711847
301.7777184
301.6039188
303.33647
301.1194655
302.4572596
301.1025136
300.6211571
303.4388541
302.7191657
303.2784713
305.8902263
310.3900317
317.1769074
319.4868808
321.8416278
319.0462545
317.3806538
324.4721044
331.0394462
337.5307864
342.8365041
345.0802232
355.312384
368.6789815
374.4445937
297.1273963
295.1970389
296.3774653
298.282668
299.5767342
300.2738466
298.9283283
298.2164675
300.5000056
299.4632679
300.4007532
303.4660737
300.2972278
297.0273348
297.5099621
299.3974472
301.8545104
304.2164242
306.7975975
310.7905666
319.2741454
322.8364084
321.2008834
324.6071106
324.5843745
326.8830878
333.7838488
341.0603177
349.7299821
357.4202592
299.100625
303.9898016
305.0952373
304.5691838
301.6681622
302.2122254
302.2511555
305.5602016
307.2206663
305.1031635
299.1727071
299.7159404
300.4737928
304.2483016
308.0408182
308.9736501
311.4105975
311.0826463
309.338365
308.761329
309.0122485
313.2713218
317.8656679
316.8647453
324.4151703
327.0792738
331.3060183
333.9606352
336.7876445
347.8668249
305.0130823
303.3141446
300.9411058
301.1691287
305.1988988
305.9213273
304.035056
301.9841129
300.1972806
302.8113112
304.908091
306.5326174
304.3756839
303.234255
300.743791
297.8947556
294.3612572
297.8222432
299.9548673
307.3320391
306.4505552
305.1711212
313.2605462
315.4767167
320.605304
318.421834
319.0996321
327.890743
335.8663596
341.3239313
302.5729336
303.3608341
305.0159425
304.8302192
301.647335
298.7977151
301.397086
302.8677212
304.403314
304.7224067
301.1330683
296.9353053
299.4146106
299.9667832
301.8741443
302.5564855
300.7188741
302.989781
305.9533231
303.6399559
305.3974887
306.7518782
305.1996726
314.9237678
316.2661656
319.5568037
319.8400371
323.3120153
326.2491882
328.618324
307.805924
305.6161852
304.1673781
304.04129
304.5371195
307.3289936
307.0198965
305.5642961
301.3113275
299.4710231
302.9987417
305.7795515
307.7924054
305.030935
302.5618368
303.6583316
306.977513
301.9065862
302.7954807
306.4206504
307.0573019
305.6691372
307.7993235
305.0312164
311.0352331
311.1246898
317.5895875
322.442869
324.8502212
330.3271313
293.704318
296.3293139
295.0138272
294.5519304
292.5908292
293.5773959
294.1944938
296.4755547
299.1489313
299.4838084
299.6566202
295.8661336
297.7139035
295.6371497
296.5859951
298.6331298
297.6393158
297.3258386
297.4512974
301.4457229
305.2197538
304.4235131
302.5891909
305.6203832
305.8519507
305.9984196
303.0052951
304.9394547
312.9181373
317.0844597
300.3322826
298.8829821
300.1165383
296.8020486
297.5960986
298.1083353
301.8891134
300.3834444
299.6238677
298.9145171
300.6863645
299.6609896
294.4584359
295.7345358
296.0558051
295.2523167
294.8677886
301.6920099
304.2630873
300.4305059
300.2763925
307.0862733
305.7021893
307.790035
307.4029504
311.1968757
314.9150549
314.8856109
310.5875008
318.1567983
298.1959595
298.3372082
296.9400728
297.6524892
299.3593851
298.4970687
294.9268234
293.6362478
292.7131361
293.4350186
295.3994622
296.8413604
295.9555638
298.0009357
298.8495754
298.7934799
297.5847107
296.3001718
298.2195117
303.5178702
301.4045112
301.0978553
305.5614476
307.726
308.4080293
309.5597268
309.4417671
312.8395426
317.7620875
311.577843
301.4993687
301.7696468
302.7905215
300.7760989
301.2566055
298.2959887
298.4527224
296.979117
296.6230664
297.4011557
293.604476
296.736682
296.3198594
294.2414484
296.0433504
296.6958327
298.9082883
301.2754278
302.5612822
300.7369594
300.0622944
300.1121929
303.529079
299.2071943
300.4071252
303.6446934
307.2545266
308.3313211
307.5829624
313.8198573
)
;

boundaryField
{
    flow
    {
        type            calculated;
        value           nonuniform List<scalar> 
55
(
692.3818998
685.9828407
668.5007062
638.0489188
617.1818168
603.981168
587.2667485
552.9421222
532.5828597
507.4318861
487.8895264
463.6372775
442.9270506
408.1513383
392.9629096
374.4445937
357.4202592
347.8668249
341.3239313
328.618324
330.3271313
317.0844597
318.1567983
311.577843
313.8198573
301.4993687
301.7696468
302.7905215
300.7760989
301.2566055
298.2959887
298.4527224
296.979117
296.6230664
297.4011557
293.604476
296.736682
296.3198594
294.2414484
296.0433504
296.6958327
298.9082883
301.2754278
302.5612822
300.7369594
300.0622944
300.1121929
303.529079
299.2071943
300.4071252
303.6446934
307.2545266
308.3313211
307.5829624
313.8198573
)
;
    }
    obstacle
    {
        type            calculated;
        value           nonuniform List<scalar> 0();
    }
    frontAndBack
    {
        type            empty;
    }
    procBoundary3to1
    {
        type            processor;
        value           nonuniform List<scalar> 
36
(
704.3091923
677.3693757
676.3245095
692.1632508
693.9561048
693.9561048
567.5436661
574.2871722
584.6296022
608.9914809
612.9816844
628.7647833
628.7647833
447.6359739
460.2826381
479.0026785
498.4695689
518.743549
518.743549
357.7550128
369.1856282
372.7279178
387.1087375
396.9810874
414.0132562
414.0132562
316.1176788
317.8176933
319.0008081
324.7387996
327.5536332
334.6559165
338.5648001
338.5648001
307.8253449
307.8253449
)
;
    }
    procBoundary3to2
    {
        type            processor;
        value           nonuniform List<scalar> 
19
(
297.8988419
300.7829775
306.0657591
300.8067503
297.8096465
301.6579715
293.6234584
300.3119466
300.3275178
299.6217425
297.4023171
297.5735497
305.6321792
303.5353647
307.721398
294.5719182
299.7473561
297.0716822
298.0220487
)
;
    }
}


// ************************************************************************* //
