/*--------------------------------*- C++ -*----------------------------------*\
| =========                 |                                                 |
| \\      /  F ield         | OpenFOAM: The Open Source CFD Toolbox           |
|  \\    /   O peration     | Version:  2406                                  |
|   \\  /    A nd           | Website:  www.openfoam.com                      |
|    \\/     M anipulation  |                                                 |
\*---------------------------------------------------------------------------*/
FoamFile
{
    version     2.0;
    format      ascii;
    arch        "LSB;label=32;scalar=64";
    class       volScalarField;
    location    "0.004";
    object      linearKEMean;
}
// * * * * * * * * * * * * * * * * * * * * * * * * * * * * * * * * * * * * * //

dimensions      [1 -1 -2 0 0 0 0];

internalField   nonuniform List<scalar> 
654
(
14.59782566
15.40714434
15.60488566
15.31108176
15.28628213
15.22991098
13.4378643
13.93483895
14.32323292
14.87127553
15.19583352
15.36564355
15.32658594
15.46966044
15.80476977
15.69441121
15.5543083
10.32574326
10.82941379
11.20731769
11.52620793
12.06981487
12.66842943
13.13129122
13.50570507
14.0037413
14.57926128
15.02435751
15.40806081
15.48288226
15.54180979
15.6428035
15.6010945
8.477977356
8.679363515
8.766278272
9.064869325
9.28834114
9.49070322
9.657255792
10.07873462
10.61606767
11.09460744
11.57315042
11.90334346
12.53858562
12.98733687
13.33149377
13.69605275
14.27984565
14.80498396
15.26117781
15.46729102
15.50876239
15.76496321
7.908988514
7.900713528
7.895526346
8.009591668
8.126595297
8.176053056
8.331770316
8.330037129
8.48722398
8.663098397
8.759568789
8.922272734
9.179792623
9.50196294
9.699863278
9.964996023
10.26363688
10.73571203
11.25052454
11.69022434
12.29459776
12.73620821
13.28234408
13.7679914
14.29997334
14.73714034
15.10118414
15.49061885
15.5892622
7.923013584
7.978703717
8.054228678
8.074422532
8.087955361
8.053901322
8.122846726
8.194726788
8.267852597
8.399769489
8.476726453
8.659145094
8.814543506
8.972633705
9.111972746
9.403194912
9.544881898
9.870486065
10.16119428
10.41432358
10.88898175
11.41055175
12.02884978
12.41426339
12.97460055
13.55227632
13.92238182
14.51885285
14.80788927
15.33680043
7.950348891
7.939649137
7.939061807
7.982504575
8.076751873
8.081619848
8.131191336
8.197361382
8.318581231
8.419657981
8.453024538
8.53914766
8.644423028
8.750754649
8.805360938
8.940009081
9.144809182
9.343973575
9.587513514
9.985332416
10.27770779
10.73150582
11.18511797
11.742794
12.31817979
12.75617759
13.49077397
13.89945358
14.41223918
14.75693752
8.013143758
8.068832692
8.093423001
8.107320916
8.176776193
8.191908852
8.134330192
8.140914208
8.061374306
8.051033744
8.091613018
8.19966866
8.26745824
8.411631396
8.61307221
8.739235783
8.961002671
9.186275705
9.255102237
9.462356821
9.868095266
10.22932393
10.4914755
10.96459238
11.39988425
11.81403222
12.42933322
12.99238011
13.5449489
14.05891638
8.038090839
8.036580457
8.122424383
8.042012283
7.993108777
7.999968135
8.033617233
8.08729722
8.130534591
8.214084025
8.145947953
8.227342014
8.268727675
8.229833839
8.282490711
8.463986681
8.554369134
8.72670593
9.015250182
9.222258166
9.366114732
9.607253473
9.942877964
10.10080161
10.48304482
11.07584973
11.53073688
12.03410029
12.70368109
13.33627338
7.811451029
7.786185398
7.819258791
7.79973775
7.904915375
7.941495727
8.024364177
8.043471497
8.039637986
8.017075396
8.050499042
8.05102736
8.073950717
8.120940158
8.208617651
8.207075972
8.351850937
8.523821458
8.634065879
8.755270337
8.995667911
9.210105753
9.649520839
10.03330274
10.36693145
10.73169768
11.2326896
11.64631595
12.02847108
12.41650595
7.933165047
7.940790485
7.935708475
7.891410065
7.874881291
7.870529155
7.781651631
7.838983887
7.916168681
8.006464001
7.984706966
7.923214306
7.933442279
8.028580314
8.028051115
8.094101727
8.13565422
8.274762141
8.43898615
8.59714907
8.782842448
9.010958133
9.187056473
9.523202523
9.735617613
10.03883943
10.54485045
10.86208045
11.51650238
12.05691053
7.90278532
7.830188331
7.751953781
7.822576798
7.863082585
7.950917611
7.964582797
7.904677306
7.845625174
7.781970254
7.920157534
7.980022634
7.980983961
8.002259
8.066085016
8.233525616
8.278127418
8.249969813
8.422962251
8.388010275
8.632478903
8.814965256
8.954723618
9.151535255
9.436536603
9.708283881
9.935707189
10.44622758
10.83837835
11.33128548
7.775354093
7.864476583
7.924307116
7.906469992
7.784426007
7.791098302
7.751742658
7.742958815
7.750182922
7.812795891
7.804070703
7.8797501
8.029544668
8.015305196
8.051514348
8.098082048
8.17367284
8.292978966
8.338703664
8.480252559
8.536090115
8.550225993
8.656560466
8.76873511
8.967545375
9.285778824
9.583281444
9.960258826
10.34053988
10.66324734
7.833574691
7.816214035
7.78189364
7.751109009
7.777798517
7.722135503
7.756658901
7.703199607
7.775729444
7.918709666
7.918993609
7.870115499
7.825740152
7.932613577
7.99817635
8.115292315
8.081461633
8.148253395
8.100325024
8.199161183
8.143721975
8.273472837
8.460961985
8.584939543
8.791045517
9.002996367
9.179475352
9.399259454
9.692134568
10.18212272
7.71491955
7.710798919
7.714192223
7.764282596
7.73341903
7.829904892
7.923851805
7.980110281
7.916330203
7.877360896
7.905741974
7.971920338
7.964532644
8.096265485
7.978950728
7.988284527
8.007962915
7.937745681
7.971732372
7.974723727
7.988721553
8.196534447
8.208496138
8.285500231
8.436201439
8.634641322
8.887494568
9.142191195
9.290048568
9.566314546
7.85163209
7.809643542
7.799402178
7.81040154
7.877746424
7.913601733
7.898199281
7.946838729
7.999126522
7.996421947
7.947018011
7.940081663
7.970909158
7.90195283
7.922005926
7.890574443
7.909488803
8.029990441
8.027963483
8.142732428
8.193109564
8.229638931
8.324045935
8.430395604
8.410716946
8.490324689
8.53255859
8.785534739
9.059494721
9.282731277
8.009105632
8.065966996
8.120805845
8.009022877
7.964808145
7.912836549
7.843337528
7.832255462
7.805571249
7.854301453
7.85425724
7.7996468
7.778057071
7.811303883
7.867087076
7.915433588
7.937938435
7.905588953
8.061994943
8.084582085
8.188924295
8.2015252
8.237951988
8.26936564
8.313945582
8.354514364
8.41545279
8.6213963
8.629153288
8.893195399
7.897361628
7.882372735
7.956161786
7.969706012
7.964507767
8.067352873
7.990692125
7.961341806
7.842205977
7.830175853
7.829956642
7.873808311
7.925970162
7.920188188
7.920221677
7.929104679
7.947665878
7.99272634
7.980095102
7.936395578
7.932778555
7.980609602
7.968725464
8.05250611
8.240463856
8.259584552
8.421374813
8.472120978
8.606019093
8.730615898
7.761083696
7.683597036
7.650048138
7.654387056
7.679755399
7.648798325
7.654732809
7.718845224
7.787176652
7.680706579
7.718409103
7.716883837
7.75104321
7.707369062
7.820252498
7.780021575
7.797184744
7.889926101
7.857297543
7.956769098
8.01927352
7.985450076
8.014943861
8.055409064
8.089495012
8.101645001
8.128804595
8.276509949
8.497779144
8.566891709
7.757460831
7.70041157
7.71316027
7.680818987
7.71949443
7.743426111
7.734755166
7.728900517
7.780638778
7.80776151
7.841402751
7.779279644
7.712764223
7.774436087
7.749861843
7.794289346
7.89040802
7.806343224
7.84450626
7.910140325
7.872833511
7.920572509
7.896236528
7.963285826
8.058875975
8.13606198
8.161623795
8.19349921
8.219413765
8.325245633
7.791117608
7.79765767
7.770175559
7.798524394
7.750895739
7.822519774
7.893354366
7.946250906
7.885160295
7.957518956
7.941900879
7.990950563
8.039503594
7.997143923
7.911274914
7.952086364
7.909806311
7.88341495
7.884496491
7.799687207
7.910342004
7.986310545
8.077269481
8.052098804
8.056738373
8.14217894
8.173713894
8.340922061
8.353390109
8.401277147
7.981478621
7.996874348
8.015960668
8.038043695
8.034548884
7.906212388
7.857392795
7.851233414
7.871693643
7.872336318
7.837375679
7.861598816
7.908245851
7.973262715
7.982846141
8.019007599
8.029847278
8.032745276
8.020912451
8.029020692
7.989084864
7.975413548
8.010564551
7.99888381
7.990574762
8.020590919
8.041420576
7.99593098
7.992698629
8.106087373
7.928465223
7.861698535
7.914885222
7.90478906
7.911328241
8.003741823
8.000329218
7.943621967
7.954363699
7.956834197
7.917161594
7.972221054
7.932340259
7.972568124
7.917711498
7.879047578
7.885490933
7.930562381
7.974916449
8.000688317
7.972648367
7.886271963
7.902236699
8.009139151
8.121838536
8.02362081
8.083320648
8.098719374
8.226841741
8.282805962
7.613372027
7.717280657
7.70724988
7.714299101
7.679413929
7.651443068
7.717282779
7.779853394
7.783858344
7.777713918
7.791731436
7.722985134
7.708512798
7.676728362
7.742366678
7.819710619
7.724705446
7.68890141
7.630780173
7.659472673
7.719824281
7.869779348
7.835690669
7.834485881
7.740766658
7.784736515
7.86713862
7.910494011
7.926473999
8.012991188
)
;

boundaryField
{
    flow
    {
        type            calculated;
        value           nonuniform List<scalar> 
55
(
14.59782566
15.22991098
15.5543083
15.6010945
15.76496321
15.5892622
15.33680043
14.75693752
14.05891638
13.33627338
12.41650595
12.05691053
11.33128548
10.66324734
10.18212272
9.566314546
9.282731277
8.893195399
8.730615898
8.566891709
8.325245633
8.401277147
8.106087373
8.282805962
8.012991188
7.613372027
7.717280657
7.70724988
7.714299101
7.679413929
7.651443068
7.717282779
7.779853394
7.783858344
7.777713918
7.791731436
7.722985134
7.708512798
7.676728362
7.742366678
7.819710619
7.724705446
7.68890141
7.630780173
7.659472673
7.719824281
7.869779348
7.835690669
7.834485881
7.740766658
7.784736515
7.86713862
7.910494011
7.926473999
8.012991188
)
;
    }
    obstacle
    {
        type            calculated;
        value           nonuniform List<scalar> 0();
    }
    frontAndBack
    {
        type            empty;
    }
    procBoundary3to1
    {
        type            processor;
        value           nonuniform List<scalar> 
36
(
13.92564739
15.29636119
15.14433883
15.0446616
14.75952116
14.75952116
13.89266095
14.18137959
14.73381051
14.91949241
15.1600114
15.25468886
15.25468886
10.90603537
11.36180539
11.8001557
12.34525832
12.81621254
12.81621254
8.588953322
8.645093113
9.126741301
9.23477537
9.410690748
9.825187476
9.825187476
8.014947199
7.969938736
8.004731305
8.143657142
8.158811637
8.270916007
8.373383042
8.373383042
7.820628859
7.820628859
)
;
    }
    procBoundary3to2
    {
        type            processor;
        value           nonuniform List<scalar> 
19
(
7.933080036
7.897103678
8.008263547
8.040755722
7.793604499
7.968334444
7.825899417
7.801414369
7.836731826
7.762708363
7.831014821
7.954727731
7.902612265
7.819579278
7.658339197
7.838615968
7.830958837
7.964235447
7.679558065
)
;
    }
}


// ************************************************************************* //
