/*--------------------------------*- C++ -*----------------------------------*\
| =========                 |                                                 |
| \\      /  F ield         | OpenFOAM: The Open Source CFD Toolbox           |
|  \\    /   O peration     | Version:  2406                                  |
|   \\  /    A nd           | Website:  www.openfoam.com                      |
|    \\/     M anipulation  |                                                 |
\*---------------------------------------------------------------------------*/
FoamFile
{
    version     2.0;
    format      ascii;
    arch        "LSB;label=32;scalar=64";
    class       volScalarField;
    location    "0.004";
    object      linearKE;
}
// * * * * * * * * * * * * * * * * * * * * * * * * * * * * * * * * * * * * * //

dimensions      [1 -1 -2 0 0 0 0];

internalField   nonuniform List<scalar> 
654
(
23.84329639
14.9967079
17.91215039
14.14819537
11.07157165
17.91680015
16.30065608
16.48818778
17.57528194
15.61707357
17.79529665
14.4196784
17.48951475
23.2477769
13.78507213
19.6416989
14.68666922
4.576078199
9.733129263
10.91158493
8.431093259
9.107990588
15.15879163
8.698242135
11.46907569
18.05473188
9.957263929
18.92473354
19.72933355
12.75734026
16.57806532
22.06860545
18.44590674
4.039576302
15.78709625
11.13482209
14.58402785
6.882185993
13.67400902
10.63219517
8.753943159
7.906388028
9.489367154
11.39850727
15.67649965
14.0326038
12.47718506
15.72165012
14.26652696
10.98864526
11.59769854
10.84774496
15.59641425
17.56779688
17.01754975
9.5941263
5.923711362
7.371566573
11.1496114
7.070662311
7.75028678
7.820060502
10.42993667
4.291557606
7.449631296
5.224983757
4.503425551
10.17837961
5.527445109
14.59552343
11.30483567
13.19365979
9.327591845
12.89841609
10.05932262
10.6695324
13.19352726
12.82220026
18.02286501
14.41303551
16.2409924
9.599784797
21.49709319
13.14066427
5.466665282
3.161833158
8.84494294
7.518697495
10.8006099
11.61315168
5.352527047
12.67591053
5.157844781
8.393007333
4.220983814
11.76181372
6.88544272
12.90103234
10.30736545
9.485124952
5.105232139
3.55139048
7.478420395
18.37002268
10.77861444
6.359680535
12.80892317
16.25513946
12.62667206
13.73614659
15.41750902
10.14157063
27.3770726
13.93178385
7.130133817
8.503876117
5.211369263
10.00144157
14.27973635
9.77035638
7.488926365
13.66942587
7.986177189
15.35122151
9.758356757
5.674982513
7.852255781
5.661276224
9.338768979
5.836852425
7.955360888
13.73205954
15.11981948
4.967719323
8.852703854
14.20743691
12.88078346
9.503919666
9.972452586
17.15501489
17.69994026
17.0417677
13.32015407
17.76554514
13.12146828
9.087357053
7.409202126
5.727518555
5.848368252
6.219425132
11.02983325
3.826692637
3.417162556
6.714829108
7.622153292
12.698532
5.480196213
14.5460272
5.348826462
6.897717959
7.451505141
7.132686077
11.67188198
6.676604865
6.571050785
3.831768458
20.76245801
13.69593636
12.77488067
13.27207264
18.88176116
11.17887571
12.05245181
17.10702427
13.95462027
5.80057304
11.30382318
7.98751913
5.508070329
5.664977569
8.119952328
7.521334436
11.11892124
10.79730931
5.929918197
7.105301113
9.146335952
8.728309922
12.30674764
16.67404346
10.57613695
6.350296789
12.27176372
8.437713494
5.047831714
2.115991435
10.03457782
9.896008186
13.11039756
6.736740481
9.474389168
15.19624582
18.5105343
12.67501283
8.068418623
15.58287099
10.94837135
3.515756947
6.514449203
10.17623127
3.645178287
5.52251402
7.481049386
7.753277217
10.24836041
9.816410338
9.826702611
9.107152781
6.632969642
11.85981996
6.911103412
12.2575982
8.149977632
7.134759466
9.236980369
10.5688664
14.17812347
9.586951527
4.027019729
9.600757449
15.9042929
9.327828072
17.05896346
11.51898828
8.822976844
7.964787347
6.625216754
10.98094483
8.673485183
13.43850673
6.767578406
7.414120853
5.073305841
6.728411679
5.636163987
11.12932386
10.05657829
6.033604299
11.61813501
5.652186252
13.53222386
6.58596759
11.55772342
10.47084921
9.729438194
7.233151721
9.536405939
6.739791743
11.6213776
10.43784784
13.02283184
4.488650718
4.439121106
17.23383736
8.787074716
5.124492075
6.31685552
6.921956174
5.459500852
10.24078835
12.13443696
10.31206097
10.00761417
12.48481592
7.250296078
7.91755444
9.433548402
5.247872578
10.63244047
2.046784369
5.786355384
13.6031424
11.95477652
15.09872348
14.30385139
4.83356416
7.013829987
8.98800159
10.687824
1.477179323
4.81982191
12.4924056
10.40399939
11.2253617
8.468157725
7.817480826
7.856558768
7.724241112
5.920041651
9.612323314
6.255842433
9.984320713
5.965874738
10.38672755
8.222038407
10.78405559
4.14109684
12.1900821
9.089868493
7.475617594
11.01999211
5.356932342
6.626408634
6.204979951
8.923938671
4.67565278
6.475035997
7.381284645
18.06034368
15.1893512
5.23680542
11.08920592
13.32697469
10.56949446
8.66417862
14.3035568
7.451784033
8.776703833
5.275865623
5.204318262
9.605443316
8.228154818
14.36742439
5.503004648
9.31120939
5.389785847
6.631082878
9.113622707
6.019113954
9.816212161
5.504473169
8.077224816
11.14186436
9.094656294
10.97135851
2.524939957
5.272370598
11.24363205
17.10764361
3.68166285
9.671921861
13.67072543
2.820096762
8.254406107
7.703711551
6.693252064
4.591998762
7.233557381
9.013788177
12.5979053
7.560317346
10.40676405
8.775716501
8.463089451
8.815353139
11.95621349
8.024114784
7.639663121
5.927234487
4.963746404
8.516185092
4.737373927
9.720524875
10.02341849
8.655956593
9.397197807
11.55073592
8.346608666
8.085185397
5.680309735
9.357630484
8.558822365
8.219117832
7.427388884
5.725680446
11.08371055
7.811059168
10.29991437
8.442322454
8.947281606
10.55385015
11.91672828
5.560792374
5.055006534
14.37198844
6.245074247
6.615621769
4.255397005
5.143687205
6.078989755
6.364482152
6.258634312
8.518160855
14.47492558
4.910789266
9.590435533
6.889743543
6.480676513
17.6337834
9.471649857
8.046642842
6.734841673
8.506779954
7.732997073
8.721885066
7.804891622
8.272301235
10.19287331
8.228237595
9.334864906
7.733094083
10.02902341
7.879280671
8.98885459
6.41525659
9.68218468
3.868207085
7.59482854
7.829360816
7.495864597
5.28248854
7.285957831
8.363476403
6.590585618
6.947545979
12.44989036
5.264559082
5.716443662
15.2247013
10.94604857
7.897679903
6.378665602
7.405070429
6.385150326
4.47192587
10.32793754
3.846597542
6.512839265
8.076930934
6.391521288
3.620944643
9.792591375
4.370782309
4.780534975
9.222527608
13.49417798
8.071197432
5.336804945
6.785785809
9.320463504
6.717833169
7.06702795
1.275800644
10.44895636
8.759463622
13.1581304
6.066399314
4.696271166
5.599567111
8.332258718
11.11891027
9.625266737
8.257521995
7.54211156
8.038591411
4.020435109
8.655373854
5.566584951
10.24661561
7.646872553
6.406753008
5.997320944
13.97073689
7.68185554
5.278833456
2.120347453
12.09896517
6.260503027
12.97303605
4.630295726
6.578286712
6.488417194
8.771132115
9.260591207
9.094224886
15.59471714
17.28951007
7.353828239
12.59183919
4.705898818
7.114195714
6.924790057
3.899582379
12.94118936
13.21188579
6.846974564
9.062039917
6.155583474
5.777826456
10.33774972
15.00562201
2.728249624
4.637506744
5.16617112
2.206429964
4.217981583
6.097149228
9.863066954
10.37667526
4.436593912
8.580451912
16.36821227
2.475955771
4.847555891
7.409231079
10.31552672
7.581762252
5.18981478
7.173743185
6.113088826
6.538672919
6.83106861
9.31429822
4.937520363
11.94872626
5.136866653
10.60643527
8.33778199
7.660735103
6.436337259
6.654087276
8.595449676
8.263088607
2.557074779
8.873104485
7.931108007
5.713202733
11.15227724
6.899156753
13.19349281
13.43772511
6.813101795
6.435639141
6.429040782
8.806560114
4.711675181
6.425455936
6.36720348
11.78558285
10.49607789
6.523537181
12.2046694
7.968547781
6.597248564
3.504181774
6.159793566
9.51787859
9.256210341
12.09163839
4.465137559
11.34468393
5.322250024
5.900672331
7.580857258
6.119759316
9.042501358
8.912897535
4.962774408
4.227896596
12.1833071
8.653593134
6.144896631
5.45423043
5.808256499
3.371231777
6.395933897
9.159397219
3.997852481
4.639821144
7.373026679
12.49384712
5.16847556
10.24868123
5.245381542
9.384962945
5.773779665
3.582643031
9.339850478
6.021267943
10.46880648
4.515823729
18.25567976
12.04422579
7.720819767
9.169223131
5.417329153
8.790086432
6.527304752
7.901995105
9.722625578
9.978399278
4.569092457
5.598883088
9.885876595
6.857871481
5.723571907
6.108213416
2.659814549
18.51757972
7.573734137
5.250897346
6.068092474
6.130415216
7.433083516
11.83510149
6.340880019
11.96765643
8.794546934
8.679182245
4.909958599
3.380661526
5.949170177
11.91114206
6.013637346
4.057112862
6.962256513
9.684480563
8.236402397
10.40490568
11.88769769
10.52993186
6.064158456
10.9006715
7.258468929
4.950807158
8.385883835
10.43055306
7.976972054
11.2951815
8.55962453
6.490387878
5.471206022
8.305681496
5.318863548
)
;

boundaryField
{
    flow
    {
        type            zeroGradient;
    }
    obstacle
    {
        type            calculated;
        value           nonuniform List<scalar> 0();
    }
    frontAndBack
    {
        type            empty;
    }
    procBoundary3to1
    {
        type            processor;
        value           nonuniform List<scalar> 
36
(
15.99092822
15.51917834
6.306780988
9.550781109
17.18016631
17.18016631
21.05136012
19.69473299
10.62574866
23.17817728
16.8010671
14.58546661
14.58546661
13.7726831
10.29735363
11.48670061
8.448969004
9.417952909
9.417952909
4.83948166
7.775228394
12.05231195
16.29509033
9.452515217
10.22549307
10.22549307
7.302185398
8.447246672
4.220653214
8.300779211
7.140491239
5.378342466
7.569214308
7.569214308
7.006896321
7.006896321
)
;
    }
    procBoundary3to2
    {
        type            processor;
        value           nonuniform List<scalar> 
19
(
8.548982606
2.627780975
6.701964735
6.39328885
10.36075891
4.60867088
4.258904304
5.310642231
4.294535332
11.91768982
5.77049703
4.861301858
9.1966936
8.067590796
5.844262206
8.363235788
7.605704778
4.871681203
6.468017606
)
;
    }
}


// ************************************************************************* //
