/*--------------------------------*- C++ -*----------------------------------*\
| =========                 |                                                 |
| \\      /  F ield         | OpenFOAM: The Open Source CFD Toolbox           |
|  \\    /   O peration     | Version:  2406                                  |
|   \\  /    A nd           | Website:  www.openfoam.com                      |
|    \\/     M anipulation  |                                                 |
\*---------------------------------------------------------------------------*/
FoamFile
{
    version     2.0;
    format      ascii;
    arch        "LSB;label=32;scalar=64";
    class       volVectorField;
    location    "0.004";
    object      momentumMean;
}
// * * * * * * * * * * * * * * * * * * * * * * * * * * * * * * * * * * * * * //

dimensions      [1 -2 -1 0 0 0 0];

internalField   nonuniform List<vector> 
654
(
(0.01506679285 0.004706544264 -3.2611404e-05)
(0.01554441589 0.00490953787 1.612598657e-05)
(0.01576288009 0.005046018175 5.933555317e-05)
(0.0155616495 0.004913735107 6.348572406e-05)
(0.01559689499 0.004917399888 8.622121591e-05)
(0.0156480766 0.004831670101 4.465981255e-05)
(0.0135041971 0.003514304707 1.933614364e-05)
(0.0139763269 0.003707566047 -4.532231793e-05)
(0.01437480685 0.004026815625 -8.987017315e-05)
(0.01496725296 0.004306726438 -7.046330417e-05)
(0.01528685266 0.004568253248 -5.459690862e-06)
(0.01548053397 0.004761960832 -6.930665279e-05)
(0.01550135696 0.004758458884 -9.764776049e-05)
(0.0156011641 0.004832513299 -4.518830765e-05)
(0.01595595337 0.005038222124 -3.161134748e-05)
(0.01596031337 0.004939394443 2.016198757e-05)
(0.01587341316 0.004910990654 3.297972021e-05)
(0.01055996693 0.001566221051 6.835644592e-07)
(0.01102295942 0.001805604591 -1.350929956e-05)
(0.01138966739 0.002088635851 7.236618311e-06)
(0.01167825646 0.002321370931 -2.848075209e-05)
(0.01222150585 0.002616810482 -4.856927436e-05)
(0.01277635544 0.003048772375 -2.334676571e-05)
(0.01323099737 0.003295979098 2.151937685e-05)
(0.01361261725 0.003504116447 -2.142935084e-06)
(0.01405784249 0.003852601858 -3.292524566e-05)
(0.01461809673 0.004170974364 -3.981940086e-05)
(0.01508410333 0.004466484351 7.384506983e-06)
(0.01548159622 0.004683035957 -3.476124699e-05)
(0.0156057733 0.004739917432 -7.802077307e-05)
(0.01569098194 0.00479643827 -4.265661521e-05)
(0.0157847163 0.00489887656 -8.059656642e-05)
(0.01578956035 0.004851911119 -1.943462214e-05)
(0.008869286461 0.0004522268689 -4.697870291e-06)
(0.009071667615 0.0005069964776 8.343572574e-06)
(0.009142782016 0.0005849729436 5.405885449e-07)
(0.009390659053 0.0007500935764 2.671972954e-05)
(0.009586021184 0.0008561286738 1.63821506e-05)
(0.009787509534 0.0009781848934 -3.51289462e-05)
(0.009912311397 0.001151304412 -8.318707781e-06)
(0.01030131477 0.00142609597 -3.941807501e-05)
(0.01080832478 0.001633037961 -1.848610962e-05)
(0.01125413114 0.001944450622 -1.500607388e-05)
(0.01173733918 0.002171510159 -4.407147938e-05)
(0.01202279318 0.002484187299 -4.200956944e-05)
(0.01260833433 0.002896669199 -7.663171883e-05)
(0.01308677657 0.003118637548 -1.048666107e-05)
(0.01344718518 0.00335429524 -5.919762676e-05)
(0.01379306788 0.00364026444 -2.153191592e-05)
(0.0143176535 0.004005665834 -5.0440003e-05)
(0.0148148346 0.004313678619 -3.370552467e-05)
(0.01530936768 0.004527194619 1.086539941e-05)
(0.01554730813 0.004683578081 5.046769438e-06)
(0.01563614873 0.00477566823 2.899180288e-05)
(0.01592494851 0.004841720459 3.777737854e-05)
(0.008360539011 7.244477869e-05 3.138808745e-05)
(0.008362406012 9.358983963e-05 1.710980784e-05)
(0.008342333348 0.0001136427123 1.36850386e-05)
(0.008438361299 0.00013620981 1.188123934e-05)
(0.008542489227 0.0001875317768 2.845430227e-06)
(0.008596665405 0.0002076485253 -7.260871382e-06)
(0.008746565905 0.0002627197273 1.599450638e-05)
(0.008753442104 0.0002962960628 -3.348473714e-07)
(0.008876914387 0.0003870886441 -1.757352649e-05)
(0.009035781474 0.0004772685046 -2.968688146e-05)
(0.009126118718 0.0005593289449 -2.564828552e-05)
(0.009283707497 0.0006834271971 -1.517685845e-05)
(0.009516378821 0.0008015825994 3.599347694e-06)
(0.009827947764 0.0009310077839 -1.411669348e-05)
(0.01000320404 0.001089419709 -9.776566959e-06)
(0.01024013086 0.00128060457 -3.254967294e-05)
(0.01053327195 0.001463266609 -5.87535413e-06)
(0.01095397344 0.001774484058 -1.00980662e-05)
(0.01146859529 0.002005439476 1.701752998e-05)
(0.01187260024 0.00234117069 4.08368955e-05)
(0.0124112637 0.002738498824 -3.423556479e-05)
(0.01285526477 0.002964325299 1.244751482e-05)
(0.01338613603 0.003251634097 -8.502449116e-06)
(0.01384672994 0.003546661964 -2.07737961e-05)
(0.01433834437 0.003846731657 2.076744103e-05)
(0.01474159587 0.004194403222 3.875060019e-05)
(0.01510529083 0.004406878304 -5.724618514e-07)
(0.01552652806 0.004584827488 1.861369371e-05)
(0.01567089267 0.004725110501 -1.472675947e-05)
(0.00838424851 6.589803558e-05 -3.716380533e-05)
(0.008432091374 8.362861019e-05 -3.279576447e-05)
(0.008519632419 8.909153136e-05 -1.044358962e-05)
(0.008529867793 9.270791387e-05 -1.101560331e-05)
(0.008539109733 0.0001156394201 -5.506284895e-06)
(0.00849845421 0.0001334228436 1.125147215e-05)
(0.008559061855 0.000172279455 1.29898049e-05)
(0.008616964285 0.0002067290093 -5.47054401e-06)
(0.008688228795 0.0002381010467 2.350470487e-06)
(0.008825455124 0.0002614746431 -2.239079198e-06)
(0.008887139721 0.0003435344942 -1.532293423e-05)
(0.009071499345 0.0004158913862 -1.150424156e-05)
(0.009215758433 0.0005172574801 -1.258252267e-05)
(0.009366026086 0.0005967743136 1.123629832e-05)
(0.00948425306 0.0007234307461 5.08222748e-05)
(0.009743137307 0.0008592159391 4.88521573e-05)
(0.009861761654 0.001018275741 3.354059188e-05)
(0.0101581696 0.001210888001 3.314102956e-05)
(0.01042922888 0.001399307139 -8.623503321e-06)
(0.01066446045 0.001608257313 -3.818043194e-05)
(0.0111163002 0.001887596423 -1.284183696e-05)
(0.01159975338 0.002178775982 -2.418245717e-05)
(0.01220109523 0.002531149684 -4.2304387e-05)
(0.01258731786 0.002750639439 2.128794636e-05)
(0.01306569919 0.003090939612 1.285304982e-05)
(0.01362065696 0.003454001653 -4.664325965e-05)
(0.01398172295 0.003671813895 -9.571143823e-06)
(0.01456437287 0.004006528434 -3.899040119e-05)
(0.01485336094 0.004247494801 -6.533156862e-05)
(0.01536669957 0.004512303241 -3.223575212e-06)
(0.008419083212 5.019270286e-05 -3.969474975e-06)
(0.008390217302 4.071025262e-05 -2.867622671e-06)
(0.008383069326 6.829989745e-05 -2.831923847e-07)
(0.008431950244 7.643887858e-05 -5.851415801e-06)
(0.008516293597 8.358544438e-05 -1.442133566e-05)
(0.008518226341 0.0001013076619 -4.565813897e-06)
(0.008579636829 0.0001078703273 -4.500184114e-07)
(0.008640895233 0.0001108100943 -1.153473348e-06)
(0.008736224038 0.0001571654704 -5.450300118e-06)
(0.008859910021 0.0001990238203 -7.340374415e-07)
(0.008905445959 0.0002479712975 -3.927515277e-06)
(0.008945172647 0.0003307969421 -9.957479753e-06)
(0.009034660043 0.0003878632459 -8.668647315e-06)
(0.009127917921 0.0004817690843 -1.896019511e-05)
(0.009169861281 0.0005867780047 -1.139821572e-05)
(0.009320165703 0.0006759013008 -1.339306016e-05)
(0.009498585416 0.0008038823311 -6.20561857e-06)
(0.009649661295 0.0009851388834 -1.994786164e-05)
(0.009906429236 0.001102033143 8.580110886e-07)
(0.0102726787 0.001275566236 1.77929839e-05)
(0.01053907408 0.001458609801 -7.394984871e-06)
(0.0109526927 0.001753114488 4.740193727e-07)
(0.01138955422 0.002046700987 -5.854063495e-06)
(0.01194046469 0.002333569151 -1.31190122e-05)
(0.01251725662 0.002600336054 1.110428279e-05)
(0.01291571849 0.002926181188 4.119829994e-06)
(0.01356169479 0.003330634009 -1.178722608e-06)
(0.01398714593 0.003603196764 -5.038137503e-07)
(0.01450377007 0.003873052184 -8.319177608e-05)
(0.01483802442 0.004119921087 -6.983829318e-05)
(0.008467336836 4.776264742e-05 6.802991635e-06)
(0.008542370943 3.863985977e-05 3.852831689e-06)
(0.008573215205 3.323061596e-05 -6.177138551e-06)
(0.008583483879 3.208223969e-05 -1.708571051e-05)
(0.008653865838 5.904402426e-05 -8.12144766e-06)
(0.008649676014 7.48285396e-05 -1.981245758e-05)
(0.008588894249 9.303147376e-05 -1.872729044e-05)
(0.008600628062 0.0001225095005 -1.413841718e-05)
(0.008499350078 0.0001375412354 -1.001730863e-05)
(0.008478944964 0.0001551057737 -1.757693793e-05)
(0.008525346955 0.0001503127511 -2.096360116e-05)
(0.00864634786 0.0001968319402 -2.086040718e-05)
(0.008709932208 0.0002884208827 -1.368462723e-05)
(0.008843592957 0.0003692123294 -7.927634621e-06)
(0.009024353165 0.0004579183484 -2.784009412e-05)
(0.009130731809 0.0005497988689 -1.196346972e-05)
(0.009323246921 0.0006574744548 -1.508417203e-05)
(0.009539460762 0.0007490132174 -1.189466689e-06)
(0.009568570463 0.0008879201258 -2.617469826e-05)
(0.009774096529 0.001026796588 -2.245459179e-05)
(0.0101618377 0.001205246999 -1.56455641e-05)
(0.01048257435 0.001412727188 2.481005017e-06)
(0.010725153 0.001552991222 1.902408037e-05)
(0.01116379456 0.001867615091 -3.028045764e-05)
(0.0116042769 0.00217199651 -3.856181197e-05)
(0.01198811046 0.002419488872 -9.405585997e-06)
(0.01257887211 0.00280262815 -2.09351968e-05)
(0.01307470334 0.003157743244 4.340709306e-05)
(0.01361134214 0.003429972854 5.750012064e-05)
(0.01411804842 0.003689778477 -1.826428636e-05)
(0.008503310576 1.86903776e-05 -1.570069698e-05)
(0.008512800872 1.164471935e-05 -9.304817711e-06)
(0.008578567219 3.534446167e-05 -1.522877846e-05)
(0.008526078656 6.056489492e-05 -7.558809296e-06)
(0.008468520113 6.733754245e-05 1.141674561e-05)
(0.008471529243 7.780578569e-05 2.711625509e-06)
(0.008502120763 7.477491041e-05 -1.550152507e-05)
(0.008551946871 7.289708168e-05 -1.121395575e-05)
(0.008590915074 0.0001168274559 -1.310936823e-05)
(0.008655692769 0.0001272715788 -1.337814435e-05)
(0.008589012422 0.0001587411067 -7.996116883e-06)
(0.008661954128 0.0001869504017 -1.923449397e-05)
(0.008707614455 0.0002189785076 -1.819709147e-05)
(0.008664421798 0.0002722121017 -6.587786256e-06)
(0.008698447702 0.0003195275343 -5.136688745e-06)
(0.008856908521 0.0003830343693 -2.814717456e-05)
(0.008959516631 0.0004887227089 -1.87719242e-05)
(0.009096041467 0.0006274670147 -2.868331586e-05)
(0.009390426872 0.0006901203459 -3.334433974e-05)
(0.00955346626 0.0008325180385 -2.597220741e-05)
(0.009688322887 0.000922789392 -3.208658095e-05)
(0.009911271584 0.001137879495 -1.810227665e-05)
(0.01022650277 0.001353113468 -2.737635438e-05)
(0.0103716409 0.001492489292 -1.056914122e-05)
(0.0107294881 0.001706554382 2.159164617e-05)
(0.01127600242 0.002041575796 -1.514940181e-05)
(0.01170499764 0.002304156971 -3.030997996e-05)
(0.01219535538 0.00258777343 -1.116331896e-06)
(0.01284851993 0.002915751516 6.430194806e-05)
(0.01346572427 0.003311512519 4.027499159e-05)
(0.008299934521 -2.39871875e-05 -5.093915077e-06)
(0.008264991879 -1.183695224e-05 -6.98805161e-06)
(0.008300284815 1.529209546e-05 -9.124502461e-07)
(0.008275515494 1.665720647e-05 2.410403614e-06)
(0.008389170294 2.553198028e-05 4.042029664e-06)
(0.008420374499 3.914175568e-05 7.876354798e-06)
(0.008503409063 6.365541974e-05 1.346247965e-05)
(0.008514084412 8.379322477e-05 6.89798099e-06)
(0.00850554141 8.204625366e-05 1.741862794e-05)
(0.008476743635 0.000105626852 1.970891736e-05)
(0.00850243501 0.0001509535891 1.495198214e-05)
(0.008494118314 0.0001609377831 1.434445609e-05)
(0.008509993907 0.0001735726274 -3.05306083e-06)
(0.008556193771 0.0001999802903 -2.941130518e-06)
(0.008636815505 0.000260260295 -1.174209568e-05)
(0.008640633675 0.0003203600208 -1.993804255e-05)
(0.008756637417 0.0003943259779 1.791625118e-06)
(0.008925991395 0.0004307166712 1.639868452e-05)
(0.009019839416 0.0005303613244 1.102927606e-05)
(0.009144108529 0.000629185176 1.36119734e-05)
(0.009365803667 0.0007640865757 1.93410258e-05)
(0.009568685958 0.0008665763736 4.061572911e-06)
(0.009947156834 0.001094075556 -6.513165557e-06)
(0.01033033395 0.001244509944 -2.867596714e-05)
(0.01064049777 0.001443956295 -5.677097533e-05)
(0.01101360582 0.001633671968 -7.130450435e-06)
(0.01147562894 0.001928645381 2.69825814e-06)
(0.01184973705 0.002262012942 -5.285682189e-05)
(0.01215594026 0.002558006178 -2.878225273e-05)
(0.01256317619 0.002760299427 9.262773434e-06)
(0.00840253248 9.518306698e-06 3.797221367e-06)
(0.008411524273 1.751894605e-05 -5.163585326e-06)
(0.008413605958 1.277533142e-07 -1.68859569e-06)
(0.008352313717 -2.335112037e-06 -1.201694184e-06)
(0.00833809596 7.031457555e-06 -1.319877529e-05)
(0.008319960565 1.246512159e-05 -4.119526897e-06)
(0.008228512012 3.023670724e-05 8.1977891e-06)
(0.00829104328 4.417765743e-05 1.134339063e-05)
(0.008372967149 7.016244207e-05 -1.824167085e-06)
(0.008474884286 9.431610236e-05 -8.490814795e-06)
(0.008447292532 0.00010826309 -5.965454283e-07)
(0.008386321418 0.0001487502056 1.709735055e-05)
(0.008402885655 0.0001670022636 4.241453908e-05)
(0.008456161981 0.0001865483417 2.401912008e-05)
(0.008453233328 0.0002072167247 9.127709825e-06)
(0.008495371994 0.0002114205934 1.314679357e-06)
(0.008532729633 0.0002521857935 1.744442232e-05)
(0.008664991205 0.0003458227444 1.018835249e-05)
(0.008840972316 0.0004088200457 1.328480721e-05)
(0.008997209379 0.000518097524 -5.356477536e-06)
(0.009164216372 0.0005573444598 -2.210614304e-05)
(0.009374594038 0.0006465984722 -2.147574278e-05)
(0.00956132512 0.0007752968047 -8.975563965e-06)
(0.00987347364 0.0009381817167 -2.876209543e-05)
(0.01008251207 0.001122558583 -5.140182151e-05)
(0.01036064848 0.001342906105 -5.849223722e-05)
(0.01078861991 0.001615595985 -5.162392863e-05)
(0.01112325293 0.001837406462 1.008164425e-06)
(0.01173316875 0.00216222341 -1.021200562e-05)
(0.01227370378 0.002421581058 -3.412782312e-05)
(0.008369827533 -1.057438077e-05 -2.823107823e-05)
(0.008299311102 -9.111035974e-07 -1.162119092e-05)
(0.008220492415 1.687893935e-05 -9.535692047e-06)
(0.008283471042 1.2806003e-05 5.063500131e-06)
(0.008338530595 8.467632458e-06 5.26712215e-06)
(0.008419541907 2.213024871e-05 5.202117612e-06)
(0.008434084915 1.670571555e-05 2.437990868e-06)
(0.008375520149 3.245967514e-05 1.523445328e-05)
(0.008309619215 5.322596386e-05 1.279573863e-05)
(0.008224948876 9.503211848e-05 2.667257895e-05)
(0.008367613419 0.0001055133425 2.315525262e-05)
(0.008432162432 0.0001139142914 5.728489994e-06)
(0.008444364004 0.0001292736828 -6.970600649e-06)
(0.008466495678 0.0001322222782 -1.001716799e-05)
(0.008521435531 0.0001535513993 -4.087601541e-06)
(0.008691153174 0.0002124176693 3.112090614e-06)
(0.008746348129 0.0002296076963 -2.699951071e-05)
(0.008697819934 0.000262747456 1.57069704e-05)
(0.008841849992 0.0003007813937 -1.125253058e-06)
(0.008798787441 0.0003714794451 1.44514562e-05)
(0.00906157185 0.0004349564491 1.784688552e-05)
(0.009232282951 0.000525360221 1.298451763e-05)
(0.009341539025 0.0005923772718 -3.131058529e-06)
(0.009504010456 0.000770578115 9.598694359e-06)
(0.009756275922 0.0009224017346 5.608417722e-06)
(0.01002780647 0.001071135817 -1.461838873e-05)
(0.01026430988 0.001263117725 -3.306126885e-05)
(0.01071988631 0.001501026857 -3.18068375e-05)
(0.01109551726 0.001696227994 -5.696346762e-05)
(0.01157229868 0.001990692322 -4.925760204e-05)
(0.008247036852 -3.642881507e-06 1.262150406e-05)
(0.008332031258 -5.612172193e-06 -5.816874749e-07)
(0.008379367022 -1.156133219e-05 -9.667579635e-06)
(0.008367545431 1.707669901e-06 -1.652770665e-05)
(0.00824990652 1.447356169e-05 -1.729507033e-05)
(0.008257519276 1.049963181e-05 -1.247561301e-05)
(0.008209060427 2.764992442e-05 -8.637240987e-06)
(0.008204399043 4.493874882e-05 -2.357713786e-05)
(0.008208709571 6.271456461e-05 -1.68256704e-05)
(0.008282485072 5.47109729e-05 -5.86437641e-06)
(0.00826743534 6.351056384e-05 -6.818649999e-06)
(0.008328221566 5.47003348e-05 -2.824562676e-06)
(0.008482461263 7.746899851e-05 5.398919044e-06)
(0.008477408633 0.0001070113198 2.865693266e-05)
(0.008506506152 0.0001492328048 3.730640997e-05)
(0.0085283765 0.0001417997426 2.244415048e-05)
(0.00861530634 0.0001542642337 2.245277212e-05)
(0.008735254287 0.0001573427557 2.238598109e-06)
(0.008783115873 0.0002299809058 1.307208691e-05)
(0.008924952746 0.0002776730791 2.289973449e-05)
(0.00896045189 0.0003467406047 8.301217198e-06)
(0.008969467565 0.0004161944163 -1.621852322e-06)
(0.009075334907 0.000536414071 -9.645717914e-07)
(0.009196869036 0.0005976917221 -5.338060969e-06)
(0.009363941462 0.0007036323305 1.207047495e-05)
(0.009661372777 0.0008251045527 -5.280705754e-06)
(0.009915236488 0.001004599488 -2.034908981e-06)
(0.0102817963 0.001174375551 -2.578957491e-05)
(0.01064032912 0.001397238156 2.571368153e-06)
(0.0109267041 0.001657023244 1.870335445e-05)
(0.008313579898 -9.609233026e-06 -1.029000109e-05)
(0.008296737121 -6.304618104e-06 -1.363656921e-05)
(0.008264005824 1.12813545e-05 -9.198872434e-06)
(0.008238548145 1.992231535e-05 -1.367335442e-05)
(0.008252070589 2.257513131e-05 1.464910029e-06)
(0.008203261919 3.059472206e-05 2.062663017e-06)
(0.008231520283 3.693041477e-05 3.028734322e-06)
(0.008177015411 2.725029521e-05 1.387249129e-05)
(0.008237674619 2.300723538e-05 5.937284834e-06)
(0.008381486445 1.928715409e-05 -4.408404926e-06)
(0.008378635437 4.074348142e-05 3.081906699e-06)
(0.00831923611 7.210497845e-05 1.255335092e-05)
(0.008260262453 4.37324761e-05 4.424677194e-06)
(0.008366168642 4.240487418e-05 -1.136567152e-05)
(0.008453191704 4.776270092e-05 3.941311486e-06)
(0.008571992848 0.0001016129795 5.657294736e-06)
(0.008551353573 0.0001146760398 4.114032992e-06)
(0.008606645183 0.0001555866799 2.095065348e-05)
(0.008549249366 0.0001791545237 1.809395809e-05)
(0.008642640042 0.000205800123 1.049877365e-05)
(0.008586680872 0.000257665248 3.189877452e-05)
(0.008704969723 0.000335692205 1.462724839e-05)
(0.008889502133 0.0004021730892 3.33692583e-05)
(0.009001872866 0.0004497151578 4.829200927e-05)
(0.009212244004 0.0005673227799 3.911401417e-05)
(0.009416170347 0.0006546041212 5.9833703e-05)
(0.009589392267 0.0007558997728 5.043739771e-05)
(0.009792746377 0.0009234796496 5.397585098e-05)
(0.01006287706 0.001080625096 4.333161934e-05)
(0.01050066297 0.001328237372 1.821927138e-05)
(0.008208791171 2.321435899e-05 -9.439893961e-06)
(0.008188560599 1.90082285e-05 -5.975850221e-06)
(0.008193215277 9.019458668e-06 1.618077741e-07)
(0.008242480571 5.775471275e-06 9.759117768e-06)
(0.008201914138 2.085860361e-05 6.838390241e-06)
(0.008303296554 2.165228859e-05 4.666323473e-07)
(0.008400759884 1.063453658e-05 4.787028196e-06)
(0.008466804806 2.618748078e-05 9.879235127e-06)
(0.008388790861 1.971662681e-05 -1.214550015e-05)
(0.008351797427 3.720680459e-05 -1.712250333e-05)
(0.008380924103 1.820980972e-05 -1.02981544e-05)
(0.008454628852 1.28138087e-05 -5.140207073e-06)
(0.008439766861 4.969156264e-05 -3.910057646e-06)
(0.008582567353 4.268513065e-05 3.844880971e-06)
(0.008462501385 5.323845587e-05 -1.820937173e-06)
(0.008471105605 6.135576725e-05 -9.617013653e-07)
(0.00845999044 8.122812729e-05 6.768140301e-06)
(0.00839357745 0.0001303680242 -2.241116663e-06)
(0.00841993582 0.0001579782531 9.404814052e-06)
(0.00841021276 0.0002167294558 2.847056044e-05)
(0.008430860384 0.0002137114914 2.449737895e-05)
(0.008628421093 0.0002525304254 3.021522567e-05)
(0.008649507779 0.0002707167136 1.640470601e-05)
(0.008729479796 0.0003341137304 5.77340969e-06)
(0.008886439026 0.000365105425 6.041124758e-06)
(0.009086317305 0.0004772062046 -1.310619789e-05)
(0.009311832024 0.0005957410751 1.339778719e-05)
(0.009542332816 0.0007455910596 1.005861754e-05)
(0.009670205929 0.0008930569253 9.449530887e-06)
(0.009923432359 0.00105511218 2.049486639e-05)
(0.008334900789 1.051366803e-05 3.457737304e-05)
(0.008294954301 1.280592044e-05 2.355996596e-05)
(0.008270416632 2.757442032e-05 2.456812284e-05)
(0.008282456893 8.179985374e-07 6.079021631e-07)
(0.008347358845 -1.154990077e-05 -7.544499475e-06)
(0.008390717204 -2.210868461e-05 -6.56560074e-06)
(0.008376748526 -1.106458655e-05 -1.086384719e-05)
(0.008430804271 -4.237535332e-06 -5.279406727e-06)
(0.00848631502 1.454299022e-06 3.403815752e-06)
(0.008477641253 2.508191587e-05 -2.095146743e-06)
(0.008420542943 1.571061906e-05 -1.237510802e-05)
(0.008430564965 1.517915469e-05 -2.827135686e-05)
(0.008451232357 2.423574532e-05 -2.382595695e-05)
(0.008390634894 5.04141368e-05 -2.979689079e-05)
(0.00839443027 7.239204326e-05 -4.001768211e-05)
(0.008367770531 9.644799832e-05 -3.87773614e-05)
(0.008373369334 0.0001045795228 -1.46695184e-05)
(0.008487495035 0.0001287608485 -1.274079662e-05)
(0.008500351606 0.0001139250605 -2.308686219e-05)
(0.008596193263 0.0001272599713 -3.478306996e-05)
(0.008635350514 0.000178475345 -4.258711542e-05)
(0.008677165329 0.0002005834234 -2.393466462e-05)
(0.008757397458 0.0002433482802 4.605196113e-06)
(0.008874963597 0.0002853183373 1.198044615e-06)
(0.008867073836 0.0003169829845 2.683483738e-05)
(0.008904191805 0.0003739230966 1.635001339e-05)
(0.008963393586 0.0004383330311 -7.436722008e-06)
(0.009193117931 0.0005449099699 9.200494895e-06)
(0.009462666234 0.0006999150383 1.480918857e-05)
(0.009676916319 0.000830936614 9.319063088e-06)
(0.00849364577 3.221791057e-05 -2.807046103e-05)
(0.008571281399 2.017492942e-05 -8.738853606e-06)
(0.008623356371 1.295545111e-05 -1.449266014e-05)
(0.008508121768 1.675147757e-05 -2.005732003e-05)
(0.008458182074 1.262510007e-05 -6.85266954e-06)
(0.008401020197 1.32521623e-05 -2.15877028e-06)
(0.00832132704 4.138502328e-06 8.110366659e-06)
(0.008304797595 -1.426892896e-05 -8.765840492e-06)
(0.008282855968 -1.588041904e-05 -8.930036788e-06)
(0.008335011444 -2.074379387e-05 -3.683764619e-06)
(0.008332860482 1.555054031e-05 -2.128158908e-06)
(0.008270489267 4.438224655e-05 6.230936165e-06)
(0.008245198346 6.259261194e-05 4.417958698e-07)
(0.008270661938 4.598571722e-05 -1.476033093e-05)
(0.00832029141 4.874363517e-05 -1.63008577e-05)
(0.008376872362 4.064086229e-05 -2.171337207e-05)
(0.008397203673 5.895793045e-05 -3.338502449e-05)
(0.008385732238 6.801923902e-05 -2.464555074e-05)
(0.008531668357 0.0001103118971 -2.937937204e-05)
(0.008558648793 0.0001110181651 -2.188855724e-05)
(0.008664732569 0.0001297966696 -2.11940591e-05)
(0.008671690934 0.00014599014 -3.563848958e-05)
(0.008694159301 0.0001757477497 -4.68741585e-05)
(0.008704178642 0.0002286143958 -4.122980564e-05)
(0.008738492583 0.0002688965673 -3.233533291e-05)
(0.008765034848 0.0003119282441 -2.164065864e-05)
(0.00882382638 0.0003779346258 2.558377204e-07)
(0.009034730022 0.0004747975015 -3.202745731e-06)
(0.00903815826 0.0005411753202 2.323781365e-06)
(0.009313476141 0.0006458010227 1.361602779e-05)
(0.008381007595 -1.70259347e-05 -1.755700067e-05)
(0.008364902962 -1.909905902e-06 -1.592336408e-05)
(0.008437662112 5.03358952e-06 -1.270124125e-05)
(0.008447091148 1.743241218e-05 -8.316298059e-06)
(0.00844526343 2.405569831e-05 -2.815516637e-05)
(0.008559940231 2.840479094e-05 -2.690168229e-05)
(0.008491195713 2.394866913e-05 -1.850295527e-05)
(0.008464038238 2.486969461e-05 -1.623849661e-05)
(0.008340542224 3.082906258e-05 -9.603764582e-06)
(0.008323312121 2.799827339e-05 1.716899053e-06)
(0.008321470735 3.398452149e-05 6.05223003e-06)
(0.008367681339 5.589726739e-06 1.34488957e-06)
(0.008416376916 1.566524e-05 5.989950883e-06)
(0.008406653686 3.652397635e-05 -2.881597663e-07)
(0.008410904154 3.249277214e-05 4.551795462e-06)
(0.008404715378 4.739844726e-05 -3.161798987e-06)
(0.008410092863 5.853266701e-05 -3.079184272e-06)
(0.008445512284 6.352792376e-05 -3.658205568e-05)
(0.008436791071 5.581635957e-05 -2.868950614e-05)
(0.008414696455 6.455503244e-05 -3.955378037e-05)
(0.00841318496 0.0001045214899 -3.452086427e-05)
(0.008428242215 0.0001307668518 -3.761409622e-05)
(0.008435918513 0.0001606411489 -4.247903894e-05)
(0.008509896835 0.0001736828243 -2.572550094e-05)
(0.008681253339 0.0002529460493 -2.686778561e-05)
(0.008718476388 0.0002510759496 -3.326497973e-05)
(0.008866912521 0.0002952111401 -1.303070832e-05)
(0.00890499056 0.0003346345974 -1.316871164e-05)
(0.009025840716 0.0004115893141 -1.267385973e-05)
(0.009135653569 0.000548404412 -2.226221826e-05)
(0.008248975057 -1.301998224e-05 1.485535069e-05)
(0.008159564154 7.748316689e-07 1.121447837e-05)
(0.008139767547 9.049343269e-06 3.261721836e-07)
(0.008147135568 3.839724975e-07 -2.297864411e-06)
(0.008162460437 -3.693362554e-06 -2.561475311e-06)
(0.008132380006 6.902173294e-06 1.886711814e-06)
(0.008136184082 2.93474511e-05 -2.117496949e-06)
(0.008200532068 2.755114496e-05 -5.54103383e-06)
(0.008274801596 2.968326861e-05 -4.721396139e-06)
(0.008170668162 1.852584735e-05 6.301012605e-07)
(0.008202534407 2.338937414e-05 -8.865179897e-06)
(0.008210075243 1.483472682e-05 -1.171761703e-05)
(0.008240909846 -9.646953556e-06 8.391705145e-07)
(0.008183898093 7.56791063e-06 6.070219247e-06)
(0.008287899406 1.458063991e-05 -2.078606625e-06)
(0.008253191098 3.305873631e-05 -3.071040632e-06)
(0.00826913249 2.623993244e-05 4.978759564e-06)
(0.008369579774 5.202339689e-05 6.77797202e-06)
(0.008320087928 7.146572662e-05 2.201429965e-05)
(0.008414897296 6.766205643e-05 2.961122852e-05)
(0.008473748749 7.137789427e-05 3.527412441e-05)
(0.008457155704 8.941369713e-05 4.867744063e-05)
(0.008471347642 0.0001044148599 5.063919548e-05)
(0.008510576755 0.0001372808803 3.324712849e-05)
(0.008559415835 0.0001540692713 1.892038113e-05)
(0.008543356339 0.0002164663435 1.903960901e-05)
(0.008585989451 0.0002266702713 -5.151276591e-06)
(0.008720967003 0.0002755398773 4.442059592e-06)
(0.008927047762 0.0003335379811 -4.987824672e-06)
(0.009002931592 0.0003488404402 1.206337878e-06)
(0.008207303293 1.204686725e-05 -1.269124452e-05)
(0.008167689096 -6.345771226e-06 -8.494003769e-06)
(0.008194340183 -1.160499997e-05 -6.434885562e-07)
(0.008162021999 -9.956545688e-07 6.78325211e-07)
(0.008206362925 1.801166116e-05 -2.257829025e-06)
(0.008234507845 1.672727894e-05 -3.073579379e-06)
(0.008228442638 7.196735283e-06 9.500186991e-07)
(0.008217971392 1.741434394e-05 1.097894102e-06)
(0.008259453423 1.036616065e-05 -4.955957047e-06)
(0.008294923729 1.327156867e-05 -8.554707324e-06)
(0.008317896285 1.123032489e-05 1.956834364e-06)
(0.008232949577 6.437545713e-06 1.61948509e-05)
(0.008177271163 1.951243112e-05 1.253804167e-05)
(0.008255275195 1.138415726e-05 2.230725399e-05)
(0.008235004783 1.277633929e-05 2.021797354e-05)
(0.008274691574 1.619796493e-05 2.031887016e-05)
(0.008356467388 1.873506613e-05 2.542858028e-05)
(0.008290773142 1.104896443e-05 3.172919798e-05)
(0.008317879181 3.976761559e-05 2.268936666e-05)
(0.008383346347 3.841126193e-05 2.710198814e-05)
(0.008341333908 6.132091493e-05 1.498488851e-05)
(0.008398628013 7.174630717e-05 2.157837616e-05)
(0.008381294985 9.589962714e-05 1.908554927e-05)
(0.008431842065 0.0001256282718 7.736943219e-06)
(0.008525418924 0.0001269998516 2.991152613e-05)
(0.008597767525 0.0001511374268 3.978205769e-05)
(0.008608318223 0.0001993509866 3.134125223e-05)
(0.00863152304 0.0002005014769 1.735879365e-05)
(0.008670213694 0.0002435839705 2.280020156e-05)
(0.008783899704 0.0002821156388 4.834575021e-06)
(0.008277254877 3.039373243e-05 -9.0294543e-06)
(0.008277106323 2.600740635e-05 -5.461062475e-06)
(0.0082277258 1.110735892e-05 8.897812659e-07)
(0.008263428533 -4.232307856e-06 1.12706768e-05)
(0.008217950531 -6.066992615e-06 1.069305103e-05)
(0.008294556555 -1.761556704e-05 2.912497877e-05)
(0.008378338359 -1.957415947e-05 1.585912262e-05)
(0.008448643546 -1.123521128e-05 1.540002101e-05)
(0.008382412873 9.733329727e-06 1.764776844e-05)
(0.008458992676 6.694776639e-06 2.389878679e-05)
(0.008445419263 1.106086262e-05 1.04033793e-05)
(0.008509026222 3.948864952e-05 9.127136309e-06)
(0.00857068155 2.838217766e-05 -4.459693603e-07)
(0.008511174525 3.1753433e-05 -2.461620917e-06)
(0.008418640496 1.866735699e-05 1.266238171e-05)
(0.008453045721 1.115695043e-05 1.800331928e-05)
(0.008401059796 2.098952225e-05 1.501223316e-05)
(0.008351703851 2.380903754e-05 3.692563226e-05)
(0.008354788331 6.202044756e-06 2.777994638e-05)
(0.008275140421 5.635530239e-05 1.249859376e-05)
(0.008393142498 5.752964381e-05 1.342959831e-05)
(0.008463305672 4.78200993e-05 6.834418637e-06)
(0.008553863126 7.250408622e-05 1.728744009e-06)
(0.008538165608 6.462360226e-05 5.339275313e-06)
(0.008538494989 9.111110041e-05 2.209343498e-06)
(0.00862791844 0.000111161712 9.754154681e-06)
(0.008666693966 0.0001266752057 -1.086988045e-05)
(0.008823817921 0.0001746380408 2.585648648e-06)
(0.008836143643 0.0001964602409 1.057019991e-05)
(0.008868833197 0.0002536167896 1.24852148e-06)
(0.008473031547 6.959953432e-06 -4.860837461e-06)
(0.00848075205 5.498373581e-06 -1.014870059e-05)
(0.008520236832 6.019124745e-06 -2.215856265e-05)
(0.008542181726 2.103889632e-05 -1.290752894e-05)
(0.00853025603 1.438947083e-05 -6.609199653e-06)
(0.008405079418 8.425798888e-06 -1.564097534e-05)
(0.008341140889 3.464844048e-06 -1.180529459e-05)
(0.008315760673 1.725157918e-06 -6.325562499e-06)
(0.008345379031 -1.259195342e-05 -1.515991714e-05)
(0.008338695996 -1.050781315e-05 -1.415705111e-05)
(0.008305129837 -1.027911788e-05 -4.036732201e-06)
(0.008324096887 3.832306277e-07 7.143699653e-06)
(0.008365300375 7.228085559e-06 1.680548041e-05)
(0.008426684182 1.32947738e-05 1.612732903e-05)
(0.008434973679 1.454072266e-05 2.822969363e-05)
(0.008481254743 2.834681318e-05 1.247416334e-05)
(0.008496371926 4.98271603e-05 2.171015595e-06)
(0.008510193416 4.817073595e-05 -1.20453195e-05)
(0.008510339766 4.476514846e-05 -1.883961647e-05)
(0.008503961075 1.635687963e-05 -2.310745619e-05)
(0.008450787998 1.791738144e-05 -4.909518749e-06)
(0.008440140801 3.744525071e-05 2.873004862e-06)
(0.00847906853 1.629199397e-05 -1.475801853e-06)
(0.008467503906 3.162932025e-05 -1.0644646e-05)
(0.008450819549 5.653632895e-05 -6.514237098e-06)
(0.008490876963 0.0001102248794 -4.064072369e-06)
(0.008506959095 0.0001328431098 1.941450396e-05)
(0.008452520685 0.0001381506688 -4.36882003e-06)
(0.008448856301 0.000178217157 -1.210874161e-06)
(0.008552756383 0.0001937287071 2.599459751e-05)
(0.008408337157 -2.73799383e-06 1.345816489e-05)