/*--------------------------------*- C++ -*----------------------------------*\
| =========                 |                                                 |
| \\      /  F ield         | OpenFOAM: The Open Source CFD Toolbox           |
|  \\    /   O peration     | Version:  2406                                  |
|   \\  /    A nd           | Website:  www.openfoam.com                      |
|    \\/     M anipulation  |                                                 |
\*---------------------------------------------------------------------------*/
FoamFile
{
    version     2.0;
    format      ascii;
    arch        "LSB;label=32;scalar=64";
    class       volVectorField;
    location    "0.004";
    object      momentum;
}
// * * * * * * * * * * * * * * * * * * * * * * * * * * * * * * * * * * * * * //

dimensions      [1 -2 -1 0 0 0 0];

internalField   nonuniform List<vector> 
654
(
(0.0227680622 0.00606165377 -0.003281130321)
(0.01499131461 0.006820696222 4.981847699e-05)
(0.01633815664 0.006613447407 -0.002750468118)
(0.01432861699 0.003548582027 0.0005475343677)
(0.01232515073 0.00206226318 0.0007774345531)
(0.01896126857 0.002988611876 -0.0009922437861)
(0.01620151485 0.002387582001 -0.0004457757374)
(0.01500549639 0.004625374394 -0.001906071614)
(0.01824329333 0.006210167049 -0.0005794593585)
(0.01564605504 0.003062489636 0.0007854245364)
(0.01792803669 0.003703108169 0.0003099495269)
(0.0124812054 0.004817843463 0.002617969192)
(0.01660314257 0.004392962477 -0.0009211846259)
(0.02125049474 0.007778625999 -0.0007185324879)
(0.01454598745 0.003863455259 0.001958878803)
(0.01844356421 0.005421925662 5.368203174e-06)
(0.01433796237 0.005276404795 -0.001991461825)
(0.00513248782 0.0009302329862 -0.0002529498142)
(0.01034624744 0.00293051503 -0.000119446873)
(0.01074283804 0.00389461504 0.001144647256)
(0.008599007753 0.002572514266 0.0005148374626)
(0.009684846868 0.001457703646 -0.0003052580433)
(0.01376788552 0.004428799176 -0.001195261551)
(0.009550262769 0.001620563203 0.000641709421)
(0.01174787198 -2.173456954e-05 0.001132050239)
(0.01700226494 0.004135524605 -0.0003478027684)
(0.01167737387 0.003819639481 -0.0002301035274)
(0.01890949162 0.006053201752 -0.001354070375)
(0.01786440935 0.007041911256 0.001885042904)
(0.01269189833 0.0055278311 -0.0008197122509)
(0.01650569578 0.005756273312 0.001178890203)
(0.01940976212 0.008667164387 0.00013523528)
(0.01775755963 0.005424681092 -0.0009803599252)
(0.003902076388 0.0001688914858 -2.676083675e-05)
(0.01712658627 0.0002208234799 -0.000251021059)
(0.009724118925 0.002979092568 3.928544848e-05)
(0.0138970436 0.0009652181223 -0.0006087994063)
(0.007050361143 0.0005544191997 0.0003247560622)
(0.01348821218 0.0001171271741 8.728304069e-05)
(0.01150845445 0.00136881622 -0.001193842156)
(0.009266404942 0.001498387823 0.00134881945)
(0.007740061171 0.001120265124 -0.0005027367028)
(0.009415284804 0.002918445793 -6.48463906e-05)
(0.01321233782 0.002815073541 0.0008412116662)
(0.01553208824 0.003415627769 -0.0006479015387)
(0.01400557162 0.003444139162 -0.001096322954)
(0.01255027301 0.002880950814 0.001245377569)
(0.01586419063 0.00329611518 -0.001998871534)
(0.01432570182 0.003046395379 6.063957059e-05)
(0.01101273293 0.004970791392 -0.0003084325395)
(0.01106923285 0.003696460761 0.002244899675)
(0.0126805824 0.004047875647 0.0005921655087)
(0.01603318964 0.004283255779 0.001800507535)
(0.01649155654 0.007645348961 0.001060157151)
(0.01760088023 0.004397996295 -0.000848947444)
(0.009942718214 -0.0002323390009 0.0003495678762)
(0.006270997445 -0.0001257072321 -0.0008123346543)
(0.008182230758 0.0002444634516 0.0004162510604)
(0.01146311709 -0.0002295000866 -0.0003427133809)
(0.00749422818 0.0006737568487 -0.000800243594)
(0.007958687426 -0.0004553521174 -0.0002737461624)
(0.007995124747 0.0001194212386 -0.0009014106772)
(0.01159267795 0.0002291439642 -9.915989071e-05)
(0.004372031205 -0.0002303690951 -2.589586668e-05)
(0.007606523098 0.0002529279059 0.0004717194967)
(0.006108682589 0.0003139393709 -0.0006238670909)
(0.004530645016 0.000348292626 7.460687881e-05)
(0.01096083429 3.352271163e-05 0.0002113141921)
(0.005950906607 0.001089062075 -0.0001246572278)
(0.01632702683 0.001573899403 0.0002446864154)
(0.01124064865 0.002358439812 -0.000384241006)
(0.01423782223 0.002330153162 -0.000305471353)
(0.009767427223 0.0007243723343 0.001445112813)
(0.01336001935 0.001793805259 -0.00137006326)
(0.0107191313 0.002337397204 0.0005251956701)
(0.01184158698 0.00173792855 -0.000899459401)
(0.01144242128 0.004506299253 0.0007641703927)
(0.01343877357 0.003213152296 -0.0009537985683)
(0.0183181691 0.004624681966 -0.0004948973642)
(0.01568484427 0.003425439546 0.0008926292359)
(0.0147703997 0.004485589474 0.0003223810245)
(0.01028063527 0.003694293903 9.757913315e-06)
(0.02029688994 0.005649110836 0.0005210939402)
(0.01365871638 0.004778140526 0.001982665844)
(0.005781530927 4.622390637e-05 0.0005471868767)
(0.003810991706 0.0004674289945 -0.0001054602309)
(0.009227627909 -0.001501374483 3.878104748e-05)
(0.007743549409 4.898645836e-05 0.0009022958171)
(0.01200674386 4.336704903e-06 -0.000809592394)
(0.01291944241 0.001200583766 -0.0001492783505)
(0.005750732837 0.0001137596545 -0.0001127764555)
(0.01369536104 0.0001160923627 0.0004765581211)
(0.005679138529 0.0002051537534 0.0003049081592)
(0.008929385043 0.000819101891 0.0002418992863)
(0.004780699147 -7.449142194e-05 0.0001663423284)
(0.01243311788 0.000526951925 0.0004978997528)
(0.007419283918 0.0005729039144 -0.000265320937)
(0.01350463346 0.0002426237297 0.0002743368593)
(0.01034074822 0.0001097986531 -0.0002264380061)
(0.008951342252 0.0009268482994 -0.0006536373421)
(0.005527915277 -2.701919817e-05 -0.0002497375471)
(0.004203006183 0.001099818234 -0.0006503730683)
(0.007973400543 -0.0003927609761 4.353105881e-05)
(0.01805101799 0.004612608038 -0.0005717940993)
(0.01226139313 0.001330994629 -0.0004866974723)
(0.007088348442 0.00127787228 0.001104327224)
(0.01345667408 0.003815694673 -0.0009189466177)
(0.01711324998 0.002027540555 0.0003210825472)
(0.01356507516 0.003489997553 -0.0004021160207)
(0.01317659868 0.003909056475 -0.0008040959994)
(0.01614855425 0.004821524821 0.0006307982483)
(0.009680660065 0.004299681693 2.321141092e-05)
(0.02723879993 0.007419327943 -0.002249494233)
(0.01325494227 0.005947554579 -0.0008479119446)
(0.008092781166 -0.000457918192 -0.0002133263197)
(0.009099261765 -0.0003441993511 0.0007820135008)
(0.005981792415 4.432262206e-05 0.0002631538857)
(0.01003234405 0.0003528800009 -0.0001852939696)
(0.01473927278 0.001160415902 -0.0007400891086)
(0.01083210951 -0.001368271401 8.226247073e-05)
(0.008108803991 0.0003106641659 0.000589728149)
(0.01484347854 0.0006314533852 0.0006198848281)
(0.008858657153 0.0001146609484 -0.0005182993015)
(0.01423687927 0.002509182024 -0.0003427909794)
(0.01095157212 0.0004395297808 -0.0002304062124)
(0.005464577547 0.0009708567712 0.0003118214719)
(0.008684813889 -0.0004933173377 0.0006904725363)
(0.005927997139 -8.101117161e-05 -0.0006065267891)
(0.009159631198 0.001044988679 -0.0001955492117)
(0.006250079426 0.0003388384571 -0.0003463292899)
(0.008732263426 0.0009745164986 6.293176544e-05)
(0.01485892243 0.001908500594 -0.0004816956057)
(0.01480143466 0.003544572703 0.0003653537361)
(0.004916142151 0.00219301186 -0.0009914888128)
(0.009258250496 0.001336691459 -0.0003814203642)
(0.0145960319 0.002899327219 -0.0004312671204)
(0.01454829997 0.002661157248 0.0007166651878)
(0.009925848947 0.0009446112682 -0.0006958042985)
(0.01048839052 0.001224610118 -0.0005212383079)
(0.01637373674 0.004723639992 -0.0004739677105)
(0.01646015961 0.004808612291 -0.001379285114)
(0.01715034103 0.005701746392 -0.000183163122)
(0.01367589206 0.003919846667 -0.0006464623537)
(0.01653149348 0.006479291625 0.0005704342778)
(0.0133183511 -0.0003163791479 0.0002765831574)
(0.008930604986 -0.0007867834989 0.0003587655659)
(0.008784721516 0.0006247255032 0.0003835472679)
(0.006300633723 0.0004729596844 -0.0003435080576)
(0.00644090948 0.0004065796568 -0.0002535697016)
(0.006211619062 0.0007253080852 -4.69811912e-06)
(0.01165518531 0.00103016894 -8.544435034e-05)
(0.004050864522 0.0007190179763 -8.550296331e-05)
(0.003757132259 0.0001500272022 -5.657705903e-05)
(0.007496682649 0.0001250284821 0.0007664818692)
(0.008699912364 0.0003705277391 0.0001694906276)
(0.01293218809 0.0007480325129 0.0001786235238)
(0.005828256177 0.0007685266937 8.980427182e-05)
(0.01381300169 0.001972384089 -0.001210555852)
(0.005953448243 0.0004892055779 -0.000139125382)
(0.007875680159 0.0004683659262 0.0006560862895)
(0.00787645066 0.0006936838685 -0.0001754326552)
(0.007381596928 0.001144168644 -0.0001875749347)
(0.01326227823 0.002003602474 -0.0006056760512)
(0.007322498466 0.0001358196145 -0.0001062200335)
(0.007594409255 0.000757646771 -0.0005428528888)
(0.003475037147 0.0006053951438 0.0007524001327)
(0.02083260523 0.002621673387 0.0006712060562)
(0.01364203045 0.002825328792 -5.01907217e-05)
(0.01259277607 0.002490291501 -0.002072239553)
(0.01371549331 0.004500107497 -0.001212493257)
(0.0174690498 0.006812883767 0.001688684572)
(0.01229452012 0.002889425412 -0.0006895975133)
(0.01382765968 0.002652373681 -0.0007498980215)
(0.01516329407 0.007243966711 -0.00319535634)
(0.0136912737 -0.0001347200815 -0.0003903890158)
(0.006070231334 -0.0003537927963 -0.0001371501159)
(0.01225129511 0.0005375981477 -0.0003242840689)
(0.007564510845 -0.0003787456474 -0.0008513144841)
(0.005334927166 0.000123678832 -0.0001381352014)
(0.005875919694 -0.0006104266967 0.000158405563)
(0.008233915283 -0.0003017174725 -1.309187574e-05)
(0.008038246019 -0.0006783507607 -1.877254557e-05)
(0.01153729259 -0.0003759988843 -0.0005352191181)
(0.01196049273 0.0007969086331 0.0004617655438)
(0.006654730701 -0.0002756645782 -0.0004518200439)
(0.007731344088 -0.0002942693473 -0.0001629407463)
(0.009556750731 -0.0003741044764 -3.574083992e-05)
(0.009371154383 -0.0001134588035 -0.0002091558768)
(0.01307071714 0.0003360275876 0.0006853731149)
(0.0156460979 0.001823390503 -0.0006269595533)
(0.01073306643 -3.435375921e-05 0.001499967752)
(0.006529455837 0.0008120097057 -0.0007799054768)
(0.01205722811 0.0003895657845 -0.0007070516228)
(0.009794167671 -0.0001681314307 -7.900775225e-05)
(0.005427086195 0.0009016928435 3.441511524e-05)
(0.002679822585 0.0006250415982 0.0001363888635)
(0.01003082226 0.001881263156 0.001091583143)
(0.009128028658 0.001856755158 0.001449425823)
(0.01335268926 0.001759040477 7.804101122e-05)
(0.007395686709 0.0001721119779 -0.0001435957122)
(0.01013891819 0.002832858877 0.001028070412)
(0.01593917329 0.00384634277 -0.0002549115363)
(0.018049189 0.004041677673 -0.0014794582)
(0.01233030784 0.002520404346 0.002828745042)
(0.00834312199 0.000428456354 0.0003658105056)
(0.0164103661 0.0004597854928 0.000108753799)
(0.01221624949 -0.0001628256614 -0.001235740073)
(0.003752093671 -0.0001358152559 6.858393969e-05)
(0.007387080844 0.0004466698694 0.0005493278533)
(0.01050312958 0.0006461187996 1.954768525e-05)
(0.004250350276 0.0005656579142 -0.0002000609782)
(0.005981202744 0.0003135208024 -0.00052276331)
(0.00730576878 0.0001600906302 -0.0008058310649)
(0.008949114519 -0.000517715505 -0.0008889174046)
(0.01110348479 9.954807712e-05 0.0004112035121)
(0.009179209434 -0.0008848324805 -0.0008450538876)
(0.008758918964 0.0013917038 2.700627476e-05)
(0.009416066836 -0.0002560588944 -0.0005978387018)
(0.00748131813 0.0007627545359 -0.0008850821271)
(0.01266885094 0.000732943005 -0.00029233508)
(0.00782427169 0.0003022375465 6.412155035e-05)
(0.01264860096 0.0004353390227 -0.0009848898681)
(0.008267893657 0.001792533445 -9.185673328e-05)
(0.008547813867 0.0005391011948 -1.932686965e-05)
(0.009891550798 0.0002841454066 0.0004511315294)
(0.01047311053 0.0003850212809 0.0002260946281)
(0.01396758027 2.483415841e-05 0.001279116479)
(0.009626195058 0.002087097228 0.000503012486)
(0.004303593607 -0.0005844065318 0.000152305494)
(0.00947704453 0.001299655965 -0.001112046338)
(0.01470254417 0.00571626457 3.923968001e-05)
(0.01014276626 0.00240317215 -0.0001766154169)
(0.01801739111 0.003844088556 -0.001880313197)
(0.01135372608 0.004529728198 0.0004608470218)
(0.009394031934 -0.0003671819349 0.0004164176435)
(0.008179144993 -6.024276448e-05 0.000550818168)
(0.006392776072 -6.7622125e-05 -0.0003684627643)
(0.01212172956 0.0002834435071 0.000168171862)
(0.009288939434 0.000637947508 -0.0003709417246)
(0.01356162457 -0.001260843864 -0.000502695556)
(0.006571335597 0.0001073550707 -0.0002299114294)
(0.008119754663 4.130965825e-05 -7.812653243e-05)
(0.005616662168 0.0001592755353 -6.093085381e-06)
(0.006856579663 -0.0009261461428 0.0004156400591)
(0.006421371159 -0.0001585835937 0.0002424361121)
(0.0121708067 0.0002670885377 -0.000101459984)
(0.01041811455 -0.0002106866911 0.0007381473923)
(0.005819236393 -0.000285938158 6.82457334e-05)
(0.01248192836 7.656575413e-05 -0.0008144224189)
(0.005684792279 -1.864039589e-05 4.337876933e-05)
(0.01430188481 0.0007720460524 -0.00018312983)
(0.006439211615 0.001211061281 0.0009141457004)
(0.01147467093 -0.0007999299502 0.0002783725951)
(0.009318782535 0.0006792677366 -0.0001150476365)
(0.01042414615 0.001332428273 -0.0002758216681)
(0.007256842808 0.001369303157 0.001749264494)
(0.01012557733 0.001608613271 0.0001987859415)
(0.00682560924 -0.0004417248445 -0.0008921695196)
(0.0125770372 0.001413249823 -0.001334937319)
(0.0110820634 0.000710993094 0.001057889845)
(0.01381776448 0.001166476729 -0.0009553557484)
(0.004247645249 0.002283594229 -0.0004367162306)
(0.00464509679 0.00224136183 0.0001259379729)
(0.01839322277 0.004964949315 0.0002122681559)
(0.00896659673 -0.001224061211 0.0002621352148)
(0.005433585064 -1.634055911e-06 -0.0001903761462)
(0.006663833541 1.474745447e-05 -2.389371474e-05)
(0.007473390261 -0.0005973739242 -3.241263257e-05)
(0.00617169042 -0.0005698189724 -0.0001189392126)
(0.01100912327 -0.0001011337808 8.08924449e-05)
(0.01185957478 0.0003571956744 0.0001453955269)
(0.01072663282 -0.001385751038 3.485949604e-05)
(0.01035014074 -3.415389696e-05 -0.0005826557852)
(0.01363019829 0.000217955658 -0.001309135852)
(0.008537114393 5.287003163e-05 0.000568544097)
(0.008779702585 -1.681132268e-06 -0.0001643007841)
(0.009880919708 -0.0004987572281 -0.0008123527964)
(0.00525948475 -5.944587233e-05 0.0002183062465)
(0.01084331792 0.001371742969 -0.0002597789899)
(0.002631601175 0.0001899173722 -0.0001881468377)
(0.005896498962 -0.0004446984066 -6.333065624e-05)
(0.01405963386 -0.0006000863272 -0.0008031129575)
(0.01128011416 0.0004707844572 -0.0006347606978)
(0.01628933614 0.001572985011 -0.001658774447)
(0.01419858197 0.0003634963581 0.0008405577088)
(0.004862040289 0.0009823555267 -6.201361761e-05)
(0.006754243484 0.0003914557802 -0.0005121704262)
(0.009595707286 0.0009168110804 0.0009931127099)
(0.01076421632 0.001060038308 0.0002443783785)
(0.001602719143 0.0007296984104 -0.000386851633)
(0.005089724831 0.0004886805336 0.0002115770127)
(0.01391311499 0.000686182922 -0.0001754448465)
(0.01038902399 0.0006600695658 -0.0007048493837)
(0.01052402679 0.003017338165 -0.0003145801596)
(0.009088094308 0.0003570967814 -0.0009143502165)
(0.008951379941 -0.0003011292976 -0.0005650437682)
(0.009089967708 0.0002624495368 -0.0001481918239)
(0.008000037992 -0.0005772000021 0.0004285187194)
(0.006441176286 -0.0003427810362 -0.0005951559273)
(0.009534705806 0.0004531462549 -0.0004539656361)
(0.005940447507 0.0003106061758 -0.0001041184407)
(0.01016765791 -0.0003444902056 -0.0004937190484)
(0.005837733632 0.0006029520307 0.0003477346925)
(0.01118943365 -0.0001382891673 -0.0002073763752)
(0.008910131345 -0.0004165288997 -0.0007750102721)
(0.01003262978 -0.001077023111 0.0006418413172)
(0.004746111382 0.0001773998571 0.0005396754165)
(0.01199226862 0.0002561859162 8.372981091e-05)
(0.01024043624 -0.0002759020062 0.0002425045284)
(0.008142008805 -0.0004253182712 -0.000706001611)
(0.01195315997 0.0005455679256 -0.0006850908669)
(0.005983096993 0.0001502395766 -0.0001540364776)
(0.006833712176 0.0004005697989 0.0003969260817)
(0.006601808199 4.346642674e-05 0.000435343857)
(0.009494887005 0.0001159978047 0.001491879892)
(0.005465836197 -0.000723521922 0.0003661785862)
(0.006937334417 0.001904608755 -0.0002815917468)
(0.007908019158 -0.0002672164278 0.0001312125071)
(0.01907091219 0.001081061247 -0.0002734200465)
(0.01540326896 0.001247634232 0.0003430654037)
(0.005777696709 0.0003975460137 -0.0003170783105)
(0.01016175348 0.0003241328793 0.0007623527717)
(0.01514874291 0.001068536408 -0.0009746533794)
(0.01039312859 0.002031651802 0.0003212472762)
(0.009361486277 -0.0001065647787 0.0007026942987)
(0.01432208648 7.01862841e-05 0.0009130448253)
(0.007750652792 0.0001715419418 0.0003673074114)
(0.009087171324 -0.0002680949004 -0.0004113406655)
(0.005523915293 0.0002856132379 0.000755499836)
(0.005788442582 -0.0003460414528 -0.0002549670759)
(0.01007525964 -0.00107412085 -0.0003140048865)
(0.008771621673 0.000462077649 -0.0008694271882)
(0.01372871095 0.0001827109149 9.165729696e-05)
(0.005952858064 -0.0004331306933 8.206983885e-05)
(0.008370474981 0.0002350820785 -0.0006720259091)
(0.005929927766 -0.0003165262667 -0.000568625683)
(0.007113332888 -0.000333315676 -0.0008798079542)
(0.008303190659 0.0003355068869 -0.0005133904958)
(0.006532227551 0.0003769090393 0.00106575349)
(0.009806091339 0.0007227658393 -0.0001351404597)
(0.005069837677 -0.0003836601239 0.0001982839408)
(0.008144739472 0.001273837643 9.380623337e-05)
(0.01105113613 0.0005989809369 -0.0001196381104)
(0.008712378774 -0.000244277345 9.937723643e-06)
(0.0119125936 0.0006784950891 -0.0001436827165)
(0.002943888151 0.0002463267495 -0.0004469715149)
(0.005515334348 5.914465812e-05 -0.001022219116)
(0.01252289863 -0.0005577967011 7.538596092e-06)
(0.01810187648 0.001746432702 -0.000959074947)
(0.004285275697 0.0005734073924 0.0009668566873)
(0.009126271327 0.001327647253 -0.001219238353)
(0.01456885813 0.0001404431369 0.000397672645)
(0.003404389801 0.0006764933796 4.102811021e-05)
(0.009358401032 0.001998109022 0.0007537570441)
(0.007383931443 -0.0001613454041 0.0003951567635)
(0.007373328312 0.0001959700726 0.000269471237)
(0.004835447022 0.0004066944438 0.0004060682982)
(0.007730977252 0.0009203056835 -0.0004474676948)
(0.009613594823 -0.0005281362355 0.00032401523)
(0.01354872628 0.0009472637252 -0.0005982759522)
(0.00807853692 6.407588077e-05 -0.0002125938079)
(0.01104466477 0.0006197721241 0.0006008010334)
(0.009222516995 0.0003358113126 0.0003698109654)
(0.00917315396 -0.0005962442307 0.0002560052613)
(0.009792862744 0.0004241508103 0.0002069083952)
(0.01165953671 0.0004119310283 -0.0003929378864)
(0.008332435409 -0.0001212477139 0.0003670371671)
(0.008030390051 -4.465036886e-05 -0.0005524902574)
(0.006296099852 -0.0004538878603 0.0005325132627)
(0.005847832643 8.653253932e-05 -0.0008476239519)
(0.009437444497 1.095716377e-05 0.0003372773067)
(0.005090289556 -0.000460535701 0.0006604354457)
(0.01002422263 -0.0006730751662 0.0006807170223)
(0.0111913774 0.0001803689606 0.001044428584)
(0.008712946969 0.0007788722359 -0.0004135636683)
(0.009378115264 0.001664558972 -0.001944189996)
(0.01117697941 0.0002473992945 -0.0004548276735)
(0.008060703771 0.001652198373 -0.0006098789614)
(0.009180794175 -0.001317732291 0.000573523031)
(0.005231861136 0.001131715957 -0.0001325000309)
(0.009610655535 -0.0003071687541 -2.586036115e-05)
(0.008338108308 0.0004111499657 0.0007543250807)
(0.008954697765 0.0009030040181 -0.0006156805875)
(0.007914259801 0.001039116315 -0.001227293407)
(0.00668561259 0.0007560085394 -6.981351073e-05)
(0.01103688615 0.0004661885247 0.0005924657249)
(0.00783827664 0.0005560437129 0.0003454075471)
(0.01053892503 -0.0006145850335 -0.0005319248627)
(0.008351923676 0.0003711163452 -0.0006132962287)
(0.009046193583 -1.97601541e-05 -0.0007072173451)
(0.0107427182 -0.0005759494801 -0.0003138443995)
(0.01361573499 0.0001348992734 -0.0003983126028)
(0.006931942437 0.0004491655177 0.0001299130633)
(0.005651524751 0.0008164927123 -6.858043513e-05)
(0.01453479974 0.0004090715499 3.865400402e-06)
(0.007413895319 0.0009944043944 0.000910869069)
(0.006822533267 0.001206235096 0.0004626305524)
(0.005400638362 -8.297043307e-05 -0.0004268962577)
(0.005550876453 -7.108531172e-05 -0.0006275691203)
(0.00650306376 0.0004361513684 0.0001976023675)
(0.007228346061 6.925949201e-05 5.983135446e-05)
(0.007050319599 -0.0002571401494 -0.0003262406726)
(0.008735291689 -0.0002334254069 0.0004215096303)
(0.01571453604 -0.000198511632 -0.0002422614768)
(0.004618247439 -0.000427557435 0.001091799165)
(0.01005829071 0.0003309152981 0.0005350409362)
(0.00744710477 4.286225502e-05 -2.178687588e-05)
(0.006792483344 0.0005759069275 -3.023717003e-05)
(0.01788753919 0.000492569584 0.0002172794499)
(0.009841957562 0.0005259217244 -0.0002288666357)
(0.007893039312 -0.0007703748231 1.148845563e-05)
(0.007455648927 -0.0002945009436 0.0001476502867)
(0.009124137547 0.0005667560869 0.0003116293768)
(0.008032156744 0.001079236262 0.001181289451)
(0.009913930878 0.0002600190624 -0.0003880445539)
(0.008035291491 -0.0007490626615 0.0004665799312)
(0.008519683014 0.0006003107126 0.0001720973097)
(0.01148093204 0.0005128907743 -0.0004312327203)
(0.008294103973 0.00150601043 -0.0001987394072)
(0.009933801541 -5.116235462e-05 0.0006862620155)
(0.007732848302 -0.0001243995401 0.0005934002454)
(0.01012194526 -5.19315599e-05 -0.0001466445024)
(0.007617759642 5.510349279e-05 -0.000235929149)
(0.009798702636 0.0007166165657 -0.0008803250777)
(0.006950003982 -0.0002650866924 0.0001560393871)
(0.01021586934 0.0003940503212 0.0001576551673)
(0.004106651071 -1.811139836e-05 -0.0001703955703)
(0.007758008488 -0.0001830071625 0.0004668985603)
(0.007930050898 -0.0003327899249 0.000455993286)
(0.007578767083 0.0004496581407 0.0001926306976)
(0.005831723305 0.000140935317 1.927486859e-05)
(0.007526357205 -0.0008712918418 0.000487281379)
(0.008166746822 0.0001997553457 -0.0001183685921)
(0.006078142088 7.938365816e-05 0.0001890887952)
(0.007528360481 -0.0001965208839 -0.0007312828803)
(0.01326934836 0.000126840983 -0.000275745568)
(0.005340095202 -2.865329959e-05 0.0003679889595)
(0.006311050951 6.107054259e-05 -0.0005051776027)
(0.01581810853 2.173199951e-05 0.0001012712)
(0.01075510864 0.0003591948277 -0.0001717905899)
(0.008071760921 0.001254911008 -0.0003315564086)
(0.00679716659 -0.0005376913617 0.0009559530327)
(0.008889523447 -0.0003526155627 -0.0002281198814)
(0.006745482074 0.0002190916608 0.0001451290906)
(0.005160834716 -0.0003578179752 -0.0002271430696)
(0.011362446 -0.0007131867999 -0.001094176007)
(0.004351528755 3.312091373e-05 2.422741173e-05)
(0.006549344654 0.0002388755783 5.184870576e-05)
(0.008193514546 0.0005540799215 -3.984175314e-05)
(0.006150676907 -0.0006974690991 0.0005448881299)
(0.003912021089 0.0001102423091 -0.000299104228)
(0.01106771077 -0.000484821949 0.00140212941)
(0.005208299655 0.0002527330983 0.0002105364255)
(0.005554438312 -0.0004017967732 -0.0003857190618)
(0.009488818713 -0.0004736624351 -0.0003370686722)
(0.01382633077 -0.0001535652831 -0.0004122931202)
(0.00909412327 0.0006691260677 0.001181764686)
(0.005448434548 -0.0002121407441 0.0006358740024)
(0.007372683228 0.0004061034163 -5.443051667e-05)
(0.009885388685 0.0005233995242 -0.0003244612374)
(0.006888027768 0.0007577164346 0.0001305917011)
(0.00692142595 0.0006375704668 7.814213588e-05)
(0.001235105284 7.036371005e-05 5.22148044e-05)
(0.01149733437 -0.000906718087 -0.0006874094902)
(0.009764244991 -0.0007479504634 -0.0003371152723)
(0.01374623527 0.002268288838 0.002271357738)
(0.005468555617 0.001510652645 0.0005041192726)
(0.005279259348 -0.0004362923809 -0.0003730101021)
(0.006228062803 0.0004374027214 0.0002371253744)
(0.00810951438 0.001239793647 -0.001292903436)
(0.01131337659 0.002004951104 0.000698057839)
(0.01062361123 0.0009247659017 -0.0006348631052)
(0.008623553328 0.001387571431 2.954575011e-05)
(0.007670283108 0.0002929760521 0.0008678646381)
(0.008006689456 0.0008703386235 8.53940476e-05)
(0.004426117584 0.0002565443362 -0.0007211117963)
(0.009528248772 -0.0002199753836 0.000458445743)
(0.006189548247 0.0008722694439 -0.000515452468)
(0.01060865865 -0.00102379217 0.0001639081821)
(0.008421421585 0.00012491258 -0.0006059396773)
(0.006862762696 -0.0005851862992 8.122239432e-05)
(0.005570162864 -5.385127278e-05 0.0007368678531)
(0.01452143455 -0.000309544259 -0.0004145756414)
(0.007839296905 7.042064233e-05 -0.0006740921037)
(0.005815253696 -0.0004426190961 -0.0003172978085)
(0.002660901934 -0.0002926873441 -0.0004447753964)
(0.01251125627 -0.0002321263674 -0.001184952937)
(0.00741609987 0.0001774239607 0.0003942314447)
(0.01282132831 -0.0005705475506 0.0002841812354)
(0.005480338455 0.0003660271367 -0.0003851994918)
(0.007131700974 0.0001182797855 0.0001263168278)
(0.007092274627 9.712711155e-06 -0.0005794470698)
(0.008504027398 0.0004827191927 -0.0001456730781)
(0.01038102805 -5.729989723e-05 -0.0003106056133)
(0.008383703575 -0.0006997671001 0.0005760653446)
(0.01498566321 0.001825748462 -0.0002576632476)
(0.01776079549 3.181205387e-05 -0.0003181753298)
(0.007864200272 0.0006112964846 -1.249446221e-05)
(0.013216569 0.001172202791 0.001282429907)
(0.005327675401 0.0003763869708 -0.0005518572716)
(0.007541446672 0.0002056390405 -0.0004903250133)
(0.007467638326 0.001271696184 0.0004929275698)
(0.003630429243 0.0001049222257 0.0005121163388)
(0.01357360914 -0.0005132477813 -9.313116328e-05)
(0.01350141974 0.0002404593324 0.0001836145761)
(0.007261623581 -0.0001091856908 8.396101758e-06)
(0.009949484607 -0.0007011381124 -0.0003638940928)
(0.00650780675 -0.0008554392424 -0.0008714113894)
(0.005440366705 0.0005715214681 0.0006222561772)
(0.0109029671 -0.0001364213855 0.0004625647738)
(0.01588664345 0.0002506146151 -0.000355638737)
(0.002916489686 0.0004453342945 0.0003414898989)
(0.004612193056 -0.0001279878209 -0.0005405377343)
(0.005999660169 0.0005166430968 -0.0002895324715)
(0.002741313774 8.37625973e-05 -5.294958111e-05)
(0.005094907815 9.362691389e-05 -9.0274974e-05)
(0.006893165632 -0.0007140397687 0.0003397375795)
(0.01076173973 0.0002490810043 -0.001165268245)
(0.01123551107 6.694530413e-06 3.656963773e-05)
(0.004471604398 8.767906056e-05 -6.810684185e-05)
(0.008860204342 -0.0005977846108 -5.427752681e-06)
(0.01684468677 0.0003884025719 -0.0006389734574)
(0.002156352892 0.0006070745226 -0.0008109294102)
(0.004800626104 0.0001294164872 -0.0001011271198)
(0.008042019126 -0.0002704103909 -0.0001787498899)
(0.01054860764 0.000132438545 0.0008720458772)
(0.008092253123 -0.001332903428 -2.74675646e-05)
(0.005743864013 -0.0002594273355 -0.0004658313935)
(0.008290273097 0.0001338339846 0.0005593254118)
(0.006447906968 0.0009814958722 -0.0003335198407)
(0.007575608715 -0.0002459823578 0.000226137015)
(0.00683176167 0.0006555731113 -2.508449176e-05)
(0.009778053226 0.0003469296203 0.0002315623338)
(0.005003096761 0.0005484745451 -0.0001155130696)
(0.01269532183 0.0002606408663 0.0004106156343)
(0.006159202334 -0.0002412283462 9.532563115e-05)
(0.01143474457 4.550415691e-05 -0.0004135480462)
(0.008613363069 -0.0001146469572 -0.0004086137488)
(0.007411333159 -0.0002917774366 0.0001843528439)
(0.006962547238 -0.0005750859463 -0.0003100946572)
(0.007153012073 0.0003017586245 -0.0004348650727)
(0.009060630066 -0.0005306503349 0.0003572762035)
(0.008433045038 -0.001072862719 0.0001189586131)
(0.002862276028 -0.0002498886526 -0.0002812964373)
(0.009402547298 4.040806145e-05 0.0008405070037)
(0.008743680491 0.0001254283979 -0.0002491456846)
(0.006178931922 2.717617318e-05 -0.0004298555373)
(0.01087313523 0.0008305373331 -0.0001679317497)
(0.007811529046 -0.0005992131072 0.001096798091)
(0.01506903186 0.0009686258832 0.0007796274514)
(0.01359642641 0.0003074433731 -0.0005411626962)
(0.007002658372 -0.0001085918586 0.000607307765)
(0.006753540752 -0.0003312865978 -0.0001247252499)
(0.006738968985 -0.000605883092 -0.0001645357675)
(0.008990667164 0.000740051191 0.0009126692047)
(0.004776656622 -0.0002108157158 0.0002253081249)
(0.00653397935 -0.001194294255 0.0006325712898)
(0.007279897682 -0.000353305985 -0.0006373874687)
(0.01239670638 -0.00131919726 0.0001764556828)
(0.01124010885 0.0002996569565 0.0004907080321)
(0.006083727325 -0.0005004677751 -0.0004977598671)
(0.01356152313 0.0001968401992 -0.0007236602473)
(0.008376000765 -0.0002962142153 0.0001974334733)
(0.007260220748 0.00053248236 0.0006031247542)
(0.003636170851 0.0006955525359 4.826738942e-05)
(0.006598504891 0.000616712447 -6.28695016e-05)
(0.01021810828 0.0006177433309 -6.010170675e-06)
(0.01003471149 0.0002655149293 -0.001263603404)
(0.01231145934 -0.0009529185479 0.0001251803677)
(0.004679605764 0.0003033143059 0.0001433166441)
(0.01231375955 -0.0006657157582 0.001205081592)
(0.005667118799 0.0003738382125 -8.001049087e-05)
(0.006262969571 0.0004001739111 -0.0001268750461)
(0.007979029217 0.0003153111916 -0.0008569874476)
(0.00684095485 -0.0002871129998 0.0006300433418)
(0.009804237319 0.0001238456213 0.0003693981816)
(0.009057137352 0.0003316597744 0.0008442765455)
(0.005443617315 0.0004483968071 0.0004685836132)
(0.004718102264 -7.166834093e-05 0.0004240248342)
(0.01107203738 0.0001014451769 0.0006094687198)
(0.009357609405 -0.0004940723059 0.0003552145121)
(0.007077642808 -0.0001292119835 -0.000172324628)
(0.005545111931 -0.0002588213202 2.532549271e-05)
(0.006278569596 6.220758726e-05 0.0004649866289)
(0.003462050759 -0.000329923738 -0.0006606902761)
(0.007139696637 -0.0006475704332 -0.0002079202368)
(0.01027910227 -0.0001423023084 0.001068866619)
(0.004485132422 0.0002282526096 0.0003087909814)
(0.004574363088 0.0006146426293 0.0007847534293)
(0.007179954698 0.0004112616764 -0.0003037621839)
(0.01352405138 0.00172330509 -6.32982706e-05)
(0.005549936682 -2.08294376e-05 0.0005158803717)
(0.01071989976 0.001219768653 0.00037815588)
(0.00631096928 -4.63479874e-05 0.0002583209425)
(0.009959548196 -0.000988321015 -0.00121478385)
(0.006528619998 0.0001631323542 0.0003583543591)
(0.003334667368 0.0002466459614 -0.0004478534673)