/*--------------------------------*- C++ -*----------------------------------*\
| =========                 |                                                 |
| \\      /  F ield         | OpenFOAM: The Open Source CFD Toolbox           |
|  \\    /   O peration     | Version:  2406                                  |
|   \\  /    A nd           | Website:  www.openfoam.com                      |
|    \\/     M anipulation  |                                                 |
\*---------------------------------------------------------------------------*/
FoamFile
{
    version     2.0;
    format      ascii;
    arch        "LSB;label=32;scalar=64";
    class       volScalarField;
    location    "0.004";
    object      overallT;
}
// * * * * * * * * * * * * * * * * * * * * * * * * * * * * * * * * * * * * * //

dimensions      [1 2 -2 0 0 0 0];

internalField   nonuniform List<scalar> 
654
(
728.2725489
716.255386
725.087839
722.1731805
718.2725615
720.2413505
667.3694698
677.954416
683.2933436
683.9236801
696.1144281
703.8103789
702.860137
708.9310073
710.9013416
708.3456112
712.1209489
562.6649499
585.3452843
598.8846488
611.8073027
630.4189822
647.0278017
660.6143767
659.9354092
675.780189
679.6723579
684.1586708
693.4705246
692.2032746
695.1401992
699.8406319
700.3625143
413.5998786
422.3911642
437.3589355
469.5656666
482.8967347
499.8190438
525.0803725
552.0247236
566.5432229
595.008848
603.4642292
619.1495507
637.6586971
644.9365017
649.6469533
655.9793676
665.3869306
679.1920653
681.6691033
684.2012384
684.0116827
689.5247155
324.3344216
329.0794543
332.3161305
346.2167246
357.7933004
359.4399294
376.1547229
385.5586841
403.6755513
420.818031
434.3799943
454.0191015
471.392242
489.7072374
510.275049
534.2417632
547.0709617
568.3876025
584.3455495
607.1243677
620.5974089
630.2874656
639.6016318
654.2190521
660.5677014
670.8117741
677.2378065
680.6358928
679.3131844
318.2427901
319.4420948
323.2993246
325.3514835
334.5167924
343.8271991
353.3473338
361.5763186
368.1355553
380.2878668
397.8226659
408.1009142
426.6091637
435.5920209
461.2425389
474.7522992
495.7346793
515.9263224
533.4874585
550.2944185
575.0619961
593.0056957
607.3416087
620.9447535
640.8557734
648.7168465
655.2652168
659.8569256
662.093927
669.7057202
312.8815432
315.7941234
320.1556098
326.033524
330.0006799
334.0241132
336.8451757
346.2380465
356.3339602
363.2414094
367.5352296
385.2533482
399.0502175
418.2014648
429.635509
445.9131119
464.7292282
485.5725436
499.497349
513.7251307
532.7416878
559.4910758
577.6543901
592.0888256
606.8179898
617.8608511
639.1702378
642.1464925
644.3290136
650.1819124
312.7237646
313.3428932
313.1138758
315.1367083
321.6270506
327.5096847
330.3094289
332.4005491
343.9034655
348.1915596
354.4092761
360.5424123
370.0442446
381.0354762
402.7323437
414.9522194
436.3352614
456.5625237
469.0009051
483.7528883
505.3372823
528.3424953
539.5836334
566.1767321
581.4176768
592.333879
609.8206131
626.6629248
636.549779
639.2940256
310.1628844
309.5021758
316.0732283
313.3956728
313.8299809
318.7336094
324.2522767
322.8594399
334.458428
342.6588979
345.9810776
346.6109444
354.2410077
367.6697954
381.6929632
398.74057
411.8224005
429.7565651
442.7193865
469.2548863
473.0339736
498.6076403
522.1983819
535.1292789
555.1203021
576.6754653
590.7661454
608.5871682
619.3115157
625.9820064
307.8835394
307.1505821
306.3074074
309.6958103
313.473854
314.3569484
318.4288789
321.5973648
327.387383
328.5651186
339.005424
342.0965156
343.263452
354.2178155
364.0710921
367.0311883
384.6695346
403.9803087
419.5530021
428.7477692
446.6036338
458.5140795
487.6759228
504.4890751
521.5963584
537.9726945
557.0554244
574.4612527
594.6545155
605.3943088
305.4030224
307.4066382
305.6710576
306.6485332
307.866004
308.977957
312.6428819
318.8297202
322.0230488
323.6893862
328.4870532
334.5239289
337.9637269
345.2809195
355.1761099
367.5179767
373.2285426
386.4507872
393.8436825
409.946095
419.4946267
430.1223242
450.1192294
472.1131296
491.539323
505.0408123
528.8765311
545.3068464
570.1200121
580.6056178
300.3290128
299.5267159
301.5126848
308.1312484
308.8751269
311.5531335
311.6356777
317.1832045
316.0108068
317.5453645
322.2396356
328.3657497
329.9613916
331.4300482
337.2897912
349.0511465
349.667759
365.2760944
377.5510999
389.2409131
399.5703132
411.8629317
423.1337815
441.1089618
462.9603172
480.8585557
498.9538552
520.4461838
534.7716934
557.3819923
304.049567
304.9262982
306.6420521
307.8350386
305.8674555
306.2515885
307.3404945
310.5115342
309.0251935
314.5431141
317.7025797
321.207216
321.8830212
324.3521269
332.5043998
340.8918137
346.9690565
351.9497316
361.9598577
368.3741741
382.9398245
391.6579751
407.6528272
412.553965
439.0482881
454.1274481
472.4491388
491.9263407
511.6980647
526.5600042
302.9325924
302.1090771
302.8296511
307.0194664
305.9027078
302.9047579
307.3866809
307.4491671
309.6373801
311.5886033
316.4160126
320.0608833
318.4590353
323.2057095
326.8710494
335.6565215
336.4158524
340.3211003
348.1053575
358.6460914
362.0343543
373.7119597
386.4676836
397.9677032
409.2658537
423.4230924
439.6433577
459.8931832
472.9445591
501.5210358
300.5665015
300.4800728
298.5454226
299.4786117
301.445106
302.0433485
306.128793
306.1445709
307.5008151
310.3437222
309.2780048
308.5784121
318.1567997
317.3984542
318.407904
322.6643868
327.4432857
336.5662004
340.5614024
346.0269773
348.6881017
359.7883715
365.6334834
380.8811938
389.6073858
403.7759987
415.6003684
436.8058611
454.0329974
469.07216
297.7434969
299.0212449
299.6105538
300.2801492
303.3934496
301.1728343
301.187585
301.6970317
301.9747656
305.0375766
307.3362618
308.9655792
311.0585409
309.0954602
312.998372
315.9548765
320.5385412
324.9264958
327.0243423
331.8826497
344.3005647
348.3635622
357.1810289
365.2542309
364.672821
377.2389008
387.8775908
402.4089087
426.281414
444.7161051
301.2270007
301.6310418
302.6873583
301.482024
301.4312456
302.4469912
301.8231324
303.8896027
306.6317539
304.6611017
306.2986414
306.5013291
308.4575346
309.3015754
313.2178382
315.4063686
319.7682519
320.3613225
324.2754365
327.0535669
332.0852113
336.3836297
342.3914567
348.9684628
357.8591238
364.7250882
374.4047789
390.1015004
401.2825864
416.4408057
301.3682038
301.8495176
301.396764
301.8315438
302.3431014
303.9466162
303.7443718
301.988975
300.2701307
303.6818068
303.7906557
305.2265033
306.5364937
308.7531659
309.3406766
307.1852847
310.6861198
315.9607031
320.6881604
319.9392846
320.9993487
330.3778096
332.0781788
337.3473126
353.7965536
352.90556
360.5762648
370.0415733
382.0720289
398.4331913
298.7596442
299.031991
300.4398178
302.885993
303.460429
302.5501896
304.0772016
306.6462557
306.4787702
305.1454581
304.9565007
303.4959483
303.164568
303.7365141
306.4762125
307.2010333
306.428966
312.5632566
314.5773631
316.6725816
316.8788272
319.8069956
325.2114027
334.9796604
337.950421
353.795943
351.7158444
359.4888254
373.0428671
375.567946
305.3724555
304.4358831
303.3229641
304.7948991
303.5541615
304.3428119
303.5041466
301.6597511
301.6148878
301.8054632
305.6551736
305.2041586
304.6358967
303.8055245
304.9180283
307.2597595
311.5311123
307.9946637
312.8415986
315.7466308
317.4151386
317.5493563
320.6896877
323.1177165
329.7991993
340.4010944
345.3658448
350.4467193
359.3035251
369.443106
298.4586791
299.0752933
297.9041063
297.4155569
296.5492528
296.181385
297.3625037
299.7293149
299.9600332
300.0133682
299.5056882
299.9078496
299.6951504
301.0469912
303.7718213
304.238739
305.0953076
305.5391952
304.1809159
306.4594537
313.7941174
314.0461577
315.8761669
315.2992778
321.9289155
327.8135577
327.0608629
336.3569777
343.8941184
351.8494637
301.9899761
302.3237794
301.8482077
300.9402122
303.1238945
299.9586549
301.5311988
302.2839624
301.1775225
301.7917529
301.8179918
304.3995853
303.3102244
302.8244245
302.4683482
302.5355031
303.6822961
305.4757986
305.5995034
308.1022326
309.0857826
314.5442141
313.7926122
316.0962279
316.4019252
326.4675767
330.3352267
332.0254092
334.8527201
349.5846206
300.030139
299.2676092
299.3014263
298.973075
301.0292787
302.5394121
299.5034004
297.1894555
297.7088136
298.3089093
299.3488878
300.0905608
299.9915244
301.373576
304.7994574
301.0796944
302.0332404
303.5091362
304.7269523
306.0165977
309.2115758
308.1653584
310.7913833
313.242099
317.5650927
319.6183466
320.6038111
328.0429897
333.1622781
336.9873995
299.6557126
302.087945
303.857408
299.8577532
299.0937518
298.3455078
299.9377353
300.4675523
299.670301
298.9734763
298.3921983
300.6733261
300.3615636
297.3964695
297.1703821
300.766713
300.9015463
304.3568159
301.4986255
302.3437578
302.2354666
307.7600909
311.6094206
306.8792011
309.8776136
309.2672206
314.5879707
321.83347
323.2331035
328.4858104
)
;

boundaryField
{
    flow
    {
        type            calculated;
        value           nonuniform List<scalar> 
55
(
728.2725489
720.2413505
712.1209489
700.3625143
689.5247155
679.3131844
669.7057202
650.1819124
639.2940256
625.9820064
605.3943088
580.6056178
557.3819923
526.5600042
501.5210358
469.07216
444.7161051
416.4408057
398.4331913
375.567946
369.443106
351.8494637
349.5846206
336.9873995
328.4858104
299.6557126
302.087945
303.857408
299.8577532
299.0937518
298.3455078
299.9377353
300.4675523
299.670301
298.9734763
298.3921983
300.6733261
300.3615636
297.3964695
297.1703821
300.766713
300.9015463
304.3568159
301.4986255
302.3437578
302.2354666
307.7600909
311.6094206
306.8792011
309.8776136
309.2672206
314.5879707
321.83347
323.2331035
328.4858104
)
;
    }
    obstacle
    {
        type            calculated;
        value           nonuniform List<scalar> 0();
    }
    frontAndBack
    {
        type            empty;
    }
    procBoundary3to1
    {
        type            processor;
        value           nonuniform List<scalar> 
36
(
736.7522284
731.7144574
728.8268178
737.2226542
734.903117
734.903117
687.2040518
684.0124649
698.8473157
702.4832137
712.901846
711.3950758
711.3950758
597.9077013
617.6316681
633.3645187
645.7637915
652.706576
652.706576
444.0827761
457.9110224
489.7498855
507.7196029
517.4066357
536.8225897
536.8225897
336.446105
337.3293822
343.3577212
362.8535541
374.9769342
379.613428
394.6667825
394.6667825
327.5327122
327.5327122
)
;
    }
    procBoundary3to2
    {
        type            processor;
        value           nonuniform List<scalar> 
19
(
311.7759386
309.9996164
309.5768148
305.1704691
302.2581436
304.5416573
298.205972
301.7458708
303.2044404
300.9629004
299.0054589
298.9184328
302.727707
299.2639631
303.1818726
298.1605393
300.2730169
300.4478255
297.7848382
)
;
    }
}


// ************************************************************************* //
