/*--------------------------------*- C++ -*----------------------------------*\
| =========                 |                                                 |
| \\      /  F ield         | OpenFOAM: The Open Source CFD Toolbox           |
|  \\    /   O peration     | Version:  2406                                  |
|   \\  /    A nd           | Website:  www.openfoam.com                      |
|    \\/     M anipulation  |                                                 |
\*---------------------------------------------------------------------------*/
FoamFile
{
    version     2.0;
    format      ascii;
    arch        "LSB;label=32;scalar=64";
    class       volScalarField;
    location    "0.004";
    object      p;
}
// * * * * * * * * * * * * * * * * * * * * * * * * * * * * * * * * * * * * * //

dimensions      [1 -1 -2 0 0 0 0];

internalField   nonuniform List<scalar> 
654
(
2.47845152
2.514469592
2.592206108
2.520768251
2.486438112
2.49611963
2.048556223
2.142006592
2.217462184
2.290814163
2.401483369
2.470191161
2.453619116
2.48510716
2.539148874
2.512337833
2.489952753
1.273900793
1.406158295
1.487070282
1.578723057
1.707044665
1.853548986
1.968152967
2.014970002
2.128102617
2.231499668
2.306400152
2.417025617
2.424125189
2.431512288
2.471410756
2.441831629
0.7043930454
0.7437038369
0.7832481809
0.89774071
0.9447318618
1.009013147
1.092365853
1.215458679
1.31393342
1.458613123
1.533976887
1.651586189
1.796453142
1.869353088
1.94344465
2.010627538
2.119230105
2.252649219
2.33122202
2.369917534
2.377051338
2.425483219
0.4700752215
0.4783183762
0.4846786233
0.5239471624
0.5563562592
0.5608035318
0.6091154681
0.6242236173
0.680237447
0.7351790152
0.7743230603
0.8339004077
0.897076291
0.9723869678
1.05370732
1.153525037
1.22174772
1.335144708
1.435936768
1.575567036
1.702470014
1.785408805
1.877425423
2.01889622
2.102944613
2.191127583
2.262379685
2.307264507
2.324642791
0.4601944163
0.4663391607
0.4804661298
0.4862332112
0.5066045137
0.5204325505
0.5450084172
0.5648726667
0.5820086071
0.6180810524
0.6692246075
0.706392624
0.7624308116
0.793307239
0.8684910105
0.9289013992
0.9959686275
1.089805213
1.164846684
1.237240955
1.371081395
1.488087629
1.606616891
1.698156677
1.83746922
1.950144223
2.026951314
2.115194979
2.144973578
2.232093661
0.4486567551
0.4517476332
0.4568955805
0.4700065708
0.4860930725
0.4976344849
0.5039661584
0.5302746007
0.5560049938
0.5793441376
0.5925488102
0.6437965573
0.6818028139
0.7387418062
0.7704261192
0.8215341247
0.8831750987
0.9501253669
1.014132858
1.093504253
1.171025657
1.297588869
1.404165047
1.521965118
1.645747931
1.742170041
1.903717871
1.987385206
2.055065261
2.102226893
0.4469064548
0.4536070378
0.4547704353
0.4577931338
0.4727054219
0.4852008387
0.4890291428
0.493882639
0.5216101508
0.5314799019
0.5451016658
0.5667128763
0.5926347454
0.6249864674
0.6957138452
0.7309375162
0.7972985093
0.862924108
0.8942495395
0.9549457801
1.060586346
1.158055354
1.215583924
1.351700648
1.448133356
1.523509021
1.661920342
1.777659385
1.899780877
1.958348905
0.4441419926
0.4433142029
0.4590773004
0.4517844279
0.4531493972
0.4633451313
0.4747063149
0.4753738109
0.5042792608
0.5253636057
0.5284737507
0.5293039125
0.5533177719
0.5775226853
0.6101760261
0.6615304881
0.7057049922
0.758697473
0.817807123
0.9007154347
0.9194153094
1.025341432
1.117971895
1.175700942
1.270358054
1.399042945
1.501852501
1.627879034
1.738992189
1.847459762
0.433375467
0.4295687928
0.4324852119
0.4367565064
0.4509501569
0.4572136629
0.4713921334
0.4723125447
0.4840335689
0.4795625142
0.5038523565
0.5092698598
0.5121547021
0.5421905263
0.5698681149
0.5766329766
0.6261753485
0.6887206204
0.7310654237
0.7649236904
0.8266691452
0.8778682638
0.9964402252
1.071785973
1.148866869
1.234500781
1.344819742
1.446956971
1.555173264
1.634623006
0.431845319
0.4358604775
0.4343626431
0.4332443195
0.4356644335
0.4374354339
0.437436584
0.4540907153
0.4627133242
0.475203274
0.4827108615
0.4935814264
0.4985368865
0.5159069866
0.5409627872
0.5721590052
0.5879142655
0.6234700458
0.6573014858
0.7092886886
0.7366300632
0.7755228032
0.8517221918
0.9414681285
1.014598772
1.07043888
1.184885737
1.272190177
1.420891289
1.516283239
0.4234959064
0.4175629107
0.4130352809
0.4318463261
0.4334091946
0.4407607422
0.4446550916
0.4552218573
0.4497842467
0.4432826122
0.4651359254
0.4833860828
0.4887154845
0.4936150599
0.5065360228
0.5406189656
0.5458077286
0.5820395246
0.616215194
0.635308117
0.6791045203
0.7275376685
0.7629512504
0.8182638342
0.8964018039
0.9766891841
1.046395638
1.14634763
1.23373332
1.353085405
0.4165923832
0.4236358735
0.4297236734
0.4354885109
0.4254292306
0.4254509893
0.4240665065
0.4283662856
0.4294596754
0.4445043174
0.4484412659
0.4592862146
0.4723596904
0.4777644711
0.4965353717
0.5151499529
0.5313784857
0.5503355699
0.574169051
0.6030728323
0.6398027613
0.6565928003
0.7091394174
0.7295779335
0.8095359168
0.8669068689
0.9359616337
1.027346531
1.118188364
1.201979476
0.4216778537
0.4177709789
0.4174843488
0.4256336868
0.4219123581
0.4181410041
0.4290289926
0.4260453521
0.4322388726
0.4456075695
0.4512792424
0.4568074341
0.4438687783
0.4582782348
0.4728105421
0.5022175744
0.5052352483
0.5191040152
0.5345678362
0.5624070257
0.5641356829
0.5976687507
0.638670399
0.6734338033
0.7183475039
0.768768677
0.8225918433
0.8985452489
0.9639231241
1.079925841
0.4103927573
0.4084369988
0.4063821821
0.4082569468
0.4123828055
0.4162231685
0.4314784296
0.4336016249
0.4346907687
0.4389283733
0.4390461204
0.4417282395
0.4624756011
0.4693922867
0.4648593667
0.473594867
0.4786552292
0.4919422854
0.500957923
0.5114695576
0.5232634525
0.566081694
0.5769191705
0.6178554028
0.6469821512
0.6981266155
0.7462834393
0.8182617099
0.8686595064
0.9346682211
0.4125895805
0.4161879466
0.4141009894
0.4144600873
0.4240918637
0.419947656
0.4206105311
0.4250189205
0.426237469
0.4346522334
0.4366700082
0.4394669461
0.4483683888
0.4442341757
0.4531906496
0.4577555047
0.4663470166
0.4806929124
0.4850754925
0.4977618427
0.5234385553
0.5337351482
0.563314574
0.5901445254
0.5891650028
0.6214019262
0.6512073177
0.6998912185
0.7853190619
0.8532861532
0.4266540513
0.4274893351
0.4314286157
0.4231647155
0.4233216257
0.4223207043
0.4167328868
0.4177722545
0.4221884173
0.4217134755
0.4314187207
0.4278036982
0.4306394999
0.4297297826
0.4376055176
0.4456195405
0.4552560972
0.4578538462
0.4768514146
0.486510281
0.5053823942
0.5126601997
0.5239127221
0.5421459315
0.5599527652
0.5764993211
0.6025148928
0.6602446333
0.6909687771
0.7463689952
0.415341207
0.4174078677
0.42200125
0.4231468749
0.4204959714
0.429850039
0.4284394228
0.4249730203
0.4163237542
0.4212411142
0.4192544265
0.4233215454
0.43091181
0.4371842567
0.4417872004
0.4383153973
0.4503746428
0.4617643988
0.4714576402
0.4624837174
0.4662299718
0.4902144614
0.4885628154
0.5033820992
0.550788824
0.5543341
0.5829050704
0.6015631708
0.6335602327
0.6824944525
0.4054137635
0.4004776717
0.402275535
0.4089856815
0.4136808163
0.4129383161
0.4142639586
0.4219957382
0.4241224021
0.4158660139
0.4203111513
0.421908017
0.4196313601
0.4170520872
0.4263172399
0.426203604
0.4270173505
0.4455875729
0.4440666506
0.4563208014
0.457802667
0.4646619321
0.4797377543
0.4972593198
0.507391452
0.5435523018
0.5414380511
0.5663434568
0.6133747965
0.6236307244
0.4119835347
0.4112870714
0.4120627866
0.4141825705
0.4133309423
0.4141199275
0.4121864316
0.4085153651
0.4138579218
0.4183095549
0.4249036063
0.4154445071
0.4104243647
0.4157489552
0.4203372626
0.4265144545
0.4368144577
0.4308522203
0.4429176431
0.450021307
0.4513818136
0.4568756257
0.4621037909
0.4730209532
0.4889926304
0.5204692116
0.5262331252
0.5348654238
0.5598948963
0.5899026569
0.4145708877
0.4131580172
0.4077935195
0.4092790811
0.4070740971
0.4089559279
0.4158946449
0.4240033181
0.4185041746
0.4221973685
0.4201719315
0.4292422833
0.4301169173
0.4318272024
0.4329258796
0.433357093
0.4335291582
0.4311789031
0.4278207169
0.4259429259
0.4466007333
0.450959822
0.4624351643
0.4574630112
0.4745657463
0.4954631556
0.4998501636
0.5310609369
0.5442656586
0.5630609901
0.4265381409
0.4286620035
0.4295849832
0.431322487
0.4349670408
0.4207384161
0.4171993316
0.4181975674
0.4178315185
0.4194190877
0.4157933064
0.4238648874
0.4279922522
0.4283794962
0.4276739919
0.4310900462
0.4353452084
0.4343529352
0.4325406229
0.4420779515
0.4412959673
0.4478753471
0.4494662896
0.4526818923
0.4528905142
0.4780411548
0.4848612955
0.4861387088
0.4978898648
0.5344216481
0.4197001685
0.4139123006
0.4167333305
0.4154862699
0.4183245342
0.4275134617
0.4234801547
0.4151418979
0.4173226583
0.419072546
0.4182115688
0.4209875197
0.4205224219
0.4230627986
0.4284958727
0.4178213118
0.4236352474
0.4306270434
0.4341066579
0.4325229533
0.4411065332
0.4348179105
0.4370420062
0.4472275638
0.4616066492
0.4600398715
0.4670933625
0.4851714083
0.4999916723
0.5182272915
0.399332667
0.4088941036
0.4117719036
0.4052142377
0.4005435481
0.4003793073
0.4063596488
0.4148551284
0.4122850167
0.4095501892
0.4133514647
0.4125516131
0.411882052
0.4056556008
0.4060942602
0.417395004
0.4109348416
0.4142260733
0.4043994698
0.4092184611
0.413705663
0.4338189071
0.4362860354
0.428944305
0.4299062229
0.4289329003
0.4417208461
0.4586345594
0.4650379791
0.4791922699
)
;

boundaryField
{
    flow
    {
        type            calculated;
        value           nonuniform List<scalar> 
55
(
2.47845152
2.49611963
2.489952753
2.441831629
2.425483219
2.324642791
2.232093661
2.102226893
1.958348905
1.847459762
1.634623006
1.516283239
1.353085405
1.201979476
1.079925841
0.9346682211
0.8532861532
0.7463689952
0.6824944525
0.6236307244
0.5899026569
0.5630609901
0.5344216481
0.5182272915
0.4791922699
0.399332667
0.4088941036
0.4117719036
0.4052142377
0.4005435481
0.4003793073
0.4063596488
0.4148551284
0.4122850167
0.4095501892
0.4133514647
0.4125516131
0.411882052
0.4056556008
0.4060942602
0.417395004
0.4109348416
0.4142260733
0.4043994698
0.4092184611
0.413705663
0.4338189071
0.4362860354
0.428944305
0.4299062229
0.4289329003
0.4417208461
0.4586345594
0.4650379791
0.4791922699
)
;
    }
    obstacle
    {
        type            calculated;
        value           nonuniform List<scalar> 0();
    }
    frontAndBack
    {
        type            empty;
    }
    procBoundary3to1
    {
        type            processor;
        value           nonuniform List<scalar> 
36
(
2.435279665
2.563123609
2.556906957
2.568910565
2.537479129
2.537479129
2.162973513
2.205914895
2.381755168
2.397200874
2.50047573
2.485289837
2.485289837
1.460316897
1.591970331
1.68674071
1.808712955
1.886863053
1.886863053
0.7849842371
0.8185605194
0.9504854823
1.005946133
1.047975679
1.142735132
1.142735132
0.4957166852
0.4951246742
0.5131286545
0.5626180553
0.5910463019
0.6065631325
0.6510443747
0.6510443747
0.4715302829
0.4715302829
)
;
    }
    procBoundary3to2
    {
        type            processor;
        value           nonuniform List<scalar> 
19
(
0.4497943486
0.4389667945
0.4390925293
0.4352528494
0.420542728
0.4304262318
0.4145963613
0.4152994683
0.4213646351
0.4148829233
0.4141395357
0.4189673342
0.4173952611
0.4077241051
0.4032920946
0.4152161099
0.4158681257
0.4237647439
0.3993452514
)
;
    }
}


// ************************************************************************* //
