/*--------------------------------*- C++ -*----------------------------------*\
| =========                 |                                                 |
| \\      /  F ield         | OpenFOAM: The Open Source CFD Toolbox           |
|  \\    /   O peration     | Version:  2406                                  |
|   \\  /    A nd           | Website:  www.openfoam.com                      |
|    \\/     M anipulation  |                                                 |
\*---------------------------------------------------------------------------*/
FoamFile
{
    version     2.0;
    format      ascii;
    arch        "LSB;label=32;scalar=64";
    class       volScalarField;
    location    "0.004";
    object      rhoM;
}
// * * * * * * * * * * * * * * * * * * * * * * * * * * * * * * * * * * * * * //

dimensions      [1 -3 0 0 0 0 0];

internalField   nonuniform List<scalar> 
654
(
1.580068251e-05
1.30449184e-05
1.288561078e-05
1.123991423e-05
8.811896446e-06
1.381352455e-05
1.073300657e-05
1.108832774e-05
1.268064217e-05
1.030399129e-05
1.290422517e-05
9.311535663e-06
1.07632317e-05
1.58301329e-05
1.003193181e-05
1.359269887e-05
1.201724795e-05
3.570138425e-06
7.701667363e-06
7.342977046e-06
6.127970373e-06
6.350797652e-06
8.828797175e-06
6.285865507e-06
7.748809878e-06
1.048105603e-05
9.050820195e-06
1.31992141e-05
1.140184033e-05
9.849349354e-06
1.226050415e-05
1.434240741e-05
1.305683776e-05
2.295193872e-06
1.036967268e-05
5.868817917e-06
8.184927988e-06
4.0846447e-06
7.246582652e-06
7.471266506e-06
5.943612369e-06
4.388555313e-06
6.808628173e-06
9.440654277e-06
9.43477671e-06
8.904625634e-06
8.101992767e-06
9.770657299e-06
8.961507328e-06
9.76424979e-06
7.845134214e-06
9.941088429e-06
1.02170867e-05
1.143700494e-05
1.201724795e-05
6.004248536e-06
3.705437112e-06
5.027615496e-06
6.601107815e-06
4.331446955e-06
4.442327761e-06
4.55492189e-06
7.281896373e-06
2.392705796e-06
4.100159658e-06
3.971311571e-06
2.368975859e-06
6.423828759e-06
4.068622879e-06
1.096547449e-05
7.933861335e-06
9.702961293e-06
6.179713201e-06
8.136546848e-06
6.984061282e-06
8.45305423e-06
7.816525772e-06
9.229445928e-06
1.265857063e-05
1.167678523e-05
9.388436195e-06
7.430811985e-06
1.274955919e-05
1.021869196e-05
3.278041767e-06
2.62719769e-06
5.368842475e-06
4.342448593e-06
7.214949365e-06
8.042518867e-06
3.351163795e-06
7.931977086e-06
3.403349958e-06
5.743262453e-06
2.894344224e-06
7.456061105e-06
4.656534241e-06
8.481705367e-06
5.895065813e-06
4.688146854e-06
3.545306151e-06
3.063985186e-06
4.377124632e-06
1.194496599e-05
8.119418264e-06
5.195128429e-06
9.060258564e-06
1.093286635e-05
9.854357122e-06
8.665574515e-06
1.132161048e-05
7.430811985e-06
1.809320745e-05
8.799619202e-06
4.917062651e-06
5.329199928e-06
3.780798076e-06
5.485005098e-06
8.519131544e-06
6.72841376e-06
4.519999825e-06
8.481774392e-06
5.1444658e-06
8.056467566e-06
6.914374349e-06
3.484749623e-06
5.800313542e-06
3.541214305e-06
5.562076172e-06
4.185557279e-06
5.317959184e-06
9.276781512e-06
9.010875792e-06
4.24185726e-06
5.93571604e-06
9.686012347e-06
1.092585765e-05
7.258087005e-06
7.23253558e-06
9.942791503e-06
1.058547992e-05
1.198277168e-05
1.021788207e-05
1.277393486e-05
7.151928024e-06
4.803760387e-06
5.444203477e-06
3.73320751e-06
3.914395458e-06
3.790016086e-06
6.779999738e-06
2.277460928e-06
2.216312222e-06
4.626410228e-06
5.225845537e-06
7.050267603e-06
3.431337683e-06
7.494797449e-06
3.570138425e-06
4.938433364e-06
4.895318071e-06
4.851480726e-06
8.839791392e-06
4.414398551e-06
4.889473838e-06
1.937202486e-06
1.234665512e-05
9.050820195e-06
7.685249689e-06
1.049048415e-05
1.10463929e-05
9.289074362e-06
1.012445069e-05
1.021869206e-05
7.151927973e-06
3.377050784e-06
7.107608957e-06
3.809133266e-06
2.763211436e-06
3.248585192e-06
4.442327728e-06
4.711466293e-06
6.727818317e-06
7.577542176e-06
4.020030157e-06
4.619410027e-06
5.800313496e-06
5.434936989e-06
7.804256162e-06
8.704830023e-06
5.992965089e-06
4.255648845e-06
6.780576137e-06
6.318608075e-06
3.229944385e-06
1.849437069e-06
6.572793058e-06
5.824763901e-06
8.0456786e-06
4.561175604e-06
6.719131508e-06
1.123991423e-05
1.096759038e-05
8.137233184e-06
4.842806435e-06
9.306494698e-06
7.561596042e-06
2.133261418e-06
4.451737962e-06
5.799714367e-06
2.805581888e-06
3.377055316e-06
3.878546389e-06
5.584261125e-06
6.591919858e-06
4.700178402e-06
4.656534314e-06
5.352859968e-06
4.732602095e-06
7.282506772e-06
4.811196469e-06
7.234808113e-06
4.977987481e-06
5.712628413e-06
6.285865454e-06
5.723842008e-06
7.639461094e-06
5.824763901e-06
2.531714126e-06
6.386085262e-06
9.941088341e-06
6.687954479e-06
1.153043622e-05
8.705318235e-06
5.364394696e-06
4.878564933e-06
3.326810881e-06
7.084951121e-06
5.449923753e-06
7.346925751e-06
3.273491698e-06
5.026446798e-06
3.403349958e-06
3.908982788e-06
3.939900656e-06
7.456061105e-06
5.881730899e-06
2.964691424e-06
7.14027685e-06
3.180378282e-06
8.440624153e-06
3.744642986e-06
6.179713252e-06
5.020378159e-06
6.285865507e-06
4.490884e-06
6.395728369e-06
3.853404979e-06
8.408285471e-06
6.202056248e-06
8.56056655e-06
3.343977269e-06
4.124525339e-06
1.305683776e-05
4.84280647e-06
3.227441761e-06
3.780798076e-06
4.342448624e-06
3.837896379e-06
6.186982895e-06
6.156745687e-06
6.126041246e-06
5.777425506e-06
8.13596823e-06
5.386104477e-06
5.186740323e-06
5.391258734e-06
3.128845466e-06
5.977813228e-06
1.84148392e-06
3.12266497e-06
8.0002918e-06
5.749934766e-06
9.86821511e-06
7.508233966e-06
3.170160515e-06
3.819730547e-06
6.273486908e-06
6.329285369e-06
1.459048826e-06
3.313696172e-06
9.196496954e-06
6.093356727e-06
6.718160343e-06
5.215882226e-06
5.553613422e-06
5.594925403e-06
4.418374381e-06
3.837896379e-06
5.104121202e-06
2.960926061e-06
5.654516219e-06
2.928153578e-06
6.381189229e-06
5.225845497e-06
5.186740283e-06
3.103700254e-06
6.752136738e-06
6.476297601e-06
4.771575627e-06
7.174733845e-06
3.659817033e-06
4.206040231e-06
4.414398588e-06
5.674681277e-06
3.698874169e-06
5.151995644e-06
5.108102349e-06
1.16630354e-05
8.665574439e-06
3.405435305e-06
5.294817137e-06
1.012445069e-05
6.718160404e-06
5.512907129e-06
7.804980707e-06
4.385507167e-06
4.951689703e-06
3.224054829e-06
3.402747443e-06
5.68883583e-06
5.182991277e-06
6.964463267e-06
3.430057365e-06
4.180289129e-06
3.565517925e-06
4.084644668e-06
4.035660165e-06
4.068622846e-06
6.110470068e-06
2.447659035e-06
4.425300786e-06
6.094171052e-06
4.414398588e-06
6.897049736e-06
1.849437053e-06
3.197864157e-06
7.796122824e-06
1.057739273e-05
3.28395854e-06
5.983000943e-06
8.546216916e-06
2.718539774e-06
6.906762274e-06
3.725373774e-06
4.353125325e-06
2.722101738e-06
4.342448624e-06
5.526422872e-06
7.811275549e-06
4.675344055e-06
6.36085785e-06
5.223347451e-06
5.663761789e-06
5.788688447e-06
6.077143712e-06
4.737951717e-06
4.694260066e-06
3.652885839e-06
4.102128431e-06
5.570323985e-06
2.979159233e-06
5.578850366e-06
7.010858276e-06
4.976485443e-06
5.811607458e-06
5.862394379e-06
5.108102349e-06
5.786464027e-06
3.193042631e-06
5.338609494e-06
4.644537181e-06
5.343648316e-06
4.731002616e-06
4.246961997e-06
5.929443981e-06
4.234785271e-06
5.712782367e-06
4.451737962e-06
5.027040076e-06
6.15674564e-06
8.325229926e-06
4.669269395e-06
3.509558003e-06
8.040060251e-06
4.780946667e-06
4.328896909e-06
3.623291326e-06
3.487391039e-06
3.68296784e-06
4.472676878e-06
4.255648845e-06
4.806903081e-06
9.001338392e-06
2.531748524e-06
5.636076655e-06
4.44159691e-06
3.853404979e-06
1.030707108e-05
5.929308601e-06
4.141565863e-06
4.737114629e-06
5.343648268e-06
5.393388467e-06
6.108751571e-06
4.427929867e-06
4.764133396e-06
7.236802686e-06
4.451737929e-06
5.568470904e-06
4.052089969e-06
5.654516219e-06
3.957428009e-06
5.822763116e-06
4.020030157e-06
5.754070503e-06
2.36897584e-06
4.199814206e-06
4.399612502e-06
4.185557279e-06
3.545306122e-06
4.170822926e-06
4.291582396e-06
3.116168714e-06
4.365301213e-06
7.661044477e-06
3.109331812e-06
3.853405012e-06
9.041214008e-06
6.02022443e-06
4.602478976e-06
3.901679735e-06
6.093356672e-06
4.162917596e-06
3.203785551e-06
7.055127576e-06
2.646740775e-06
3.351743639e-06
4.37523885e-06
3.248585216e-06
2.259999913e-06
6.910654984e-06
3.482231634e-06
3.430057365e-06
5.225845537e-06
7.617597768e-06
5.881730945e-06
2.882614426e-06
4.399612537e-06
5.524451716e-06
3.797670955e-06
3.57499105e-06
6.008628802e-07
6.92458763e-06
5.761692881e-06
8.2775235e-06
3.286396529e-06
3.226056293e-06
3.887678467e-06
4.652091485e-06
6.627392286e-06
7.338234495e-06
5.53051083e-06
4.73100253e-06
4.321218212e-06
2.62719769e-06
5.594925403e-06
3.809133266e-06
5.832419187e-06
4.949958914e-06
3.974417872e-06
2.748985929e-06
8.072619379e-06
4.226985443e-06
3.457187201e-06
1.782758976e-06
7.106927576e-06
4.858414108e-06
6.641792482e-06
3.599538961e-06
4.220312042e-06
4.170822892e-06
4.377124596e-06
6.232337376e-06
4.015151762e-06
8.630706321e-06
9.947722044e-06
4.659379397e-06
8.498392642e-06
3.193042659e-06
4.694218139e-06
4.737114672e-06
1.968831388e-06
7.56914835e-06
7.525003872e-06
4.203516364e-06
5.898190712e-06
3.885059022e-06
2.839710515e-06
6.10990177e-06
8.962327553e-06
1.649391557e-06
2.374075523e-06
4.067984115e-06
1.768658322e-06
3.484749595e-06
4.247479473e-06
6.423828708e-06
6.559045015e-06
2.344073408e-06
4.895318071e-06
9.276781512e-06
1.20172577e-06
2.510189101e-06
4.53932446e-06
5.811607458e-06
4.618661655e-06
3.853404979e-06
5.243642741e-06
3.831651191e-06
4.785957302e-06
4.086834716e-06
5.53051083e-06
2.743844716e-06
7.376491332e-06
3.902490297e-06
6.502899787e-06
4.799838227e-06
3.837896379e-06
3.944178338e-06
4.052089969e-06
5.182991238e-06
4.590387745e-06
1.834279665e-06
5.708559022e-06
5.267508626e-06
3.594172461e-06
5.929382801e-06
4.980844337e-06
9.123990603e-06
7.342977046e-06
3.829468939e-06
3.776261742e-06
3.722148328e-06
4.976485401e-06
2.553681492e-06
3.731198175e-06
4.480753664e-06
7.052321152e-06
6.4770012e-06
3.221956981e-06
8.081091941e-06
4.967664987e-06
4.731002573e-06
2.160609106e-06
3.827685814e-06
5.973551632e-06
5.942394656e-06
6.754106022e-06
2.707154347e-06
7.247909594e-06
3.29878309e-06
3.561113257e-06
4.467408934e-06
3.939900686e-06
5.834838805e-06
4.900786523e-06
3.541214305e-06
2.906159176e-06
5.607880565e-06
5.402080828e-06
4.340474833e-06
3.004314426e-06
3.635877651e-06
1.920564294e-06
4.31535316e-06
6.307195943e-06
2.59870763e-06
2.711928639e-06
3.831651191e-06
8.00791424e-06
3.25139975e-06
6.093356672e-06
4.162917558e-06
5.811726706e-06
3.827685814e-06
1.663405428e-06
5.9423947e-06
3.453552065e-06
6.805494936e-06
2.182327815e-06
1.075923526e-05
7.281896373e-06
4.4674089e-06
6.351531447e-06
3.40398132e-06
5.472676094e-06
4.117737186e-06
4.815349548e-06
5.441022866e-06
6.077086689e-06
3.063985161e-06
3.175398826e-06
5.626357815e-06
4.278289609e-06
4.490883962e-06
3.286396557e-06
1.882046056e-06
1.175314265e-05
4.743007367e-06
3.58891363e-06
3.43655476e-06
4.780802469e-06
4.825303583e-06
6.929159325e-06
3.752881303e-06
6.502899834e-06
5.485005098e-06
5.602921951e-06
3.325666318e-06
2.259999913e-06
3.455327518e-06
7.281896373e-06
3.350556675e-06
2.814214754e-06
5.673302201e-06
5.963148348e-06
4.940491129e-06
6.476297601e-06
7.365935621e-06
5.402080828e-06
3.744642986e-06
6.609491737e-06
4.500669196e-06
3.055921149e-06
5.019597627e-06
6.572793114e-06
4.570066531e-06
7.955571356e-06
7.115609731e-06
3.313696172e-06
3.343977269e-06
4.687371145e-06
3.974315626e-06
)
;

boundaryField
{
    flow
    {
        type            zeroGradient;
    }
    obstacle
    {
        type            calculated;
        value           nonuniform List<scalar> 0();
    }
    frontAndBack
    {
        type            empty;
    }
    procBoundary3to1
    {
        type            processor;
        value           nonuniform List<scalar> 
36
(
1.239445182e-05
1.103817671e-05
7.824435916e-06
7.153079514e-06
1.377956143e-05
1.377956143e-05
1.592801111e-05
1.396812256e-05
7.485513612e-06
1.536745443e-05
1.16495279e-05
1.319921433e-05
1.319921433e-05
9.71344651e-06
7.032220281e-06
7.174733845e-06
5.447312528e-06
7.552523422e-06
7.552523422e-06
3.403349984e-06
5.105335676e-06
7.959930843e-06
1.053501717e-05
5.800313496e-06
4.940491129e-06
4.940491129e-06
4.878564862e-06
6.048912595e-06
2.133261434e-06
5.526422913e-06
3.944178338e-06
3.35116382e-06
4.633194091e-06
4.633194091e-06
4.768550253e-06
4.768550253e-06
)
;
    }
    procBoundary3to2
    {
        type            processor;
        value           nonuniform List<scalar> 
19
(
5.325361345e-06
1.553378863e-06
4.363491336e-06
3.698266555e-06
5.325361345e-06
3.180473627e-06
2.662680691e-06
3.845698382e-06
3.106757727e-06
6.952456108e-06
4.363491336e-06
3.180473627e-06
5.769438399e-06
4.733852456e-06
3.698266608e-06
4.73385249e-06
4.142343636e-06
3.254189527e-06
3.698266581e-06
)
;
    }
}


// ************************************************************************* //
