/*--------------------------------*- C++ -*----------------------------------*\
| =========                 |                                                 |
| \\      /  F ield         | OpenFOAM: The Open Source CFD Toolbox           |
|  \\    /   O peration     | Version:  2406                                  |
|   \\  /    A nd           | Website:  www.openfoam.com                      |
|    \\/     M anipulation  |                                                 |
\*---------------------------------------------------------------------------*/
FoamFile
{
    version     2.0;
    format      ascii;
    arch        "LSB;label=32;scalar=64";
    class       volScalarField;
    location    "0.004";
    object      rhoMMean;
}
// * * * * * * * * * * * * * * * * * * * * * * * * * * * * * * * * * * * * * //

dimensions      [1 -3 0 0 0 0 0];

internalField   nonuniform List<scalar> 
654
(
1.145025143e-05
1.141910785e-05
1.169002776e-05
1.154880266e-05
1.157134501e-05
1.167576182e-05
9.392835884e-06
9.750473195e-06
1.013265387e-05
1.060648742e-05
1.097832623e-05
1.124871266e-05
1.128889675e-05
1.135886369e-05
1.166955839e-05
1.17026607e-05
1.16793005e-05
6.771682244e-06
7.153870519e-06
7.468601601e-06
7.740191019e-06
8.213859991e-06
8.724158961e-06
9.132631132e-06
9.423708477e-06
9.825872613e-06
1.028699796e-05
1.069973645e-05
1.110169143e-05
1.122731177e-05
1.131672698e-05
1.144310955e-05
1.142752988e-05
5.313613558e-06
5.457057541e-06
5.528136462e-06
5.749213668e-06
5.883760846e-06
6.064384918e-06
6.209198573e-06
6.550286419e-06
6.910626004e-06
7.322395522e-06
7.683330755e-06
7.99496499e-06
8.501029011e-06
8.886588941e-06
9.22021717e-06
9.527087397e-06
9.955999234e-06
1.041869737e-05
1.083240728e-05
1.106638434e-05
1.11903561e-05
1.142300842e-05
4.851891475e-06
4.868201912e-06
4.855098414e-06
4.929947422e-06
5.006081229e-06
5.040719941e-06
5.161141154e-06
5.187559847e-06
5.286671567e-06
5.414711709e-06
5.501357143e-06
5.647879009e-06
5.820904969e-06
6.058118718e-06
6.235204591e-06
6.466609469e-06
6.706843582e-06
7.050183255e-06
7.450611553e-06
7.850507452e-06
8.291848546e-06
8.651996804e-06
9.065454823e-06
9.512005907e-06
9.886715681e-06
1.025764009e-05
1.057390407e-05
1.089360424e-05
1.106830136e-05
4.859950872e-06
4.884347409e-06
4.949334634e-06
4.953481299e-06
4.976072206e-06
4.966254935e-06
5.016018965e-06
5.055846995e-06
5.107752192e-06
5.216158521e-06
5.292430907e-06
5.425658857e-06
5.553321463e-06
5.65864146e-06
5.792947504e-06
5.971987552e-06
6.104410678e-06
6.353726062e-06
6.579982575e-06
6.795535459e-06
7.197131922e-06
7.588556817e-06
8.07134073e-06
8.412210606e-06
8.820687491e-06
9.290179947e-06
9.601716251e-06
1.00552412e-05
1.029590076e-05
1.069745692e-05
4.870135639e-06
4.846952873e-06
4.844447499e-06
4.885174418e-06
4.935919897e-06
4.94674852e-06
4.991144924e-06
5.044438011e-06
5.100246439e-06
5.200724584e-06
5.246322086e-06
5.289901536e-06
5.364642623e-06
5.466129852e-06
5.518553283e-06
5.664622471e-06
5.81002874e-06
5.940737967e-06
6.158439604e-06
6.420271852e-06
6.64226209e-06
7.002457153e-06
7.374869261e-06
7.823616211e-06
8.297001045e-06
8.645355269e-06
9.168268661e-06
9.55376893e-06
9.94589302e-06
1.021862411e-05
4.88221633e-06
4.938375737e-06
4.958744431e-06
4.964369914e-06
5.014446548e-06
5.012179022e-06
4.984477678e-06
4.998993866e-06
4.96348234e-06
4.957176702e-06
4.997592021e-06
5.08861135e-06
5.146454559e-06
5.241097598e-06
5.393315197e-06
5.473933783e-06
5.62490764e-06
5.801040001e-06
5.834584459e-06
6.014229286e-06
6.325545558e-06
6.587199458e-06
6.774325158e-06
7.167876153e-06
7.55218184e-06
7.848275687e-06
8.357267502e-06
8.760556042e-06
9.211385739e-06
9.573175301e-06
4.904237974e-06
4.915344762e-06
4.949905378e-06
4.935797745e-06
4.903372428e-06
4.912618464e-06
4.936919944e-06
4.959241203e-06
5.005186068e-06
5.045583401e-06
5.017952895e-06
5.049163885e-06
5.099702359e-06
5.102589774e-06
5.142037841e-06
5.259340668e-06
5.370475162e-06
5.477417028e-06
5.691535287e-06
5.841717496e-06
5.929402015e-06
6.167147433e-06
6.436852939e-06
6.584819229e-06
6.880478136e-06
7.313819674e-06
7.669630859e-06
8.101475211e-06
8.597666705e-06
9.100423248e-06
4.809787994e-06
4.782405811e-06
4.804034941e-06
4.792739362e-06
4.868156771e-06
4.886126965e-06
4.94119664e-06
4.941832023e-06
4.94635966e-06
4.923908677e-06
4.956626616e-06
4.952308128e-06
4.958453535e-06
5.011762251e-06
5.07644335e-06
5.091411753e-06
5.18268356e-06
5.330521587e-06
5.415539452e-06
5.521296803e-06
5.692773597e-06
5.847407472e-06
6.14007884e-06
6.424772191e-06
6.670138018e-06
6.980247459e-06
7.34687905e-06
7.679273959e-06
7.957699268e-06
8.302049695e-06
4.845491359e-06
4.854815179e-06
4.859086309e-06
4.816732131e-06
4.813762966e-06
4.797498502e-06
4.751204985e-06
4.801965674e-06
4.853956443e-06
4.924320591e-06
4.914750336e-06
4.8972819e-06
4.915234138e-06
4.930724707e-06
4.953863805e-06
4.990147237e-06
5.022991366e-06
5.123045506e-06
5.254913814e-06
5.390674445e-06
5.489392431e-06
5.625970509e-06
5.817081719e-06
6.063770799e-06
6.265117169e-06
6.471452092e-06
6.786817133e-06
7.097706427e-06
7.5833806e-06
7.999450714e-06
4.819712562e-06
4.780690766e-06
4.737315856e-06
4.78173693e-06
4.819873336e-06
4.862234305e-06
4.873799045e-06
4.856835625e-06
4.814758138e-06
4.753343125e-06
4.847980132e-06
4.901097608e-06
4.920317476e-06
4.936708023e-06
4.970959811e-06
5.091295725e-06
5.131236551e-06
5.132321604e-06
5.21886553e-06
5.215626397e-06
5.404748673e-06
5.535667951e-06
5.60895923e-06
5.736906668e-06
5.934043548e-06
6.168953199e-06
6.392013072e-06
6.71330363e-06
7.009014478e-06
7.411764031e-06
4.755899405e-06
4.801670911e-06
4.822575822e-06
4.826540925e-06
4.762019233e-06
4.766366263e-06
4.735307349e-06
4.740201259e-06
4.741569908e-06
4.800042559e-06
4.792500968e-06
4.822973392e-06
4.914501381e-06
4.924105566e-06
4.953275574e-06
4.965888724e-06
5.032654168e-06
5.110792e-06
5.161932586e-06
5.262418318e-06
5.306619562e-06
5.328551196e-06
5.442582829e-06
5.533984143e-06
5.686566313e-06
5.887164781e-06
6.071464881e-06
6.360144777e-06
6.646973565e-06
6.892500242e-06
4.799003827e-06
4.787225912e-06
4.772022163e-06
4.77137062e-06
4.765419744e-06
4.742436031e-06
4.762983255e-06
4.732677705e-06
4.760510322e-06
4.844608003e-06
4.846898422e-06
4.816699208e-06
4.764976846e-06
4.830421628e-06
4.901847556e-06
4.991154473e-06
4.993359001e-06
5.027342994e-06
5.009409897e-06
5.080360018e-06
5.056410464e-06
5.143670374e-06
5.276993547e-06
5.362412912e-06
5.522042957e-06
5.675040039e-06
5.822752026e-06
6.008464986e-06
6.210770013e-06
6.542011694e-06
4.745861692e-06
4.723271829e-06
4.724310932e-06
4.749691788e-06
4.727571651e-06
4.784160127e-06
4.849282037e-06
4.890206304e-06
4.843715568e-06
4.831313461e-06
4.846050209e-06
4.889706677e-06
4.898495398e-06
4.982449596e-06
4.917611563e-06
4.930232092e-06
4.909346896e-06
4.89380452e-06
4.911181607e-06
4.910112416e-06
4.936659758e-06
5.070787924e-06
5.099165489e-06
5.185379565e-06
5.297683948e-06
5.455656673e-06
5.604050246e-06
5.787394414e-06
5.903957829e-06
6.098994557e-06
4.802592319e-06
4.787997426e-06
4.764472441e-06
4.771306658e-06
4.810988385e-06
4.833042136e-06
4.827811965e-06
4.862189666e-06
4.892649716e-06
4.892884924e-06
4.86189091e-06
4.880965155e-06
4.893189493e-06
4.865261216e-06
4.865448858e-06
4.86056089e-06
4.863021817e-06
4.929182925e-06
4.949727543e-06
4.996690612e-06
5.035328815e-06
5.070240782e-06
5.131066297e-06
5.224951506e-06
5.229607834e-06
5.254193354e-06
5.329361161e-06
5.481756773e-06
5.711601116e-06
5.893763921e-06
4.895007805e-06
4.94747409e-06
4.974980393e-06
4.908198503e-06
4.880133117e-06
4.847772629e-06
4.796500525e-06
4.785859018e-06
4.782715708e-06
4.809986507e-06
4.817230872e-06
4.778119777e-06
4.766284444e-06
4.772495957e-06
4.800511348e-06
4.841594611e-06
4.859896102e-06
4.871007609e-06
4.954756572e-06
4.980632194e-06
5.052913176e-06
5.060239063e-06
5.073849243e-06
5.084173695e-06
5.113355332e-06
5.135247868e-06
5.19209697e-06
5.36308968e-06
5.398684232e-06
5.606000587e-06
4.828052555e-06
4.821481711e-06
4.860902223e-06
4.86393054e-06
4.862704038e-06
4.935893508e-06
4.906164727e-06
4.890905041e-06
4.819089956e-06
4.812120573e-06
4.808175636e-06
4.836290035e-06
4.865353719e-06
4.864341546e-06
4.87385372e-06
4.857334725e-06
4.863317299e-06
4.885703602e-06
4.893735481e-06
4.888587238e-06
4.893512649e-06
4.903447766e-06
4.919396052e-06
4.964017625e-06
5.086728368e-06
5.120834817e-06
5.214606971e-06
5.245268042e-06
5.331687088e-06
5.434201127e-06
4.756488968e-06
4.699967286e-06
4.701243875e-06
4.7135837e-06
4.719051595e-06
4.70422382e-06
4.706041981e-06
4.745337583e-06
4.78767385e-06
4.730128691e-06
4.746243182e-06
4.757586486e-06
4.768080584e-06
4.728767254e-06
4.782873563e-06
4.769568206e-06
4.777317751e-06
4.850251607e-06
4.813485825e-06
4.868890816e-06
4.896697995e-06
4.90733808e-06
4.919388605e-06
4.955856696e-06
5.000246739e-06
5.011871035e-06
5.041285685e-06
5.125303696e-06
5.26566608e-06
5.318420151e-06
4.717436099e-06
4.708931804e-06
4.731974676e-06
4.718335482e-06
4.742921388e-06
4.760254463e-06
4.757082405e-06
4.745232471e-06
4.763974442e-06
4.791306493e-06
4.801990137e-06
4.735934407e-06
4.710941149e-06
4.765206352e-06
4.762781652e-06
4.785172047e-06
4.825829053e-06
4.800099519e-06
4.818103036e-06
4.857059658e-06
4.834918655e-06
4.874916362e-06
4.87677899e-06
4.901723925e-06
4.96218092e-06
5.026677826e-06
5.02856138e-06
5.042731987e-06
5.097346052e-06
5.19035222e-06
4.778313341e-06
4.772356695e-06
4.728346387e-06
4.752132422e-06
4.72914358e-06
4.771813523e-06
4.828190975e-06
4.882184667e-06
4.840935645e-06
4.884830378e-06
4.877517768e-06
4.927474559e-06
4.967144127e-06
4.928366628e-06
4.879862868e-06
4.892764599e-06
4.86110265e-06
4.819420616e-06
4.818829151e-06
4.781696254e-06
4.864919964e-06
4.899530936e-06
4.955148461e-06
4.948779798e-06
4.963600901e-06
5.03132772e-06
5.059830948e-06
5.162172192e-06
5.182183208e-06
5.208667453e-06
4.88937271e-06
4.890158354e-06
4.923973657e-06
4.936333776e-06
4.928511887e-06
4.855302979e-06
4.810473641e-06
4.786304058e-06
4.806504841e-06
4.799956371e-06
4.780864197e-06
4.794668128e-06
4.81531141e-06
4.843296438e-06
4.845834432e-06
4.878527291e-06
4.893079318e-06
4.906092623e-06
4.912319887e-06
4.908980472e-06
4.873399036e-06
4.876867709e-06
4.899897265e-06
4.89761598e-06
4.884233024e-06
4.936459882e-06
4.94839378e-06
4.917224135e-06
4.927979415e-06
5.009809033e-06
4.8432077e-06
4.799855749e-06
4.818277857e-06
4.818703483e-06
4.814449644e-06
4.871609945e-06
4.87049364e-06
4.82099496e-06
4.820075977e-06
4.831221471e-06
4.814762715e-06
4.84103743e-06
4.8266477e-06
4.844205237e-06
4.825320861e-06
4.799227414e-06
4.825875102e-06
4.854446391e-06
4.881960418e-06
4.887562847e-06
4.875725873e-06
4.830476403e-06
4.833117686e-06
4.904804139e-06
4.958234075e-06
4.900838573e-06
4.951471476e-06
4.990073854e-06
5.063235495e-06
5.091162084e-06
4.65291927e-06
4.703000518e-06
4.700595145e-06
4.707448738e-06
4.678481314e-06
4.664235949e-06
4.694421907e-06
4.761834336e-06
4.749642528e-06
4.74666543e-06
4.76287352e-06
4.72851291e-06
4.726764695e-06
4.708737238e-06
4.739060269e-06
4.782812851e-06
4.728921985e-06
4.699755542e-06
4.672284081e-06
4.68873816e-06
4.735166119e-06
4.818811468e-06
4.782665467e-06
4.778943287e-06
4.724806179e-06
4.762053008e-06
4.804486257e-06
4.819911392e-06
4.846081535e-06
4.92553659e-06
)
;

boundaryField
{
    flow
    {
        type            calculated;
        value           nonuniform List<scalar> 
55
(
1.145025143e-05
1.167576182e-05
1.16793005e-05
1.142752988e-05
1.142300842e-05
1.106830136e-05
1.069745692e-05
1.021862411e-05
9.573175301e-06
9.100423248e-06
8.302049695e-06
7.999450714e-06
7.411764031e-06
6.892500242e-06
6.542011694e-06
6.098994557e-06
5.893763921e-06
5.606000587e-06
5.434201127e-06
5.318420151e-06
5.19035222e-06
5.208667453e-06
5.009809033e-06
5.091162084e-06
4.92553659e-06
4.65291927e-06
4.703000518e-06
4.700595145e-06
4.707448738e-06
4.678481314e-06
4.664235949e-06
4.694421907e-06
4.761834336e-06
4.749642528e-06
4.74666543e-06
4.76287352e-06
4.72851291e-06
4.726764695e-06
4.708737238e-06
4.739060269e-06
4.782812851e-06
4.728921985e-06
4.699755542e-06
4.672284081e-06
4.68873816e-06
4.735166119e-06
4.818811468e-06
4.782665467e-06
4.778943287e-06
4.724806179e-06
4.762053008e-06
4.804486257e-06
4.819911392e-06
4.846081535e-06
4.92553659e-06
)
;
    }
    obstacle
    {
        type            calculated;
        value           nonuniform List<scalar> 0();
    }
    frontAndBack
    {
        type            empty;
    }
    procBoundary3to1
    {
        type            processor;
        value           nonuniform List<scalar> 
36
(
1.116345427e-05
1.159749683e-05
1.163650395e-05
1.163626084e-05
1.157271896e-05
1.157271896e-05
9.796491412e-06
1.012193143e-05
1.067734553e-05
1.088888713e-05
1.114671184e-05
1.126520929e-05
1.126520929e-05
7.26819916e-06
7.651764936e-06
7.96119266e-06
8.445750677e-06
8.830307062e-06
8.830307062e-06
5.439315518e-06
5.501188936e-06
5.814043297e-06
5.940380527e-06
6.089009766e-06
6.413480805e-06
6.413480805e-06
4.920111084e-06
4.909753885e-06
4.959417307e-06
5.038460131e-06
5.052556025e-06
5.143248597e-06
5.234852168e-06
5.234852168e-06
4.806754291e-06
4.806754291e-06
)
;
    }
    procBoundary3to2
    {
        type            processor;
        value           nonuniform List<scalar> 
19
(
4.866227317e-06
4.827933243e-06
4.894721407e-06
4.910039358e-06
4.788371411e-06
4.880088245e-06
4.776558194e-06
4.768732137e-06
4.796074389e-06
4.780702619e-06
4.790646471e-06
4.849635338e-06
4.82475366e-06
4.778024427e-06
4.674452541e-06
4.802936203e-06
4.80391589e-06
4.86665625e-06
4.664553197e-06
)
;
    }
}


// ************************************************************************* //
