/*--------------------------------*- C++ -*----------------------------------*\
| =========                 |                                                 |
| \\      /  F ield         | OpenFOAM: The Open Source CFD Toolbox           |
|  \\    /   O peration     | Version:  2406                                  |
|   \\  /    A nd           | Website:  www.openfoam.com                      |
|    \\/     M anipulation  |                                                 |
\*---------------------------------------------------------------------------*/
FoamFile
{
    version     2.0;
    format      ascii;
    arch        "LSB;label=32;scalar=64";
    class       volScalarField;
    location    "0.004";
    object      rhoNMean;
}
// * * * * * * * * * * * * * * * * * * * * * * * * * * * * * * * * * * * * * //

dimensions      [0 -3 0 0 0 0 0];

internalField   nonuniform List<scalar> 
654
(
2.386512453e+20
2.379743814e+20
2.43566092e+20
2.406525294e+20
2.410089526e+20
2.433021896e+20
1.959334068e+20
2.033666236e+20
2.112269272e+20
2.210500883e+20
2.28793391e+20
2.342448078e+20
2.352963415e+20
2.367757289e+20
2.431837267e+20
2.439163309e+20
2.433164367e+20
1.412268363e+20
1.49214134e+20
1.558346295e+20
1.613871421e+20
1.711619307e+20
1.819567818e+20
1.904857516e+20
1.96564005e+20
2.048481292e+20
2.145465047e+20
2.229950136e+20
2.312586896e+20
2.339210078e+20
2.35834864e+20
2.38666116e+20
2.383877154e+20
1.108513581e+20
1.138648857e+20
1.152133468e+20
1.199201878e+20
1.226979943e+20
1.264568843e+20
1.295397016e+20
1.365863849e+20
1.440232972e+20
1.527315634e+20
1.602236418e+20
1.666443924e+20
1.772565704e+20
1.853480657e+20
1.923639948e+20
1.986873998e+20
2.07838759e+20
2.174084398e+20
2.260982328e+20
2.308353977e+20
2.33274762e+20
2.381241856e+20
1.011951366e+20
1.014811648e+20
1.012381649e+20
1.028115262e+20
1.043564337e+20
1.050685254e+20
1.075592473e+20
1.081345883e+20
1.102861558e+20
1.129498726e+20
1.147532135e+20
1.17766215e+20
1.213363702e+20
1.262835544e+20
1.299889515e+20
1.349440074e+20
1.399307865e+20
1.470821878e+20
1.554109639e+20
1.637908003e+20
1.730184822e+20
1.806220864e+20
1.893581177e+20
1.986102509e+20
2.064078891e+20
2.139240856e+20
2.206197115e+20
2.273470977e+20
2.307952035e+20
1.013619779e+20
1.018392223e+20
1.031716622e+20
1.032682033e+20
1.037417642e+20
1.035471975e+20
1.045757402e+20
1.054901165e+20
1.065378894e+20
1.08821037e+20
1.104261557e+20
1.131244249e+20
1.157861223e+20
1.18019812e+20
1.208087254e+20
1.245194489e+20
1.272370985e+20
1.325886029e+20
1.373456271e+20
1.41786199e+20
1.501607375e+20
1.583091629e+20
1.683452424e+20
1.753405862e+20
1.838691444e+20
1.936769226e+20
2.002325025e+20
2.09641867e+20
2.146449598e+20
2.230958593e+20
1.014348881e+20
1.009521907e+20
1.009119732e+20
1.017714803e+20
1.028461935e+20
1.030348759e+20
1.039714943e+20
1.051176749e+20
1.062161675e+20
1.082566063e+20
1.092096887e+20
1.101840692e+20
1.1175215e+20
1.139159619e+20
1.15096403e+20
1.181803667e+20
1.212011821e+20
1.237600407e+20
1.283133e+20
1.337846594e+20
1.384890878e+20
1.459530659e+20
1.537614732e+20
1.631983521e+20
1.729936596e+20
1.803004755e+20
1.911833071e+20
1.990625813e+20
2.072565515e+20
2.129535197e+20
1.017545719e+20
1.02895752e+20
1.033424205e+20
1.034631795e+20
1.045217775e+20
1.044088302e+20
1.03807233e+20
1.040949331e+20
1.033623676e+20
1.033028262e+20
1.04150155e+20
1.060480497e+20
1.072385266e+20
1.091859946e+20
1.122527418e+20
1.139333099e+20
1.171857108e+20
1.209090173e+20
1.216779647e+20
1.25366104e+20
1.317266312e+20
1.372030422e+20
1.411302306e+20
1.494911206e+20
1.575515659e+20
1.636966537e+20
1.743875555e+20
1.828055824e+20
1.920916083e+20
1.996559438e+20
1.022481171e+20
1.024833102e+20
1.032058152e+20
1.02838111e+20
1.021470705e+20
1.024177611e+20
1.029389951e+20
1.034209889e+20
1.044407346e+20
1.053023528e+20
1.047008938e+20
1.053404104e+20
1.063591686e+20
1.063467744e+20
1.072466492e+20
1.096736496e+20
1.118868106e+20
1.142075098e+20
1.185961196e+20
1.217758387e+20
1.236958029e+20
1.286585092e+20
1.342963862e+20
1.37348888e+20
1.434774118e+20
1.52572505e+20
1.600169359e+20
1.690727885e+20
1.794388677e+20
1.897984996e+20
1.001841981e+20
9.960751671e+19
1.00086644e+20
9.990200852e+19
1.01505727e+20
1.018472226e+20
1.029683282e+20
1.029716923e+20
1.030823497e+20
1.025762718e+20
1.032786562e+20
1.032296996e+20
1.03370585e+20
1.044932223e+20
1.05846692e+20
1.061071293e+20
1.080047657e+20
1.111706904e+20
1.130203704e+20
1.152338643e+20
1.187997552e+20
1.220098161e+20
1.281245309e+20
1.34009774e+20
1.390673291e+20
1.454585421e+20
1.530533486e+20
1.600947283e+20
1.659463746e+20
1.731605061e+20
1.010254701e+20
1.012346858e+20
1.01264872e+20
1.003779781e+20
1.002923715e+20
1.000133423e+20
9.904952299e+19
1.000749099e+20
1.011520124e+20
1.026663406e+20
1.024737295e+20
1.020767365e+20
1.024358829e+20
1.027822512e+20
1.033280208e+20
1.041348302e+20
1.049296247e+20
1.06980647e+20
1.096865506e+20
1.124841504e+20
1.145017509e+20
1.173166219e+20
1.212906876e+20
1.264815898e+20
1.306895344e+20
1.35041672e+20
1.416206007e+20
1.479701551e+20
1.581486747e+20
1.667574419e+20
1.004870565e+20
9.964141675e+19
9.875473717e+19
9.970703374e+19
1.004714864e+20
1.013814741e+20
1.016483711e+20
1.013045653e+20
1.004489894e+20
9.911763268e+19
1.010817531e+20
1.021987446e+20
1.026572604e+20
1.029868238e+20
1.036405118e+20
1.061638417e+20
1.069119465e+20
1.069037646e+20
1.086657297e+20
1.0867886e+20
1.127142013e+20
1.154472975e+20
1.169710568e+20
1.196347208e+20
1.238089886e+20
1.286555855e+20
1.332781571e+20
1.400269517e+20
1.461945515e+20
1.546564328e+20
9.915784705e+19
1.00093407e+20
1.005704575e+20
1.007048496e+20
9.938524572e+19
9.934383178e+19
9.872100127e+19
9.880387416e+19
9.881058658e+19
1.000663566e+20
9.989554566e+19
1.005516561e+20
1.024358829e+20
1.027078603e+20
1.032717725e+20
1.034731966e+20
1.048597352e+20
1.064745103e+20
1.075673791e+20
1.096953419e+20
1.106637768e+20
1.111186876e+20
1.135006412e+20
1.154254124e+20
1.18473333e+20
1.227227062e+20
1.266125159e+20
1.32657111e+20
1.386367781e+20
1.437804844e+20
1.000776378e+20
9.98109141e+19
9.947760974e+19
9.945471177e+19
9.936213421e+19
9.888390589e+19
9.936044679e+19
9.874475693e+19
9.935870681e+19
1.010931409e+20
1.010817539e+20
1.004601512e+20
9.937350632e+19
1.006993298e+20
1.022343049e+20
1.041726387e+20
1.042688517e+20
1.050073545e+20
1.046212118e+20
1.060203687e+20
1.054522812e+20
1.072607203e+20
1.099700442e+20
1.117894883e+20
1.151725757e+20
1.183485811e+20
1.214019543e+20
1.25273287e+20
1.294630119e+20
1.362948097e+20
9.884377242e+19
9.84323401e+19
9.848721642e+19
9.896727373e+19
9.852434219e+19
9.975136039e+19
1.01091057e+20
1.019607749e+20
1.009911518e+20
1.007328652e+20
1.010393878e+20
1.019303295e+20
1.021345656e+20
1.039105003e+20
1.024967967e+20
1.027485502e+20
1.023246507e+20
1.019513137e+20
1.023211345e+20
1.022932675e+20
1.028629631e+20
1.056565509e+20
1.063057143e+20
1.080658703e+20
1.104358202e+20
1.137821858e+20
1.168427109e+20
1.206723815e+20
1.23140171e+20
1.272137145e+20
1.002290659e+20
9.995781045e+19
9.939223173e+19
9.952926196e+19
1.004021526e+20
1.007934693e+20
1.006452035e+20
1.012572702e+20
1.019026996e+20
1.019638045e+20
1.01384356e+20
1.018144234e+20
1.020484746e+20
1.014556287e+20
1.01521828e+20
1.013937783e+20
1.014351474e+20
1.027841961e+20
1.031804331e+20
1.042154609e+20
1.050251094e+20
1.058023846e+20
1.070412552e+20
1.089428093e+20
1.090270447e+20
1.095591313e+20
1.112579855e+20
1.143513796e+20
1.191672235e+20
1.228903975e+20
1.021079059e+20
1.031895461e+20
1.037863899e+20
1.023621414e+20
1.017715085e+20
1.010845604e+20
1.000996223e+20
9.993893931e+19
9.985320582e+19
1.003545765e+20
1.004583894e+20
9.962440671e+19
9.940425307e+19
9.954628406e+19
1.000906219e+20
1.009589888e+20
1.013525507e+20
1.015540925e+20
1.033354945e+20
1.038701185e+20
1.053471312e+20
1.055504891e+20
1.057774622e+20
1.060219287e+20
1.066858897e+20
1.071145644e+20
1.082508266e+20
1.118551447e+20
1.126467927e+20
1.169716597e+20
1.006328761e+20
1.0048325e+20
1.013104066e+20
1.013929977e+20
1.013728351e+20
1.02877687e+20
1.022291519e+20
1.019253033e+20
1.004072846e+20
1.002765177e+20
1.002042022e+20
1.007407662e+20
1.013412993e+20
1.013502436e+20
1.015593269e+20
1.013055596e+20
1.014415018e+20
1.019513129e+20
1.020820807e+20
1.020195993e+20
1.021137695e+20
1.022692297e+20
1.02681503e+20
1.03600227e+20
1.06121018e+20
1.06812427e+20
1.087497093e+20
1.094358235e+20
1.111437064e+20
1.132466281e+20
9.912980467e+19
9.794644978e+19
9.797494401e+19
9.822177914e+19
9.834522803e+19
9.804556133e+19
9.809915517e+19
9.886299289e+19
9.978171264e+19
9.861925239e+19
9.899983937e+19
9.925838799e+19
9.943500061e+19
9.863500596e+19
9.975313328e+19
9.948449184e+19
9.969426149e+19
1.011889044e+20
1.004087107e+20
1.015830333e+20
1.021729155e+20
1.024482075e+20
1.026346967e+20
1.033911108e+20
1.042834827e+20
1.045326632e+20
1.051466615e+20
1.069325953e+20
1.099017206e+20
1.110173097e+20
9.823805848e+19
9.810464805e+19
9.857828779e+19
9.826192116e+19
9.883634749e+19
9.920410694e+19
9.913165436e+19
9.893984626e+19
9.931700201e+19
9.987420999e+19
1.001073683e+20
9.871545752e+19
9.826047385e+19
9.938510562e+19
9.933439557e+19
9.976174783e+19
1.005774129e+20
1.000036483e+20
1.00395789e+20
1.012376909e+20
1.008059675e+20
1.01672638e+20
1.0164506e+20
1.022173616e+20
1.034668007e+20
1.04738666e+20
1.04744783e+20
1.049537864e+20
1.060840215e+20
1.080258873e+20
9.955044033e+19
9.944931986e+19
9.850998408e+19
9.903608862e+19
9.854745369e+19
9.94253375e+19
1.005865396e+20
1.017243022e+20
1.008719953e+20
1.018076854e+20
1.01644596e+20
1.027416736e+20
1.034935712e+20
1.026644661e+20
1.016218241e+20
1.019167822e+20
1.012699539e+20
1.004136831e+20
1.003893289e+20
9.958264984e+19
1.012397095e+20
1.019245318e+20
1.031428886e+20
1.02979624e+20
1.033306879e+20
1.048210671e+20
1.055208234e+20
1.076527978e+20
1.081375338e+20
1.087452536e+20
1.01928434e+20
1.019239713e+20
1.026878502e+20
1.028667831e+20
1.026844137e+20
1.011777105e+20
1.002932159e+20
9.978523257e+19
1.001391816e+20
1.000243253e+20
9.953242195e+19
9.981961711e+19
1.002528642e+20
1.008853049e+20
1.00984344e+20
1.015765143e+20
1.018608391e+20
1.021435175e+20
1.022177603e+20
1.022281084e+20
1.014828696e+20
1.015268034e+20
1.019927693e+20
1.019407894e+20
1.017449637e+20
1.028503074e+20
1.031026234e+20
1.025204799e+20
1.027320684e+20
1.044646726e+20
1.009076921e+20
9.996911023e+19
1.003200133e+20
1.003607752e+20
1.002808165e+20
1.01445515e+20
1.013785134e+20
1.003764123e+20
1.004072846e+20
1.006548056e+20
1.003070875e+20
1.008810736e+20
1.006279738e+20
1.009225e+20
1.005156095e+20
1.000074975e+20
1.006028256e+20
1.011632772e+20
1.017331934e+20
1.018176069e+20
1.016143071e+20
1.006584297e+20
1.007222905e+20
1.022106159e+20
1.032966595e+20
1.021086975e+20
1.031303391e+20
1.0391194e+20
1.054489155e+20
1.060529763e+20
9.692006532e+19
9.796905004e+19
9.792371748e+19
9.80784148e+19
9.746699087e+19
9.718975125e+19
9.780583154e+19
9.923543614e+19
9.897740578e+19
9.887144482e+19
9.927218196e+19
9.852024789e+19
9.843880579e+19
9.810187728e+19
9.872816452e+19
9.961681856e+19
9.848072642e+19
9.791503346e+19
9.737855274e+19
9.768651927e+19
9.867010781e+19
1.004330511e+20
9.968584657e+19
9.957979885e+19
9.847823494e+19
9.925212601e+19
1.00143967e+20
1.00408819e+20
1.009467124e+20
1.026057185e+20
)
;

boundaryField
{
    flow
    {
        type            calculated;
        value           nonuniform List<scalar> 
55
(
2.386512453e+20
2.433021896e+20
2.433164367e+20
2.383877154e+20
2.381241856e+20
2.307952035e+20
2.230958593e+20
2.129535197e+20
1.996559438e+20
1.897984996e+20
1.731605061e+20
1.667574419e+20
1.546564328e+20
1.437804844e+20
1.362948097e+20
1.272137145e+20
1.228903975e+20
1.169716597e+20
1.132466281e+20
1.110173097e+20
1.080258873e+20
1.087452536e+20
1.044646726e+20
1.060529763e+20
1.026057185e+20
9.692006532e+19
9.796905004e+19
9.792371748e+19
9.80784148e+19
9.746699087e+19
9.718975125e+19
9.780583154e+19
9.923543614e+19
9.897740578e+19
9.887144482e+19
9.927218196e+19
9.852024789e+19
9.843880579e+19
9.810187728e+19
9.872816452e+19
9.961681856e+19
9.848072642e+19
9.791503346e+19
9.737855274e+19
9.768651927e+19
9.867010781e+19
1.004330511e+20
9.968584657e+19
9.957979885e+19
9.847823494e+19
9.925212601e+19
1.00143967e+20
1.00408819e+20
1.009467124e+20
1.026057185e+20
)
;
    }
    obstacle
    {
        type            calculated;
        value           nonuniform List<scalar> 0();
    }
    frontAndBack
    {
        type            empty;
    }
    procBoundary3to1
    {
        type            processor;
        value           nonuniform List<scalar> 
36
(
2.325829354e+20
2.417442276e+20
2.424574595e+20
2.425054777e+20
2.411289173e+20
2.411289173e+20
2.042607395e+20
2.110162825e+20
2.22595327e+20
2.270213408e+20
2.323348775e+20
2.348505177e+20
2.348505177e+20
1.515140161e+20
1.595860312e+20
1.659304923e+20
1.76090733e+20
1.841806265e+20
1.841806265e+20
1.133417304e+20
1.146634951e+20
1.212533184e+20
1.23885399e+20
1.269963894e+20
1.33778105e+20
1.33778105e+20
1.025850074e+20
1.02363411e+20
1.033542226e+20
1.04955119e+20
1.052879277e+20
1.072625854e+20
1.091376973e+20
1.091376973e+20
1.002515005e+20
1.002515005e+20
)
;
    }
    procBoundary3to2
    {
        type            processor;
        value           nonuniform List<scalar> 
19
(
1.014818514e+20
1.005687542e+20
1.019606707e+20
1.023281359e+20
9.979484855e+19
1.017268287e+20
9.967792827e+19
9.937170592e+19
1.000231229e+20
9.954987124e+19
9.996187854e+19
1.012146034e+20
1.005075098e+20
9.962781786e+19
9.73172378e+19
1.000620965e+20
1.001957205e+20
1.013983364e+20
9.718361312e+19
)
;
    }
}


// ************************************************************************* //
