/*--------------------------------*- C++ -*----------------------------------*\
| =========                 |                                                 |
| \\      /  F ield         | OpenFOAM: The Open Source CFD Toolbox           |
|  \\    /   O peration     | Version:  2406                                  |
|   \\  /    A nd           | Website:  www.openfoam.com                      |
|    \\/     M anipulation  |                                                 |
\*---------------------------------------------------------------------------*/
FoamFile
{
    version     2.0;
    format      ascii;
    arch        "LSB;label=32;scalar=64";
    class       volScalarField;
    location    "0.004";
    object      rhoN;
}
// * * * * * * * * * * * * * * * * * * * * * * * * * * * * * * * * * * * * * //

dimensions      [0 -3 0 0 0 0 0];

internalField   nonuniform List<scalar> 
654
(
3.276317571e+20
2.746703387e+20
2.632997126e+20
2.37736758e+20
1.834753248e+20
2.848971775e+20
2.215409322e+20
2.365874438e+20
2.651522702e+20
2.139755226e+20
2.698273915e+20
1.905591277e+20
2.197362671e+20
3.187312282e+20
2.097677277e+20
2.822697305e+20
2.564074621e+20
7.499765615e+19
1.638330863e+20
1.524862848e+20
1.28135881e+20
1.292178248e+20
1.824454751e+20
1.314374688e+20
1.590913608e+20
2.139755226e+20
1.888791741e+20
2.722273253e+20
2.334697858e+20
2.078681941e+20
2.517212732e+20
2.963832197e+20
2.706523211e+20
4.766262844e+19
2.161649468e+20
1.210414948e+20
1.708090985e+20
8.609090961e+19
1.487800982e+20
1.499953123e+20
1.26025452e+20
8.895033354e+19
1.409494691e+20
1.938267371e+20
1.954772931e+20
1.840124563e+20
1.723489756e+20
2.006020524e+20
1.888791741e+20
2.041704958e+20
1.648022032e+20
2.078681923e+20
2.097677258e+20
2.399292709e+20
2.564074621e+20
1.242975269e+20
7.968681962e+19
1.032223275e+20
1.386690249e+20
9.314939689e+19
9.386356265e+19
9.458876315e+19
1.549035424e+20
4.803665521e+19
8.472904767e+19
8.540454992e+19
4.919480549e+19
1.363817578e+20
8.749726621e+19
2.268458118e+20
1.651934739e+20
2.050174062e+20
1.292178237e+20
1.69413654e+20
1.445812144e+20
1.723489727e+20
1.604816405e+20
1.888791741e+20
2.722273253e+20
2.472033005e+20
1.940103128e+20
1.53829667e+20
2.68156244e+20
2.136728831e+20
6.730170614e+19
5.649887505e+19
1.138383121e+20
9.175317928e+19
1.50224777e+20
1.630114433e+20
7.039767093e+19
1.65530333e+20
7.149394211e+19
1.200916371e+20
6.05207474e+19
1.586084474e+20
9.838960944e+19
1.735767799e+20
1.249960946e+20
1.008203624e+20
7.624314304e+19
6.40679405e+19
9.045247808e+19
2.476045754e+20
1.708687108e+20
1.060609081e+20
1.872285822e+20
2.293532848e+20
2.041704976e+20
1.785357201e+20
2.355839534e+20
1.53829667e+20
3.810641362e+20
1.851831671e+20
1.009525592e+20
1.129977509e+20
7.968681962e+19
1.146914749e+20
1.733362811e+20
1.397240943e+20
9.386356194e+19
1.773539309e+20
1.07240914e+20
1.681282919e+20
1.452497938e+20
7.320389936e+19
1.229870137e+20
7.439004912e+19
1.124964842e+20
8.821781572e+19
1.143647136e+20
1.922038215e+20
1.809049547e+20
9.122273678e+19
1.182937209e+20
1.988642009e+20
2.273489927e+20
1.484050653e+20
1.497250289e+20
2.060027522e+20
2.217260738e+20
2.517212732e+20
2.117022998e+20
2.706523211e+20
1.458203644e+20
1.016979758e+20
1.138383129e+20
8.028403246e+19
8.089026452e+19
8.150572227e+19
1.407953429e+20
4.729438122e+19
4.766262844e+19
9.607330968e+19
1.089373462e+20
1.464077999e+20
7.379220824e+19
1.611784398e+20
7.499765615e+19
1.008203616e+20
1.01657524e+20
1.025087048e+20
1.809049547e+20
9.122273678e+19
1.05149975e+20
3.977284053e+19
2.54095933e+20
1.888791741e+20
1.633363966e+20
2.19736269e+20
2.355839513e+20
1.957832125e+20
2.117022979e+20
2.136728851e+20
1.458203633e+20
6.779865055e+19
1.479898079e+20
8.028403246e+19
5.777876037e+19
6.986204714e+19
9.386356194e+19
9.458876315e+19
1.429878853e+20
1.561191294e+20
8.472904702e+19
9.760519839e+19
1.229870128e+20
1.115850737e+20
1.62494923e+20
1.764356329e+20
1.27071903e+20
8.969511596e+19
1.421396072e+20
1.303181965e+20
6.571873494e+19
3.977284019e+19
1.337347005e+20
1.214223262e+20
1.633363952e+20
9.61346177e+19
1.385787961e+20
2.37736758e+20
2.258157844e+20
1.709383065e+20
1.009525592e+20
1.920961752e+20
1.593736369e+20
4.587658964e+19
9.244601728e+19
1.16436747e+20
5.866472665e+19
7.094157237e+19
8.340959977e+19
1.200916371e+20
1.331456453e+20
9.760519991e+19
9.838961099e+19
1.115850737e+20
9.999687487e+19
1.512305424e+20
1.01657524e+20
1.537630572e+20
1.033742598e+20
1.172863759e+20
1.314374677e+20
1.193185206e+20
1.604816419e+20
1.214223262e+20
5.444546507e+19
1.373351669e+20
2.078681905e+20
1.398451505e+20
2.399292709e+20
1.851831671e+20
1.12169511e+20
1.016979766e+20
6.830298825e+19
1.490989163e+20
1.155575199e+20
1.513677688e+20
7.039767093e+19
1.064123569e+20
7.149394211e+19
8.406414597e+19
8.472904636e+19
1.586084474e+20
1.229870128e+20
6.19917076e+19
1.499953123e+20
6.301272551e+19
1.779006656e+20
7.68815286e+19
1.292178248e+20
1.042545563e+20
1.314374688e+20
9.280329456e+19
1.337347016e+20
8.094821746e+19
1.76947763e+20
1.236016524e+20
1.801524349e+20
6.992257589e+19
8.468091991e+19
2.706523211e+20
1.009525599e+20
6.779865055e+19
7.968681962e+19
9.175317996e+19
8.089026452e+19
1.280804198e+20
1.290623977e+20
1.300595493e+20
1.191565711e+20
1.681282919e+20
1.089373462e+20
1.098058499e+20
1.106883124e+20
6.19917076e+19
1.249960946e+20
3.780763592e+19
6.353595201e+19
1.665766439e+20
1.162960423e+20
2.085091144e+20
1.577249625e+20
6.628806698e+19
8.024082096e+19
1.349136969e+20
1.361136639e+20
2.746703363e+19
6.928939805e+19
1.957832142e+20
1.270213799e+20
1.424485887e+20
1.121695102e+20
1.129977501e+20
1.138383129e+20
9.175317996e+19
8.089026452e+19
1.047930715e+20
5.866472621e+19
1.18235953e+20
5.957828555e+19
1.321008008e+20
1.089373453e+20
1.09805849e+20
6.149350638e+19
1.363817556e+20
1.374957029e+20
1.008203608e+20
1.524862848e+20
7.68815286e+19
9.045247808e+19
9.122273754e+19
1.182937219e+20
7.954568105e+19
1.069877613e+20
1.079309566e+20
2.450045949e+20
1.785357186e+20
6.928939743e+19
1.118761214e+20
2.117022979e+20
1.4244859e+20
1.12169511e+20
1.581968524e+20
9.107065033e+19
1.032223267e+20
6.933451245e+19
6.986204714e+19
1.173294524e+20
1.064123585e+20
1.429878853e+20
7.205498281e+19
8.472904767e+19
7.320389936e+19
8.609090894e+19
8.678839064e+19
8.749726551e+19
1.26025452e+20
5.082876202e+19
8.96951167e+19
1.292178248e+20
9.122273754e+19
1.445812157e+20
3.977283985e+19
6.686735023e+19
1.618964349e+20
2.177818603e+20
6.866758407e+19
1.247209165e+20
1.817986973e+20
5.64539461e+19
1.424485887e+20
7.851865717e+19
9.039820007e+19
5.691915646e+19
9.175317996e+19
1.155575207e+20
1.630114445e+20
9.386356265e+19
1.300595493e+20
1.07240914e+20
1.200916371e+20
1.210414948e+20
1.220064989e+20
9.838961099e+19
9.918673216e+19
7.499765615e+19
8.821781572e+19
1.143647136e+20
6.40679405e+19
1.162960423e+20
1.433500149e+20
1.05149975e+20
1.193185216e+20
1.203612314e+20
1.079309566e+20
1.225022964e+20
6.866758346e+19
1.108630359e+20
9.789160625e+19
1.129078932e+20
9.971401394e+19
8.973560819e+19
1.24297526e+20
9.1070651e+19
1.146914749e+20
9.244601728e+19
1.047930715e+20
1.290623967e+20
1.773539296e+20
9.532525688e+19
7.205498226e+19
1.694580927e+20
9.760519915e+19
8.609090961e+19
7.439004912e+19
7.499765675e+19
7.561527183e+19
8.895033282e+19
8.969511596e+19
1.033742598e+20
1.824454736e+20
5.257498751e+19
1.193185216e+20
9.361429112e+19
8.094821746e+19
2.177818622e+20
1.236016524e+20
8.314727692e+19
9.789160537e+19
1.129078922e+20
1.13958871e+20
1.233864621e+20
9.039820073e+19
1.024544816e+20
1.490989174e+20
9.24460166e+19
1.164367452e+20
8.21306167e+19
1.18235953e+20
8.340959913e+19
1.200916371e+20
8.472904702e+19
1.220064989e+20
4.919480511e+19
8.678839064e+19
8.749726551e+19
8.821781572e+19
7.624314242e+19
8.96951167e+19
9.045247734e+19
6.515909824e+19
9.200622814e+19
1.590913608e+20
6.68673508e+19
8.094821816e+19
1.905591294e+20
1.236016513e+20
9.700515727e+19
8.390709107e+19
1.270213787e+20
8.546915403e+19
6.730170614e+19
1.468970762e+20
5.691915646e+19
6.881488446e+19
9.24460166e+19
6.986204766e+19
4.693178097e+19
1.418831437e+20
7.149394266e+19
7.205498281e+19
1.089373462e+20
1.586084486e+20
1.229870137e+20
6.199170809e+19
8.749726621e+19
1.134229068e+20
7.624314304e+19
7.688152797e+19
1.292178237e+19
1.433500149e+20
1.182937219e+20
1.723489741e+20
6.686735023e+19
6.745684789e+19
8.166819831e+19
9.61346177e+19
1.385787949e+20
1.53829667e+20
1.129078922e+20
9.971401212e+19
8.973560819e+19
5.649887505e+19
1.138383129e+20
8.028403246e+19
1.155575207e+20
1.047930707e+20
8.21306167e+19
5.911797697e+19
1.668191995e+20
8.406414597e+19
7.262489744e+19
3.660194997e+19
1.475844165e+20
9.918673216e+19
1.37495704e+20
7.561527122e+19
8.89503321e+19
8.969511596e+19
9.045247734e+19
1.303181954e+20
7.88624806e+19
1.856065875e+20
2.006020524e+20
9.443958704e+19
1.769477615e+20
6.866758407e+19
9.700515727e+19
9.789160625e+19
4.234045996e+19
1.566934505e+20
1.570373166e+20
9.039820138e+19
1.252221451e+20
8.028403246e+19
5.777876037e+19
1.280804198e+20
1.877271239e+20
3.547078618e+19
4.766262844e+19
8.406414597e+19
3.631244844e+19
7.320389879e+19
8.609090894e+19
1.363817567e+20
1.374957029e+20
5.041018082e+19
1.01657524e+20
1.922038215e+20
2.584356495e+19
5.212727859e+19
9.200622892e+19
1.193185216e+20
9.361429112e+19
8.094821746e+19
1.088909301e+20
8.240110088e+19
9.700515727e+19
8.390709107e+19
1.129078922e+20
5.69794355e+19
1.570373143e+20
7.909842506e+19
1.366059755e+20
1.032223275e+20
8.089026452e+19
8.150572227e+19
8.21306167e+19
1.064123577e+20
9.532525688e+19
3.602749113e+19
1.210414957e+20
1.098058499e+20
7.379220766e+19
1.239834142e+20
9.999687487e+19
1.890381765e+20
1.524862848e+20
7.68815286e+19
7.75306955e+19
7.819091789e+19
1.051499741e+20
5.303045358e+19
8.024082096e+19
9.443958704e+19
1.497250302e+20
1.373351681e+20
6.928939743e+19
1.678141821e+20
9.879440567e+19
9.971401303e+19
4.486780409e+19
7.909842564e+19
1.252221442e+20
1.261606215e+20
1.386690259e+20
5.821837305e+19
1.525282882e+20
7.094157183e+19
7.149394211e+19
9.607331042e+19
8.472904702e+19
1.220064989e+20
9.838961099e+19
7.439004912e+19
6.249804679e+19
1.134229068e+20
1.143647146e+20
8.96951167e+19
6.460891238e+19
7.819091724e+19
3.943124063e+19
9.280329377e+19
1.337347005e+20
5.396547877e+19
5.444546554e+19
8.240110088e+19
1.662945538e+20
6.992257527e+19
1.270213787e+20
8.546915325e+19
1.233864621e+20
7.909842564e+19
3.415149387e+19
1.261606224e+20
6.933451245e+19
1.397240953e+20
4.693178097e+19
2.246483108e+20
1.549035424e+20
9.607330968e+19
1.331456453e+20
7.320389936e+19
1.106883115e+20
8.678839064e+19
9.999687567e+19
1.134229068e+20
1.27071903e+20
6.406793997e+19
6.460891238e+19
1.172863768e+20
9.200622814e+19
9.280329377e+19
6.68673508e+19
4.047410873e+19
2.450045949e+20
9.61346177e+19
6.928939743e+19
6.992257589e+19
9.879440656e+19
9.971401394e+19
1.458203633e+20
7.909842564e+19
1.366059765e+20
1.146914749e+20
1.155575207e+20
6.986204714e+19
4.693178097e+19
7.094157237e+19
1.549035424e+20
7.205498226e+19
6.05207474e+19
1.220064989e+20
1.229870137e+20
9.918673216e+19
1.374957029e+20
1.512305424e+20
1.143647146e+20
7.68815286e+19
1.421396072e+20
9.122273678e+19
6.571873439e+19
1.060609081e+20
1.337347016e+20
9.443958704e+19
1.633363952e+20
1.510686849e+20
6.928939805e+19
6.992257589e+19
9.879440567e+19
8.546915325e+19
)
;

boundaryField
{
    flow
    {
        type            zeroGradient;
    }
    obstacle
    {
        type            calculated;
        value           nonuniform List<scalar> 0();
    }
    frontAndBack
    {
        type            empty;
    }
    procBoundary3to1
    {
        type            processor;
        value           nonuniform List<scalar> 
36
(
2.564074621e+20
2.334697838e+20
1.662945538e+20
1.53829667e+20
2.822697305e+20
2.822697305e+20
3.38827308e+20
2.891624289e+20
1.590913594e+20
3.209632811e+20
2.428446545e+20
2.722273301e+20
2.722273301e+20
1.999937513e+20
1.512305437e+20
1.524862848e+20
1.15322292e+20
1.550613897e+20
1.550613897e+20
7.149394266e+19
1.080824734e+20
1.69458094e+20
2.196116981e+20
1.229870128e+20
9.918673216e+19
9.918673216e+19
1.016979751e+20
1.252221442e+20
4.587658998e+19
1.155575216e+20
8.150572227e+19
7.039767146e+19
9.458876315e+19
9.458876315e+19
1.009525599e+20
1.009525599e+20
)
;
    }
    procBoundary3to2
    {
        type            processor;
        value           nonuniform List<scalar> 
19
(
1.113533235e+20
3.340599706e+19
8.908265883e+19
7.794732592e+19
1.113533235e+20
6.681199412e+19
5.567666217e+19
7.794732648e+19
6.681199412e+19
1.447593206e+20
8.908265883e+19
6.681199412e+19
1.224886559e+20
1.002179905e+20
7.794732703e+19
1.002179912e+20
8.908265883e+19
6.681199412e+19
7.794732648e+19
)
;
    }
}


// ************************************************************************* //
