/*--------------------------------*- C++ -*----------------------------------*\
| =========                 |                                                 |
| \\      /  F ield         | OpenFOAM: The Open Source CFD Toolbox           |
|  \\    /   O peration     | Version:  2406                                  |
|   \\  /    A nd           | Website:  www.openfoam.com                      |
|    \\/     M anipulation  |                                                 |
\*---------------------------------------------------------------------------*/
FoamFile
{
    version     2.0;
    format      ascii;
    arch        "LSB;label=32;scalar=64";
    class       volScalarField;
    location    "0.004";
    object      translationalT;
}
// * * * * * * * * * * * * * * * * * * * * * * * * * * * * * * * * * * * * * //

dimensions      [1 2 -2 0 0 0 0];

internalField   nonuniform List<scalar> 
654
(
752.1996484
765.3015346
770.8486292
758.6804485
747.2413242
743.080357
757.2788032
762.8822805
760.3671462
750.6121147
760.2431419
763.7953201
755.2806784
760.1938313
756.2581328
746.0253114
741.2011107
653.3332785
682.5597163
691.1684804
708.5221363
722.360701
737.8230586
748.3637734
742.4735646
752.4488217
753.3413148
749.1277914
757.0064773
750.5890438
746.766562
750.0160715
741.9049113
460.2464464
473.0713097
492.3942866
542.219363
557.6831232
577.924027
610.7755256
644.5389855
660.7801873
691.7158421
693.4395694
717.8388208
734.057287
730.4990987
731.7534719
732.9556604
738.5297199
750.4704082
746.7975278
743.6134388
738.0524209
737.7533146
336.4527802
341.3878224
346.7576124
369.1153357
386.1447656
386.5934625
410.1741404
418.1113604
446.7411317
471.4371031
488.7353359
512.8730419
535.4942139
557.7103901
587.1241698
619.1413715
632.3895205
657.4832
669.2217766
696.7288332
712.6944493
715.9508687
718.1169363
736.2558145
737.9347206
741.8641494
742.7413163
735.0626802
729.5345286
328.8385096
331.6677278
337.301873
341.0314259
353.6973682
364.0344672
377.4754098
387.8423157
395.6778336
411.3854932
438.9513117
452.2787405
476.9362495
486.8586624
520.6950247
540.3172463
566.9546274
595.331811
614.2855986
632.0285989
661.33765
680.8302701
691.2384443
701.4742052
723.8150688
729.2983949
733.2045392
730.7835972
723.7984596
724.6650347
320.3636693
324.1130674
327.9371828
334.498551
342.3320906
349.8183757
351.0778996
365.3772329
379.1442448
387.6132471
392.9880677
423.2005715
441.8952209
469.7042589
484.8257183
503.4967567
527.7841732
556.0538764
572.4526665
592.012071
612.445233
643.9324212
661.4347833
675.4688604
689.0480922
699.8582263
721.2220895
723.1174202
718.1807382
715.0084392
318.1113015
319.2998698
318.7351771
320.4792066
327.5670425
336.5896175
341.2113967
343.6454298
365.5106103
372.6413509
379.0827228
387.0586675
400.2696619
414.5912023
448.9005022
464.6713984
492.7909189
516.9283056
532.3082428
551.7152485
583.1615066
611.3388285
623.8516092
654.9098575
665.7362966
674.0958156
690.2574722
704.3288841
716.3273309
710.4348029
314.6175324
313.3104668
322.1796112
318.1951602
321.315661
327.6768265
334.0115521
332.9223631
349.7176832
361.3585308
365.5858974
363.9372433
376.8045065
393.3336743
412.0859533
436.8818186
456.8363976
481.1609549
499.4555143
535.7261901
538.3604777
577.2266774
602.9523086
619.9949061
641.2967134
664.1576384
679.7946384
697.372499
701.9359958
705.0154199
313.315225
312.3611501
312.9763618
316.6515123
321.7765561
325.1519872
331.5851495
332.2217283
340.1007389
338.6216493
353.3532728
357.3219648
358.8563147
375.8202747
389.9540821
393.6147033
419.9227943
448.7135519
468.5068235
480.7888513
504.0023779
521.1358848
563.2943118
579.2792829
598.3578515
614.707542
636.410949
654.628619
678.7774648
683.7308304
309.6091158
311.8419618
310.6776789
312.6157368
314.6303466
316.7906983
319.8741286
328.6501365
331.3247514
335.2491957
341.1857871
350.2260408
352.5019994
363.5546354
379.1976902
397.9578971
405.8189112
422.1111027
434.0378843
456.7179751
465.9654478
478.7970057
508.6123573
539.1315028
562.3023836
574.1303048
605.9913743
622.722147
650.7462852
658.5845114
305.249875
303.5277657
302.9323231
313.7038406
312.4436451
314.8913327
316.8394486
325.4696461
324.3210008
323.9262761
333.2909502
342.5823499
344.8123658
347.154772
353.9950505
368.8340899
369.7684453
394.3445843
410.7297912
423.4047568
436.3895939
456.4446446
472.4270741
495.3960267
524.4051506
549.8498811
568.6608691
592.9541396
611.2326006
633.6852868
304.29908
306.5516511
309.4819013
313.2151205
310.0429163
310.1880292
311.1292369
314.0202908
314.80043
321.7394379
325.1440785
330.8343423
333.9928094
336.9198287
348.2450591
360.5970765
367.0384929
374.3676687
386.6122359
398.1969977
418.7521258
427.9819129
452.5324364
457.8114579
494.9164829
511.639332
535.4239711
560.9224556
584.1883805
605.4991148
305.1828679
303.1633082
303.9703755
309.9752598
307.551421
306.27641
312.744376
312.5058772
315.0897635
319.2620312
323.3620069
329.3485367
323.5194435
329.6241737
334.9707652
349.184248
350.9582485
358.0560973
370.0832942
384.2181086
387.4752744
403.5861398
420.647964
436.3252505
451.7538999
470.4885158
490.7667414
519.5147496
539.2784865
573.89312
300.7230922
300.5409599
298.8623436
298.7847169
303.1610536
302.2204351
309.1453759
308.0166382
311.7550482
315.6013639
314.7283323
313.8832487
327.9687634
327.1846465
328.4941926
333.8471605
338.8121217
349.4923957
354.6110834
362.1505436
368.4493331
388.0601833
393.0744027
414.1090255
424.3251187
444.4023284
462.6137986
491.1348458
510.9356746
532.1572042
298.1542306
301.5707156
301.7659461
301.6118033
305.9379265
301.7721594
302.693756
304.0174078
302.957939
308.7537825
311.9599342
312.6319163
318.2327496
317.1408771
323.3239787
326.9931627
332.9945618
338.7332102
340.5088388
345.9440384
360.9848443
365.3816647
381.1677927
392.3523111
391.398452
410.8094428
423.9400854
443.3079694
477.3157019
502.9133356
302.6445845
300.0585354
301.0821056
299.4239175
301.2733011
302.6035017
301.5377836
302.7758701
306.2391457
304.3663939
311.0492643
311.0249216
313.7800291
312.6704246
316.6691849
319.6948477
325.3400215
326.5471066
334.2334841
339.2483921
347.4671865
351.7918349
358.7419825
370.3709411
380.1550928
389.8222977
403.137286
427.5287439
444.2792143
462.1567928
298.9382848
300.8730997
301.7005361
302.2731538
300.4392365
302.630142
303.5505824
301.9922165
300.3186974
304.2621372
303.0456989
304.3557606
307.9770336
312.4324399
315.0719337
313.3789707
321.5693615
328.0530097
334.5103558
328.344115
330.6985444
347.1822686
344.6232671
351.9277098
375.9240533
375.8947106
388.2273533
398.1421269
412.8758084
436.5060313
296.2174513
296.1460956
297.3890681
301.5898422
304.6691584
305.0518393
305.8639454
309.1652788
307.8624076
305.4274923
307.5054556
307.8697102
305.6645395
306.2496681
309.544258
310.2973986
310.2356939
318.9455736
320.3267231
325.3609987
324.5330528
328.5104072
338.5525561
348.3502554
352.4065913
376.6220359
372.9663826
383.6066988
404.2386531
406.867694
303.7501433
303.649015
302.7600214
305.2973052
302.8988561
302.352024
301.1603134
299.0567212
301.8172613
303.3617566
307.4261282
304.8205632
302.5315575
302.9885841
306.4888227
309.6607114
314.5668453
312.0533821
319.5390105
321.9639511
324.3203631
325.4695024
329.2832638
335.1753833
342.3085102
359.9186975
363.8833496
369.1159529
382.2723944
395.5204224
301.6282531
300.9059463
299.8309589
299.3246413
299.1882019
297.9173777
299.4745104
301.8984884
300.5007678
300.3664081
299.4050668
302.602327
301.0159816
304.6535522
308.5623722
307.9758117
310.0659687
311.0147663
308.6673283
309.8019408
319.5103599
320.4612541
324.7341508
321.7518742
332.646892
342.356983
343.0979081
357.301993
364.5447724
375.026133
303.0951052
304.6176443
303.002654
303.698988
306.8090917
301.1922013
301.292589
303.5509743
302.2132925
303.7099102
302.5724099
307.5586491
309.2114167
307.551017
306.743377
307.3909607
309.5586344
307.9983244
306.4904475
313.216717
314.9587094
319.5161747
319.1862274
321.6336899
322.4012418
336.648044
340.6153412
343.4519415
351.0295329
370.5365022
301.2529253
299.8878765
300.8756619
299.8534655
302.1425411
305.2343077
302.5544517
299.5582606
301.0392654
301.5581698
301.9818383
302.2566944
302.6821649
303.6220028
308.7660455
302.6038374
304.9989268
308.3151125
309.0652461
307.6824161
314.4162856
312.8770272
314.2780071
316.9194984
323.6698016
326.3240932
328.0451738
338.1786212
343.4290718
353.9271039
298.4266085
302.3001438
304.5686657
299.2455227
297.6518493
298.3785204
300.927744
302.7931759
301.7017908
300.02169
301.5840131
303.2977555
303.056033
299.4998169
297.9217366
303.4806332
302.230385
306.4110747
300.7901876
303.4149567
303.684248
312.8586896
316.996315
311.9938722
316.1912724
313.0155721
319.4769334
330.8349026
333.6665309
338.2631125
)
;

boundaryField
{
    flow
    {
        type            calculated;
        value           nonuniform List<scalar> 
55
(
752.1996484
743.080357
741.2011107
741.9049113
737.7533146
729.5345286
724.6650347
715.0084392
710.4348029
705.0154199
683.7308304
658.5845114
633.6852868
605.4991148
573.89312
532.1572042
502.9133356
462.1567928
436.5060313
406.867694
395.5204224
375.026133
370.5365022
353.9271039
338.2631125
298.4266085
302.3001438
304.5686657
299.2455227
297.6518493
298.3785204
300.927744
302.7931759
301.7017908
300.02169
301.5840131
303.2977555
303.056033
299.4998169
297.9217366
303.4806332
302.230385
306.4110747
300.7901876
303.4149567
303.684248
312.8586896
316.996315
311.9938722
316.1912724
313.0155721
319.4769334
330.8349026
333.6665309
338.2631125
)
;
    }
    obstacle
    {
        type            calculated;
        value           nonuniform List<scalar> 0();
    }
    frontAndBack
    {
        type            empty;
    }
    procBoundary3to1
    {
        type            processor;
        value           nonuniform List<scalar> 
36
(
758.3809192
767.9445118
763.8283567
767.2622565
762.2011251
762.2011251
766.9776423
757.1626601
774.992458
764.8110356
779.5152871
766.4819374
766.4819374
698.0888529
722.5310215
736.2724121
743.9599399
742.0152608
742.0152608
501.6346182
517.0612851
567.7645306
588.1268465
597.6903345
618.6954787
618.6954787
349.9983891
350.3371747
359.5956632
388.2633905
406.5924681
409.5851024
432.0681041
432.0681041
340.6709571
340.6709571
)
;
    }
    procBoundary3to2
    {
        type            processor;
        value           nonuniform List<scalar> 
19
(
321.0273364
316.1440423
311.9175187
308.0796149
305.2238084
306.4641145
301.260981
302.7018202
305.1223888
301.8570057
300.0742201
299.8150215
300.7913922
296.416362
300.1555224
300.5529534
300.6234574
302.6985877
297.6266979
)
;
    }
}


// ************************************************************************* //
