/*--------------------------------*- C++ -*----------------------------------*\
| =========                 |                                                 |
| \\      /  F ield         | OpenFOAM: The Open Source CFD Toolbox           |
|  \\    /   O peration     | Version:  2406                                  |
|   \\  /    A nd           | Website:  www.openfoam.com                      |
|    \\/     M anipulation  |                                                 |
\*---------------------------------------------------------------------------*/
FoamFile
{
    version     2.0;
    format      ascii;
    arch        "LSB;label=32;scalar=64";
    class       volVectorField;
    location    "0.004";
    object      UMean;
}
// * * * * * * * * * * * * * * * * * * * * * * * * * * * * * * * * * * * * * //

dimensions      [0 1 -1 0 0 0 0];

internalField   nonuniform List<vector> 
654
(
(1315.84821 411.0428749 -2.848095014)
(1361.263602 429.9405813 1.412193209)
(1348.403992 431.6515136 5.075741)
(1347.468647 425.4757182 5.497169353)
(1347.889548 424.963553 7.451269999)
(1340.218894 413.8205433 3.825002018)
(1437.712451 374.1473555 2.058605503)
(1433.399859 380.24473 -4.648217274)
(1418.66159 397.4097681 -8.869361797)
(1411.141349 406.0464383 -6.64341562)
(1392.457497 416.1156403 -0.4973154148)
(1376.204943 423.3338495 -6.161296397)
(1373.150743 421.5167337 -8.649894021)
(1373.479296 425.439853 -3.978241916)
(1367.31424 431.7405985 -2.708872643)
(1363.819202 422.0744812 1.722855006)
(1359.106494 420.4867111 2.823775295)
(1559.430367 231.2898028 0.1009445562)
(1540.838543 252.395481 -1.888390282)
(1525.006687 279.655545 0.9689388586)
(1508.781428 299.9113233 -3.679592922)
(1487.912609 318.5847439 -5.913087686)
(1464.479899 349.4631848 -2.676105034)
(1448.760733 360.9013712 2.356317313)
(1444.507466 371.8404974 -0.2273982784)
(1430.696595 392.087503 -3.350872433)
(1421.026502 405.4607942 -3.87084755)
(1409.764007 417.4387259 0.6901578387)
(1394.525898 421.830852 -3.131166741)
(1389.983071 422.1774125 -6.949194488)
(1386.530043 423.8361746 -3.769342081)
(1379.407952 428.1071101 -7.043239958)
(1381.712454 424.5809174 -1.70068443)
(1669.162871 85.10721828 -0.8841196749)
(1662.373458 92.90656619 1.528950815)
(1653.863301 105.8173849 0.09778856738)
(1633.381467 130.4688988 4.647545053)
(1629.233654 145.5070483 2.784299197)
(1613.932768 161.2999351 -5.79266433)
(1596.391431 185.4191645 -1.339739369)
(1572.651044 217.7150553 -6.017763574)
(1564.015296 236.3082535 -2.675026779)
(1536.946632 265.5484282 -2.049339431)
(1527.636849 282.6261459 -5.735986226)
(1503.7956 310.7189716 -5.25450324)
(1483.1539 340.7433613 -9.014405048)
(1472.643401 350.9375272 -1.180054702)
(1458.445602 363.7978562 -6.420415666)
(1447.773837 382.0962576 -2.260073307)
(1438.09307 402.3368965 -5.066292374)
(1421.946917 414.0324329 -3.235099695)
(1413.293212 417.9306133 1.003045687)
(1404.913083 423.2256841 0.4560450175)
(1397.287861 426.7664218 2.590784657)
(1394.111597 423.8568581 3.307130412)
(1723.150457 14.93124466 6.469247636)
(1717.760718 19.22472431 3.514605218)
(1718.262461 23.4068813 2.818694377)
(1711.653407 27.62905936 2.410013399)
(1706.422416 37.46079382 0.5683947378)
(1705.443966 41.19421982 -1.440443323)
(1694.696123 50.90341834 3.099025178)
(1687.391059 57.11665436 -0.0645481462)
(1679.112136 73.21972609 -3.324119205)
(1668.746548 88.14292067 -5.482633806)
(1658.884977 101.6710841 -4.662174234)
(1643.751129 121.0059911 -2.687178395)
(1634.862426 137.7075564 0.6183484722)
(1622.277182 153.6793561 -2.33021077)
(1604.310475 174.7207639 -1.567962497)
(1583.539397 198.0333861 -5.033499099)
(1570.525959 218.1751507 -0.8760237299)
(1553.714712 251.6933239 -1.432312584)
(1539.282408 269.1644118 2.28404472)
(1512.335389 298.2190265 5.201816028)
(1496.802991 330.2639706 -4.12882177)
(1485.814785 342.6174751 1.438686942)
(1476.609424 358.6840551 -0.9378954815)
(1455.710822 372.8616234 -2.18395534)
(1450.26365 389.0808415 2.100539926)
(1437.133272 408.9052828 3.777730536)
(1428.544341 416.7692722 -0.05413911906)
(1425.288428 420.8733298 1.70868092)
(1415.835381 426.904757 -1.33053474)
(1725.171454 13.55940365 -7.646950825)
(1726.349636 17.12175715 -6.714461876)
(1721.369244 18.00070877 -2.110099719)
(1721.994549 18.71570887 -2.223810416)
(1716.034129 23.23909607 -1.106552451)
(1711.240023 26.86588694 2.265584892)
(1706.345593 34.345854 2.589664232)
(1704.356222 40.88909525 -1.082023252)
(1700.988707 46.61562224 0.4601770796)
(1691.945344 50.12781763 -0.429258273)
(1679.216957 64.91052982 -2.895254467)
(1671.962721 76.65269733 -2.120340012)
(1659.503865 93.14380295 -2.265765228)
(1655.172209 105.4624715 1.985688331)
(1637.206803 124.8812881 8.773128838)
(1631.473144 143.8743687 8.180217537)
(1615.514122 166.8098355 5.494484832)
(1598.773618 190.5791954 5.215999122)
(1584.993389 212.6612226 -1.310566285)
(1569.333353 236.6638101 -5.618458202)
(1544.545844 262.2706439 -1.784299232)
(1528.584902 287.1133517 -3.186700416)
(1511.656569 313.597179 -5.241308528)
(1496.315113 326.9817612 2.530600737)
(1481.256331 350.419354 1.457148304)
(1466.134891 371.7906082 -5.020705726)
(1456.169145 382.4122479 -0.9968159413)
(1448.435953 398.4517482 -3.877619683)
(1442.648029 412.5423213 -6.345396107)
(1436.481556 421.8108354 -0.3013403311)
(1728.716372 10.30622278 -0.8150645627)
(1731.029272 8.39914348 -0.5916341144)
(1730.448999 14.0985938 -0.05845710676)
(1726.028494 15.6471135 -1.19779056)
(1725.371111 16.93411687 -2.921711852)
(1721.984917 20.47964669 -0.9229929272)
(1718.971691 21.61234124 -0.09016336296)
(1712.954984 21.96678679 -0.228662409)
(1712.902336 30.81526987 -1.06863466)
(1703.591467 38.26847914 -0.1411413794)
(1697.464588 47.26574035 -0.7486225993)
(1690.990387 62.53366719 -1.882356351)
(1684.112191 72.29992251 -1.61588533)
(1669.905064 88.1371459 -3.46866899)
(1661.642248 106.3282304 -2.065435475)
(1645.328661 119.3197436 -2.364334115)
(1634.860315 138.3611626 -1.068087414)
(1624.320303 165.8276949 -3.357808701)
(1608.594039 178.9468134 0.1393228064)
(1600.037964 198.6779166 2.771375467)
(1586.669411 219.5953399 -1.113323258)
(1564.121345 250.3570461 0.06769329143)
(1544.373712 277.5236976 -0.7937853931)
(1526.207877 298.2724469 -1.676847618)
(1508.648312 313.4067406 1.338348969)
(1493.948841 338.4685876 0.4765368069)
(1479.199104 363.2784043 -0.1285654524)
(1464.044821 377.1492476 -0.05273455471)
(1458.267251 389.4122103 -8.364435039)
(1452.056976 403.1776728 -6.834412583)
(1734.322337 9.782984652 1.393422818)
(1729.79364 7.824406611 0.7801819654)
(1728.908461 6.701417349 -1.245706174)
(1729.017786 6.462499823 -3.441667484)
(1725.786835 11.77478386 -1.619609978)
(1725.731658 14.92934296 -3.952863114)
(1723.12824 18.66423721 -3.757121939)
(1720.471817 24.50683153 -2.828252556)
(1712.376412 27.71063257 -2.018201727)
(1710.438315 31.28913554 -3.545755777)
(1705.890941 30.07703519 -4.194740402)
(1699.156659 38.68087514 -4.099430228)
(1692.41409 56.04263662 -2.659039747)
(1687.355137 70.4456123 -1.512590535)
(1673.24787 84.90480006 -5.161963116)
(1668.038411 100.4394446 -2.185534242)
(1657.493335 116.8862667 -2.681674615)
(1644.439749 129.1170578 -0.2050436971)
(1639.974625 152.1822389 -4.486128952)
(1625.161939 170.7278753 -3.733577608)
(1606.476091 190.5364506 -2.473393632)
(1591.355236 214.4655246 0.376640336)
(1583.206113 229.2466313 2.808262067)
(1557.475927 260.5534821 -4.224467191)
(1536.546279 287.5985451 -5.106049191)
(1527.483352 308.2828597 -1.198427065)
(1505.141736 335.3522128 -2.505028922)
(1492.45131 360.4500935 4.954833101)
(1477.664982 372.362308 6.24228778)
(1474.750851 385.4289053 -1.907860849)
(1733.869894 3.811066611 -3.201454959)
(1731.882764 2.369054443 -1.893014257)
(1733.077011 7.14043178 -3.076579713)
(1727.396279 12.27053823 -1.531426061)
(1727.080747 13.73290392 2.328345598)
(1724.44274 15.83794595 0.5519715258)
(1722.150827 15.14606501 -3.139918257)
(1724.446648 14.69924101 -2.261224105)
(1716.402739 23.34128129 -2.61915702)
(1715.498899 25.22435339 -2.65145639)
(1711.656646 31.63463468 -1.593501783)
(1715.522476 37.02601183 -3.809441405)
(1707.475033 42.93946827 -3.568265399)
(1698.04397 53.34783194 -1.291067193)
(1691.634323 62.14025338 -0.9989597323)
(1684.034003 72.82935134 -5.351844715)
(1668.291233 91.00176319 -3.495393543)
(1660.644318 114.5552751 -5.236649996)
(1649.893464 121.2538113 -5.858584382)
(1635.386557 142.5125469 -4.445988261)
(1633.946031 155.6294192 -5.411436241)
(1607.107936 184.5066146 -2.935275481)
(1588.742646 210.2135128 -4.253065067)
(1575.083618 226.6560766 -1.605076897)
(1559.410246 248.028458 3.138102577)
(1541.73919 279.1394766 -2.071339256)
(1526.148762 300.4260588 -3.95194769)
(1505.325273 319.4200269 -0.137793657)
(1494.419402 339.1328852 7.478999857)
(1479.681099 363.8855501 4.425617413)
(1725.634172 -4.987161083 -1.059072683)
(1728.207979 -2.475104101 -1.46120005)
(1727.773615 3.183177401 -0.1899341402)
(1726.677557 3.475508515 0.5029281651)
(1723.274473 5.244691468 0.8302998144)
(1723.322901 8.010793816 1.611983244)
(1720.921 12.88259189 2.724538331)
(1722.859938 16.95590307 1.395834775)
(1719.555793 16.58719933 3.521504528)
(1721.547696 21.45183003 4.002697584)
(1715.367259 30.45490428 3.016564146)
(1715.183727 32.49753022 2.896519304)
(1716.259686 35.00539556 -0.6157284338)
(1707.222598 39.90219014 -0.5868455785)
(1701.351696 51.26823587 -2.313055592)
(1697.099762 62.92164853 -3.916014559)
(1689.595229 76.08528928 0.3456944839)
(1674.506191 80.80197486 3.07637522)
(1665.547725 97.93323991 2.036597861)
(1656.152324 113.9560503 2.465358029)
(1645.20923 134.2204398 3.397469699)
(1636.398011 148.1983901 0.6945937889)
(1620.037314 178.1859133 -1.060762529)
(1607.891088 193.7049138 -4.463343801)
(1595.244017 216.4807222 -8.511214488)
(1577.824552 234.0421278 -1.021518288)
(1561.973303 262.5121997 0.3672658991)
(1543.08039 294.5607819 -6.883049384)
(1527.569697 321.450471 -3.616906314)
(1513.261983 332.4840886 1.115721271)
(1734.092965 1.964363569 0.7836607447)
(1732.614727 3.608571161 -1.063600804)
(1731.520171 0.02629163304 -0.3475130061)
(1734.020803 -0.4847917579 -0.249483291)
(1732.136796 1.460698752 -2.741883093)
(1734.228903 2.5982544 -0.8586822685)
(1731.878974 6.364008149 1.725412632)
(1726.593616 9.199911124 2.362239008)
(1724.977809 14.45469132 -0.3758103533)
(1721.026105 19.15311983 -1.724261172)
(1718.763305 22.02819728 -0.1213785823)
(1712.444084 30.37403373 3.491191828)
(1709.559589 33.97646153 8.629200134)
(1714.993735 37.83385867 4.871316389)
(1706.391952 41.82931401 1.842543555)
(1702.429125 42.36760626 0.2634550234)
(1698.73468 50.20629644 3.472915052)
(1691.375022 67.50335207 1.988729649)
(1682.420041 77.79766903 2.528073282)
(1669.032228 96.10996348 -0.9936562839)
(1669.440924 101.5311743 -4.02706553)
(1666.307 114.9310099 -3.81725122)
(1643.663538 133.2793387 -1.5429668)
(1628.272896 154.7191917 -4.743268897)
(1609.309419 179.1759919 -8.20444696)
(1600.97739 207.5123304 -9.038502702)
(1589.643524 238.0491405 -7.606500606)
(1567.161595 258.8732686 0.1420408741)
(1547.2214 285.1265846 -1.34662971)
(1534.31832 302.7184171 -4.266270816)
(1736.582301 -2.193985769 -5.857419477)
(1736.006679 -0.1905799061 -2.430860201)
(1735.263737 3.562975293 -2.012889226)
(1732.314254 2.678106971 1.058924865)
(1730.031064 1.756816386 1.092792649)
(1731.619946 4.551456659 1.0699027)
(1730.495007 3.427657849 0.5002239208)
(1724.480875 6.683297037 3.136703494)
(1725.864306 11.05475339 2.657607769)
(1730.350336 19.99269061 5.611330435)
(1725.99994 21.76439251 4.776268051)
(1720.464089 23.2426082 1.168817774)
(1716.223403 26.27344341 -1.416697334)
(1715.00839 26.78349167 -2.029118989)
(1714.243497 30.88968834 -0.8222962357)
(1707.061158 41.72173074 0.6112570909)
(1704.530291 44.74704958 -5.261794198)
(1694.714518 51.19465931 3.060402603)
(1694.2092 57.63348221 -0.2156125793)
(1687.004929 71.22432032 2.770799727)
(1676.594491 80.47672065 3.302075009)
(1667.781202 94.90457623 2.345609915)
(1665.46745 105.6126899 -0.5582245121)
(1656.643729 134.3194442 1.673148077)
(1644.119367 155.4423602 0.9451258112)
(1625.528051 173.6333187 -2.369670875)
(1605.802391 197.6087518 -5.172278041)
(1596.812375 223.5898955 -4.737881563)
(1583.035288 242.0066329 -8.1271722)
(1561.342028 268.5854964 -6.645867547)
(1734.064611 -0.7659711016 2.653862704)
(1735.235799 -1.168795675 -0.1211427201)
(1737.529348 -2.397335493 -2.004650625)
(1733.652643 0.3538082298 -3.424337824)
(1732.438723 3.039374893 -3.631877463)
(1732.455884 2.202858788 -2.617426426)
(1733.585557 5.839098159 -1.824008528)
(1730.812384 9.480346164 -4.973868529)
(1731.22188 13.22654012 -3.548544201)
(1725.502424 11.39801829 -1.221734253)
(1725.077448 13.25207116 -1.422774882)
(1726.78157 11.34162069 -0.585647576)
(1726.006487 15.76334861 1.098569036)
(1721.613909 21.73213355 5.819723456)
(1717.349666 30.12810464 7.531664534)
(1717.391785 28.55475636 4.5196644)
(1711.881256 30.65265933 4.461417647)
(1709.178203 30.78637434 0.4380139338)
(1701.516966 44.55325635 2.532401711)
(1695.97934 52.76529959 4.351561032)
(1688.542355 65.34114621 1.564313609)
(1683.284487 78.10648729 -0.3043702242)
(1667.468404 98.55873356 -0.1772268464)
(1661.8893 108.0038733 -0.9645963616)
(1646.677617 123.7358877 2.122629771)
(1641.090939 140.1531269 -0.896986232)
(1633.088008 165.4624555 -0.3351594748)
(1616.597839 184.6460406 -4.054872305)
(1600.778011 210.2066666 0.3868479584)
(1585.303405 240.4096025 2.713580529)
(1732.355338 -2.002339105 -2.144195225)
(1733.099142 -1.316966907 -2.848532628)
(1731.761828 2.364061632 -1.927667584)
(1726.662798 4.175386264 -2.865707888)
(1731.656608 4.737280769 0.3074041968)
(1729.756999 6.45126721 0.4349374463)
(1728.227844 7.753631032 0.6358901889)
(1727.777787 5.757902166 2.93121403)
(1730.418393 4.832934669 1.247195034)
(1730.064938 3.981158863 -0.9099611205)
(1728.659177 8.406093521 0.6358513075)
(1727.165378 14.96979058 2.606214417)
(1733.536745 9.177898973 0.9285831467)
(1731.974822 8.778710731 -2.352935705)
(1724.490941 9.743816056 0.8040461155)
(1717.436897 20.35861242 1.133464165)
(1712.545317 22.96571101 0.8239009033)
(1711.966976 30.94809327 4.167341179)
(1706.638016 35.76359838 3.611993919)
(1701.186532 40.50896438 2.06654127)
(1698.177182 50.95813519 6.308580908)
(1692.365391 65.26316435 2.843737511)
(1684.577033 76.21254141 6.32353593)
(1678.698193 83.86432845 9.005649148)
(1668.267356 102.7378426 7.083250615)
(1659.225359 115.34793 10.5433094)
(1646.883162 129.8183006 8.662123594)
(1629.824988 153.6964352 8.983301243)
(1620.230187 173.9921288 6.976851382)
(1605.112229 203.0319471 2.784964661)
(1729.673493 4.891495053 -1.989079028)
(1733.662786 4.024377421 -1.26519295)
(1734.266731 1.909158562 0.03425002638)
(1735.37167 1.21596759 2.054684431)
(1734.910593 4.412117922 1.446491084)
(1735.58082 4.525828572 0.09753694168)
(1732.371889 2.193012594 0.9871622561)
(1731.37988 5.355087118 2.020208252)
(1731.891715 4.070558341 -2.50747592)
(1728.680512 7.701177929 -3.544067978)
(1729.434022 3.757660143 -2.125061434)
(1729.066672 2.620567971 -1.051230148)
(1722.930446 10.14425014 -0.7982160497)
(1722.559794 8.567097334 0.7716848705)
(1720.856004 10.82607993 -0.37028894)
(1718.196111 12.44480303 -0.1950620878)
(1723.241527 16.54560759 1.378623358)
(1715.143589 26.63940165 -0.4579497718)
(1714.44196 32.16705586 1.914979898)
(1712.835073 44.13940812 5.79835206)
(1707.806654 43.29070706 4.962338939)
(1701.593761 49.80102288 5.958684552)
(1696.259476 53.0903957 3.21713544)
(1683.479423 64.43380397 1.113401559)
(1677.419626 68.91793255 1.140333175)
(1665.485541 87.4699845 -2.402313539)
(1661.625363 106.3054485 2.390732881)
(1648.813288 128.8301792 1.73802178)
(1637.919208 151.2641098 1.600541732)
(1627.060373 172.9977244 3.360368041)
(1735.500379 2.189165212 7.199731048)
(1732.447527 2.674587996 4.920630455)
(1735.8515 5.787507571 5.156525332)
(1735.888612 0.1714411997 0.1274079003)
(1735.061109 -2.400733455 -1.568180771)
(1736.115053 -4.574486211 -1.358481999)
(1735.102483 -2.291842895 -2.250263115)
(1733.952159 -0.8715281843 -1.085808471)
(1734.502879 0.2972415983 0.695699866)
(1732.646769 5.126201875 -0.4282027424)
(1731.948145 3.231380413 -2.545328196)
(1727.23318 3.109867456 -5.792165272)
(1727.141851 4.952954582 -4.869207903)
(1724.60111 10.36206168 -6.124417471)
(1725.314666 14.87880058 -8.224869542)
(1721.564799 19.84297708 -7.977960216)
(1721.844904 21.50504907 -3.016543818)
(1721.886804 26.12214854 -2.584768472)
(1717.337274 23.01643059 -4.664269294)
(1720.377332 25.46885152 -6.961221469)
(1714.952654 35.44462568 -8.45766324)
(1711.391175 39.5609266 -4.720616958)
(1706.740266 47.42645408 0.8975124947)
(1698.573391 54.60688715 0.2292929634)
(1695.552347 60.61314625 5.131328817)
(1694.682933 71.16660377 3.111802761)
(1681.888939 82.24870073 -1.395424664)
(1677.038642 99.40425899 1.678384371)
(1656.744937 122.5427028 2.592826121)
(1641.890725 140.9857309 1.581173459)
(1735.164909 6.581789417 -5.734507921)
(1732.456046 4.077824169 -1.7663263)
(1733.344795 2.604121039 -2.913108998)
(1733.451034 3.412958452 -4.086493245)
(1733.186754 2.5870401 -1.404197258)
(1732.96498 2.733660036 -0.4453117845)
(1734.874623 0.862817028 1.690892478)
(1735.278361 -2.981477078 -1.83161277)
(1731.831134 -3.320376959 -1.867147732)
(1732.855473 -4.312651155 -0.7658575785)
(1729.803014 3.22810775 -0.4417805509)
(1730.908737 9.288642526 1.304056084)
(1729.900606 13.13237023 0.09269188085)
(1732.984588 9.635569655 -3.092790661)
(1733.209404 10.1538423 -3.395650279)
(1730.188716 8.394106809 -4.484756329)
(1727.856624 12.13152076 -6.86949346)
(1721.560078 13.96410034 -5.05964119)
(1721.914737 22.26383789 -5.929528852)
(1718.386032 22.28997459 -4.394734723)
(1714.799417 25.68749256 -4.194423763)
(1713.691947 28.85044326 -7.042847015)
(1713.523379 34.63795262 -9.238382194)
(1712.014412 44.96589013 -8.109440807)
(1708.954691 52.58710765 -6.323701525)
(1706.837736 60.74258772 -4.21414101)
(1699.47257 72.7903635 0.04927444958)
(1684.612893 88.53059149 -0.5971829529)
(1674.140933 100.242077 0.4304347624)
(1661.340558 115.1981725 2.42883096)
(1735.89817 -3.526460101 -3.636455998)
(1734.923715 -0.3961242655 -3.302587262)
(1735.822225 1.035525771 -2.612939053)
(1736.680053 3.584017501 -1.709789643)
(1736.742225 4.946979731 -5.790022618)
(1734.223037 5.754741445 -5.450215294)
(1730.719653 4.881342244 -3.771368534)
(1730.566872 5.084886008 -3.32014146)
(1730.729723 6.397278917 -1.992858541)
(1729.655771 5.818281766 0.3567863745)
(1730.691922 7.0680699 1.258737302)
(1730.186006 1.155788155 0.2780829024)
(1729.859205 3.21975357 1.231143968)
(1728.220275 7.508513949 -0.05923921329)
(1725.719449 6.66675161 0.9339212302)
(1730.314227 9.758118381 -0.6509329017)
(1729.291417 12.03554352 -0.6331448439)
(1728.617405 13.00281985 -7.48757163)
(1723.998182 11.40567564 -5.862496298)
(1721.294117 13.20525324 -8.091045213)
(1719.252726 21.35919479 -7.054414026)
(1718.840012 26.66834808 -7.670948692)
(1714.828086 32.65464849 -8.635010984)
(1714.316402 34.9883577 -5.182395165)
(1706.647713 49.72666732 -5.281938342)
(1702.549818 49.030277 -6.496007178)
(1700.399008 56.61234715 -2.498885993)
(1697.718875 63.79742555 -2.510588885)
(1692.867673 77.19682481 -2.377082436)
(1681.140126 100.9172092 -4.096686474)
(1734.257161 -2.737309458 3.123175684)
(1736.089564 0.1648589494 2.386075836)
(1731.407211 1.924882757 0.06937997523)
(1728.437657 0.0814608421 -0.4874983785)
(1729.682389 -0.7826493267 -0.5427945128)
(1728.740025 1.467228933 0.401067612)
(1728.880472 6.236121824 -0.4499528388)
(1728.124064 5.805939932 -1.167679587)
(1728.355326 6.199935406 -0.9861565945)
(1727.366991 3.91656307 0.1332101728)
(1728.216211 4.927976348 -1.867830947)
(1725.680714 3.118120262 -2.462933057)
(1728.349532 -2.023236266 0.1759975528)
(1730.662063 1.600398206 1.283679006)
(1732.828455 3.048510423 -0.4345936805)
(1730.385381 6.931180116 -0.643882318)
(1730.915321 5.492607737 1.0421663)
(1725.597031 10.72591715 1.397447508)
(1728.495363 14.84697976 4.573463069)
(1728.298624 13.8968112 6.081719562)
(1730.502628 14.57674015 7.203655289)
(1723.369282 18.22040701 9.919316713)
(1722.032619 21.22517009 10.29379859)
(1717.276604 27.70073646 6.70865413)
(1711.798693 30.81233374 3.783889499)
(1704.624137 43.19072497 3.798902421)
(1703.134872 44.96279034 -1.021818027)
(1701.551268 53.76069275 0.8666919767)
(1695.331156 63.34203043 -0.9472352777)
(1692.78307 65.59098948 0.2268225985)
(1739.780491 2.553689546 -2.690284351)
(1734.509956 -1.347603127 -1.803806919)
(1731.695697 -2.452464513 -0.1359873204)
(1729.851985 -0.2110181806 0.143763667)
(1730.233806 3.797587961 -0.4760418401)
(1729.846148 3.513946381 -0.6456754368)
(1729.724637 1.512846462 0.1997061682)
(1731.837469 3.669861075 0.231367822)
(1733.731682 2.175947998 -1.040298832)
(1731.244649 2.769926884 -1.785464431)
(1732.176878 2.338681374 0.4075048696)
(1738.400254 1.359297904 3.419568243)
(1735.804143 4.141939054 2.661472787)
(1732.406655 2.389016639 4.68127765)
(1729.032608 2.68253727 4.244992741)
(1729.235959 3.385032925 4.246215175)
(1731.612806 3.882248195 5.269266689)
(1727.208594 2.301819865 6.610112531)
(1726.380511 8.253791024 4.709190834)
(1726.012637 7.908336449 5.579916667)
(1725.227352 12.68292588 3.099305196)
(1722.825047 14.71744371 4.426409513)
(1718.612839 19.66454238 3.913556327)
(1720.178899 25.62940585 1.578412685)
(1718.079018 25.59355526 6.027899146)
(1710.427408 30.0670606 7.914184889)
(1711.884886 39.64374133 6.232647841)
(1711.675945 39.76048646 3.442339132)
(1700.927032 47.78643003 4.472955403)
(1692.351373 54.35385247 0.9314541319)
(1732.254519 6.360765873 -1.889673961)
(1734.385515 5.449593986 -1.144311464)
(1740.085249 2.349100089 0.1881802206)
(1738.888524 -0.8906123567 2.37170933)
(1737.724895 -1.282894569 2.261096718)
(1738.239878 -3.691587475 6.103545042)
(1735.295559 -4.054139443 3.284692487)
(1730.504707 -2.301267168 3.154329888)
(1731.568748 2.010629853 3.645528412)
(1731.686061 1.370523871 4.892449674)
(1731.499436 2.267723695 2.132924941)
(1726.853405 8.013973293 1.852294964)
(1725.474705 5.713983112 -0.08978385745)
(1726.976738 6.442993267 -0.4994800717)
(1725.179728 3.825385568 2.594823266)
(1727.66246 2.280295773 3.679580105)
(1728.221023 4.317852094 3.088236197)
(1732.926946 4.94022818 7.661840541)
(1733.779735 1.287043919 5.764874726)
(1730.5868 11.78562991 2.613841009)
(1725.237529 11.82540396 2.760497277)
(1727.370596 9.76013825 1.394912845)
(1726.257688 14.63207143 0.3488783479)
(1725.307239 13.05849217 1.078907434)
(1720.221903 18.35584734 0.4451090131)
(1714.839287 22.09391202 1.938684026)
(1712.842594 25.03546205 -2.14826949)
(1709.322663 33.83034007 0.5008838434)
(1705.10059 37.91070926 2.039719455)
(1702.706744 48.69130001 0.2397007472)
(1732.948591 1.423485965 -0.9941638222)
(1734.248962 1.124375364 -2.075331687)
(1730.357923 1.222412053 -4.500138342)
(1730.470854 4.262048976 -2.614800685)
(1730.797495 2.91963805 -1.341013232)
(1731.11327 1.73538066 -3.221421074)
(1733.954182 0.7202708727 -2.454081546)
(1737.407522 0.3604363402 -1.32159646)
(1736.267685 -2.619773378 -3.154041791)
(1737.244123 -2.189147638 -2.949412456)
(1737.160793 -2.150054355 -0.8443519905)
(1736.11534 0.0799284992 1.48992578)
(1737.229363 1.501062952 3.490009053)
(1739.865459 2.744984531 3.32982489)
(1740.664853 3.000664358 5.825558844)
(1738.486686 5.810526719 2.556952662)
(1736.405927 10.1831908 0.4436910694)
(1734.617356 9.818554122 -2.455175722)
(1732.448204 9.112832528 -3.835177046)
(1732.327338 3.332031921 -4.707180303)
(1734.064446 3.676567692 -1.007411606)
(1730.647888 7.678135423 0.5891086314)
(1730.45843 3.324966441 -0.3011903664)
(1728.903193 6.458105408 -2.173434185)
(1730.224481 11.57527265 -1.333727745)
(1720.033621 22.3287299 -0.8232766935)
(1719.135435 26.845703 3.923395111)
(1718.961848 28.09525558 -0.8884728272)
(1714.466638 36.16434689 -0.2457141273)
(1707.202076 38.6698786 5.188740197)
(1736.109141 -0.5653265356 2.778770956)
(1736.961905 -2.085845189 7.886466313)
(1739.500496 -1.788398769 4.805745694)
(1738.443463 -2.12537741 4.097824436)
(1739.488583 -1.516671601 1.527374746)
(1738.559394 3.087944892 2.18749899)
(1739.073604 0.7553588649 1.133087969)
(1742.726112 0.5351031625 -0.3367304399)
(1743.780049 0.7812887465 2.014378153)
(1741.7453 4.105219928 1.054355529)
(1740.144872 3.800768464 -1.814491146)
(1741.465621 2.896156485 -1.612228412)
(1739.392811 0.3972698558 -5.591904966)
(1740.557856 0.3885216796 -6.824266075)
(1736.448887 3.422126324 -7.980155159)
(1738.463001 1.003957689 -5.478196231)
(1733.389074 -0.6664917204 -3.748132208)
(1732.396518 2.355298833 -3.613504725)
(1732.144709 2.987148028 0.0981788977)
(1734.458692 8.128772566 -0.03883158918)
(1731.707708 11.03575553 -0.1295890351)
(1730.606076 13.05190302 -0.7990261532)
(1731.624429 15.27620006 0.9290554663)
(1729.767352 13.72250348 2.538690395)
(1731.084364 12.28196579 0.6031566783)
(1729.91978 11.89535294 3.752887242)
(1726.780412 15.52047323 1.822072249)
(1718.642592 22.23332472 4.805009717)
(1718.364716 24.74299475 0.605300461)
(1716.818426 30.99395983 -1.700195262)
(1736.382232 2.804529577 3.266794745)
(1738.106633 2.972279209 0.9116666342)
(1736.785618 5.462032711 3.404167495)
(1737.591996 4.702420584 0.07093018815)
(1739.545445 2.204210025 0.9426225654)
(1738.782931 3.413319654 0.4861525404)
(1740.152214 5.680484747 1.880538834)
(1733.827916 7.866433352 1.740839445)
(1736.986552 11.31592404 0.4912114299)
(1737.293609 9.657310307 -0.4086105418)
(1735.357496 6.109636766 0.3964723829)
(1733.427248 6.76759616 -1.029742402)
(1732.11028 4.792938035 -0.7891677811)
(1732.652828 9.709097334 1.645360346)
(1735.0162 10.7219588 -0.5953932756)
(1734.341186 13.11798342 -0.681574149)
(1733.825957 11.8789883 -4.078477596)
(1734.190145 13.40707183 -5.877521971)
(1733.96009 10.06524962 -5.005765429)
(1733.557057 10.51950332 -4.1583584)
(1731.578233 12.43894615 -3.287858202)
(1730.903485 12.81336031 -2.14421087)
(1732.83912 17.46785298 -0.9213592535)
(1734.744234 11.92464897 1.099431622)
(1733.012168 18.61010379 2.087827779)
(1731.744874 18.04176378 1.556582359)
(1731.712014 16.40983822 -0.2163765874)
(1731.027713 22.41241074 1.139865319)
(1726.990223 30.08495743 2.601247096)
(1720.65131 33.56534414 4.748684353)
)
;

boundaryField
{
    flow
    {
        type            calculated;
        value           nonuniform List<vector> 
55
(
(1315.84821 411.0428749 -2.848095014)
(1340.218894 413.8205433 3.825002018)
(1359.106494 420.4867111 2.823775295)
(1381.712454 424.5809174 -1.70068443)
(1394.111597 423.8568581 3.307130412)
(1415.835381 426.904757 -1.33053474)
(1436.481556 421.8108354 -0.3013403311)
(1452.056976 403.1776728 -6.834412583)
(1474.750851 385.4289053 -1.907860849)
(1479.681099 363.8855501 4.425617413)
(1513.261983 332.4840886 1.115721271)
(1534.31832 302.7184171 -4.266270816)
(1561.342028 268.5854964 -6.645867547)
(1585.303405 240.4096025 2.713580529)
(1605.112229 203.0319471 2.784964661)
(1627.060373 172.9977244 3.360368041)
(1641.890725 140.9857309 1.581173459)
(1661.340558 115.1981725 2.42883096)
(1681.140126 100.9172092 -4.096686474)
(1692.78307 65.59098948 0.2268225985)
(1692.351373 54.35385247 0.9314541319)
(1702.706744 48.69130001 0.2397007472)
(1707.202076 38.6698786 5.188740197)
(1716.818426 30.99395983 -1.700195262)
(1720.65131 33.56534414 4.748684353)
(1736.382232 2.804529577 3.266794745)
(1738.106633 2.972279209 0.9116666342)
(1736.785618 5.462032711 3.404167495)
(1737.591996 4.702420584 0.07093018815)
(1739.545445 2.204210025 0.9426225654)
(1738.782931 3.413319654 0.4861525404)
(1740.152214 5.680484747 1.880538834)
(1733.827916 7.866433352 1.740839445)
(1736.986552 11.31592404 0.4912114299)
(1737.293609 9.657310307 -0.4086105418)
(1735.357496 6.109636766 0.3964723829)
(1733.427248 6.76759616 -1.029742402)
(1732.11028 4.792938035 -0.7891677811)
(1732.652828 9.709097334 1.645360346)
(1735.0162 10.7219588 -0.5953932756)
(1734.341186 13.11798342 -0.681574149)
(1733.825957 11.8789883 -4.078477596)
(1734.190145 13.40707183 -5.877521971)
(1733.96009 10.06524962 -5.005765429)
(1733.557057 10.51950332 -4.1583584)
(1731.578233 12.43894615 -3.287858202)
(1730.903485 12.81336031 -2.14421087)
(1732.83912 17.46785298 -0.9213592535)
(1734.744234 11.92464897 1.099431622)
(1733.012168 18.61010379 2.087827779)
(1731.744874 18.04176378 1.556582359)
(1731.712014 16.40983822 -0.2163765874)
(1731.027713 22.41241074 1.139865319)
(1726.990223 30.08495743 2.601247096)
(1720.65131 33.56534414 4.748684353)
)
;
    }
    obstacle
    {
        type            calculated;
        value           nonuniform List<vector> 0();
    }
    frontAndBack
    {
        type            empty;
    }
    procBoundary3to1
    {
        type            processor;
        value           nonuniform List<vector> 
36
(
(1299.362674 389.9679709 -1.623453019)
(1338.72658 427.2903354 9.3340882)
(1328.934511 421.458595 3.597573823)
(1322.429582 417.9534539 -3.982531289)
(1312.619098 412.290353 -0.2570363763)
(1312.619098 412.290353 -0.2570363763)
(1419.089344 400.0574051 -4.469441128)
(1407.439263 409.1306649 -5.801281234)
(1385.263429 414.3329136 1.132414526)
(1379.210447 421.4695551 1.980085882)
(1365.752255 426.4211131 0.5727500461)
(1365.46313 426.5455076 -1.857275231)
(1365.46313 426.5455076 -1.857275231)
(1524.687827 271.2840062 -2.05609269)
(1503.775902 290.2079306 0.891181889)
(1494.046581 310.7863373 -6.68431812)
(1472.019703 337.6410356 -10.56346379)
(1459.227114 363.8500245 2.609778941)
(1459.227114 363.8500245 2.609778941)
(1647.566557 103.3200716 -0.01129349983)
(1638.027804 116.0204835 -1.975587461)
(1621.080892 145.6158021 0.5993207344)
(1604.382796 164.5774675 -1.356609109)
(1594.614222 178.6030509 4.442748834)
(1577.863061 199.2892448 4.255928146)
(1577.863061 199.2892448 4.255928146)
(1719.074913 23.60090896 -0.2268596109)
(1715.548855 30.43241397 2.070367603)
(1707.821965 32.26107097 0.536301867)
(1701.60318 46.34170121 1.626074046)
(1695.76265 54.91662158 3.479881773)
(1690.82734 59.35117951 1.144025744)
(1679.592071 70.4031121 1.59910299)
(1679.592071 70.4031121 1.59910299)