/*--------------------------------*- C++ -*----------------------------------*\
| =========                 |                                                 |
| \\      /  F ield         | OpenFOAM: The Open Source CFD Toolbox           |
|  \\    /   O peration     | Version:  2406                                  |
|   \\  /    A nd           | Website:  www.openfoam.com                      |
|    \\/     M anipulation  |                                                 |
\*---------------------------------------------------------------------------*/
FoamFile
{
    version     2.0;
    format      ascii;
    arch        "LSB;label=32;scalar=64";
    class       Cloud<dsmcParcel>;
    location    "0.012/lagrangian/dsmc";
    object      coordinates;
}
// * * * * * * * * * * * * * * * * * * * * * * * * * * * * * * * * * * * * * //

6876
(
(0.06495507735 0.09168069243 0.3758417689 0.4675224613) 489 935 2
(0.3703475971 0.3148262015 0.1373732746 0.1774529269) 449 1307 2
(0.6919184813 0.0424674903 0.111573269 0.1540407593) 458 895 1
(0.01081044735 0.4945947763 0.4597047985 0.03488997787) 457 875 1
(0.09253383577 0.4386982498 0.4537330821 0.01503483228) 456 892 2
(0.320326039 0.04991311129 0.3398369805 0.2899238692) 467 913 2
(0.6931841281 0.153407936 0.04188349538 0.1115244406) 447 875 1
(0.4021578122 0.09139335186 0.207527742 0.2989210939) 477 913 2
(0.1683999788 0.4158000106 0.4033559499 0.01244406076) 454 888 1
(0.1721018 0.3978176089 0.4139491 0.0161314911) 458 896 2
(0.3506999473 0.2152034835 0.3246500264 0.1094465429) 456 892 2
(0.7119661286 0.1247659036 0.01925103213 0.1440169357) 448 1306 1
(0.3845699967 0.3077150016 0.1839100401 0.1238049615) 557 1083 2
(0.6310364426 0.07790651848 0.1844817787 0.1065752602) 467 913 2
(0.372466955 0.3137665225 0.2092831361 0.1044833864) 457 891 2
(0.4633510007 0.2683244996 0.2373801689 0.03094433072) 498 969 2
(0.6934500227 0.05292208829 0.1532749886 0.1003529004) 446 873 2
(0.3176545966 0.3411727017 0.2342155028 0.106957199) 476 927 2
(0.6319799708 0.1840100146 0.1273213918 0.05668862277) 159 316 2
(0.5845610144 0.09941892255 0.2077194928 0.1083005703) 459 897 2
(0.08534035839 0.003657683038 0.4573298208 0.4536721378) 489 954 2
(0.1096820176 0.4451589912 0.149867204 0.2952917873) 469 2618 2
(0.1465552329 0.2981421268 0.1285802568 0.4267223835) 458 895 1
(0.5956465607 0.006979237035 0.1951974826 0.2021767196) 487 932 2
(0.07380438784 0.4630978061 0.454289367 0.008808439099) 449 1307 2
(0.4954599416 0.2522700292 0.1390104268 0.1132596024) 459 2617 2
(0.8942478363 0.04852949048 0.004346591359 0.05287608184) 488 934 2
(0.8233526527 0.03019518382 0.08832367366 0.05812848983) 456 892 2
(0.320080327 0.3399598365 0.01016862953 0.329791207) 473 923 2
(0.1924995738 0.4037502131 0.2253035385 0.1784466746) 467 912 2
(0.0207575652 0.4896212174 0.2158507126 0.2737705048) 479 935 1
(0.2434652941 0.008964527342 0.3693028256 0.378267353) 476 929 1
(0.5663272537 0.15711525 0.0597211232 0.2168363732) 489 935 2
(0.9471499452 0.009143397326 0.01728163008 0.0264250274) 457 893 1
(0.09563444052 0.4031246354 0.04905814431 0.4521827797) 498 953 2
(0.002534620406 0.3744210041 0.4987326898 0.1243116857) 566 1098 1
(0.9342609493 0.03286952536 0.003434768174 0.02943475719) 446 873 1
(0.229073484 0.385463258 0.3178439321 0.06761932594) 556 1082 1
(0.4561021632 0.002628872645 0.2693200458 0.2719489184) 464 906 1
(0.136050271 0.4319748645 0.01660671868 0.4153681458) 489 952 2
(0.04829470273 0.4758526486 0.3884648666 0.08738778203) 448 877 1
(0.3472676609 0.12897939 0.1973867796 0.3263661696) 449 1307 1
(0.4607684805 0.1246010925 0.1450146672 0.2696157598) 462 884 2
(0.6934381667 0.1532809166 0.1169830978 0.03629781882) 454 887 2
(0.4013392309 0.2993303845 0.1009220223 0.1984083622) 448 874 2
(0.452815246 0.273592377 0.005255074631 0.2683373024) 443 867 1
(0.8206223948 0.08968880259 0.08282996967 0.006858832913) 517 1005 2
(0.4167912521 0.291604374 0.1951136791 0.09649069486) 458 896 1
(0.6603113697 0.1698443152 0.122761731 0.04708258418) 469 916 1
(0.1507410308 0.4246294846 0.3627486503 0.06188083428) 506 986 2
(0.2269762553 0.08066250345 0.3058493689 0.3865118723) 457 893 1
(0.21272404 0.04259944148 0.3510385385 0.39363798) 448 1306 1
(0.1086634368 0.4456682816 0.2762905443 0.1693777374) 477 931 2
(0.05895975387 0.4705201231 0.2835993698 0.1869207532) 533 1038 1
(0.1319922252 0.3999981537 0.4340038874 0.03400573368) 509 992 2
(0.06980831749 0.1590438406 0.4650958413 0.3060520007) 458 896 2
(0.3957856218 0.1505437511 0.151563438 0.3021071891) 454 887 1
(0.7048521654 0.145889484 0.001684433256 0.1475739173) 499 2621 1
(0.8992084061 0.05039579697 0.003975426438 0.04642037054) 447 1305 2
(0.4060174552 0.2969912724 0.03595928708 0.2610319853) 449 876 2
(0.7524128967 0.05471785058 0.06907570106 0.1237935516) 457 875 2
(0.1559194414 0.4081463375 0.0138939418 0.4220402793) 477 913 2
(0.4872666093 0.2563666954 0.1238019666 0.1325647287) 476 927 2
(0.2417062188 0.3791468906 0.09053794845 0.2886089422) 448 876 2
(0.3856216456 0.3071891772 0.007614075171 0.299575102) 448 877 1
(0.8961680585 0.03123343801 0.05191597076 0.02068253275) 457 891 1
(0.2272002451 0.2980033193 0.3863998775 0.08839655815) 498 969 1
(0.2236342808 0.1103058236 0.277877036 0.3881828596) 546 1044 2
(0.3140711864 0.243566848 0.3429644068 0.09939755883) 639 1237 1
(0.2828020252 0.2226662065 0.1359327809 0.3585989874) 449 2616 1
(0.7763481147 0.04534984672 0.1118259426 0.06647609593) 499 971 1
(0.01369910776 0.3921326485 0.1010177976 0.4931504461) 469 897 2
(0.4395935502 0.2802032249 0.1025052404 0.1776979845) 509 2622 2
(0.1861893284 0.06292854749 0.4069053358 0.3439767883) 453 886 2
(0.2429934889 0.3750647921 0.003438463426 0.3785032555) 609 2632 1
(0.3875143508 0.05817364332 0.3062428246 0.2480691813) 448 874 1
(0.3895420312 0.06588510425 0.3052289844 0.2393438801) 446 873 2
(0.1477576074 0.08118147824 0.4261211963 0.344939718) 477 932 2
(0.1329582483 0.4335208758 0.2542421292 0.1792787466) 455 871 1
(0.5232455251 0.1090078112 0.2383772375 0.1293694262) 476 927 1
(0.1089999993 0.4455000004 0.4210659293 0.0244340711) 478 933 2
(0.08742031845 0.4562898408 0.1781989086 0.2780909321) 465 908 2
(0.4784097618 0.2607951191 0.01659207612 0.244203043) 446 873 1
(0.2010890918 0.3994554541 0.2915620963 0.1078933578) 447 874 2
(0.8790744747 0.02424748311 0.06046276264 0.03621527953) 519 1009 1
(0.04869677937 0.0363282746 0.4756516103 0.4393233357) 461 898 1
(0.2015494536 0.3992252732 0.3912072077 0.008018065478) 478 931 2
(0.4463093946 0.161689057 0.1151562457 0.2768453027) 469 2618 1
(0.2649930776 0.3675034612 0.2672630205 0.1002404406) 469 916 1
(0.0137381681 0.4931309159 0.2727945179 0.220336398) 447 872 2
(0.028233243 0.4858833785 0.2307468694 0.2551365091) 506 984 2
(0.3854842012 0.06134178315 0.2459161162 0.3072578994) 453 867 2
(0.1480761892 0.1772996079 0.2486622975 0.4259619054) 478 915 2
(0.7524614922 0.110551556 0.01321769792 0.1237692539) 449 2616 1
(0.1102931073 0.0185856331 0.4262678132 0.4448534463) 448 1306 1
(0.2920308969 0.1089341104 0.2450504411 0.3539845515) 455 871 2
(0.2079649823 0.3960175088 0.2741801797 0.1218373292) 459 897 1
(0.2784989718 0.3607505141 0.08124811262 0.2795024015) 516 1005 2
(0.0999621966 0.06455222515 0.4500189017 0.3854666766) 446 873 2
(0.254020333 0.03658032978 0.3364095037 0.3729898335) 468 914 1
(0.3379918277 0.3310040861 0.1617109616 0.1692931245) 455 887 2
(0.7631543624 0.1184228188 0.03388453955 0.08453827923) 499 954 1
(0.6383230189 0.1501018565 0.03073663405 0.1808384906) 459 2617 1
(0.9542771182 0.0228614409 0.001013839273 0.02184760163) 443 867 1
(0.006271649643 0.4968641752 0.4340152431 0.06284893207) 469 914 2
(0.4988126967 0.2505936517 0.05034087516 0.2002527765) 476 927 2
(0.413770156 0.1658903669 0.1272245551 0.293114922) 627 1216 1
(0.2577350127 0.3711324936 0.02106380538 0.3500686883) 488 953 1
(0.3128509749 0.01760510751 0.3435745126 0.3259694051) 489 952 1
(0.2635576396 0.1398594718 0.2283617084 0.3682211802) 449 1307 1
(0.8847800653 0.05760996733 0.01060070213 0.0470092652) 458 895 2
(0.6828558032 0.1585720984 0.08609322745 0.07247887092) 459 2617 2
(0.05873174824 0.4706341259 0.09929931573 0.3713348102) 447 875 1
(0.3295510854 0.1956192164 0.1396052408 0.3352244573) 477 913 2
(0.2341460406 0.3829269797 0.2181002657 0.164826714) 449 2616 2
(0.05363549815 0.07554585091 0.3976364 0.4731822509) 512 979 2
(0.5540716235 0.08579599435 0.2229641882 0.1371681939) 448 874 1
(0.4342245562 0.1904759462 0.2828877219 0.09241177573) 627 1214 1
(0.2152326609 0.1116575119 0.2807261576 0.3923836695) 444 1302 1
(0.04288772816 0.4785561359 0.3190261432 0.1595299927) 465 906 2
(0.4061379085 0.1378568198 0.1590742259 0.2969310458) 509 2622 1
(0.6720733735 0.1331218674 0.03084144587 0.1639633133) 519 2623 1
(0.1215445434 0.4392277283 0.4287383286 0.01048939974) 479 916 1
(0.8068484513 0.05403968117 0.09657577437 0.0425360932) 505 985 2
(0.2700294468 0.09338215978 0.2716031168 0.3649852766) 546 1062 1
(0.1947830774 0.4026084613 0.1236594361 0.2789490252) 509 2622 2
(0.1735125323 0.4122033552 0.4132437339 0.001040378629) 498 972 2
(0.4329674627 0.232084233 0.05143203561 0.2835162687) 456 873 2
(0.05077607396 0.474611963 0.4479650571 0.02664690588) 449 2616 2
(0.3070317916 0.3464841042 0.09677728161 0.2497068226) 458 893 2
(0.4520201899 0.2377080552 0.2739899051 0.03628184987) 478 934 2
(0.03655629508 0.3403263337 0.4817218525 0.1413955188) 468 915 2
(0.3093830409 0.3115043679 0.3453084796 0.03380411165) 478 934 2
(0.4883396877 0.2558301561 0.0651759459 0.1906542102) 446 872 2
(0.2071569039 0.3964215481 0.3179461931 0.07847535499) 444 1302 2
(0.001348740148 0.4993256299 0.1794139553 0.3199116746) 497 969 2
(0.2447994144 0.3739607667 0.3776002928 0.003639526056) 469 916 2
(0.1601806862 0.4199096569 0.04238795461 0.3775217023) 446 870 2
(0.7742907405 0.1128546297 0.007099901348 0.1057547284) 445 871 1
(0.1460200263 0.4269899869 0.2851731816 0.1418168052) 458 895 2
(0.07549197758 0.4622540112 0.05009804005 0.4121559712) 478 934 1
(0.3691107667 0.3154446167 0.2083324888 0.1071121278) 468 914 2
(0.3621458887 0.09336871597 0.3189270557 0.2255583397) 575 1118 2
(0.6144034361 0.1927982819 0.1770940134 0.01570426858) 549 1066 2
(0.3879143754 0.3060428123 0.1771885914 0.1288542209) 453 885 2
(0.002581487796 0.4987092561 0.36508618 0.1336230761) 480 199 2
(0.4489532682 0.1122281756 0.2755233659 0.1632951903) 91 183 2
(0.2990533347 0.3504733326 0.1067447636 0.2437285691) 487 950 2
(0.2173902223 0.3913048888 0.3677668389 0.02353804998) 486 948 2
(0.3776853532 0.2010753711 0.3111573234 0.1100819524) 505 985 2
(0.2146956839 0.2771682399 0.1154839181 0.392652158) 458 895 1
(0.4419619487 0.2790190257 0.04780998767 0.231209038) 509 973 1
(0.1017732142 0.2891696507 0.1599437422 0.4491133929) 455 871 2
(0.5978027202 0.1904066091 0.2010986399 0.01069203079) 457 891 1
(0.4812533387 0.2593733307 0.199021794 0.06035153664) 468 914 2
(0.5748252388 0.07498114478 0.2125873806 0.1376062358) 588 1143 2
(0.403522692 0.298238654 0.1616709087 0.1365677453) 474 923 2
(0.6062285977 0.02907182451 0.1678138767 0.1968857012) 448 1306 1
(0.3529480502 0.3235259749 0.06146110782 0.2620648671) 496 949 1
(0.1150860889 0.1025519587 0.4424569555 0.3399049968) 529 1030 2
(0.2905228151 0.3064403459 0.3547385925 0.04829824662) 456 889 1
(0.01131456788 0.4943427161 0.3175559812 0.1767867348) 444 869 1
(0.6391980242 0.11509295 0.06530803789 0.1804009879) 457 893 1
(0.03920833426 0.1318335037 0.3485623291 0.4803958329) 477 913 2
(0.8504566156 0.07477169218 0.05730033184 0.01747136034) 486 948 2
(0.1322404235 0.07235255591 0.4338797883 0.3615272323) 447 875 2
(0.7273053286 0.1363473357 0.07324487611 0.06310245958) 445 1303 2
(0.08000733471 0.3683219355 0.4599963326 0.09167439711) 468 915 2
(0.893832041 0.0463157611 0.05308397952 0.006768218423) 477 932 2
(0.2196300122 0.1607990017 0.2293859922 0.3901849939) 448 876 1
(0.2765678288 0.3617160856 0.137217975 0.2244981106) 469 914 2
(0.04837305843 0.4674375925 0.4758134708 0.008375878334) 454 885 1
(0.2063824298 0.3968087851 0.3758940243 0.02091476082) 446 870 2
(0.3010926395 0.3494536803 0.08643597917 0.2630177011) 477 932 1
(0.3063641879 0.3468179061 0.3216223653 0.02519554077) 457 875 1
(0.2466973601 0.07687923289 0.3766513199 0.299772087) 464 907 2
(0.1463410248 0.4268294876 0.08631837828 0.3405111093) 499 973 1
(0.4630935522 0.06508272577 0.2033704981 0.2684532239) 527 1008 2
(0.3618279988 0.3190860006 0.3090907205 0.009995280073) 488 934 1
(0.1895839065 0.4052080467 0.02632431778 0.378883729) 156 312 2
(0.2266675587 0.08377232712 0.3028938935 0.3866662206) 495 965 1
(0.7130129201 0.09572108854 0.14349354 0.04777245142) 449 876 1
(0.2216967604 0.3891516198 0.09551235035 0.2936392694) 457 891 2
(0.3179944955 0.2149297847 0.1260729675 0.3410027522) 500 956 2
(0.5512999214 0.2243500393 0.09675108394 0.1275989554) 518 1007 2
(0.02747626179 0.4769786692 0.4862618691 0.009283199922) 459 897 2
(0.004246095195 0.1808979171 0.4978769524 0.3169790353) 577 1122 2
(0.3065326436 0.3467336782 0.2989600449 0.04777363335) 623 1208 2
(0.05249485019 0.4737525749 0.213105061 0.260647514) 487 951 1
(0.001245662193 0.1871202892 0.3122568797 0.4993771689) 478 933 1
(0.5957383356 0.2021308322 0.08899175586 0.1131390763) 446 1304 2
(0.4461751072 0.2769124464 0.1078429967 0.1690694497) 479 933 2
(0.4431779841 0.08007312171 0.1983378862 0.2784110079) 464 888 2
(0.6494399933 0.1752800034 0.1216992076 0.05358079578) 529 2624 2
(0.1455173013 0.07320090434 0.4272413493 0.354040445) 469 914 1
(0.103488614 0.448255693 0.2311161554 0.2171395375) 519 1009 2
(0.3298968651 0.1463651345 0.1886864329 0.3350515674) 461 882 2
(0.7858041651 0.1070979175 0.02462315344 0.08247476403) 456 892 1
(0.3124597505 0.1854042197 0.3437701248 0.1583659051) 444 869 2
(0.8219659476 0.08901702621 0.04869517077 0.04032185544) 467 894 1
(0.5696117154 0.2151941423 0.09496360025 0.1202305421) 488 953 1
(0.2182329593 0.3908835203 0.2143959348 0.1764875856) 557 1065 1
(0.3869469349 0.3065265325 0.2967871961 0.009739336428) 579 1123 2
(0.3612974521 0.1224938108 0.1968574631 0.319351274) 456 891 1
(0.7839045597 0.08728858434 0.1080477202 0.02075913581) 467 910 1
(0.0003849236871 0.4998075382 0.04548410991 0.4543234282) 468 915 1
(0.3500425606 0.3148031221 0.01017559756 0.3249787197) 456 873 2
(0.4362726804 0.2818636598 0.2815384175 0.0003252422703) 458 896 1
(0.3697058107 0.2049598346 0.11018726 0.3151470946) 467 894 2
(0.9430299422 0.02848502889 0.01330795038 0.01517707852) 441 1299 2
(0.03161929406 0.484190353 0.1892952919 0.2948950611) 489 2620 2
(0.3897290249 0.004821035483 0.3051354876 0.3003144521) 446 870 1
(0.6254173349 0.1872913325 0.03382379659 0.1534675359) 447 874 2
(0.1748164838 0.4125917581 0.07875109492 0.3338406632) 488 950 2
(0.07809058769 0.3519326475 0.1090220587 0.4609547062) 533 1019 2
(0.6502080953 0.1748959524 0.01584874539 0.159047207) 498 972 1
(0.2121386403 0.3939306799 0.1539330934 0.2399975865) 447 875 1
(0.3948118458 0.3025940771 0.08008717065 0.2225069064) 525 1020 2
(0.1843519527 0.4078240236 0.06046339523 0.3473606284) 479 935 1
(0.3120757333 0.1590866432 0.3439621334 0.1848754901) 498 972 2
(0.001738449263 0.4991307754 0.4529412192 0.0461895562) 568 1104 2
(0.01725673869 0.4913716307 0.1999271891 0.2914444416) 508 991 1
(0.3102501443 0.2439617891 0.1009131388 0.3448749279) 567 1102 1
(0.6229827284 0.04711275159 0.1413958842 0.1885086358) 649 1239 2
(0.105416598 0.4091100827 0.03818161833 0.447291701) 445 1303 1
(0.5454936599 0.02251671889 0.22725317 0.2047364511) 467 910 1
(0.4020272054 0.2825391952 0.2989863973 0.01644720216) 483 943 2
(0.07749996869 0.2100121146 0.251237901 0.4612500157) 466 892 2
(0.009860212671 0.1914829707 0.303586923 0.4950698937) 517 989 2
(0.3183651468 0.3408174266 0.337340841 0.003476585604) 449 2616 2
(0.04180976463 0.08435199515 0.4790951177 0.3947431225) 478 934 2
(0.6563736568 0.1718131716 0.134447012 0.03736615964) 455 889 2
(0.175923224 0.412038388 0.3096393714 0.1023990166) 464 888 1
(0.1262482292 0.4368758854 0.1114096131 0.3254662723) 499 971 2
(0.7735701522 0.1132149239 0.06682147944 0.04639344446) 118 236 2
(0.1726789271 0.03612968553 0.4136605364 0.3775308509) 454 888 2
(0.1635288803 0.4182355598 0.2158570707 0.2023784891) 497 967 2
(0.2629397838 0.03637230079 0.3321578073 0.3685301081) 539 1030 2
(0.3812339043 0.01761221082 0.291770837 0.3093830479) 456 891 1
(0.7610367537 0.1194816231 0.01888561054 0.1005960126) 518 1009 2
(0.04794672808 0.2660178395 0.476026636 0.2100087964) 619 1199 1
(0.3003312423 0.003270839667 0.3465635392 0.3498343788) 618 1181 2
(0.3668273474 0.3165863263 0.01477108551 0.3018152408) 466 908 2
(0.5218848544 0.2390575728 0.1469484133 0.09210915954) 476 911 1
(0.3657236841 0.06824141479 0.317138158 0.2488967432) 464 907 2
(0.3138006767 0.3430996616 0.2032098191 0.1398898426) 469 2618 2
(0.02421964988 0.4878901751 0.4206394693 0.06725070574) 466 910 2
(0.01393147038 0.4930342648 0.3889293848 0.10410488) 467 894 1
(0.09488280175 0.1005908783 0.3519677208 0.4525585991) 456 891 1
(0.7462636854 0.06943446078 0.1268681573 0.05743369651) 449 878 2
(0.8116750305 0.03975012396 0.05441236078 0.09416248475) 19 39 1
(0.4604969618 0.2697515191 0.09584733703 0.1739041821) 469 916 1
(0.4499107395 0.2717950077 0.003249622498 0.2750446302) 487 950 1
(0.483549969 0.06281960411 0.1954054114 0.2582250155) 454 887 1
(0.4483680596 0.2347197227 0.04109624747 0.2758159702) 446 872 1
(0.1935705839 0.1104784575 0.4032147081 0.2927362506) 447 875 2
(0.6277368099 0.1861315951 0.07638536251 0.1097462325) 445 1303 2
(0.4743274516 0.2390155755 0.2628362742 0.02382069871) 497 967 1
(0.1177792091 0.1247755009 0.3163348946 0.4411103954) 442 864 1
(0.8225393995 0.08873030026 0.00363384282 0.08509645744) 444 866 2
(0.7064164132 0.1467917934 0.06790397535 0.07888781807) 547 1065 1
(0.07806005175 0.2466415264 0.4609699741 0.2143284478) 489 954 2
(0.3865183707 0.2868740135 0.01986680115 0.3067408147) 482 940 1
(0.09284556749 0.4535772163 0.2679043753 0.1856728409) 457 891 2
(0.3472754795 0.1722960886 0.1540661717 0.3263622602) 509 973 2
(0.4656070983 0.02203092205 0.2671964509 0.2451655288) 465 906 1
(0.4417973098 0.1740392246 0.2791013451 0.1050621205) 525 1020 1
(0.5237491875 0.1611376008 0.0769878054 0.2381254062) 444 1302 1
(0.2653232594 0.3673383703 0.03839620704 0.3289421633) 507 988 2
(0.0582276382 0.2968971106 0.1739890703 0.4708861809) 597 1141 2
(0.5578477217 0.2210761392 0.0758296179 0.1452465213) 445 1303 2
(0.7430675613 0.0995461487 0.02892007065 0.1284662194) 457 875 2
(0.7380560249 0.1309719875 0.0004598138865 0.1305121737) 471 901 1
(0.0310387151 0.2178520026 0.2666286398 0.4844806425) 466 892 2
(0.08422513982 0.03278060959 0.4251068205 0.4578874301) 457 875 2
(0.6875257311 0.1562371344 0.1202394267 0.03599770775) 441 860 2
(0.148969365 0.4255153175 0.1622841104 0.2632312071) 449 878 1
(0.1706854611 0.4146572694 0.3170464242 0.09761084523) 498 971 2
(0.166221071 0.3799595619 0.4168894645 0.03692990266) 478 934 2
(0.008953846477 0.4955230768 0.3066149647 0.1889081121) 498 953 1
(0.3258849685 0.2437167367 0.3370575157 0.093340779) 506 987 2
(0.04922387635 0.4029425005 0.07244556136 0.4753880618) 444 1302 1
(0.3059172467 0.3428186953 0.004222681399 0.3470413767) 447 1305 1
(0.7079041868 0.1045979801 0.04144992651 0.1460479066) 488 934 2
(0.5899424162 0.09317706601 0.2050287919 0.1118517259) 579 1125 2
(0.5886129569 0.2003901085 0.2056935216 0.005303413103) 473 924 2
(0.3126209694 0.2182169885 0.1254725268 0.3436895153) 442 1300 1
(0.09693545108 0.4515322745 0.04595057071 0.4055817037) 454 869 1
(0.3992711867 0.2940538999 0.006310506745 0.3003644067) 445 870 1
(0.339538741 0.1435420139 0.3302306295 0.1866886156) 466 911 2
(0.3062025796 0.06237213662 0.2845265736 0.3468987102) 497 951 2
(0.5091504345 0.1996193484 0.2454247827 0.04580543431) 457 891 1
(0.5196209297 0.1110658329 0.2401895351 0.1291237023) 565 1096 1
(0.5320063672 0.1990962985 0.03490051794 0.2339968164) 478 933 1
(0.140363884 0.429818058 0.3864286965 0.04338936146) 507 989 1
(0.4173084074 0.2913457963 0.2905892111 0.0007565851718) 469 897 1
(0.1523521913 0.1928242272 0.4238239043 0.2309996772) 549 1066 1
(0.1839854255 0.3756664231 0.4080072872 0.03234086415) 508 988 1
(0.04832463873 0.4758376806 0.0291155533 0.4467221273) 479 2619 2
(0.1429869774 0.3473213574 0.08118515394 0.4285065113) 504 982 1
(0.5241685506 0.2379157247 0.1874119493 0.05050377547) 589 1142 2
(0.2226534903 0.3886732549 0.05360223343 0.3350710214) 496 949 1
(0.05152185161 0.4742390742 0.07408218851 0.4001568857) 462 902 2
(0.5377416079 0.1939873519 0.231129196 0.03714184411) 477 929 1
(0.1018913404 0.4490543298 0.3025294936 0.1465248362) 459 2617 2
(0.211219953 0.1515651989 0.2428248246 0.3943900235) 477 931 1
(0.2956539432 0.1720554338 0.3521730284 0.1801175946) 478 934 2
(0.608634591 0.06506290981 0.1306197947 0.1956827045) 444 868 1
(0.05083867504 0.4745806625 0.1130411668 0.3615394957) 448 1306 2
(0.5172971466 0.2058857152 0.03546571154 0.2413514267) 549 1049 2
(0.3605903495 0.1544161188 0.3197048253 0.1652887065) 517 1008 2
(0.03254832945 0.4837258353 0.006592254244 0.477133581) 506 987 1
(0.5037207904 0.06028488744 0.2481396048 0.1878547174) 628 1219 2
(0.5322902295 0.1421406027 0.2338548853 0.09171428261) 588 1143 2
(0.1128314954 0.4435842523 0.3157694808 0.1278147715) 458 895 2
(0.7372133361 0.1313933319 0.05949980324 0.0718935287) 506 968 1
(0.2869707845 0.164019475 0.1924951328 0.3565146078) 516 987 2
(0.06947227393 0.465263863 0.03101082258 0.4342530405) 448 877 1
(0.1575329236 0.291854737 0.1293788012 0.4212335382) 485 928 2
(0.4112114092 0.09872959038 0.195664705 0.2943942954) 455 871 2
(0.3410051955 0.3294974023 0.2943273298 0.03517007245) 496 965 2
(0.02630477433 0.3317173715 0.1551302413 0.4868476128) 489 935 2
(0.8149412523 0.09252937385 0.005136614327 0.08739275952) 446 872 2
(0.2997943364 0.3501028318 0.1277971402 0.2223056917) 488 934 1
(0.6727540736 0.01595508729 0.1636229632 0.1476678759) 440 39 1
(0.06320722708 0.4683963865 0.00392788965 0.4644684968) 459 895 2
(0.3444470127 0.3277764936 0.2916532171 0.03612327651) 469 916 1
(0.09715752538 0.02687782006 0.4245434172 0.4514212373) 477 913 2
(0.2386603196 0.3806698402 0.2654763348 0.1151935054) 463 886 1
(0.2175255034 0.3912372483 0.1812383392 0.2099989091) 486 946 2
(0.5255046383 0.2372476809 0.01172128205 0.2255263988) 463 904 2
(0.2854230924 0.01573337021 0.3572884538 0.3415550836) 524 1018 1
(0.3222389143 0.1122862773 0.3388805429 0.2265942655) 484 942 1
(0.2519771664 0.3740114168 0.136090422 0.2379209948) 538 1045 2
(0.7084297875 0.1457851063 0.03242666109 0.1133584452) 507 988 2
(0.02884235506 0.04378754829 0.4855788225 0.4417912742) 468 912 1
(0.4337738707 0.2831130647 0.08274739067 0.200365674) 447 875 1
(0.5040515634 0.2479742183 0.1569332121 0.09104100617) 446 872 2
(0.1787238832 0.4106380584 0.05839105391 0.3522470045) 476 911 1
(0.1289694297 0.4355152852 0.3631746277 0.07234065749) 469 2618 2
(0.5731296853 0.2134351574 0.1155351882 0.09789996913) 478 931 2
(0.1268514469 0.4365742766 0.04731723681 0.3892570397) 487 950 2
(0.009713952959 0.3255289786 0.4951430235 0.1696140449) 455 887 1
(0.05124624673 0.4743768766 0.1091195059 0.3652573708) 474 907 1
(0.2427777595 0.3544173576 0.3786111202 0.02419376264) 519 1009 1
(0.3188262798 0.3405868601 0.1290252943 0.2115615658) 448 874 2
(0.1657966904 0.4171016548 0.217842275 0.1992593798) 443 866 2
(0.6376357966 0.1623929662 0.01878913553 0.1811821017) 547 1064 1
(0.2972207209 0.3513896395 0.1419361244 0.2094535151) 538 1029 1
(0.0323938097 0.4838030951 0.374484893 0.1093182022) 599 1161 2
(0.3153457642 0.1633380385 0.1789890794 0.3423271179) 509 2622 1
(0.02880359722 0.4855982014 0.2412157643 0.2443824371) 529 1011 1
(0.1767700462 0.4116149769 0.246850224 0.1647647529) 509 992 1
(0.7223724491 0.1388137754 0.09660454791 0.04220922754) 559 1085 2
(0.8044085411 0.09779572944 0.009777556729 0.08801817271) 568 1104 2
(0.6720039255 0.1639980373 0.0458522318 0.1181458055) 469 897 1
(0.6208549188 0.1895725406 0.1389535026 0.05061903796) 466 908 2
(0.7405517881 0.0476436703 0.08208043564 0.1297241059) 467 894 2
(0.7500443614 0.06864185 0.0563359693 0.1249778193) 496 967 1
(0.1836754277 0.4081622862 0.08907173919 0.319090547) 444 869 1
(0.3472585443 0.03435861157 0.2920121163 0.3263707279) 447 874 1
(0.3072676119 0.3463661941 0.1114184365 0.2349477576) 464 907 1
(0.5290756114 0.2354621943 0.176692826 0.05876936829) 489 952 2
(0.01567357363 0.4454762913 0.4921632132 0.04668692186) 457 894 2
(0.06986570458 0.3275229458 0.1375442019 0.4650671477) 517 1007 1
(0.3417313557 0.1565339458 0.1726003763 0.3291343222) 449 2616 1
(0.177205689 0.1078756432 0.3035215123 0.4113971555) 496 967 1
(0.6907995798 0.06680137113 0.08779883899 0.1546002101) 478 933 1
(0.1044359883 0.267719659 0.1800623469 0.4477820058) 477 913 2
(0.09546408204 0.452267959 0.05574611875 0.3965218402) 98 197 1
(0.1433057592 0.2364998776 0.4283471204 0.1918472428) 448 874 1
(0.3917713225 0.3041143388 0.1935990132 0.1105153255) 506 986 2
(0.266688429 0.3666557855 0.03498135674 0.3316744288) 478 915 1
(0.02178378296 0.1641893381 0.3249187705 0.4891081085) 458 895 1
(0.02758876133 0.4862056193 0.1018916895 0.3843139298) 537 1045 2
(0.08021758007 0.2109446471 0.2489465629 0.45989121) 533 1019 2
(0.7594441136 0.07259838871 0.1202779432 0.04767955451) 614 1189 1
(0.584376838 0.207811581 0.1607000877 0.04711149325) 606 1174 2
(0.7018942629 0.1293420216 0.01971084694 0.1490528686) 609 1163 2
(0.1487070705 0.07108951219 0.3545569526 0.4256464648) 633 1209 2
(0.03478038295 0.4826098085 0.4754527924 0.007157016127) 465 908 2
(0.8213474726 0.08932626372 0.08727317036 0.002053093358) 478 931 2
(0.2687317101 0.3656341449 0.05996609787 0.3056680471) 474 926 1
(0.1932865599 0.1425728593 0.4033567201 0.2607838608) 478 931 1
(0.4901797625 0.178756391 0.2549101187 0.07615372779) 455 890 2
(0.7050879563 0.1474560219 0.08948338029 0.05797264157) 448 876 2
(0.3230116966 0.3384941517 0.2453533445 0.09314080716) 449 876 2
(0.2885848359 0.355707582 0.2665197192 0.08918786281) 519 1009 2
(0.0660291676 0.1984316961 0.2685537201 0.4669854162) 508 972 2
(0.4178798288 0.2910600856 0.04204420956 0.2490158761) 469 2618 2
(0.2492522537 0.2757274496 0.3753738732 0.0996464236) 495 966 2
(0.5362460047 0.2318769976 0.01937937835 0.2124976193) 509 973 1
(0.4497109333 0.2751445333 0.1538964417 0.1212480916) 462 902 2
(0.2557980831 0.2412139811 0.1308869774 0.3721009585) 447 1305 1
(0.379035516 0.310482242 0.2095759742 0.1009062678) 527 1027 1
(0.4165743186 0.2917128407 0.2274135585 0.06429928222) 619 2633 2
(0.07975772621 0.4601211369 0.05067220643 0.4094489305) 579 1106 1
(0.0240911517 0.2655671129 0.2223873113 0.4879544241) 498 953 2
(0.2602737592 0.3698631204 0.2644418761 0.1054212443) 486 930 1
(0.2794527031 0.2109583022 0.3602736485 0.1493153462) 537 1043 1
(0.6601034391 0.1176827901 0.1699482805 0.05226549039) 539 1047 1
(0.3856375984 0.3071812008 0.1549306452 0.1522505555) 598 1143 1
(0.7051812236 0.1474093882 0.1242116103 0.02319777795) 628 1216 2
(0.0535963191 0.2425364454 0.2306653951 0.4732018405) 588 1124 2
(0.1221543801 0.138712831 0.3002099789 0.43892281) 609 1163 2
(0.01040673677 0.4947966316 0.08899450738 0.4058021242) 472 903 1
(0.5979050559 0.201047472 0.1015317595 0.09951571251) 477 929 2
(0.06110556804 0.469447216 0.4592114988 0.01023571723) 515 1001 2
(0.37125776 0.31437112 0.1702328384 0.1441382817) 513 999 2
(0.5178992036 0.1749252315 0.2410503982 0.06612516671) 448 877 2
(0.3640296342 0.3179851829 0.1941535512 0.1238316317) 499 971 2
(0.275999234 0.362000383 0.07034882785 0.2916515551) 483 942 2
(0.6551582113 0.1724208944 0.05272095858 0.1196999358) 450 880 1
(0.122311335 0.2024873717 0.2363569608 0.4388443325) 469 2618 1
(0.1122980314 0.1212054978 0.3226454865 0.4438509843) 466 892 2
(0.2340686887 0.3829656556 0.3821598623 0.0008057933456) 477 931 2
(0.3048152754 0.06440313617 0.3475923623 0.2831892262) 557 1081 1
(0.7152534925 0.08050603501 0.06186721877 0.1423732538) 528 1028 1
(0.2398583438 0.0459252727 0.3341455554 0.3800708281) 447 874 1
(0.507187558 0.246406221 0.1970746677 0.0493315533) 557 1065 1
(0.5999946118 0.2000026941 0.04116028687 0.1588424072) 456 891 2
(0.3071072362 0.2809046686 0.06554171334 0.3464463819) 507 988 1
(0.03816288363 0.4809185582 0.3932791909 0.08763936733) 456 889 2
(0.1015906852 0.1108681058 0.4492046574 0.3383365517) 447 875 2
(0.4745299636 0.2627350182 0.05347278969 0.2092622285) 487 951 1
(0.7787586411 0.1106206795 0.03660821497 0.07401246449) 518 1009 2
(0.08714554123 0.4564272294 0.2243522385 0.2320749909) 578 1124 1
(0.2376132564 0.001436081527 0.3797572903 0.3811933718) 534 1021 2
(0.1946250463 0.197035719 0.4026874768 0.2056517578) 456 889 1
(0.5869571272 0.2065214364 0.1280892841 0.07843215236) 578 1123 2
(0.4997816867 0.2501091567 0.0959957945 0.1541133622) 528 1010 1
(0.5573414934 0.2213292533 0.1398396491 0.08148960419) 627 1214 2
(0.2140293458 0.3929853271 0.2708989222 0.1220864049) 518 1010 1
(0.6903653041 0.1548173479 0.09385968154 0.0609576664) 649 2662 1
(0.163061169 0.4184694155 0.2238719141 0.1945975013) 457 891 2
(0.2953216825 0.3523391588 0.179406251 0.1729329077) 474 926 1
(0.6274014179 0.1277047341 0.186299291 0.05859455697) 447 875 2
(0.217478729 0.3413156454 0.04994499013 0.3912606355) 447 1305 1
(0.2532855637 0.3733572182 0.02552022176 0.3478369964) 458 895 2
(0.5979505468 0.0314972354 0.1695274912 0.2010247266) 445 870 1
(0.3131128558 0.3434435721 0.05786891893 0.2855746532) 478 933 2
(0.1486706212 0.01612311273 0.4095415767 0.4256646894) 536 1043 1
(0.322619219 0.0464899381 0.3386903905 0.2922004524) 459 897 2
(0.4148180792 0.2925909604 0.1299321454 0.162658815) 476 911 1
(0.3516753823 0.1855333811 0.3241623089 0.1386289278) 489 954 2
(0.04469269527 0.4012385902 0.07641506216 0.4776536524) 479 2619 1
(0.3795875511 0.1911566022 0.1190496223 0.3102062245) 457 893 1
(0.4789792263 0.2585416734 0.2605103868 0.001968713415) 469 916 2