/*--------------------------------*- C++ -*----------------------------------*\
| =========                 |                                                 |
| \\      /  F ield         | OpenFOAM: The Open Source CFD Toolbox           |
|  \\    /   O peration     | Version:  2406                                  |
|   \\  /    A nd           | Website:  www.openfoam.com                      |
|    \\/     M anipulation  |                                                 |
\*---------------------------------------------------------------------------*/
FoamFile
{
    version     2.0;
    format      ascii;
    arch        "LSB;label=32;scalar=64";
    class       scalarField;
    location    "0.012/lagrangian/dsmc";
    object      Ei;
}
// * * * * * * * * * * * * * * * * * * * * * * * * * * * * * * * * * * * * * //


6876
(
3.99467784e-20
1.014636835e-21
8.308080177e-21
9.610965214e-20
1.071689887e-23
2.136677287e-21
2.671796172e-21
5.355196998e-21
6.455851036e-21
5.130518578e-20
8.543719773e-22
8.454157193e-21
2.807896501e-20
3.469611062e-21
6.249404228e-21
3.465479336e-21
8.326108523e-21
9.938835707e-20
1.158003947e-20
6.844395289e-21
2.111287127e-20
1.348437389e-20
1.526267273e-20
7.578273291e-21
8.645725736e-21
1.871978268e-20
5.64527918e-21
1.168882804e-21
2.393641633e-20
4.443038509e-21
3.187482656e-21
4.467669863e-21
3.701133801e-21
2.226394107e-20
3.433307478e-20
1.25817476e-21
6.041804026e-20
4.338464822e-21
5.967349505e-21
4.397682588e-21
5.090506355e-21
9.220804016e-23
7.362776719e-21
8.4286868e-22
1.033310969e-20
5.342493589e-21
3.239673353e-20
1.426053179e-20
3.54254229e-22
1.416706594e-20
6.230532378e-21
1.433791321e-21
2.105572262e-20
9.569007476e-22
9.411177243e-22
3.7417895e-21
1.49435136e-21
5.119381829e-21
4.883433196e-21
1.526498285e-20
2.340632577e-20
3.976876972e-21
3.557909192e-20
2.801673033e-21
5.842818846e-22
3.921333845e-21
1.142686756e-20
6.661596069e-21
7.290998326e-21
8.064877803e-21
1.958736678e-20
1.586058237e-20
2.108465304e-20
3.875897904e-21
8.834343626e-21
2.310492409e-20
3.608626134e-21
1.724314614e-20
3.879977566e-21
1.081463239e-20
8.362255451e-21
6.834209086e-21
3.609234973e-21
5.425708968e-21
1.217126438e-20
2.54533871e-21
5.073656044e-21
1.836769224e-20
2.542871934e-20
1.280674199e-20
1.376321717e-20
9.934993575e-21
2.031705238e-21
3.263510107e-22
2.743361825e-21
1.133530125e-20
2.412013397e-20
1.679663195e-21
3.863420133e-20
2.497179664e-20
1.84769407e-20
4.304000669e-21
9.504933286e-21
8.182559677e-21
4.823783419e-21
3.679097686e-22
3.821816339e-22
7.072098182e-21
2.399897519e-21
5.535079745e-20
7.701769204e-21
6.436319706e-21
3.60465299e-20
3.000893188e-21
4.86306886e-21
1.999543409e-20
1.899845535e-20
9.829249162e-22
3.390215404e-21
1.069623794e-20
1.511249117e-20
8.87808329e-22
5.731060585e-21
7.257401113e-21
1.456020055e-21
1.7325167e-21
1.498363604e-21
8.421164883e-22
1.448187999e-20
6.379201688e-21
8.249317188e-21
7.140205779e-21
2.313554927e-20
1.591701493e-20
1.398272062e-21
3.136104072e-22
1.116713629e-20
4.089645453e-21
5.688914034e-21
1.730098259e-20
1.879062635e-21
1.238598599e-20
9.646791095e-21
2.043240653e-20
2.784109488e-21
8.905310043e-20
9.797749831e-23
1.295156075e-20
1.114906853e-22
6.445302965e-21
4.475295893e-21
2.593194498e-20
4.633557379e-21
1.277801046e-20
1.105309482e-21
1.506382158e-21
6.694371265e-22
3.034724451e-21
3.207990953e-21
3.057018969e-21
7.676289594e-21
8.846086246e-22
1.65181569e-20
7.441127099e-21
3.542662773e-21
1.566702659e-20
5.020692602e-21
1.43650512e-20
2.116446817e-21
1.617047486e-20
5.480542269e-21
9.27462257e-22
1.373565202e-20
8.416881508e-21
2.634448609e-21
1.881176887e-20
1.744927772e-20
7.405187652e-22
1.949553398e-20
6.788432185e-22
4.295803887e-20
5.746014479e-22
8.297716292e-22
2.591056452e-22
1.491420666e-21
5.230534124e-20
1.062053865e-20
9.269759644e-22
5.097188197e-21
8.704671112e-21
5.793326379e-21
1.971611892e-20
7.058501056e-21
3.121805484e-21
1.617029456e-21
1.707983835e-21
6.851739069e-21
8.240787315e-21
5.833710252e-21
1.254207702e-20
1.368008699e-21
7.260673301e-22
1.173512982e-20
1.534358937e-20
2.165843027e-22
5.423944454e-21
1.361274492e-20
8.207945427e-21
1.644111498e-20
2.367598093e-21
1.27826574e-20
3.470887629e-20
5.444923906e-21
6.924955771e-22
2.161231969e-21
2.121106186e-20
1.486579425e-20
2.750881899e-20
2.677582695e-21
1.952064284e-20
4.232351099e-21
3.136723588e-21
1.97156241e-21
1.739043324e-21
2.15585905e-21
1.154032693e-20
2.098125086e-20
1.067459046e-21
1.397510971e-20
8.276659822e-21
2.880983902e-21
2.177026444e-22
2.766674361e-21
1.805926269e-21
3.201791067e-20
2.696531603e-23
5.727964848e-22
2.041575345e-20
2.533462289e-20
7.30267514e-21
1.716488911e-21
1.634093836e-20
1.687684471e-20
7.172305808e-21
6.857694561e-21
8.961288154e-21
5.244373161e-21
6.88122722e-21
2.201929988e-20
2.079486332e-21
7.030348646e-21
9.690118925e-21
5.307958874e-22
1.005024647e-20
1.332220652e-20
3.125876395e-21
9.252633803e-22
1.261607735e-20
5.681185717e-21
3.567465859e-20
2.393280055e-21
5.748562072e-21
1.221991497e-20
1.027701364e-20
5.431742003e-21
8.845252292e-21
1.959499814e-20
2.068460155e-22
5.721622768e-20
5.783231778e-21
4.263415048e-21
1.654211745e-20
2.614853579e-20
6.46683702e-20
4.948752725e-21
1.926451169e-20
4.626885738e-21
5.032273517e-21
9.73777342e-22
2.85445021e-20
4.042116845e-20
2.342845682e-20
1.158707354e-20
2.40055973e-20
4.625022845e-21
1.052538379e-20
2.14078969e-21
2.012145083e-21
2.743610393e-24
1.634176485e-20
1.141041616e-20
2.559093997e-22
4.990417536e-21
3.954426745e-21
4.618555357e-21
1.065898006e-20
8.885712461e-22
1.719489202e-21
3.849201023e-21
9.237714509e-21
6.437127424e-21
5.603301396e-21
2.138716461e-20
3.07300297e-21
3.970589727e-21
6.145615921e-21
3.39608063e-21
6.910055578e-21
5.745120671e-21
7.239831613e-21
3.138788498e-21
2.691025869e-21
1.531431722e-21
4.992093083e-21
3.294281858e-20
3.601940168e-20
1.728652601e-21
3.131882329e-22
1.776221744e-22
4.408977102e-20
3.769477258e-20
2.939248653e-21
4.529807972e-21
9.00312613e-21
2.205152304e-21
1.091745075e-20
5.199302751e-21
8.333675094e-21
3.157631767e-21
1.108381569e-20
5.788890237e-21
1.281553829e-21
5.32544536e-21
9.700884085e-21
1.66060991e-20
4.511777853e-21
7.552212563e-20
1.005398822e-21
1.121056275e-21
6.739895838e-21
1.840993054e-20
7.72000438e-21
6.713627494e-21
8.37218808e-22
1.978637419e-20
6.313098085e-21
1.372808478e-20
6.244869036e-21
1.340078571e-21
1.050455579e-20
7.360944368e-22
7.518297175e-21
5.082588723e-21
3.409851595e-23
5.387035714e-22
4.948884424e-21
1.718008607e-21
4.952438524e-21
4.093782157e-21
1.262309824e-20
1.400991537e-20
7.85267828e-21
1.334691321e-20
4.531489291e-21
1.446453287e-21
1.095622971e-20
2.850497098e-20
1.599746847e-21
1.310387993e-20
1.514696129e-20
2.519760925e-22
5.195205895e-21
5.555354641e-21
4.241216122e-21
2.133786881e-21
1.24679818e-20
2.688876282e-21
1.982983606e-21
4.491046699e-21
1.494513657e-20
8.731115864e-21
2.470122633e-21
3.000346003e-22
8.437511809e-21
2.086445004e-20
7.498572877e-21
1.270448411e-20
1.641232118e-20
6.769138651e-22
1.55435601e-21
1.132194472e-20
1.34812959e-20
2.47821162e-20
3.593599487e-21
3.925587479e-20
8.011771828e-21
1.253360159e-21
9.246735228e-22
2.862732499e-20
2.158690715e-21
3.418262102e-22
7.184506941e-21
4.232378696e-23
3.464761708e-21
1.333461257e-20
1.853604392e-20
1.353928276e-20
9.34357258e-22
4.222159887e-21
1.906622949e-20
5.996905719e-21
2.300956068e-20
4.525104743e-22
3.948773383e-22
4.800792598e-22
1.178463011e-22
9.929450322e-22
6.302955215e-22
4.728392705e-20
3.569112169e-21
4.547719528e-21
6.146452328e-21
1.356118067e-21
6.781959639e-21
1.606801404e-20
6.731152628e-21
7.843400031e-21
3.794078519e-21
1.716034665e-21
1.636151186e-20
2.444773508e-22
8.507220111e-22
7.805820167e-21
2.142869777e-21
1.310686474e-20
8.162997092e-21
9.645105222e-22
5.254491308e-21
5.568166572e-22
7.062000604e-21
2.307678324e-20
4.686627285e-21
7.779893625e-22
2.139067802e-20
2.404221006e-21
2.134755871e-21
5.299978954e-21
5.445419249e-20
5.0292648e-20
6.113360373e-21
9.954341948e-21
2.12404269e-21
4.684970695e-21
3.373974885e-20
1.476217056e-20
6.826477445e-21
5.425048222e-21
3.130894752e-21
1.823678887e-21
1.494882457e-20
1.709320075e-21
5.543745338e-21
2.013786927e-21
3.687170813e-21
3.438806041e-21
7.21415847e-21
4.056792946e-21
2.731119346e-20
5.750947294e-21
1.678094945e-20
9.398495953e-21
1.555686623e-20
2.97173721e-21
1.215413651e-20
5.725995045e-22
1.742762686e-22
1.548774982e-21
6.306527758e-21
1.220920221e-20
1.54411651e-20
7.853967916e-21
9.761854829e-22
4.122756324e-21
1.403094048e-20
1.446703363e-20
3.498571744e-21
1.019028077e-20
4.5906565e-21
8.123107339e-23
5.64582898e-21
6.980010276e-21
7.300626521e-21
2.046544188e-22
4.631001658e-21
9.208294125e-21
1.176683654e-21
1.627314481e-20
3.014087786e-21
4.679257287e-22
1.514667917e-21
3.813003806e-21
4.12103208e-22
9.988743627e-22
2.098777615e-20
7.195595376e-21
1.325051918e-21
4.046206784e-20
4.357798195e-21
4.334091837e-21
9.123373686e-21
6.862557467e-21
5.639643582e-21
2.271987934e-21
3.803333596e-21
1.596882125e-21
6.065804767e-21
4.354255279e-21
1.816981937e-21
9.028312061e-21
3.058505911e-21
1.060155421e-20
2.43600888e-21
3.24647073e-22
7.682107688e-22
1.137290366e-20
3.031009607e-21
2.359344451e-20
1.15944608e-20
2.355325266e-21
1.51760183e-20
5.356759686e-21
8.801740073e-22
2.428961391e-20
2.859355871e-21
3.855216734e-21
3.513671905e-21
3.752338639e-22
2.171556491e-21
1.291456055e-20
9.856997666e-21
1.712521588e-20
1.571499561e-20
6.744127364e-21
2.732009484e-20
2.03787618e-20
8.194650348e-22
1.104147919e-20
7.231228798e-21
1.214901384e-21
2.197202676e-21
1.920639891e-20
2.291422957e-20
3.187786733e-21
1.668151768e-20
1.375475483e-20
2.017076004e-20
3.11901901e-21
9.962395191e-21
2.407449702e-21
1.398254622e-20
2.239984043e-20
1.656235294e-21
6.464955667e-21
3.515810404e-21
5.848148765e-22
2.246045553e-22
3.943185613e-21
1.186352092e-20
2.271967391e-21
5.988273275e-21
1.103521564e-20
1.761031008e-21
3.628457061e-21
1.208359856e-20
1.172335992e-20
1.199405384e-21
1.930176924e-20
1.776675712e-22
6.176314462e-21
4.218362782e-21
7.914593153e-22
4.462772073e-21
5.181108616e-21
1.287057217e-20
3.523848038e-21
4.060886694e-21
8.952018419e-22
2.719073118e-21
1.82486274e-21
2.386824679e-20
2.517261646e-21
1.995301098e-20
3.615891094e-21
3.950706879e-21
1.421483112e-20
5.998993729e-20
2.955189435e-21
1.324986959e-22
1.231551789e-21
8.377991385e-21
5.388542273e-22
8.647424638e-21
2.65816317e-21
6.274997081e-21
3.432983672e-21
2.275267098e-21
3.734146881e-21
1.065695525e-20
7.492599972e-21
1.156199895e-21
9.856218854e-22
4.8462058e-22
1.042300599e-20
1.820133772e-20
8.15091882e-21
1.218581776e-21
9.147535731e-22
5.699865148e-21
2.537349575e-21
5.51319441e-21
6.162426471e-21
2.59124851e-21
7.148570477e-21
1.745440357e-21
4.848076815e-21
5.665400107e-21
2.8083708e-21
3.329686271e-21
3.917879937e-21
7.773997278e-21
7.632503142e-21
3.045437198e-20
1.493006583e-20
4.53095527e-21
3.877953442e-20
1.540246323e-20
1.26551933e-20
4.091759353e-22
5.742428152e-22
4.41235446e-21
2.153061004e-20
3.832931574e-20
5.175158846e-21
4.192830695e-21
7.711828485e-21
2.126555417e-21
3.803943157e-22
1.906821079e-21
1.234018083e-20
4.386765549e-21
5.45104359e-21
6.645596957e-20
8.529408815e-21
3.145169478e-20
5.459302446e-22
5.219473546e-22
9.789892743e-21
1.393367101e-20
2.142640928e-20
1.266488835e-20
4.153713864e-21
3.793836724e-21
6.789811858e-21
2.418925787e-20
1.151474692e-21
6.651622809e-21
3.079725016e-21
1.707157445e-20
5.026865682e-21
2.518067383e-22
1.842688271e-20
3.639485735e-20
1.74955277e-21
1.837157856e-21
1.474062398e-20
9.862627156e-22
9.409584043e-21
6.664700759e-22
1.005117375e-20
6.6591394e-21
5.562662227e-21
1.015212539e-20
4.857606502e-21
2.968339935e-21
4.607976526e-21
1.022647697e-20
5.743515968e-21
5.727057931e-21
6.065937035e-21
2.449651998e-21
3.996003232e-21
2.820243454e-21
3.862815049e-21
7.714798639e-21
2.119826514e-20
5.902341513e-22
8.402800041e-21
1.43774376e-20
3.792521385e-20
9.658198083e-23
1.623483991e-20
2.599332564e-21
1.415587766e-22
1.317455754e-22
1.771733796e-21
1.055858272e-20
7.758597621e-22
1.194477682e-20
2.006127371e-21
2.090208253e-20
2.368332247e-20
3.881289026e-20
9.117071038e-21
3.827379489e-21
6.035278274e-21
2.746340909e-21
4.216671931e-21
2.518515004e-21
1.13091039e-21
1.591681791e-21
3.294238974e-21
5.672237587e-22
7.580587547e-21
3.795506578e-22
1.831241583e-21
5.197696086e-21
1.560646237e-21
1.66872563e-20
3.304102273e-21
8.473326781e-22
6.744919737e-21
1.651667089e-20
5.471164411e-21
1.792175846e-21
4.33385359e-22
1.157801068e-20
1.419813547e-20
5.731972273e-22
1.125660221e-21
1.903778941e-20
1.349515642e-20
1.291034869e-22
7.602059282e-22
1.569734084e-20
2.796850463e-20
2.748350729e-20
1.981031624e-21
2.930919438e-20
1.239241901e-20
2.607524481e-21
6.178360679e-21
2.994283607e-21
7.8419333e-21
2.959355728e-21
3.268859251e-22
5.163695316e-22
2.352704692e-21
1.703703587e-21
1.753481375e-20
4.914001381e-21
4.636003349e-21
3.558528685e-21
9.297129467e-21
9.180352057e-21
3.064798785e-21
2.211388745e-23
8.302781987e-21
8.949545697e-22
4.057653737e-21
5.152311463e-21
4.011188312e-21
6.380303001e-21
1.791640987e-21
1.448468258e-21
5.258235135e-21
1.061385813e-21
5.857784122e-21
5.658460161e-23
1.667477223e-21
1.114431181e-20
4.724658809e-21
2.520116442e-21
5.699512244e-22
1.686843578e-22
6.394668392e-22
6.570390696e-21
1.033357036e-20
4.936813371e-20
1.930030298e-20
6.982305498e-22
2.529509245e-21
3.677691942e-22
1.393521895e-21
1.50326536e-22
8.829591577e-22
1.005246001e-21
1.622005533e-21
1.380747346e-20
4.075671956e-22
7.794416721e-21
5.602268605e-22
1.863262326e-22
1.718118701e-21
1.39946457e-20
3.845251047e-21
4.138660978e-21
3.967024647e-20
1.355961148e-20
3.754558599e-21
1.421571788e-22
4.516535806e-21
2.702943223e-21
3.165020863e-22
3.265319075e-21
2.377709652e-21
3.920308657e-20
4.990410631e-21
6.933796273e-21
2.707880452e-20
2.158498865e-21
5.525130778e-22
3.760912754e-20
1.101502792e-21
2.258895635e-20
5.266001628e-22
1.635235485e-21
1.066599782e-21
3.012324111e-21
6.81954102e-21
1.289950948e-21
1.441073665e-22
4.698221483e-21
1.089651173e-20
2.732633207e-21
5.55146924e-21
7.417924748e-22
2.523999244e-21
7.312163427e-22
4.649856921e-21
3.886177342e-21
3.493696813e-20
3.113045651e-20
4.360239387e-22
4.993998997e-20
5.567983158e-21
1.03619561e-21
2.308871761e-20
5.0159922e-21
2.951112012e-21
1.153549328e-20
6.540204137e-22
7.499376707e-22
6.177987791e-21
2.078182362e-20
4.874343847e-21
3.820159381e-21
9.500763048e-21
1.099027669e-20
4.84121074e-21
9.679157312e-22
5.144528029e-21
5.279618743e-21
2.794336363e-21
2.304454242e-21
5.052401166e-21
9.633789123e-21
3.03969029e-21
4.792975287e-22
3.597710094e-21
6.590215208e-21
2.408895152e-20
8.706609288e-21
3.992784025e-21
7.237418372e-22
5.007685206e-21
5.766341464e-21
5.420492854e-21
1.825002807e-21
2.443694712e-21
1.772146846e-20
6.323460752e-21
9.774423636e-21
1.560969009e-22
2.995483291e-22
8.675000626e-22
8.061283454e-21
6.350056495e-21
5.277133021e-22
3.372457007e-21
7.948953313e-21
2.241159256e-20
1.49020567e-20
7.851293704e-21
6.496248218e-21
3.057416487e-21
2.262562417e-22
5.363956943e-21
9.201798536e-21
2.729217022e-20
5.91280236e-21
1.487663501e-20
4.953645075e-21
3.455811096e-21
1.630784152e-20
1.635580436e-20
2.994458062e-21
6.390464034e-21
1.571727368e-21
2.969708201e-22
4.341768705e-22
7.817002219e-22
6.060763446e-21
9.710550734e-22
4.048075088e-21
5.010365905e-21
9.287354304e-21
1.295013536e-20
1.536583069e-21
6.043520172e-22
3.372794097e-21
6.772484319e-21
6.812058088e-21
6.500681266e-21
2.889186332e-22
5.375560126e-21
3.6112419e-20
2.347482363e-21
3.691022712e-22
3.777015677e-21
2.185052423e-21
2.116720117e-21
2.205971345e-21
6.019160557e-21
9.353943625e-22
2.801033872e-22
3.703815694e-21
2.528032654e-21
2.191170967e-21
4.339856854e-21
3.901128417e-23
6.465217465e-22
9.05200812e-21
5.762233771e-24
1.05590151e-21
2.504468729e-21
1.954320567e-21
1.207238708e-20
1.617341561e-24
1.792381556e-21
2.200198947e-21
3.9577292e-21
1.853100186e-21
1.891462947e-21
2.59753941e-21
1.22664039e-20
3.075356944e-21
5.026182756e-22
1.912220096e-20
2.132887395e-21
7.039902696e-22
6.362719604e-21
1.151600498e-21
9.923859075e-21
2.552235168e-21
1.188594083e-21
1.258662662e-22
2.434250903e-21
7.168935932e-21
1.390974228e-20
3.65370856e-21
3.171274524e-21
1.83218667e-21
4.190510524e-20
6.612710512e-21
1.835605442e-20
3.2242522e-21
2.342934468e-21
2.470846966e-20
2.257427268e-23
7.602771574e-21
2.880923007e-21
2.308578947e-21
6.108780318e-23
7.032446239e-21
3.450698657e-21
7.814619217e-21
1.122846649e-21
1.323120492e-21
4.734906725e-22
6.629982632e-21
1.632348931e-21
5.727127421e-21
2.27156677e-21
1.842875279e-20
9.306441713e-20
5.756513668e-21
3.279299716e-21
4.749593487e-21
2.792153914e-21
9.729874197e-21
9.340492999e-23
4.538430353e-21
6.475552965e-22
4.320093305e-21
1.365260895e-21
1.863369999e-21
1.485993328e-21
1.171575083e-21
2.5235225e-21
2.455469632e-20
5.706350845e-21
8.461041399e-21
1.866715828e-20
3.845385467e-21
3.028316439e-21
9.533685539e-21
6.073768211e-22
1.537638012e-21
7.234074921e-21
9.125759403e-21
4.580878161e-21
1.038856364e-20
2.234623107e-21
1.697317173e-21
1.351264458e-21
1.068273485e-20
1.450858117e-21
3.293384299e-21
7.709717927e-24
3.994491714e-20
3.660704018e-21
8.163180629e-21
4.028411015e-21
8.585257325e-21
1.86288416e-21
5.496499523e-21
7.613453085e-21
1.99579582e-21
2.426196733e-22
1.559902127e-21
7.097466998e-22
1.302707746e-20
4.329706354e-22
7.742640066e-21
9.205723492e-21
1.725536321e-21
1.382487629e-21
3.945757347e-22
1.353922775e-22
1.080047783e-21
5.682459374e-21
4.468865893e-22
2.965781335e-21
9.541602349e-22
7.504597796e-21
7.624727746e-22
9.820159465e-21
4.300343457e-21
1.077461979e-20
6.048033276e-21
2.896413572e-21
3.723227461e-21
9.518275609e-22
3.056056596e-22
5.942971574e-21
1.784976261e-21
1.370867085e-22
4.270587238e-21
7.247288554e-21
1.163753138e-20
1.016505035e-21
8.000728418e-22
2.065956789e-21
2.139605135e-21
9.615652335e-21
9.636510617e-21
8.435331356e-22
2.198265591e-20
1.437116294e-21
6.449839961e-21
2.181002683e-21
1.086994543e-21
3.71395839e-21
2.606773376e-21
7.097455848e-21
4.073458507e-22
1.487345354e-21
2.739820797e-21
2.773209722e-21
3.176315925e-21
8.503794237e-21
2.577205847e-21
1.219266419e-22
1.935294024e-21
4.533481702e-23
7.594979041e-21
7.263312342e-21
1.845233457e-21
3.752594679e-21
7.422691785e-21
1.135896582e-21
9.183087093e-22
6.902644939e-22
7.508729118e-21
1.153229707e-21
5.998098141e-21
4.169214114e-20
8.144292312e-21
2.545708278e-20
3.96144247e-21
1.060077522e-20
1.223496149e-20
1.457344752e-20
2.128821036e-23
1.01588008e-21
4.628810052e-21
2.041384413e-21
1.94426078e-21
1.134165838e-21
3.027701338e-20
3.81710711e-21
2.657123887e-20
1.154920923e-21
3.627739506e-21
3.19770302e-21
7.924911224e-22
3.547776312e-21
4.561654558e-21
2.057663786e-21
9.457624e-23
8.827880279e-23
1.8025932e-21
8.705887035e-22
2.387720324e-21
3.225277144e-21
1.508547395e-20
5.042446567e-22
3.936014413e-22
7.471629045e-22
2.143171896e-22
5.023663374e-21
5.143335249e-22
3.656955726e-21
4.366153141e-21
4.119037241e-21
1.502276489e-21
1.15074131e-21
2.348778007e-21
2.419176645e-21
1.897062633e-20
1.214169102e-20
4.974345826e-21
6.186595461e-21
2.063077378e-21
2.236991684e-21
2.701611485e-22
7.850037045e-21
8.184861449e-21
1.012105277e-22
5.828883367e-22
1.181735317e-20
1.663587624e-21
4.708075939e-22
7.445920876e-22
1.878020927e-21
5.592284788e-21
1.907633728e-22
7.146325761e-21
6.095801324e-21
2.957378754e-22
3.788634224e-21
5.453783547e-21
4.723337715e-22
4.456407502e-21
7.352539058e-22
1.23505549e-21
9.203306773e-22
4.647545739e-21
2.801910916e-21
8.437117311e-21
1.285583827e-20
7.294339481e-21
1.477550073e-20
1.44794668e-20
5.391533988e-22
9.942579298e-22
1.463991119e-21
1.826822645e-20
8.967853549e-21
2.211347075e-21
3.919444441e-22
1.209079465e-20
9.63730664e-22
3.309454475e-21
8.396830206e-21
8.676400596e-21
1.438128943e-21
5.131981648e-22
2.166614627e-21
1.087277304e-20
4.765094244e-21
6.835931522e-21
5.269318676e-21
3.987081287e-21
2.100335995e-21
1.388202759e-20
7.914118156e-21
3.795656786e-21
9.69088529e-21
3.320795226e-21
1.473613464e-21
1.005454541e-21
4.551840654e-21
2.075158439e-21
3.481886704e-21
2.030729186e-22
8.474730345e-22
5.011507938e-22
1.058329389e-21
6.330513657e-22
1.200972275e-21
2.962664655e-21
3.631487228e-21
5.030598841e-21
1.514329571e-21
2.850505176e-21
1.953724358e-21
2.664361847e-20
5.787020946e-21
3.268559767e-21
1.612151827e-21
6.536131802e-22
3.732297884e-21
8.784680478e-21
9.884532028e-21
5.889046846e-21
6.11932147e-21
1.039606944e-20
4.646771802e-21
2.288034572e-21
4.869491593e-21
3.094887687e-21
2.68781801e-21
9.766258067e-21
9.169091494e-21
1.036309096e-21
3.259343098e-23
2.924258595e-21
1.246872272e-20
2.80880589e-21
4.882097159e-21
2.09461158e-21
5.128443609e-21
3.993715022e-21
2.74533311e-21
4.289235888e-22
4.70206154e-23
1.340187105e-21
9.680481242e-21
1.50439279e-21
1.660040795e-21
7.690047467e-21
6.026156892e-21
2.559944167e-20
1.656211905e-21
3.911323909e-21
7.19705918e-23
2.122428354e-21
4.782075713e-21
2.344437069e-20
2.793756821e-21
9.0394176e-22
4.038717818e-21
6.561767142e-21
1.133598291e-21
2.407501405e-20
1.048461525e-20
1.290236444e-21
7.531629227e-21
1.469667673e-20
9.744180982e-21
2.451759513e-22
5.086696888e-21
1.10401867e-22
2.106552763e-21
3.295987595e-21
5.437233866e-22
8.218468026e-21
5.585219137e-22
9.131584438e-22
9.587370936e-21
1.151456396e-20
3.804556101e-20
1.69799508e-21
9.307768472e-21
1.797405913e-21
5.123312464e-22
1.057823724e-22
9.032547018e-22
6.296421575e-21
1.075433134e-21
3.810813564e-21
3.061898122e-21
5.62964354e-21
2.450201987e-23
1.345114347e-21
2.676607915e-21
2.545386009e-21
3.387294555e-21
4.675614512e-21
1.308145464e-21
1.117196692e-20
9.233769546e-21
6.47193269e-21
7.809248283e-21
3.09834464e-21
5.692562831e-21
8.432684978e-22
2.739290441e-21
2.683063097e-21
1.032466143e-20
1.802761748e-20
2.145865024e-21
2.852645775e-21
3.934793467e-24
2.803543121e-21
5.387070213e-22
4.180687305e-21
3.913135839e-21
2.042278974e-21
6.884684182e-22
1.065166673e-21
1.636257793e-21
1.308019229e-21
9.735028018e-21
7.466031213e-21
4.202271745e-21
2.310069968e-21
5.238498841e-21
6.613536589e-21
1.726374883e-21
1.276688527e-21
1.866707924e-21
1.274444993e-21
2.538237115e-20
3.0613187e-21
2.015991211e-21
4.434374421e-20
1.306506265e-20
4.350946292e-22
2.417366063e-21
3.078317873e-20
5.670180855e-21
3.658409657e-21
1.173772158e-20
3.829536588e-21
1.517359826e-20
5.669102268e-21
4.126338258e-21
1.987518832e-20
2.136273188e-21
4.98577325e-20
2.166087593e-21
5.003929443e-21
3.75178304e-22
3.601083981e-20
1.050202083e-21
4.352191195e-21
1.723123339e-21
2.191163266e-21
1.339956788e-20
7.541451913e-21
6.294925607e-22
1.810735998e-21
1.029846681e-20
1.467482722e-20
2.048291768e-21
1.981184049e-21
4.722852436e-21
1.956781776e-23
2.68579178e-23
8.124064458e-21
6.641461816e-21
1.269087953e-20
1.499607724e-21
8.615854824e-21
1.750581572e-22
4.924432662e-21
2.054146432e-21
2.354630156e-21
6.466838325e-22
1.531658467e-22
2.807815721e-21
2.73545981e-21
2.239024035e-21
2.973742956e-21
2.246409317e-21
6.289013572e-21
7.963491222e-21
9.729141765e-21
2.167585607e-21
2.287177068e-21
6.640364396e-21
9.61962314e-22
1.147112216e-21
5.535171504e-22
2.361102844e-21
1.096676948e-20
3.170625404e-22
6.3447054e-21
3.787837853e-21
1.394734331e-21
4.911981083e-22
7.822770377e-24
9.047810489e-22
1.978666272e-21
8.433167754e-22
7.536393967e-22
1.227785189e-20
2.735090322e-22
4.834663721e-22
5.805113802e-22
1.62348129e-21
5.348972694e-22
5.947859145e-21
3.89126032e-21
1.413708501e-20
1.184896197e-20
4.677768933e-22
3.04519342e-21
3.627908737e-21
8.494187759e-22
1.878785871e-21
8.505016949e-22
7.104456953e-21
4.735855536e-22
1.621659694e-21
1.638715674e-21
1.405223197e-21
6.797415629e-21
1.670380688e-20
4.468728373e-21
3.531941465e-21
3.06931752e-22
1.15807435e-21
4.412709234e-22
4.255699268e-21
3.36015955e-21
2.085634332e-20
3.018214298e-21
1.884969131e-21
9.48403911e-21
2.490641713e-21
5.044437941e-22
1.470719819e-20
3.534955522e-21
1.509172046e-21
1.085945753e-20
1.663932739e-21
1.803058474e-21
3.285453169e-21
5.538112129e-21
6.711709284e-22
2.922347637e-21
1.240843997e-21
3.797372329e-21
8.061704457e-21
1.294708481e-21
3.170235303e-21
2.717659026e-22
2.773926171e-21
1.265840777e-22
1.492802581e-20
4.995083805e-21
4.024927222e-21
1.15782286e-21
2.827341449e-21
3.488425346e-21
2.383924401e-21
7.278372917e-21
4.630072818e-22
3.060823057e-22
8.332630742e-21
3.250171974e-21
9.176085769e-22
1.258803377e-21
2.475588655e-21
7.914457934e-22
3.247660699e-21
2.827842172e-22
3.706922856e-21
3.342619135e-22
1.528503068e-20
6.228900639e-21
5.258307291e-21
7.340124146e-22
7.306745347e-21
1.859941108e-21
1.502297263e-21
2.765262359e-21
4.928818576e-23
4.056214008e-21
2.206468768e-21
1.224052535e-21
3.531480285e-22
7.969522164e-21
2.748229629e-21
7.865177372e-21
6.52376328e-23
1.227430933e-20
4.726334751e-21
3.507315686e-21
1.091468685e-20
2.734719946e-21
2.281971326e-21
2.164708425e-21
1.715006653e-20
5.991498548e-20
3.25889645e-22
4.16104887e-21
3.760533879e-22
6.292715677e-21
5.394464409e-21
1.746337112e-20
6.464719219e-21
3.73478853e-21
5.725962904e-21
1.10916802e-20
3.041546025e-21
1.07262062e-20
5.755268003e-21
3.492742457e-21
4.424217016e-21
2.399025161e-21
3.483981817e-22
3.678120655e-21
4.2439569e-21
5.247775957e-22
8.061848936e-21
5.454049387e-22
2.720746181e-21
1.400267834e-22
2.269064832e-21
1.501676221e-21
1.588650092e-21
8.710284349e-22
1.133816037e-20
7.754818444e-22
2.64615041e-21
1.135290331e-21
4.865042689e-22
2.095480441e-21
8.105755776e-21
3.796091375e-21
1.238791094e-21
1.745083403e-21
1.320883676e-21
3.748424169e-21
1.703823506e-21
1.536285582e-20
2.045743939e-21
6.752453805e-21
1.903993836e-20
2.870940411e-21
1.075173247e-20
2.614831312e-21
2.536327268e-21
7.556725865e-21
3.543409761e-21
3.82419396e-21
1.138206016e-20
8.941676414e-21
2.290999911e-21
2.649691171e-21
1.461107047e-21
2.813169118e-21
3.227200096e-21
1.740049084e-21
7.542239571e-21
5.275699489e-21
2.654987267e-21
2.592009291e-21
2.633264437e-21
4.977598157e-21
7.034380054e-21
1.989111718e-21
1.120952596e-22
2.71570873e-21
3.335834045e-21
8.738598075e-22
3.472607825e-21
5.909086759e-21
2.937311935e-21
1.496941385e-21
4.863982352e-21
1.657171212e-20
6.700858704e-21
6.432378286e-21
8.252427857e-22
1.785434957e-21
7.645816373e-21
8.480142169e-22
1.399612363e-20
6.779282074e-20
1.222197092e-21
4.332176174e-21
8.164055084e-21
1.838826907e-21
1.146832794e-20
5.452383019e-21
1.579721677e-20
3.40002517e-21
1.652436551e-21
5.065357579e-21
4.126852375e-21
5.599575004e-21
1.660280011e-21
4.915324606e-21
4.247257283e-22
7.213985031e-21
1.163708731e-21
1.913098285e-21
4.427931325e-22
3.89415279e-22
1.380699472e-21
9.629543111e-21
1.457947325e-20
1.352046846e-20
9.056299397e-21
1.622105975e-21
9.29431657e-22
3.375626072e-21
8.190598047e-21
1.565865408e-21
1.037135668e-21
5.418604434e-21
2.442116915e-21
7.326829372e-22
1.105306324e-21
4.570841593e-22
1.633012459e-22
2.254504326e-21
1.123426153e-21
5.78567077e-21
1.316466561e-20
6.470186234e-21
2.099643605e-21
5.565580927e-22
8.478935429e-22
4.48673908e-22
1.027665503e-20
2.801835755e-21
4.294157364e-21
1.972988762e-21
1.311578272e-22
5.064021388e-21
1.094503421e-21
2.10505146e-21
5.999891783e-21
1.343150573e-21
5.551609198e-21
1.990680547e-21
1.187915252e-20
1.97318286e-20
4.873497808e-21
2.495447512e-21
6.349182996e-21
2.241836409e-21
2.473795052e-21
3.671927808e-21
2.038588013e-21
5.991262786e-21
4.168973396e-21
3.196652063e-21
6.871973542e-21
2.525646497e-22
2.389205966e-23
1.25382933e-22
5.479035615e-21
2.870280696e-21
1.195571297e-20
9.795347346e-22
1.031341369e-20
4.924285383e-21
1.023290497e-20
4.754587841e-21
2.685512752e-21
7.443627823e-21
9.122473143e-21
3.068604413e-20
2.86417593e-21
5.806326644e-22
2.055981724e-21
1.483241822e-21
2.363349467e-21
1.000970858e-22
7.19715975e-22
2.302332424e-21
7.35916579e-22
3.236563633e-21
4.853582578e-21
5.067274545e-22
1.727739027e-22
8.587649284e-21
1.777582251e-21
7.60646228e-21
2.953643803e-20
7.496415935e-21
3.161173116e-22
1.411612264e-21
3.51527889e-21
3.796816407e-21
3.849488932e-21
3.889158409e-22
8.909459385e-21
9.591478899e-21
3.909058347e-21
1.568166081e-21
5.352396482e-22
4.254884632e-21
1.133009577e-20
5.269651084e-22
1.694007561e-21
3.698564913e-21
3.356162023e-21
2.375160757e-20
1.239430986e-21
4.224501867e-21
6.071277469e-21
1.252636994e-20
5.214877028e-21
4.616068038e-22
1.919486713e-21
5.343047962e-21
8.800095563e-22
2.791260617e-21
4.358973928e-20
8.903619578e-23
1.981059854e-21
8.688939118e-21
4.772742805e-23
2.918213658e-21
7.350754427e-22
8.033299728e-21
3.110090655e-21
8.105173654e-22
5.326227181e-21
1.272603912e-20
1.402392418e-20
1.967085956e-21
6.070002725e-21
3.039557035e-21
2.247537977e-21
2.285611883e-21
5.180690108e-21
5.918536019e-22
5.486778517e-22
2.777924239e-21
1.185294687e-20
1.167683497e-21
1.315638516e-21
1.212869295e-21
1.003410883e-21
2.755665855e-22
4.640051265e-21
5.100489605e-21
2.722395035e-21
1.276278802e-21
7.722184274e-22
4.830755173e-21
7.689285251e-22
8.450845178e-22
1.475485246e-20
1.763107584e-20
7.364812341e-21
4.547976922e-21
1.96339947e-20
7.340237886e-21
7.187436875e-21
8.305180576e-22
1.085570363e-21
1.412932543e-20
8.154818712e-21
1.007857119e-22
6.737590796e-21
1.311345393e-21
2.718071329e-21
2.058996121e-21
7.30989971e-22
5.412827044e-21
1.361732583e-20
1.792610689e-21
3.045739278e-21
4.599097835e-21
4.847142016e-21
1.308617975e-21
2.2403063e-21
1.045517463e-21
2.951984199e-21
1.571323964e-21
7.643385223e-21
1.060606035e-20
8.776495821e-22
1.169784216e-20
2.467752884e-21
1.316437216e-21
5.027349343e-23
9.292018188e-23
4.815151334e-22
6.243041587e-21
5.14639459e-21
4.23066354e-21
1.037779376e-20
1.520130035e-21
1.53880566e-21
4.720385656e-22
6.21444188e-22
1.462822336e-21
1.10747753e-20
8.299728604e-21
2.623864462e-23
3.873124892e-21
1.184442379e-21
3.816379535e-21
5.010169178e-21
1.494298972e-21
3.560586242e-21
7.29664569e-21
2.224487368e-21
4.434931137e-21
6.647205261e-22
1.047247017e-20
3.484248013e-21
6.676332497e-23