/*--------------------------------*- C++ -*----------------------------------*\
| =========                 |                                                 |
| \\      /  F ield         | OpenFOAM: The Open Source CFD Toolbox           |
|  \\    /   O peration     | Version:  2406                                  |
|   \\  /    A nd           | Website:  www.openfoam.com                      |
|    \\/     M anipulation  |                                                 |
\*---------------------------------------------------------------------------*/
FoamFile
{
    version     2.0;
    format      ascii;
    arch        "LSB;label=32;scalar=64";
    class       labelField;
    location    "0.012/lagrangian/dsmc";
    object      origId;
}
// * * * * * * * * * * * * * * * * * * * * * * * * * * * * * * * * * * * * * //


6876
(
599858
603150
603352
603466
604274
604505
605002
605009
605208
605700
606315
606438
606538
606540
606634
606754
606755
606756
607146
607265
607439
607441
607557
607743
607839
607874
607965
608046
608059
608066
608083
608150
608263
608272
608362
608368
608572
608588
608661
608688
608689
608692
608694
608789
608791
608793
608798
608806
608908
608967
608988
608995
609069
609071
609080
609081
609084
609088
609192
609204
609216
609287
609296
609306
609309
609312
609372
609390
609392
609397
609398
609400
609405
609419
609427
609490
609500
609504
609505
609513
609597
609605
609612
609712
609714
609716
609721
609791
609797
609800
609801
609808
609819
609905
609908
609911
609916
609917
609919
609994
610001
610011
610014
610015
610020
610026
610041
610103
610105
610111
610130
610133
610200
610203
610208
610213
610243
610257
610291
610312
610316
610321
610328
610333
610359
610408
610413
610419
610420
610431
610433
610436
610437
610440
610450
610497
610505
610507
610510
610516
610530
610538
610562
610571
610604
610611
610613
610614
610618
610619
610621
610625
610636
610639
610647
610667
610700
610707
610711
610712
610713
610717
610719
610726
610731
610740
610744
610746
610805
610809
610820
610824
610825
610830
610832
610845
610847
610850
610871
610873
610914
610916
610922
610926
610927
610928
610955
610970
611008
611009
611013
611016
611021
611027
611032
611038
611040
611042
611118
611121
611124
611125
611129
611133
611134
611137
611143
611150
611211
611212
611213
611218
611221
611230
611235
611236
611240
611242
611258
611264
611265
611287
611291
611293
611321
611328
611332
611334
611336
611338
611340
611343
611346
611347
611350
611358
611359
611361
611367
611368
611414
611425
611428
611430
611433
611440
611447
611451
611454
611456
611457
611461
611465
611472
611527
611528
611529
611530
611538
611540
611544
611546
611547
611550
611557
611558
611560
611565
611576
611625
611630
611631
611634
611635
611639
611641
611643
611645
611647
611651
611654
611665
611673
611683
611721
611740
611744
611745
611746
611749
611756
611759
611762
611767
611769
611770
611777
611783
611788
611835
524562
611841
611843
611844
611845
611848
611849
611861
611865
611872
611888
611893
611907
611924
611936
611938
611941
611943
611945
611949
611951
611952
611954
611957
611958
611962
611963
611968
611972
611975
611978
611982
611983
611995
612009
612032
612038
612039
612042
612043
612045
612049
612050
612053
612059
612060
612062
612077
612086
612095
612099
612100
612101
612104
612126
612133
612134
612135
612137
612143
612145
612147
612148
612153
612155
612156
612157
612160
612169
612170
612182
612184
612187
612188
612192
612206
612222
612231
612238
612240
612242
612249
612250
612252
612253
612256
612257
612258
612259
612261
612267
612268
612274
612275
612282
612283
612285
612288
612289
612295
612298
612308
612320
612331
612333
612339
612341
612342
612343
612344
612345
612347
612350
612351
612352
612353
612355
612356
612357
612360
612361
612362
612364
612365
612366
612376
612381
612385
612391
612399
612405
612421
612434
612436
612437
612438
612439
612440
612442
612448
612450
612454
612455
612457
612459
612460
612461
612464
612466
612467
612469
612470
612472
612476
612478
612479
612493
612494
612495
612504
612505
612509
612522
612529
612530
612533
612539
612546
612547
612548
612557
612558
612559
612560
612563
612565
612566
612568
612569
612570
612571
612572
612575
612576
612577
612579
612580
612582
612586
612588
612589
612590
612595
612597
612598
612601
612602
612618
612620
612622
612625
612628
612632
612651
612652
612653
612660
612664
612665
612666
612667
612668
612669
612674
612675
612679
612680
612682
612683
612686
612687
612688
612698
612699
612713
612715
612716
612719
612722
612724
612730
612731
612733
612738
612742
612744
612746
612756
612757
612758
612761
612763
612765
612767
612768
612770
612771
612775
612777
612778
612780
612781
612782
612783
612784
612785
612788
612789
612790
612791
612794
612795
612798
612800
612802
612803
612804
612807
612809
612811
612812
612814
612816
612820
612823
612831
612832
612834
612836
612838
612844
612847
612851
612854
612856
612861
612862
612863
612865
612867
612868
612871
612872
612873
612875
612876
612877
612878
612879
612880
612881
612882
612883
612884
612885
612888
612890
612893
612897
612900
612903
612904
612905
612907
612909
612911
612912
612918
612922
612925
612928
612929
612930
612931
612933
612941
612944
612945
612948
612949
612953
612962
612963
612965
612966
612967
612968
612969
612971
612973
612975
612976
612977
612978
612979
612980
612981
612982
612983
612985
612987
612988
612989
612992
612993
612997
612998
613000
613001
613002
613003
613005
613006
613007
613008
613009
613010
613011
613014
613015
613016
613017
613020
613021
613026
613027
613028
613030
613033
613037
613038
613039
613042
613043
613047
613048
613049
613050
613053
613067
613072
613073
613077
613078
613080
613083
613084
613086
613087
613088
613089
613090
613091
613092
613093
613094
613095
613097
613098
613100
613102
613104
613105
613106
613107
613109
613111
613113
613114
613115
613118
613123
613126
613129
613134
613135
613137
613141
613142
613143
613145
613154
613155
613162
613170
613171
613174
613175
613176
613177
613178
613180
613183
613186
613188
613189
613190
613191
613193
613194
613195
613196
613197
613198
613201
613203
613204
613207
613208
613209
613210
613212
613216
613217
613218
613219
613222
613224
613225
613227
613232
613233
613235
613240
613241
613242
613244
613247
613250
613253
613254
613258
613260
613262
613263
613265
613267
613269
613271
613272
613273
613274
613275
613276
613277
613278
613279
613282
613283
613284
613285
613287
613289
613290
613291
613292
613294
613296
613299
613300
613302
613303
613304
613305
613306
613308
613309
613310
613312
613314
613317
613318
613321
613323
613325
613327
613330
613331
613334
613336
613338
613340
613343
613344
613345
613347
613350
613351
613354
613367
613368
613369
613374
613377
613378
613379
613380
613384
613385
613386
613387
613388
613389
613390
613391
613392
613393
613394
613396
613397
613398
613399
613400
613405
613406
613407
613408
613410
613412
613413
613414
613417
613418
613419
613420
613422
613423
613424
613426
613427
613428
613429
613430
613431
613433
613434
613435
613437
613440
613443
613447
613448
613452
613454
613458
613461
613464
613467
613468
613469
525971
613474
613475
613477
613480
613481
613484
613485
613486
613487
613490
613491
613492
613493
613494
613495
613496
613497
613498
613499
613500
613501
613503
613505
613506
613508
613509
613510
613511
613514
613515
613516
613518
613519
613520
613521
613522
613524
613525
613528
613529
613530
613531
613532
613533
613534
613535
613536
613537
613538
613539
613540
613543
613544
613545
613548
613549
613552
613555
613556
613557
613558
613559
613561
613562
613570
613571
613572
613573
613577
613578
613581
613582
613584
613585
613586
613587
613589
613590
613591
613592
613594
613595
613596
613597
613598
613600
613601
613602
613605
613606
613607
613608
613609
613611
613612
613613
613614
613615
613616
613617
613619
613620
613621
613623
613624
613626
613627
613628
613631
613632
613633
613634
613635
613637
613640
613642
613643
613644
613645
613647
613648
613649
613650
613652
613655
613659
613662
613664
613671
524748
526233
613673
613677
613679
613680
613681
613682
613683
613684
613685
613687
613688
613689
613690
613691
613692
613693
613694
613695
613696
613697
613698
613699
613700
613702
613703
613705
613706
613708
613709
613710
613711
613712
613716
613717
613718
613719
613721
613722
613724
613725
613726
613728
613729
613730
613731
613732
613733
613734
613735
613736
613737
613738
613739
613741
613742
613743
613745
613747
613748
613749
613750
613751
613753
613754
613757
613758
613760
613761
613763
613764
613766
613767
613770
613772
613773
613775
613779
613780
613784
613785
613787
613789
613791
613792
613793
613794
613795
613796
613797
613799
613800
613801
613802
613803
613804
613805
613806
613808
613809
613810
613811
613812
613813
613814
613816
613817
613818
613819
613820
613821
613822
613823
613824
613825
613826
613827
613831
613832
613833
613834
613835
613836
613837
613838
613839
613840
613842
613844
613846
613847
613848
613849
613851
613852
613854
613855
613856
613859
613860
613861
613862
613863
613864
613866
613867
613870
613872
613874
613880
613885
613886
613887
613888
613889
613890
613891
613893
613894
613895
613896
613897
613898
613899
613900
613901
613902
613903
613904
613905
613906
613907
613908
613909
613910
613911
613912
613913
613915
613916
613917
613918
613919
613920
613921
613922
613923
613924
613925
613928
613929
613930
613931
613933
613934
613935
613936
613937
613938
613939
613940
613941
613942
613943
613945
613946
613947
613948
613949
613950
613951
613953
613955
613956
613957
613958
613959
613960
613961
613963
613964
613966
613967
613968
613969
613970
613971
613976
613978
613980
526485
613986
613987
613988
613990
613993
613994
613996
613997
613998
613999
614000
614001
614003
614004
614005
614007
614008
614009
614010
614011
614012
614013
614014
614015
614016
614017
614018
614019
614020
614021
614022
614023
614024
614026
614027
614028
614029
614030
614031
614032
614033
614034
614035
614036
614037
614039
614040
614041
614042
614043
614044
614045
614046
614047
614048
614049
614051
614052
614053
614055
614056
614057
614058
614059
614060
614061
614062
614063
614064
614065
614066
614067
614068
614070
614072
614073
614074
614075
614076
614077
614078
614080
614082
614083
614088
614090
614091
614093
614094
614095
614096
614097
614098
614099
614100
614101
614102
614103
614104
614105
614106
614107
614108
614109
614110
614111
614112
614113
614114
614115
614116
614117
614118
614119
614120
614121
614122
614124
614125
614126
614127
614128
614129
614130
614131
614132
614133
614134
614135
614136
614137
614138
614139
614140
614141
614142
614143
614144
614145
614146
614147
614148
614149
614150
614151
614152
614153
614154
614155
614156
614157
614158
614160
614163
614165
614166
614167
614169
614170
614172
614176
614177
614179
614180
614181
614183
614187
614188
614191
614192
614194
614195
614196
614197
614199
614200
614201
614202
614204
614205
614206
614208
614209
614210
614211
614212
614213
614214
614215
614216
614217
614218
614219
614220
614221
614222
614223
614224
614225
614226
614227
614228
614229
614230
614231
614232
614233
614234
614235
614236
614237
614238
614239
614240
614241
614242
614243
614244
614245
614246
614247
614248
614249
614250
614251
614252
614253
614254
614255
614256
614257
614258
614259
614260
614262
614263
614267
614268
614269
614270
614271
614272
614273
614279
614280
614282
614283
614284
614285
614287
614291
614293
614294
526488
614295
614299
614300
614302
614306
614307
614308
614309
614310
614311
614312
614313
614314
614315
614316
614317
614318
614319
614320
614321
614322
614323
614324
614325
614327
614328
614329
614330
614332
614333
614334
614335
614336
614337
614338
614339
614340
614342
614343
614344
614345
614346
614347
614348
614349
614350
614351
614352
614353
614354
614355
614356
614357
614358
614359
614360
614361
614362
614363
614364
614366
614367
614368
614369
614370
614371
614372
614373
614374
614375
614376
614377
614379
614380
614381
614382
614383
614384
614385
614387
614390
614392
614396
614397
614398
614399
614400
614405
526937
614409
614415
614416
614418
614419
614420
614421
614422
614423
614424
614425
614426
614427
614428
614429
614430
614431
614432
614433
614434
614435
614436
614437
614438
614439
614440
614441
614442
614443
614444
614445
614446
614447
614448
614450
614452
614453
614454
614455
614456
614457
614458
614459
614460
614461
614462
614463
614464
614465
614466
614467
614468
614469
614470
614471
614472
614473
614474
614475
614476
614477
614478
614479
614480
614481
614482
614484
614485
614486
614487
614488
614489
614491
614492
614494
614495
614496
614498
614499
614500
614503
614504
611111
526659
614505
614509
614510
614511
614512
614513
614515
614518
614520
614521
614522
614523
614524
614525
614526
614527
614528
614529
614530
614531
614532
614533
614535
614536
614537
614538
614539
614540
614541
614542
614543
614544
614545
614546
614547
614548
614549
614550
614551
614552
614553
614554
614555
614556
614557
614558
614559
614560
614561
614562
614563
614564
614565
614566
614567
614568
614569
614570
614571
614572
614573
614575
614576
614577
614578
614579
614580
614581
614582
614583
614584
614585
614586
614587
614588
614589
614590
614591
614593
614594
614595
614596
614599
614600
614601
526060
614603
614605
614606
614607
614608
614609
614610
614611
614613
614614
614615
614616
614617
614618
614619
614620
614621
614622
614623
614624
614625
614626
614627
614628
614629
614630
614631
614632
614633
614634
614635
614636
614637
614638
614639
614640
614642
614643
614644
614645
614646
614647
614648
614649
614651
614652
614653
614654
614655
614656
614657
614658
614659
614660
614661
614662
614663
614664
614665
614667
614668
614669
614670
614671
614672
614673
614674
614675
614676
614677
614678
614679
614680
614681
614682
614683
614684
614686
614687
614689
614691
614692
614693
614695
614696
614697
614699
614700
525815
526404
526408
526662
614701
614704
614705
614706
614710
614711
614712
614714
614715
614716
614717
614718
614719
614720
614721
614722
614723
614724
614725
614726
614727
614728
614729
614730
614731
614732
614733
614734
614735
614736
614737
614738
614739
614740
614741
614742
614743
614744
614745
614746
614747
614748
614749
614750
614751
614752
614753
614754
614755
614756
614757
614758
614759
614760
614761
614762
614763
614764
614765
614766
614767
614768
614769
614770
614771
614772
614773
614774
614775
614776
614777
614778
614779
614782
614783
614784
614785
614786
614787
614788
614789
614790
614792
614794
614797
614798
614799
614800
614801
614802
614803
614804
614805
614806
614807
614812
614814
614816
614817
614818
614819
614820
614821
614822
614823
614824
614825
614826
614827
614828
614829
614830
614831
614832
614833
614834
614835
614836
614837
614838
614839
614840
614841
614842
614843
614844
614845
614846
614847
614848
614849
614850
614851
614852
614853
614854
614855
614856
614857
614858
614859
614860
614861
614862
614863
614864
614865
614866
614867
614868
614869
614870
614871
614872
614873
614874
614875
614876
614877
614878
614879
614880
614881
614882
614883
614884
614885
614886
614887
614888
614889
614890
614892
614893
614894
614895
614896
614897
614899
614900
614903
614904
614905
614906
614909
614910
614912
614913
614914
614916
614918
614919
614920
614921
614922
614923
614924
614925
614926
614927
614928
614929
614930
614931
614932
614933
614934
614935
614936
614937
614938
614939
614940
614941
614942
614943
614944
614945
614946
614947
614948
614949
614950
614951
614952
614953
614954
614955
614956
614957
614958
614959
614960
614961
614962
614963
614964
614965
614966
614967
614968
614969
614970
614971
614972
614973
614974
614975
614976
614977
614978
614979
614980
614981
614982
614983
614984
614985
614986
614987
614988
614989
614990
614991
614994
614996
614997
614999
615000
615002
615003
615004
615005
615007
615009
615010
615011
615013
615016
615017
615018
615019
615020
615021
615022
615023
615024
615025
615026
615027
615028
615029
615030
615031
615032
615033
615034
615035
615036
615037
615038
615039
615040
615041
615042
615043
615044
615045
615046
615047
615048
615049
615050
615051
615052
615053
615054
615055
615056
615057
615058
615059
615060
615061
615062
615063
615064
615065
615066
615067
615068
615069
615070
615071
615072
615073
615074
615075
615076
615077
615078
615079
615080
615082
615083
615084
615085
615086
615087
615088
615089
615090
615092
615096
615100
615101
615102
615103
525355
525902
526322
527385
527387
615106
615108
615109
615111
615112
615113
615114
615117
615118
615119
615120
615121
615122
615123
615124
615125
615126
615127
615128
615129
615130
615131
615132
615133
615134
615135
615136
615137
615138
615139
615140
615141
615142
615143
615144
615145
615146
615147
615148
615149
615150
615151
615152
615153
615154
615155
615156
615157
615158
615159
615160
615161
615162
615163
615164
615165
615166
615167
615168
615169
615170
615171
615172
615173
615174
615175
615176
615177
615178
615179
615180
615181
615182
615183
615184
615185
615186
615187
615188
615189
615190
615191
615192
615193
615194
615195
615196
615197
615198
615199
615200
615202
615203
615204
615207
527103
614395
615210
615212
615215
615217
615218
615219
615221
615222
615223
615225
615226
615228
615229
615230
615231
615232
615233
615234
615235
615236
615237
615238
615239
615240
615241
615242
615243
615244
615245
615246
615247
615248
615249
615250
615251
615252
615253
615254
615255
615256
615257
615258
615259
615260
615261
615262
615263
615264
615265
615266
615267
615268
615269
615270
615271
615272
615273
615274
615275
615276
615277
615278
615279
615280
615281
615282
615283
615284
615285
615286
615287
615288
615289
615290
615291
615293
615294
615295
615297
615298
615299
615303
615304
615305
615306
527101
527102
615308
615309
615310
615312
615313
615314
615316
615317
615319
615320
615321
615322
615323
615324
615325
615326
615327
615328
615329
615330
615331
615332
615333
615334
615335
615336
615337
615338
615339
615340
615341
615342
615343
615344
615345
615346
615347
615348
615349
615350
615351
615352
615353
615354
615355
615356
615357
615358
615359
615360
615361
615362
615363
615364
615365
615366
615367
615368
615369
615370
615371
615372
615373
615374
615375
615376
615377
615378
615379
615380
615381
615382
615383
615384
615385
615386
615387
615388
615389
615390
615391
615392
615393
615394
615395
615396
615397
615398
615399
615401
615402
615403
615404
615407
615409
526229
527725
527800
527802
615413
615414
615416
615421
615422
615423
615424
615425
615426
615428
615429
615431
615432
615433
615434
615435
615436
615437
615438
615439
615440
615441
615442
615443
615444
615445
615446
615447
615448
615449
615450
615451
615452
615453
615454
615455
615456
615457
615458
615459
615460
615461
615462
615463
615464
615465
615466
615467
615468
615469
615470
615471
615472
615473
615474
615475
615476
615477
615478
615479
615480
615481
615482
615483
615484
615485
615486
615487
615488
615489
615490
615492
615493
615494
615495
615496
615497
615498
615499
615500
615502
615503
615504
525166
526936
615506
615508
615509
615514
615515
615516
615517
615518
615520
615521
615522
615523
615524
615525
615526
615527
615528
615529
615530
615531
615532
615533
615534
615535
615536
615537
615538
615539
615540
615541
615542
615543
615544
615545
615546
615547
615548
615549
615550
615551
615552
615553
615554
615555
615556
615557
615558
615559
615560
615561
615562
615563
615564
615565
615566
615567
615568
615569
615570
615571
615572
615573
615574
615575
615576
615577
615578
615579
615580
615581
615582
615583
615584
615585
615586
615587
615588
615589
615590
615591
615592
615593
615594
615599
615602
615603
615604
615605
615606
615608
615609
615611
615612
615613
599272
524838
525981
526493
526757
527386
527726
615614
615618
615620
615622
615623
615624
615625
615626
615627
615628
615629
615630
615631
615632
615633
615634
615635
615636
615637
615638
615639
615640
615641
615642
615643
615644
615645
615646
615647
615648
615649
615650
615651
615652
615653
615654
615655
615656
615657
615658
615659
615660
615661
615662
615663
615664
615665
615666
615667
615668
615669
615670
615671
615672
615673
615674
615675
615676
615677
615678
615679
615680
615681
615682
615683
615684
615685
615686
615687
615688
615689
615690
615691
615692
615693
615694
615695
615696
615698
615699
615700
615701
615702
615706
615707
615711
615712
615713
526495
526663
527025
527106
615719
615720
615722
615723
615724
615725
615726
615728
615729
615730
615731
615732
615733
615734
615735
615736
615737
615738
615739
615740
615741
615742
615743
615744
615745
615746
615747
615748
615749
615750
615751
615752
615753
615754
615755
615756
615757
615758
615759
615760
615761
615762
615763
615764
615765
615766
615767
615768
615769
615770
615771
615772
615773
615774
615775
615776
615777
615778
615779
615780
615781
615782
615783
615784
615785
615786
615787
615788
615789
615790
615791
615792
615793
615794
615795
615797
615798
615799
615800
615801
615802
615804
615806
615807
615809
615811
615813
615816
615817
615818
526063
614175
527886
615821
615822
615823
615828
615830
615831
615834
615835
615836
615838
615839
615840
615841
615842
615843
615844
615845
615846
615849
615850
615851
615852
615853
615854
615855
615856
615857
615858
615859
615860
615861
615862
615863
615864
615865
615866
615867
615868
615869
615870
615871
615872
615873
615874
615875
615876
615877
615878
615879
615880
615881
615882
615883
615884
615885
615886
615887
615888
615889
615890
615891
615892
615893
615894
615895
615896
615897
615898
615899
615900
615901
615902
615903
615904
615905
615906
615907
615908
615912
615915
615917
615918
615920
615921
615924
615925
615927
526323
526491
615930
615933
615935
615938
615939
615940
615941
615942
615943
615944
615946
615947
615948
615949
615950
615951
615952
615953
615954
615955
615956
615957
615958
615959
615960
615961
615962
615963
615964
615965
615966
615967
615968
615969
615970
615971
615972
615973
615974
615975
615976
615977
615978
615979
615980
615981
615982
615983
615984
615985
615986
615987
615988
615989
615990
615991
615992
615993
615994
615995
615996
615997
615998
615999
616000
616001
616003
616004
616005
616006
616007
616008
616010
616011
616012
616015
616018
616019
616020
616022
616023
616024
616025
616026
526753
616027
616031
616032
616033
616034
616035
616036
616037
616038
616039
616040
616041
616042
616043
616044
616045
616046
616047
616048
616049
616050
616051
616052
616053
616054
616055
616056
616057
616058
616059
616060
616061
616062
616063
616064
616065
616066
616067
616068
616069
616070
616071
616072
616073
616074
616075
616076
616077
616078
616079
616080
616081
616082
616083
616084
616085
616086
616087
616088
616089
616090
616091
616092
616093
616094
616095
616096
616097
616098
616099
616100
616101
616102
616103
616104
616105
616106
616107
616108
616109
616111
616112
616114
616115
616116
616118
616119
616120
616121
616125
616126
616129
616130
616131
616132
616133
616135
616139
616140
616141
616142
616143
616144
616145
616146
616147
616148
616149
616150
616151
616152
616153
616154
616155
616156
616157
616158
616159
616160
616161
616162
616163
616164
616165
616166
616167
616168
616169
616170
616171
616172
616173
616174
616175
616176
616177
616178
616179
616180
616181
616182
616183
616184
616185
616186
616187
616188
616189
616190
616191
616192
616193
616194
616195
616196
616197
616198
616199
616200
616201
616202
616203
616204
616205
616206
616207
616208
616209
616210
616211
616212
616213
616214
616215
616216
616217
616218
616219
616220
616221
616222
616223
616224
616226
616227
616228
616229
616232
616235
616236
616237
616239
526661
526839
527390
616240
616241
616242
616243
616244
616245
616246
616247
616248
616249
616250
616251
616252
616253
616254
616255
616256
616257
616258
616259
616260
616261
616262
616263
616264
616265
616266
616267
616268
616269
616270
616271
616272
616273
616274
616275
616276
616277
616278
616279
616280
616281
616282
616283
616284
616285
616286
616287
616288
616289
616290
616291
616292
616293
616294
616295
616296
616297
616298
616299
616300
616301
616302
616303
616304
616305
616306
616307
616308
616309
616310
616311
616312
616313
616314
616315
616316
616317
616318
616319
616320
616321
616323
616327
616328
616329
616330
616331
616332
616333
616334
616335
616336
526059
526756
527107
527205
527801
616337
616341
616342
616343
616344
616345
616346
616347
616348
616350
616351
616352
616353
616354
616355
616356
616357
616358
616359
616360
616361
616362
616363
616364
616365
616366
616367
616368
616369
616370
616371
616372
616373
616374
616375
616376
616377
616378
616379
616380
616381
616382
616383
616384
616385
616386
616387
616388
616389
616390
616391
616392
616393
616394
616395
616396
616397
616398
616399
616400
616401
616402
616403
616404
616405
616406
616407
616408
616409
616410
616412
616413
616414
616415
616416
616417
616418
616419
616420
616421
616423
616424
616426
616427
616428
616430
616433
616434
616435
616436
616437
527198
527888
527978
528066
616440
616442
616443
616446
616447
616448
616449
616450
616452
616453
616454
616455
616456
616457
616458
616459
616460
616461
616462
616463
616464
616465
616466
616467
616468
616469
616470
616471
616472
616473
616474
616475
616476
616477
616478
616479
616480
616481
616482
616483
616484
616485
616486
616487
616488
616489
616490
616491
616492
616493
616494
616495
616496
616497
616498
616499
616500
616501
616502
616503
616504
616505
616506
616507
616508
616509
616510
616511
616512
616513
616514
616515
616516
616517
616518
616519
616520
616521
616522
616523
616525
616526
616527
616529
616530
616531
616532
616534
616535
616537
616538
616539
616541
616542
605133
525362
525711
527636
527642
527806
616543
616544
616545
616547
616549
616551
616552
616553
616554
616555
616557
616558
616559
616560
616561
616562
616563
616564
616565
616566
616567
616568
616569
616570
616571
616572
616573
616574
616575
616576
616577
616578
616579
616580
616581
616582
616583
616584
616585
616586
616587
616588
616589
616590
616591
616592
616593
616594
616595
616596
616597
616598
616599
616600
616601
616602
616603
616604
616605
616606
616607
616608
616609
616610
616611
616612
616613
616614
616615
616616
616617
616618
616619
616620
616621
616622
616623
616625
616626
616627
616628
616629
616630
616631
616632
616633
616634
616635
616636
616637
616638
616639
616642
528521
616645
616646
616648
616650
616651
616652
616653
616654
616655
616656
616657
616658
616659
616660
616661
616662
616663
616664
616665
616666
616667
616668
616669
616670
616671
616672
616673
616674
616675
616676
616677
616678
616679
616680
616681
616682
616683
616684
616685
616686
616687
616688
616689
616690
616691
616692
616693
616694
616695
616696
616697
616698
616699
616700
616701
616702
616703
616704
616705
616706
616707
616708
616709
616710
616711
616712
616713
616714
616715
616716
616717
616718
616719
616720
616722
616723
616724
616726
616727
616729
616731
616732
616735
616736
616738
616739
616740
526671
526846
528681
616741
616743
616745
616746
616747
616748
616749
616751
616753
616754
616755
616756
616757
616758
616759
616760
616761
616762
616763
616764
616765
616766
616767
616768
616769
616770
616771
616772
616773
616774
616775
616776
616777
616778
616779
616780
616781
616782
616783
616784
616785
616786
616787
616788
616789
616790
616791
616792
616793
616794
616795
616796
616797
616798
616799
616800
616801
616802
616803
616804
616805
616806
616807
616808
616809
616810
616811
616812
616813
616814
616815
616816
616817
616818
616819
616820
616821
616823
616824
616825
616826
616827
616831
616834
616835
616838
616839
616840
616842
616845
616846
616847
616848
616851
616852
616853
616854
616855
616856
616857
616858
616859
616860
616861
616862
616863
616864
616865
616866
616867
616868
616869
616870
616871
616872
616873
616874
616875
616876
616877
616878
616879
616880
616881
616882
616883
616884
616885
616886
616887
616888
616889
616890
616891
616892
616893
616894
616895
616896
616897
616898
616899
616900
616901
616902
616903
616904
616905
616906
616907
616908
616909
616910
616911
616912
616913
616914
616915
616916
616917
616918
616919
616920
616921
616922
616923
616924
616925
616926
616927
616928
616929
616930
616931
616932
616933
616936
616940
616942
616943
616944
616946
526339
526406
528682
528685
528773
529122
616947
616948
616950
616952
616953
616954
616956
616957
616958
616959
616960
616961
616962
616963
616964
616965
616966
616968
616969
616970
616971
616972
616973
616974
616975
616976
616977
616978
616979
616980
616981
616982
616983
616984
616985
616986
616987
616988
616989
616990
616991
616992
616993
616994
616995
616996
616997
616998
616999
617000
617001
617002
617003
617004
617005
617006
617007
617008
617009
617010
617011
617012
617013
617014
617015
617016
617017
617018
617019
617020
617021
617022
617023
617024
617025
617026
617027
617028
617029
617030
617031
617032
617033
617034
617035
617036
617037
617038
617041
617045
617046
617047
525440
526158
527548
527731
528149
613660
617048
617049
617051
617052
617053
617054
617056
617057
617058
617060
617061
617062
617063
617064
617065
617066
617067
617068
617069
617070
617071
617072
617073
617074
617075
617076
617077
617078
617079
617080
617081
617082
617083
617084
617085
617086
617087
617088
617089
617090
617091
617092
617093
617094
617095
617096
617097
617098
617099
617100
617101
617102
617103
617104
617105
617106
617107
617108
617109
617110
617111
617112
617113
617114
617115
617116
617117
617118
617119
617120
617121
617122
617124
617125
617126
617127
617128
617130
617131
617132
617134
617135
617137
617138
617139
617140
617141
617142
617143
617144
617145
606860
526484
526586
529036
529038
617147
617149
617152
617153
617157
617158
617160
617161
617162
617163
617164
617165
617166
617167
617168
617169
617170
617171
617172
617173
617174
617175
617176
617177
617178
617179
617180
617181
617182
617183
617184
617185
617186
617187
617188
617189
617190
617191
617192
617193
617194
617195
617196
617197
617198
617199
617200
617201
617202
617203
617204
617205
617206