/*--------------------------------*- C++ -*----------------------------------*\
| =========                 |                                                 |
| \\      /  F ield         | OpenFOAM: The Open Source CFD Toolbox           |
|  \\    /   O peration     | Version:  2406                                  |
|   \\  /    A nd           | Website:  www.openfoam.com                      |
|    \\/     M anipulation  |                                                 |
\*---------------------------------------------------------------------------*/
FoamFile
{
    version     2.0;
    format      ascii;
    arch        "LSB;label=32;scalar=64";
    class       Cloud<dsmcParcel>;
    location    "0.012/lagrangian/dsmc";
    object      positions;
}
// * * * * * * * * * * * * * * * * * * * * * * * * * * * * * * * * * * * * * //

6876
(
(0.07525361415 0.04837556413 0) 489
(0.07103609751 0.02033307951 1.084202172e-19) 449
(0.06594061667 0.02904170031 0) 458
(0.05688408914 0.02239946465 5.421010862e-20) 457
(0.049644147 0.02730535117 -2.981555974e-19) 456
(0.05935776105 0.03607208739 0) 467
(0.05682769085 0.01987949615 5.421010862e-20) 447
(0.05872952988 0.03848740875 0) 477
(0.03121567689 0.0223338429 8.131516294e-20) 454
(0.06489213251 0.03091035587 1.219727444e-19) 458
(0.05036239687 0.02656288431 5.421010862e-20) 456
(0.06491342699 0.01990893149 -1.084202172e-19) 448
(0.0594930369 0.09673006082 -2.168404345e-19) 557
(0.0579592296 0.03461976342 5.421010862e-20) 467
(0.0547574028 0.02387714978 2.710505431e-19) 457
(0.06272324187 0.05406231274 -1.355252716e-19) 498
(0.05029155347 0.01815328275 5.421010862e-20) 446
(0.04692882765 0.03603938505 5.421010862e-20) 476
(-0.005212840321 0.05529508956 -1.084202172e-19) 159
(0.07321254938 0.03158600143 -1.084202172e-19) 459
(0.07584658738 0.05498331686 2.168404345e-19) 489
(0.07578160473 0.03572255984 2.168404345e-19) 469
(0.0680209523 0.02969796057 -2.168404345e-19) 458
(0.05863469211 0.04625967384 1.084202172e-19) 487
(0.07232253868 0.01963763878 7.453889936e-20) 449
(0.07431000835 0.0296229983 0) 459
(0.064799019 0.04878600679 -2.439454888e-19) 488
(0.04996921607 0.02476875492 -8.131516294e-20) 456
(0.02925907689 0.03099785257 4.33680869e-19) 473
(0.06022569994 0.03261335789 0) 467
(0.07074512166 0.0469876801 0) 479
(0.05241129633 0.04170256814 -4.33680869e-19) 476
(0.07284245825 0.04955269404 0) 489
(0.05734704518 0.0261624211 -2.710505431e-20) 457
(0.06514338437 0.05311111142 4.33680869e-19) 498
(0.04572964544 0.103068355 1.084202172e-19) 566
(0.04949960254 0.01708328968 0) 446
(0.04710699341 0.09801456947 -1.084202172e-19) 556
(0.03636021732 0.02983493673 0) 464
(0.06909772291 0.05006485638 2.168404345e-19) 489
(0.06180967618 0.02347717759 -5.421010862e-20) 448
(0.07389248271 0.02101749147 0) 449
(0.02015298597 0.02182846657 2.168404345e-19) 462
(0.03545490903 0.02013089031 1.084202172e-19) 454
(0.06248726148 0.01956841541 0) 448
(0.02662795162 0.01279894968 0) 443
(0.05646283403 0.06795082249 -7.453889936e-20) 517
(0.06328132189 0.02963581456 0) 458
(0.07145150464 0.03789339158 4.607859233e-19) 469
(0.05276499505 0.06014886232 5.421010862e-20) 506
(0.06009418677 0.02891733201 0) 457
(0.06744393787 0.0188231191 0) 448
(0.06054549743 0.03985242753 4.33680869e-19) 477
(0.02450871177 0.07970948392 1.084202172e-19) 533
(0.07264851382 0.06809657127 -9.215718466e-19) 509
(0.06710179603 0.0318342403 0) 458
(0.03659029225 0.02178472006 -2.168404345e-19) 454
(0.07351125648 0.058250679 1.084202172e-19) 499
(0.05679218158 0.01841734137 -2.710505431e-19) 447
(0.0701250505 0.02205190127 0) 449
(0.05767293019 0.02524461551 -1.084202172e-19) 457
(0.05725516175 0.03724571855 -2.168404345e-19) 477
(0.04757428246 0.03699148672 2.168404345e-19) 476
(0.06765799057 0.0196203122 2.168404345e-19) 448
(0.06471021186 0.02304314182 -2.168404345e-19) 448
(0.05675031896 0.02603369847 -1.355252716e-20) 457
(0.06182459074 0.05616492195 -1.626303259e-19) 498
(0.05164641179 0.08618049309 2.168404345e-19) 546
(0.06977516006 0.1565316199 5.421010862e-20) 639
(0.0751212176 0.02457717111 2.168404345e-19) 449
(0.0715342992 0.05825005019 2.168404345e-19) 499
(0.07315969232 0.03367097683 0) 469
(0.07452311743 0.06423151249 -2.168404345e-19) 509
(0.02929027883 0.02177431033 2.168404345e-19) 453
(0.07527307206 0.1356235317 0) 609
(0.0624346521 0.02202941685 0) 448
(0.05135203894 0.01951957812 -2.168404345e-19) 446
(0.05977776773 0.04388985405 2.168404345e-19) 477
(0.04054329899 0.01857188745 2.168404345e-19) 455
(0.04771119944 0.03884621109 0) 476
(0.06816421001 0.04274436679 4.065758147e-20) 478
(0.04538653609 0.02815069312 0) 465
(0.04940140511 0.01869146142 2.168404345e-19) 446
(0.06019293476 0.01891189872 5.421010862e-20) 447
(0.07192521199 0.07216372309 -1.355252716e-19) 519
(0.007805322103 0.02398321545 4.33680869e-19) 461
(0.06172697889 0.0385681681 2.710505431e-19) 478
(0.07449749904 0.03826883928 0) 469
(0.07035223138 0.03900753404 1.084202172e-19) 469
(0.05339227985 0.01592910143 1.084202172e-19) 447
(0.04582744099 0.0573740875 2.168404345e-19) 506
(0.02854217419 0.01636779332 0) 453
(0.06666412746 0.03954606876 -2.168404345e-19) 478
(0.07332964497 0.02324539726 -1.084202172e-19) 449
(0.06801765481 0.01861494972 0) 448
(0.0437759732 0.01999062058 0) 455
(0.07029978613 0.03216548378 -1.084202172e-19) 459
(0.0522776596 0.06563490336 -2.168404345e-19) 516
(0.05246680407 0.02084870022 0) 446
(0.06761101731 0.03810257277 0) 468
(0.03938623134 0.02023619222 2.168404345e-19) 455
(0.07174229216 0.05699718395 1.626303259e-19) 499
(0.07376503993 0.03048892022 0) 459
(0.02665804976 0.01097111774 1.490777987e-19) 443
(0.06860386601 0.03292772539 -3.252606517e-19) 469
(0.04761822085 0.03753068937 1.084202172e-19) 476
(0.05938165131 0.1482045367 -2.168404345e-19) 627
(0.06460831154 0.05173717914 0) 488
(0.06977051669 0.05263679187 -2.168404345e-19) 489
(0.07412889845 0.02078722138 -2.168404345e-19) 449
(0.06520492936 0.02773544938 0) 458
(0.07359516426 0.02972367846 5.421010862e-20) 459
(0.05639307174 0.02202371334 2.168404345e-19) 447
(0.05821229109 0.03810083133 -4.33680869e-19) 477
(0.07530682171 0.02252410636 -1.084202172e-19) 449
(0.02207975356 0.05757861968 0) 512
(0.06306847129 0.02141065482 0) 448
(0.05499241801 0.1473302247 1.084202172e-19) 627
(0.03642817375 0.01054330602 -2.168404345e-19) 444
(0.03826320969 0.02605053517 2.168404345e-19) 465
(0.07465073801 0.06661403999 0) 509
(0.07363629513 0.07249683151 -4.33680869e-19) 519
(0.07230950918 0.04084845316 1.558540623e-19) 479
(0.04223050243 0.05892295895 1.626303259e-19) 505
(0.05230996679 0.09102708165 -2.168404345e-19) 546
(0.07545697648 0.06373337752 0) 509
(0.06477713176 0.05914039999 -6.606856989e-20) 498
(0.04991995432 0.02209341898 0) 456
(0.07600630855 0.02367500607 2.439454888e-19) 449
(0.06212838273 0.02658666794 2.168404345e-19) 458
(0.06504439423 0.04408871148 1.355252716e-19) 478
(0.06584726617 0.03869128645 3.252606517e-19) 468
(0.06502616815 0.04458826421 -8.131516294e-20) 478
(0.05147721762 0.01600907903 -4.33680869e-19) 446
(0.03369109423 0.00978055106 -3.794707604e-19) 444
(0.06095485516 0.05306834347 0) 497
(0.07241660209 0.0395900249 -1.11808349e-19) 469
(0.04632956411 0.015703867 0) 446
(0.04185242233 0.01563905142 1.084202172e-19) 445
(0.06802299389 0.02779472924 2.168404345e-19) 458
(0.06438790664 0.04526069986 0) 478
(0.06717199482 0.03486963039 -1.084202172e-19) 468
(0.04362712858 0.1112911876 1.084202172e-19) 575
(0.07091803824 0.09151744461 2.710505431e-20) 549
(0.02900032885 0.01778911909 2.168404345e-19) 453
(9.824273858e-06 0.03101418991 -3.252606517e-19) 480
(-0.06353402735 0.03581642524 -2.168404345e-19) 91
(0.05981924484 0.04624687344 0) 487
(0.05251076026 0.04606919154 1.76182853e-19) 486
(0.04274712874 0.06058628902 1.084202172e-19) 505
(0.06776102461 0.02953871883 0) 458
(0.07062614505 0.06263579157 -1.084202172e-19) 509
(0.04312831437 0.01913465707 2.168404345e-19) 455
(0.05561490584 0.02566951513 0) 457
(0.06674421721 0.03509139431 -1.626303259e-19) 468
(0.06581592273 0.1214911753 1.084202172e-19) 588
(0.03201562243 0.03289841387 -4.33680869e-19) 474
(0.0660459609 0.0198388142 1.084202172e-19) 448
(0.04753146976 0.04990902512 2.168404345e-19) 496
(0.07497954432 0.08266662819 -6.505213035e-19) 529
(0.04682557824 0.02367381277 -1.355252716e-19) 456
(0.03187017298 0.01578496711 1.084202172e-19) 444
(0.05852174448 0.02680596359 1.084202172e-19) 457
(0.05980586638 0.03746259032 -4.33680869e-19) 477
(0.05009591471 0.04553826189 9.486769009e-20) 486
(0.05990423526 0.02267941853 0) 447
(0.04142589379 0.01372534749 3.252606517e-19) 445
(0.0654681919 0.03844381589 1.084202172e-19) 468
(0.05719750312 0.04061263244 3.726944968e-20) 477
(0.06774220218 0.02328959029 0) 448
(0.06963244555 0.03527573818 -4.33680869e-19) 469
(0.03066408569 0.01921941029 5.149960319e-19) 454
(0.04650538384 0.01335123489 4.743384505e-19) 446
(0.0564899866 0.04255133368 0) 477
(0.05695661473 0.02347016926 -7.995991022e-19) 457
(0.03657316345 0.03066798273 0) 464
(0.07173157779 0.0608240564 2.168404345e-19) 499
(0.05869757417 0.07423033835 2.168404345e-19) 527
(0.06469217622 0.04687916092 2.303929617e-19) 488
(-0.02358540948 0.05340837203 0) 156
(0.04485537891 0.05379529333 4.33680869e-19) 495
(0.07129328475 0.02295053762 8.131516294e-20) 449
(0.054183655 0.02454180902 -4.33680869e-19) 457
(0.004769297026 0.04727466592 0) 500
(0.06305792382 0.06929213543 -2.168404345e-19) 518
(0.07246061103 0.0333485996 3.117081246e-19) 459
(0.05956536091 0.1153592086 0) 577
(0.02931075354 0.1426228657 -8.131516294e-20) 623
(0.05552590036 0.05033154701 0) 487
(0.06857524831 0.04521537383 0) 478
(0.04866518644 0.01517499574 5.421010862e-20) 446
(0.07027786561 0.0426739143 0) 479
(0.03579935887 0.02572381402 4.33680869e-19) 464
(0.07372263289 0.07893170594 -1.897353802e-19) 529
(0.06913374856 0.03860921889 2.168404345e-19) 469
(0.06897381345 0.0696390039 1.084202172e-19) 519
(0.01286635018 0.01949964028 2.168404345e-19) 461
(0.04933881833 0.02474286441 0) 456
(0.03549535516 0.01563733514 1.084202172e-19) 444
(0.05683900405 0.03239351421 -2.710505431e-20) 467
(0.06404376449 0.05050293355 1.084202172e-19) 488
(0.05580417072 0.0941172984 -3.252606517e-19) 557
(0.07005247993 0.1115958996 6.09863722e-20) 579
(0.051961823 0.02605710298 0) 456
(0.0563231063 0.03304677374 -2.710505431e-20) 467
(0.06442340932 0.0384661755 6.505213035e-19) 468
(0.04960595523 0.02171417368 4.33680869e-19) 456
(0.06262267602 0.02939932572 -2.941321909e-19) 458
(0.0579879432 0.03107656617 0) 467
(0.01131023308 0.006530841653 1.490777987e-19) 441
(0.07607938439 0.04978086525 2.168404345e-19) 489
(0.04720310531 0.01840031583 0) 446
(0.05857431167 0.01816041541 0) 447
(0.0616252489 0.04784631182 -4.33680869e-19) 488
(0.02750040236 0.07349661594 2.168404345e-19) 533
(0.06464624998 0.05742638864 0) 498
(0.0559760637 0.02136885618 2.168404345e-19) 447
(0.0396024605 0.07152630096 0) 525
(0.07192841713 0.04669922055 0) 479
(0.06617731971 0.05896974787 0) 498
(0.06857336853 0.1060570456 4.607859233e-19) 568
(0.06324647566 0.06642017533 2.168404345e-19) 508
(0.059776534 0.1054773786 0) 567
(0.07346455815 0.1620275306 1.084202172e-19) 649
(0.04220047063 0.01168809833 -2.168404345e-19) 445
(0.05541584655 0.03413296082 1.084202172e-19) 467
(0.02679354782 0.04231019994 -1.355252716e-20) 483
(0.05144408237 0.02837294958 2.168404345e-19) 466
(0.05946328745 0.06567992892 0) 517
(0.07498555779 0.02356686586 -1.11808349e-19) 449
(0.06777775081 0.04619717712 -2.168404345e-19) 478
(0.04321626937 0.02212672109 1.897353802e-19) 455
(0.03350893518 0.0241692675 0) 464
(0.06906042242 0.05642589966 2.168404345e-19) 499
(-0.01056868907 0.04090204917 8.131516294e-20) 118
(0.03716601523 0.02383295715 6.505213035e-19) 454
(0.05396230029 0.05217922091 2.168404345e-19) 497
(0.07491982758 0.0839801739 0) 539
(0.05188577497 0.02671542689 0) 456
(0.065676959 0.0698401902 2.168404345e-19) 518
(0.0687624555 0.1430925632 -3.252606517e-19) 619
(0.06740943651 0.1389469183 -2.168404345e-19) 618
(0.04711595348 0.03047937982 2.168404345e-19) 466
(0.04882576835 0.03647211183 -2.710505431e-19) 476
(0.03618496268 0.03013908565 0) 464
(0.07500296951 0.03661315554 -5.421010862e-19) 469
(0.05324761362 0.0316455757 -5.421010862e-20) 466
(0.05635665737 0.02939526131 -1.084202172e-19) 467
(0.05297806749 0.02742709799 0) 456
(0.07282419666 0.02390779418 2.710505431e-20) 449
(-0.003092887704 0.004158092706 2.168404345e-19) 19
(0.07165751557 0.03864531203 -1.084202172e-19) 469
(0.05924379109 0.04786150947 2.168404345e-19) 487
(0.03625551881 0.022016007 0) 454
(0.05162969027 0.01770474489 0) 446
(0.05937976867 0.02232415194 2.168404345e-19) 447
(0.04107091528 0.01327082446 2.168404345e-19) 445
(0.0551450274 0.05416450041 6.776263578e-20) 497
(0.02241074339 0.01200394925 -2.168404345e-19) 442
(0.03361020799 0.01261674336 3.252606517e-19) 444
(0.05662935453 0.09098714484 0) 547
(0.0740228221 0.05458126106 2.168404345e-19) 489
(0.02138566566 0.03898157501 4.33680869e-19) 482
(0.05369331877 0.02318400802 -2.168404345e-19) 457
(0.07356237964 0.06297242101 0) 509
(0.03987187255 0.03054207872 0) 465
(0.03978126416 0.0729053959 0) 525
(0.03487431205 0.01124845857 -2.168404345e-19) 444
(0.05994791004 0.05987001636 0) 507
(0.05847553153 0.1225000035 -4.33680869e-19) 597
(0.04080071687 0.01294615035 -1.084202172e-19) 445
(0.05736698685 0.02513143137 0) 457
(0.01043227464 0.02782513631 0) 471
(0.05156156988 0.02823633347 0) 466
(0.06038893039 0.0235763595 -2.168404345e-19) 457
(0.01023647107 0.00556291032 2.981555974e-19) 441
(0.07115270677 0.02556615933 4.33680869e-19) 449
(0.06792890544 0.05626155071 1.084202172e-19) 498
(0.06505064338 0.04509996878 -8.131516294e-20) 478
(0.06333047911 0.05237981652 0) 498
(0.05023978315 0.062437899 -1.626303259e-19) 506
(0.03484181572 0.009514773308 0) 444
(0.05718078362 0.01641018161 -2.168404345e-19) 447
(0.0650826012 0.04819602739 0) 488
(0.07323958432 0.1156866614 0) 579
(0.02670780609 0.03428597361 2.541098842e-19) 473
(0.0200047262 0.006512636562 0) 442
(0.03119903525 0.01600313877 2.168404345e-19) 454
(0.04419698412 0.01548991048 2.168404345e-19) 445
(0.05095103193 0.0339114183 3.252606517e-19) 466
(0.05931669798 0.05249678086 -4.33680869e-19) 497
(0.05527754437 0.02583331338 3.794707604e-19) 457
(0.04007742274 0.1020683379 0) 565
(0.06655061536 0.0427675882 -2.168404345e-19) 478
(0.05420477408 0.06398290471 8.131516294e-20) 507
(0.07238230665 0.03488877375 7.877406409e-20) 469
(0.06915975791 0.09404321128 1.084202172e-19) 549
(0.06166014051 0.06281634476 -2.710505431e-20) 508
(0.07601565984 0.04171371571 -2.168404345e-19) 479
(0.03755458214 0.05776569641 -2.168404345e-19) 504
(0.07057466026 0.1194859021 0) 589
(0.04697575202 0.04931174254 2.168404345e-19) 496
(0.02266347523 0.02150321921 0) 462
(0.05538634653 0.0400574559 1.626303259e-19) 477
(0.0758113232 0.02977767981 0) 459
(0.06015429004 0.04267997032 0) 477
(0.06614113987 0.04490565037 1.084202172e-19) 478
(0.03577838874 0.01416326696 0) 444
(0.06201483584 0.01679644214 0) 448
(0.07265785855 0.09141590906 2.168404345e-19) 549
(0.05840785774 0.07123707418 -1.084202172e-19) 517
(0.04947961985 0.0633212128 0) 506
(0.06619914232 0.1500327692 -1.084202172e-19) 628
(0.06546642116 0.1215829243 -2.710505431e-19) 588
(0.06814959443 0.02792596239 -3.252606517e-19) 458
(0.04897883779 0.0587975259 -5.421010862e-20) 506
(0.05099551529 0.06480150894 4.33680869e-19) 516
(0.06453337885 0.02411392419 0) 448
(0.04289515917 0.04091298857 2.168404345e-19) 485
(0.04339911879 0.02032236631 -2.168404345e-19) 455
(0.04701768784 0.04999876561 -2.710505431e-20) 496
(0.0735719709 0.04783446061 0) 489
(0.05023138884 0.01641699745 0) 446
(0.06307465544 0.04626991916 0) 488
(0.002560275616 0.005534957556 -2.168404345e-19) 440
(0.06882052749 0.02897123488 -2.168404345e-19) 459
(0.07016601097 0.03868268971 -5.421010862e-20) 469
(0.06038457836 0.03781224376 2.168404345e-19) 477
(0.02579116889 0.02243884753 1.626303259e-19) 463
(0.04654778856 0.04351551217 1.084202172e-19) 486
(0.02847550081 0.02425771261 2.168404345e-19) 463
(0.03156618948 0.07290270663 -2.168404345e-19) 524
(0.03170629363 0.04294310384 -2.168404345e-19) 484
(0.06191887715 0.08293561874 0) 538
(0.05825765616 0.06101955409 -1.084202172e-19) 507
(0.06106975707 0.03722389465 4.33680869e-19) 468
(0.05651748938 0.02072159296 1.084202172e-19) 447
(0.05141728433 0.0167047269 5.421010862e-20) 446
(0.04684506967 0.03475125924 0) 476
(0.07570803057 0.03726240742 -2.710505431e-19) 469
(0.06314099509 0.04086886842 1.084202172e-19) 478
(0.06047611828 0.04537104485 -2.168404345e-19) 487
(0.03813696655 0.02231438171 1.084202172e-19) 455
(0.03150651036 0.03049527178 -2.168404345e-19) 474
(0.06950386151 0.07155193527 -3.523657061e-19) 519
(0.06217326563 0.01928603372 -1.084202172e-19) 448
(0.02984758059 0.01019390357 2.168404345e-19) 443
(0.05852770368 0.09044905345 -2.168404345e-19) 547
(0.06317260083 0.08166856541 -2.168404345e-19) 538
(0.06870327074 0.1248889052 -3.252606517e-19) 599
(0.07499707558 0.06683095672 -2.168404345e-19) 509
(0.07052767274 0.07521929656 -2.168404345e-19) 529
(0.07050818453 0.06746637351 -1.084202172e-19) 509
(0.07132890131 0.09918751747 -5.421010862e-20) 559
(0.06551151354 0.1051985072 5.421010862e-20) 568
(0.07148662397 0.0355541347 -1.084202172e-19) 469
(0.04808264987 0.02982888095 2.710505431e-20) 466
(0.05777208028 0.03234131003 1.084202172e-19) 467
(0.05047893944 0.05331838514 1.084202172e-19) 496
(0.03361045447 0.01561305626 -4.33680869e-19) 444
(0.05963536345 0.02160035327 0) 447
(0.03343962162 0.0296711421 2.168404345e-19) 464
(0.07059333349 0.04929341749 5.421010862e-20) 489
(0.05750568296 0.02958239528 2.168404345e-19) 457
(0.06069349348 0.07043891742 0) 517
(0.07489642457 0.02477398115 2.168404345e-19) 449
(0.05266404504 0.05558894619 0) 496
(0.06594488482 0.04299192086 1.084202172e-19) 478
(0.05852159946 0.03737639997 0) 477
(-0.01185634117 0.03714200969 2.168404345e-19) 98
(0.06150533758 0.02138481434 -1.084202172e-19) 448
(0.05184557975 0.0595951576 -5.421010862e-20) 506
(0.06224141752 0.038868953 0) 478
(0.06849690386 0.03120305016 0) 458
(0.06085476117 0.08095789476 0) 537
(0.02856661767 0.07372581313 0) 533
(0.03337009624 0.1366274499 3.523657061e-19) 614
(0.04794383332 0.1301412917 1.355252716e-19) 606
(0.07253695356 0.1341236636 0) 609
(0.02937106562 0.1471760956 -4.33680869e-19) 633
(0.04558733058 0.03015015972 1.389134033e-19) 465
(0.06408556625 0.04130024372 8.470329473e-21) 478
(0.03383186025 0.03718181351 2.168404345e-19) 474
(0.06169553516 0.04318416947 0) 478
(0.04248809059 0.02404604306 5.421010862e-20) 455
(0.06589038056 0.02077642109 1.355252716e-19) 448
(0.06980918209 0.02049406251 -2.710505431e-19) 449
(0.06967817482 0.06954308714 -1.084202172e-19) 519
(0.06681607646 0.0604511028 0) 508
(0.07460594704 0.03575067995 2.168404345e-19) 469
(0.04266818665 0.05381825854 -5.963111949e-19) 495
(0.07076829042 0.06299887265 -2.168404345e-19) 509
(0.02114462416 0.02317078605 -3.252606517e-19) 462
(0.05814619381 0.01649050849 2.168404345e-19) 447
(0.05555130487 0.07768698321 -3.794707604e-19) 527
(0.07461092707 0.1420460415 1.084202172e-19) 619
(0.06926963063 0.1103082551 -2.168404345e-19) 579
(0.0664644808 0.05316808185 4.33680869e-19) 498
(0.04872551322 0.0426832184 3.252606517e-19) 486
(0.05440344211 0.08343174896 3.252606517e-19) 537
(0.0710919441 0.08614286509 -2.981555974e-19) 539
(0.0636080818 0.1245148212 2.168404345e-19) 598
(0.06364350571 0.1470352443 -1.897353802e-19) 628
(0.06652742446 0.1167762402 4.33680869e-19) 588
(0.07467703563 0.1324342541 6.505213035e-19) 609
(0.01595774206 0.0264935357 -2.168404345e-19) 472
(0.05561529527 0.03912293217 5.421010862e-20) 477
(0.03833253786 0.06126844216 7.453889936e-20) 515
(0.0290638643 0.06152584931 -2.168404345e-19) 513
(0.06527149811 0.02272243131 -1.084202172e-19) 448
(0.06996527091 0.05605244867 -2.168404345e-19) 499
(0.02942722101 0.03862009955 0) 483
(0.003405425196 0.0134183646 -1.084202172e-19) 450
(0.07573342867 0.03942644701 0) 469
(0.05198805082 0.02863613817 0) 466
(0.0600671323 0.04093091797 5.505714157e-21) 477
(0.054499958 0.09867752681 -4.33680869e-19) 557
(0.06585160324 0.07808092849 1.084202172e-19) 528
(0.06004504734 0.02200755097 -2.168404345e-19) 447
(0.05677178372 0.09533354351 0) 557
(0.05105130748 0.02328162621 -1.084202172e-19) 456
(0.0597885228 0.06263178846 2.168404345e-19) 507
(0.04586522802 0.02024954674 -2.168404345e-19) 456
(0.05972766186 0.02274235878 0) 447
(0.05674037623 0.04911443386 5.421010862e-19) 487
(0.06560935732 0.07001263689 5.421010862e-20) 518
(0.0630600362 0.1156750839 1.084202172e-19) 578
(0.0371826912 0.07608514431 2.168404345e-19) 534
(0.04646064137 0.02471165447 -1.084202172e-19) 456
(0.06634100091 0.1124744022 -1.626303259e-19) 578
(0.06359336362 0.07539759952 2.168404345e-19) 528
(0.05546093284 0.1457388016 2.710505431e-19) 627
(0.06270476843 0.07268517149 2.168404345e-19) 518
(0.0716715994 0.1642005707 -1.084202172e-19) 649
(0.05396052044 0.02356742983 -1.084202172e-19) 457
(0.03292160774 0.03686564328 0) 474
(0.0575936332 0.02031369323 -5.421010862e-20) 447
(0.05752959038 0.01618892688 4.33680869e-19) 447
(0.06761382015 0.0262386969 0) 458
(0.04343912373 0.01646352034 0) 445
(0.06738560373 0.04071540805 -2.168404345e-19) 478
(0.05277289268 0.08495732458 0) 536
(0.07461507679 0.03286179245 -2.168404345e-19) 459
(0.04828866411 0.03595524864 -1.084202172e-19) 476
(0.07344472752 0.05348600277 -2.168404345e-19) 489
(0.07602951433 0.04537360027 0) 479
(0.05951204271 0.02744247885 0) 457
(0.07240278847 0.0387652026 -8.809142651e-20) 469
(0.05203705488 0.02546024661 -4.33680869e-19) 456
(0.04417715317 0.01375323319 0) 445
(0.03554028153 0.07057662942 -5.421010862e-20) 524
(0.0328737792 0.1072855162 0) 574
(0.01091964338 0.01559099525 0) 451
(0.06868018396 0.04214225169 2.168404345e-19) 479
(0.06863038821 0.06035221864 2.168404345e-19) 499
(0.04879238177 0.03464150858 -4.878909776e-19) 476
(0.04827990385 0.06396781336 4.33680869e-19) 516
(0.07204407985 0.07525396416 2.168404345e-19) 519
(0.06952667513 0.07988886128 0) 529
(0.03735683845 0.08036552574 4.33680869e-19) 534
(0.0619727762 0.1215847487 0) 588
(0.05914595888 0.1375570833 0) 617
(0.07366149388 0.1268709472 0) 599
(0.06920492064 0.1445275787 2.168404345e-19) 619
(0.05139045964 0.1066023638 2.168404345e-19) 566
(0.06828119408 0.1637477996 0) 648
(0.05981464538 0.1520737389 2.168404345e-19) 637
(0.07471820627 0.05278961911 -2.168404345e-19) 489
(0.03359457443 0.04738671122 -3.794707604e-19) 494
(0.06846126499 0.09635983217 2.168404345e-19) 558
(0.05873559983 0.01646887457 -2.168404345e-19) 447
(0.06509377006 0.03075838531 -1.897353802e-19) 458
(0.007434782308 0.03648757904 0) 480
(0.02342274241 0.01919476052 2.168404345e-19) 453
(0.05195695245 0.06504714718 2.168404345e-19) 516
(0.07603531332 0.03152888281 0) 459
(0.05912823206 0.06921277453 0) 517
(0.03125773646 0.03825956044 -2.168404345e-19) 484
(0.04059756921 0.04628660812 0) 485
(0.03637709779 0.01212784792 1.084202172e-19) 444
(0.06684505612 0.04742937621 0) 488
(0.07136979185 0.02758098955 -1.084202172e-19) 459
(0.06112137495 0.02773325364 -1.084202172e-19) 458
(0.05035195569 0.01562846794 0) 446
(0.07298923014 0.05200604937 1.084202172e-19) 489
(0.06853374152 0.03242422475 4.33680869e-19) 458
(0.06344029805 0.0249057677 -1.084202172e-19) 458
(0.06978153612 0.02044705621 1.084202172e-19) 449
(0.03858850541 0.05254440536 0) 495
(0.05772328408 0.1176556856 0) 587
(0.07018429954 0.09893348824 -3.252606517e-19) 559
(0.07006500883 0.111580765 -2.473336206e-19) 579
(0.05006635728 0.1052060403 0) 566
(0.03090924739 0.06657066783 -1.355252716e-19) 514
(0.06694105214 0.1214808871 0) 588
(0.05146168705 0.07798079487 -4.33680869e-19) 526
(0.06916337343 0.1074598417 -4.33680869e-19) 569
(0.04221998892 0.0923215233 4.33680869e-19) 555
(0.06184959778 0.1531331186 2.168404345e-19) 638
(0.07417317393 0.1044311873 -2.168404345e-19) 569
(0.0600473583 0.1164621933 0) 587
(0.04353847515 0.1178253699 1.084202172e-19) 585
(0.05849135015 0.08062352593 -2.168404345e-19) 537
(0.049689812 0.02232881796 2.168404345e-19) 456
(0.04213128351 0.01976679032 0) 455
(0.05049176091 0.08333414888 -2.168404345e-19) 536
(0.05870983102 0.04095927039 2.168404345e-19) 477
(0.05050146833 0.03621252613 2.168404345e-19) 476
(0.02935640316 0.01272132419 0) 443
(0.07408509591 0.03891409195 -1.084202172e-19) 469
(0.06919025335 0.03840385199 -2.168404345e-19) 469
(0.0341248425 0.03314316649 -2.032879073e-19) 474
(0.03901406058 0.02592098926 -1.897353802e-19) 465
(0.03057987215 0.05162436963 0) 494
(0.01654833742 0.02308313673 2.303929617e-19) 462
(0.05698751693 0.01725763797 1.219727444e-19) 447
(0.02482525573 0.06817444499 0) 523
(0.001386185975 0.00608683662 0) 440
(0.0212665416 0.02125175592 -2.168404345e-19) 462
(0.05619443076 0.03472463081 1.084202172e-19) 467
(0.04599945922 0.04952976832 -1.084202172e-19) 496
(0.04717746938 0.0610000275 0) 506
(0.04831606054 0.04278649603 0) 486
(0.06171157462 0.06309091289 5.421010862e-20) 508
(0.05109381594 0.1096086949 1.084202172e-19) 576
(0.05894976131 0.1506814042 -6.505213035e-19) 627
(0.05260889929 0.08447751104 2.168404345e-19) 536
(0.0706483943 0.1619249731 2.710505431e-19) 649
(0.05242198274 0.1106255982 -6.505213035e-19) 576
(0.06763183797 0.1185205484 0) 588
(0.07439008623 0.1629654819 -5.421010862e-20) 649
(0.07398967026 0.142864565 -2.168404345e-19) 619
(0.04023995194 0.1206707301 2.168404345e-19) 595
(0.07414081999 0.1106265539 -3.252606517e-19) 569
(0.06823828984 0.1349920171 0) 608
(0.0556524036 0.1599573643 2.710505431e-20) 647
(0.06254211908 0.1187727635 -1.084202172e-19) 588
(0.07618340491 0.1150687579 0) 579
(0.04209204526 0.0777420409 0) 535
(0.01573888743 0.008683504568 5.421010862e-20) 442
(0.01405677703 0.008376062868 0) 441
(0.03999536021 0.01121217977 0) 445
(0.05460046516 0.03910709035 -2.168404345e-19) 477
(0.06279871633 0.03797122777 0) 468
(0.04151735125 0.06149378385 -2.168404345e-19) 505
(0.06897679389 0.04634181506 -3.388131789e-19) 479
(0.05934839861 0.04178170926 2.168404345e-19) 477
(0.02031955159 0.01580644314 1.084202172e-19) 452
(0.03359021762 0.01898400595 0) 454
(0.04050190561 0.04664860029 0) 485
(0.0560462102 0.019969308 -2.168404345e-19) 447
(0.01018719537 0.02341603826 -2.168404345e-19) 461
(0.0599154662 0.02082255849 -4.33680869e-19) 447
(0.02097217785 0.005797913195 4.33680869e-19) 442
(0.02767938211 0.01133754451 0) 443
(0.04005936383 0.01544962767 -3.252606517e-19) 445
(0.07370052349 0.04702673342 1.084202172e-19) 479
(0.05166374777 0.03657734548 2.168404345e-19) 476
(0.03236316359 0.06932192247 -5.963111949e-19) 524
(0.07125000383 0.08566839441 3.252606517e-19) 539
(0.07517097522 0.0542662823 0) 489
(0.04381646237 0.09409644559 2.168404345e-19) 555
(0.05784394986 0.1352749469 1.626303259e-19) 607
(0.03075157848 0.05848597692 -2.168404345e-19) 504
(0.05286994858 0.08862019387 5.421010862e-20) 546
(0.04423442989 0.0773195729 0) 535
(0.06407640757 0.1477900643 -2.710505431e-19) 628
(0.06066313649 0.02957648399 -2.168404345e-19) 457
(0.06560419394 0.08423233173 0) 538
(0.04552809039 0.08616612422 2.168404345e-19) 545
(0.05889701897 0.02168042981 -6.505213035e-19) 447
(0.07216793351 0.07506911168 0) 519
(0.05795420925 0.1023456242 2.168404345e-19) 567
(0.02745962825 0.01822059349 -3.930232875e-19) 453
(0.04512045658 0.08109135893 2.168404345e-19) 535
(0.03444880132 0.115872134 -1.084202172e-19) 584
(0.05792435948 0.07100099409 1.084202172e-19) 517
(0.06769312304 0.1290751007 0) 598
(0.05185935981 0.09152156167 0) 546
(0.07282276603 0.1515693792 2.168404345e-19) 629
(0.0257962144 0.08801688971 5.421010862e-20) 553
(0.02722681104 0.1634530487 0) 653
(0.05344152889 0.1430799679 -2.57498016e-19) 627
(0.0009976328896 0.02551812554 2.168404345e-19) 470
(0.06039168659 0.02420887307 2.168404345e-19) 457
(0.01917139039 0.006149115321 -4.33680869e-19) 442
(0.06728454087 0.04443879548 2.168404345e-19) 478
(0.06026973498 0.02952131842 -2.168404345e-19) 457
(0.05290192779 0.03485164731 0) 466
(0.03179659521 0.01009174787 1.897353802e-19) 444
(0.05256072119 0.02639313094 0) 456
(0.06757521393 0.0219578338 2.168404345e-19) 448
(0.03649516252 0.02349285908 0) 454
(0.0570219251 0.01697664989 -3.659182332e-19) 447
(0.06662597571 0.03294938203 2.168404345e-19) 468
(0.0646631664 0.02246759228 0) 448
(0.0710494181 0.05138020154 1.084202172e-19) 489
(0.07536689216 0.05605906259 0) 499
(0.04328205862 0.02816962968 -1.084202172e-19) 465
(0.04898840795 0.07418044283 1.423015351e-19) 526
(0.0530060792 0.04336301081 0) 486
(0.05347505685 0.05375762819 1.355252716e-19) 497
(0.05580714541 0.0234395261 1.084202172e-19) 457
(0.06904185859 0.05879889969 0) 499
(0.03512757253 0.05673396723 2.168404345e-19) 504
(0.04862053102 0.09182124089 4.33680869e-19) 546
(0.07472703099 0.03595687241 -4.33680869e-19) 469
(0.07354341811 0.08392537296 -6.505213035e-19) 539
(0.04359316288 0.09918590239 2.168404345e-19) 565
(0.04505931918 0.08667177095 1.084202172e-19) 545
(0.04380945933 0.06144913452 -4.33680869e-19) 505
(0.06322880907 0.03731324392 1.084202172e-19) 468
(0.05941768689 0.1299799769 2.168404345e-19) 607
(0.07461374294 0.0996383654 0) 559
(0.07428083464 0.09884525398 -3.252606517e-19) 559
(0.0638208304 0.1080220013 1.084202172e-19) 568
(0.05416097323 0.09761979965 0) 557
(0.06573964854 0.0436314182 2.168404345e-19) 478
(0.05265567919 0.1156136776 2.168404345e-19) 586
(0.06794844402 0.1302570917 -4.33680869e-19) 598
(0.04902576546 0.07634687403 -2.168404345e-19) 526
(0.06340447706 0.09753362397 -1.084202172e-19) 558
(0.05976696971 0.1378855565 0) 617
(0.07304580884 0.1386084887 -5.421010862e-20) 609
(0.07304689027 0.1355396419 0) 609
(0.04313738067 0.1528288654 -1.084202172e-19) 635
(0.04882036797 0.1226956565 3.252606517e-19) 596
(0.07183341324 0.1109430683 0) 579
(0.03134099811 0.1276535175 2.168404345e-19) 604
(0.04390242357 0.106545675 2.168404345e-19) 575
(0.03106705033 0.1602558356 0) 644
(0.05144385028 0.01395881623 0) 446
(0.07294173545 0.04811891883 -2.168404345e-19) 489