/*--------------------------------*- C++ -*----------------------------------*\
| =========                 |                                                 |
| \\      /  F ield         | OpenFOAM: The Open Source CFD Toolbox           |
|  \\    /   O peration     | Version:  2406                                  |
|   \\  /    A nd           | Website:  www.openfoam.com                      |
|    \\/     M anipulation  |                                                 |
\*---------------------------------------------------------------------------*/
FoamFile
{
    version     2.0;
    format      ascii;
    arch        "LSB;label=32;scalar=64";
    class       vectorField;
    location    "0.012/lagrangian/dsmc";
    object      U;
}
// * * * * * * * * * * * * * * * * * * * * * * * * * * * * * * * * * * * * * //


6876
(
(552.4248344 613.9394281 434.7696986)
(473.9315555 -235.6371483 723.7345997)
(551.4096324 376.476487 -77.0629156)
(-332.4705141 16.66657317 274.3567425)
(272.5520322 92.027337 702.0290403)
(341.7650387 228.5326574 -862.0051197)
(-524.6810966 107.775714 -41.8053315)
(957.5207774 480.0704523 -62.26265075)
(375.59101 -546.5132887 163.5505685)
(953.0622238 966.7027532 -107.7613811)
(1109.05896 207.9536728 1335.634542)
(39.52282806 377.7989678 171.8370738)
(337.5435064 1150.424703 -217.0188461)
(401.8323549 1205.880719 595.4441887)
(439.8834405 -77.80319448 -942.210508)
(239.0364464 635.7816561 -1361.975296)
(1477.550946 -982.5115288 423.8854997)
(286.6761869 709.8238538 -319.1198267)
(-409.1973247 644.1797551 68.18751582)
(308.1439432 198.9170141 56.54746571)
(1354.116393 -208.0416801 -194.7690106)
(997.588767 232.4340058 224.9593034)
(-35.01544045 267.6898595 -677.862081)
(298.1450159 1130.634231 109.6131531)
(65.92019509 302.34665 105.6651241)
(893.391584 974.8532214 1154.676808)
(1068.963631 645.734968 -851.2758955)
(-348.4291987 302.7975589 -877.8786873)
(1672.243155 635.4121812 -73.25907401)
(300.4568039 -188.5651325 438.0121224)
(1451.230969 1895.791922 -24.47136716)
(68.15517963 635.9505171 -697.1196675)
(1193.541394 761.9023325 -1260.874877)
(143.3637803 594.5706306 -446.4983879)
(402.3625189 1088.360287 -207.5738357)
(547.8437188 1350.277129 -5.823932638)
(924.9572177 -321.7559616 477.4925589)
(615.7194185 -31.33771282 -156.7835713)
(1350.631914 -403.8215474 951.2320283)
(670.792718 616.4129094 -33.29242718)
(1110.446623 200.2332408 600.5065612)
(780.8298767 240.4435044 893.4575221)
(944.6483062 108.0434944 166.6802439)
(437.0766961 272.7140016 254.952085)
(-380.2566821 136.231993 600.1025338)
(57.0637513 797.5048053 900.3482453)
(351.6155375 -206.1402556 -1194.530258)
(45.38099105 61.45118833 -35.47847897)
(1595.759544 667.7632275 -400.1084664)
(675.5108575 241.7203068 -928.2492369)
(813.0003709 837.3523696 -628.0293392)
(1014.477599 -494.2369832 -548.8807563)
(723.2362922 1265.737199 -335.0473351)
(255.8641869 310.0138672 1163.023705)
(635.7686573 1550.559104 -183.8976487)
(-98.93128911 -320.8163113 -225.2036921)
(194.1716149 874.0794609 620.127066)
(388.3235473 710.5180474 317.7695783)
(-203.8109116 498.3760931 -251.6119371)
(689.9796487 73.77609782 -745.330459)
(-147.7968317 797.1219765 -195.599035)
(403.8708599 -174.4647677 561.3470446)
(659.4186144 -9.312352721 227.4373153)
(-153.3474413 -25.49769698 -262.3233982)
(270.4411609 711.4649818 301.3963512)
(849.9197352 213.800456 -262.4817823)
(258.4614198 645.1156551 -363.8674159)
(996.410825 370.2889893 978.3521489)
(1378.686973 1345.532277 120.2602955)
(655.6768255 309.0068568 -35.92347401)
(1251.554069 634.8430049 -891.6616384)
(490.9982799 534.7327376 70.11934746)
(1091.149576 -230.3710612 402.7326094)
(-4.882404837 -416.2700807 -638.2732286)
(30.93226976 1282.72808 -259.0555838)
(145.7692552 -15.56023429 71.09779645)
(348.2573584 527.832091 643.1219187)
(740.9914476 153.8185734 -122.0952586)
(-193.2950733 264.890725 355.2759276)
(26.79959904 899.6624809 -706.654056)
(1865.998424 -171.7254801 516.91459)
(998.7098104 314.5370842 -691.5204655)
(-276.9329567 340.7675191 -930.8667638)
(-408.7392954 347.6122521 -162.9603753)
(674.0279163 716.2639179 -133.0543284)
(-316.1532353 688.7333181 -284.5183821)
(-139.8367016 789.6944132 -690.1467221)
(1008.85555 382.4861511 -69.10057248)
(1086.647356 122.0094592 843.2505831)
(-325.5683237 452.351208 298.52105)
(287.0074034 261.4826604 -1033.197404)
(1165.414181 -748.3151626 149.6242951)
(666.5636659 314.9618189 580.64683)
(67.15368634 171.36504 324.3409314)
(968.1109784 115.2997976 -774.8546731)
(346.6801108 167.3417448 409.2858018)
(393.7583844 -449.1760594 729.2905024)
(268.9462912 545.9467649 195.5585639)
(739.542887 -53.25148244 1036.848511)
(1295.644989 241.6937769 487.5870186)
(958.942797 53.37350617 1344.143429)
(1134.332956 -40.8568008 680.0384267)
(653.557866 341.7787668 -104.3312189)
(-869.3372153 348.7250568 242.8709021)
(1654.078364 -792.3071479 -473.6816994)
(791.2215527 -581.048776 103.6989928)
(1533.404036 -285.7738996 202.8588941)
(1061.405951 341.8007016 -428.7899579)
(1392.971185 58.99581742 190.7753362)
(759.5012505 -330.6731897 -37.38434762)
(387.7132836 408.8955321 -660.3142185)
(626.08083 546.8157795 503.0057202)
(800.8495695 147.7066964 -134.6761834)
(391.2001828 642.7917103 155.7320654)
(-62.67465838 446.9036934 -444.3242732)
(355.1118251 1128.366662 62.50014621)
(1137.831175 156.3116106 -448.6734656)
(2002.623715 158.2372381 -226.0650485)
(-71.32437626 403.5186016 848.3412783)
(-88.16185333 1031.570769 -443.604952)
(680.6799724 116.4507164 -305.3289124)
(1361.432594 1419.34388 -159.7520102)
(1899.624705 -57.90938126 270.670167)
(926.1056556 1198.82396 -191.060278)
(791.9945636 -248.9893164 -160.1742188)
(1724.993237 386.3218465 703.9333308)
(531.4490415 539.8375429 -686.256676)
(809.6715769 965.4417288 238.8195609)
(651.4182452 613.2209853 51.5579337)
(883.3712075 85.25784767 -628.3469085)
(721.1928107 985.9182785 -93.13514801)
(991.9823092 -62.48809901 -1047.767344)
(1412.593218 -375.4904308 167.718629)
(-355.0032337 196.7009065 1166.184083)
(599.3779492 -287.2295618 -208.1130157)
(456.470464 616.855785 -863.4466627)
(456.7026556 386.993638 229.8235981)
(498.0741645 215.4379052 -543.4699768)
(-332.3957786 418.97488 368.5938263)
(1171.95978 169.0677199 -501.2961086)
(1157.221262 747.6521039 633.3451327)
(1044.913761 644.4053721 -117.8410392)
(113.8571608 852.1719207 -382.5047272)
(1641.303701 822.0074571 62.56017013)
(-761.712341 92.03229219 -685.825058)
(219.0901129 332.6657883 -422.9908525)
(-528.7727717 1138.591781 -153.2788275)
(302.2804034 -268.551448 354.2384242)
(528.8778238 1134.15709 513.405243)
(417.9040274 1398.924002 -780.0859959)
(1058.10943 38.69042831 -1240.740541)
(744.6465047 300.646919 -90.24032307)
(-6.155656656 78.70758469 829.6176611)
(1021.021811 -100.6375095 441.1039896)
(215.9633672 409.1639098 -66.45135038)
(1414.74009 343.1884358 114.8537595)
(-1160.44881 875.6475581 749.9397185)
(23.76703707 100.5023967 726.1762673)
(1728.435618 74.53685088 614.0239296)
(1231.624019 911.5373557 389.0489131)
(-658.9046626 318.4675149 -559.0558452)
(-169.8320307 125.4023377 273.8329777)
(1351.446085 480.8330579 -689.6172589)
(1537.70472 1095.185802 -61.86192631)
(443.5663304 -214.5487338 -106.427318)
(-347.7585566 -470.893296 480.8361692)
(915.5914234 -261.7671205 664.1011548)
(636.2527348 58.1803435 651.7600061)
(-52.34745917 566.8116035 -431.9854574)
(-217.4005843 651.5909812 -30.79006902)
(60.051642 437.0289949 812.4716815)
(571.9330568 72.6756684 189.6024923)
(225.564213 -1031.610831 -545.1586268)
(1461.976223 1064.326984 1272.729893)
(1114.767682 708.965947 719.8906506)
(1020.060723 -233.5358106 536.5078296)
(1050.565682 -136.7201255 -153.2868665)
(733.9761616 785.6054658 417.7579585)
(197.2951538 955.6840543 848.5440172)
(1528.243799 -246.8642253 113.3870928)
(1389.279994 366.9974311 980.9676122)
(552.2520557 351.4474613 354.271767)
(449.0532617 577.7936757 1401.820565)
(348.9326893 -751.7459147 29.94325446)
(1757.892451 1042.785523 980.1184572)
(1570.210554 872.1852291 -547.1348066)
(1063.650334 726.766707 -365.4881935)
(912.3131855 -897.4466613 1082.854233)
(1111.648371 -395.2190133 -302.9091934)
(1518.336834 956.2534067 66.4514627)
(-613.9951867 -986.62253 -44.46234648)
(1236.079202 27.49599171 -326.6038926)
(530.4479442 810.180147 -1278.206943)
(806.6479688 -66.45612027 904.0403099)
(540.7680551 -133.2041686 -0.9872805767)
(750.5435525 849.6741461 -204.9640456)
(1333.803355 42.92517487 -371.1393717)
(-499.5349064 227.6395927 624.0137491)
(345.9165404 361.8132309 -332.4927543)
(895.1474202 428.6949669 -433.9588551)
(-96.88442899 769.0332883 -72.31394063)
(1070.64241 541.8122249 -485.4959927)
(964.8597572 -602.7715793 -399.8419984)
(134.5577482 374.6585101 -611.8919236)
(574.8564462 1378.746316 -625.5760767)
(1415.983229 1183.611132 -180.6069209)
(577.7927532 -386.7730938 77.8769879)
(944.1626408 263.4815113 55.20460401)
(859.909327 -267.8239335 8.575938092)
(123.7971811 640.4181821 122.5426103)
(1137.584514 -373.7819498 488.8089719)
(238.8697278 -282.9398618 857.1276291)
(1112.436895 217.3810996 -381.1892428)
(254.6552702 376.1887556 100.6215408)
(1318.34709 -43.27959292 -1112.841104)
(-25.67133089 427.4193709 -399.9861201)
(591.6720465 256.9969874 606.886695)
(1062.014654 786.5018423 -367.9819442)
(27.97643235 340.8534592 -64.39757949)
(1486.034796 989.5082662 -823.3352253)
(642.5945839 519.3842093 947.3628362)
(689.9173218 461.0701225 671.2278731)
(1373.788908 176.4784748 -153.9422898)
(1201.484223 119.0956456 -477.1663235)
(18.67959387 -191.349511 1006.276289)
(1935.077122 -69.32136848 -50.80434296)
(-91.37256838 812.8895754 166.6224128)
(1166.630491 40.94795124 264.1493057)
(849.0404221 1511.112086 -461.969034)
(119.4237249 693.256107 -37.20385651)
(1328.953994 400.6095586 -822.8375694)
(698.3246714 -412.3191644 -609.2015134)
(116.5322346 135.679858 -554.954213)
(2102.623175 278.5325339 83.62531588)
(1059.049264 822.8709996 485.0309467)
(52.63663853 1236.443384 -741.3077899)
(503.6456016 49.66871231 -73.12916655)
(879.5927819 813.1190477 -62.31669204)
(1108.154721 937.6210394 -358.9998365)
(1893.19735 361.6937251 -1008.954123)
(1588.070738 544.1031522 -833.5071021)
(870.8736442 1719.908251 -113.8954712)
(1302.007433 -82.07542415 -376.2493686)
(115.5373697 -631.7932916 747.5958089)
(-28.87555124 91.74593177 -81.41511085)
(1135.172179 -315.9148296 71.78472692)
(379.2173586 963.067345 485.1259067)
(1641.946173 763.1682886 -219.8679553)
(1204.501352 651.4396761 -179.9434438)
(925.2196719 366.6377083 114.6115405)
(373.6384969 -147.6418431 335.3386901)
(604.553824 313.226419 982.9058138)
(624.8820024 292.9434448 184.1730551)
(312.5349256 449.6772883 318.0687739)
(587.7785435 680.6868978 345.8287036)
(358.843759 5.370696456 -643.1331701)
(1109.566264 -55.66559045 -355.3043374)
(1175.944048 879.2297704 -215.9982645)
(344.2489789 272.162417 -106.8568174)
(784.9194572 236.6266866 125.0816281)
(-425.6868199 1685.672958 457.7397918)
(1983.877972 -330.7555825 -14.93472157)
(257.3688799 -239.2753776 -108.8521057)
(628.3018263 128.2143541 -563.9986563)
(235.9928919 -141.1663168 -25.098156)
(-958.6132299 301.4209827 906.9940027)
(2175.263877 250.2759723 97.45558787)
(785.5948402 409.1526789 504.3036943)
(2132.427291 87.90776506 -1.490321716)
(1310.997144 13.42732728 -291.4507213)
(-604.1533923 186.5533436 53.97724869)
(9.521072157 211.1434562 335.7596467)
(-788.8511231 206.9273475 219.9925953)
(549.772681 1354.144974 700.713203)
(-645.9218593 722.4438355 -168.8991683)
(475.8472125 31.7328216 -54.94276059)
(996.5870842 530.4375018 418.6879986)
(1545.67173 181.106983 270.5658698)
(205.6593914 894.5842944 -272.9221893)
(1714.490112 91.99255585 -381.1506112)
(197.0030215 640.5409739 273.289582)
(315.5512191 317.5502407 832.5204604)
(89.6590871 84.94504989 -448.1561574)
(-258.4047901 800.6579042 977.0841278)
(1314.482344 -24.26190982 -190.7594764)
(205.4796996 645.9426666 -250.7437885)
(303.53896 -707.9733208 -121.3338584)
(7.087279338 602.1889123 700.5648851)
(1156.859092 -215.152126 -603.4521833)
(2009.606638 800.2947921 267.6781749)
(1439.646144 -263.6416463 908.450133)
(1073.284025 37.38316968 881.0190589)
(228.4309797 971.8010588 623.4554922)
(1075.102861 582.4349024 -734.3577006)
(643.8463783 464.0188572 -453.0298764)
(1254.603236 -82.44488316 93.34614248)
(-165.138166 1271.416788 937.2054928)
(1590.319993 67.57037848 -622.1676738)
(1364.591579 -177.1408095 748.3519258)
(1621.599426 376.7814948 588.2308989)
(1736.989532 -106.1183444 264.6344563)
(2276.573701 1425.559032 -438.0848404)
(-807.1242323 373.5330334 224.0830166)
(-126.6045715 664.4185465 -396.1137666)
(1460.34339 -360.0395069 127.6591386)
(219.0324783 1088.189698 -297.8674735)
(1169.369713 -32.02044987 1419.476556)
(954.185307 537.5856704 1189.46409)
(572.9684028 33.01349955 -133.5359932)
(1189.063726 446.1367062 -13.09520713)
(1216.044557 -542.019678 441.9004056)
(1594.156904 -265.6608552 -223.6885522)
(1243.888411 250.095342 -5.728665049)
(1425.594236 -331.5479592 -588.3236012)
(-559.0506764 -292.193698 -672.9951924)
(-117.4220676 525.5842559 -477.4381757)
(1862.973032 779.6489221 60.96176295)
(1114.678274 218.5373596 -375.5660179)
(1131.021503 1300.315829 262.5203907)
(923.3506262 -336.4108412 -415.2896484)
(963.2277763 103.6057408 -967.1415275)
(412.042151 752.7677556 213.6103364)
(35.88910224 164.8474931 375.8703792)
(1992.674491 405.8786692 868.576933)
(638.1409418 -669.9027925 333.2383272)
(-36.43426218 1022.919994 150.091708)
(89.93626921 218.526534 0.732177698)
(494.2710191 -440.165315 -653.7196047)
(703.721653 1022.161055 22.57156995)
(1262.537248 -4.036636083 -208.8633572)
(799.6309552 1140.468814 -64.2053138)
(1429.259615 871.6468371 135.6812257)
(1866.330868 118.6923944 437.5758063)
(1594.548938 265.554651 -216.6107534)
(480.0046845 792.2746759 101.3647598)
(1758.295556 649.5827241 395.6099567)
(428.7612986 294.7795494 -757.9750715)
(437.5573158 449.5675149 251.7532362)
(435.3605903 645.2609037 -90.12630042)
(942.515869 909.4364089 115.1235142)
(1186.270426 605.606756 211.8445474)
(1859.293368 504.5763892 -1430.898164)
(460.2633665 951.9259456 792.6102186)
(-812.1136307 315.3730967 -402.9775901)
(1400.887428 921.0174147 241.2713229)
(-288.2313215 480.1944394 -508.4960093)
(557.1701692 149.8081201 -518.022362)
(1886.117262 -80.80733827 149.3717818)
(1196.354607 -335.856107 277.2174398)
(1465.167782 331.0113304 -84.62779642)
(2138.660834 -166.6319033 -423.1000274)
(1271.621233 -236.2532982 251.8973671)
(1474.817671 -400.6816536 157.5157614)
(912.616639 350.2844509 4.307127501)
(1272.604158 -383.4455062 150.3680441)
(575.1119002 282.297043 1009.362865)
(2212.514109 874.1072832 330.0339418)
(677.0065501 1036.75041 247.5411817)
(167.8978893 1099.925437 296.8168318)
(145.9885099 -449.2657981 -147.7051851)
(931.0402244 71.40835227 -198.976273)
(267.605933 270.0180424 -988.7066156)
(759.516252 517.7211797 803.8617619)
(1861.059217 4.984926677 48.76801583)
(761.30655 961.5595946 -891.8137594)
(1151.929593 -396.0358952 -84.13052798)
(948.8922054 448.8993825 -835.8558187)
(1277.857804 1003.224101 195.9235639)
(948.991503 -95.92398633 -385.5612888)
(167.0375971 899.7615229 105.4853856)
(740.5656674 281.8052037 -516.2254164)
(581.4823448 -205.8870327 -358.0076829)
(1084.432589 154.6443288 817.9125198)
(706.2827764 -587.315067 95.0939803)
(1591.345619 305.1331008 -63.7769028)
(936.9857017 -139.9466695 -156.8821758)
(1213.81768 -96.890575 140.8476861)
(1334.144179 -146.866106 47.0325569)
(1682.743872 77.04670368 -22.96338035)
(1521.460241 -580.9025775 -82.71323222)
(1507.171154 775.2243787 237.122615)
(2095.609712 -340.6316637 977.4052118)
(1292.260773 59.61804995 321.6435134)
(1605.204949 231.7302027 -262.1682871)
(327.4813203 -132.5427713 284.1409768)
(153.3344091 782.2914024 -206.4816358)
(-635.0781963 307.9970076 -354.8875195)
(789.2836699 947.8724699 314.9996839)
(1555.121841 261.9371983 45.0848555)
(1216.300847 158.4343544 -210.2060089)
(763.8318345 2006.291338 -22.65903419)
(955.9031025 659.065626 -278.0641715)
(123.731893 978.3272212 871.9001369)
(654.9355865 511.2774103 -1070.903303)
(1517.514923 -171.4810613 -351.1106071)
(1551.373136 675.4366284 -297.2259302)
(1498.559994 228.2341035 -456.0107448)
(1368.583363 210.2725361 451.8391559)
(1095.163091 712.2924477 239.1466489)
(1498.565074 -439.3984241 349.5363698)
(1298.351462 -225.9306929 -296.0595243)
(1150.840865 -82.65603028 115.4376065)
(1543.037387 465.8398284 169.6676236)
(1686.008803 -329.3521966 -448.5174748)
(1655.051738 490.7809932 188.7027718)
(1110.648232 -281.5442739 -140.5062824)
(546.4337352 365.8953319 517.0657551)
(892.6165003 1155.889893 -1007.990837)
(-93.48790485 1198.76441 -954.3069138)
(-33.84971811 709.5044493 50.50424483)
(239.6874861 -199.5282893 724.164577)
(147.3778459 658.7379695 222.6052857)
(-285.5588535 -468.0501231 1161.386936)
(1391.541645 1084.723902 -684.8656764)
(185.5195238 654.9472495 66.38343449)
(245.5649587 825.544815 404.2842785)
(232.7531665 1364.844089 685.4495134)
(725.7445112 766.668527 88.96211915)
(478.9682097 458.9629428 578.1713394)
(991.6378473 1351.95635 42.8030691)
(819.7036209 184.7852504 -373.3071097)
(1408.928803 89.86371444 350.0130204)
(1839.267958 -244.4571016 -104.4279214)
(1665.872543 634.78914 995.0663803)
(1197.264703 777.4109248 -115.3443901)
(1962.398602 112.7376831 301.4187236)
(1768.922485 482.1322368 -574.2534531)
(1675.699012 39.91499018 405.9748019)
(1105.759851 924.2568665 -81.39972107)
(1214.379397 1215.090369 41.21155789)
(975.9339539 -404.0748396 107.3214258)
(1729.210033 -327.5000918 2.268683243)
(1446.307816 -994.1904032 -52.23523767)
(1772.084291 -74.57571018 269.7151041)
(-439.2080219 -205.4750204 568.6995253)
(2002.007383 570.7425668 462.9717576)
(293.0884069 219.4025196 362.5808411)
(-331.2882801 340.0390556 75.4306491)
(-427.8808054 799.4130046 770.6519284)
(799.0541528 582.931077 1192.921203)
(808.1879856 621.8213797 -36.71365075)
(-81.17377129 525.1529022 -442.2634605)
(744.2893983 -126.250181 167.3667827)
(945.701462 216.6231852 865.5758218)
(1336.275085 12.93703687 214.8875644)
(1433.701218 407.2880659 -438.7123949)
(1160.11055 758.6831308 -68.23307243)
(1925.488615 102.7682749 95.45874756)
(1471.07082 -294.9693042 -280.0032232)
(231.3908251 379.9182429 76.82943869)
(-71.09174243 762.7527499 59.69073882)
(1940.081393 1058.887817 -317.1674097)
(122.5631493 -229.4319655 336.6909391)
(683.4155091 1047.284551 508.9174744)
(1815.762124 -174.8000281 -197.7675591)
(1027.320991 -393.6002216 228.7167228)
(1290.386048 -39.95435426 142.4685219)
(1604.757296 32.84518288 -545.8854966)
(1665.562803 -147.2282788 239.4780643)
(1172.715736 -161.1655339 312.5903323)
(1910.629981 -220.3042549 438.1560991)
(1424.532063 -145.5798424 -184.0363615)
(1455.235707 54.84668067 232.3574013)
(1389.278184 276.7045531 -592.3842936)
(2137.975858 -18.50239416 295.8698244)
(1374.269668 256.9597175 109.239077)
(2166.314434 -43.88961798 478.0924995)
(1060.699666 591.1703124 305.5491184)
(1173.600861 2019.014328 194.7809534)
(1690.573018 120.1382894 -776.2241477)
(-456.7059728 207.7436062 -613.3368929)
(647.6708861 -45.55380683 -194.074593)
(742.2621718 655.5108549 438.7769031)
(-392.8265078 327.7201739 470.2001075)
(881.1181301 641.2782502 -12.09573425)
(-427.4785536 -212.6461082 191.3396364)
(1552.572732 926.0578993 382.8955354)
(-54.06907572 611.4400696 28.68458623)
(1345.811346 130.2839043 71.40075964)
(540.09601 7.130275025 -202.3577433)
(1099.771853 504.7245061 196.6086863)
(131.6012272 616.915831 254.6931808)
(687.4104255 -763.0710601 -212.0570157)
(275.56426 447.2158106 -681.8444219)
(882.4222552 880.6785734 49.58159571)
(1585.53601 329.8511198 623.6550914)
(-28.01119494 679.3760871 933.7615448)
(1057.882094 54.1967818 -51.88171745)
(1295.058271 -13.63580732 150.4631879)
(2065.022217 778.5455582 328.3332897)
(1539.276916 751.303894 -214.1989048)
(1614.03924 479.7871543 -216.443626)
(1832.305166 218.0618307 -25.07786696)
(1893.897831 130.9887229 -255.7171276)
(1518.116142 56.69959409 193.013527)
(1922.65652 197.0893164 119.9634205)
(1643.091981 27.71031019 -285.9751981)
(1630.843954 54.4197984 -135.282378)
(1616.134201 581.7143334 -214.3638188)
(1241.216642 -131.6570944 -138.3580385)
(1165.245453 -17.36232134 -1.25128496)
(1425.037484 -306.3088981 -82.90684643)
(1981.747273 228.6268264 332.6172523)
(1341.145432 -504.4873557 958.3344158)
(800.6644065 513.7408108 -439.9599531)
(710.0387799 510.2967097 10.94690155)
(1349.941112 -36.11449143 -296.7088241)
(890.7170401 991.8646455 -641.4349661)
(1418.539225 -41.99781104 -513.143865)
(1254.777622 260.326859 -377.835355)
(1436.210072 245.37585 4.205355057)
(1577.590732 939.7801244 131.7768861)
(962.9908153 43.60456566 -34.76360419)
(505.0091158 712.0767118 628.7619206)
(164.4278318 1097.706227 419.137769)
(960.0883061 283.0763731 707.0706092)
(1458.653254 -176.9954875 -278.6746837)
(1085.231095 -465.5343345 -361.4216967)
(538.1753458 -205.0914816 136.7336282)
(1294.540329 -213.5938743 467.6009433)
(1576.817193 -194.870285 349.9400964)
(2191.337417 310.3708816 -18.68468142)
(-566.8843491 611.8860256 632.9056342)
(1659.511354 94.53618254 153.0217371)
(1958.624624 72.52191321 83.19582508)
(1439.146003 413.569753 -347.4940769)
(666.6723237 563.6581235 -465.5328105)
(1366.693324 142.5792536 -595.998494)
(1362.794231 22.45987327 423.9873434)
(1121.240564 -343.7042468 420.0220894)
(1574.827764 945.0147111 -172.4189872)
(1397.124505 122.126114 -365.4992814)
(1564.972125 -218.2236294 226.4004866)
(1665.093183 -467.0915852 263.2243014)
(1612.770873 -138.6439627 -14.19390185)
(1731.508405 480.9887679 -555.458851)
(1337.533289 -461.2711291 -497.6298439)
(2031.574573 38.36373688 -489.5091915)
(596.0711122 1275.58617 -334.9924042)
(-60.25148839 144.4378649 -806.9586104)
(743.0520098 281.5054659 1264.040765)
(615.4862589 276.0809573 -496.5713547)
(1613.790446 326.8887891 -48.51130237)
(1545.40582 220.9523679 -312.4493156)
(1254.523875 -452.1338078 512.4311224)
(674.746225 182.1278863 -974.7008231)
(2202.741002 626.9903065 780.5343767)
(-557.0974227 28.90837176 -669.3082493)
(-421.8058911 454.0576377 -357.7361373)
(2004.476504 115.5178736 83.87495553)
(1190.655748 214.9964058 -694.832285)
(1239.882711 -92.98473181 -365.876214)
(-290.1390518 608.1680168 418.3552826)
(232.2499423 581.7330872 -507.841144)
(22.77472836 1076.575869 -314.8498364)
(648.7276288 -65.12632596 427.2039054)
(1596.48934 -104.5343544 -160.9268557)
(459.3052078 378.9550167 806.7132077)
(1419.093321 784.0402093 43.60110446)
(1531.84914 300.9842632 -335.8749177)
(1051.829105 522.2514165 -1349.493448)
(1462.881065 -77.67386591 472.2704978)
(1519.405672 535.1731144 28.01860874)
(1301.978482 162.8431057 -386.8642116)
(770.4574197 758.7136496 692.4836069)
(1788.757646 219.3898481 256.8554276)
(1245.324174 540.1991767 -579.1396247)
(966.1379065 -201.1289978 -983.1433312)
(1552.080333 -51.98860073 30.62355103)
(1475.142128 801.0487389 731.3918894)
(149.6762995 -519.386961 -334.5247378)
(1161.143948 -4.78606225 -332.4157561)
(1572.534765 -372.1976245 36.05367769)
(1538.805164 282.2384452 430.7124553)
(1118.866342 -163.4510988 530.656115)
(1852.075469 -89.77491636 73.17523033)
(1090.664884 111.0144411 303.9227417)
(1931.77085 145.0475168 782.2661747)
(1567.865149 -386.6756411 -126.6167305)
(1412.005116 71.25343202 -93.56650593)
(1828.906363 -884.709874 387.6407768)
(1217.990131 82.4456264 149.3478534)
(1447.729725 22.61096701 724.6906598)
(53.91597204 1132.738185 -204.9990821)
(825.0931862 523.6191311 -287.8110931)
(252.0119394 -404.7368823 -173.4645375)
(762.9242988 531.2852121 359.7159531)
(937.5693692 411.9716317 -757.8061317)
(1787.77188 29.74263657 -52.59122053)
(1145.219436 -322.4678661 -314.4952875)
(1006.597667 531.6894616 -59.74647755)
(438.9508539 -118.4622742 -332.0658003)
(284.8012031 857.8697455 824.0843526)
(1322.866278 -434.8061438 -358.2643058)
(543.7805452 -272.9989906 1144.681113)
(1015.562521 -6.706411528 -1099.117493)
(1022.82638 998.4683565 140.5317628)
(1586.202451 -360.3884375 -467.1014821)
(1535.063486 661.5369759 -493.8773496)
(596.0281902 -39.56711764 953.1876345)
(1146.173477 698.590925 -736.8354215)
(551.0485968 690.9358122 -584.8897773)
(-790.3748566 106.7982105 -549.507884)
(1482.228651 102.2149866 538.5063579)
(137.332942 7.03793931 -229.9914774)
(2006.788141 414.1912316 133.7708368)
(1215.49645 207.4597746 438.195174)
(1619.705195 111.483426 -106.4342016)
(1483.811952 -56.74021035 -392.7592711)
(1020.026003 1618.630401 -1481.635847)
(1410.240679 5.902375564 -4.203627315)
(1581.590839 -454.4898711 -1117.68942)
(1597.80288 862.3059086 549.5572676)
(1382.196577 478.039749 -280.9390813)
(1237.932284 70.28427879 -854.8765572)
(12.60571993 944.785578 902.4701569)
(964.1934461 903.1306517 -166.3174134)
(1632.256296 -371.8850026 -1208.408877)
(1524.598103 543.5240966 -347.338517)
(1505.360527 -297.1263626 234.7886077)
(1580.807596 -387.1879374 -103.9675538)
(2087.844743 -280.2199521 787.3090869)
(1893.411385 433.8800641 -296.2177949)
(1136.500753 229.6138206 28.29577814)
(1251.139157 99.16698649 -114.4116978)
(1437.921917 80.21781064 14.20911197)
(1341.270993 -320.9538083 -465.4964909)
(1967.972322 -158.1701904 240.4789377)
(1343.615494 -80.9984573 -496.0515855)
(1263.092365 -359.2982494 481.295248)
(1343.776209 106.1914889 231.9874588)
(-102.6404092 76.81080182 -577.5866539)
(409.8349763 269.5147246 308.6932487)
(883.9472198 -213.8818162 423.3924946)
(-258.4478812 483.3637931 -554.8811511)
(831.2500197 255.1158098 55.55502117)
(1370.243846 -540.6583244 1006.163659)
(77.84937937 557.5927435 -497.1437767)
(950.0087573 890.2320846 -592.1783602)
(731.5804667 243.7254229 -1204.5584)
(1900.878673 587.9746661 -424.5490995)
(666.7806018 280.6877532 249.7107812)
(858.2136986 249.8000998 1154.294308)
(1852.711405 206.4814419 -1151.354234)
(1473.902486 -294.5437281 188.5258462)
(2030.200293 195.1528011 187.1166142)
(984.2633341 230.5792718 352.0653522)
(-618.899458 914.4118241 -103.5632042)
(1553.647103 258.8979903 307.6154983)
(1291.097065 83.96439138 -140.5729807)
(1118.80921 -84.73449964 569.8469303)
(112.8066758 542.7774426 -299.4717503)
(601.8254086 1488.410065 -52.30407263)
(1837.037061 541.3385891 636.5146278)
(281.7562019 923.2276185 -516.7938831)
(1701.473847 -124.5263944 92.03368711)
(-533.7861895 481.1968214 232.4654552)
(1786.484173 20.64332613 -167.3427806)
(958.113249 19.21768963 107.2014647)
(1386.031646 467.2104411 -989.4242555)
(1131.478828 -106.8818591 -459.7323132)
(1105.248163 -380.1018657 -1117.125389)
(1642.923126 73.57093224 66.78611977)
(1635.234886 1494.7753 -493.2676201)
(912.7532104 -4.391397247 -1022.621714)
(1191.029872 44.22984047 -202.1007215)
(1717.241688 68.38271531 386.6002329)
(1217.372698 88.3281107 46.79022835)
(942.780925 66.52962829 475.2778732)
(1814.037334 -14.66208668 -190.932452)
(1356.137082 668.7152963 82.48068869)
(1496.796227 667.0337402 424.5246951)
(1705.482762 251.0753029 -195.9679412)
(952.1944869 -747.9990458 -133.3312226)
(963.5207284 314.2720233 -298.4353838)
(820.848159 1010.411666 -296.0801249)
(1532.046096 427.2945552 -242.8733817)
(1070.176564 495.543166 68.85846716)
(1881.651216 -304.362003 -53.79473481)
(1698.099557 -187.628652 -262.4428489)
(1751.947613 441.5267435 -102.5040997)
(1816.401394 24.18869498 486.9371372)
(1400.596461 286.848898 -619.9041889)
(1541.569922 -427.330322 -68.07517706)
(1968.20991 -306.5571755 -140.5841339)
(1855.747861 -385.6438774 -440.1321903)
(1295.73679 -281.132722 -275.5296737)
(1367.259563 -63.11737205 577.4566723)
(1400.979581 184.5499535 18.37803918)
(1980.48394 585.9689557 353.2736312)
(750.2092444 -216.460171 -241.1444784)
(2371.185513 35.81278118 494.9101399)
(-331.7687921 691.9255753 -529.0239935)
(1132.941483 72.1537721 -840.7331208)
(1011.599144 76.54697706 -1200.220986)
(1529.755926 686.9911738 -632.9630655)
(73.84225768 102.332322 0.4103283781)
(603.2851903 -17.24620802 -609.5493974)
(1331.47024 22.16106586 232.1983797)
(1419.755858 153.2511678 3.541623539)
(53.97053576 320.9281161 -83.08680057)
(1622.426511 -129.2303836 -585.157488)
(572.22722 -9.965011532 -467.8493095)
(1653.069981 1243.137844 -337.6003467)
(1057.801456 -207.4782605 520.1327408)
(1462.25172 -180.4701098 -372.238459)
(520.454127 694.9200946 -134.4921659)
(1219.53743 931.1609166 -183.6593855)
(1551.836046 58.16660779 743.9136344)
(698.32681 147.0290454 -156.1663094)
(1862.449276 1244.363097 259.7309796)
(1091.03327 584.6769365 199.5071489)
(1914.334474 -313.620964 100.2641304)
(1000.101149 201.8396673 -937.5674793)
(1365.279049 122.7291684 91.29389762)
(1099.613698 173.9312615 129.9764718)
(2139.253119 527.8991903 -135.7591965)
(1415.131398 -656.8973392 -370.5449775)
(1621.343176 -35.17699359 -23.59875385)
(1265.227301 98.67666505 120.7384727)
(348.6992163 638.9796534 -258.0994981)
(1082.509952 176.8240478 -24.63104072)
(1632.193488 -299.289348 -195.8163943)
(1689.954031 -68.32135904 45.73343892)
(1623.625432 146.3692056 518.7290983)
(2361.336589 44.47828162 512.9472299)
(1518.205714 -386.6775999 40.90155788)
(1821.742176 391.9556054 128.0192501)
(1262.049909 -377.2567553 238.8982599)
(1627.956077 -405.5563053 91.26066913)
(1256.820988 -331.8022742 -338.226938)
(1929.886585 63.47328543 267.4280114)
(1486.281473 -252.9360469 -52.30182217)
(1362.588563 -17.63033 223.7559162)
(1008.561302 -366.5241445 188.5940454)
(823.016737 700.1996557 -576.2842018)
(936.4088653 871.6827726 804.6163467)
(142.7760443 280.3440432 -608.9037647)
(-67.97803785 442.3682861 -288.7472806)
(-217.6185213 725.301567 -270.6218707)
(1563.072135 -150.8115006 79.41345307)
(227.0254924 113.2696515 82.07311031)
(1195.40447 499.9755634 -904.818033)
(1137.417279 -23.47878448 -252.5423031)
(579.2576557 -642.6049558 18.23707469)
(334.5261968 252.4208347 -427.6684938)
(-526.2657603 73.63429712 55.84940388)
(610.9705854 344.449645 -230.3753712)
(1516.889909 83.14044744 59.71221977)
(-355.3592695 197.7195436 -778.6520283)
(877.0636248 479.3302911 -934.8445434)
(1656.661341 -114.0868175 305.9995995)
(651.5341833 -170.4277258 -739.0898719)
(1820.898034 -560.1319807 347.9697)
(1756.937165 305.5852202 -262.8851284)
(1263.346409 -819.9500285 368.9664419)