/*--------------------------------*- C++ -*----------------------------------*\
| =========                 |                                                 |
| \\      /  F ield         | OpenFOAM: The Open Source CFD Toolbox           |
|  \\    /   O peration     | Version:  2406                                  |
|   \\  /    A nd           | Website:  www.openfoam.com                      |
|    \\/     M anipulation  |                                                 |
\*---------------------------------------------------------------------------*/
FoamFile
{
    version     2.0;
    format      ascii;
    arch        "LSB;label=32;scalar=64";
    class       volScalarField;
    location    "0.006";
    object      dsmcRhoNMean;
}
// * * * * * * * * * * * * * * * * * * * * * * * * * * * * * * * * * * * * * //

dimensions      [0 -3 0 0 0 0 0];

internalField   nonuniform List<scalar> 
546
(
27.172
26.98233333
26.696
26.61233333
26.10033333
25.684
25.74733333
25.51966667
25.65666667
25.27533333
24.81533333
24.82433333
23.70933333
24.18333333
23.86166667
23.281
22.36833333
22.50466667
22.416
22.05966667
21.65033333
21.59
21.47566667
20.66133333
19.632
19.05133333
18.50433333
17.63866667
16.099
12.97533333
24.338
24.27533333
23.89633333
24.006
23.58066667
23.56333333
23.18333333
23.16533333
22.77733333
22.54533333
22.31233333
22.31733333
22.07766667
22.05233333
21.95233333
21.48033333
20.96833333
20.88633333
20.50566667
20.16666667
19.872
19.62666667
19.44233333
18.67933333
18.21833333
17.92
17.14133333
16.022
14.52133333
12.019
22.93733333
23.11166667
23.031
22.66833333
22.18533333
21.94933333
21.89733333
21.65
21.75166667
21.27966667
21.24533333
21.33233333
21.01666667
20.90233333
20.68233333
19.86833333
20.049
19.756
19.419
19.11833333
18.55066667
18.48666667
18.78966667
17.81433333
17.05733333
16.675
16.27466667
15.416
13.885
12.131
21.477
21.69266667
22.12366667
21.913
21.78033333
21.50633333
21.26233333
21.23666667
21.32933333
21.02166667
20.75766667
20.52566667
20.473
20.26
19.84733333
19.36033333
19.10433333
19.138
18.903
18.777
18.36666667
18.00933333
17.65333333
17.33666667
16.86966667
16.304
15.85866667
14.906
14.04966667
12.72233333
19.96066667
20.26766667
20.86633333
21.20066667
21.404
21.225
20.89266667
20.86133333
21.084
20.616
20.403
20.46033333
20.323
20.06466667
19.775
19.50266667
18.92633333
18.92933333
18.67233333
18.43733333
17.97933333
17.62933333
17.224
17.07
16.509
16.15366667
15.904
14.83733333
14.007
12.71466667
18.62333333
19.12
19.626
19.966
20.29966667
20.45166667
20.46066667
20.6
20.59466667
20.61066667
20.58433333
20.17
19.85066667
19.74866667
19.621
19.59833333
19.01366667
19.079
18.791
18.34466667
18.08066667
17.45466667
17.19
17.224
16.82866667
16.16533333
15.486
14.99833333
14.34333333
12.966
16.986
17.87666667
18.39966667
18.89
19.372
19.98433333
20.00566667
20.13
20.03266667
20.23633333
20.291
20.31833333
20.20166667
20.07733333
19.60566667
19.31766667
19.20166667
19.005
18.793
18.41133333
18.111
17.808
17.365
17.147
16.977
16.393
15.87433333
15.269
14.47033333
13.47533333
15.29866667
16.15533333
16.966
17.78133333
18.14066667
18.65166667
19.282
19.68
19.63
19.67933333
19.91366667
20.122
19.81566667
19.774
19.77733333
19.54733333
19.463
19.06566667
18.892
18.596
18.40233333
17.84533333
17.61233333
17.03333333
16.857
16.574
16.04133333
15.35933333
14.85133333
14.05366667
13.88966667
14.74033333
15.43633333
16.092
16.91666667
17.41766667
18.00233333
18.447
18.974
19.08
19.18766667
19.49933333
19.67266667
19.73466667
19.73433333
19.685
19.45633333
19.21233333
19.00166667
18.73
18.47266667
18.175
17.68566667
17.32433333
17.055
16.811
16.196
15.54433333
14.94866667
14.348
12.483
13.03933333
13.77533333
14.54966667
15.31033333
15.97933333
16.81933333
17.28633333
17.86566667
18.36433333
18.637
19.104
19.10133333
19.37
19.44833333
19.35166667
19.25566667
19.167
18.81033333
18.66666667
18.63033333
18.40766667
18.03466667
17.38
17.19233333
16.83166667
16.43433333
15.97766667
15.23733333
14.58366667
11.78833333
12.32
12.85666667
13.49033333
14.08033333
14.68266667
15.336
16.11933333
16.789
17.49266667
17.88633333
18.16166667
18.543
18.74966667
18.79633333
18.74766667
18.89733333
19.03766667
18.79966667
18.57933333
18.541
18.35433333
18.102
17.79033333
17.04066667
16.878
16.57933333
16.33933333
15.81733333
15.054
11.01
11.45
11.83933333
12.383
12.93566667
13.524
14.26466667
14.857
15.50766667
16.11866667
16.65966667
17.086
17.63766667
18.086
18.322
18.55366667
18.495
18.68166667
18.86666667
18.696
18.477
18.48433333
18.115
17.89233333
17.63233333
17.27633333
16.96966667
16.37866667
16.148
15.69566667
10.36133333
10.58766667
11.04566667
11.34833333
11.833
12.41366667
12.97266667
13.48933333
14.029
14.51666667
15.12366667
15.99733333
16.708
17.232
17.63633333
17.90433333
18.031
18.31533333
18.39066667
18.499
18.36766667
18.522
18.26133333
18.215
17.90933333
17.54366667
17.23633333
16.84566667
16.48166667
15.95466667
9.856666667
10.09133333
10.31733333
10.747
11.115
11.44866667
11.83466667
12.36633333
12.92466667
13.62966667
14.28366667
14.724
15.28366667
16.005
16.57733333
17.06966667
17.571
17.90366667
18.061
18.219
18.14933333
18.08533333
18.41433333
18.34066667
17.98766667
17.66966667
17.63466667
17.23766667
16.70766667
16.188
9.779666667
9.923
10.07633333
10.11566667
10.37833333
10.73566667
11.085
11.456
11.957
12.48866667
13.03066667
13.466
14.21966667
14.98
15.62033333
16.349
16.816
17.123
17.42533333
17.764
18.056
18.269
18.25233333
18.179
18.22066667
17.918
17.75733333
17.557
17.114
16.56133333
9.421
9.365333333
9.513333333
9.57
9.779333333
10.00833333
10.389
10.81633333
11.16766667
11.516
12.03466667
12.69766667
13.113
13.641
14.361
14.898
15.52466667
16.08433333
16.51866667
17.08966667
17.33066667
17.46866667
17.67166667
17.938
18.02566667
17.856
17.684
17.46866667
17.17366667
9.297333333
9.341
9.394666667
9.63
9.647
9.800333333
10.01566667
10.27366667
10.486
10.84333333
11.20933333
11.52833333
11.92066667
12.39266667
12.93233333
13.63966667
14.421
15.13933333
15.86533333
15.94066667
16.44933333
17.159
17.335
17.567
17.47133333
9.304
9.343333333
9.398
9.370333333
9.44
9.482
9.514666667
9.586333333
9.870333333
10.11333333
10.32133333
10.73366667
11.25233333
11.776
12.224
12.71433333
13.19466667
13.88266667
14.39166667
9.155
9.103333333
9.076333333
9.113666667
9.173333333
9.196666667
9.277666667
9.355666667
9.527333333
9.629666667
10.01633333
10.24866667
10.48033333
10.82466667
9.027
8.997
8.989
9.003333333
9.057
9.038333333
9.094666667
9.219333333
8.944333333
)
;

boundaryField
{
    flow
    {
        type            calculated;
        value           nonuniform List<scalar> 
15
(
12.97533333
12.019
12.131
12.72233333
12.71466667
12.966
13.47533333
14.05366667
14.348
14.58366667
15.054
15.69566667
15.95466667
16.188
16.56133333
)
;
    }
    obstacle
    {
        type            calculated;
        value           nonuniform List<scalar> 
30
(
27.172
26.98233333
26.696
26.61233333
26.10033333
25.684
25.74733333
25.51966667
25.65666667
25.27533333
24.81533333
24.82433333
23.70933333
24.18333333
23.86166667
23.281
22.36833333
22.50466667
22.416
22.05966667
21.65033333
21.59
21.47566667
20.66133333
19.632
19.05133333
18.50433333
17.63866667
16.099
12.97533333
)
;
    }
    frontAndBack
    {
        type            empty;
    }
    procBoundary1to0
    {
        type            processor;
        value           nonuniform List<scalar> 
21
(
27.53
24.51033333
23.029
21.326
19.59566667
17.73033333
16.259
14.45833333
13.15733333
11.876
11.303
10.68
10.22833333
9.788333333
9.661333333
9.469333333
9.265
9.252
9.143
9.050666667
9.012333333
)
;
    }
    procBoundary1to3
    {
        type            processor;
        value           nonuniform List<scalar> 
36
(
16.89266667
17.58733333
17.754
17.479
16.89266667
17.26566667
15.12066667
15.619
16.08633333
16.56266667
17.01633333
17.58733333
17.33166667
11.27766667
11.79233333
12.25766667
12.73233333
15.12066667
13.38266667
9.301
9.421666667
9.451666667
9.704
9.897333333
11.27766667
10.19633333
8.976666667
8.942333333
8.859333333
8.921666667
8.995666667
9.019666667
9.301
9.091333333
8.976666667
9.042
)
;
    }
}


// ************************************************************************* //
