/*--------------------------------*- C++ -*----------------------------------*\
| =========                 |                                                 |
| \\      /  F ield         | OpenFOAM: The Open Source CFD Toolbox           |
|  \\    /   O peration     | Version:  2406                                  |
|   \\  /    A nd           | Website:  www.openfoam.com                      |
|    \\/     M anipulation  |                                                 |
\*---------------------------------------------------------------------------*/
FoamFile
{
    version     2.0;
    format      ascii;
    arch        "LSB;label=32;scalar=64";
    class       volVectorField;
    location    "0.006";
    object      fD;
}
// * * * * * * * * * * * * * * * * * * * * * * * * * * * * * * * * * * * * * //

dimensions      [1 -1 -2 0 0 0 0];

internalField   uniform (0 0 0);

boundaryField
{
    flow
    {
        type            zeroGradient;
    }
    obstacle
    {
        type            calculated;
        value           nonuniform List<vector> 
30
(
(3.338335433 -8.409911903 -3.597127113)
(1.410845925 -1.552305548 0.7098250449)
(6.454898002 -5.488820345 -0.721629886)
(3.68535816 -2.074582222 -0.6599312719)
(3.234847916 -6.381744355 3.512295337)
(0 0 0)
(3.775820808 -2.257290183 -1.212942619)
(0 0 0)
(0 0 0)
(1.843999709 -0.3796669596 1.22538326)
(1.971337528 -2.498623646 0.01814241499)
(4.593414258 -4.823436679 1.883941197)
(2.225310297 -6.565760772 -2.097143652)
(1.829429417 -2.612187702 -0.5233307831)
(0 0 0)
(2.784418616 -3.61875166 -0.02544866651)
(4.72640398 -2.683032556 0.6300666805)
(2.380830399 -5.115969301 -0.001763999145)
(0 0 0)
(10.05724663 -8.164876646 1.005117914)
(-0.8465619677 -1.865461927 -0.5485985199)
(1.058957701 -3.072445627 -1.464872869)
(-0.1240974765 -4.03900272 0.1448706905)
(0 0 0)
(9.188219705 -8.593605255 -3.66724425)
(1.872277258 -1.877166546 0.01603490054)
(-0.05971972668 -6.3989079 2.349392918)
(0 0 0)
(6.447781008 -5.637135763 0.9248335547)
(0 0 0)
)
;
    }
    frontAndBack
    {
        type            empty;
    }
    procBoundary1to0
    {
        type            processor;
        value           uniform (0 0 0);
    }
    procBoundary1to3
    {
        type            processor;
        value           uniform (0 0 0);
    }
}


// ************************************************************************* //
