/*--------------------------------*- C++ -*----------------------------------*\
| =========                 |                                                 |
| \\      /  F ield         | OpenFOAM: The Open Source CFD Toolbox           |
|  \\    /   O peration     | Version:  2406                                  |
|   \\  /    A nd           | Website:  www.openfoam.com                      |
|    \\/     M anipulation  |                                                 |
\*---------------------------------------------------------------------------*/
FoamFile
{
    version     2.0;
    format      ascii;
    arch        "LSB;label=32;scalar=64";
    class       volVectorField;
    location    "0.006";
    object      fDMean;
}
// * * * * * * * * * * * * * * * * * * * * * * * * * * * * * * * * * * * * * //

dimensions      [1 -1 -2 0 0 0 0];

internalField   uniform (0 0 0);

boundaryField
{
    flow
    {
        type            calculated;
        value           uniform (0 0 0);
    }
    obstacle
    {
        type            calculated;
        value           nonuniform List<vector> 
30
(
(2.366009052 -2.731131717 -0.006745089626)
(2.383617448 -2.73411842 -0.014374747)
(2.250205654 -2.718496956 -0.02332818643)
(2.171589986 -2.692966687 0.02631322583)
(2.079006686 -2.629361049 0.004718205155)
(2.106585446 -2.628358967 0.009694589488)
(2.05604551 -2.643274494 -0.003161118062)
(2.035852792 -2.6969646 0.001956574238)
(1.974854884 -2.662913277 -0.007897506991)
(1.922052713 -2.618915547 0.0285975986)
(1.864870877 -2.590238653 -0.0174639062)
(1.937567322 -2.614934733 -0.04961919846)
(1.816672388 -2.540325271 -0.02817274145)
(1.832019116 -2.617944023 0.01099048277)
(1.84124645 -2.598552713 -0.03401890003)
(1.768534684 -2.507174913 -0.01443211886)
(1.745150939 -2.512867651 -0.02528711475)
(1.633579034 -2.416715765 0.01011325948)
(1.658381511 -2.450394816 0.001933914688)
(1.704549158 -2.475934171 -0.0169822942)
(1.663806246 -2.425247505 0.01820809931)
(1.554058597 -2.401742589 0.02835940807)
(1.659325358 -2.421981369 -0.02707132585)
(1.649111879 -2.408135617 0.001054468191)
(1.605898167 -2.285396637 -0.02486313541)
(1.526914898 -2.209833951 0.005636418356)
(1.566675858 -2.124075834 0.004223852304)
(1.564188365 -2.043772595 0.006321889649)
(1.482382737 -1.855486687 -0.0238903796)
(1.526875939 -1.631785135 0.02278687623)
)
;
    }
    frontAndBack
    {
        type            empty;
    }
    procBoundary1to0
    {
        type            processor;
        value           uniform (0 0 0);
    }
    procBoundary1to3
    {
        type            processor;
        value           uniform (0 0 0);
    }
}


// ************************************************************************* //
