/*--------------------------------*- C++ -*----------------------------------*\
| =========                 |                                                 |
| \\      /  F ield         | OpenFOAM: The Open Source CFD Toolbox           |
|  \\    /   O peration     | Version:  2406                                  |
|   \\  /    A nd           | Website:  www.openfoam.com                      |
|    \\/     M anipulation  |                                                 |
\*---------------------------------------------------------------------------*/
FoamFile
{
    version     2.0;
    format      ascii;
    arch        "LSB;label=32;scalar=64";
    class       volScalarField;
    location    "0.006";
    object      iDof;
}
// * * * * * * * * * * * * * * * * * * * * * * * * * * * * * * * * * * * * * //

dimensions      [0 -3 0 0 0 0 0];

internalField   nonuniform List<scalar> 
546
(
8.07620476e+20
4.971901036e+20
6.83029879e+20
5.734573735e+20
8.3201415e+20
6.98620474e+20
6.805108241e+20
6.621213391e+20
7.387707397e+20
6.004581869e+20
4.115410846e+20
6.588350948e+20
5.411428587e+20
4.215436117e+20
6.999781263e+20
5.545119881e+20
4.828732361e+20
5.125435227e+20
4.910277345e+20
5.212727833e+20
6.83474837e+20
5.037893103e+20
4.27951044e+20
7.015512192e+20
5.172319208e+20
5.493406725e+20
5.265994224e+20
3.915664243e+20
5.363124894e+20
2.848971793e+20
6.730170638e+20
5.197896538e+20
4.098179274e+20
4.587658988e+20
4.391185792e+20
8.150572203e+20
4.458519192e+20
4.729438136e+20
5.957828546e+20
6.965314962e+20
4.841659818e+20
7.076376944e+20
2.705714292e+20
6.447137585e+20
5.999812507e+20
6.301272592e+20
3.30386951e+20
7.688152835e+20
4.651841692e+20
5.734000621e+20
4.205999001e+20
4.242436301e+20
4.279510444e+20
5.39654784e+20
4.083409901e+20
4.394725384e+20
4.711679046e+20
5.03442546e+20
2.822697313e+20
2.848971793e+20
4.262441401e+20
6.101878545e+20
3.642826021e+20
6.881488482e+20
6.702336213e+20
5.821837284e+20
3.754542475e+20
6.384741484e+20
5.95782855e+20
3.842932396e+20
6.77832374e+20
5.368285957e+20
5.903376636e+20
4.959336604e+20
7.249773451e+20
3.780763555e+20
4.066300935e+20
4.100348178e+20
4.651841695e+20
5.994637013e+20
5.783248616e+20
6.098502178e+20
4.279510444e+20
5.126720448e+20
5.444546535e+20
3.570714372e+20
4.711679042e+20
4.754735152e+20
5.363124894e+20
3.418766155e+20
4.262441401e+20
3.389932522e+20
6.374945537e+20
6.422722588e+20
6.008991083e+20
7.219078232e+20
3.989201383e+20
4.020022416e+20
5.481202262e+20
3.842932396e+20
4.599576827e+20
4.392233962e+20
5.165454557e+20
6.44713759e+20
5.749820323e+20
5.293068977e+20
5.845307595e+20
5.637978745e+20
6.202455589e+20
5.994637013e+20
4.205999001e+20
5.037893108e+20
6.151796258e+20
2.96810131e+20
5.172319208e+20
4.669395717e+20
6.928939774e+20
3.356283643e+20
4.234045973e+20
4.558354857e+20
4.935458465e+20
3.389932522e+20
6.374945533e+20
5.73457373e+20
3.466725625e+20
3.260228881e+20
7.509084955e+20
6.384741484e+20
6.196141688e+20
7.926048061e+20
6.778323746e+20
6.100324956e+20
3.6896104e+20
4.215436117e+20
3.74988282e+20
3.024610844e+20
4.066300939e+20
4.356619947e+20
5.168712995e+20
7.558455358e+20
4.731748868e+20
3.446979489e+20
8.559020881e+20
5.126720448e+20
3.266727927e+20
5.21873638e+20
3.603048667e+20
3.635973953e+20
3.951776241e+20
2.279177441e+20
3.589424343e+20
4.519910036e+20
3.642826024e+20
4.128893092e+20
5.315645962e+20
4.191722847e+20
6.335790431e+20
4.965910043e+20
6.196141688e+20
3.842932393e+20
6.052074768e+20
5.124272955e+20
2.705714289e+20
4.21543611e+20
3.499890629e+20
4.032814459e+20
5.591163786e+20
3.331532895e+20
7.494633843e+20
4.430818666e+20
4.731748876e+20
3.71213177e+20
3.477102254e+20
2.428446528e+20
4.900091848e+20
6.317417734e+20
3.325891106e+20
3.635973946e+20
4.516315688e+20
2.27917742e+20
2.692068253e+20
2.711946018e+20
4.553532523e+20
2.752595391e+20
4.853415875e+20
5.123216813e+20
4.927837002e+20
4.729438136e+20
4.527949695e+20
4.083115671e+20
4.35749384e+20
5.61229896e+20
4.427532481e+20
4.959336608e+20
5.249835943e+20
4.284865359e+20
4.828732361e+20
4.100348178e+20
3.359663458e+20
4.170182301e+20
4.731748908e+20
3.977284053e+20
4.012041048e+20
4.587065696e+20
5.716773932e+20
3.845384742e+20
4.98883666e+20
4.475044857e+20
3.104967063e+20
3.13386901e+20
3.140746296e+20
3.389932525e+20
4.325855903e+20
3.670127193e+20
4.16007075e+20
4.657469827e+20
3.989201383e+20
3.310606695e+20
4.289636556e+20
4.803665495e+20
5.567908787e+20
6.344337945e+20
4.91948053e+20
4.959336608e+20
4.999843771e+20
4.536916277e+20
5.082876161e+20
6.663065757e+20
5.427148618e+20
7.037182551e+20
6.571873383e+20
4.507588516e+20
4.279510415e+20
3.50775609e+20
3.266727904e+20
4.669395676e+20
4.711678984e+20
4.475044817e+20
4.234045957e+20
4.55835484e+20
2.243390213e+20
2.937941522e+20
5.008885776e+20
5.275807836e+20
3.466725627e+20
5.588963796e+20
3.754542478e+20
5.20238195e+20
4.766262837e+20
5.284032041e+20
7.02040672e+20
5.124272963e+20
4.919480538e+20
5.455270277e+20
3.999875011e+20
5.293068943e+20
3.558013313e+20
4.100348192e+20
3.359663444e+20
5.994636988e+20
3.417374188e+20
8.219720375e+20
7.221673886e+20
3.50775609e+20
3.538955229e+20
6.042747398e+20
4.98883666e+20
3.91566425e+20
3.104967035e+20
3.988560521e+20
4.262441401e+20
3.389932522e+20
4.098179274e+20
3.440744241e+20
9.244601666e+19
3.260228879e+20
3.754542472e+20
4.020022422e+20
3.813010266e+20
8.16623131e+20
4.841659837e+20
4.148220964e+20
3.443636357e+20
5.207303438e+20
4.499859369e+20
6.553323506e+20
4.574588582e+20
5.637978764e+20
5.168712991e+20
5.212727859e+20
2.365874438e+20
3.977284019e+20
2.942163435e+20
6.206030006e+20
4.083409916e+20
4.39472538e+20
4.988836615e+20
5.873496375e+20
2.540427574e+20
4.843252017e+20
3.813763359e+20
3.163937014e+20
2.049089628e+20
2.981978335e+20
4.16007075e+20
3.027355394e+20
3.285224683e+20
4.020022434e+20
2.383131422e+20
4.083115661e+20
5.325825771e+20
5.124272955e+20
2.95168833e+20
4.463402947e+20
4.249867216e+20
6.553323506e+20
6.861882762e+20
4.869163438e+20
6.719326888e+20
3.648909471e+20
4.731748876e+20
6.098502214e+20
4.546979854e+20
5.396547831e+20
4.627864531e+20
4.944066053e+20
3.603048699e+20
3.356283643e+20
2.540427597e+20
6.267738019e+20
2.019051197e+20
3.163937037e+20
2.504442902e+20
2.752595399e+20
2.311150415e+20
3.493102357e+20
3.05056574e+20
3.074134756e+20
2.621444544e+20
4.083115693e+20
4.841659867e+20
7.076376994e+20
5.165454577e+20
4.959336608e+20
4.249867182e+20
5.797170794e+20
4.574588582e+20
6.663065812e+20
4.651841692e+20
4.170182253e+20
5.783248577e+20
5.833349845e+20
2.942163385e+20
5.936202614e+20
4.627864611e+20
4.944066096e+20
4.434521475e+20
5.034425464e+20
4.516315688e+20
5.982840727e+20
1.570373143e+20
4.519910004e+19
3.415149387e+20
2.523212449e+20
4.62230083e+20
3.958849368e+20
3.285224693e+20
2.837662895e+20
2.859757706e+20
3.362565839e+20
3.631244844e+20
4.392233927e+20
4.919480511e+20
4.215436117e+20
4.999843743e+20
2.268458118e+20
4.574588545e+20
4.869163478e+20
3.618099093e+20
4.170182287e+20
6.308998554e+20
5.833349944e+20
6.68673508e+20
3.237928699e+20
4.355637205e+20
4.120055008e+20
4.988836615e+20
6.712567286e+20
4.798585418e+20
4.273457662e+20
2.467729225e+20
2.48595052e+20
2.276766258e+20
1.835063586e+20
2.311150415e+20
2.561608395e+20
4.927836965e+20
3.310606685e+20
1.906505138e+20
4.803665484e+20
2.420829896e+20
3.41618197e+20
4.181558434e+20
3.22356877e+20
5.249835931e+20
6.80537441e+20
3.812157121e+20
4.612891678e+20
4.910277341e+20
4.170182253e+20
6.046123513e+20
6.098502162e+20
5.88432687e+20
4.587065656e+20
5.172319181e+20
5.493406725e+20
4.711679026e+20
3.635973914e+20
5.080855149e+20
4.843252062e+20
1.794712177e+20
3.163937048e+20
1.593736392e+20
2.064446549e+20
2.542265475e+20
2.328734922e+20
3.050565763e+20
2.364719079e+20
4.289636559e+20
6.004581855e+20
3.147078889e+20
2.928155997e+20
4.181558467e+20
1.239834152e+20
2.99990627e+20
3.276661753e+20
3.812157121e+20
4.869163478e+20
4.65184173e+20
5.994637038e+20
5.257498751e+20
4.772740863e+20
5.88432687e+20
3.50775609e+20
8.711274487e+20
6.866758467e+20
4.98883666e+20
5.873496375e+20
6.209934127e+20
3.133868981e+20
4.038102368e+20
2.033959502e+20
1.366059755e+20
2.293829499e+20
2.311150415e+19
3.027355399e+20
2.346589066e+20
5.202381973e+20
3.813010304e+20
3.362565865e+20
3.873327834e+20
2.196116964e+20
3.443636357e+20
3.719502456e+20
4.749851556e+20
3.780763561e+20
5.337020013e+20
4.100348192e+20
4.910277341e+20
5.212727859e+20
4.731748916e+20
5.037893133e+20
4.012041048e+20
4.317238265e+20
6.533455808e+20
3.57071434e+20
6.928939743e+20
5.314115768e+20
6.492203801e+20
2.243390205e+20
1.355973011e+20
3.187472785e+20
2.752595399e+20
2.773380498e+20
3.027355376e+20
2.346589031e+20
2.364719043e+20
2.383131404e+20
1.441099656e+20
2.662912927e+20
2.440129998e+20
3.93558444e+20
2.479668304e+20
3.999874995e+20
4.536916237e+20
4.574588545e+20
4.356619954e+20
4.651841692e+20
4.170182253e+20
3.94312403e+20
3.712131719e+20
6.419265622e+20
5.396547877e+20
2.994500631e+20
1.794712177e+20
2.033959516e+20
3.187472738e+20
1.146914741e+20
1.155575207e+20
1.862987938e+20
2.346589066e+20
1.891775263e+20
2.14481828e+20
3.602749113e+20
1.694580927e+20
2.928155975e+20
1.721818192e+20
2.231701474e+20
4.499859405e+20
3.528712686e+20
2.795581889e+20
2.562717599e+20
4.393406042e+20
1.794712177e+20
2.711946022e+20
1.593736392e+20
6.881488497e+19
1.848920332e+20
2.095861414e+20
1.642612322e+20
3.074134779e+20
2.383131422e+20
1.681282919e+20
2.178746923e+20
1.220064989e+20
1.229870128e+20
5.455270269e+20
1.570373143e+20
1.807964001e+20
1.366059755e+20
2.981978349e+20
1.848920346e+20
2.794481907e+20
1.173294524e+20
2.364719079e+20
8.973560883e+19
)
;

boundaryField
{
    flow
    {
        type            zeroGradient;
    }
    obstacle
    {
        type            calculated;
        value           nonuniform List<scalar> 
30
(
272.0778495
165.4525069
128.7818774
85.34190545
385.1352943
1e-300
75.67698143
1e-300
1e-300
303.587251
390.6407282
237.6552239
529.4473791
362.6989485
1e-300
210.1751232
258.3663625
705.114228
1e-300
413.3109251
140.3804538
69.66854905
245.9878092
1e-300
653.3704059
92.65498714
174.1609089
1e-300
572.9828265
1e-300
)
;
    }
    frontAndBack
    {
        type            empty;
    }
    procBoundary1to0
    {
        type            processor;
        value           nonuniform List<scalar> 
21
(
6.235786118e+20
4.899546236e+20
4.454132941e+20
5.567666177e+20
3.117893061e+20
4.899546239e+20
3.563306353e+20
4.231426294e+20
5.790372824e+20
3.117893059e+20
2.227066471e+20
2.22706648e+20
1.113533235e+20
2.004359809e+20
2.227066471e+20
1.336239882e+20
1.781653177e+20
2.004359824e+20
1.781653189e+20
1.336239882e+20
1.781653177e+20
)
;
    }
    procBoundary1to3
    {
        type            processor;
        value           nonuniform List<scalar> 
36
(
1.709383081e+20
4.12005508e+20
4.98883666e+20
5.314115768e+20
1.709383081e+20
4.516315688e+20
3.648909471e+20
3.417374188e+20
4.507588593e+20
3.744571645e+20
4.856893048e+20
4.12005508e+20
5.989001157e+20
3.249898433e+20
2.772559923e+20
3.812157121e+20
4.100348192e+20
3.648909471e+20
5.168712991e+20
1.191565711e+20
1.441099645e+20
4.357493813e+20
1.952103983e+20
7.379220824e+19
3.249898433e+20
2.975601965e+20
2.711946041e+20
2.504442902e+20
1.835063599e+20
2.080035373e+20
1.630114445e+20
1.40795344e+20
1.191565711e+20
2.601190987e+20
2.711946041e+20
1.346034123e+20
)
;
    }
}


// ************************************************************************* //
