/*--------------------------------*- C++ -*----------------------------------*\
| =========                 |                                                 |
| \\      /  F ield         | OpenFOAM: The Open Source CFD Toolbox           |
|  \\    /   O peration     | Version:  2406                                  |
|   \\  /    A nd           | Website:  www.openfoam.com                      |
|    \\/     M anipulation  |                                                 |
\*---------------------------------------------------------------------------*/
FoamFile
{
    version     2.0;
    format      ascii;
    arch        "LSB;label=32;scalar=64";
    class       volScalarField;
    location    "0.006";
    object      iDofMean;
}
// * * * * * * * * * * * * * * * * * * * * * * * * * * * * * * * * * * * * * //

dimensions      [0 -3 0 0 0 0 0];

internalField   nonuniform List<scalar> 
546
(
6.095739882e+20
6.097885957e+20
6.078055216e+20
6.10441551e+20
6.032179626e+20
5.981122752e+20
6.041841043e+20
6.034684238e+20
6.114320842e+20
6.07071233e+20
6.007370114e+20
6.057460002e+20
5.83188019e+20
5.996664515e+20
5.965230259e+20
5.867997088e+20
5.684773422e+20
5.767310566e+20
5.793093525e+20
5.749551921e+20
5.691330018e+20
5.724637479e+20
5.744083732e+20
5.574993689e+20
5.344366879e+20
5.232836133e+20
5.128616445e+20
4.933364026e+20
4.544260403e+20
3.696635867e+20
5.4599631e+20
5.486116134e+20
5.440636555e+20
5.506567083e+20
5.449846759e+20
5.487275705e+20
5.440175611e+20
5.477950545e+20
5.428137869e+20
5.415011986e+20
5.401436388e+20
5.445719416e+20
5.430532566e+20
5.468247195e+20
5.487911837e+20
5.414137428e+20
5.328972091e+20
5.352577427e+20
5.299395284e+20
5.256167236e+20
5.223850759e+20
5.204055196e+20
5.200229285e+20
5.040195798e+20
4.959528181e+20
4.92209243e+20
4.750850653e+20
4.48119804e+20
4.098932857e+20
3.424179198e+20
5.145738907e+20
5.223132702e+20
5.243620381e+20
5.199729158e+20
5.127364241e+20
5.111417886e+20
5.138404255e+20
5.119616782e+20
5.183708027e+20
5.111020026e+20
5.143133832e+20
5.205366612e+20
5.169554124e+20
5.183085341e+20
5.170421762e+20
5.007831371e+20
5.095329216e+20
5.062904913e+20
5.018561882e+20
4.982933419e+20
4.876505333e+20
4.901781605e+20
5.025660921e+20
4.806795104e+20
4.643472255e+20
4.580127857e+20
4.510647403e+20
4.311705712e+20
3.919315218e+20
3.456087685e+20
4.818129157e+20
4.902445082e+20
5.037041789e+20
5.026468574e+20
5.033762646e+20
5.008254929e+20
4.989395855e+20
5.021875061e+20
5.08306044e+20
5.049052741e+20
5.025078031e+20
5.008529457e+20
5.035826245e+20
5.023807984e+20
4.961678285e+20
4.879789512e+20
4.855248032e+20
4.904528965e+20
4.885209083e+20
4.89396953e+20
4.828136353e+20
4.775215593e+20
4.721726519e+20
4.677907549e+20
4.59238426e+20
4.478225163e+20
4.395349849e+20
4.169063665e+20
3.965795638e+20
3.624556871e+20
4.477956421e+20
4.580401492e+20
4.750776374e+20
4.863071445e+20
4.946786352e+20
4.942739857e+20
4.902650279e+20
4.933119272e+20
5.024594282e+20
4.951618389e+20
4.939219264e+20
4.992587282e+20
4.998930145e+20
4.975371796e+20
4.943595517e+20
4.915664757e+20
4.810010438e+20
4.851053599e+20
4.825596597e+20
4.805440032e+20
4.726316119e+20
4.674457723e+20
4.606892989e+20
4.605953582e+20
4.494200945e+20
4.436933048e+20
4.407914307e+20
4.149858272e+20
3.953752129e+20
3.622372679e+20
4.177940376e+20
4.321033995e+20
4.468381472e+20
4.579859971e+20
4.691558311e+20
4.762651024e+20
4.801277633e+20
4.87132128e+20
4.907979718e+20
4.950337411e+20
4.983116976e+20
4.921742167e+20
4.882748405e+20
4.89701427e+20
4.905096716e+20
4.939777627e+20
4.83220566e+20
4.889408931e+20
4.856264294e+20
4.781287734e+20
4.752954121e+20
4.628144476e+20
4.597799057e+20
4.647507e+20
4.581222908e+20
4.440137543e+20
4.292062473e+20
4.194888403e+20
4.048688834e+20
3.693976803e+20
3.810622613e+20
4.040046248e+20
4.189174029e+20
4.333043911e+20
4.477160587e+20
4.653821479e+20
4.694507831e+20
4.760179484e+20
4.774047733e+20
4.860428809e+20
4.912105973e+20
4.957937436e+20
4.969085296e+20
4.97851271e+20
4.901263503e+20
4.869035336e+20
4.879984696e+20
4.870444821e+20
4.856781182e+20
4.798663526e+20
4.760928026e+20
4.721831627e+20
4.644606187e+20
4.626730323e+20
4.621603383e+20
4.502670862e+20
4.399692004e+20
4.270591245e+20
4.084537127e+20
3.839084502e+20
3.432087904e+20
3.651032661e+20
3.862761645e+20
4.078734687e+20
4.192580932e+20
4.343478736e+20
4.524693003e+20
4.653767126e+20
4.678086978e+20
4.726646725e+20
4.820759983e+20
4.910029543e+20
4.874139318e+20
4.903296104e+20
4.944178844e+20
4.926923043e+20
4.946400936e+20
4.88599195e+20
4.882366271e+20
4.846794323e+20
4.837512185e+20
4.731730565e+20
4.710760245e+20
4.596059903e+20
4.588936023e+20
4.552386113e+20
4.445977243e+20
4.295856564e+20
4.192081857e+20
4.003849967e+20
3.115994226e+20
3.331249026e+20
3.514492294e+20
3.691230422e+20
3.909696124e+20
4.056112851e+20
4.224407825e+20
4.362197265e+20
4.521753553e+20
4.582696879e+20
4.645007725e+20
4.758090791e+20
4.83896504e+20
4.89354275e+20
4.933429172e+20
4.961622007e+20
4.944706644e+20
4.923578515e+20
4.910708067e+20
4.881719599e+20
4.856001096e+20
4.81914251e+20
4.730374709e+20
4.674579674e+20
4.642837034e+20
4.617483023e+20
4.488844363e+20
4.347599309e+20
4.219556111e+20
4.08770474e+20
2.800424001e+20
2.946830676e+20
3.13632142e+20
3.337445453e+20
3.538448326e+20
3.721163143e+20
3.946806334e+20
4.087732211e+20
4.257623151e+20
4.410805702e+20
4.511700719e+20
4.661624311e+20
4.698431853e+20
4.803117505e+20
4.861931387e+20
4.877605079e+20
4.893708493e+20
4.911960862e+20
4.861260713e+20
4.865212669e+20
4.897447711e+20
4.880834564e+20
4.82372153e+20
4.689600065e+20
4.68022296e+20
4.623159543e+20
4.554900216e+20
4.46879844e+20
4.301037973e+20
4.154845471e+20
2.644583161e+20
2.784264572e+20
2.92716248e+20
3.094452441e+20
3.254176825e+20
3.419203857e+20
3.598728981e+20
3.811769507e+20
4.001039344e+20
4.201445954e+20
4.329977046e+20
4.43168273e+20
4.561096391e+20
4.649295414e+20
4.698936518e+20
4.725366333e+20
4.802640216e+20
4.878816341e+20
4.858504066e+20
4.842450383e+20
4.873964217e+20
4.866693151e+20
4.841731137e+20
4.800319238e+20
4.638935109e+20
4.635885936e+20
4.595088107e+20
4.5699531e+20
4.464754457e+20
4.288842188e+20
2.469972631e+20
2.587648505e+20
2.695539485e+20
2.840449069e+20
2.989627138e+20
3.149381085e+20
3.347331033e+20
3.513263082e+20
3.695680743e+20
3.871434165e+20
4.033021975e+20
4.169206114e+20
4.338407905e+20
4.484728095e+20
4.580356853e+20
4.676468457e+20
4.700389768e+20
4.787583634e+20
4.875819255e+20
4.872857962e+20
4.85714018e+20
4.901162863e+20
4.845208156e+20
4.827841632e+20
4.800003026e+20
4.745296328e+20
4.703271954e+20
4.580954252e+20
4.558091608e+20
4.471651132e+20
2.324451371e+20
2.392765024e+20
2.514840117e+20
2.603114176e+20
2.734784286e+20
2.890813908e+20
3.044151776e+20
3.189848389e+20
3.343295072e+20
3.48666053e+20
3.66118244e+20
3.903557234e+20
4.109734019e+20
4.272964421e+20
4.408945544e+20
4.512803367e+20
4.582467003e+20
4.693702745e+20
4.752803885e+20
4.821512633e+20
4.828399269e+20
4.911150348e+20
4.884347928e+20
4.914905937e+20
4.875409912e+20
4.81872478e+20
4.777180603e+20
4.711569624e+20
4.652275608e+20
4.545439501e+20
2.211234945e+20
2.280595941e+20
2.349015641e+20
2.465178544e+20
2.568843686e+20
2.666090968e+20
2.777109898e+20
2.924290415e+20
3.080117925e+20
3.273617966e+20
3.457832729e+20
3.592847381e+20
3.759385015e+20
3.968709089e+20
4.144203818e+20
4.302424916e+20
4.465560851e+20
4.588204165e+20
4.667606266e+20
4.748534404e+20
4.771004826e+20
4.795367149e+20
4.925270747e+20
4.948814246e+20
4.896734386e+20
4.853333285e+20
4.887581709e+20
4.82120818e+20
4.716068567e+20
4.611915551e+20
2.193960856e+20
2.242553381e+20
2.294145591e+20
2.32036146e+20
2.398588957e+20
2.500052188e+20
2.60119396e+20
2.709022177e+20
2.849510241e+20
2.99956885e+20
3.154502768e+20
3.285879055e+20
3.497668679e+20
3.714543119e+20
3.904961326e+20
4.120780231e+20
4.273682276e+20
4.388141381e+20
4.503327376e+20
4.629944885e+20
4.746469872e+20
4.844066824e+20
4.881940704e+20
4.905192151e+20
4.960163396e+20
4.921543129e+20
4.921579751e+20
4.91052266e+20
4.830764211e+20
4.718277165e+20
2.113497912e+20
2.116523191e+20
2.165963634e+20
2.19519483e+20
2.260151029e+20
2.330675535e+20
2.437871381e+20
2.55775898e+20
2.661401755e+20
2.765950607e+20
2.913388086e+20
3.098395685e+20
3.225457397e+20
3.382515533e+20
3.5901378e+20
3.755054369e+20
3.945497938e+20
4.121960444e+20
4.269012349e+20
4.454189077e+20
4.555797956e+20
4.631856624e+20
4.726630137e+20
4.84016375e+20
4.907079024e+20
4.904513481e+20
4.901254817e+20
4.885816683e+20
4.847606262e+20
2.085754653e+20
2.111023982e+20
2.138946023e+20
2.208957807e+20
2.229566805e+20
2.282237831e+20
2.350265354e+20
2.429433521e+20
2.49895159e+20
2.604387323e+20
2.713588967e+20
2.813063199e+20
2.93217439e+20
3.072970274e+20
3.232982295e+20
3.437890287e+20
3.665007856e+20
3.879783629e+20
4.100167725e+20
4.154717827e+20
4.324117436e+20
4.549747727e+20
4.636582065e+20
4.740057828e+20
4.756174426e+20
2.087250261e+20
2.111551305e+20
2.139704914e+20
2.149394686e+20
2.181725992e+20
2.208106453e+20
2.232701277e+20
2.266898533e+20
2.352230151e+20
2.429053513e+20
2.49861923e+20
2.619154182e+20
2.767781748e+20
2.920057395e+20
3.05590452e+20
3.204659237e+20
3.353342833e+20
3.557735419e+20
3.719319723e+20
2.053823747e+20
2.057312385e+20
2.066468963e+20
2.090519744e+20
2.120095314e+20
2.141659867e+20
2.177087083e+20
2.212352329e+20
2.270488743e+20
2.312884869e+20
2.424783937e+20
2.500807878e+20
2.577889779e+20
2.684158283e+20
2.025108338e+20
2.033281515e+20
2.04658519e+20
2.065211159e+20
2.093208946e+20
2.104788247e+20
2.13414452e+20
2.180113343e+20
2.006562993e+20
)
;

boundaryField
{
    flow
    {
        type            calculated;
        value           nonuniform List<scalar> 
15
(
3.696635867e+20
3.424179198e+20
3.456087685e+20
3.624556871e+20
3.622372679e+20
3.693976803e+20
3.839084502e+20
4.003849967e+20
4.08770474e+20
4.154845471e+20
4.288842188e+20
4.471651132e+20
4.545439501e+20
4.611915551e+20
4.718277165e+20
)
;
    }
    obstacle
    {
        type            calculated;
        value           nonuniform List<scalar> 
30
(
267.0706155
265.9270465
272.0909592
273.2595539
269.3898962
260.6525546
273.5839855
255.8231498
281.5218793
260.4978515
259.2427766
266.2597881
248.8564972
266.9160632
267.1944162
251.2027761
250.170156
242.1765977
253.2381122
261.4183571
243.9821867
237.2273312
254.2990489
249.3063341
237.1127793
219.0848037
220.8919002
223.5434396
194.8555325
173.17814
)
;
    }
    frontAndBack
    {
        type            empty;
    }
    procBoundary1to0
    {
        type            processor;
        value           nonuniform List<scalar> 
21
(
6.131113994e+20
5.458614155e+20
5.128711375e+20
4.749441955e+20
4.364085224e+20
3.948663091e+20
3.620987375e+20
3.219966939e+20
2.930225591e+20
2.644864141e+20
2.517253232e+20
2.378507001e+20
2.277917822e+20
2.179926882e+20
2.151643153e+20
2.108883477e+20
2.063377085e+20
2.060481899e+20
2.036206889e+20
2.015643627e+20
2.007106539e+20
)
;
    }
    procBoundary1to3
    {
        type            processor;
        value           nonuniform List<scalar> 
36
(
4.812673098e+20
4.830718803e+20
4.920655892e+20
4.888706816e+20
4.812673098e+20
4.873575077e+20
3.940995986e+20
4.10584365e+20
4.265327802e+20
4.430006569e+20
4.591472837e+20
4.830718803e+20
4.71815326e+20
2.819328556e+20
2.972268254e+20
3.115210085e+20
3.262937498e+20
3.940995986e+20
3.458558152e+20
2.216550536e+20
2.262926748e+20
2.288087723e+20
2.367902131e+20
2.434486941e+20
2.819328556e+20
2.528352458e+20
2.028686303e+20
2.035960295e+20
2.032180014e+20
2.061931362e+20
2.094852311e+20
2.116545118e+20
2.216550536e+20
2.149844939e+20
2.028686303e+20
2.028473423e+20
)
;
    }
}


// ************************************************************************* //
