/*--------------------------------*- C++ -*----------------------------------*\
| =========                 |                                                 |
| \\      /  F ield         | OpenFOAM: The Open Source CFD Toolbox           |
|  \\    /   O peration     | Version:  2406                                  |
|   \\  /    A nd           | Website:  www.openfoam.com                      |
|    \\/     M anipulation  |                                                 |
\*---------------------------------------------------------------------------*/
FoamFile
{
    version     2.0;
    format      ascii;
    arch        "LSB;label=32;scalar=64";
    class       volScalarField;
    location    "0.006";
    object      internalT;
}
// * * * * * * * * * * * * * * * * * * * * * * * * * * * * * * * * * * * * * //

dimensions      [1 2 -2 0 0 0 0];

internalField   nonuniform List<scalar> 
546
(
708.3563676
700.8683777
697.8604265
698.3558439
698.1934547
700.2635228
718.7204661
700.0653349
691.910621
688.1204792
690.0553663
692.8442317
693.1209557
706.5735978
703.158264
694.2313882
678.5215036
676.5991589
678.2888095
682.8269452
677.6970698
668.9936092
665.857474
665.4246965
659.6039392
661.3468628
669.7172343
681.4705155
669.276356
657.4063116
753.1700274
764.5288843
761.5922974
759.2246174
771.3322894
781.5795546
774.4753471
769.5735225
768.2305411
772.6456724
768.0376766
772.638918
771.3685536
777.3989431
775.5801113
762.171392
748.2661556
747.499884
752.8933451
747.7798391
752.8469589
739.005458
742.3795401
731.7342109
736.6794331
724.9763427
727.0958609
730.5498194
728.3498331
730.707258
768.2634644
773.8520474
792.2054166
796.9798272
808.7150013
803.7293073
796.1500824
808.2779249
800.8009116
801.7496172
801.9999666
797.9280629
796.8406331
809.0361104
801.9974985
807.557609
804.8264036
784.1069867
782.8228763
789.6201493
786.5815897
783.3238203
780.632474
774.7557892
777.5698775
765.1217781
759.0795473
767.3484794
758.924666
763.134309
722.4982536
746.0403989
773.7460926
778.7962684
786.6652565
795.6901785
797.2496599
794.8681305
808.3851129
820.9343154
827.5382218
834.0137254
828.7545707
825.352698
812.4443724
820.8323107
812.1269819
802.7443102
812.5531608
809.6955765
812.4618332
813.3473088
800.3225587
798.2257785
808.8308222
791.3533078
809.9176801
774.2071781
757.6720017
756.3826376
683.2291409
708.5554203
731.3170608
740.9421148
753.2247284
765.4032053
771.4398273
789.0487801
798.3093016
797.5231262
811.9123343
806.4133093
822.1196107
823.7133041
826.7828017
806.7432215
816.3676461
812.7115535
816.711354
820.076364
815.402392
815.8512025
813.5983063
821.5852391
818.9089233
808.0531271
807.7776112
795.2365521
791.725522
777.006592
648.155996
660.9225001
684.4982275
709.7628718
719.0172999
745.7133883
755.8773026
767.0620302
775.7897029
786.0563424
794.7891131
790.6652448
796.292536
808.7799918
818.6923943
819.5912785
826.006382
816.5580176
820.6086414
815.0185827
805.5112821
814.371107
830.0374123
833.5836413
818.6288433
811.5207559
811.3098243
802.3228733
790.7653329
781.0245557
599.0953294
617.7538473
647.0856088
665.6861295
691.1837418
706.7397573
722.6227704
729.7681032
741.6772734
751.5222668
765.3045817
784.6290256
786.9226564
797.6026617
800.8481471
806.0886987
809.958567
818.5320891
812.6807832
813.6418084
818.6949022
810.3109478
816.8540863
815.9898701
814.1297795
812.1735858
799.6715626
805.4420856
808.7350659
788.9765579
548.5334843
574.8912674
594.0243516
611.7590432
637.8965738
661.1324763
686.8125044
693.5540754
703.4066483
719.4645796
728.0272856
738.884072
752.5095726
771.8152108
782.3509324
778.2893458
793.8950852
803.5563823
808.4810579
810.1617562
806.7157808
799.6951856
797.635851
802.7329085
811.8658759
811.7653298
806.0685059
808.1305649
808.3977192
801.2694155
500.9268851
531.6246513
548.4041059
569.8491845
593.7717027
615.8819266
632.9518968
653.1844916
668.1025655
683.3546994
697.4750941
709.4236845
716.9393696
730.5244004
749.7894565
758.986139
771.7799828
775.2154554
779.1056083
802.5250919
804.7652066
807.8544895
802.9204574
794.4708858
790.4160026
800.1049646
809.0825968
812.3611632
797.7777854
795.731411
454.2739624
477.6323146
507.7208642
522.3885348
548.0405691
571.6346587
594.2209539
619.393507
638.739651
645.3280506
658.7630616
677.5945396
688.3686109
700.265532
714.3977498
734.9861889
746.4414569
760.0403834
767.0374662
771.4550655
772.6130651
784.5595852
789.9243696
798.2135067
793.0705539
786.1828426
785.3476158
792.2149378
783.3264968
780.6414621
421.5900279
443.2315357
465.7129644
487.5650805
497.0000343
515.29118
535.1965489
561.8019787
578.2734932
610.9725727
624.4438855
643.2679737
656.7314763
671.2173043
682.619068
691.3259545
710.4566002
726.1349059
731.6195639
738.8323188
755.2184533
761.817752
769.8099376
785.1899764
779.3143278
779.1391878
769.8060462
769.4460878
782.536554
777.1229136
394.9123867
410.0975197
427.1924607
447.9599434
459.6487194
478.4854228
501.5192186
520.4303586
534.3729403
556.4104983
582.469938
604.8224571
623.9289922
641.8238786
661.690543
670.4794894
676.3387767
701.6534639
709.3366778
718.7496122
730.2669086
742.5194257
748.5832893
746.1939432
760.4147593
763.0344677
765.8222378
770.5590496
768.4534988
766.6341727
363.8330512
379.0942444
399.6533206
418.0248219
434.6019181
450.2677574
463.7166892
490.0357379
511.5494474
531.3976447
542.6759636
573.90489
594.5834008
611.1238308
630.5583348
644.5830203
655.4797038
668.6161726
682.9374708
695.2921262
699.3416849
714.0006133
724.3961336
738.1540386
732.9938293
737.5692983
744.7385522
746.6379051
756.8078657
759.3344534
351.6708585
359.8748824
372.563405
396.5768919
409.4198954
430.1197776
443.2758836
456.6890538
469.3016911
488.9567817
508.184422
528.507459
546.9108025
571.6794121
591.580421
607.0525933
627.0680789
638.3755403
651.5836271
661.1142933
672.1711562
682.1367639
700.7602028
703.7571658
721.9357274
728.7318498
734.9680421
735.8774253
741.6024188
742.8601728
336.226676
342.8645435
353.9762568
363.6665494
378.0543821
394.1031617
408.0798676
420.1065875
440.6045494
459.1183254
484.1544653
500.2534558
512.1354349
526.885472
545.9675131
568.4880045
589.4295308
601.0280705
620.165638
635.6474512
647.4857511
658.8628495
671.1292215
680.5098803
689.2762589
699.6966412
712.2405598
720.0074534
714.828259
713.6199495
335.1021893
341.4828183
346.6088839
357.6764409
365.3745779
375.5288751
389.7322045
407.8434958
416.6724154
429.7389048
442.8849589
454.3805357
479.2641379
491.8498396
514.2846519
530.533561
559.8515816
573.6801923
585.3317951
598.1592994
617.7919067
633.5334931
641.7724528
653.8484494
672.4976166
684.2311374
688.4931316
700.3616182
701.3267348
322.5951054
323.5396782
331.9146687
338.7725561
350.4994803
357.5300884
369.9856195
369.6111957
380.4132302
392.2216965
405.3723244
420.0709127
445.7155061
471.1453213
486.0821573
506.2098341
520.8700454
540.4641458
556.1093561
570.336763
578.2668962
594.0877943
616.0075364
622.4972863
631.8769601
320.1574337
323.6670402
328.289348
338.3472815
340.2799783
340.6311704
349.5947877
359.479817
367.2322711
377.5149991
396.9099902
405.3347866
413.8390561
433.6400317
446.0252399
459.6898624
482.1561779
507.4947236
523.9621615
312.8585221
316.5978861
321.3991287
325.0480092
333.3291481
337.5132292
340.4872097
345.274761
360.7468169
368.0432303
375.2440205
390.385523
398.7854107
414.7939297
312.3619468
316.6686266
316.7820068
320.377341
326.4213917
330.779548
336.3275858
339.2712993
305.0977394
)
;

boundaryField
{
    flow
    {
        type            calculated;
        value           nonuniform List<scalar> 
15
(
657.4063116
730.707258
763.134309
756.3826376
777.006592
781.0245557
788.9765579
801.2694155
795.731411
780.6414621
777.1229136
766.6341727
759.3344534
742.8601728
713.6199495
)
;
    }
    obstacle
    {
        type            calculated;
        value           nonuniform List<scalar> 
30
(
636.7567771
616.9753277
618.3973723
630.9759191
635.2460475
631.6731198
627.4811789
648.158771
639.6635145
615.6118838
637.1709398
627.1316789
617.9340503
615.6314444
656.4800572
627.2045442
624.4950823
629.693662
613.5235446
561.9789298
639.8877323
580.2314609
605.6864322
655.4408351
613.7403593
596.2964517
617.3593386
610.1085984
613.3231971
609.8904876
)
;
    }
    frontAndBack
    {
        type            empty;
    }
    procBoundary1to0
    {
        type            processor;
        value           nonuniform List<scalar> 
21
(
700.389511
753.3193058
747.2155213
709.6476579
668.2307482
630.0418271
564.9794528
515.5550513
478.1236646
430.2544623
404.6738001
370.7492493
352.1118623
339.203381
336.6424821
325.9614066
319.5160276
315.0674932
310.3355632
311.5619203
304.557171
)
;
    }
    procBoundary1to3
    {
        type            processor;
        value           nonuniform List<scalar> 
36
(
702.0992489
643.1114096
660.7988961
676.8495624
702.0992489
682.5343457
538.1663822
557.8024187
572.2895342
588.7753633
604.0884098
643.1114096
617.8165204
428.0969529
438.9245408
458.7025946
471.2527997
538.1663822
493.3813741
343.8385627
348.5502848
356.0084957
362.9298551
376.0946553
428.0969529
388.7790731
306.3932234
309.4496398
310.8449894
314.4897429
316.8857868
320.1166143
343.8385627
325.6006319
306.3932234
303.1114259
)
;
    }
}


// ************************************************************************* //
