/*--------------------------------*- C++ -*----------------------------------*\
| =========                 |                                                 |
| \\      /  F ield         | OpenFOAM: The Open Source CFD Toolbox           |
|  \\    /   O peration     | Version:  2406                                  |
|   \\  /    A nd           | Website:  www.openfoam.com                      |
|    \\/     M anipulation  |                                                 |
\*---------------------------------------------------------------------------*/
FoamFile
{
    version     2.0;
    format      ascii;
    arch        "LSB;label=32;scalar=64";
    class       volScalarField;
    location    "0.006";
    object      internalEMean;
}
// * * * * * * * * * * * * * * * * * * * * * * * * * * * * * * * * * * * * * //

dimensions      [1 -1 -2 0 0 0 0];

internalField   nonuniform List<scalar> 
546
(
2.980793087
2.950321642
2.928106133
2.942892922
2.907392329
2.891331059
2.997663697
2.916397556
2.920463769
2.883750869
2.86168567
2.897208577
2.790430591
2.924965579
2.895568871
2.812209926
2.6627499
2.693756861
2.712556504
2.710180726
2.662581921
2.643769331
2.640314389
2.560925219
2.433509836
2.389021369
2.371075031
2.320832698
2.099531014
1.67762212
2.838810076
2.895426177
2.860394009
2.886056422
2.9018797
2.960626167
2.908533824
2.910193229
2.878697562
2.888240811
2.863817856
2.904594044
2.891731421
2.934578195
2.938240841
2.848626568
2.752663661
2.762025536
2.754313526
2.713291962
2.714882656
2.654869277
2.665029916
2.545976377
2.522159277
2.463356123
2.384606108
2.259943474
2.060935647
1.727243263
2.729050225
2.790246663
2.867626941
2.860761505
2.862485339
2.83599065
2.824078826
2.856615402
2.865620612
2.828785032
2.847447839
2.867270478
2.843663215
2.894742034
2.862546737
2.791751843
2.830923065
2.740492994
2.712041893
2.716169748
2.647927454
2.650628679
2.70827898
2.570834041
2.492504118
2.419144259
2.363631511
2.283996056
2.053347546
1.820703945
2.403083386
2.5248099
2.69046672
2.702342771
2.733608429
2.75095842
2.745970745
2.755589936
2.836594015
2.861356158
2.87067795
2.883613379
2.881046548
2.862372881
2.782760548
2.765089126
2.722005272
2.717866629
2.740239621
2.735499435
2.707921663
2.681159309
2.608672076
2.577691771
2.564185937
2.446413978
2.45746833
2.228175129
2.074269451
1.892561806
2.112028847
2.240427908
2.398412587
2.487416622
2.57217981
2.611629898
2.610877965
2.687070556
2.769018077
2.726114257
2.768350318
2.779309773
2.837041426
2.8291451
2.821551395
2.737607509
2.71072465
2.721611356
2.72065334
2.720451943
2.660408635
2.632666189
2.587448782
2.612316457
2.540631578
2.475006776
2.457981197
2.278154637
2.160915006
1.942993888
1.869370489
1.971477485
2.111427491
2.2439805
2.328681323
2.451739377
2.505311465
2.579472255
2.628453945
2.686223096
2.734050885
2.68636555
2.684049947
2.734106138
2.772183232
2.794848871
2.755385788
2.756112942
2.751008942
2.690084936
2.642949417
2.601853661
2.634518522
2.674378285
2.588940489
2.487423065
2.403844503
2.32339573
2.210118822
1.991647401
1.575961035
1.722881458
1.871301412
1.991206034
2.136238745
2.270506995
2.341829712
2.398069729
2.444304628
2.521564263
2.595109231
2.685462014
2.699368046
2.741194276
2.709641458
2.709438891
2.728568524
2.752060258
2.724721566
2.695300283
2.690712546
2.641288284
2.619069263
2.606228896
2.597406451
2.524484243
2.428776371
2.374520511
2.280356373
2.090958305
1.299616294
1.448955445
1.584002129
1.722500893
1.846227969
1.982347523
2.145264831
2.22812
2.271581706
2.347557093
2.42279555
2.504459491
2.531999228
2.612492519
2.670234348
2.647100717
2.710853391
2.710333316
2.72492032
2.71069048
2.693991531
2.612149866
2.593876346
2.546890946
2.571875209
2.551074786
2.473960664
2.396541239
2.339421277
2.214674794
1.077518132
1.222547697
1.330506175
1.452060425
1.602566655
1.72449163
1.845823393
1.966956555
2.085468477
2.161826912
2.236499196
2.330193625
2.394906241
2.467809972
2.553535078
2.599627494
2.634435944
2.634856042
2.641155972
2.704487958
2.697749181
2.687549759
2.621933478
2.563741034
2.533335831
2.550385756
2.507153989
2.438104216
2.323819047
2.245430524
0.8782036497
0.9716335119
1.099256839
1.203542455
1.338687376
1.46842194
1.619001982
1.747844077
1.877347622
1.96495257
2.051743773
2.180523488
2.232685708
2.321878892
2.397742301
2.47479605
2.521665341
2.577182464
2.574062529
2.590991961
2.612073886
2.643465347
2.630397252
2.584095031
2.562311759
2.509088872
2.469416801
2.443922307
2.325785699
2.239030923
0.7696639753
0.8519120389
0.9410631316
1.041525741
1.116480567
1.21627367
1.329584817
1.478303134
1.5972015
1.772042353
1.866519851
1.9679506
2.067810251
2.154288623
2.214275195
2.255131889
2.355435456
2.445599773
2.453813109
2.469816375
2.54102262
2.559402881
2.572988138
2.601947137
2.495655067
2.493454178
2.44190499
2.427412257
2.411880657
2.300823912
0.6733587354
0.7325647676
0.7949190026
0.8783746411
0.948629625
1.040273482
1.158883676
1.262196281
1.363303365
1.487033648
1.621652163
1.740743875
1.868612075
1.987035332
2.092222384
2.164497596
2.194581741
2.31895675
2.387556272
2.41776996
2.448588811
2.5122367
2.503837671
2.486900082
2.519681519
2.499545782
2.486461082
2.436775287
2.417988568
2.36651733
0.5838162984
0.6261823818
0.6938209462
0.7511884286
0.8204805988
0.8985548369
0.974479326
1.07907442
1.18063575
1.279036365
1.371562361
1.546514792
1.686864107
1.802652842
1.91917071
2.008070118
2.073538946
2.166436982
2.240703734
2.314217759
2.331021035
2.420669042
2.442509816
2.504469876
2.466976747
2.453514081
2.456004159
2.428450464
2.430550639
2.382662825
0.5368152838
0.5665698822
0.6041429393
0.6748843938
0.7260394563
0.7916222233
0.8498079158
0.9219231163
0.9978679291
1.10497403
1.213050637
1.310821307
1.419341526
1.566229572
1.692421369
1.802989594
1.933055427
2.02196007
2.09951015
2.167153817
2.213825216
2.258119504
2.382610988
2.404238705
2.440386892
2.441526647
2.479796758
2.449147642
2.414375692
2.365059237
0.5092307767
0.5307853983
0.5605943412
0.5825223607
0.6259846846
0.680162361
0.7327764579
0.7856437382
0.8667079911
0.9506859251
1.054310316
1.134737149
1.236565414
1.351061845
1.471760491
1.6171651
1.738952518
1.820660495
1.927945801
2.031635218
2.121556225
2.203224475
2.261789848
2.30432675
2.360167929
2.377194331
2.419829853
2.440721986
2.383807351
2.324363425
0.4889142437
0.4989367458
0.5182561352
0.5420221172
0.5700715781
0.6041972653
0.6558895094
0.7201231297
0.7655239643
0.8205455503
0.8907234223
0.9718745284
1.06713618
1.148486608
1.274583475
1.375253292
1.52485424
1.632402595
1.724976283
1.839242988
1.942943947
2.025714743
2.094046363
2.184694696
2.278071774
2.31660702
2.329488098
2.362180648
2.346936472
0.4644881047
0.4714919887
0.4900945497
0.5165938638
0.5394627596
0.5632835883
0.6002820326
0.6198744541
0.6562465862
0.7051650645
0.7593670728
0.8157474057
0.9021965062
0.9994632811
1.084842292
1.201368367
1.31782546
1.447531409
1.574038773
1.635786055
1.726153499
1.865913677
1.971685207
2.036923432
2.074645484
0.461308775
0.4717954152
0.4849135022
0.5020332292
0.5124956736
0.5192278697
0.5388267786
0.56254879
0.596312966
0.6330308794
0.6846138957
0.732872699
0.7907094288
0.8741266415
0.9409202557
1.016951835
1.116141596
1.246403845
1.345293487
0.4435726518
0.4496368047
0.4584871662
0.4690891477
0.4878454738
0.4989935136
0.5117174241
0.5273181586
0.5654255932
0.5876333703
0.6281168275
0.6739499327
0.7096712437
0.7685889142
0.4366766644
0.4444840207
0.4475524452
0.4567513685
0.4716771045
0.4806186963
0.4954957309
0.5105988078
0.4226154691
)
;

boundaryField
{
    flow
    {
        type            calculated;
        value           nonuniform List<scalar> 
15
(
1.67762212
1.727243263
1.820703945
1.892561806
1.942993888
1.991647401
2.090958305
2.214674794
2.245430524
2.239030923
2.300823912
2.36651733
2.382662825
2.365059237
2.324363425
)
;
    }
    obstacle
    {
        type            calculated;
        value           nonuniform List<scalar> 
30
(
1.17395996e-18
1.132619173e-18
1.161543152e-18
1.190259733e-18
1.18134535e-18
1.136600869e-18
1.185072656e-18
1.144655622e-18
1.243132253e-18
1.107043642e-18
1.14029239e-18
1.152704326e-18
1.061560407e-18
1.134355305e-18
1.210883934e-18
1.087645162e-18
1.07849497e-18
1.052725389e-18
1.072541e-18
1.014167562e-18
1.07774373e-18
9.502100025e-19
1.06327642e-18
1.128029376e-18
1.004600167e-18
9.018370669e-19
9.413939757e-19
9.415050985e-19
8.250033909e-19
7.291191956e-19
)
;
    }
    frontAndBack
    {
        type            empty;
    }
    procBoundary1to0
    {
        type            processor;
        value           nonuniform List<scalar> 
21
(
2.964371478
2.83867123
2.645499876
2.326692338
2.013136765
1.717406349
1.412255471
1.145987975
0.9671523647
0.7855654115
0.7032109041
0.6087490773
0.5536971782
0.5104529298
0.5000262079
0.4745395006
0.4551188809
0.448152685
0.4362214839
0.4335225807
0.4219809612
)
;
    }
    procBoundary1to3
    {
        type            processor;
        value           nonuniform List<scalar> 
36
(
2.332590342
2.144626036
2.244635905
2.284229557
2.332590342
2.296284914
1.464118267
1.581016499
1.685085024
1.800560012
1.91472375
2.144626036
2.01226495
0.8331849727
0.9005990157
0.9864433248
1.06149096
1.464118267
1.177962416
0.5261212238
0.5444895379
0.5623240192
0.5932531397
0.6320598629
0.8331849727
0.6785691277
0.4290892696
0.4349235131
0.4360734529
0.4476455704
0.4582577013
0.4677236684
0.5261212238
0.4832211976
0.4290892696
0.4244487228
)
;
    }
}


// ************************************************************************* //
