/*--------------------------------*- C++ -*----------------------------------*\
| =========                 |                                                 |
| \\      /  F ield         | OpenFOAM: The Open Source CFD Toolbox           |
|  \\    /   O peration     | Version:  2406                                  |
|   \\  /    A nd           | Website:  www.openfoam.com                      |
|    \\/     M anipulation  |                                                 |
\*---------------------------------------------------------------------------*/
FoamFile
{
    version     2.0;
    format      ascii;
    arch        "LSB;label=32;scalar=64";
    class       volScalarField;
    location    "0.006";
    object      internalE;
}
// * * * * * * * * * * * * * * * * * * * * * * * * * * * * * * * * * * * * * //

dimensions      [1 -1 -2 0 0 0 0];

internalField   nonuniform List<scalar> 
546
(
4.903825123
2.536878433
3.125042169
2.39757713
3.735503462
3.863088995
4.097636022
2.833375878
3.683844257
2.658009152
2.819904486
2.516968974
2.078234023
1.235196758
2.793374107
2.055386873
2.971431517
2.370379026
1.579725137
2.417188018
4.457230904
2.252170685
1.58711739
4.100862295
2.299723216
1.618116191
1.724300724
1.687510813
2.955858589
1.051902312
3.350692888
1.958902696
1.823702884
1.271120579
1.258943601
3.817625173
2.440284933
1.469112592
3.491864717
3.209717298
2.778792108
3.4198353
1.115700136
3.760653346
3.770717907
3.156969084
1.960362548
3.614261187
3.197995781
2.356288214
2.624883571
2.167754348
2.537692464
2.756117894
2.785507978
2.37088544
2.991395492
2.831403404
1.25753718
1.242920553
2.011105406
2.914336473
1.677697195
2.612083161
3.853706112
3.911617105
2.113048984
3.040826789
2.954636635
1.304588389
4.075734578
2.786763467
3.563164093
2.299905145
5.029603629
2.325079852
1.69821816
2.42833292
1.065843964
3.126046176
4.25357512
3.095614499
1.616157341
3.065634603
2.865203267
0.7134344223
2.074488081
3.214636298
3.347575085
2.232294161
2.413896921
1.96126103
4.155258907
3.198114035
4.017879248
3.773507108
2.749510918
2.595367188
2.180141636
2.510753832
1.642485304
1.782125925
2.525083364
3.888021784
4.59800942
3.763196068
3.187954471
2.97741403
3.922737567
4.848096425
2.366772947
2.742376166
2.803175681
1.273854685
3.358683117
1.756431241
2.726304636
1.838753163
2.423866236
2.212263683
1.843384578
2.185002312
2.817825791
4.300360029
2.578792437
1.146246082
4.554150951
3.198287692
3.478606459
4.462314424
3.096122996
2.827525593
2.288556094
3.322847921
2.430971694
1.989104017
3.155452476
3.234386799
3.717514307
3.670927863
3.554694092
1.53346615
4.190429628
2.413877326
2.642170461
1.972629465
1.435014267
1.832082478
2.831365923
0.5112848253
1.241688719
1.77712206
1.133922373
2.606719568
3.610227316
1.679208471
3.263079074
2.037275826
3.158241521
1.74942125
2.662133489
1.994668247
1.641326618
1.882552802
2.673850081
4.280424904
3.155776986
1.866297817
4.390297548
2.186934139
2.588418044
2.307142331
1.128704552
1.606864081
2.588440215
3.738492663
1.513416201
2.25062546
4.407278633
1.054794427
0.8807449004
0.577142547
2.135104739
1.317650578
2.275133817
2.021289191
2.162998035
1.968656008
2.491800218
3.731422876
2.399792657
3.211038635
1.728223653
2.005309692
1.90448795
1.808915401
2.664369749
1.740719328
3.114210289
2.104402278
2.295447548
2.427093961
2.480710889
1.894047843
1.954983884
2.888308545
2.080207949
2.451541606
1.186505915
1.120927346
1.852592259
1.3968809
1.724555621
1.316202397
1.588099377
2.090548353
1.997750086
1.29081037
1.186837356
1.806130683
3.981537703
3.970245219
3.081458162
2.528788082
1.674854346
3.01160759
3.692690923
3.340751172
3.332376861
2.351768111
4.444286322
3.371304263
1.428975591
3.183157774
1.331095464
3.635304365
2.250252651
2.934041454
3.691983684
2.054318926
0.5631056225
0.8644528439
2.252715948
1.81317294
1.925183664
3.110265676
2.256316593
1.801444378
2.610111188
3.363968543
2.795519661
1.718017946
2.464568587
3.353366829
2.002051995
2.815004682
0.9626712902
1.683213756
1.745034974
4.372479741
2.162430189
5.999640536
4.365478577
1.564781204
1.439440117
4.725844655
3.826035899
3.984491815
1.349749839
2.322071004
1.3141973
1.594845219
0.7186392667
0.8696252098
0.2359026073
1.681087413
1.524958181
2.375631944
1.814973413
3.353582941
1.793655395
1.912678526
1.51763696
2.349058629
2.608997802
2.874015199
2.491728613
2.091040307
3.567696356
1.736026671
1.42311176
2.845227558
0.5386046736
3.500168765
2.695078042
2.490661045
2.469255123
2.974334031
1.335155383
2.062438957
0.7533264127
0.6368891205
1.425220547
1.631874087
1.134814745
0.6922255813
1.365923136
1.769583634
0.7951674947
1.270981153
2.78988233
3.487011971
1.868119319
2.230810204
2.092254541
3.703096448
3.207607349
2.718756324
3.98665197
2.67752427
3.127658519
3.09967253
3.075521908
3.516958428
2.378935614
2.377264961
1.314242726
2.692559739
1.233203891
4.470630899
0.4701013749
1.302296929
0.5213639318
1.085108244
1.123623041
1.326483386
0.6127057269
0.8097572893
0.6108327574
1.621309847
1.853273639
2.466570758
1.57487737
2.242406261
2.724008041
2.47534505
2.63503913
3.070489598
2.169815491
1.796120656
3.091546684
3.004114008
1.913052061
2.995987515
3.131065864
1.540397365
2.491323221
2.774526489
1.636540695
2.628484646
0.2617105564
0.1199926731
0.6506400401
1.078201548
1.151919855
0.9693746014
0.9795472475
1.012075651
1.037736737
1.359474299
1.680956454
1.337362785
0.8723911729
1.381353192
1.928074891
0.6017361882
2.1003631
1.962147128
1.75955482
1.856310287
3.714768574
2.417364735
3.668556121
1.911708191
1.812845984
2.347149149
3.725935527
3.746772601
2.392258543
1.847146351
0.6418141575
0.4686163474
0.810562233
0.3822148726
0.6800827788
0.4000419197
1.724555499
0.6092240819
0.5429370632
1.875196777
0.8967531629
1.618477051
0.8245105595
1.56376831
2.169053775
2.423908045
1.226942237
3.305341741
3.13065636
2.143252997
1.921807495
3.514456437
2.425869113
3.678467681
1.84926356
3.019418068
2.616228903
2.418623196
2.974196447
1.943934331
0.4071507345
0.7814440236
0.3261158281
0.552620767
0.602019571
0.3288309572
0.9549222027
0.8624565519
1.319475435
1.581647553
1.013283061
1.055181369
1.614778477
0.3974153877
1.508399064
1.480577653
2.252801203
2.902603417
2.10229923
3.121162891
1.657234973
2.006176902
3.4176851
1.802197578
3.677239788
3.000814181
2.746000648
2.82895096
2.808130905
1.50507915
0.8949277182
0.3898602433
0.2538451103
0.5329144497
0.05236961663
0.3852153883
0.5087994033
1.47323464
0.6980951779
0.6905394245
1.583054228
0.8717854126
0.8265732595
1.246967932
1.717984453
2.240284273
2.631810662
1.164974933
1.729761661
1.736564945
2.129614869
2.216472593
1.216730498
1.588675541
3.391550215
1.404951965
3.287203726
3.689182157
3.450053741
0.4678888415
0.2059987071
0.9750747234
0.6071517651
1.213931975
0.6235267532
0.5141368886
0.5175721696
0.304322354
0.3718065943
1.28105314
0.7338603713
0.9966642197
0.5052436377
1.816293027
1.616953673
1.052597477
1.583781423
1.369206374
2.125166632
2.630786377
2.351528478
1.968757402
2.131153253
1.551724437
0.3227619203
0.3621570266
0.6575161598
0.2087726775
0.1683685707
0.5319690086
0.6281469446
0.5745579485
0.3785567252
1.319153633
0.9766620266
0.7395948233
0.2119595482
0.5830607525
1.141550501
1.261726322
1.525536345
1.108814191
2.193295306
0.5254296149
1.007050333
0.1665408178
0.07838069919
0.5481330573
0.4354201437
0.3784260179
1.151152766
0.4089674745
0.3335812308
0.7224775453
0.5947003256
0.3480038416
1.160853475
0.1604792657
0.2353065521
0.3424688469
0.549149608
0.6587095804
0.7170778252
0.1689246493
0.5737924095
0.2605306186
)
;

boundaryField
{
    flow
    {
        type            zeroGradient;
    }
    obstacle
    {
        type            calculated;
        value           nonuniform List<scalar> 
30
(
1.29492519e-18
1.706212824e-18
3.839253469e-19
1.973201326e-19
2.125673017e-18
0
3.155253359e-19
0
0
1.746716102e-18
1.634457555e-18
2.493753441e-19
2.892324156e-18
3.676515611e-18
0
1.796381492e-19
7.775677118e-19
1.998771432e-18
0
7.470545792e-19
5.891816569e-19
3.003393743e-19
1.00181439e-18
0
9.434083829e-19
3.444452098e-19
7.105287025e-19
0
2.008477305e-18
0
)
;
    }
    frontAndBack
    {
        type            empty;
    }
    procBoundary1to0
    {
        type            processor;
        value           nonuniform List<scalar> 
21
(
3.619179405
1.320333602
1.821887806
2.608612566
2.220633587
2.584519453
1.535836738
1.251986844
1.154512785
0.6410509851
0.5802831458
0.5067090546
0.220307139
0.317850791
0.2498865745
0.22281574
0.2015447467
0.7361327034
0.4685752281
0.2199699511
0.187715562
)
;
    }
    procBoundary1to3
    {
        type            processor;
        value           nonuniform List<scalar> 
36
(
0.5248827464
2.666561894
2.145923491
2.343033613
0.5248827464
1.839602689
1.097915511
0.9661491939
1.548348
2.087869077
1.910440084
2.666561894
2.835041862
0.8601907562
0.8002546823
1.281889922
1.806823833
1.097915511
1.387997139
0.3775986393
0.3895193243
0.7862630217
0.6177569826
0.08422101484
0.8601907562
0.8984979989
0.6356985072
0.3483285926
0.2796810413
0.4919017809
0.4713284128
0.2430545254
0.3775986393
0.4795947402
0.6356985072
0.157921896
)
;
    }
}


// ************************************************************************* //
