/*--------------------------------*- C++ -*----------------------------------*\
| =========                 |                                                 |
| \\      /  F ield         | OpenFOAM: The Open Source CFD Toolbox           |
|  \\    /   O peration     | Version:  2406                                  |
|   \\  /    A nd           | Website:  www.openfoam.com                      |
|    \\/     M anipulation  |                                                 |
\*---------------------------------------------------------------------------*/
FoamFile
{
    version     2.0;
    format      ascii;
    arch        "LSB;label=32;scalar=64";
    class       volScalarField;
    location    "0.006";
    object      linearKE;
}
// * * * * * * * * * * * * * * * * * * * * * * * * * * * * * * * * * * * * * //

dimensions      [1 -1 -2 0 0 0 0];

internalField   nonuniform List<scalar> 
546
(
8.57433198
5.259334492
10.9102107
4.66794399
8.603154673
8.948060959
5.957793717
7.042012946
5.585596465
5.629906356
2.250732027
5.709978303
3.95043377
3.332579606
4.955534377
6.10329735
5.31896699
4.774573034
6.788405219
6.152046074
6.210270431
3.804487144
3.394668735
7.584977417
5.078534438
3.991832146
3.438300298
3.327790535
2.887896568
3.137321357
11.66991699
7.629729863
7.784835057
9.000957468
5.611747017
10.91865295
8.570462416
7.696386606
7.37705501
11.15672456
4.662869286
7.028926574
3.019549688
6.689274903
6.594104121
8.447317712
2.000698131
8.234520452
6.555256684
5.867326669
5.441469947
3.652113752
5.102695876
7.088243602
5.018451157
6.326678518
3.332809112
5.67114382
3.579173433
1.939420808
8.701478617
15.13961689
6.327488109
12.51859305
10.21034544
9.513187764
5.888697506
9.922868189
10.29179697
5.876460363
9.557619887
7.46751416
8.244543524
8.128149682
9.727437314
6.886362104
4.943643287
3.916803696
6.568885502
7.271601814
9.206688263
12.40686368
5.350679002
6.505361757
5.769985692
5.110365687
5.725912844
6.266850296
5.396751817
4.879280437
10.1580859
8.318338987
16.90497136
13.81821302
12.04739443
13.80965708
7.501760459
5.607761085
10.7578824
7.407489826
10.18960339
7.859123525
9.297091606
7.892179279
10.70204398
7.436884241
9.110187885
9.787046839
5.444850345
11.65531667
8.199287253
7.130443644
11.030203
4.226032989
8.073829828
6.649923279
10.47959233
4.482976553
5.483718929
6.490990754
11.1666965
6.301845413
15.17601543
13.41906928
6.733903847
8.427915591
18.44188459
12.66212589
12.97723948
17.82354085
12.66595399
12.00321549
7.520910897
8.338848399
5.242419038
7.006197278
9.106711337
6.903385177
11.28131266
12.40116654
11.16682622
5.403926203
15.53524238
6.662460898
4.30820051
9.115191042
4.832523152
9.263469239
7.132320278
4.309885604
12.6476249
12.94915117
10.78987927
12.301707
15.89329863
10.85454095
18.72275716
9.271648117
18.7858702
8.495906559
13.78667514
9.511028162
5.105236989
9.084374348
6.38266218
7.095468207
11.52982999
5.592545663
15.71964521
8.761569415
9.207965903
6.885527416
5.217880769
3.737810995
5.130660904
12.12644834
5.188374599
7.2920446
9.85748848
4.828224256
8.89674638
10.11645775
13.4305581
7.621833776
11.8729816
15.0043055
11.71043449
12.71192696
11.32550381
11.12595531
11.68147062
14.14216811
11.59937094
9.868922202
11.29172241
11.39419847
8.79885124
9.528113336
5.177464721
9.020787666
9.751007599
4.922283416
6.708358634
7.016580986
8.915784041
8.319660031
10.76364127
11.7628811
6.42208904
4.406497051
10.02359162
12.25931919
17.61622878
11.42731603
11.36659091
16.1598564
7.844217057
11.31297717
14.46211397
12.05237708
14.69116286
13.8963303
11.28856592
13.06012362
12.07475465
11.42282757
12.81912861
15.36793051
13.4006829
21.18824101
15.72881498
10.97164011
9.398696991
8.707437254
5.802415992
8.538420858
12.59824423
8.825539593
6.836700718
7.512624897
8.717895356
8.257940484
15.58307769
14.69366952
10.16438137
16.51816516
11.21835743
14.85715416
14.24543639
14.39543837
17.5457772
13.16421294
12.25054187
17.03486294
11.10692139
14.48452557
7.316886989
10.25380029
9.216524633
17.42159562
6.308551049
23.92420957
14.49833707
6.501937527
4.891324355
13.64829278
13.31139173
5.767680072
7.340855872
7.710271673
14.50706739
13.29601546
13.92681064
11.08137528
3.387853655
9.769955563
11.83094506
13.25069453
9.61411816
26.61958238
14.32890254
13.62388777
11.9398202
14.68833094
11.45232904
18.82047152
12.59101689
16.36698773
15.66121426
12.61197784
4.961429748
8.321084602
10.78260505
16.48719635
11.87882344
8.336000324
12.52294332
14.7268303
4.915884008
10.4687231
14.65882688
11.33953616
7.441003344
9.202054467
11.54120706
13.76502216
13.82789997
13.7142733
7.792160441
11.81931932
16.63277352
12.72297269
8.318336685
11.21163218
13.85030919
18.79060625
19.81809102
12.48115522
16.64409954
9.773100853
13.44081569
16.43209374
10.6421065
9.593175387
10.84600988
12.47988099
7.12833372
8.810573021
6.719854522
15.22817371
5.8775274
11.45558555
8.210823351
7.31387011
8.464192095
10.74884874
10.2111155
9.578645434
8.945873118
13.50501356
15.663372
22.73661003
16.75234433
14.25095252
10.50911909
19.37029006
13.19656928
17.90734726
11.66664298
13.64465156
18.04701592
16.48707669
6.342703777
20.30371395
11.66955528
15.5310609
11.83063281
14.13556263
14.84114347
16.87731036
8.268465195
1.779475528
14.43263801
9.508699541
12.65873779
10.65189509
12.1586076
9.453951724
13.70992036
10.99849479
10.80594397
13.70447285
18.97269782
16.26049996
16.03279211
7.999662702
16.76368343
16.88220441
10.85111828
12.02368847
15.93275384
17.67556467
16.19716187
10.81697631
13.72809622
10.48433666
16.42541476
18.97922796
13.23415242
9.78081475
8.898019545
10.55577146
8.551909774
7.447232643
10.20817152
10.57617343
20.29447287
12.98808941
6.32443899
19.31892367
10.08409009
8.925467661
13.02814195
10.66357493
17.51929707
18.41171431
10.95519321
17.5573491
12.01197337
15.21421235
18.14083236
18.52932099
15.12283498
14.80247627
17.37795103
14.77737701
12.31964402
13.04974397
16.62834986
18.01749526
7.504538133
10.9694231
6.40713384
8.12861423
9.531557374
8.68996523
10.90584014
8.923004208
15.47039241
23.20634336
10.39238408
9.894559251
14.66511572
4.349272514
10.31106078
10.3451399
15.85492247
18.67669188
14.72059684
13.95161795
16.64151286
13.97356398
16.08843275
12.2996102
27.8680945
20.80220074
12.27458451
17.46080891
15.26980682
7.419303838
14.15888577
8.628103344
4.88320893
8.430628508
0.8614215608
10.44088392
9.242894369
15.82839605
14.45779729
13.09819788
15.71811685
7.337575789
12.43863232
13.76627867
15.1711936
12.48904466
17.92787387
14.36364561
16.94413775
13.72059249
16.29267142
16.75573919
14.59292988
14.36773091
15.96751276
9.788033219
24.73862261
12.5780177
21.11603743
8.206676426
4.588323886
13.06152781
11.61039612
8.575106754
11.15269856
7.866541614
8.451884139
9.201311688
3.218946155
8.596259187
9.511551872
15.61854352
7.620332625
17.44942386
14.68642792
15.40777135
14.33726996
18.13644507
13.27934451
11.40433242
9.956387579
23.47555131
21.08796164
7.746453888
7.711457386
7.92271237
12.2856157
4.104353101
3.788564663
7.263401909
8.986008041
7.148338568
9.734457507
14.10504549
6.189520646
11.90922471
5.907119948
9.395645121
16.92423109
10.92351996
9.179205563
6.125313034
17.68312047
6.579615895
11.72390994
6.215335144
2.142565781
6.412211511
8.388564123
6.673239165
10.38636353
9.086118328
6.119428735
6.934674226
4.026882139
2.040658533
21.50997763
6.599051157
6.816259576
4.677369238
12.23029953
9.768838321
13.49053378
5.852112034
10.50503321
2.828504177
)
;

boundaryField
{
    flow
    {
        type            zeroGradient;
    }
    obstacle
    {
        type            calculated;
        value           nonuniform List<scalar> 
30
(
3.658122108e-18
1.102135205e-18
2.897357955e-18
1.482135866e-18
5.246747353e-18
0
1.956457167e-18
0
0
3.020080309e-18
1.449554588e-18
2.619934511e-18
3.545164693e-18
1.701160373e-18
0
2.640556204e-18
2.012382441e-18
4.232776782e-18
0
5.526452376e-18
6.244728837e-19
1.37398917e-18
1.301681753e-18
0
5.964552904e-18
1.12143717e-18
1.717909178e-18
0
5.814549013e-18
0
)
;
    }
    frontAndBack
    {
        type            empty;
    }
    procBoundary1to0
    {
        type            processor;
        value           nonuniform List<scalar> 
21
(
10.60348594
7.996950177
12.88150381
14.51855261
6.261917023
15.15200632
11.87641424
12.33429912
19.62947965
12.1714702
8.73947158
8.538198647
4.59493966
8.332827237
7.956351306
6.466771067
6.847145997
8.982845507
7.033128783
4.395674471
6.489615682
)
;
    }
    procBoundary1to3
    {
        type            processor;
        value           nonuniform List<scalar> 
36
(
4.834647781
15.66795479
14.55852024
17.18997201
4.834647781
15.2399054
10.55520457
10.35744181
15.99796356
12.61274987
15.68481156
15.66795479
20.22208273
11.27086133
11.27969353
12.56621074
14.0507195
10.55520457
20.68928175
5.529177973
5.279435675
14.3841405
8.901995776
2.738449832
11.27086133
12.52352346
9.462873143
9.123751003
6.870533545
8.082348696
6.163276799
3.76722209
5.529177973
9.999317879
9.462873143
5.187819577
)
;
    }
}


// ************************************************************************* //
