/*--------------------------------*- C++ -*----------------------------------*\
| =========                 |                                                 |
| \\      /  F ield         | OpenFOAM: The Open Source CFD Toolbox           |
|  \\    /   O peration     | Version:  2406                                  |
|   \\  /    A nd           | Website:  www.openfoam.com                      |
|    \\/     M anipulation  |                                                 |
\*---------------------------------------------------------------------------*/
FoamFile
{
    version     2.0;
    format      ascii;
    arch        "LSB;label=32;scalar=64";
    class       volScalarField;
    location    "0.006";
    object      linearKEMean;
}
// * * * * * * * * * * * * * * * * * * * * * * * * * * * * * * * * * * * * * //

dimensions      [1 -1 -2 0 0 0 0];

internalField   nonuniform List<scalar> 
546
(
7.028648306
6.794819889
6.595619561
6.413365688
6.234785985
6.144522038
6.109524798
5.961199679
5.894654547
5.775635945
5.653112828
5.639657437
5.425735621
5.507910413
5.374595082
5.207102261
5.086656852
5.0465713
5.021317923
4.985230268
4.962786338
4.902809678
4.907243683
4.898433825
4.686832626
4.580079806
4.454292339
4.256598
4.046963443
3.574316002
8.776623558
8.512616408
8.217405661
8.032133504
7.7902828
7.618922694
7.34230101
7.205746416
7.0457821
6.877848338
6.678990372
6.595499017
6.499253011
6.400545663
6.312814132
6.155748657
6.015497609
5.932342916
5.786385326
5.728709868
5.68466924
5.630717196
5.581549046
5.406820327
5.280297585
5.211593399
5.060132894
4.830895048
4.539968576
4.13663929
10.26319531
10.09480943
9.88784057
9.576587941
9.156144611
8.785973548
8.656188977
8.428610687
8.23751297
8.039297257
7.889642956
7.742143977
7.540285254
7.344302548
7.219923394
6.986518303
6.94407548
6.820319983
6.691314549
6.585767908
6.364064964
6.366861736
6.311322642
6.078435354
5.92170631
5.742475114
5.643139507
5.444051254
5.176999043
4.893686629
11.37544382
11.31623483
11.1680526
10.87592718
10.69167932
10.42074851
10.0842575
9.86636605
9.568707916
9.31834419
9.091860479
8.819017212
8.673927874
8.485477709
8.223540711
7.966402831
7.864652269
7.730981783
7.60442991
7.478847523
7.294058141
7.071615711
6.925471828
6.798154105
6.674135587
6.494585611
6.263997528
6.117931213
5.925649554
5.678969119
11.87786199
11.86316575
12.01656704
11.98674274
11.79278112
11.56900074
11.27210777
11.0151697
10.91536527
10.55304444
10.28247009
10.15114364
9.940500385
9.698363822
9.407320918
9.125059169
8.789301086
8.72676637
8.551019653
8.335585771
8.073135535
7.87337127
7.70268557
7.624283699
7.442625278
7.276231581
7.200169824
6.829924092
6.573084515
6.211872498
11.86332719
12.02625255
12.22500037
12.26762618
12.26953762
12.19285455
12.13783465
11.99922256
11.82263134
11.73270891
11.54484515
11.22757057
10.91345943
10.71390084
10.4845305
10.32889004
10.00141235
9.886767834
9.616436427
9.31133976
9.034334061
8.76736652
8.586871941
8.481331844
8.333113378
8.088899104
7.784122671
7.617191434
7.405548334
7.025659242
11.6524571
12.08358004
12.30959475
12.46758705
12.62125408
12.91744348
12.86958577
12.80331634
12.69060481
12.59586948
12.39155306
12.18141331
12.05506849
11.85374557
11.51021026
11.26811497
11.0244804
10.75574381
10.5774527
10.27992496
10.12726299
9.911440326
9.638568088
9.468468443
9.378530144
9.014456739
8.823896286
8.565788471
8.221138648
7.869117866
10.9610598
11.44003771
12.0064644
12.51241714
12.6512774
12.85447714
13.15049415
13.27852938
13.18514486
13.15167145
13.10694297
13.02839053
12.80436374
12.62438633
12.50337849
12.34242265
12.10347505
11.72074337
11.61358712
11.38763858
11.1573322
10.87078524
10.64284433
10.27002819
10.05892154
9.830191726
9.513469969
9.226256826
9.015979333
8.660263681
10.51276722
11.01316764
11.4116328
11.80525516
12.34373377
12.53727668
12.83267085
13.09035966
13.41967974
13.41829377
13.45827996
13.51994481
13.50735991
13.44096175
13.37103681
13.1699604
12.9687808
12.76098658
12.4445104
12.20755487
11.86901088
11.66751483
11.35650332
11.16715472
10.91897269
10.75257374
10.38274461
10.07777407
9.756758262
9.521594835
9.780532213
10.13981276
10.64998475
11.12556014
11.61012453
12.077183
12.53697116
12.87716691
13.21180253
13.56990064
13.69642388
13.87052375
13.83337398
13.8528763
13.7782381
13.68573966
13.6149405
13.38435414
13.14736619
12.9688961
12.77130974
12.56402547
12.32134843
11.92494516
11.7835383
11.48332359
11.2113161
10.95203281
10.51647551
10.16485656
9.453251285
9.759782545
10.13716312
10.6746538
11.02667964
11.48262582
11.93375163
12.44388968
12.89762291
13.28362728
13.55778541
13.7557898
14.04120117
14.08420813
14.06892259
13.99423642
14.06224666
14.05328338
13.77201792
13.6428507
13.50607476
13.34626689
13.12821485
12.82713925
12.33594223
12.20898543
11.93468093
11.75273207
11.47941739
11.03564685
9.020776615
9.338756824
9.640280677
10.00766723
10.49700445
10.89937243
11.39786996
11.80569346
12.35147814
12.74866849
13.20191828
13.40603863
13.78479549
14.14071058
14.31799969
14.39985526
14.36916684
14.402347
14.51251873
14.31532918
14.07550931
13.97375144
13.71008117
13.46122067
13.29732482
13.08095905
12.83083519
12.42449667
12.16273128
11.92043195
8.717958491
8.928030141
9.247088165
9.450349391
9.832378295
10.2864486
10.67461285
11.11624481
11.5369684
11.90974329
12.40018013
12.96609232
13.43023052
13.77622996
14.09326347
14.36098557
14.37462916
14.55281281
14.60903206
14.69882888
14.65511933
14.66563553
14.46777047
14.38301604
14.15448436
13.84461763
13.54370217
13.2485956
13.08075417
12.75592041
8.364332562
8.573807741
8.770450946
9.129232551
9.434560587
9.700493553
9.979857916
10.36299348
10.78591006
11.30207233
11.83487325
12.2414814
12.66020981
13.15864925
13.53484488
13.99844734
14.43891946
14.65182198
14.8386321
14.97306196
14.93633202
14.85849074
15.02105696
14.84738194
14.6515252
14.43503523
14.46321855
14.12691641
13.73650089
13.37981424
8.414541687
8.534793934
8.676400207
8.717290061
8.952613846
9.204050093
9.48718194
9.816255316
10.18453685
10.59482692
11.02749479
11.39137521
11.96936581
12.58906312
13.14956502
13.702964
14.12229095
14.41873231
14.67005761
14.87400622
15.12345235
15.34326123
15.32470297
15.31299587
15.24386073
15.07016602
14.90512347
14.73580727
14.46856158
14.11379966
8.102371709
8.09019576
8.286683571
8.327732496
8.537328628
8.722976423
9.027778801
9.395184868
9.714372411
10.00733005
10.45160813
11.0251845
11.37275465
11.86375492
12.36599502
12.74649605
13.23855924
13.72485815
14.12711674
14.61082385
14.89049288
14.99087063
15.17934718
15.29330818
15.50173094
15.40137373
15.20863576
15.11260029
14.86178704
8.081711595
8.170451935
8.235631778
8.440078647
8.504039969
8.67401853
8.883437077
9.133247083
9.342293561
9.658463863
9.951634987
10.22146058
10.56590433
10.99139273
11.4050988
11.99915235
12.62810043
13.21149197
13.87103875
14.04883811
14.46183657
15.03495404
15.20295648
15.43405198
15.43580859
8.09724837
8.127060754
8.203072008
8.230173791
8.339953959
8.43903736
8.535330152
8.639211531
8.876777331
9.115970276
9.30400128
9.6779255
10.14033423
10.61632823
11.00494187
11.42459407
11.88301974
12.43004688
12.88926447
7.946180704
7.957927451
8.033478998
8.089574348
8.163223312
8.205813212
8.312377901
8.407863994
8.600053009
8.73631556
9.125591932
9.340182768
9.562011104
9.866777195
7.918345077
7.960705509
7.982045939
8.01391245
8.113584072
8.145394679
8.218254812
8.356534031
7.843934842
)
;

boundaryField
{
    flow
    {
        type            calculated;
        value           nonuniform List<scalar> 
15
(
3.574316002
4.13663929
4.893686629
5.678969119
6.211872498
7.025659242
7.869117866
8.660263681
9.521594835
10.16485656
11.03564685
11.92043195
12.75592041
13.37981424
14.11379966
)
;
    }
    obstacle
    {
        type            calculated;
        value           nonuniform List<scalar> 
30
(
2.355704034e-18
2.360742453e-18
2.321682318e-18
2.300961933e-18
2.174530347e-18
2.145563478e-18
2.220722238e-18
2.082520777e-18
2.16366391e-18
2.027361595e-18
2.087530506e-18
2.067857146e-18
1.944096393e-18
2.075967074e-18
2.004779573e-18
1.915924837e-18
1.918339992e-18
1.822817429e-18
1.848264459e-18
1.966445107e-18
1.852755226e-18
1.772074648e-18
1.847446461e-18
1.903047143e-18
1.784784376e-18
1.706369003e-18
1.72080914e-18
1.685389864e-18
1.488537201e-18
1.399215848e-18
)
;
    }
    frontAndBack
    {
        type            empty;
    }
    procBoundary1to0
    {
        type            processor;
        value           nonuniform List<scalar> 
21
(
7.271087162
9.135120617
10.51941127
11.55520304
11.74747332
11.54358085
11.25911586
10.46235349
10.00930003
9.431631727
9.115195128
8.799883434
8.562030167
8.305534683
8.2915051
8.09463118
8.026111234
8.00507451
7.924475813
7.892215821
7.842269591
)
;
    }
    procBoundary1to3
    {
        type            processor;
        value           nonuniform List<scalar> 
36
(
14.66695365
15.56888317
15.68676788
15.42973588
14.66695365
15.35436243
13.46774885
13.99251101
14.41853608
14.88029995
15.24748904
15.56888317
15.47014143
10.29407436
10.78206751
11.2116605
11.62879576
13.46774885
12.14965638
8.472932973
8.632326747
8.709411591
8.956305715
9.211056717
10.29407436
9.471547749
7.92787296
7.940938122
7.923628228
8.043245806
8.161629802
8.228652448
8.472932973
8.335537596
7.92787296
7.962142619
)
;
    }
}


// ************************************************************************* //
