/*--------------------------------*- C++ -*----------------------------------*\
| =========                 |                                                 |
| \\      /  F ield         | OpenFOAM: The Open Source CFD Toolbox           |
|  \\    /   O peration     | Version:  2406                                  |
|   \\  /    A nd           | Website:  www.openfoam.com                      |
|    \\/     M anipulation  |                                                 |
\*---------------------------------------------------------------------------*/
FoamFile
{
    version     2.0;
    format      ascii;
    arch        "LSB;label=32;scalar=64";
    class       volVectorField;
    location    "0.006";
    object      momentum;
}
// * * * * * * * * * * * * * * * * * * * * * * * * * * * * * * * * * * * * * //

dimensions      [1 -2 -1 0 0 0 0];

internalField   nonuniform List<vector> 
546
(
(0.00459254032 0.002451556943 0.0004932944164)
(0.005080570568 0.000901233888 0.001042348154)
(0.009005216496 0.001220843501 -0.001628764229)
(0.005294082922 0.00176238024 0.002063412875)
(0.009082642388 0.00109160561 0.001258680248)
(0.009781907391 8.693766304e-05 -0.001472061826)
(0.001299745757 0.001960599997 0.0008223914915)
(0.002871249849 0.0001967556817 0.00011225306)
(0.004081068055 0.0004800714565 -0.0008767813059)
(0.003699898436 -0.000263713632 -0.0007613439713)
(0.001952215976 0.0009853143477 0.0006579842771)
(0.005148860596 0.0005188836004 -0.002326324754)
(0.001968372972 0.001614931415 0.0006597266856)
(0.001894855641 -0.0001977730796 0.0002132865191)
(0.001653227975 0.001527892826 -0.0006762567985)
(0.004146417875 0.0009091214176 0.001470627851)
(0.002877516995 0.0005038441698 -0.0009363686337)
(0.0005268049912 0.001365979148 -0.001446741975)
(0.005432706801 -0.0007351198542 0.0002661934669)
(0.004521163424 0.00214223589 -0.0026959728)
(0.002501949051 -0.001591240159 0.001162635107)
(0.003513650739 0.0009194054183 0.0002250133368)
(0.002835094399 0.001403415639 -0.001557736789)
(0.006993215168 -0.0008191011414 0.003268276592)
(0.003231264516 -0.0004619061948 -0.000305131992)
(0.002572970593 -0.001241890945 -0.001846271401)
(0.0004492066727 0.001445924636 0.0002656375523)
(0.004910138735 -0.0007912377281 0.001807798772)
(0.001923303656 0.002101033602 -0.001882338751)
(0.003179343396 -0.001227012412 0.0007243043545)
(0.01164947398 0.002212657315 0.0002370593653)
(0.007989243358 0.001365278294 -0.0002825924034)
(0.006931874938 0.002447806646 -0.002951210427)
(0.008494861983 0.001836436483 0.001158533646)
(0.004513300039 0.002719632772 -0.0004761165072)
(0.008997618532 0.005299470474 -2.969584407e-05)
(0.007776212554 0.0005277549837 -0.0005704872875)
(0.005858509472 0.0002446630343 -0.001735480917)
(0.004627043641 0.003710953866 0.001396291463)
(0.01065526339 0.00325579374 -0.004288639944)
(0.004313757617 0.001959774642 0.002207437015)
(0.003851307658 0.004077793736 -0.003311040608)
(0.003036812137 0.0002499878647 0.0003257237617)
(0.005470829248 0.004176452531 0.0006979544161)
(0.005835144653 0.001635461892 -0.002200012556)
(0.008225879301 -0.001179483669 0.0001715732481)
(0.001774801362 0.0007657942916 0.0004549027919)
(0.008952844684 -0.0006744150893 -0.001640777557)
(0.005410321045 0.002899320122 6.96466851e-05)
(0.003577534602 0.001379383832 -0.002130881226)
(0.005262786175 0.001529680511 -0.0008395372532)
(0.002560374746 -0.00148702353 -0.0009049732168)
(0.002894363614 -0.0005233450917 -0.001028021717)
(0.005417438084 0.001714056914 -0.0003880817364)
(0.004339141476 -0.0009930744026 0.0006534825553)
(0.00565766326 0.002857483582 -0.001333710596)
(0.003883900491 0.0007162733792 -0.0001688419531)
(0.00366605273 0.001271621576 -0.0008039939276)
(0.00466393168 -0.0008204454574 -0.001886708917)
(0.003227117585 0.001137315434 -0.000526108909)
(0.007898649487 0.004351468842 -0.0005716205496)
(0.01680595071 0.003156999574 -0.002005837502)
(0.006612741097 0.0001465153187 5.207375423e-05)
(0.01272337779 0.004734614516 -0.003155569492)
(0.009229477434 0.006196784281 -0.002313404429)
(0.009593131104 0.002218164174 -0.0007200549909)
(0.00586106775 0.00115624397 0.0007240830344)
(0.009327256713 0.002455669394 0.003204739614)
(0.01025285047 0.004681797722 -0.001011051397)
(0.005215012105 0.001340922355 0.0001085403967)
(0.008600302285 0.002808206573 0.003311152064)
(0.009036974228 0.002487339952 -0.001457244361)
(0.008465935882 0.00255885773 -5.438780405e-05)
(0.009402122319 0.001900186638 -0.0006011713289)
(0.008258870869 0.001681788307 -9.694774295e-05)
(0.004852244962 0.001647301589 -0.000757568642)
(0.005496993931 0.001455422647 0.001116335074)
(0.001951473995 0.003715594096 -0.0006192487347)
(0.006851112191 0.0018690974 0.001332956058)
(0.005082249412 0.003364690857 0.002703274287)
(0.005838450437 0.0008831853579 -0.0008971505076)
(0.01028216546 0.00340731065 0.003245293423)
(0.008094790332 -0.0002906288582 0.001002517617)
(0.005603995526 -9.863588986e-05 0.001267916256)
(0.006633314869 0.001639749001 0.002350107809)
(0.005454486537 0.001556200268 0.0005225041657)
(0.006454345086 -0.000934792235 0.0006879722093)
(0.00649448197 9.528819898e-05 0.002320827467)
(0.006512894681 0.002371456481 -0.000453946594)
(0.005167461034 0.001128504193 -0.0007474265891)
(0.009863162518 0.003302630102 9.260994615e-05)
(0.008134706115 0.002392581591 -0.000144450805)
(0.01524757648 0.005982848567 0.0007498812631)
(0.01505867144 0.003949516465 0.001367689061)
(0.01169416158 0.003238402727 0.000723531001)
(0.01659203623 0.004211860933 -4.971850094e-05)
(0.008253279033 0.002451726733 3.273315398e-05)
(0.005325965726 0.002508979556 0.0009887350386)
(0.01176076918 0.003560547445 -0.00155576091)
(0.007006074717 0.001926677309 -0.0002804990533)
(0.008811938975 0.003622126951 -0.001038559203)
(0.005805439588 0.003491440526 0.00249124502)
(0.006727836965 0.00349806879 -0.0004677802992)
(0.00980481732 0.002547905501 0.0005431234114)
(0.01095552903 0.001343859878 -0.001671254596)
(0.008232189687 0.001267604945 -0.001053788042)
(0.007851376197 0.003925768834 -0.00281975065)
(0.009769418851 0.005237081602 -0.0001445394427)
(0.003866455118 0.002484436005 -0.001389120086)
(0.01247826829 0.002572456831 -0.002681841955)
(0.008578029972 0.001742452458 0.0003708079421)
(0.00897565218 0.000897282577 0.002263585872)
(0.01107941836 -0.0007001144548 0.0009865743006)
(0.005357534036 0.001105722647 0.001091514125)
(0.008633177643 0.002141840197 -0.002285661925)
(0.008668656782 0.00108999642 -0.0001678088082)
(0.009241852022 0.00497838583 -0.00478934786)
(0.005290237665 -0.0002869737626 9.852337459e-05)
(0.006705665563 0.0005974947592 -0.001565776011)
(0.008396452502 0.002464933344 0.001430822233)
(0.01020538038 0.005397482106 0.0007490965867)
(0.00662314592 0.004488117155 2.765246241e-05)
(0.01702059509 0.005187168574 0.001124235561)
(0.01271425209 0.006664307421 0.001015339798)
(0.007075916122 0.003597684547 -0.001713789202)
(0.008814508656 0.003355268582 -0.0008047423258)
(0.01866340988 0.006475280119 0.0006747697839)
(0.01188603687 0.005494128464 0.001026383568)
(0.01450743876 0.004966687116 -0.0007851294048)
(0.01766425929 0.009288487755 0.001474560968)
(0.01452367866 0.004715797036 -0.0003282800402)
(0.01300345268 0.004820762994 0.001561160356)
(0.006422756239 0.003052468029 -0.001357487909)
(0.008225731264 0.003639353098 0.001337556317)
(0.004471753323 0.003443689103 -0.0004511463925)
(0.007412371916 0.0006468549756 0.0004259679181)
(0.009340631715 0.002245585977 0.002088935675)
(0.006411155388 0.002628096222 7.593754432e-05)
(0.01263019669 0.00365543208 0.0001687658225)
(0.01474195276 0.002195755534 -0.002008937389)
(0.01089985785 0.001096833576 -0.0006036750699)
(0.006176501259 0.001444132149 -0.001347184991)
(0.01414019677 0.008298447111 0.002224082056)
(0.00775291785 0.002089653903 -0.0003823462566)
(0.003402114219 0.00202796329 -0.001742708668)
(0.008649519774 0.0022922725 0.001357968882)
(0.004071431171 0.002173091159 -0.001677064611)
(0.008123725436 0.00126137308 0.0001929219927)
(0.007679902795 -0.001034981293 0.0004304023862)
(0.005401434666 0.001227838312 1.00298177e-05)
(0.01218061204 0.003534801535 -0.0008159333175)
(0.01236923239 0.005098596021 -0.0006191038326)
(0.01126400447 0.003706037098 -0.00018908814)
(0.01305723024 0.003364497858 -0.0005427902425)
(0.01632087105 0.003900000373 0.0002199415064)
(0.01110168362 0.001935922034 0.0004379881385)
(0.01937284842 0.004767282246 0.0009182956181)
(0.01000386376 0.003184461078 -0.001202816922)
(0.01742388734 0.007933100206 -0.001836252193)
(0.009226907717 0.003640177295 -0.0007079298648)
(0.01453605704 0.006068951481 -0.0001669554751)
(0.01071224849 0.003537857772 0.0004282422254)
(0.004333506344 0.001651844438 -0.0003869611973)
(0.008812124336 0.003800359714 0.0001584499349)
(0.006917273428 0.00281708745 -0.0009373937253)
(0.00790274385 0.001773533873 0.000141638331)
(0.013110309 0.002266970394 0.000502364911)
(0.006026044312 0.001514732208 -0.0009527108299)
(0.01837911205 0.003783779813 0.0001846419414)
(0.01002647353 0.003730661389 -0.0008342581875)
(0.00903160396 0.001809855969 -0.0005117324291)
(0.007094058468 0.002127730583 0.0008224217866)
(0.004369812471 0.003756881496 0.001536851257)
(0.005788694565 0.000322404121 -0.0003036336423)
(0.006970467751 0.002932681734 -0.00111395167)
(0.01365939187 0.001967248893 -0.001212933321)
(0.006289004331 0.001383649383 0.0002566739352)
(0.008222269795 0.002376176937 -0.001053422191)
(0.01094179678 0.00162726401 -0.003067776073)
(0.005197788082 0.00186033784 -0.002605681641)
(0.009137465579 0.002108979532 0.0008868074748)
(0.009818162442 0.001568559938 0.0001157515642)
(0.01260799311 0.004553344383 0.0001281398233)
(0.008299744605 0.001775981028 0.0006416696799)
(0.01347643911 0.003592571867 0.001477621054)
(0.01487505385 0.002703277492 0.001939028677)
(0.01279154839 0.002549334698 -0.0005032320345)
(0.01065111312 0.00742660009 0.001664858332)
(0.01251940112 0.003073751977 0.001319714421)
(0.01125407643 0.002099328189 -0.0002823203366)
(0.01219830974 0.003127624824 0.0002783886491)
(0.01192968853 0.005941087185 -0.002421431722)
(0.01163264336 0.003618649872 0.0008858568631)
(0.01010052095 0.00353619558 0.0005994905492)
(0.01240038245 0.004571687118 0.001973827955)
(0.01272146684 0.001955903438 -0.0001413551165)
(0.009208249189 0.004046354879 0.002829942678)
(0.01063612063 0.003406828354 0.0007502836024)
(0.006406242708 0.001254873316 -0.001471043097)
(0.01088494369 0.001064877208 -0.0003338393751)
(0.009710930108 0.003673303137 0.0001863006348)
(0.004884157544 0.002659518829 -0.0002416032756)
(0.007709218088 0.000857820223 -0.001530463595)
(0.00598617949 0.002647102673 -0.001602981553)
(0.01049837496 0.00334812565 0.002906025406)
(0.01035461544 0.0006721712557 0.001238900008)
(0.01163997704 0.004329870523 -0.002319929656)
(0.01125330324 0.003466418912 -0.0002439046721)
(0.007583390617 0.003872562639 -0.0005617438756)
(0.005907517964 0.002150147323 0.0009634946129)
(0.009262316031 0.002022889603 -0.0004833305111)
(0.01234388117 0.003301653312 0.001408365531)
(0.01662770235 0.0005004987686 -0.0009260236132)
(0.00974436219 0.00625893787 0.001466788509)
(0.01015632094 0.004883467721 -0.0008152211674)
(0.01357670685 0.005531733195 0.001416260162)
(0.00852652486 0.00326704351 -0.00157942302)
(0.01059145675 0.00418028155 -0.0021569634)
(0.01338424995 0.006484357435 0.0002951935079)
(0.01296465267 0.002332065977 0.0008448424874)
(0.01417189143 0.007727582688 0.0006925334478)
(0.0147613416 0.00741980212 -0.0003682516985)
(0.01241017829 0.003961109861 0.00109657653)
(0.01280713107 0.005435544742 -0.001156444675)
(0.01292952298 0.003779381264 0.0004803045203)
(0.01228698731 0.005123402259 -0.0002310294358)
(0.01435627224 0.003893979711 0.001972599557)
(0.0160805944 0.007146894646 -0.0009298060135)
(0.01388872012 0.002992511043 0.0006702005999)
(0.02096852807 0.008355853292 0.00235715343)
(0.01767283601 0.004744416241 0.001483462866)
(0.009906769928 0.002964931751 0.001065639242)
(0.009258410121 0.003055665255 0.0008893803314)
(0.007680184618 0.002347700549 8.671108484e-05)
(0.006107620643 0.002791430474 -0.002029150176)
(0.009962641465 0.004823750321 -0.0006169154729)
(0.0140012692 0.003946044758 0.001629725392)
(0.01026015272 0.001420386974 0.0003667053503)
(0.007444801281 0.002945128298 0.0006683811426)
(0.01072169459 0.002243679357 -0.0005910013785)
(0.008355852437 0.001748860049 -0.001259141125)
(0.009192128396 0.001609450696 -0.0004571813335)
(0.01565853151 0.004184297925 -1.78150446e-05)
(0.01469796924 0.003891333694 -0.0008820562033)
(0.01052530655 0.002429010506 0.0007683952409)
(0.01540753321 0.007590675861 -0.003142424204)
(0.01163083635 0.004460258543 -0.0004407281617)
(0.01622792004 0.003650559507 0.00063149506)
(0.01455581123 0.004153626458 0.0007338081197)
(0.01526754121 0.004617610735 0.001891206274)
(0.01864025474 0.005139297014 0.0002082275849)
(0.01263070562 0.006108775511 -0.002970092627)
(0.01275248831 0.002966990933 0.001640532793)
(0.01400450694 0.007641962916 -0.0004580195451)
(0.01213460984 0.002127120021 -0.001051129341)
(0.01468750018 0.00540226989 -0.001115684511)
(0.009006046996 0.001457059914 0.0001159122488)
(0.01111117144 0.004664028454 0.001067815877)
(0.009906957972 0.00384153064 0.002378887091)
(0.01747720515 0.008655146 -0.0006601680227)
(0.007211124283 0.002711665486 -0.0008988252815)
(0.02332679891 0.007687624864 -0.001182452818)
(0.01624845584 0.003091882552 0.002060090941)
(0.00810389261 0.004604786708 -0.0008078379761)
(0.007504342668 0.001635032993 0.0006860752151)
(0.01443035098 0.003713441053 -0.001050151906)
(0.01201615858 0.007292497872 -0.000263566086)
(0.007044741954 0.0008042728531 0.001106441569)
(0.008464486696 0.00254917309 -0.000391328658)
(0.009481385749 0.003494995401 0.000681360106)
(0.0135480515 0.003978426196 -0.001245039429)
(0.01263955147 0.002461439067 0.0005112048408)
(0.01390980938 0.004000569655 -0.001598029859)
(0.010605786 0.001793768058 -0.0007844548847)
(0.003458975171 0.0005845048466 -0.0001724940492)
(0.009405316032 0.002771350088 0.001691818323)
(0.01210342905 0.003184660429 0.0002489645282)
(0.01233810186 0.004060122967 -0.001065527831)
(0.0109708164 0.001650004818 -1.695815205e-05)
(0.02722337123 0.007752495046 -0.0005729383894)
(0.01432252807 0.004629408181 0.001065336747)
(0.01331861968 0.00480115067 0.001326374814)
(0.01078988982 0.004918224274 -0.001748574464)
(0.0139555003 0.005485672315 -0.0004842268157)
(0.0119956773 0.00516264578 0.0002842112755)
(0.01957770789 0.005935337627 0.0002085855966)
(0.01361843246 0.003561272649 -0.000314193891)
(0.01799775093 0.003734343952 -0.0008486386441)
(0.01606829891 0.005430311444 0.0005303203721)
(0.01147927833 0.005610907094 0.001924249648)
(0.005314686578 0.002434532718 0.0004247047196)
(0.01021596197 0.002966915888 -0.0009678953885)
(0.01086887907 0.002333635265 0.0004735076165)
(0.01741847924 0.005885185868 0.001346229863)
(0.01255206697 0.004244164878 0.001068842042)
(0.009312226061 0.002608726403 -0.002161333198)
(0.01328996903 0.006403186091 2.827196172e-05)
(0.01657048693 0.005872759533 0.002215044121)
(0.005845740204 0.0007123181339 0.001708491297)
(0.01162699793 0.004098204579 0.001083655007)
(0.01454479423 0.002162167635 -0.0008543008526)
(0.01191066879 0.0007500381289 0.0007822546841)
(0.007087575525 0.002053473798 0.0002880036858)
(0.009576520329 0.002297534701 -0.0003251746246)
(0.01329496487 0.00193058125 0.0007084660497)
(0.0122196874 0.003355115151 0.0002260185058)
(0.01316643736 0.002786800684 -0.000514347287)
(0.01326176486 0.004357310863 0.0002404849523)
(0.007536349549 0.00289723284 0.001180611986)
(0.01300104768 0.002378312953 0.001324833226)
(0.0165636293 0.006865297655 0.0008531379507)
(0.01393909749 0.004076390796 -0.00129626221)
(0.009285226465 0.001336673266 -0.0003250688738)
(0.01240712721 0.003782801306 -0.00167117651)
(0.01315842242 0.00328192629 0.0001342459102)
(0.01912863247 0.008259513256 -0.001170241663)
(0.01922200038 0.008076093266 -0.003951046944)
(0.01293893444 0.003496047791 -0.0004296386623)
(0.01691405062 0.005392280076 0.001649522352)
(0.01032642813 0.004069002992 -0.001772421591)
(0.01495700319 0.003060817171 0.002212671829)
(0.01668183865 0.00780491474 -0.001821919045)
(0.01191898617 0.003679409464 0.003112397921)
(0.01089096354 0.004089949711 0.002108528085)
(0.01038762128 0.007526406256 -0.0006246782833)
(0.01351842 0.00451015927 0.001061505428)
(0.00773961516 0.002265645132 -0.0006936872332)
(0.008345908937 0.003775842312 0.001662274442)
(0.007188215789 0.0004308837202 -0.0006153062084)
(0.0161900877 0.004977157659 -0.001174418442)
(0.006381176236 -5.25809862e-05 -0.0008137990199)
(0.01114942721 0.002190558319 0.0007701588909)
(0.008686253942 0.0009614915043 -0.0003437062979)
(0.00785689787 0.001010989643 0.0009801594415)
(0.008993542101 0.001210807064 -0.000722214073)
(0.01087777291 0.004036740034 0.0009703860838)
(0.009912967635 0.002243365992 -0.0009883220961)
(0.009306306553 0.002515745112 0.0008608455201)
(0.00906158784 0.001594444894 -0.0007783074617)
(0.01371616986 0.003861072957 0.0001501088832)
(0.01588862155 0.004251084951 -0.0004846130841)
(0.02177925041 0.005783937751 0.0001185588943)
(0.01732232491 0.003134853097 0.0009611888555)
(0.01433731043 0.004686971419 -0.001736580616)
(0.01150393968 0.005517054515 0.0005617428129)
(0.01878319961 0.008211023553 -0.0005605905081)
(0.01397910955 0.002404808126 -0.001266569912)
(0.01958843534 0.005309774485 0.003025649132)
(0.01318277509 0.0036160243 -0.001128655352)
(0.01376487121 0.001953054079 0.0003237159012)
(0.01864217731 0.005082204096 -0.004267219882)
(0.01772553807 0.00661139729 0.0004897211911)
(0.00713003928 0.004301011882 0.000911587383)
(0.02023300107 0.004476661049 0.001380073735)
(0.01298550799 0.002632488874 0.001245175611)
(0.01549292149 0.004826889706 4.074960984e-05)
(0.01219185474 0.005115099375 6.575477368e-05)
(0.01382271765 0.004110431684 0.001054010182)
(0.01526855492 0.004065875613 0.002065579261)
(0.01814317364 0.004618835072 -0.00101189781)
(0.007415698714 0.001072197373 0.0001694321138)
(0.001807524331 0.0002962257213 -0.0004967298223)
(0.01412018356 0.0019066279 5.707321294e-05)
(0.008886814828 0.002052698256 0.001165718347)
(0.01405536622 0.002872065884 -0.001119940495)
(0.01312748964 0.0008588719284 -0.0003472715256)
(0.01191501985 0.002327254071 -0.001866331173)
(0.00900039495 0.001721420771 -0.0004157279478)
(0.01195903702 0.00375456752 -0.001496161941)
(0.01153010525 0.002274401825 -0.001214448047)
(0.01114141599 0.001792988734 -0.00300317499)
(0.01478183457 0.001253946212 0.001152768421)
(0.01817316994 0.005691992381 -0.0003006502031)
(0.01599571132 0.005568931879 -0.0007338434718)
(0.01656082681 0.005328521526 -0.000686863823)
(0.007621611661 0.001987486066 0.001906872797)
(0.01654995791 0.003939167018 -0.002360970375)
(0.01686912889 0.005755395192 -0.0001346155917)
(0.01184912878 0.001364378049 -0.001804361047)
(0.01284988501 0.004269713777 0.0008417185916)
(0.01870426934 0.003447784792 0.0008601175587)
(0.01677099947 0.005732080615 -0.001984020431)
(0.01521232376 0.007423066635 0.001361131626)
(0.01038195267 0.00382004317 0.0009878593023)
(0.01502429002 0.003915390694 0.0007505647775)
(0.01104283311 0.004008751057 -0.0008248715901)
(0.01577565677 0.005984084997 -0.001895201961)
(0.01902304686 0.006558711778 -0.001017082955)
(0.01357541906 0.005988054823 1.894343563e-05)
(0.01085731005 0.005631248403 -0.001234608235)
(0.009407001462 0.0007828864085 -0.0005416331682)
(0.01036364423 0.001782924119 -0.0002016677978)
(0.009378816307 -0.0008221472318 -0.0002085839432)
(0.007202575809 0.0008049958683 -0.0003678842928)
(0.009397067342 0.001104041092 0.0008628567652)
(0.0100511433 0.001841898328 -0.0004061848811)
(0.01996874778 0.001221651606 0.001274094784)
(0.01198967068 0.003156191419 -0.002520454522)
(0.006948426532 0.0007221017484 -0.0002470220421)
(0.01839033168 0.00400588561 0.001643973576)
(0.009171212504 0.003562650777 -0.001072963811)
(0.01048319933 0.003298679221 0.0006025348092)
(0.01305668882 0.003977341531 -0.002046963057)
(0.01143834124 0.001520160095 -0.000158666042)
(0.01698682902 0.005714688567 0.001385220162)
(0.02071455405 0.005533338399 -0.002398673006)
(0.01134830644 0.003562439923 0.0005948420603)
(0.0168222054 0.003645100842 0.002321424813)
(0.01307452575 0.003205371835 -0.0001800747198)
(0.01421418447 0.002157727093 -5.721461667e-05)
(0.0181513622 0.007161297334 -0.002120022729)
(0.01892419657 0.005372822496 -0.0004589815345)
(0.01678942398 0.004698896309 -0.0009479391823)
(0.01394723019 0.004497918745 0.003352557001)
(0.01703494482 0.005310267761 0.001071158486)
(0.01462411035 0.003848012779 -0.001725798267)
(0.01384393721 0.00372473181 -0.0001149562353)
(0.01232219972 0.004099609124 0.0007281893982)
(0.01787717066 0.003435443501 0.0008425744516)
(0.01699015999 0.004123203813 -0.0002097179385)
(0.007635821781 0.0002141235336 0.0004268534371)
(0.01192519852 1.546368798e-05 0.000606469221)
(0.006024068098 0.001039462453 0.0006701211198)
(0.008616383922 -6.567025778e-05 -0.0001451997984)
(0.01010858802 0.0009601877199 -0.0004205678922)
(0.008874693582 0.001218961348 0.0003150357697)
(0.01122458073 0.001833728161 0.0007893577395)
(0.008235836659 0.002992896443 0.001517613298)
(0.01644993232 0.001877954491 -0.000141479692)
(0.02379722259 0.00263267859 8.918282167e-05)
(0.01102220197 0.0008897708081 -0.0002782748396)
(0.009871673626 0.003016328898 -0.001804813605)
(0.01468127642 0.003490432873 0.002322045002)
(0.004043468997 0.001455026533 0.0004629867055)
(0.01095926984 0.00204667953 0.0005661954455)
(0.009505307454 0.004381482072 -4.131371727e-05)
(0.01439515817 0.003827265829 -0.0001604635391)
(0.01820999677 0.005254944295 -0.002511962311)
(0.01538579473 0.005726538611 0.002183257396)
(0.01592009756 0.005465036644 -0.0004116491765)
(0.01799501622 0.004123419521 0.0002765698241)
(0.01537522186 0.00296471811 0.001486580796)
(0.01595851793 0.00588397027 -0.002404924032)
(0.01181611331 0.002470030832 -0.002858023566)
(0.02603472458 0.0110540563 -0.0003340622001)
(0.02070342611 0.007025781945 0.001080700645)
(0.01264061549 0.00487607444 0.0008647483759)
(0.01763645608 0.00665575465 0.000646416668)
(0.01716766436 0.006109625429 0.0009458135955)
(0.008842140625 0.0003428942777 -0.0002360965866)
(0.01587586844 0.0007647649487 0.0007576485157)
(0.008761960831 0.0005561429958 -0.0006618191732)
(0.005366659092 0.0003872962284 -0.0003158846765)
(0.009191610262 0.0003237844887 -0.001453723253)
(0.0009497004393 3.7124491e-05 -0.0001498253272)
(0.0117115327 0.0002494242899 -0.0003456815039)
(0.009217738598 0.001028313219 -0.0002250330047)
(0.01770631074 0.001741955636 0.0009617591945)
(0.01529712731 0.0007548015456 0.0008136353511)
(0.01387785327 0.001393743955 0.0005469273687)
(0.01541704247 0.001383007188 0.0002988318174)
(0.007079532429 0.001932631856 -0.0005958397103)
(0.01328875553 0.001272306551 -0.0006756558198)
(0.01250069437 0.004379610692 0.0006575430486)
(0.01550343616 0.005220347765 -0.000700174142)
(0.0135090136 0.003301487535 0.0008282723976)
(0.01797523391 0.005028110757 0.001654223764)
(0.01424370264 0.004702663477 -2.862846699e-05)
(0.0168047059 0.004744927195 -0.001915474922)
(0.01371527782 0.007574123232 0.001041337961)
(0.01656064635 0.003525814685 0.001190855582)
(0.01584894774 0.005475272366 -0.001662701203)
(0.01334126567 0.005389621802 -0.001053009228)
(0.01402691624 0.004085694184 0.0007890916285)
(0.01874060119 0.006842432921 0.001492171098)
(0.01108079225 0.003115217858 -0.001306592378)
(0.02331743419 0.007696927038 0.001376770378)
(0.01443573479 0.005625180354 -0.002116327071)
(0.01933015044 0.009810274354 -0.001090929602)
(0.009174383663 0.0003380202362 0.0004325659313)
(0.005257514423 0.0001866777371 5.962552001e-05)
(0.01357416326 0.0005780932031 0.0008228325352)
(0.01202259823 0.0007873500527 0.0007149820477)
(0.009571310206 0.0007756900192 -0.0001570395738)
(0.01000678661 0.002532775801 3.372873622e-05)
(0.008493530904 0.001636228927 -0.001017822648)
(0.009027848466 0.001288753992 -0.0006326497879)
(0.009617190728 0.001450038782 0.0009765604843)
(0.00375679436 0.001717452216 0.0003643107424)
(0.008886369495 0.001508445435 -0.000728434514)
(0.009590488234 0.001610926935 0.0004086600868)
(0.01508340057 0.00200524554 0.0009092408111)
(0.008430084151 0.001044352202 3.546472769e-05)
(0.01668215816 0.002322452277 -0.0002674217622)
(0.014526931 0.00597330866 0.001225366968)
(0.01484410194 0.003669919568 0.002374185311)
(0.01483809013 0.003428493698 -4.04915302e-06)
(0.01750127113 0.003609369717 0.001102221866)
(0.01318612129 0.005343643933 0.0007495265488)
(0.01171285117 0.004696298616 0.0002152160772)
(0.01011951012 0.003835925176 0.0008315636439)
(0.02325774887 0.006063588947 0.0005060602761)
(0.02075210246 0.004061130325 0.00178268121)
(0.007480715983 0.004892409525 0.0004600068967)
(0.007769759529 0.0006842563982 -0.0005823720504)
(0.008305055038 0.0001760938288 -0.0003292279006)
(0.01259026989 0.0005882890509 -0.0002041323579)
(0.004172525658 0.0005378756675 -7.684586673e-05)
(0.004357917991 -0.0001124304117 0.0003767209495)
(0.00749506408 -9.571719445e-05 0.0007024688289)
(0.009492442347 0.0001372045629 -0.0002083140255)
(0.007790074275 -0.0004747643494 0.0009801781717)
(0.009198895523 -0.001717744785 -0.0005465414414)
(0.0140873979 0.001854802952 0.001645858867)
(0.00661781128 0.0006452005278 4.550778023e-05)
(0.01100190114 0.001059351255 0.0001928382706)
(0.006796547454 -0.0003051925713 -0.000796559868)
(0.009480771675 0.0006753340795 -0.0002523681895)
(0.01683443543 0.003921654831 0.0005067290297)
(0.01137546967 0.003777953752 0.001422634816)
(0.009737843486 0.002364072123 -0.0004656396495)
(0.006921949934 0.002897878393 0.0008372882967)
(0.01603449164 0.005318512219 -0.001987706003)
(0.00727733928 -0.0002201867756 -0.0004012332302)
(0.01186840565 0.0006201787474 4.281533012e-05)
(0.00663232102 0.0001871786604 0.0001310393319)
(0.0026469087 1.767059226e-05 -3.794754748e-05)
(0.006822615506 0.001015623203 4.722722545e-05)
(0.008832727551 0.001341422579 0.000421867502)
(0.007135951621 -2.245162611e-05 -0.0002081408389)
(0.01189075826 0.000135694224 0.0007948023311)
(0.009643232265 0.0008475046775 0.001013036373)
(0.006938541215 -3.611222755e-05 0.0003190901155)
(0.007883056097 -1.56872006e-05 6.665354503e-05)
(0.004342899348 -0.0002801250376 -0.0006845383616)
(0.002951615516 0.0001416502098 0.0001020546606)
(0.02150452424 0.001018088148 0.0001462604015)
(0.006940507105 0.000407427981 6.450629917e-05)
(0.007332378598 0.0005865097633 0.0001236642825)
(0.004991077101 0.0005322506239 0.0005277787544)
(0.01283877638 -0.0007353317135 0.000884725489)
(0.009053182969 -0.0001388449183 -0.001669462884)
(0.0130275007 -6.75531261e-06 0.0004403560969)
(0.005571707846 0.0003858907668 -5.538464284e-05)
(0.01039753294 -0.000129147136 -0.0008028512189)
(0.003344858582 0.0003306914891 -0.0001716233623)
)
;

boundaryField
{
    flow
    {
        type            zeroGradient;
    }
    obstacle
    {
        type            calculated;
        value           nonuniform List<vector> 
30
(
(6.845641468e-22 1.834284106e-22 6.181751446e-22)
(5.360106411e-23 1.436236187e-23 2.249512692e-21)
(1.21216744e-21 3.247992857e-22 -2.876555791e-22)
(9.987965216e-22 2.676267218e-22 -1.832612266e-22)
(6.163583402e-21 1.65152719e-21 1.759872962e-21)
(0 0 0)
(5.603775633e-22 1.501527158e-22 1.380900782e-21)
(0 0 0)
(0 0 0)
(4.83510213e-21 1.295561713e-21 8.348275961e-22)
(1.284242645e-21 3.441117785e-22 -5.879733635e-22)
(9.368169525e-22 2.510193463e-22 -2.776314744e-21)
(8.74858563e-22 2.344176459e-22 1.327427732e-21)
(1.28295586e-21 3.437669856e-22 9.913188518e-22)
(0 0 0)
(8.47007897e-22 2.269550813e-22 4.346341431e-22)
(-2.614877935e-22 -7.006544324e-23 -1.699635813e-21)
(-4.56389585e-21 -1.22289221e-21 -3.776130047e-21)
(0 0 0)
(3.323643352e-21 8.905675538e-22 8.593506563e-23)
(6.692370775e-23 1.793215348e-23 -6.015131905e-22)
(1.333577134e-21 3.573309151e-22 7.32935787e-23)
(8.147691391e-22 2.183167332e-22 -2.106965941e-22)
(0 0 0)
(-4.195566743e-21 -1.124198717e-21 3.381886514e-21)
(7.806972242e-22 2.091871911e-22 1.241898148e-21)
(7.970566631e-23 2.135706885e-23 2.28359657e-22)
(0 0 0)
(8.47638382e-21 2.271240203e-21 4.365441804e-22)
(0 0 0)
)
;
    }
    frontAndBack
    {
        type            empty;
    }
    procBoundary1to0
    {
        type            processor;
        value           nonuniform List<vector> 
21
(
(0.00788662154 0.0006384025312 -0.000215727726)
(0.008992681205 0.0006742164735 -0.00198469572)
(0.01139820667 0.0004382286381 0.001357435641)
(0.01436994722 0.007591458063 0.000957317852)
(0.006568098584 0.002567740834 0.001028956892)
(0.01459789804 0.006148229603 -0.0001488221115)
(0.01129047969 0.002478666804 -0.0005332585213)
(0.0136512273 0.003437408742 -0.0008185470555)
(0.02089912179 0.001310914032 1.110674533e-05)
(0.01155840322 0.003431712468 0.0008354660681)
(0.007697269259 0.002132929332 -0.0006329299272)
(0.008658108282 -0.0001654743056 -0.0001654202478)
(0.004925629673 -0.0002478033222 8.479819489e-05)
(0.008790711677 -0.0006222008319 -0.001024395145)
(0.008887353292 -1.460295627e-05 0.0005883813602)
(0.006229965266 -0.0001280212333 -0.0003164078575)
(0.007446302749 -0.0009810369529 0.0002692076261)
(0.008672521812 0.001148700977 0.0001402876549)
(0.007349462829 1.785131083e-05 0.0001286518895)
(0.005138880453 0.0001321088497 -7.125867664e-05)
(0.007046890551 -0.0002634665383 -9.299465123e-05)
)
;
    }
    procBoundary1to3
    {
        type            processor;
        value           nonuniform List<vector> 
36
(
(0.005361790241 0.000965492241 -0.000172962606)
(0.01505414379 0.001012756895 -0.002133884115)
(0.01624859024 0.005112102647 0.0003165322218)
(0.01834153172 0.003109561889 -0.0008765110238)
(0.005361790241 0.000965492241 -0.000172962606)
(0.01450981923 0.005820711346 -0.00298840415)
(0.01157837219 0.002230891312 7.961631282e-05)
(0.01066817913 0.003879093687 0.0004279401505)
(0.01366333026 0.007424673475 -0.002292041494)
(0.0119283251 0.004265844762 -0.002754295224)