/*--------------------------------*- C++ -*----------------------------------*\
| =========                 |                                                 |
| \\      /  F ield         | OpenFOAM: The Open Source CFD Toolbox           |
|  \\    /   O peration     | Version:  2406                                  |
|   \\  /    A nd           | Website:  www.openfoam.com                      |
|    \\/     M anipulation  |                                                 |
\*---------------------------------------------------------------------------*/
FoamFile
{
    version     2.0;
    format      ascii;
    arch        "LSB;label=32;scalar=64";
    class       volVectorField;
    location    "0.006";
    object      momentumMean;
}
// * * * * * * * * * * * * * * * * * * * * * * * * * * * * * * * * * * * * * //

dimensions      [1 -2 -1 0 0 0 0];

internalField   nonuniform List<vector> 
546
(
(0.005533430619 0.00153214747 2.100930189e-05)
(0.005230072644 0.001529363516 -2.591855778e-06)
(0.005054191961 0.001423520764 1.23666066e-05)
(0.004838407674 0.001348779058 -4.687450694e-05)
(0.004711485115 0.001289426917 4.292248981e-06)
(0.004591279466 0.001259416907 -0.0001171798212)
(0.004539221632 0.001223939041 -8.54825918e-05)
(0.004412179805 0.001225383291 1.238535679e-05)
(0.004254484424 0.001200121254 8.424244136e-06)
(0.004099108595 0.00113861046 4.08558588e-05)
(0.003958453744 0.001129801052 7.351384324e-05)
(0.003865606801 0.001023699593 -4.369915904e-05)
(0.003696371502 0.00105747313 -6.486866401e-05)
(0.003629037278 0.0009842291371 6.568811783e-05)
(0.003506991157 0.0009792640296 -2.601037374e-05)
(0.003407906628 0.000929571268 -7.563047989e-05)
(0.003269346278 0.000920615036 -4.682923057e-05)
(0.00331749728 0.0008678181043 3.040124104e-05)
(0.00321056023 0.000888881754 1.383658117e-05)
(0.003128804102 0.0008614737912 2.567147852e-05)
(0.003179068531 0.0008060368515 -1.380204911e-05)
(0.003207374013 0.0008739623031 7.92037681e-06)
(0.003112387803 0.0008627669504 0.0001354580493)
(0.003192843969 0.0007948652258 0.0001387898492)
(0.003179696825 0.0008163297212 -2.50523845e-05)
(0.003161465678 0.0008578002755 -3.349499934e-05)
(0.003140239959 0.0008419928628 5.182124865e-05)
(0.003180231178 0.0008317661174 6.629155817e-05)
(0.003311090456 0.0008134870281 0.0001149495021)
(0.003597770578 0.0006805680183 -2.760750042e-05)
(0.00843250953 0.002625187725 -0.0001146766792)
(0.008182045718 0.002515627611 -9.320562745e-05)
(0.007847817606 0.002340810361 2.585927469e-05)
(0.007629246077 0.00227010787 -9.093784242e-06)
(0.007417592543 0.002121948696 1.38104744e-05)
(0.007254646392 0.002072567679 -8.254067105e-05)
(0.006928595569 0.001994347426 2.423543227e-06)
(0.006759971091 0.00194615104 -4.20151817e-05)
(0.006567625031 0.001958080826 -7.124307129e-05)
(0.006398917246 0.001865406129 -2.798646984e-05)
(0.006199252253 0.00185563151 3.18399589e-05)
(0.006029463501 0.001764541486 -1.375786348e-05)
(0.005842996536 0.001737574967 -2.010861068e-05)
(0.005676331485 0.001612520359 7.570009012e-05)
(0.005539184342 0.00157323272 7.878563039e-05)
(0.005465999137 0.001572879724 8.868367551e-06)
(0.005337344215 0.001511804146 -5.824691618e-05)
(0.005145259957 0.001414565459 -6.770194466e-06)
(0.005051337512 0.001454109094 1.043046403e-05)
(0.005011650408 0.001347772864 7.718357167e-05)
(0.00495108785 0.001278046683 1.71526421e-05)
(0.004818082321 0.0013354704 9.396193952e-05)
(0.004872632063 0.001314146212 -5.678347208e-05)
(0.004784580872 0.001189960211 7.83999753e-05)
(0.004732253129 0.001308426813 7.763476625e-06)
(0.004708529257 0.001238087519 2.296381868e-05)
(0.004715406064 0.001259360955 9.373616604e-05)
(0.004681969455 0.001139819816 4.259091964e-05)
(0.004757103367 0.001144302939 2.00389973e-05)
(0.005018065937 0.0007286481248 -2.98953445e-05)
(0.01037343407 0.00332912585 -0.0001284068233)
(0.01020315089 0.003201038365 -0.0001219105136)
(0.01002316752 0.003174130763 -8.128482919e-05)
(0.009654422091 0.002981035848 -0.0001001320439)
(0.009262868343 0.00281735299 2.823338637e-05)
(0.008919393586 0.002750418685 -7.733518846e-05)
(0.008751440061 0.002676617258 -0.0001236335576)
(0.008478414239 0.00258589564 -0.0001620011044)
(0.008307691962 0.002526274928 -7.741068053e-05)
(0.008062794664 0.002434591323 -1.853375553e-05)
(0.007905488453 0.002448397554 -5.254026418e-05)
(0.007711081813 0.002359257385 3.858876498e-05)
(0.007481417514 0.002236625272 6.637679535e-05)
(0.007267963964 0.002179841438 4.67483052e-05)
(0.007109732751 0.002113250812 4.40001993e-05)
(0.006971516679 0.002007537121 3.749243162e-05)
(0.006922835235 0.0020168625 -6.965314985e-05)
(0.006768626982 0.001928344759 -2.494538011e-05)
(0.006627279593 0.001909400184 -3.07284791e-05)
(0.006464412483 0.001790370551 5.735728108e-05)
(0.006284132162 0.001740126927 -3.893286222e-06)
(0.00630748944 0.00165764605 -5.217044125e-05)
(0.006233179481 0.001739335597 -3.861534721e-06)
(0.006011316208 0.001662519831 -1.203891333e-05)
(0.005900311782 0.001585319742 6.629945385e-06)
(0.005811057282 0.001545590812 6.794728293e-05)
(0.005801387242 0.00153961956 4.275602491e-05)
(0.005851261637 0.001464662672 -2.600771436e-05)
(0.005858570716 0.001285739091 2.946294576e-05)
(0.005998787924 0.0008577021304 -3.734537023e-06)
(0.01146651466 0.003638251547 1.024379576e-05)
(0.01147494234 0.003664734778 -2.679429309e-05)
(0.01131913752 0.003723045825 -3.829079144e-05)
(0.01112594722 0.003660416993 -5.676353908e-05)
(0.01095027984 0.003543483907 -5.095821508e-05)
(0.01071308919 0.003301399783 -4.971931332e-05)
(0.01042929626 0.003287302395 -4.455578381e-05)
(0.01019711754 0.003223678459 -1.233200281e-05)
(0.009887302583 0.003162003225 -4.975421483e-05)
(0.009630219623 0.003035794134 -2.99844577e-05)
(0.009449747446 0.002929037761 -3.303643656e-05)
(0.009135911252 0.00286368809 -3.92951414e-05)
(0.00900692675 0.002796005875 -7.075312199e-05)
(0.008840567614 0.002722065386 -6.210715588e-05)
(0.008590088685 0.002620156795 -5.152401539e-06)
(0.008367685162 0.00243233336 -4.350978916e-05)
(0.008265726761 0.002423332043 6.87450518e-05)
(0.008094173453 0.002392773729 -3.293536431e-05)
(0.007922999507 0.00236869271 -7.295902645e-05)
(0.007804561812 0.002259429066 -2.391998588e-05)
(0.007662899671 0.002105017491 8.470208804e-05)
(0.007362122983 0.002031888318 2.037971532e-05)
(0.007205301741 0.002081994832 -7.124611177e-05)
(0.007109027219 0.002055936315 3.523944607e-06)
(0.007050936521 0.00192483641 3.698849983e-05)
(0.006961293526 0.001863435754 1.378124224e-05)
(0.006814528205 0.001811395765 6.184187574e-07)
(0.006872287387 0.00164396803 1.955663493e-05)
(0.006901784594 0.001489698004 -3.247625565e-06)
(0.006925747269 0.001149556847 5.932069407e-05)
(0.01190106976 0.00370987573 9.841396009e-06)
(0.01195593546 0.003778298998 4.429282364e-05)
(0.01212283435 0.003948524415 4.679166895e-05)
(0.01216929673 0.003952140025 -1.304545864e-05)
(0.01206481816 0.003892735415 -2.303934403e-05)
(0.01187105061 0.00387536423 -4.883643294e-07)
(0.0116423424 0.003797598143 3.209048773e-05)
(0.0114283786 0.003709816501 -4.148828698e-05)
(0.01131227421 0.003707234612 -0.0001230188399)
(0.01102547644 0.003530317819 -4.151547873e-05)
(0.01073691246 0.003471083524 -6.384405924e-05)
(0.01065441039 0.003364153882 -9.895703904e-06)
(0.01048387304 0.003274430875 -4.877729716e-05)
(0.01020392638 0.003250574655 -1.883064577e-05)
(0.01000339692 0.003139401118 -2.508162104e-05)
(0.009716216736 0.002961766569 -3.684142468e-05)
(0.009376331492 0.002815351244 4.396562506e-06)
(0.009231102177 0.002853826426 1.340586398e-05)
(0.009022158471 0.002687080964 -1.953118318e-05)
(0.008837994091 0.002629855087 -1.871303681e-05)
(0.008661878916 0.002559674975 -4.495561514e-06)
(0.008443746733 0.002463701884 -6.696800435e-05)
(0.008268335021 0.002378015038 -2.457789516e-05)
(0.008169294617 0.002362482783 4.40231369e-05)
(0.00803157262 0.002243672541 0.0001146981383)
(0.007937704714 0.002181183503 3.336785192e-06)
(0.007980536955 0.002097985303 -1.070847229e-05)
(0.007772186973 0.001886777909 -3.133171275e-05)
(0.007673299594 0.001675677286 -7.237050531e-06)
(0.00752115219 0.001402099736 -2.179971609e-05)
(0.01188259093 0.003499053136 -1.46584188e-05)
(0.01205882266 0.003688434757 -2.551954407e-05)
(0.01228903855 0.003814313515 7.979592404e-06)
(0.0123747377 0.003964134755 -2.48723825e-05)
(0.01247293541 0.004056229148 -1.720228115e-05)
(0.01245930916 0.004159143907 1.407451576e-05)
(0.01246837683 0.004049678534 -4.116928873e-06)
(0.0123642908 0.003990528803 -4.720347638e-06)
(0.01221787456 0.003998369306 -2.650927724e-05)
(0.01216818349 0.004039245955 -1.441661921e-05)
(0.0120427838 0.003932738785 -1.513163543e-05)
(0.01172988474 0.003786453932 -2.32862197e-05)
(0.01142971257 0.003701033336 -1.844072355e-05)
(0.01123915269 0.003630539032 6.975360452e-05)
(0.01109166227 0.003536976563 3.913525514e-05)
(0.01094491675 0.003472862866 1.730244523e-05)
(0.01066743521 0.003330273893 2.762000655e-05)
(0.01052014264 0.003273347869 4.62825349e-05)
(0.01027826117 0.003203843527 2.468555875e-05)
(0.009976638657 0.003025709969 6.588896051e-06)
(0.009717506889 0.002994551532 -3.051759873e-05)
(0.009493467384 0.002838526658 2.035638369e-05)
(0.009345261527 0.002752722812 -9.300122639e-05)
(0.009238171076 0.002706145539 2.195229451e-05)
(0.009097589251 0.002582676002 5.239442378e-05)
(0.008904915047 0.00248313153 2.425010896e-05)
(0.008709539371 0.0023325923 -3.651832467e-05)
(0.008670831327 0.002187138396 -6.144116839e-05)
(0.008557838574 0.001995554747 1.51130906e-05)
(0.008354045987 0.001683375884 -4.963850353e-05)
(0.01162578369 0.003086629044 -7.851213092e-06)
(0.01204536647 0.003414891311 -1.133843426e-05)
(0.01229568773 0.003658138436 -8.072730624e-05)
(0.01252617029 0.003880121253 -5.055172972e-05)
(0.01276714652 0.003992521007 -3.043159509e-05)
(0.01305318586 0.004208179595 -7.45142276e-05)
(0.01306134851 0.004239719858 1.17450203e-06)
(0.01302639455 0.004285786816 -4.223989643e-05)
(0.0129993739 0.004180546415 2.600640886e-06)
(0.01295510129 0.004192061381 2.322971397e-05)
(0.01278645812 0.004273088535 1.848738457e-05)
(0.01264348002 0.004214347491 -3.265673688e-05)
(0.01259433141 0.004099402292 -9.217219702e-06)
(0.01240508747 0.00408543998 -1.048206395e-05)
(0.0120564966 0.003950919632 -5.556530743e-05)
(0.01185090035 0.003870222695 1.144217275e-06)
(0.01164985988 0.00368177116 -1.45546991e-05)
(0.01140364418 0.003605692496 -4.361033017e-06)
(0.01123865406 0.003569580088 3.054993267e-05)
(0.01096575904 0.003491754077 -1.831917932e-05)
(0.01085449453 0.003335993749 3.810771325e-05)
(0.01068619509 0.003310505729 -2.502365473e-05)
(0.01044717698 0.003081093193 -2.793517526e-05)
(0.01033048822 0.002993516502 -5.257131025e-05)
(0.01024539492 0.003040247413 1.468026882e-05)
(0.009988286863 0.00285036475 3.413178209e-05)
(0.009839008655 0.00270418077 8.860436804e-05)
(0.009639441586 0.002493395923 7.617808002e-05)
(0.009404549448 0.002326947271 5.023513231e-05)
(0.009167494433 0.002037631148 1.930153256e-05)
(0.01100088973 0.002550281672 -2.282562798e-05)
(0.01144968998 0.00293440003 -3.587282204e-05)
(0.01200864838 0.003248531007 -2.268503613e-05)
(0.01248452594 0.003556742583 -1.584818494e-05)
(0.01269824086 0.003691872908 -4.610548714e-05)
(0.01289142552 0.003984754688 4.628759808e-06)
(0.01323303313 0.004178228218 -1.196288876e-05)
(0.0134419606 0.004319734133 3.129980258e-05)
(0.01337960148 0.004349696012 -2.832898606e-06)
(0.0133897606 0.004357850978 -6.557211244e-05)
(0.01341539436 0.004405823949 -3.90427543e-05)
(0.01341946228 0.004434060668 -7.915090478e-06)
(0.01321724624 0.004381065633 -2.308602498e-05)
(0.01305540095 0.004399681964 6.715368311e-06)
(0.01300284747 0.00429906385 -3.929484654e-06)
(0.01286316536 0.004202139604 -3.349019256e-06)
(0.01267590378 0.004121977561 4.730561886e-05)
(0.01236072915 0.004000804157 -1.502917255e-05)
(0.01223564057 0.003975289978 -5.029734147e-06)
(0.01206322561 0.003822422491 -9.358312393e-05)
(0.01186985686 0.003732980049 -2.213266213e-07)
(0.01159341347 0.003603331383 2.016981477e-05)
(0.01141786985 0.003478049788 -2.270132022e-05)
(0.01112843315 0.003288724716 1.058065825e-05)
(0.01091289513 0.003280944977 -3.427101229e-05)
(0.01075536647 0.003171999234 6.462622853e-05)
(0.01052638098 0.003000492984 -1.338770983e-05)
(0.01033967338 0.002798864542 1.648987026e-05)
(0.01020708411 0.00267301239 2.220923068e-05)
(0.00996633588 0.00236497346 -7.812167254e-06)
(0.01057700309 0.002044424304 1.376197163e-05)
(0.01103047137 0.002409087159 6.092215273e-06)
(0.01143441627 0.002719419905 2.428219693e-05)
(0.01180887433 0.00306672866 -1.222071132e-05)
(0.01234880732 0.003359809207 3.422098851e-05)
(0.01257277817 0.003603751313 -1.669537739e-05)
(0.01287179152 0.003888636897 -3.115438293e-05)
(0.01317325703 0.00405012195 -1.076020131e-05)
(0.01347940349 0.004342559083 -8.167165489e-06)
(0.01357446994 0.004349046114 2.499128716e-05)
(0.01364967016 0.004436296922 -1.884667345e-05)
(0.01372364971 0.00455296626 9.258546663e-05)
(0.0138236994 0.004541010524 4.720066235e-05)
(0.01379404973 0.004572597166 -3.573028924e-05)
(0.01377193288 0.004508751326 -6.124148974e-06)
(0.01362415355 0.004510384071 -9.438881408e-06)
(0.01345213355 0.004454110393 -3.686789158e-05)
(0.01331167675 0.004333883365 -1.070587767e-05)
(0.01308207236 0.004242319085 2.303895386e-05)
(0.01284375468 0.004209134248 2.028955755e-05)
(0.01258770325 0.004107520081 -6.961106352e-05)
(0.01242122475 0.003960392005 -6.764535267e-06)
(0.01212344014 0.003809314107 -7.026036452e-05)
(0.01200120099 0.003666141519 1.181545758e-05)
(0.01176330957 0.003560858699 -1.545871785e-05)
(0.01160433662 0.003488421184 -6.949002399e-05)
(0.01132026396 0.003313908672 -8.768574255e-06)
(0.01107004409 0.003126857887 -2.893875264e-05)
(0.01082395019 0.002912539635 -1.298133328e-05)
(0.01070788982 0.002681178223 -8.135100473e-06)
(0.009912811005 0.001549242956 5.68242659e-06)
(0.01023052297 0.001824652559 4.312774303e-05)
(0.01068789192 0.00219106549 5.597345702e-05)
(0.01113168078 0.002509010209 5.499517784e-05)
(0.01159881622 0.002883456104 3.712084514e-05)
(0.01208117186 0.003183656684 9.718798462e-06)
(0.01259695734 0.003459932276 4.1097631e-06)
(0.0128933986 0.003750253912 -1.991117284e-05)
(0.01325923051 0.003955300013 -3.754352114e-05)
(0.01360018616 0.004210965159 -1.153843953e-05)
(0.01380377337 0.004321009105 4.121384893e-05)
(0.01399582111 0.00448823384 -1.358543312e-05)
(0.01402700409 0.004532946744 2.655507996e-05)
(0.01406524121 0.004639913744 1.832879974e-05)
(0.01409264934 0.004663525846 5.335101688e-06)
(0.01404585054 0.004666226025 -3.169936856e-05)
(0.01398867685 0.004650066437 -4.354923129e-05)
(0.01382181635 0.004657497378 -3.859923709e-05)
(0.01365558884 0.004505571209 -8.667395497e-05)
(0.01354292539 0.004441596613 -4.048183007e-05)
(0.01338808111 0.004382866445 -6.813139849e-05)
(0.01323009272 0.004291875853 -1.082614062e-05)
(0.01300407269 0.00417429228 2.447336264e-05)
(0.0126588195 0.003952388535 -2.184339553e-05)
(0.01253353056 0.003869218961 2.349283149e-05)
(0.01226816025 0.003784605347 -4.601392393e-05)
(0.01205763427 0.00368501269 -2.429592949e-05)
(0.0118814659 0.00348754593 1.587380676e-05)
(0.01153615346 0.003196761894 1.191472139e-05)
(0.01125727348 0.002955414467 1.128418747e-05)
(0.009693234566 0.001193268445 -8.913669977e-07)
(0.009968955549 0.001460052061 -2.472734806e-06)
(0.01030191022 0.001720535469 -4.235498132e-05)
(0.01075673262 0.002056043922 -1.22490629e-05)
(0.0110998368 0.002329813827 2.961585214e-05)
(0.01152107645 0.002628444392 9.185667189e-05)
(0.01194586123 0.002976185252 4.748815439e-05)
(0.01246194391 0.003302059395 8.488480417e-05)
(0.01291326693 0.00360106953 2.207558765e-05)
(0.01332982076 0.003857553179 -3.137702012e-05)
(0.01362617901 0.004084572397 -2.171986986e-05)
(0.0138376506 0.004291313437 -4.285836317e-05)
(0.01409588672 0.004510909192 -6.110676516e-05)
(0.01417185784 0.00462936382 -3.263809822e-05)
(0.01421218748 0.004663531563 -1.941639162e-05)
(0.0142054705 0.004603744517 4.639196041e-06)
(0.01430134559 0.004772476824 4.828055395e-05)
(0.01431969566 0.004800850721 2.800913088e-05)
(0.01411528973 0.004752361956 1.416082956e-05)
(0.01405175729 0.004635534351 4.468250559e-05)
(0.01393839816 0.004588872134 2.031997751e-05)
(0.01382878453 0.004530310529 -4.51788697e-05)
(0.01362967694 0.004454978793 -9.989246781e-06)
(0.01341015186 0.004343395009 2.880337287e-05)
(0.01297600755 0.004161057825 3.116561607e-05)
(0.0128699064 0.004034666276 5.720182633e-05)
(0.01266677041 0.00387939252 2.796662666e-05)
(0.0126242495 0.003768030396 5.386944932e-05)
(0.0124136929 0.003582556272 2.43875065e-05)
(0.01204136601 0.003301559424 -8.297910025e-06)
(0.009299282791 0.0008829033579 1.060341349e-05)
(0.009572076757 0.001116846637 9.136640163e-06)
(0.009862699889 0.001323185295 6.07583505e-06)
(0.01020101627 0.001563351387 1.595891236e-05)
(0.01063253207 0.001876995474 -4.814275861e-08)
(0.01099245807 0.00220102666 -5.39843194e-06)
(0.01146582815 0.002497356877 3.905398147e-05)
(0.01188247773 0.002722078439 1.837481399e-05)
(0.01237322309 0.003068518498 4.981085002e-05)
(0.01276909359 0.0034228972 1.396543922e-05)
(0.01320227769 0.003753409307 -6.036947285e-05)
(0.01344687876 0.003945785996 -1.430849327e-05)
(0.01380662542 0.004230014968 -1.57793644e-05)
(0.01414791991 0.004460310617 -6.173132058e-06)
(0.01433660902 0.004596411172 3.761907184e-05)
(0.01451126954 0.004704539786 5.325426584e-05)
(0.01449506846 0.004750931869 4.622110816e-05)
(0.01459018578 0.004799529591 3.622730973e-05)
(0.01472590028 0.004895296227 3.026391398e-05)
(0.0146044914 0.004832290829 3.443410331e-05)
(0.01441290345 0.004757496469 5.682465469e-05)
(0.0143411474 0.004804183069 8.238462702e-05)
(0.01413374198 0.004700808964 4.433592803e-05)
(0.01396645041 0.004588101879 4.045227914e-05)
(0.01387201034 0.004450822666 4.49005186e-05)
(0.01371021082 0.004307149776 2.069183785e-05)
(0.0135003373 0.004202823167 2.266106257e-05)
(0.01317612692 0.003995627916 1.020370567e-05)
(0.0130053793 0.003902491291 4.334699341e-05)
(0.01287127048 0.00365007346 2.036860811e-05)
(0.009020517314 0.0006283014667 -2.56473474e-05)
(0.009190105984 0.000802096551 -2.029135089e-05)
(0.009485113894 0.001013555529 -2.228747988e-05)
(0.009676255645 0.001193978873 -1.474265651e-07)
(0.01002789099 0.001425655031 -2.070244602e-05)
(0.01042886309 0.001710300662 -1.758144958e-05)
(0.01080346502 0.001976018542 -2.718364735e-05)
(0.01118422818 0.002285234249 -2.8971012e-05)
(0.01156473899 0.002632131668 -2.859203492e-05)
(0.01191318537 0.002887503591 -1.820149789e-06)
(0.01238736556 0.003182153929 1.103680176e-05)
(0.01296899715 0.003553706924 -3.097542275e-05)
(0.01347504684 0.003827554525 -3.080630253e-05)
(0.01381573986 0.004134558196 -2.073800497e-05)
(0.01412438082 0.004373027075 3.546412093e-05)
(0.01436715605 0.004554794833 2.751774927e-05)
(0.01445878782 0.0046190742 4.884382798e-07)
(0.01465242277 0.004771832905 3.69996837e-05)
(0.01475343761 0.004840236328 1.509164378e-05)
(0.0148757069 0.004914355238 3.657737091e-05)
(0.01485067971 0.004879119732 1.272640801e-05)
(0.01488633664 0.004976442479 2.884023226e-06)
(0.01476664657 0.004877126734 1.389564331e-05)
(0.01470293707 0.004798834407 4.912692965e-05)
(0.01457778738 0.004711586991 2.636790469e-05)
(0.01434817651 0.004615178245 -2.037260654e-05)
(0.01410639319 0.004520253018 4.655594512e-05)
(0.01389898623 0.004314494421 6.231937236e-05)
(0.01377662256 0.004113424019 5.286227152e-05)
(0.01353796411 0.003920484574 0.0001078844936)
(0.008716686189 0.0004845146958 -9.455317657e-06)
(0.008903884745 0.0005782799256 -1.790894753e-05)
(0.009069467334 0.0007113201332 9.683724938e-06)
(0.009412149284 0.0008787646141 -1.622476496e-05)
(0.009660780938 0.001095457535 -3.233286628e-05)
(0.009885689119 0.001300722654 -2.73752324e-05)
(0.01017140035 0.001526510706 -1.823621302e-05)
(0.01052294793 0.001857526892 -2.064612429e-05)
(0.01093937485 0.002098414429 -1.294735345e-05)
(0.01142298191 0.002443974714 -7.337812607e-06)
(0.01194363073 0.002693758022 -1.562329973e-05)
(0.01229714485 0.002978407905 1.916486835e-05)
(0.01269153169 0.003331385131 -9.021590233e-06)
(0.01318107359 0.003677991471 -5.636493147e-05)
(0.01356556148 0.004000558711 -5.616263183e-05)
(0.01400811561 0.004229009555 -4.949523643e-06)
(0.01442664555 0.004461459917 -1.444410104e-05)
(0.01471723435 0.004612504205 -3.56547376e-05)
(0.01490050401 0.0047644897 1.509359111e-05)
(0.01506231661 0.004888295416 3.875470743e-05)
(0.01508980127 0.004888709387 2.215729862e-05)
(0.01503483629 0.004908908641 2.457269957e-05)
(0.0152488696 0.005029046621 2.664862668e-05)
(0.01516543361 0.004989966154 2.205460266e-05)
(0.01498569339 0.004907273881 6.084666981e-05)
(0.01484265064 0.004804433527 4.22381539e-05)
(0.01487804064 0.00475180712 -3.12651398e-05)
(0.01460952871 0.004594078409 1.849669895e-05)
(0.01433133657 0.004375535628 7.000836165e-06)
(0.01407945217 0.004139819823 1.008654844e-05)
(0.008787257695 0.0003523469665 -7.03830184e-06)
(0.008908075325 0.0004366731927 -1.194111408e-05)
(0.009031842299 0.0005137355501 -2.353822854e-05)
(0.009052998549 0.0006490660572 -1.661212847e-05)
(0.009238854216 0.0008447568522 -1.136912723e-05)
(0.00948380899 0.001028243954 -1.706198768e-05)
(0.009751703478 0.001195143294 -2.309648808e-05)
(0.01002891665 0.001439734454 -3.874903505e-05)
(0.01038647337 0.001651351412 -3.178244593e-05)
(0.01078327988 0.001892352471 -3.065397897e-05)
(0.01116958304 0.002250122989 2.419002685e-06)
(0.01151087635 0.002512900484 1.692620758e-05)
(0.01207369998 0.002821028072 -2.307186556e-06)
(0.01268201344 0.003171074131 1.28575448e-05)
(0.01323185765 0.003460042194 -1.883960217e-05)
(0.01376365951 0.003838304662 -4.324634432e-05)
(0.01415923822 0.00411097358 -2.469226015e-05)
(0.01444510223 0.004354460846 -9.36737399e-06)
(0.01472411773 0.004537750037 -2.330936402e-05)
(0.01497771371 0.004696528438 -5.8094834e-06)
(0.01525308875 0.004838739537 -8.500704433e-06)
(0.01549024552 0.004939916299 1.047659899e-05)
(0.01549515205 0.005016981167 -1.853118339e-07)
(0.01550016238 0.005080668912 3.683086972e-05)
(0.01550267159 0.005050589438 -1.383322733e-06)
(0.01540835624 0.004943001607 1.023141246e-05)
(0.01530807382 0.00491362417 -9.237750165e-06)
(0.01517508187 0.004831422352 2.987892621e-05)
(0.01495122434 0.004678162559 5.601500767e-06)
(0.01468167726 0.004484911728 -2.407551161e-05)
(0.008513972373 0.0002753723597 1.530484309e-05)
(0.008483023879 0.0003308921658 1.278942355e-05)
(0.008647750594 0.0004251932636 1.113113143e-05)
(0.008682685227 0.0005103476476 3.228845923e-06)
(0.008870840393 0.0005847761681 -1.88766479e-06)
(0.009043766397 0.0007320964851 2.696416573e-05)
(0.009329968857 0.0009051255558 2.71396577e-05)
(0.009668835153 0.001072162887 2.543244446e-05)
(0.009963346625 0.001281944242 -7.315798292e-07)
(0.01024965783 0.001500740816 1.368246524e-05)
(0.01066290993 0.00177019498 2.795377722e-05)
(0.01118813823 0.002064121348 -1.501252969e-05)
(0.01153640922 0.002303945343 -1.195007405e-05)
(0.01198911359 0.002592731664 1.94601733e-05)
(0.01245019209 0.00299466999 2.791108111e-06)
(0.01284392565 0.003282143399 9.421442316e-06)
(0.01331349043 0.003621198644 3.224105885e-05)
(0.01379283743 0.003938437858 1.250029534e-05)
(0.0141776031 0.004142895677 -3.381022605e-06)
(0.01469079241 0.004412591744 -4.000690746e-05)
(0.01496785741 0.004627237886 -2.045598054e-05)
(0.01508281373 0.004803783069 4.199991795e-06)
(0.01528561696 0.004906699503 8.472985789e-07)
(0.01547409067 0.005000637568 -9.449735506e-06)
(0.0156895794 0.005060281778 4.053661082e-05)
(0.0156443459 0.005071441083 7.121712113e-05)
(0.01553565431 0.005015602346 2.661074204e-05)
(0.01544731028 0.004955315555 -1.611793658e-06)
(0.01527191534 0.004876783233 1.470540506e-05)
(0.008488488649 0.0002263337419 1.104859688e-05)
(0.008573792156 0.0002674412503 -2.444922646e-06)
(0.008635552912 0.0003135222854 8.034321519e-06)
(0.008836692691 0.0003783888733 1.521054772e-05)
(0.008873812734 0.0004648668875 2.514440716e-05)
(0.009030814488 0.0005497292854 8.259283993e-06)
(0.009212366189 0.0006741345033 6.194220446e-06)
(0.00943394498 0.00080795289 -8.048702735e-06)
(0.009593654096 0.001004290489 1.004455129e-06)
(0.009899711183 0.001169081237 4.374478492e-06)
(0.01017247864 0.001390628868 -8.346195756e-06)
(0.01041155826 0.001596512079 -1.391741986e-05)
(0.01072740523 0.001899974271 -3.200734367e-05)
(0.01113652294 0.002117839583 -1.159990749e-05)
(0.01152472913 0.002413677501 -5.088979095e-06)
(0.012097315 0.002763538206 -4.528765405e-05)
(0.0127120349 0.003075686386 -4.915987464e-05)
(0.01327221065 0.003458137924 7.587334852e-06)
(0.01390646407 0.003818331116 -2.632848792e-06)
(0.01407407012 0.004000312899 -8.795608035e-06)
(0.01451857438 0.00428742405 -4.29920885e-05)
(0.01510304224 0.004542651886 -1.398047783e-05)
(0.01529937937 0.004701700455 4.15315335e-06)
(0.01549971678 0.004916597733 1.042174712e-06)
(0.01555103289 0.004931075657 -2.31079094e-05)
(0.008533272352 0.0001694345758 -1.208750879e-05)
(0.008584594829 0.0001897954586 -9.254884833e-06)
(0.008645840925 0.0002373659867 -3.886653013e-06)
(0.0086493071 0.0003017763727 -3.133438049e-06)
(0.008746092601 0.0003556663696 -1.88820619e-06)
(0.008823549444 0.0004115658318 -3.966675598e-07)
(0.00889335056 0.0004845655856 5.802631894e-06)
(0.008961431614 0.0006095835373 3.426750432e-06)
(0.00920222852 0.0007216000308 1.123647102e-05)
(0.009394661678 0.0009250611271 -5.094009817e-06)
(0.00956209053 0.001088336552 -1.050734647e-06)
(0.00993576502 0.001243632241 3.826731307e-06)
(0.01036641843 0.001481808687 -1.837398717e-06)
(0.01080720776 0.001735285521 -2.682646331e-05)
(0.01117258601 0.00199354722 -4.316401147e-05)
(0.01155865529 0.002266267765 -1.150156628e-05)
(0.01198633457 0.002531256275 -4.407559923e-05)
(0.01251281626 0.002915061554 -5.030716701e-05)
(0.01295655346 0.003242781915 1.650588587e-05)
(0.008404866703 0.0001172621327 2.256658142e-06)
(0.008402206497 0.0001354294941 9.172903483e-06)
(0.008462710997 0.0001620923527 1.835954169e-06)
(0.008508826014 0.0002176440913 1.603928778e-06)
(0.008565190129 0.0002819455978 4.151143046e-06)
(0.008609681995 0.0003150718435 3.432527003e-06)
(0.008717539636 0.0003885578464 1.28719357e-05)
(0.00880277621 0.0004630075229 -1.961668832e-06)
(0.00896847922 0.0005662225256 -6.039511158e-06)
(0.009090158754 0.0006405814728 -8.394670418e-06)
(0.009438279339 0.0008189211374 1.506613904e-05)
(0.009634282439 0.0009843789721 6.450344065e-06)
(0.009850238095 0.001116216856 2.68080628e-05)
(0.01013269379 0.001322278647 2.777278907e-05)
(0.008352975092 9.40169969e-05 -2.503253516e-05)
(0.008391189348 0.0001131831907 -2.023111558e-05)
(0.00842069227 0.000149374602 -9.741970653e-06)
(0.008463082064 0.0001550799622 -1.827058476e-05)
(0.008538755105 0.0002227257689 -1.711493746e-06)
(0.008547528877 0.0002771307103 1.0151034e-05)
(0.008635536998 0.0002977626245 1.380729112e-07)
(0.008778756773 0.0003425619264 3.539785642e-06)
(0.008294505178 6.778868068e-05 3.327395123e-05)
)
;

boundaryField
{
    flow
    {
        type            calculated;
        value           nonuniform List<vector> 
15
(
(0.003597770578 0.0006805680183 -2.760750042e-05)
(0.005018065937 0.0007286481248 -2.98953445e-05)
(0.005998787924 0.0008577021304 -3.734537023e-06)
(0.006925747269 0.001149556847 5.932069407e-05)
(0.00752115219 0.001402099736 -2.179971609e-05)
(0.008354045987 0.001683375884 -4.963850353e-05)
(0.009167494433 0.002037631148 1.930153256e-05)
(0.00996633588 0.00236497346 -7.812167254e-06)
(0.01070788982 0.002681178223 -8.135100473e-06)
(0.01125727348 0.002955414467 1.128418747e-05)
(0.01204136601 0.003301559424 -8.297910025e-06)
(0.01287127048 0.00365007346 2.036860811e-05)
(0.01353796411 0.003920484574 0.0001078844936)
(0.01407945217 0.004139819823 1.008654844e-05)
(0.01468167726 0.004484911728 -2.407551161e-05)
)
;
    }
    obstacle
    {
        type            calculated;
        value           nonuniform List<vector> 
30
(
(1.297763259e-21 3.477346178e-22 -1.57130339e-23)
(1.173823577e-21 3.145250801e-22 1.683629076e-23)
(1.242152672e-21 3.328338044e-22 4.464845566e-23)
(1.180667921e-21 3.163590166e-22 -4.230851725e-23)
(1.018039672e-21 2.72782907e-22 1.83559671e-23)
(1.091187242e-21 2.923827408e-22 -1.28854125e-23)
(1.078496473e-21 2.889822595e-22 2.166377878e-23)
(9.199174214e-22 2.464911294e-22 1.430947519e-23)
(1.189165376e-21 3.186359026e-22 2.394745611e-23)
(9.627811501e-22 2.579764321e-22 -1.500592644e-22)
(1.045976176e-21 2.802684707e-22 -1.661232149e-23)
(8.383903566e-22 2.246460194e-22 6.860827626e-23)
(9.079726529e-22 2.432905395e-22 3.640553172e-23)
(9.190440676e-22 2.46257115e-22 -2.856828528e-23)
(7.311295215e-22 1.959055652e-22 1.360967355e-22)
(8.377034788e-22 2.244619699e-22 -6.099017949e-23)
(7.582058548e-22 2.031606468e-22 3.443265333e-23)
(8.399444227e-22 2.250624302e-22 2.74262132e-23)
(8.134672759e-22 2.17967899e-22 -4.579478703e-23)
(9.902195114e-22 2.653285189e-22 1.592829634e-22)
(8.062602609e-22 2.160367862e-22 2.050479731e-24)
(7.611082237e-22 2.039383333e-22 -9.764519491e-24)
(8.475307189e-22 2.270951721e-22 -3.61842302e-23)
(8.744355893e-22 2.343043104e-22 -2.416809946e-23)
(8.023737805e-22 2.149954059e-22 7.848435463e-23)
(7.697212705e-22 2.062461932e-22 -4.066522355e-24)
(7.739917825e-22 2.073904724e-22 4.76129294e-23)
(9.240161251e-22 2.47589375e-22 -6.743360658e-23)
(8.889624233e-22 2.381967639e-22 -4.251463967e-24)
(9.238172054e-22 2.475360734e-22 3.704019493e-23)
)
;
    }
    frontAndBack
    {
        type            empty;
    }
    procBoundary1to0
    {
        type            processor;
        value           nonuniform List<vector> 
21
(
(0.005789882463 0.00167851161 -3.705945909e-06)
(0.008741028494 0.002617247819 -1.39608811e-06)
(0.01052791326 0.0034278455 -3.823319751e-05)
(0.01151437701 0.003705688592 -3.034467272e-05)
(0.01171752477 0.003579759961 3.337441945e-05)
(0.01148829415 0.003193127853 -1.626367942e-05)
(0.01123975157 0.002761939231 -3.1515946e-06)