/*--------------------------------*- C++ -*----------------------------------*\
| =========                 |                                                 |
| \\      /  F ield         | OpenFOAM: The Open Source CFD Toolbox           |
|  \\    /   O peration     | Version:  2406                                  |
|   \\  /    A nd           | Website:  www.openfoam.com                      |
|    \\/     M anipulation  |                                                 |
\*---------------------------------------------------------------------------*/
FoamFile
{
    version     2.0;
    format      ascii;
    arch        "LSB;label=32;scalar=64";
    class       volScalarField;
    location    "0.006";
    object      overallT;
}
// * * * * * * * * * * * * * * * * * * * * * * * * * * * * * * * * * * * * * //

dimensions      [1 2 -2 0 0 0 0];

internalField   nonuniform List<scalar> 
546
(
844.3947415
829.5343176
817.8170589
806.3675932
799.0077358
798.8168891
800.329095
782.899256
772.2763324
767.285627
764.6520342
764.0310833
763.8405437
767.3635532
758.3694458
748.120103
746.7251606
734.9807735
733.6717319
737.0899916
736.2733042
723.0760618
723.1309494
733.2292318
726.492084
724.4511908
722.673456
718.8954558
715.702788
704.8447315
916.8167429
911.1621202
906.4308118
896.6223586
894.9821997
889.0433671
879.7245169
870.8789685
867.1115588
862.1682725
850.5375093
850.3461663
850.0326811
848.5816969
843.8548695
830.2805988
822.4251286
821.1729659
814.9367221
812.9248352
815.8919522
811.171045
805.2315466
798.6979177
793.3916563
785.4192737
780.5092101
777.3614524
761.1090024
727.2570072
921.5810387
923.6595678
924.320143
929.9774175
927.5097715
914.8551349
911.6982211
915.5315713
902.5391039
904.7252996
897.3327966
891.5247302
888.4022936
885.9078759
881.4738726
878.0601549
869.7186809
860.9036337
857.7810516
862.9250035
854.7338626
852.2738478
839.8628687
839.4010909
841.0735785
824.5296264
814.7651767
802.1702479
786.0382056
754.5037395
903.8509143
907.2319644
918.6284815
909.9484952
914.720467
919.0540707
909.9911126
909.2234255
910.6146998
914.9896848
911.5034161
912.5101572
905.8827161
899.5402972
890.0187908
889.5598238
883.59331
876.6802946
880.6640304
876.9855669
873.2968643
874.6712056
865.5273124
859.0558492
859.9192409
844.3857937
838.9135944
813.1595964
786.2047603
757.3289775
875.0836241
880.1071137
889.3206239
888.7797551
889.7541456
891.7459835
887.3583682
893.2318067
900.4350321
894.0548729
901.2691739
896.4083387
898.425032
899.7962836
890.7028155
883.0039376
885.3799894
888.4390214
894.2934494
888.7389648
875.0568917
874.7759781
872.8929127
876.068397
871.442452
858.0089957
846.7984452
823.6116385
804.2494367
766.4011863
842.6457075
847.9872215
857.7645083
864.5056773
859.048752
862.9441179
867.0319674
875.3536664
877.5554506
877.7829776
879.7321158
881.3482924
883.385156
889.4677681
886.5593972
887.7678333
884.3479148
885.3832777
882.306684
880.5981772
870.7847816
870.2900397
872.5910457
873.5281197
867.1174748
857.2614129
843.4120307
825.1256785
807.8759497
772.2525883
807.9356822
819.877185
828.9328094
827.6297562
832.2701322
842.8454474
844.7168459
848.527073
849.236074
854.334663
858.5724774
864.972166
862.8646233
868.1081743
872.3293719
872.5125566
876.643071
879.4012531
875.920629
873.0353654
873.5365624
862.9337912
865.2749977
859.9411608
856.2923808
842.8734308
832.6227601
828.3375985
811.0950061
781.6295208
761.8204357
778.477333
785.1884769
798.8207109
802.1771353
813.9942242
822.5770993
818.9733502
822.2392088
828.2485358
830.6615231
832.7469965
837.5032138
848.0870579
852.02025
851.9530567
859.3568542
858.5628379
863.6990038
862.8594119
860.837056
856.7344189
852.9786374
846.0737262
850.3781356
843.8366219
831.1217435
817.6073073
806.0331989
784.7278721
710.0528497
739.7340521
748.7173021
760.4586395
772.7226859
781.4947823
790.1097923
794.1570298
801.5547476
801.1324281
804.1510096
814.7966738
812.2670242
818.6149367
829.1890058
832.005038
837.4063524
836.1451417
833.488715
844.7907751
840.3284278
842.449403
841.6016704
832.3322431
832.8606381
837.3580081
830.5368895
823.2782954
807.1916933
788.3586291
655.5819291
681.6311893
708.6242853
727.0690358
740.8225984
746.7040002
754.3749319
770.4201072
777.9467398
782.5710294
781.9351701
793.9317924
792.4812733
803.3364162
801.9312606
808.1898357
814.6384531
818.1008175
817.6307221
817.5863103
821.5048213
825.6619982
828.2277643
827.8049942
827.9410998
822.8912004
815.2019681
810.3597127
795.9856354
783.401257
591.8605999
626.2822828
653.9314323
680.1459766
694.2067999
708.3292368
720.8297746
734.2452381
742.7118953
758.4257728
760.4412892
764.7840052
774.7759097
781.6623904
783.7666005
785.8513019
790.0845171
802.0237947
800.2023658
799.8718593
813.2273107
814.3615565
819.9089944
821.5267473
810.538638
815.2620925
808.8875288
794.9753082
791.9657296
779.3736462
544.9412341
578.7931012
595.8395619
624.6245498
642.106981
665.026737
688.132866
699.7658345
712.6732186
721.4832332
730.1058898
740.0666452
751.1856168
761.9445537
770.5246599
766.5606195
769.3103112
780.843049
785.0943328
785.8450992
791.656307
799.0916769
798.0486422
794.5693118
797.667592
795.8766804
796.1620618
788.8195946
782.3225578
770.6268838
489.6256792
518.3733064
552.4448679
576.8018626
600.5533376
627.7046709
645.570669
668.2290621
683.5160878
698.642954
705.4687693
720.613617
727.6023556
736.2852846
746.1151397
754.2927097
754.1988871
761.4828192
764.9948126
770.1586329
772.7287048
782.3689628
782.2132024
795.2516141
783.7666204
778.8016352
779.1099752
775.2080367
777.6346893
768.3374016
450.3453056
473.7302361
500.1949726
526.6153249
560.3329252
590.5844248
603.8022524
623.3426574
636.9955853
657.5975189
671.8169236
686.6474523
697.5527701
712.8734162
721.4510697
730.0010688
742.4429302
741.3057983
745.8434189
748.5620964
748.6434878
754.9911133
763.6932679
763.420829
769.9158748
767.5402613
775.6982565
773.9611831
765.9648261
756.0616247
415.3123396
430.4916429
454.513938
474.8548819
507.6964196
532.3160607
552.5645496
577.9939768
601.9226106
620.4916594
642.5631015
655.0202744
668.5142794
677.3364413
687.4122693
701.9416394
712.619637
715.4805505
721.299242
726.9588509
731.7990185
737.5451974
742.5936013
745.8631308
751.6398333
749.496462
751.8365177
757.2725534
751.5411927
740.4114631
395.9401456
409.8963284
427.2352627
445.4162579
465.4549709
487.9949976
515.6850462
544.2225066
560.8887507
574.7194675
593.6603803
615.1333916
627.9024816
640.4219519
664.8595167
673.2113455
690.729044
696.0390266
704.8103475
707.0784645
712.1355914
717.827507
724.0717072
728.3823786
736.0961737
734.8034653
733.6893276
740.9111294
736.3250456
372.143293
377.91369
392.864206
413.1123657
432.6216683
447.2896208
471.7535243
490.3346085
517.7578677
535.9270173
558.8150394
580.4114484
599.7015214
617.771864
636.8803758
651.8373672
666.0378214
679.5766366
688.6986949
689.2612147
688.7565909
700.9163091
706.7813085
714.2919363
712.2279068
357.4921234
362.4658095
379.2525103
394.7635613
405.3278589
416.0876663
432.3051641
455.5502415
473.8532539
501.4456937
524.767446
538.2642382
560.0859121
583.1829694
599.028646
617.0876629
634.4289421
652.363114
659.7574372
342.0909711
350.9919445
353.3686767
369.4782829
390.2536976
400.6304213
407.9230925
423.379604
447.6312248
460.785849
486.3043448
508.241029
521.8254382
544.284475
335.3848878
337.5790953
340.8090016
348.0066805
366.09814
380.96206
384.9911306
395.0236008
322.0934898
)
;

boundaryField
{
    flow
    {
        type            calculated;
        value           nonuniform List<scalar> 
15
(
704.8447315
727.2570072
754.5037395
757.3289775
766.4011863
772.2525883
781.6295208
784.7278721
788.3586291
783.401257
779.3736462
770.6268838
768.3374016
756.0616247
740.4114631
)
;
    }
    obstacle
    {
        type            calculated;
        value           nonuniform List<scalar> 
30
(
735.2016145
735.9481385
714.7507016
716.1159933
703.2925805
706.9301531
701.267622
714.237471
678.0795247
679.1588292
700.3761451
687.9761742
682.5850418
681.5777776
687.3510747
678.3448454
682.2028736
672.4240152
654.9639347
641.63492
681.8543222
651.5976324
648.8009297
688.5428447
666.7528392
673.8812883
682.4243381
658.6383997
661.0347009
675.2700634
)
;
    }
    frontAndBack
    {
        type            empty;
    }
    procBoundary1to0
    {
        type            processor;
        value           nonuniform List<scalar> 
21
(
850.6952676
933.8872841
924.6129824
910.6072794
876.0810046
844.088028
793.523111
739.2940156
686.7602905
623.5148642
563.2569094
508.659387
466.9540789
431.4962774
403.554831
378.5480503
358.6214073
342.248228
333.4394868
325.9879657
317.3356319
)
;
    }
    procBoundary1to3
    {
        type            processor;
        value           nonuniform List<scalar> 
36
(
733.5442229
716.9247703
723.8077688
726.9288001
733.5442229
724.9169294
670.5356945
683.3676285
689.8619792
688.4635458
699.2078301
716.9247703
704.9260393
565.8891201
587.6134077
600.3344967
619.4652171
670.5356945
633.7953406
413.1032544
429.0011623
442.5721166
470.4697154
486.6774765
565.8891201
506.9536582
324.1650836
329.2471385
334.3016215
347.7234611
360.0142155
364.8333154
413.1032544
376.3732798
324.1650836
315.3618888
)
;
    }
}


// ************************************************************************* //
