/*--------------------------------*- C++ -*----------------------------------*\
| =========                 |                                                 |
| \\      /  F ield         | OpenFOAM: The Open Source CFD Toolbox           |
|  \\    /   O peration     | Version:  2406                                  |
|   \\  /    A nd           | Website:  www.openfoam.com                      |
|    \\/     M anipulation  |                                                 |
\*---------------------------------------------------------------------------*/
FoamFile
{
    version     2.0;
    format      ascii;
    arch        "LSB;label=32;scalar=64";
    class       volScalarField;
    location    "0.006";
    object      p;
}
// * * * * * * * * * * * * * * * * * * * * * * * * * * * * * * * * * * * * * //

dimensions      [1 -1 -2 0 0 0 0];

internalField   nonuniform List<scalar> 
546
(
3.934884988
3.853025392
3.766969555
3.701500956
3.607071062
3.569529098
3.564957093
3.491526364
3.48581894
3.436688353
3.377277669
3.393335382
3.264946378
3.34438055
3.274496791
3.176032855
3.108840604
3.08114988
3.081694508
3.069136152
3.046145683
2.999979832
3.018823773
2.995841309
2.844799472
2.768947033
2.683553116
2.533258188
2.342265158
1.879384058
3.86682484
3.820975924
3.767036623
3.756544603
3.677198737
3.639081682
3.56730403
3.548681982
3.496239062
3.445984238
3.37651947
3.391470914
3.383229137
3.382420665
3.369332528
3.272891806
3.207347485
3.215731144
3.132602858
3.107252379
3.093799328
3.086959454
3.041078528
2.934295917
2.845767378
2.805648818
2.676566233
2.501295128
2.215427661
1.713650445
3.636749601
3.690504741
3.664675578
3.656420261
3.563284936
3.489510446
3.507193436
3.488375033
3.472394523
3.434327508
3.411569353
3.427820092
3.388252507
3.353155711
3.335334652
3.197967677
3.21134681
3.187839841
3.144855235
3.136431793
3.030304135
3.039486424
3.050762881
2.928349584
2.831773168
2.732201516
2.652622541
2.456739783
2.175611592
1.786385582
3.408404307
3.43400566
3.530107461
3.460817284
3.475247053
3.461806576
3.393163937
3.416320708
3.434460531
3.407737489
3.356127897
3.33595078
3.327921463
3.291184654
3.225603238
3.150952954
3.121227984
3.135077402
3.123066068
3.114390251
3.04585856
3.01807798
2.962899711
2.90508697
2.834123319
2.719657744
2.604101629
2.415017472
2.204459096
1.896508236
3.100477619
3.144495513
3.262054717
3.314592809
3.349234778
3.330119566
3.264740075
3.278388335
3.359407444
3.276059795
3.276145362
3.296257393
3.275910334
3.264672421
3.185116456
3.168913496
3.092647061
3.144272048
3.151393009
3.10007778
2.984799282
2.949572964
2.901735238
2.901041317
2.812270133
2.730025307
2.655874931
2.413633895
2.21788575
1.898793837
2.80426201
2.901475295
3.002199674
3.059369817
3.084547761
3.094120219
3.11933761
3.186409851
3.203108348
3.208658518
3.221053219
3.199873671
3.173319346
3.188718738
3.155191895
3.182324865
3.079744521
3.143287289
3.095736539
3.050842925
2.999895706
2.899614879
2.859625514
2.887967421
2.844518628
2.721092105
2.562371514
2.43345105
2.289823244
1.954365889
2.491575637
2.662399554
2.747772053
2.798551299
2.862997288
2.999273415
3.001287513
3.048487055
3.035097244
3.096504122
3.122220447
3.143764482
3.133538878
3.145048887
3.112731796
3.081547205
3.102977056
3.09314973
3.078101342
3.023215813
2.99111575
2.927170512
2.877821556
2.840192428
2.821599643
2.683525111
2.595576287
2.487017457
2.291446747
2.058506246
2.141835306
2.304152347
2.433586776
2.600335321
2.63867453
2.746251678
2.852034653
2.899659069
2.911178236
2.939146439
2.992054832
3.034709321
3.008635101
3.042776062
3.06654713
3.064673057
3.083398962
3.019554159
3.035099722
3.004555733
2.995217523
2.922674485
2.893830149
2.776075387
2.775210779
2.71905491
2.602115041
2.443380625
2.328016806
2.138474582
1.827251694
2.02017709
2.14048657
2.261562464
2.407536189
2.497361589
2.609666905
2.674482176
2.779748899
2.782819844
2.806604616
2.90704559
2.925636371
2.963779496
3.004216117
3.016459738
3.007790333
2.980009446
2.948419124
2.941878316
2.896442022
2.879365555
2.832455717
2.767370722
2.760065629
2.748296521
2.617956882
2.492712739
2.369521452
2.210755781
1.526818824
1.663281798
1.824210501
1.989488981
2.12352851
2.217955633
2.346255612
2.458138222
2.559263686
2.6614354
2.69111783
2.804485896
2.79549186
2.891467854
2.887392037
2.885606708
2.905642767
2.905306109
2.857034809
2.849217596
2.887565128
2.874280203
2.84297698
2.743758277
2.750082379
2.704345681
2.625871593
2.537214371
2.388429742
2.252223634
1.287746775
1.438299072
1.574949503
1.727170825
1.854835718
1.975673128
2.098196894
2.23457023
2.354171069
2.484822073
2.544034302
2.587540872
2.687275736
2.745082371
2.761111351
2.769040762
2.795430473
2.871585468
2.837184893
2.809894569
2.866318827
2.853613152
2.852070615
2.802633934
2.662308208
2.686125802
2.648522549
2.561642893
2.460317258
2.311930133
1.099711678
1.234804818
1.3179494
1.455724292
1.576229591
1.716204845
1.877578334
1.987098173
2.121442332
2.222308269
2.306706576
2.38948933
2.503815942
2.606841984
2.665766362
2.681459409
2.697371267
2.755157886
2.812544081
2.793935851
2.791653774
2.831247177
2.779587913
2.755607499
2.725414142
2.678853134
2.650639286
2.533018927
2.490721718
2.387059114
0.9202333546
1.009614277
1.135912339
1.226724288
1.342643964
1.48871034
1.611408971
1.73305345
1.842122678
1.949948987
2.057301488
2.205413796
2.315833624
2.417974536
2.505352889
2.57770129
2.594017994
2.667944788
2.689417806
2.729528563
2.738706078
2.806983246
2.767421265
2.827345478
2.751779725
2.682112079
2.64492137
2.583325066
2.542029064
2.429745701
0.7878547148
0.8653172965
0.9490851666
1.043711183
1.172072226
1.283839304
1.362718663
1.48263216
1.592142224
1.740148215
1.864043012
1.964527857
2.070917612
2.210944715
2.311654903
2.411599195
2.525829933
2.565320675
2.605711201
2.644914981
2.633600185
2.6600766
2.739235627
2.743952684
2.710702098
2.658231349
2.708837678
2.66039828
2.546566927
2.435108795
0.7088622394
0.7568765556
0.8259645654
0.8793587988
0.9837547736
1.077719908
1.165187618
1.277753925
1.395586071
1.507606109
1.629236541
1.719839416
1.86586728
1.994049664
2.107246421
2.249886045
2.344684372
2.398501252
2.451945882
2.518045977
2.581991935
2.641744861
2.663196422
2.673156181
2.716069032
2.65918285
2.644041274
2.651260892
2.587857672
2.469803152
0.6368519192
0.6655337762
0.7191796035
0.763623337
0.8303204249
0.9057795943
1.009171184
1.121460412
1.207122115
1.2819232
1.396118772
1.544931668
1.618736512
1.72668842
1.896548482
1.99167076
2.118967216
2.212687805
2.311816291
2.397424315
2.437459142
2.474929685
2.541604927
2.599759992
2.637136436
2.601978934
2.584353871
2.590123061
2.542135105
0.5833912506
0.6035567333
0.6400881017
0.7055283408
0.7501233773
0.7989750407
0.8754704073
0.9573162508
1.051132736
1.135771754
1.238430139
1.334696993
1.421682004
1.517873203
1.645763536
1.777388757
1.929960845
2.06850908
2.199517551
2.204265861
2.275848269
2.425126161
2.455925233
2.537537859
2.514340075
0.5509668522
0.5660542222
0.6103756171
0.641548892
0.6757766949
0.7109264919
0.7512945043
0.8131159453
0.8848654685
0.979383372
1.052174103
1.133448426
1.25642497
1.376538229
1.47887189
1.597292317
1.703634383
1.839396936
1.926393019
0.5126492151
0.5310483532
0.5344966414
0.5759541781
0.6266991366
0.6545186244
0.6806328062
0.7261265021
0.7923930286
0.8344280092
0.9379545807
1.013053655
1.074604225
1.168486271
0.4903194612
0.4934014504
0.5041283661
0.5224017594
0.5672315741
0.6021430048
0.614985279
0.6504429322
0.461852442
)
;

boundaryField
{
    flow
    {
        type            calculated;
        value           nonuniform List<scalar> 
15
(
1.879384058
1.713650445
1.786385582
1.896508236
1.898793837
1.954365889
2.058506246
2.138474582
2.210755781
2.252223634
2.311930133
2.387059114
2.429745701
2.435108795
2.469803152
)
;
    }
    obstacle
    {
        type            calculated;
        value           nonuniform List<scalar> 
30
(
3.250438864
3.257881186
3.208262496
3.16325492
3.077854268
3.084024241
3.085350836
3.131985234
3.083306763
3.027142012
2.98464251
3.027312317
2.9239552
3.002901181
2.986558825
2.879475457
2.878922062
2.757169538
2.796120356
2.832738546
2.773233945
2.722125156
2.768919361
2.752901947
2.623160664
2.529730341
2.457185254
2.378974471
2.175931396
1.971367977
)
;
    }
    frontAndBack
    {
        type            empty;
    }
    procBoundary1to0
    {
        type            processor;
        value           nonuniform List<scalar> 
21
(
4.024643633
3.972703685
3.692286128
3.424822296
3.056765765
2.689839947
2.364390485
1.974875087
1.670538751
1.373661916
1.162500055
0.9861500173
0.8546801805
0.7419324395
0.6656714146
0.6021335405
0.5479551036
0.5125892452
0.49034799
0.4669777626
0.4514897461
)
;
    }
    procBoundary1to3
    {
        type            processor;
        value           nonuniform List<scalar> 
36
(
2.506706852
2.554876506
2.601355574
2.565908286
2.506706852
2.533934707
2.064317804
2.174179543
2.262064433
2.308661421
2.417209286
2.554876506
2.485133043
1.280149001
1.40907308
1.494077414
1.617901946
2.064317804
1.736699814
0.7027623779
0.7539507597
0.7902062367
0.8862315158
0.9417999853
1.280149001
1.022336024
0.4705703574
0.4812983054
0.490917587
0.526487181
0.5622064813
0.576616587
0.7027623779
0.6088066405
0.4705703574
0.4530393824
)
;
    }
}


// ************************************************************************* //
