/*--------------------------------*- C++ -*----------------------------------*\
| =========                 |                                                 |
| \\      /  F ield         | OpenFOAM: The Open Source CFD Toolbox           |
|  \\    /   O peration     | Version:  2406                                  |
|   \\  /    A nd           | Website:  www.openfoam.com                      |
|    \\/     M anipulation  |                                                 |
\*---------------------------------------------------------------------------*/
FoamFile
{
    version     2.0;
    format      ascii;
    arch        "LSB;label=32;scalar=64";
    class       volScalarField;
    location    "0.006";
    object      rhoMMean;
}
// * * * * * * * * * * * * * * * * * * * * * * * * * * * * * * * * * * * * * //

dimensions      [1 -3 0 0 0 0 0];

internalField   nonuniform List<scalar> 
546
(
1.463471641e-05
1.462284624e-05
1.458550306e-05
1.465054775e-05
1.44754482e-05
1.435009768e-05
1.45060895e-05
1.448318463e-05
1.467204742e-05
1.458322158e-05
1.443402323e-05
1.454803917e-05
1.399315762e-05
1.439221859e-05
1.432280926e-05
1.408821395e-05
1.362595723e-05
1.384008256e-05
1.391507353e-05
1.380274233e-05
1.366519602e-05
1.371651626e-05
1.378555711e-05
1.340014833e-05
1.2841558e-05
1.257655647e-05
1.232361845e-05
1.183473409e-05
1.090614932e-05
8.876575414e-06
1.310515009e-05
1.317492319e-05
1.306431697e-05
1.321453915e-05
1.308505973e-05
1.317692901e-05
1.305219964e-05
1.314225902e-05
1.303770447e-05
1.299882778e-05
1.297076598e-05
1.308374279e-05
1.304406658e-05
1.312318434e-05
1.317263561e-05
1.297773253e-05
1.277575393e-05
1.284096454e-05
1.270392389e-05
1.261392545e-05
1.252285135e-05
1.249963856e-05
1.248748273e-05
1.209217004e-05
1.191436942e-05
1.181495322e-05
1.139874007e-05
1.07612913e-05
9.837002939e-06
8.208850973e-06
1.234462883e-05
1.254271599e-05
1.25882431e-05
1.247623733e-05
1.229777783e-05
1.22654183e-05
1.233540929e-05
1.229590502e-05
1.244763376e-05
1.228202939e-05
1.235335864e-05
1.250346507e-05
1.24045619e-05
1.243799488e-05
1.240821267e-05
1.201919395e-05
1.222305655e-05
1.214912527e-05
1.204833443e-05
1.196025242e-05
1.168980783e-05
1.176537394e-05
1.206729855e-05
1.153680122e-05
1.114872271e-05
1.099697479e-05
1.082448837e-05
1.034234915e-05
9.400394235e-06
8.29253117e-06
1.155370397e-05
1.176804325e-05
1.20882033e-05
1.206647192e-05
1.208907901e-05
1.201903822e-05
1.197099661e-05
1.205991512e-05
1.21982199e-05
1.211842479e-05
1.206087649e-05
1.201375367e-05
1.207852809e-05
1.205640311e-05
1.191309231e-05
1.171866005e-05
1.165628739e-05
1.176246568e-05
1.171128635e-05
1.175821378e-05
1.158753031e-05
1.14619511e-05
1.133683586e-05
1.121995982e-05
1.102417626e-05
1.075156554e-05
1.054330286e-05
1.000465799e-05
9.517866626e-06
8.695726744e-06
1.075104512e-05
1.100004221e-05
1.140987509e-05
1.16689082e-05
1.187143181e-05
1.186070336e-05
1.176211553e-05
1.183847746e-05
1.205923599e-05
1.188393985e-05
1.185989265e-05
1.198769953e-05
1.199966514e-05
1.194315972e-05
1.18717946e-05
1.180073513e-05
1.154628701e-05
1.16395775e-05
1.158757166e-05
1.153538738e-05
1.134337328e-05
1.121642583e-05
1.104762628e-05
1.104900502e-05
1.078607837e-05
1.065083375e-05
1.058505291e-05
9.965467528e-06
9.501326372e-06
8.700895871e-06
1.001964698e-05
1.036093207e-05
1.072105245e-05
1.099482613e-05
1.12543374e-05
1.142349735e-05
1.152059872e-05
1.16903878e-05
1.177435543e-05
1.187767555e-05
1.195359465e-05
1.181811161e-05
1.17280228e-05
1.176095111e-05
1.178222972e-05
1.186703149e-05
1.160260172e-05
1.173570937e-05
1.165411221e-05
1.147693274e-05
1.14013041e-05
1.111190708e-05
1.104380572e-05
1.116642661e-05
1.099750526e-05
1.066364824e-05
1.031557508e-05
1.007945119e-05
9.723331105e-06
8.869607247e-06
9.139891029e-06
9.688061714e-06
1.004968878e-05
1.039708748e-05
1.074494882e-05
1.117177903e-05
1.126803519e-05
1.142426027e-05
1.145623233e-05
1.165928348e-05
1.178956247e-05
1.189558877e-05
1.192577077e-05
1.195158406e-05
1.176504276e-05
1.169329506e-05
1.171699676e-05
1.169421914e-05
1.16646951e-05
1.152638988e-05
1.143057486e-05
1.13350834e-05
1.114628748e-05
1.110588498e-05
1.109682634e-05
1.081258393e-05
1.055936142e-05
1.025194235e-05
9.810135345e-06
9.222825215e-06
8.229154768e-06
8.749419462e-06
9.260384397e-06
9.78377476e-06
1.005820943e-05
1.042158367e-05
1.085219247e-05
1.11628669e-05
1.122279008e-05
1.133946856e-05
1.156681963e-05
1.178239909e-05
1.16922117e-05
1.177391484e-05
1.186528983e-05
1.182112625e-05
1.18790135e-05
1.173582336e-05
1.172038806e-05
1.163679862e-05
1.1615913e-05
1.136093617e-05
1.130298772e-05
1.10268358e-05
1.101210428e-05
1.09311721e-05
1.067749402e-05
1.031639316e-05
1.007702561e-05
9.621275971e-06
7.466192868e-06
7.984254138e-06
8.422347553e-06
8.846787916e-06
9.377833024e-06
9.729126046e-06
1.013691567e-05
1.046072868e-05
1.084059362e-05
1.098981254e-05
1.113680106e-05
1.141325706e-05
1.160872173e-05
1.17386805e-05
1.184443422e-05
1.191178499e-05
1.187170941e-05
1.181908393e-05
1.178890603e-05
1.171811491e-05
1.165063362e-05
1.156510512e-05
1.136027762e-05
1.122201715e-05
1.114162914e-05
1.107327931e-05
1.077560051e-05
1.043777512e-05
1.012829003e-05
9.817778571e-06
6.719621016e-06
7.063202761e-06
7.520843667e-06
7.997005826e-06
8.477809337e-06
8.919201506e-06
9.46231339e-06
9.809865154e-06
1.021310685e-05
1.058168548e-05
1.082931958e-05
1.11771534e-05
1.127085503e-05
1.152625309e-05
1.166231436e-05
1.170529398e-05
1.173816506e-05
1.178412752e-05
1.166706904e-05
1.168134669e-05
1.175685831e-05
1.17208848e-05
1.157589246e-05
1.126012505e-05
1.123344725e-05
1.109717498e-05
1.09292721e-05
1.072823452e-05
1.033355639e-05
9.980136065e-06
6.340558663e-06
6.676359769e-06
7.01575913e-06
7.418127352e-06
7.801348783e-06
8.196411344e-06
8.624838574e-06
9.140465236e-06
9.59393676e-06
1.007523441e-05
1.038608521e-05
1.062829708e-05
1.094104724e-05
1.115094281e-05
1.126873258e-05
1.133000892e-05
1.15161124e-05
1.17024859e-05
1.165515662e-05
1.161125651e-05
1.169471818e-05
1.167905395e-05
1.161652535e-05
1.152114942e-05
1.11293133e-05
1.111985424e-05
1.102108823e-05
1.097134991e-05
1.071615928e-05
1.029994549e-05
5.918723105e-06
6.202595878e-06
6.46085722e-06
6.806234374e-06
7.167018494e-06
7.548210108e-06
8.023276371e-06
8.419407794e-06
8.861891149e-06
9.281059274e-06
9.669195241e-06
9.997550722e-06
1.039558745e-05
1.075505467e-05
1.098260869e-05
1.121217772e-05
1.126988383e-05
1.148584581e-05
1.169729636e-05
1.168675653e-05
1.16488734e-05
1.175893273e-05
1.162714734e-05
1.158439471e-05
1.152349967e-05
1.139408337e-05
1.128888408e-05
1.098992256e-05
1.093977063e-05
1.073120014e-05
5.571648691e-06
5.739567717e-06
6.03158739e-06
6.245218424e-06
6.560892026e-06
6.93414318e-06
7.303678684e-06
7.650300934e-06
8.016616108e-06
8.361974366e-06
8.780816446e-06
9.36142113e-06
9.854286269e-06
1.024555003e-05
1.057657496e-05
1.082297978e-05
1.098822658e-05
1.125332198e-05
1.13992527e-05
1.157235359e-05
1.158373301e-05
1.178212438e-05
1.172089182e-05
1.179292226e-05
1.170419707e-05
1.156501666e-05
1.145665459e-05
1.129770757e-05
1.115261311e-05
1.090175222e-05
5.305598765e-06
5.471119604e-06
5.63245539e-06
5.907257623e-06
6.157255846e-06
6.393753829e-06
6.665252422e-06
7.014536856e-06
7.387348985e-06
7.849743263e-06
8.292403121e-06
8.611963341e-06
9.010685962e-06
9.513670074e-06
9.934681602e-06
1.031263115e-05
1.070559613e-05
1.100874467e-05
1.119506622e-05
1.139275807e-05
1.145110303e-05
1.150789656e-05
1.18133814e-05
1.187586747e-05
1.174515621e-05
1.164796647e-05
1.172777079e-05
1.156949717e-05
1.132098832e-05
1.107051706e-05
5.260337583e-06
5.375015659e-06
5.501792726e-06
5.567419639e-06
5.75567617e-06
5.996742453e-06
6.235923669e-06
6.497366225e-06
6.835041675e-06
7.191590894e-06
7.562213987e-06
7.876831463e-06
8.381841133e-06
8.902351736e-06
9.363300034e-06
9.884300381e-06
1.024890716e-05
1.051764195e-05
1.079823346e-05
1.110168127e-05
1.138042745e-05
1.161404356e-05
1.170661885e-05
1.176959344e-05
1.190004749e-05
1.181488831e-05
1.181458349e-05
1.178681226e-05
1.159108151e-05
1.13202282e-05
5.076454253e-06
5.08124742e-06
5.200152348e-06
5.266385025e-06
5.419324162e-06
5.589555312e-06
5.846955693e-06
6.134877728e-06
6.383832569e-06
6.636688881e-06
6.989709769e-06
7.432155802e-06
7.736303063e-06
8.112248577e-06
8.6110898e-06
9.003953366e-06
9.461287027e-06
9.886471511e-06
1.023360523e-05
1.068082734e-05
1.092406351e-05
1.110822142e-05
1.133663903e-05
1.160530318e-05
1.176902728e-05
1.176120241e-05
1.175922439e-05
1.172017483e-05
1.16311113e-05
5.002743406e-06
5.06402336e-06
5.131684332e-06
5.298890119e-06
5.350510814e-06
5.475036316e-06
5.635375014e-06
5.823632211e-06
5.990964363e-06
6.245975621e-06
6.511821909e-06
6.749238769e-06
7.036806776e-06
7.373130953e-06
7.757285734e-06
8.24938834e-06
8.787388131e-06
9.304352852e-06
9.836080032e-06
9.964311839e-06
1.037162945e-05
1.091216932e-05
1.111969299e-05
1.136996685e-05
1.140877291e-05
5.009463218e-06
5.06537406e-06
5.13254442e-06
5.152939827e-06
5.229157544e-06
5.291478406e-06
5.353831186e-06
5.436919699e-06
5.642895434e-06
5.826902915e-06
5.994121686e-06
6.284104312e-06
6.641377125e-06
7.005050726e-06
7.329471746e-06
7.683237693e-06
8.045045334e-06
8.534355997e-06
8.919699178e-06
4.922217025e-06
4.930316964e-06
4.953428484e-06
5.013221028e-06
5.083775244e-06
5.137426886e-06
5.221654316e-06
5.308560421e-06
5.447929704e-06
5.547429741e-06
5.813960908e-06
5.996241609e-06
6.180663788e-06
6.434561291e-06
4.857508119e-06
4.876689326e-06
4.90810304e-06
4.954707578e-06
5.02289642e-06
5.049387936e-06
5.116738281e-06
5.228647539e-06
4.810726887e-06
)
;

boundaryField
{
    flow
    {
        type            calculated;
        value           nonuniform List<scalar> 
15
(
8.876575414e-06
8.208850973e-06
8.29253117e-06
8.695726744e-06
8.700895871e-06
8.869607247e-06
9.222825215e-06
9.621275971e-06
9.817778571e-06
9.980136065e-06
1.029994549e-05
1.073120014e-05
1.090175222e-05
1.107051706e-05
1.13202282e-05
)
;
    }
    obstacle
    {
        type            calculated;
        value           nonuniform List<scalar> 
30
(
6.401142326e-24
6.377703876e-24
6.523002365e-24
6.557511295e-24
6.448729836e-24
6.248751469e-24
6.582775162e-24
6.146577227e-24
6.74955074e-24
6.263371731e-24
6.218346572e-24
6.40139702e-24
5.971757528e-24
6.412215694e-24
6.41502605e-24
6.022795103e-24
5.999843672e-24
5.810132388e-24
6.096339139e-24
6.270818366e-24
5.861591599e-24
5.688694265e-24
6.090183723e-24
5.979321808e-24
5.711072566e-24
5.268544403e-24
5.309451563e-24
5.352603719e-24
4.675175166e-24
4.158909599e-24
)
;
    }
    frontAndBack
    {
        type            empty;
    }
    procBoundary1to0
    {
        type            processor;
        value           nonuniform List<scalar> 
21
(
1.472308343e-05
1.310671615e-05
1.230566002e-05
1.139877064e-05
1.047957115e-05
9.467347395e-06
8.68459061e-06
7.721650571e-06
7.019744175e-06
6.345786573e-06
6.033438867e-06
5.702941708e-06
5.460668253e-06
5.230799842e-06
5.159216618e-06
5.062994727e-06
4.952302545e-06
4.944170635e-06
4.880187644e-06
4.834466677e-06
4.811079583e-06
)
;
    }
    procBoundary1to3
    {
        type            processor;
        value           nonuniform List<scalar> 
36
(
1.154139616e-05
1.15879327e-05
1.180818493e-05
1.173118381e-05
1.154139616e-05
1.170179738e-05
9.449665564e-06
9.8453774e-06
1.022895165e-05
1.06269219e-05
1.101206248e-05
1.15879327e-05
1.132286666e-05
6.759242258e-06
7.126215074e-06
7.468786025e-06
7.825312667e-06
9.449665564e-06
8.29942812e-06
5.315739549e-06
5.426427569e-06
5.490319468e-06
5.678997383e-06
5.83883906e-06
6.759242258e-06
6.063284276e-06
4.864509369e-06
4.884078411e-06
4.87497437e-06
4.947422068e-06
5.02770004e-06
5.079159573e-06
5.315739549e-06
5.158612679e-06
4.864509369e-06
4.865232934e-06
)
;
    }
}


// ************************************************************************* //
