/*--------------------------------*- C++ -*----------------------------------*\
| =========                 |                                                 |
| \\      /  F ield         | OpenFOAM: The Open Source CFD Toolbox           |
|  \\    /   O peration     | Version:  2406                                  |
|   \\  /    A nd           | Website:  www.openfoam.com                      |
|    \\/     M anipulation  |                                                 |
\*---------------------------------------------------------------------------*/
FoamFile
{
    version     2.0;
    format      ascii;
    arch        "LSB;label=32;scalar=64";
    class       volScalarField;
    location    "0.006";
    object      rhoM;
}
// * * * * * * * * * * * * * * * * * * * * * * * * * * * * * * * * * * * * * //

dimensions      [1 -3 0 0 0 0 0];

internalField   nonuniform List<scalar> 
546
(
1.93712258e-05
1.208330149e-05
1.640797143e-05
1.363658696e-05
2.018581885e-05
1.685957503e-05
1.621023715e-05
1.625531535e-05
1.757082795e-05
1.435815616e-05
9.728589156e-06
1.596406237e-05
1.274440627e-05
1.012919705e-05
1.677097592e-05
1.305926142e-05
1.164741074e-05
1.242559262e-05
1.201519023e-05
1.22921335e-05
1.632584798e-05
1.215192847e-05
1.012692652e-05
1.657900445e-05
1.256628563e-05
1.331766592e-05
1.261039322e-05
9.196496855e-06
1.265612794e-05
6.906762318e-06
1.616744025e-05
1.23843275e-05
9.905071628e-06
1.104593593e-05
1.059200236e-05
1.948964825e-05
1.067674551e-05
1.138730467e-05
1.471964952e-05
1.667136127e-05
1.149724749e-05
1.709872281e-05
6.372203131e-06
1.539997999e-05
1.419780632e-05
1.523446072e-05
7.933861413e-06
1.855356296e-05
1.124324293e-05
1.350409274e-05
1.012699409e-05
1.030249141e-05
1.02154589e-05
1.31721638e-05
9.584035266e-06
1.085414769e-05
1.132161043e-05
1.235308163e-05
6.936496376e-06
6.812461352e-06
1.035571355e-05
1.47853037e-05
8.695653389e-06
1.675871828e-05
1.611842525e-05
1.384409619e-05
9.039999644e-06
1.515761275e-05
1.448300458e-05
9.491322468e-06
1.648076793e-05
1.280433806e-05
1.413243769e-05
1.194084271e-05
1.70212181e-05
9.040561813e-06
9.790636077e-06
9.95743928e-06
1.132878514e-05
1.428261364e-05
1.396812266e-05
1.461784457e-05
1.02154589e-05
1.227687651e-05
1.283878518e-05
8.483742676e-06
1.132161042e-05
1.151764668e-05
1.302985306e-05
8.325835176e-06
1.005868869e-05
7.881593114e-06
1.557535801e-05
1.538838455e-05
1.450639782e-05
1.740100589e-05
9.585581604e-06
9.894457525e-06
1.313820351e-05
9.093819149e-06
1.077414559e-05
1.061578547e-05
1.233535146e-05
1.539998e-05
1.386481674e-05
1.247324307e-05
1.401094816e-05
1.353243035e-05
1.493396244e-05
1.471396687e-05
9.952970885e-06
1.215192848e-05
1.527678239e-05
6.990148411e-06
1.22959639e-05
1.112909269e-05
1.656848079e-05
8.358824412e-06
1.003101945e-05
1.078677697e-05
1.206899066e-05
8.33042018e-06
1.534927511e-05
1.356066119e-05
8.366133393e-06
7.965437777e-06
1.784698301e-05
1.554897376e-05
1.487931932e-05
1.954107104e-05
1.640063847e-05
1.466786534e-05
8.904013792e-06
1.004712003e-05
9.132214627e-06
7.365935609e-06
1.004300089e-05
1.021396733e-05
1.235942651e-05
1.791849129e-05
1.134936253e-05
8.101992712e-06
2.060798253e-05
1.227687651e-05
7.955571411e-06
1.249722561e-05
8.652305636e-06
8.823949403e-06
9.561604885e-06
5.393388516e-06
8.790948894e-06
1.065839986e-05
8.695653396e-06
9.97930522e-06
1.266487318e-05
9.822836746e-06
1.511907324e-05
1.193710186e-05
1.487931932e-05
9.332321133e-06
1.463198013e-05
1.239854444e-05
6.616455334e-06
1.045750512e-05
8.385487954e-06
9.543151315e-06
1.333594221e-05
7.830639934e-06
1.802381908e-05
1.064673598e-05
1.117533935e-05
9.06953337e-06
8.349859858e-06
5.824763911e-06
1.157292803e-05
1.53244074e-05
8.191392637e-06
8.546216916e-06
1.059386526e-05
5.581990399e-06
6.481827337e-06
6.604492536e-06
1.073768504e-05
6.703487308e-06
1.181968546e-05
1.245104697e-05
1.169023732e-05
1.146557687e-05
1.084300964e-05
9.572744599e-06
1.045169106e-05
1.321013169e-05
1.061968263e-05
1.218707378e-05
1.253685822e-05
1.021259851e-05
1.139504594e-05
1.012709119e-05
7.98230194e-06
9.95448579e-06
1.143637423e-05
9.598247028e-06
9.505060182e-06
1.111149208e-05
1.356182113e-05
9.395098935e-06
1.187426272e-05
1.058963427e-05
7.405910986e-06
7.474847382e-06
7.525003785e-06
8.255615675e-06
1.02083369e-05
8.684897236e-06
9.978160809e-06
1.121402298e-05
9.663253702e-06
7.93197717e-06
1.005228664e-05
1.140702427e-05
1.318577634e-05
1.515442723e-05
1.192629665e-05
1.177668868e-05
1.195562643e-05
1.079861689e-05
1.215417348e-05
1.608540955e-05
1.321691593e-05
1.713788524e-05
1.606271005e-05
1.06556741e-05
1.048105594e-05
8.155532909e-06
7.685249622e-06
1.140184023e-05
1.141334944e-05
1.068221167e-05
9.937588132e-06
1.125828176e-05
5.438650893e-06
6.905518549e-06
1.194710328e-05
1.2645882e-05
8.28963432e-06
1.314850308e-05
8.962327553e-06
1.248689904e-05
1.147596934e-05
1.292137981e-05
1.672309297e-05
1.223700785e-05
1.184487926e-05
1.30938885e-05
9.8789413e-06
1.280695838e-05
8.356502553e-06
9.872613359e-06
8.153386307e-06
1.445515487e-05
8.119418196e-06
1.963744228e-05
1.723305365e-05
8.423471509e-06
8.678607132e-06
1.441305123e-05
1.178252356e-05
9.289074362e-06
7.405910919e-06
9.744908045e-06
1.013294491e-05
8.106006647e-06
9.754349702e-06
8.379359141e-06
2.149369887e-06
7.888356646e-06
8.806983345e-06
9.503096533e-06
9.023012169e-06
1.946349178e-05
1.1577377e-05
9.96768695e-06
8.494958946e-06
1.227113454e-05
1.079316269e-05
1.573705025e-05
1.088828326e-05
1.344760444e-05
1.23594265e-05
1.25509455e-05
5.674681277e-06
9.334950744e-06
7.194659477e-06
1.48755841e-05
1.003457153e-05
1.058140003e-05
1.187426262e-05
1.411876652e-05
6.186787953e-06
1.144916287e-05
9.164024674e-06
7.505762579e-06
4.990216274e-06
7.084951142e-06
9.978160809e-06
7.269844669e-06
7.948835779e-06
9.737913167e-06
5.856307156e-06
9.811246568e-06
1.27030628e-05
1.199470292e-05
7.188344979e-06
1.062364291e-05
1.004643611e-05
1.540333485e-05
1.629036382e-05
1.182976071e-05
1.613568821e-05
8.742526456e-06
1.143637416e-05
1.453007925e-05
1.057172816e-05
1.299353804e-05
1.112021401e-05
1.213136474e-05
8.652305713e-06
8.081091941e-06
6.093356727e-06
1.523259767e-05
4.76855025e-06
7.87978519e-06
6.048912639e-06
6.399784302e-06
5.755920108e-06
8.12146298e-06
7.092565346e-06
7.382179909e-06
6.489266812e-06
9.731745979e-06
1.181776549e-05
1.701795463e-05
1.23353515e-05
1.218707378e-05
1.012918344e-05
1.381213749e-05
1.097240486e-05
1.600058373e-05
1.115770073e-05
9.868215028e-06
1.388111096e-05
1.408913079e-05
7.194659354e-06
1.460548688e-05
1.103010696e-05
1.158586956e-05
1.049374076e-05
1.207534917e-05
1.106102166e-05
1.428730855e-05
3.725373774e-06
1.125683586e-06
8.015583289e-06
6.094246213e-06
1.112934482e-05
9.512649283e-06
7.871163705e-06
6.754110633e-06
6.964463267e-06
8.056467566e-06
8.763162141e-06
1.045424879e-05
1.18448792e-05
1.021127408e-05
1.195562636e-05
5.441022822e-06
1.088828317e-05
1.16601089e-05
8.668706992e-06
9.86821511e-06
1.501646806e-05
1.373806942e-05
1.590078855e-05
7.706809957e-06
1.066749997e-05
9.942791415e-06
1.21494801e-05
1.606960639e-05
1.134357366e-05
1.031299293e-05
5.811726664e-06
5.929443981e-06
5.51956444e-06
4.342448593e-06
5.526422872e-06
6.10990177e-06
1.192325352e-05
8.010249347e-06
4.511506095e-06
1.140702424e-05
5.948947387e-06
8.346464592e-06
9.803540762e-06
7.74102845e-06
1.261960561e-05
1.623963975e-05
9.199751708e-06
1.08097991e-05
1.192964802e-05
9.781944383e-06
1.466631839e-05
1.453007913e-05
1.394665709e-05
1.102217912e-05
1.220585659e-05
1.304491828e-05
1.132161038e-05
8.731371819e-06
1.218671334e-05
1.210926974e-05
4.246962027e-06
7.730176196e-06
3.780798076e-06
5.027615496e-06
6.140264468e-06
5.568470946e-06
7.247909594e-06
5.732788463e-06
1.036781325e-05
1.459665812e-05
7.637476298e-06
7.050267603e-06
1.012921045e-05
2.882614403e-06
7.223024322e-06
7.785096274e-06
8.947386906e-06
1.140563104e-05
1.124324303e-05
1.436888434e-05
1.265874262e-05
1.127215331e-05
1.421225421e-05
8.512784376e-06
2.124489288e-05
1.641979285e-05
1.187426272e-05
1.421134401e-05
1.499868453e-05
7.852051181e-06
9.834125301e-06
4.953369373e-06
3.251449893e-06
5.560930854e-06
5.373424715e-07
7.192763554e-06
5.766507971e-06
1.225208249e-05
9.101893909e-06
8.294969622e-06
9.326005092e-06
5.105971941e-06
8.169289336e-06
8.811997252e-06
1.137439452e-05
9.040561828e-06
1.299742274e-05
9.618135499e-06
1.175856362e-05
1.280975744e-05
1.152338586e-05
1.197639774e-05
9.505060182e-06
1.02162047e-05
1.600124996e-05
8.483742602e-06
1.638500239e-05
1.309593908e-05
1.52812364e-05
5.512907089e-06
3.15263725e-06
7.636957116e-06
6.703487328e-06
6.524608736e-06
7.115682375e-06
5.533491594e-06
5.497971775e-06
5.777425462e-06
3.50955803e-06
6.191272555e-06
5.754070548e-06
9.557320837e-06
6.175613911e-06
9.547951605e-06
1.096547449e-05
1.063591837e-05
1.012914139e-05
1.141432733e-05
9.868215028e-06
9.254774973e-06
8.981767847e-06
1.54559868e-05
1.308285102e-05
7.142428459e-06
4.246962027e-06
4.803760387e-06
7.561596042e-06
2.818428285e-06
2.839710515e-06
4.485609207e-06
5.611163775e-06
4.711466293e-06
5.223347451e-06
8.455892351e-06
4.260418534e-06
6.888730943e-06
4.166062103e-06
5.352859968e-06
1.09586576e-05
8.287685844e-06
6.583849491e-06
6.127970323e-06
1.047129565e-05
4.39547446e-06
6.454883523e-06
3.780798076e-06
1.675871832e-06
4.37523885e-06
5.104121164e-06
4.052089939e-06
7.382179964e-06
5.619662206e-06
4.067984115e-06
5.145716067e-06
2.8366511e-06
2.859448047e-06
1.325804252e-05
3.873886206e-06
4.278320814e-06
3.326810857e-06
7.236802686e-06
4.604736121e-06
6.72841381e-06
2.805581866e-06
5.654516261e-06
2.234865338e-06
)
;

boundaryField
{
    flow
    {
        type            zeroGradient;
    }
    obstacle
    {
        type            calculated;
        value           nonuniform List<scalar> 
30
(
7.061583658e-24
4.394418582e-24
2.99417865e-24
2.266681009e-24
9.466892225e-24
1e-300
1.759489818e-24
1e-300
1e-300
7.058403587e-24
9.08239693e-24
6.002662324e-24
1.251729832e-23
8.432750552e-24
1e-300
4.886571614e-24
6.402890402e-24
1.63939058e-23
1e-300
1.053032371e-23
3.263845552e-24
1.619793765e-24
5.719216565e-24
1e-300
1.5925678e-23
2.154228451e-24
4.272719051e-24
1e-300
1.332185072e-23
1e-300
)
;
    }
    frontAndBack
    {
        type            empty;
    }
    procBoundary1to0
    {
        type            processor;
        value           nonuniform List<scalar> 
21
(
1.516164583e-05
1.18337404e-05
1.057700679e-05
1.346083516e-05
7.396533168e-06
1.168630861e-05
8.579550872e-06
1.028036154e-05
1.375748042e-05
7.470249063e-06
5.251645445e-06
5.399077268e-06
2.957544273e-06
4.955000155e-06
5.399077245e-06
3.254189527e-06
4.289775436e-06
4.881284291e-06
4.289775467e-06
3.254189527e-06
4.363491336e-06
)
;
    }
    procBoundary1to3
    {
        type            processor;
        value           nonuniform List<scalar> 
36
(
4.068616629e-06
9.760959826e-06
1.205774105e-05
1.272562912e-05
4.068616629e-06
1.068729654e-05
8.569985165e-06
7.945394987e-06
1.083120508e-05
8.971726192e-06
1.173884067e-05
9.760959826e-06
1.437496391e-05
7.804256099e-06
6.529630668e-06
8.947386906e-06
9.618135499e-06
8.569985165e-06
1.26160531e-05
3.007035228e-06
3.350556675e-06
1.045169099e-05
4.700178365e-06
1.797086245e-06
7.804256099e-06
7.164505631e-06
6.305274546e-06
5.973551675e-06
4.342448624e-06
4.989080401e-06
3.790016086e-06
3.428835943e-06
3.007035228e-06
6.126041246e-06
6.305274546e-06
3.203785551e-06
)
;
    }
}


// ************************************************************************* //
