/*--------------------------------*- C++ -*----------------------------------*\
| =========                 |                                                 |
| \\      /  F ield         | OpenFOAM: The Open Source CFD Toolbox           |
|  \\    /   O peration     | Version:  2406                                  |
|   \\  /    A nd           | Website:  www.openfoam.com                      |
|    \\/     M anipulation  |                                                 |
\*---------------------------------------------------------------------------*/
FoamFile
{
    version     2.0;
    format      ascii;
    arch        "LSB;label=32;scalar=64";
    class       volScalarField;
    location    "0.006";
    object      rhoN;
}
// * * * * * * * * * * * * * * * * * * * * * * * * * * * * * * * * * * * * * //

dimensions      [0 -3 0 0 0 0 0];

internalField   nonuniform List<scalar> 
546
(
4.03810238e+20
2.485950518e+20
3.415149395e+20
2.867286867e+20
4.16007075e+20
3.49310237e+20
3.40255412e+20
3.310606695e+20
3.693853698e+20
3.002290934e+20
2.057705423e+20
3.294175474e+20
2.705714294e+20
2.107718058e+20
3.499890632e+20
2.77255994e+20
2.41436618e+20
2.562717614e+20
2.455138673e+20
2.606363917e+20
3.417374185e+20
2.518946552e+20
2.13975522e+20
3.507756096e+20
2.586159604e+20
2.746703363e+20
2.632997112e+20
1.957832121e+20
2.681562447e+20
1.424485897e+20
3.365085319e+20
2.598948269e+20
2.049089637e+20
2.293829494e+20
2.195592896e+20
4.075286102e+20
2.229259596e+20
2.364719068e+20
2.978914273e+20
3.482657481e+20
2.420829909e+20
3.538188472e+20
1.352857146e+20
3.223568793e+20
2.999906253e+20
3.150636296e+20
1.651934755e+20
3.844076417e+20
2.325920846e+20
2.867000311e+20
2.1029995e+20
2.121218151e+20
2.139755222e+20
2.69827392e+20
2.041704951e+20
2.197362692e+20
2.355839523e+20
2.51721273e+20
1.411348656e+20
1.424485897e+20
2.131220701e+20
3.050939272e+20
1.821413011e+20
3.440744241e+20
3.351168107e+20
2.910918642e+20
1.877271237e+20
3.192370742e+20
2.978914275e+20
1.921466198e+20
3.38916187e+20
2.684142979e+20
2.951688318e+20
2.479668302e+20
3.624886726e+20
1.890381778e+20
2.033150468e+20
2.050174089e+20
2.325920848e+20
2.997318507e+20
2.891624308e+20
3.049251089e+20
2.139755222e+20
2.563360224e+20
2.722273268e+20
1.785357186e+20
2.355839521e+20
2.377367576e+20
2.681562447e+20
1.709383077e+20
2.131220701e+20
1.694966261e+20
3.187472769e+20
3.211361294e+20
3.004495542e+20
3.609539116e+20
1.994600691e+20
2.010011208e+20
2.740601131e+20
1.921466198e+20
2.299788414e+20
2.196116981e+20
2.582727278e+20
3.223568795e+20
2.874910162e+20
2.646534489e+20
2.922653797e+20
2.818989373e+20
3.101227794e+20
2.997318507e+20
2.1029995e+20
2.518946554e+20
3.075898129e+20
1.484050655e+20
2.586159604e+20
2.334697858e+20
3.464469887e+20
1.678141821e+20
2.117022986e+20
2.279177428e+20
2.467729232e+20
1.694966261e+20
3.187472766e+20
2.867286865e+20
1.733362812e+20
1.630114441e+20
3.754542478e+20
3.192370742e+20
3.098070844e+20
3.96302403e+20
3.389161873e+20
3.050162478e+20
1.8448052e+20
2.107718058e+20
1.87494141e+20
1.512305422e+20
2.033150469e+20
2.178309973e+20
2.584356497e+20
3.779227679e+20
2.365874434e+20
1.723489744e+20
4.27951044e+20
2.563360224e+20
1.633363963e+20
2.60936819e+20
1.801524333e+20
1.817986976e+20
1.975888121e+20
1.13958872e+20
1.794712172e+20
2.259955018e+20
1.821413012e+20
2.064446546e+20
2.657822981e+20
2.095861424e+20
3.167895216e+20
2.482955022e+20
3.098070844e+20
1.921466197e+20
3.026037384e+20
2.562136478e+20
1.352857145e+20
2.107718055e+20
1.749945314e+20
2.016407229e+20
2.795581893e+20
1.665766447e+20
3.747316921e+20
2.215409333e+20
2.365874438e+20
1.856065885e+20
1.738551127e+20
1.214223264e+20
2.450045924e+20
3.158708867e+20
1.662945553e+20
1.817986973e+20
2.258157844e+20
1.13958871e+20
1.346034127e+20
1.355973009e+20
2.276766262e+20
1.376297695e+20
2.426707937e+20
2.561608407e+20
2.463918501e+20
2.364719068e+20
2.263974847e+20
2.041557835e+20
2.17874692e+20
2.80614948e+20
2.21376624e+20
2.479668304e+20
2.624917972e+20
2.142432679e+20
2.41436618e+20
2.050174089e+20
1.679831729e+20
2.085091151e+20
2.365874454e+20
1.988642026e+20
2.006020524e+20
2.293532848e+20
2.858386966e+20
1.922692371e+20
2.49441833e+20
2.237522429e+20
1.552483532e+20
1.566934505e+20
1.570373148e+20
1.694966262e+20
2.162927952e+20
1.835063596e+20
2.080035375e+20
2.328734913e+20
1.994600691e+20
1.655303348e+20
2.144818278e+20
2.401832748e+20
2.783954393e+20
3.172168972e+20
2.459740265e+20
2.479668304e+20
2.499921886e+20
2.268458139e+20
2.541438081e+20
3.331532879e+20
2.713574309e+20
3.518591276e+20
3.285936692e+20
2.253794258e+20
2.139755207e+20
1.753878045e+20
1.633363952e+20
2.334697838e+20
2.355839492e+20
2.237522409e+20
2.117022979e+20
2.27917742e+20
1.121695106e+20
1.468970761e+20
2.504442888e+20
2.637903918e+20
1.733362814e+20
2.794481898e+20
1.877271239e+20
2.601190975e+20
2.383131418e+20
2.64201602e+20
3.51020336e+20
2.562136482e+20
2.459740269e+20
2.727635139e+20
1.999937505e+20
2.646534471e+20
1.779006656e+20
2.050174096e+20
1.679831722e+20
2.997318494e+20
1.708687094e+20
4.109860188e+20
3.610836943e+20
1.753878045e+20
1.769477615e+20
3.021373699e+20
2.49441833e+20
1.957832125e+20
1.552483518e+20
1.994280261e+20
2.131220701e+20
1.694966261e+20
2.049089637e+20
1.72037212e+20
4.622300833e+19
1.630114439e+20
1.877271236e+20
2.010011211e+20
1.906505133e+20
4.083115655e+20
2.420829919e+20
2.074110482e+20
1.721818179e+20
2.603651719e+20
2.249929685e+20
3.276661753e+20
2.287294291e+20
2.818989382e+20
2.584356495e+20
2.60636393e+20
1.182937219e+20
1.988642009e+20
1.471081718e+20
3.103015003e+20
2.041704958e+20
2.19736269e+20
2.494418308e+20
2.936748187e+20
1.270213787e+20
2.421626009e+20
1.906881679e+20
1.581968507e+20
1.024544814e+20
1.490989168e+20
2.080035375e+20
1.513677697e+20
1.642612341e+20
2.010011217e+20
1.191565711e+20
2.041557831e+20
2.662912886e+20
2.562136478e+20
1.475844165e+20
2.231701474e+20
2.124933608e+20
3.276661753e+20
3.430941381e+20
2.434581719e+20
3.359663444e+20
1.824454736e+20
2.365874438e+20
3.049251107e+20
2.273489927e+20
2.698273915e+20
2.313932265e+20
2.472033026e+20
1.801524349e+20
1.678141821e+20
1.270213799e+20
3.13386901e+20
1.009525599e+20
1.581968518e+20
1.252221451e+20
1.376297699e+20
1.155575207e+20
1.746551179e+20
1.52528287e+20
1.537067378e+20
1.310722272e+20
2.041557846e+20
2.420829934e+20
3.538188497e+20
2.582727288e+20
2.479668304e+20
2.124933591e+20
2.898585397e+20
2.287294291e+20
3.331532906e+20
2.325920846e+20
2.085091126e+20
2.891624289e+20
2.916674922e+20
1.471081692e+20
2.968101307e+20
2.313932306e+20
2.472033048e+20
2.217260738e+20
2.517212732e+20
2.258157844e+20
2.991420364e+20
7.851865717e+19
2.259955002e+19
1.707574694e+20
1.261606224e+20
2.311150415e+20
1.979424684e+20
1.642612346e+20
1.418831447e+20
1.429878853e+20
1.681282919e+20
1.815622422e+20
2.196116964e+20
2.459740255e+20
2.107718058e+20
2.499921872e+20
1.134229059e+20
2.287294272e+20
2.434581739e+20
1.809049547e+20
2.085091144e+20
3.154499277e+20
2.916674972e+20
3.34336754e+20
1.618964349e+20
2.177818603e+20
2.060027504e+20
2.494418308e+20
3.356283643e+20
2.399292709e+20
2.136728831e+20
1.233864613e+20
1.24297526e+20
1.138383129e+20
9.175317928e+19
1.155575207e+20
1.280804198e+20
2.463918482e+20
1.655303343e+20
9.532525688e+19
2.401832742e+20
1.210414948e+20
1.708090985e+20
2.090779217e+20
1.611784385e+20
2.624917965e+20
3.402687205e+20
1.90607856e+20
2.306445839e+20
2.455138671e+20
2.085091126e+20
3.023061756e+20
3.049251081e+20
2.942163435e+20
2.293532828e+20
2.586159591e+20
2.746703363e+20
2.355839513e+20
1.817986957e+20
2.540427574e+20
2.421626031e+20
8.973560883e+19
1.581968524e+20
7.968681962e+19
1.032223275e+20
1.271132738e+20
1.164367461e+20
1.525282882e+20
1.182359539e+20
2.14481828e+20
3.002290927e+20
1.573539445e+20
1.464077999e+20
2.090779234e+20
6.19917076e+19
1.499953135e+20
1.638330877e+20
1.90607856e+20
2.434581739e+20
2.325920865e+20
2.997318519e+20
2.628749375e+20
2.386370432e+20
2.942163435e+20
1.753878045e+20
4.355637243e+20
3.433379234e+20
2.49441833e+20
2.936748187e+20
3.104967063e+20
1.566934491e+20
2.019051184e+20
1.016979751e+20
6.830298775e+19
1.146914749e+20
1.155575207e+19
1.513677699e+20
1.173294533e+20
2.601190987e+20
1.906505152e+20
1.681282932e+20
1.936663917e+20
1.098058482e+20
1.721818179e+20
1.859751228e+20
2.374925778e+20
1.890381781e+20
2.668510006e+20
2.050174096e+20
2.455138671e+20
2.60636393e+20
2.365874458e+20
2.518946567e+20
2.006020524e+20
2.158619132e+20
3.266727904e+20
1.78535717e+20
3.464469872e+20
2.657057884e+20
3.246101901e+20
1.121695102e+20
6.779865055e+19
1.593736392e+20
1.376297699e+20
1.386690249e+20
1.513677688e+20
1.173294515e+20
1.182359522e+20
1.191565702e+20
7.205498281e+19
1.331456463e+20
1.220064999e+20
1.96779222e+20
1.239834152e+20
1.999937497e+20
2.268458118e+20
2.287294272e+20
2.178309977e+20
2.325920846e+20
2.085091126e+20
1.971562015e+20
1.85606586e+20
3.209632811e+20
2.698273939e+20
1.497250315e+20
8.973560883e+19
1.016979758e+20
1.593736369e+20
5.734573705e+19
5.777876037e+19
9.314939689e+19
1.173294533e+20
9.458876315e+19
1.07240914e+20
1.801374556e+20
8.472904636e+19
1.464077987e+20
8.609090961e+19
1.115850737e+20
2.249929703e+20
1.764356343e+20
1.397790944e+20
1.281358799e+20
2.196703021e+20
8.973560883e+19
1.355973011e+20
7.968681962e+19
3.440744248e+19
9.24460166e+19
1.047930707e+20
8.213061608e+19
1.53706739e+20
1.191565711e+20
8.406414597e+19
1.089373462e+20
6.100324947e+19
6.149350638e+19
2.727635134e+20
7.851865717e+19
9.039820007e+19
6.830298775e+19
1.490989174e+20
9.244601728e+19
1.397240953e+20
5.866472621e+19
1.182359539e+20
4.486780442e+19
)
;

boundaryField
{
    flow
    {
        type            zeroGradient;
    }
    obstacle
    {
        type            calculated;
        value           nonuniform List<scalar> 
30
(
136.0389247
82.72625343
64.39093872
42.67095272
192.5676471
1e-300
37.83849072
1e-300
1e-300
151.7936255
195.3203641
118.8276119
264.7236896
181.3494742
1e-300
105.0875616
129.1831812
352.557114
1e-300
206.6554625
70.19022692
34.83427453
122.9939046
1e-300
326.6852029
46.32749357
87.08045443
1e-300
286.4914133
1e-300
)
;
    }
    frontAndBack
    {
        type            empty;
    }
    procBoundary1to0
    {
        type            processor;
        value           nonuniform List<scalar> 
21
(
3.117893059e+20
2.449773118e+20
2.227066471e+20
2.783833088e+20
1.558946531e+20
2.44977312e+20
1.781653177e+20
2.115713147e+20
2.895186412e+20
1.55894653e+20
1.113533235e+20
1.11353324e+20
5.567666177e+19
1.002179905e+20
1.113533235e+20
6.681199412e+19
8.908265883e+19
1.002179912e+20
8.908265946e+19
6.681199412e+19
8.908265883e+19
)
;
    }
    procBoundary1to3
    {
        type            processor;
        value           nonuniform List<scalar> 
36
(
8.546915403e+19
2.06002754e+20
2.49441833e+20
2.657057884e+20
8.546915403e+19
2.258157844e+20
1.824454736e+20
1.708687094e+20
2.253794296e+20
1.872285822e+20
2.428446524e+20
2.06002754e+20
2.994500579e+20
1.624949217e+20
1.386279961e+20
1.90607856e+20
2.050174096e+20
1.824454736e+20
2.584356495e+20
5.957828555e+19
7.205498226e+19
2.178746906e+20
9.760519915e+19
3.689610412e+19
1.624949217e+20
1.487800982e+20
1.355973021e+20
1.252221451e+20
9.175317996e+19
1.040017687e+20
8.150572227e+19
7.039767198e+19
5.957828555e+19
1.300595493e+20
1.355973021e+20
6.730170614e+19
)
;
    }
}


// ************************************************************************* //
