/*--------------------------------*- C++ -*----------------------------------*\
| =========                 |                                                 |
| \\      /  F ield         | OpenFOAM: The Open Source CFD Toolbox           |
|  \\    /   O peration     | Version:  2406                                  |
|   \\  /    A nd           | Website:  www.openfoam.com                      |
|    \\/     M anipulation  |                                                 |
\*---------------------------------------------------------------------------*/
FoamFile
{
    version     2.0;
    format      ascii;
    arch        "LSB;label=32;scalar=64";
    class       volScalarField;
    location    "0.006";
    object      rhoNMean;
}
// * * * * * * * * * * * * * * * * * * * * * * * * * * * * * * * * * * * * * //

dimensions      [0 -3 0 0 0 0 0];

internalField   nonuniform List<scalar> 
546
(
3.047869941e+20
3.048942979e+20
3.039027608e+20
3.052207755e+20
3.016089813e+20
2.990561376e+20
3.020920521e+20
3.017342119e+20
3.057160421e+20
3.035356165e+20
3.003685057e+20
3.028730001e+20
2.915940095e+20
2.998332258e+20
2.982615129e+20
2.933998544e+20
2.842386711e+20
2.883655283e+20
2.896546762e+20
2.874775961e+20
2.845665009e+20
2.862318739e+20
2.872041866e+20
2.787496844e+20
2.672183439e+20
2.616418067e+20
2.564308222e+20
2.466682013e+20
2.272130202e+20
1.848317934e+20
2.72998155e+20
2.743058067e+20
2.720318277e+20
2.753283542e+20
2.72492338e+20
2.743637853e+20
2.720087805e+20
2.738975273e+20
2.714068935e+20
2.707505993e+20
2.700718194e+20
2.722859708e+20
2.715266283e+20
2.734123598e+20
2.743955918e+20
2.707068714e+20
2.664486045e+20
2.676288714e+20
2.649697642e+20
2.628083618e+20
2.611925379e+20
2.602027598e+20
2.600114642e+20
2.520097899e+20
2.479764091e+20
2.461046215e+20
2.375425326e+20
2.24059902e+20
2.049466429e+20
1.712089599e+20
2.572869454e+20
2.611566351e+20
2.62181019e+20
2.599864579e+20
2.563682121e+20
2.555708943e+20
2.569202128e+20
2.559808391e+20
2.591854014e+20
2.555510013e+20
2.571566916e+20
2.602683306e+20
2.584777062e+20
2.59154267e+20
2.585210881e+20
2.503915686e+20
2.547664608e+20
2.531452457e+20
2.509280941e+20
2.491466709e+20
2.438252667e+20
2.450890803e+20
2.512830461e+20
2.403397552e+20
2.321736128e+20
2.290063929e+20
2.255323702e+20
2.155852856e+20
1.959657609e+20
1.728043843e+20
2.409064578e+20
2.451222541e+20
2.518520894e+20
2.513234287e+20
2.516881323e+20
2.504127465e+20
2.494697927e+20
2.51093753e+20
2.54153022e+20
2.52452637e+20
2.512539016e+20
2.504264728e+20
2.517913122e+20
2.511903992e+20
2.480839143e+20
2.439894756e+20
2.427624016e+20
2.452264482e+20
2.442604542e+20
2.446984765e+20
2.414068176e+20
2.387607797e+20
2.36086326e+20
2.338953774e+20
2.29619213e+20
2.239112581e+20
2.197674925e+20
2.084531832e+20
1.982897819e+20
1.812278436e+20
2.23897821e+20
2.290200746e+20
2.375388187e+20
2.431535723e+20
2.473393176e+20
2.471369929e+20
2.45132514e+20
2.466559636e+20
2.512297141e+20
2.475809194e+20
2.469609632e+20
2.496293641e+20
2.499465072e+20
2.487685898e+20
2.471797759e+20
2.457832379e+20
2.405005219e+20
2.425526799e+20
2.412798299e+20
2.402720016e+20
2.36315806e+20
2.337228862e+20
2.303446494e+20
2.302976791e+20
2.247100473e+20
2.218466524e+20
2.203957154e+20
2.074929136e+20
1.976876065e+20
1.81118634e+20
2.088970188e+20
2.160516997e+20
2.234190736e+20
2.289929985e+20
2.345779155e+20
2.381325512e+20
2.400638816e+20
2.43566064e+20
2.453989859e+20
2.475168706e+20
2.491558488e+20
2.460871084e+20
2.441374202e+20
2.448507135e+20
2.452548358e+20
2.469888814e+20
2.41610283e+20
2.444704466e+20
2.428132147e+20
2.390643867e+20
2.37647706e+20
2.314072238e+20
2.298899528e+20
2.3237535e+20
2.290611454e+20
2.220068771e+20
2.146031236e+20
2.097444201e+20
2.024344417e+20
1.846988402e+20
1.905311306e+20
2.020023124e+20
2.094587015e+20
2.166521955e+20
2.238580294e+20
2.326910739e+20
2.347253915e+20
2.380089742e+20
2.387023866e+20
2.430214405e+20
2.456052986e+20
2.478968718e+20
2.484542648e+20
2.489256355e+20
2.450631751e+20
2.434517668e+20
2.439992348e+20
2.43522241e+20
2.428390591e+20
2.399331763e+20
2.380464013e+20
2.360915814e+20
2.322303093e+20
2.313365161e+20
2.310801691e+20
2.251335431e+20
2.199846002e+20
2.135295623e+20
2.042268564e+20
1.919542251e+20
1.716043952e+20
1.825516331e+20
1.931380823e+20
2.039367344e+20
2.096290466e+20
2.171739368e+20
2.262346502e+20
2.326883563e+20
2.339043489e+20
2.363323362e+20
2.410379992e+20
2.455014772e+20
2.437069659e+20
2.451648052e+20
2.472089422e+20
2.463461521e+20
2.473200468e+20
2.442995975e+20
2.441183135e+20
2.423397162e+20
2.418756093e+20
2.365865282e+20
2.355380123e+20
2.298029951e+20
2.294468012e+20
2.276193057e+20
2.222988622e+20
2.147928282e+20
2.096040929e+20
2.001924983e+20
1.557997113e+20
1.665624513e+20
1.757246147e+20
1.845615211e+20
1.954848062e+20
2.028056425e+20
2.112203912e+20
2.181098632e+20
2.260876777e+20
2.291348439e+20
2.322503862e+20
2.379045395e+20
2.41948252e+20
2.446771375e+20
2.466714586e+20
2.480811003e+20
2.472353322e+20
2.461789258e+20
2.455354034e+20
2.4408598e+20
2.428000548e+20
2.409571255e+20
2.365187354e+20
2.337289837e+20
2.321418517e+20
2.308741512e+20
2.244422182e+20
2.173799654e+20
2.109778056e+20
2.04385237e+20
1.400212e+20
1.473415338e+20
1.56816071e+20
1.668722726e+20
1.769224163e+20
1.860581571e+20
1.973403167e+20
2.043866106e+20
2.128811575e+20
2.205402851e+20
2.25585036e+20
2.330812156e+20
2.349215927e+20
2.401558752e+20
2.430965693e+20
2.438802539e+20
2.446854247e+20
2.455980431e+20
2.430630356e+20
2.432606334e+20
2.448723856e+20
2.440417282e+20
2.411860765e+20
2.344800033e+20
2.34011148e+20
2.311579772e+20
2.277450108e+20
2.23439922e+20
2.150518987e+20
2.077422735e+20
1.32229158e+20
1.392132286e+20
1.46358124e+20
1.547226221e+20
1.627088412e+20
1.709601928e+20
1.799364491e+20
1.905884754e+20
2.000519672e+20
2.100722977e+20
2.164988523e+20
2.215841365e+20
2.280548196e+20
2.324647707e+20
2.349468259e+20
2.362683166e+20
2.401320108e+20
2.43940817e+20
2.429252033e+20
2.421225192e+20
2.436982109e+20
2.433346575e+20
2.420865568e+20
2.400159619e+20
2.319467554e+20
2.317942968e+20
2.297544053e+20
2.28497655e+20
2.232377229e+20
2.144421094e+20
1.234986316e+20
1.293824253e+20
1.347769743e+20
1.420224534e+20
1.494813569e+20
1.574690543e+20
1.673665516e+20
1.756631541e+20
1.847840372e+20
1.935717083e+20
2.016510987e+20
2.084603057e+20
2.169203953e+20
2.242364047e+20
2.290178427e+20
2.338234229e+20
2.350194884e+20
2.393791817e+20
2.437909627e+20
2.436428981e+20
2.42857009e+20
2.450581431e+20
2.422604078e+20
2.413920816e+20
2.400001513e+20
2.372648164e+20
2.351635977e+20
2.290477126e+20
2.279045804e+20
2.235825566e+20
1.162225685e+20
1.196382512e+20
1.257420058e+20
1.301557088e+20
1.367392143e+20
1.445406954e+20
1.522075888e+20
1.594924195e+20
1.671647536e+20
1.743330265e+20
1.83059122e+20
1.951778617e+20
2.054867009e+20
2.136482211e+20
2.204472772e+20
2.256401684e+20
2.291233502e+20
2.346851372e+20
2.376401943e+20
2.410756317e+20
2.414199634e+20
2.455575174e+20
2.442173964e+20
2.457452968e+20
2.437704956e+20
2.40936239e+20
2.388590301e+20
2.355784812e+20
2.326137804e+20
2.272719751e+20
1.105617473e+20
1.14029797e+20
1.17450782e+20
1.232589272e+20
1.284421843e+20
1.333045484e+20
1.388554949e+20
1.462145207e+20
1.540058963e+20
1.636808983e+20
1.728916365e+20
1.79642369e+20
1.879692507e+20
1.984354545e+20
2.072101909e+20
2.151212458e+20
2.232780426e+20
2.294102083e+20
2.333803133e+20
2.374267202e+20
2.385502413e+20
2.397683575e+20
2.462635374e+20
2.474407123e+20
2.448367193e+20
2.426666643e+20
2.443790855e+20
2.41060409e+20
2.358034284e+20
2.305957776e+20
1.096980428e+20
1.12127669e+20
1.147072795e+20
1.16018073e+20
1.199294478e+20
1.250026094e+20
1.30059698e+20
1.354511088e+20
1.424755121e+20
1.499784425e+20
1.577251384e+20
1.642939528e+20
1.74883434e+20
1.85727156e+20
1.952480663e+20
2.060390115e+20
2.136841138e+20
2.19407069e+20
2.251663688e+20
2.314972442e+20
2.373234936e+20
2.422033412e+20
2.440970352e+20
2.452596075e+20
2.480081698e+20
2.460771564e+20
2.460789875e+20
2.45526133e+20
2.415382106e+20
2.359138583e+20
1.056748956e+20
1.058261596e+20
1.082981817e+20
1.097597415e+20
1.130075515e+20
1.165337767e+20
1.21893569e+20
1.27887949e+20
1.330700877e+20
1.382975303e+20
1.456694043e+20
1.549197843e+20
1.612728698e+20
1.691257767e+20
1.7950689e+20
1.877527184e+20
1.972748969e+20
2.060980222e+20
2.134506175e+20
2.227094538e+20
2.277898978e+20
2.315928312e+20
2.363315068e+20
2.420081875e+20
2.453539512e+20
2.452256741e+20
2.450627408e+20
2.442908341e+20
2.423803131e+20
1.042877326e+20
1.055511991e+20
1.069473012e+20
1.104478904e+20
1.114783403e+20
1.141118916e+20
1.175132677e+20
1.21471676e+20
1.249475795e+20
1.302193662e+20
1.356794483e+20
1.4065316e+20
1.466087195e+20
1.536485137e+20
1.616491148e+20
1.718945143e+20
1.832503928e+20
1.939891814e+20
2.050083863e+20
2.077358913e+20
2.162058718e+20
2.274873863e+20
2.318291032e+20
2.370028914e+20
2.378087213e+20
1.043625131e+20
1.055775653e+20
1.069852457e+20
1.074697343e+20
1.090862996e+20
1.104053227e+20
1.116350638e+20
1.133449266e+20
1.176115076e+20
1.214526757e+20
1.249309615e+20
1.309577091e+20
1.383890874e+20
1.460028697e+20
1.52795226e+20
1.602329619e+20
1.676671416e+20
1.778867709e+20
1.859659861e+20
1.026911874e+20
1.028656192e+20
1.033234482e+20
1.045259872e+20
1.060047657e+20
1.070829934e+20
1.088543542e+20
1.106176165e+20
1.135244372e+20
1.156442435e+20
1.212391969e+20
1.250403939e+20
1.288944889e+20
1.342079142e+20
1.012554169e+20
1.016640758e+20
1.023292595e+20
1.032605579e+20
1.046604473e+20
1.052394124e+20
1.06707226e+20
1.090056671e+20
1.003281497e+20
)
;

boundaryField
{
    flow
    {
        type            calculated;
        value           nonuniform List<scalar> 
15
(
1.848317934e+20
1.712089599e+20
1.728043843e+20
1.812278436e+20
1.81118634e+20
1.846988402e+20
1.919542251e+20
2.001924983e+20
2.04385237e+20
2.077422735e+20
2.144421094e+20
2.235825566e+20
2.272719751e+20
2.305957776e+20
2.359138583e+20
)
;
    }
    obstacle
    {
        type            calculated;
        value           nonuniform List<scalar> 
30
(
133.5353077
132.9635233
136.0454796
136.6297769
134.6949481
130.3262773
136.7919927
127.9115749
140.7609396
130.2489257
129.6213883
133.1298941
124.4282486
133.4580316
133.5972081
125.6013881
125.085078
121.0882989
126.6190561
130.7091786
121.9910934
118.6136656
127.1495244
124.6531671
118.5563897
109.5424019
110.4459501
111.7717198
97.42776625
86.58906998
)
;
    }
    frontAndBack
    {
        type            empty;
    }
    procBoundary1to0
    {
        type            processor;
        value           nonuniform List<scalar> 
21
(
3.065556997e+20
2.729307078e+20
2.564355688e+20
2.374720978e+20
2.182042612e+20
1.974331545e+20
1.810493687e+20
1.609983469e+20
1.465112796e+20
1.32243207e+20
1.258626616e+20
1.1892535e+20
1.138958911e+20
1.089963441e+20
1.075821576e+20
1.054441738e+20
1.031688543e+20
1.030240949e+20
1.018103444e+20
1.007821814e+20
1.003553269e+20
)
;
    }
    procBoundary1to3
    {
        type            processor;
        value           nonuniform List<scalar> 
36
(
2.406336549e+20
2.415359402e+20
2.460327946e+20
2.444353408e+20
2.406336549e+20
2.436787538e+20
1.970497993e+20
2.052921825e+20
2.132663901e+20
2.215003284e+20
2.295736418e+20
2.415359402e+20
2.35907663e+20
1.409664278e+20
1.486134127e+20
1.557605042e+20
1.631468749e+20
1.970497993e+20
1.729279076e+20
1.108275268e+20
1.131463374e+20
1.144043862e+20
1.183951066e+20
1.217243471e+20
1.409664278e+20
1.264176229e+20
1.014343151e+20
1.017980148e+20
1.016090007e+20
1.030965681e+20
1.047426156e+20
1.058272559e+20
1.108275268e+20
1.074922469e+20
1.014343151e+20
1.014236712e+20
)
;
    }
}


// ************************************************************************* //
