/*--------------------------------*- C++ -*----------------------------------*\
| =========                 |                                                 |
| \\      /  F ield         | OpenFOAM: The Open Source CFD Toolbox           |
|  \\    /   O peration     | Version:  2406                                  |
|   \\  /    A nd           | Website:  www.openfoam.com                      |
|    \\/     M anipulation  |                                                 |
\*---------------------------------------------------------------------------*/
FoamFile
{
    version     2.0;
    format      ascii;
    arch        "LSB;label=32;scalar=64";
    class       volScalarField;
    location    "0.006";
    object      translationalT;
}
// * * * * * * * * * * * * * * * * * * * * * * * * * * * * * * * * * * * * * //

dimensions      [1 2 -2 0 0 0 0];

internalField   nonuniform List<scalar> 
546
(
935.0869907
915.3116109
897.7881472
878.375426
866.2172565
864.5191334
854.7348476
838.1218701
825.8534734
820.0623922
814.3831461
811.4889844
810.9869356
807.8901901
795.1769003
784.0459128
792.1942653
773.9018498
770.5936801
773.2653558
775.3241271
759.1310302
761.3132664
778.4322553
771.0841806
766.5207427
757.9776039
743.8454159
746.6537426
736.4703447
1025.914553
1008.917611
1002.989821
988.2208528
977.4154732
960.6859088
949.8906301
938.4159325
933.0322372
921.8500058
905.5373978
902.1509985
902.4754328
896.0368662
889.371375
875.6867366
871.8644439
870.2883539
856.2989733
856.3548326
857.9219477
859.2814364
847.1328842
843.3403889
831.199805
825.714561
816.1181096
808.5692078
782.9484485
724.95684
1023.792755
1023.531248
1012.396627
1018.642478
1006.706285
988.9390199
988.7303136
987.0340023
970.3645655
973.3757545
960.8880166
953.9225084
949.4434006
937.1557196
934.458122
925.0618521
912.9801992
912.1013983
907.7531684
911.7949062
900.1687113
898.2405328
879.3497986
882.4979586
883.4093792
864.1348586
851.8889296
825.3847603
804.1138986
748.7500266
1024.752688
1014.693008
1015.216741
997.3833131
1000.090607
1001.296665
985.1520811
985.4602888
978.7677578
977.6932645
967.4802123
964.8411117
957.3014796
948.9986967
941.7350697
935.3781658
931.2375287
925.9709508
926.0712768
921.8455605
913.8535517
915.5538034
908.9971482
899.6092297
893.9781867
879.7407843
858.2442039
839.1278753
805.2265993
757.9598708
1002.986613
994.4749093
994.6563326
987.338182
980.7737571
975.9745023
964.6373954
962.6871577
968.5188525
958.4093708
960.8404003
956.4050249
949.2953128
950.5182699
933.316158
933.844415
931.3882182
938.924
946.0148463
934.514032
914.8265582
914.0591618
912.4226503
912.3905022
906.4648044
891.3129081
872.8123345
842.5283627
812.5987132
759.3309158
972.3055151
972.6970357
973.2753622
967.6675476
952.4030535
941.0979377
941.1350772
947.5480905
945.3992824
938.9340677
936.3607842
941.8036575
941.4469027
943.2596191
931.8040658
933.2188698
923.2422699
931.2667845
923.4387124
924.3179069
914.3004479
907.5693281
900.9601346
900.1577719
899.4432292
887.7551842
864.8135017
840.3275486
819.2830276
766.40461
947.1625842
954.6260768
950.1642765
935.592174
926.3277258
933.5825742
926.1128963
927.6997196
920.941941
922.8762604
920.7510746
918.5342596
913.4926013
915.1118493
919.9835218
916.7951285
921.0994071
919.9806957
918.0805262
912.63107
910.0976692
898.0156868
897.5556052
889.2420212
884.4007816
863.3399941
854.5902252
843.6012737
812.6682995
776.731496
904.0117367
914.2013767
912.6312271
923.5284893
911.6975097
915.9020562
913.0868292
902.5862002
901.4609158
900.7711732
899.0843481
895.3222795
894.1656414
898.934956
898.4664618
901.0621972
902.9980336
895.2338084
900.5109677
897.9911824
896.9179061
894.7605744
889.8738284
874.9676046
876.0529755
865.2174833
847.8239019
823.9251356
804.456852
773.7001765
849.4701594
878.4736526
882.2594328
887.5316094
892.0233414
891.9033528
894.8817226
888.1387219
890.522869
879.6509138
875.2682866
885.0453333
875.8187939
877.3419609
882.1220388
880.684304
881.1572654
876.7649325
869.7441195
872.9678972
864.0372419
865.5126787
867.3891457
857.573148
861.1570618
862.1933704
844.8397513
830.5563835
813.4676319
783.4434412
789.7872403
817.6304392
842.5598994
863.5227031
869.3439513
863.4168944
861.1442505
871.1045074
870.7514656
874.0663486
864.0499092
871.489961
861.8897149
872.0503391
860.2869344
856.9922669
860.1031173
856.8077735
851.3595595
848.3404734
854.0993255
853.0636069
853.7633609
847.5326526
851.1881304
847.363439
835.1048696
822.4562292
804.4250611
785.2411203
705.3743146
748.3161142
779.4104109
808.5332407
825.6779769
837.0212747
844.5852585
849.207411
852.3374968
856.7279063
851.1062251
845.7946929
853.4721987
855.2924477
851.1982888
848.8682001
843.169795
852.6163872
845.9242338
840.5648862
851.8998823
849.3907595
853.3083655
845.7512612
831.3548448
839.344029
834.9418505
811.9947885
798.2518467
780.8741345
644.9604657
691.2568221
708.2709627
742.400954
763.745822
789.3876131
812.5419643
819.3228184
831.5400708
831.5317232
828.5298577
830.2294372
836.0233665
842.0250037
843.0807378
830.6147063
831.2913343
833.6361058
835.5994362
830.5754239
832.5825726
836.806511
831.0255441
826.8195576
822.5028138
817.7714888
816.3886111
800.9932912
791.5685971
773.2886911
573.4874312
611.2260144
654.3058995
682.6532231
711.1876173
745.9959465
766.8066556
787.0246116
798.1605148
810.1398268
813.9973064
818.419435
816.2816589
819.7262538
823.1530096
827.4325027
820.011676
823.3939169
819.6997071
820.0696373
821.6533847
827.9478624
820.757915
833.3166644
817.6151478
806.2898598
802.0242573
794.2547911
791.5192383
774.339367
516.1282703
549.6338053
585.2826844
613.3076136
660.9416117
697.5608563
710.8198316
734.4450598
748.7915148
770.0246771
780.9052579
792.0741146
797.9807485
807.0027522
808.0315021
811.9667191
819.3594978
809.9259703
808.6832802
806.8606318
799.6250421
803.5606795
805.6486447
803.1966044
801.9026398
793.4125356
802.8517328
799.3503549
782.2064309
764.8625927
468.0361153
488.9097092
521.5390589
548.9804368
594.1244447
624.4579934
648.8876709
683.2522364
709.4679847
728.0738821
748.1688591
758.1981535
772.7668423
777.6370875
781.7087734
790.9107293
794.7463745
791.7822038
788.7216446
787.8331174
788.0078634
790.000096
790.2365211
789.4319645
793.2155495
782.6963426
778.233823
782.1159534
776.0164819
758.2724721
436.4987831
455.5053351
480.9861818
503.9094692
532.1752328
562.9724127
599.6536073
635.1418471
657.0329743
671.373176
694.1773278
722.3019622
726.9947108
739.4700268
765.2427598
768.3298684
777.9806856
777.6115828
784.4627158
779.6912412
775.0313811
774.0235163
778.9378768
778.0716648
778.4952118
768.5183505
763.8201249
767.9441368
759.6572527
405.175418
414.1630312
433.4972309
462.6722387
487.3697937
507.129309
539.5987943
570.8168836
609.3209593
631.7305645
661.1101827
687.3051388
702.3588649
715.5228924
737.4125215
748.9223893
762.8163388
772.3182971
777.0915874
768.5441825
762.4163875
772.135319
767.2971565
775.4883697
765.7952047
382.3819164
388.3316557
413.2279519
432.3744145
448.6931127
466.3919969
487.445415
519.5971912
544.9339091
584.0661568
610.0057499
626.8838726
657.5838161
682.8782612
701.0309167
722.0195298
735.9441182
748.942041
750.287621
361.5792704
373.9213167
374.6817087
399.0984654
428.2033974
442.7085493
452.8803478
475.4494993
505.5541634
522.6142616
560.3445609
586.8113662
603.8521232
630.6115052
350.7335151
351.5194077
356.8269981
366.4262401
392.5493055
414.4170681
417.4334939
432.1918017
333.42399
)
;

boundaryField
{
    flow
    {
        type            calculated;
        value           nonuniform List<scalar> 
15
(
736.4703447
724.95684
748.7500266
757.9598708
759.3309158
766.40461
776.731496
773.7001765
783.4434412
785.2411203
780.8741345
773.2886911
774.339367
764.8625927
758.2724721
)
;
    }
    obstacle
    {
        type            calculated;
        value           nonuniform List<scalar> 
30
(
800.8315061
815.2633457
778.9862545
772.8760428
748.6569358
757.1015086
750.4585841
758.2899377
703.6901981
721.5234594
742.5129486
728.5391711
725.6857029
725.5419997
707.9317531
712.4383796
720.6747345
700.9109173
682.5908614
694.7389135
709.8320488
699.1750801
677.543928
710.6108511
702.0944924
725.6045127
725.8010044
690.9916006
692.8423701
718.8564472
)
;
    }
    frontAndBack
    {
        type            empty;
    }
    procBoundary1to0
    {
        type            processor;
        value           nonuniform List<scalar> 
21
(
950.8991053
1054.265936
1042.877956
1044.58036
1014.647842
986.7854953
945.8855498
888.4533252
825.8513744
752.3551322
668.9789823
600.5994789
543.5155566
493.0248751
448.1630637
413.6058128
384.6916604
360.3687179
348.8421026
335.6053293
325.8546058
)
;
    }
    procBoundary1to3
    {
        type            processor;
        value           nonuniform List<scalar> 
36
(
754.5075389
766.1336774
765.8136839
760.3149585
754.5075389
753.1719852
758.7819027
767.0777683
768.2436091
754.9223341
762.620777
766.1336774
762.9990519
657.7505649
686.7393189
694.7557647
718.2734954
758.7819027
727.4046516
459.2797155
482.6350806
500.2811973
542.1629556
560.3993572
657.7505649
585.736715
336.0129904
342.4454709
349.9393763
369.8792732
388.7665012
394.6444494
459.2797155
410.2217117
336.0129904
323.5288641
)
;
    }
}


// ************************************************************************* //
