/*--------------------------------*- C++ -*----------------------------------*\
| =========                 |                                                 |
| \\      /  F ield         | OpenFOAM: The Open Source CFD Toolbox           |
|  \\    /   O peration     | Version:  2406                                  |
|   \\  /    A nd           | Website:  www.openfoam.com                      |
|    \\/     M anipulation  |                                                 |
\*---------------------------------------------------------------------------*/
FoamFile
{
    version     2.0;
    format      ascii;
    arch        "LSB;label=32;scalar=64";
    class       volVectorField;
    location    "0.006";
    object      UMean;
}
// * * * * * * * * * * * * * * * * * * * * * * * * * * * * * * * * * * * * * //

dimensions      [0 1 -1 0 0 0 0];

internalField   nonuniform List<vector> 
546
(
(378.1030301 104.6926655 1.435579707)
(357.6644765 104.5872665 -0.1772470104)
(346.5216071 97.59833154 0.8478697341)
(330.2543874 92.06338771 -3.19950542)
(325.4811215 89.07682159 0.2965192456)
(319.9476107 87.76364699 -8.165785617)
(312.9183527 84.3741548 -5.892876352)
(304.6415494 84.60730992 0.8551542435)
(289.9721015 81.79644049 0.5741696366)
(281.0838861 78.07674414 2.801566071)
(274.2446566 78.27346779 5.093094426)
(265.7132523 70.36684337 -3.003783434)
(264.1556398 75.57072954 -4.635741681)
(252.1527349 68.3861999 4.564141202)
(244.8535824 68.37094678 -1.816010621)
(241.8977054 65.98219414 -5.368351173)
(239.9351637 67.56332936 -3.436766298)
(239.7021308 62.70324622 2.19660836)
(230.7253514 63.87905547 0.9943591848)
(226.6798893 62.41323433 1.859882472)
(232.6398045 58.98465344 -1.010014718)
(233.8329902 63.7160549 0.5774335596)
(225.7716375 62.58484465 9.826084515)
(238.2693004 59.3176438 10.35733678)
(247.6098948 63.56936761 -1.950883568)
(251.3776872 68.20629143 -2.663288591)
(254.8147666 68.32350957 4.205035142)
(268.720121 70.28177488 5.601440442)
(303.5984892 74.58975704 10.53987972)
(405.3106531 76.67011056 -3.110152185)
(643.4500538 200.3172575 -8.750504835)
(621.0317587 190.9405903 -7.074472171)
(600.7063073 179.1758701 1.979382064)
(577.337279 171.7886521 -0.6881650686)
(566.8749473 162.1657631 1.055438392)
(550.5566877 157.2876105 -6.264029423)
(530.8373883 152.7978028 0.1856808273)
(514.3690353 148.0834488 -3.196952795)
(503.7409035 150.1860109 -5.464387649)
(492.2687917 143.5057191 -2.152999509)
(477.9403361 143.0626003 2.454747772)
(460.8362913 134.8651922 -1.051523536)
(447.9428636 133.2080725 -1.541590619)
(432.5422348 122.8756921 5.768423892)
(420.5069135 119.4318865 5.98100735)
(421.1829088 121.1983465 0.6833526218)
(417.7713693 118.3338497 -4.559176428)
(400.6910804 110.1603742 -0.5272341063)
(397.6202592 114.4614142 0.821042704)
(397.3109264 106.8480125 6.118917695)
(395.3642595 102.0571632 1.369707395)
(385.4577313 106.8407213 7.517172522)
(390.2013053 105.2370794 -4.547231279)
(395.6759505 98.40749899 6.483532325)
(397.188719 109.8192247 0.6516061699)
(398.5228861 104.789879 1.943623326)
(413.6778308 110.4824698 8.223379558)
(435.0750598 105.9184985 3.957788936)
(483.5927565 116.3263796 2.037103925)
(611.2994319 88.76371701 -3.641842761)
(840.3196409 269.6821342 -10.40183752)
(813.4722096 255.2109421 -9.719626409)
(796.2324402 252.1504183 -6.457202054)
(773.8248188 238.9370905 -8.025820705)
(753.2148063 229.0944779 2.295812038)
(727.1984834 224.2417354 -6.305140727)
(709.4568049 216.9864976 -10.02265549)
(689.5315333 210.305434 -13.17520786)
(667.411343 202.9522219 -6.218907307)
(656.4708817 198.2238639 -1.5090141)
(639.9464859 198.1969134 -4.253115747)
(616.7155879 188.6882853 3.086245673)
(603.1182376 180.3066718 5.350998759)
(584.3356614 175.2566599 3.758508156)
(572.9860487 170.3106538 3.546054574)
(580.0319645 167.0276001 3.119379867)
(566.3751294 165.004759 -5.698505081)
(557.1287506 158.7229299 -2.053265528)
(550.0577389 158.478352 -2.550433779)
(540.4913085 149.693375 4.795658072)
(537.5736069 148.8584715 -0.3330496341)
(536.1061598 140.8919137 -4.43423571)
(516.5347864 144.1362861 -0.3199999323)
(521.0557148 144.1057879 -1.043522646)
(529.2365711 142.1974321 0.5946820595)
(528.4232613 140.5469087 6.178724989)
(535.9502492 142.2348574 3.949934947)
(565.7575037 141.6179875 -2.514681527)
(623.2260658 136.775018 3.134224483)
(723.3964878 103.4306791 -0.4503494706)
(992.453562 314.899149 0.8866243926)
(975.0934874 311.4141153 -2.276869019)
(936.3788182 307.9900075 -3.167616435)
(922.0547061 303.3543705 -4.704236621)
(905.7993446 293.1144634 -4.215227235)
(891.3432997 274.6808623 -4.136713137)
(871.2137012 274.6055739 -3.721977815)
(845.5380852 267.3052362 -1.022561328)
(810.5529056 259.2184147 -4.078809469)
(794.6758584 250.5106221 -2.474286734)
(783.5042054 242.8544695 -2.739140609)
(760.4543512 238.3674719 -3.270846272)
(745.6973801 231.4856458 -5.857760273)
(733.2674207 225.777569 -5.151383484)
(721.0628829 219.9392674 -0.4324990863)
(714.0479482 207.5607066 -3.712863842)
(709.1217369 207.899133 5.897679895)
(688.1357763 203.4245025 -2.800039141)
(676.5268367 202.2572619 -6.229804676)
(663.7540323 192.1575086 -2.034321396)
(661.3056849 181.6623072 7.309761938)
(642.3097532 177.2724643 1.778031954)
(635.5654989 183.6486704 -6.28447943)
(633.6054081 183.239187 0.3140781843)
(639.5885146 174.6013819 3.355216657)
(647.4678966 173.3176203 1.281789353)
(646.3371388 171.8053431 0.05865512596)
(686.9087769 164.3202627 1.95475297)
(725.1398728 156.515957 -0.3412136031)
(796.4541059 132.1979037 6.821821317)
(1106.968636 345.071171 0.9153897037)
(1086.899053 343.4804089 4.026604878)
(1062.486158 346.0620196 4.10097995)
(1042.882206 338.6897862 -1.117967373)
(1016.290061 327.9078276 -1.940738438)
(1000.872398 326.7398327 -0.04117498894)
(989.8170416 322.8669308 2.728292171)
(965.3588175 313.3693934 -3.504528949)
(938.0589463 307.4186967 -10.20121341)
(927.7627266 297.0662812 -3.49341037)
(905.3127864 292.6741098 -5.383190314)
(888.7785659 280.6338176 -0.82548815)
(873.6804672 272.8768543 -4.064888196)
(854.374104 272.1704081 -1.576688767)
(842.6187659 264.4420008 -2.112706789)
(823.3569034 250.9815309 -3.121960138)
(812.0646472 243.8317392 0.3807771711)
(793.078802 245.1829911 1.151748333)
(778.6064876 231.8933632 -1.685528577)
(766.1636145 227.9815146 -1.622228729)
(763.6069714 225.6537726 -0.3963161049)
(752.8019053 219.6512438 -5.970529773)
(748.4263871 215.2512203 -2.224721812)
(739.3692559 213.8185999 3.984353056)
(744.6239816 208.0155979 10.63390552)
(745.2660423 204.7899305 0.3132886375)
(753.9439834 198.2026279 -1.01165978)
(779.911926 189.3315998 -3.144028382)
(807.6029907 176.3624594 -0.7616884473)
(864.4112401 161.1442955 -2.505456497)
(1185.9291 349.2192032 -1.462967589)
(1163.87431 355.9944927 -2.463054858)
(1146.253002 355.7778991 0.7442918915)
(1125.505538 360.5454701 -2.262189707)
(1108.278076 360.4147453 -1.528502348)
(1090.673791 364.0867399 1.232067145)
(1082.26813 351.5163258 -0.3573537254)
(1057.645906 341.3512769 -0.403780244)
(1037.66823 339.5828612 -2.251441907)
(1024.458315 340.0704066 -1.21375762)
(1007.461283 329.000514 -1.26586486)
(992.5346049 320.3941591 -1.970384141)
(974.5643204 315.571806 -1.572364231)
(955.632974 308.6943392 5.930949279)
(941.3890687 300.1958581 3.321549151)
(922.2960904 292.647986 1.458026402)
(919.4002753 287.0282006 2.380501135)
(896.4215378 278.9220289 3.943735605)
(881.9428699 274.9109902 2.118184406)
(869.2774353 263.6340246 0.5740990385)
(852.3153846 262.6499131 -2.676676147)
(854.350861 255.4490994 1.831943296)
(846.1993774 249.2549109 -8.42112119)
(827.3166876 242.3466014 1.965919382)
(827.2411822 234.8419883 4.764209932)
(835.0720926 232.859475 2.274091232)
(844.3096293 226.1233409 -3.540115252)
(860.2483571 216.9898295 -6.095685889)
(880.1344397 205.2336514 1.554312039)
(941.8732706 189.7914797 -5.596471428)
(1271.982746 337.709611 -0.8590051092)
(1243.320576 352.4844713 -1.17035116)
(1223.489404 364.0051465 -8.03281654)
(1204.776848 373.1930946 -4.862104874)
(1188.199844 371.571896 -2.832176829)
(1168.407092 376.6794511 -6.669862282)
(1159.15049 376.2607933 0.1042330815)
(1140.239652 375.1478622 -3.69738569)
(1134.698872 364.914598 0.2270066468)
(1111.140433 359.5470844 1.992379207)
(1084.557477 362.4467445 1.56811456)
(1062.871311 354.278176 -2.745281257)
(1056.060162 343.7431737 -0.7728825149)
(1037.945046 341.8325101 -0.8770439043)
(1024.772867 335.8185527 -4.722915892)
(1013.478261 330.9779385 0.09785242473)
(994.2701294 314.2248168 -1.242186833)
(975.1522562 308.3311892 -0.3729221218)
(963.4760245 306.0157216 2.619008247)
(951.3611081 302.9356212 -1.589324977)
(949.6018054 291.8482919 3.333840485)
(942.7539885 292.0583477 -2.207628638)
(937.2786229 276.4232664 -2.506231363)
(930.1814524 269.5432654 -4.733644402)
(923.2725292 273.9744968 1.322924985)
(923.7650252 263.6155029 3.156672108)
(931.7806508 256.0932109 8.391072577)
(940.255149 243.2120506 7.430599723)
(958.6564422 237.1982841 5.120737945)
(994.000669 220.9335101 2.092800429)
(1336.818913 309.9080943 -2.773751208)
(1308.622821 335.382255 -4.100023115)
(1296.776447 350.7987215 -2.449686229)
(1276.043883 363.5347982 -1.619843602)
(1262.475289 367.0507096 -4.58386629)
(1236.992949 382.3559656 0.4441512878)
(1219.387988 385.0123586 -1.102347641)
(1204.167417 386.9735411 2.803921507)
(1192.18139 387.5770626 -0.2524237365)
(1180.810241 384.3082201 -5.782644231)
(1159.817027 380.9019325 -3.375409625)
(1138.941414 376.3291868 -0.6717723969)
(1130.431657 374.6994792 -1.974478874)
(1108.841123 373.6804644 0.5703598509)
(1095.872723 362.3227001 -0.3311747719)
(1088.150578 355.4770938 -0.283307968)
(1067.083877 346.9966223 3.982285133)
(1053.247716 340.9052808 -1.280623616)
(1043.96207 339.1773343 -0.4291439943)
(1036.6447 328.477154 -8.041999094)
(1021.861722 321.3677693 -0.01905374302)
(1020.462864 317.1685263 1.775365557)
(1010.163873 307.710658 -2.008435361)
(1009.213645 298.2473645 0.9595371191)
(990.9908991 297.9398752 -3.112122025)
(983.9170373 290.1792419 5.912104203)
(985.8475188 281.0109731 -1.253825083)
(1002.256623 271.3026247 1.598414291)
(1012.906436 265.2580724 2.20394703)
(1035.864256 245.8066338 -0.8119679009)
(1416.652808 273.824202 1.843238163)
(1381.52809 301.7297692 0.7630287273)
(1357.628167 322.8814636 2.883067551)
(1334.820552 346.6488277 -1.381372702)
(1316.808189 358.271383 3.649136045)
(1292.282381 370.4085337 -1.716020258)
(1269.793686 383.6114477 -3.073359189)
(1259.305869 387.1739794 -1.028628276)
(1243.419315 400.5831447 -0.7533872936)
(1235.186669 395.734331 2.27404126)
(1225.636526 398.3457097 -1.69228788)
(1202.430615 398.9191023 8.112098603)
(1190.802891 391.1723124 4.065965524)
(1175.093719 389.5324661 -3.043807967)
(1162.73455 380.6641368 -0.5170486713)
(1143.754153 378.6488823 -0.7923985716)
(1133.125238 375.1869457 -3.105525103)
(1126.286676 366.6852179 -0.9058128141)
(1109.693497 359.8568921 1.954291077)
(1096.059799 359.1989223 1.731469413)
(1080.430787 352.5576562 -5.974873625)
(1074.026101 342.4432347 -0.5849091036)
(1067.178157 335.3187513 -6.184740097)
(1069.433492 326.6918478 1.052881797)
(1055.797983 319.5994639 -1.38747374)
(1047.95845 315.0305422 -6.275469269)
(1050.545995 307.5381895 -0.8137434425)
(1060.575072 299.5713024 -2.772502024)
(1068.684858 287.5647939 -1.281690517)
(1090.663203 273.0941835 -0.8286090803)
(1475.203881 230.555109 0.8456468864)
(1448.425497 258.3321788 6.105975502)
(1421.10279 291.3324072 7.442443893)
(1391.981076 313.7437016 6.876971087)
(1368.138367 340.1180646 4.378589287)
(1354.512717 356.944137 1.089648939)
(1331.2767 365.6539509 0.4343296328)
(1314.329851 382.2941349 -2.029709127)
(1298.25632 387.276866 -3.676013744)
(1285.257078 397.9484332 -1.090416035)
(1274.666729 399.0102124 3.805765325)
(1252.181178 401.5542849 -1.215464496)
(1244.537708 402.1830405 2.35608389)
(1220.278706 402.551784 1.590178491)
(1208.392169 399.879964 0.45746509)
(1199.957093 398.6423609 -2.708122378)
(1191.72603 396.149348 -3.71005443)
(1172.918091 395.2348081 -3.275527783)
(1170.438676 386.1784989 -7.428939921)
(1159.363364 380.2298427 -3.465510541)
(1138.746488 372.7923165 -5.795034411)
(1128.762286 366.173367 -0.9236624027)
(1123.375388 360.6021992 2.114166378)
(1124.2166 351.0075169 -1.939889249)
(1115.733246 344.4373642 2.091328777)
(1105.521024 341.0422339 -4.146453849)
(1103.242206 337.1690864 -2.22301442)
(1107.494982 325.0810673 1.479628985)
(1116.377849 309.3573764 1.153012665)
(1127.967936 296.1296768 1.130664692)
(1528.766641 188.1961052 -0.140581776)
(1493.172312 218.6898417 -0.3703717133)
(1468.395654 245.2386745 -6.037120222)
(1450.060387 277.1648187 -1.651233838)
(1422.809966 298.6424389 3.79624767)
(1405.624482 320.6823428 11.20693777)
(1385.053312 345.0714151 5.505976023)
(1363.381796 361.2572565 9.286704995)
(1345.982078 375.3484748 2.300993659)
(1323.028351 382.8747822 -3.114271972)
(1311.964878 393.2735303 -2.091247031)
(1301.963099 403.7630305 -4.032476968)
(1288.34895 412.2922691 -5.585092892)
(1270.911176 415.1544761 -2.926936204)
(1261.205497 413.8470346 -1.723032424)
(1253.791643 406.3319413 0.4094609347)
(1241.855332 414.4173536 4.19243511)
(1223.645624 410.2419573 2.393434277)
(1211.076795 407.7475842 1.214984064)
(1210.184038 399.2276242 3.848205881)
(1191.854129 392.3884323 1.737534602)
(1184.067185 387.9004711 -3.868367241)
(1173.300667 383.5035572 -0.8599169272)
(1163.959547 376.993202 2.50004334)
(1165.930655 373.8827107 2.800317973)
(1157.380854 362.8344571 5.144116559)
(1149.321205 351.9972293 2.537555828)
(1150.65599 343.4427327 4.910011051)
(1158.408771 334.3134587 2.275769319)
(1169.070848 320.5414463 -0.8056265961)
(1571.163683 149.1712557 1.791503557)
(1543.23721 180.0611646 1.473034894)
(1526.531163 204.8002688 0.9404069527)
(1498.775345 229.6940278 2.344749164)
(1483.536296 261.8934883 -0.006717264459)
(1456.29996 291.5958391 -0.7151936502)
(1429.070572 311.2639727 4.867585219)
(1411.319895 323.309965 2.182435444)
(1396.228286 346.2600078 5.620792355)
(1375.822868 368.8045834 1.504724709)
(1365.395709 388.182182 -6.243484732)
(1345.017308 394.6752666 -1.431199868)
(1328.123638 406.9048515 -1.517890593)
(1315.467038 414.7176145 -0.5739749584)
(1305.391955 418.5172489 3.425331168)
(1294.241842 419.5919742 4.749680852)
(1286.177274 421.5599682 4.101294109)
(1270.275261 417.8647068 3.154082889)
(1258.914866 418.4980934 2.587257178)
(1249.661646 413.4843415 2.946420867)
(1237.278745 408.4082904 4.878124498)
(1219.596007 408.5560467 7.006131332)
(1215.581223 404.2959831 3.813138919)
(1205.626255 396.0588356 3.491963124)
(1203.801861 386.2387985 3.896430763)
(1203.274574 378.0163472 1.816016012)
(1195.89653 372.2974863 2.007378444)
(1198.928095 363.571981 0.9284601972)
(1188.816452 356.7251476 3.962331103)
(1199.42507 340.1365562 1.89807364)
(1619.003246 112.7676028 -4.60318818)
(1601.184346 139.7485996 -3.535344801)
(1572.573401 168.0412574 -3.695126745)
(1549.386265 191.1828846 -0.02360631047)
(1528.434083 217.2959142 -3.155431599)
(1503.987273 246.6491702 -2.535489839)
(1479.181312 270.5511328 -3.721911728)
(1461.933102 298.7116806 -3.786911423)
(1442.596082 328.3345033 -3.566596496)
(1424.685707 345.3136143 -0.2176698599)
(1410.730499 362.3984112 1.256922044)
(1385.366278 379.6119067 -3.308837656)
(1367.430017 388.4151952 -3.126183032)
(1348.462485 403.5467283 -2.024098745)
(1335.439958 413.4634409 3.353081794)
(1327.467697 420.8448065 2.542529859)
(1315.843618 420.3657586 0.04445105645)
(1302.0531 424.0377119 3.287889901)
(1294.246036 424.6099685 1.323915188)
(1285.452159 424.6634188 3.160754694)
(1282.028833 421.2044364 1.098644798)
(1263.467958 422.372258 0.2447795603)
(1259.856912 416.1054303 1.185544882)
(1246.759433 406.9249589 4.165797802)
(1245.517936 402.5553366 2.252858913)
(1240.653337 399.063692 -1.761571743)
(1231.2838 394.5526143 4.063659663)
(1230.248362 381.8911398 5.516107757)
(1235.282031 368.8305135 4.739900059)
(1241.815429 359.6196734 9.896069125)
(1642.922236 91.32139788 -1.782139599)
(1627.433759 105.6968166 -3.273360633)
(1610.215564 126.2895281 1.719272372)
(1593.319588 148.7601642 -2.746581577)
(1569.007555 177.9132722 -5.251181222)
(1546.14791 203.4364615 -4.281558711)
(1526.033781 229.0251906 -2.736012362)
(1500.162897 264.8110532 -2.943333924)
(1480.825513 284.0551372 -1.752638663)
(1455.204524 311.344541 -0.9347837707)
(1440.309951 324.8464869 -1.884049714)
(1427.914212 345.8453999 2.225377372)
(1408.497837 369.7149301 -1.001210149)
(1385.487776 386.6006959 -5.924625411)
(1365.475213 402.6861525 -5.653188908)
(1358.345451 410.0805598 -0.4799477041)
(1347.579843 416.7409142 -1.349210345)
(1336.867627 418.9854834 -3.238765062)
(1330.988466 425.5883445 1.348235983)
(1322.095713 429.0704133 3.401696689)
(1317.759627 426.9203913 1.934948848)
(1306.479964 426.5687144 2.135290272)
(1290.81328 425.7076319 2.255800078)
(1276.995861 420.176982 1.857094036)
(1275.904137 417.8125682 5.180575611)
(1274.269692 412.4697251 3.626225575)
(1268.616254 405.1756473 -2.665906451)
(1262.762633 397.0853998 1.598747005)
(1265.908609 386.4976719 0.6183944342)
(1271.797161 373.9499973 0.9111180979)
(1670.474101 66.98181647 -1.337994326)
(1657.311511 81.24128756 -2.221596147)
(1641.61806 93.37602773 -4.27828341)
(1626.067215 116.5829234 -2.983811092)
(1605.172693 146.7693503 -1.975289591)
(1581.493463 171.467086 -2.845209347)
(1563.794555 191.654574 -3.703779794)
(1543.535688 221.5873947 -5.96380652)
(1519.591813 241.6007818 -4.649927161)
(1499.428991 263.1340546 -4.262475358)
(1477.025519 297.5481774 0.3198802215)
(1461.358721 319.0242797 2.14885994)
(1440.459177 336.5642496 -0.2752601153)
(1424.568902 356.2063402 1.444286317)
(1413.16177 369.5323424 -2.012068619)
(1392.476856 388.3233526 -4.375255977)
(1381.536392 401.1133593 -2.409257862)
(1373.416427 414.0149347 -0.8906344247)
(1363.567271 420.230777 -2.15862753)
(1349.139229 423.046593 -0.5232976212)
(1340.291374 425.1808254 -0.746958273)
(1333.751284 425.3399148 0.9020630006)
(1323.623178 428.5593673 -0.01582966323)
(1316.966679 431.6775205 3.129323873)
(1302.740312 424.4175867 -0.1162451439)
(1304.147431 418.3705742 0.8659762319)
(1295.693059 415.8948283 -0.7818938497)
(1287.462762 409.9006794 2.534945459)
(1289.890363 403.600178 0.4832595444)
(1296.941811 396.1856289 -2.126769106)
(1677.149433 54.24501944 3.01486871)
(1669.476642 65.12026249 2.516985002)
(1662.980239 81.76553977 2.140539484)
(1648.699285 96.90663427 0.6131047971)
(1636.890529 107.9057371 -0.3483210698)
(1617.976009 130.9758012 4.824026998)
(1595.696863 154.8028758 4.641673227)
(1576.043661 174.7651598 4.145550341)
(1560.715529 200.8110689 -0.1145988434)
(1544.393298 226.1279447 2.061640297)
(1525.515405 253.2572937 3.999275814)
(1505.369172 277.7284819 -2.019942812)
(1491.204407 297.809603 -1.544675015)
(1477.902641 319.6070287 2.398863042)
(1445.832337 347.7689885 0.324129486)
(1426.476251 364.5224787 1.046367294)
(1407.154269 382.738483 3.407682142)
(1395.122356 398.3663791 1.264383893)
(1385.396718 404.8324694 -0.3303843102)
(1375.43581 413.132017 -3.745674953)
(1370.17305 423.5821115 -1.872561481)
(1357.806364 432.4529454 0.3780975944)
(1348.337626 432.8178297 0.07473983925)
(1333.363759 430.892454 -0.8142601152)
(1333.124567 429.9660165 3.444346746)
(1330.165518 431.2009015 6.055258521)
(1321.146174 426.524929 2.262967452)
(1318.010226 422.8021873 -0.1375230046)
(1313.022888 419.2878143 1.264316426)
(1696.766746 45.241925 2.208507609)
(1693.079108 52.8120096 -0.4828024028)
(1682.791137 61.09539579 1.565630502)
(1667.649733 71.40908093 2.870515784)
(1658.498234 86.88271151 4.69944049)
(1649.452893 100.4065094 1.508535016)
(1634.7388 119.6254911 1.09916739)
(1619.941754 138.7369361 -1.382076073)
(1601.353891 167.6341951 0.1676616764)
(1584.974355 187.173519 0.7003675259)
(1562.155535 213.5544995 -1.281699019)
(1542.627045 236.5469846 -2.062072529)
(1524.470626 270.0051786 -4.548560831)
(1510.419795 287.2374839 -1.573267525)
(1485.665157 311.149748 -0.6560257376)
(1466.449936 334.9991651 -5.48981963)
(1446.622672 350.0114415 -5.594367053)
(1426.451776 371.6688285 0.8154607819)
(1413.821769 388.1964262 -0.2676725671)
(1412.447779 401.4640412 -0.8827110369)
(1399.83543 413.3799871 -4.145162406)
(1384.054975 416.2922836 -1.281182267)
(1375.881455 422.8264629 0.3734953253)
(1363.215653 432.4197071 0.0916603123)
(1363.076732 432.2178816 -2.025450904)
(1703.430484 33.82290046 -2.412934931)
(1694.760293 37.46918911 -1.827088133)
(1684.513609 46.24723477 -0.7572565759)
(1678.518941 58.56392329 -0.608087452)
(1672.562459 68.01599811 -0.3610918536)
(1667.501739 77.77898732 -0.07496346566)
(1661.118973 90.50819287 1.083827953)
(1648.255282 112.1192828 0.6302742402)
(1630.763609 127.8776187 1.991259833)
(1612.290751 158.7569144 -0.8742225314)
(1595.244646 181.5673102 -0.1752941801)
(1581.094859 197.9012727 0.6089541352)
(1560.88387 223.1176846 -0.2766592956)
(1542.773663 247.7191942 -3.82958873)
(1524.337142 271.9905731 -5.889102648)
(1504.399024 294.9625999 -1.496968692)
(1489.902676 314.6354271 -5.478601723)
(1466.169945 341.5678412 -5.894664697)
(1452.577402 363.552834 1.850498043)
(1707.536799 23.82303181 0.4584637635)
(1704.191953 27.46871958 1.860509892)
(1708.45527 32.72326495 0.3706431162)
(1697.277253 43.41402267 0.3199397691)
(1684.808969 55.45988647 0.816547319)
(1675.87436 61.32872554 0.6681412852)
(1669.497655 74.41278623 2.465106826)
(1658.222854 87.21903609 -0.3695293405)
(1646.217867 103.9335227 -1.108588305)
(1638.625306 115.4735621 -1.513254031)
(1623.381975 140.8542559 2.591372608)
(1606.720187 164.1659953 1.07573118)
(1593.71848 180.5982164 4.337408363)
(1574.729548 205.496317 4.316189995)
(1719.60085 19.35498503 -5.1533697)
(1720.673348 23.20902218 -4.148534841)
(1715.671452 30.43428403 -1.984874925)
(1708.089111 31.29951865 -3.687520296)
(1699.966392 44.34209871 -0.3407384113)
(1692.785142 54.88402036 2.010349398)
(1687.703479 58.19383524 0.0269845561)
(1678.972757 65.51635462 0.6769983281)
(1724.168795 14.09115135 6.916616139)
)
;

boundaryField
{
    flow
    {
        type            calculated;
        value           nonuniform List<vector> 
15
(
(405.3106531 76.67011056 -3.110152185)
(611.2994319 88.76371701 -3.641842761)
(723.3964878 103.4306791 -0.4503494706)
(796.4541059 132.1979037 6.821821317)
(864.4112401 161.1442955 -2.505456497)
(941.8732706 189.7914797 -5.596471428)
(994.000669 220.9335101 2.092800429)
(1035.864256 245.8066338 -0.8119679009)
(1090.663203 273.0941835 -0.8286090803)
(1127.967936 296.1296768 1.130664692)
(1169.070848 320.5414463 -0.8056265961)
(1199.42507 340.1365562 1.89807364)
(1241.815429 359.6196734 9.896069125)
(1271.797161 373.9499973 0.9111180979)
(1296.941811 396.1856289 -2.126769106)
)
;
    }
    obstacle
    {
        type            calculated;
        value           nonuniform List<vector> 
30
(
(202.7393226 54.32383786 -2.454723408)
(184.0511256 49.31635055 2.63986712)
(190.4265249 51.02463341 6.844770731)
(180.048172 48.24376237 -6.451916795)
(157.8666959 42.30025354 2.846446907)
(174.6248426 46.79058565 -2.062077931)
(163.83614 43.89976148 3.290979601)
(149.6633634 40.10217724 2.328039599)
(176.1843746 47.20846097 3.548007421)
(153.7161119 41.18810813 -23.95822423)
(168.2080861 45.07122069 -2.671501387)
(130.9699045 35.09328022 10.71770366)
(152.0444607 40.74019054 6.09628431)
(143.3270669 38.4043717 -4.455290752)
(113.9714033 30.53854554 21.21530519)
(139.0888225 37.26873754 -10.12655726)
(126.370935 33.86099004 5.738925081)
(144.5654533 38.73619655 4.720411062)
(133.4353712 35.75389984 -7.511850307)
(157.9091362 42.3116256 25.40066609)
(137.5497162 36.85633544 0.3498162054)
(133.7931322 35.8497616 -1.716478165)
(139.1634075 37.28872271 -5.941402073)
(146.2432726 39.18576686 -4.041946601)
(140.4944117 37.64536405 13.74248947)
(146.0975198 39.14671253 -0.7718493086)
(145.7762206 39.06062047 8.967579577)
(172.6292798 46.2558762 -12.59828116)
(190.1452655 50.94927044 -0.9093699843)
(222.1296673 59.51946477 8.906227472)
)
;
    }
    frontAndBack
    {
        type            empty;
    }
    procBoundary1to0
    {
        type            processor;
        value           nonuniform List<vector> 
21
(
(393.252031 114.0054404 -0.2517099034)
(666.9121687 199.6875334 -0.106517002)
(855.5342212 278.5584435 -3.106960331)
(1010.142004 325.0954607 -2.662100474)
(1118.130179 341.5941271 3.184712329)
(1213.464942 337.277985 -1.717870777)
(1294.217779 318.027568 -0.3628950104)
(1364.850649 282.4433955 2.977081904)
(1441.856841 242.6086377 -3.84566266)
(1510.998751 200.0938519 -2.291969624)
(1554.546943 163.9961639 4.388623969)
(1597.426219 124.7134999 -1.766761151)
(1630.006579 96.9822614 -4.116812681)
(1656.715465 73.50043117 -0.9996963014)
(1680.357654 59.69752887 2.641437132)
(1684.980361 40.28188563 0.2225227369)
(1705.302728 36.89823096 2.646009808)
(1710.718425 24.37000498 -3.022056861)
(1716.335758 19.1868601 -1.642068745)
(1724.798041 16.32400949 -1.953810844)
(1725.795811 12.43729257 5.488981039)
)
;
    }
    procBoundary1to3
    {
        type            processor;
        value           nonuniform List<vector> 
36
(
(1311.099509 413.6002098 -0.6530794695)
(1355.484977 433.9480144 1.769767195)
(1343.591359 436.7785541 3.855230514)
(1337.740509 429.9067102 2.184715688)
(1311.099509 413.6002098 -0.6530794695)
(1339.337211 425.2174063 3.623990379)
(1433.188214 375.5308516 2.009299934)
(1425.123427 385.9717169 -2.104608571)
(1411.600537 403.8004137 -7.822838526)
(1406.202678 413.8661668 -7.774600161)
(1389.499852 424.269308 -1.721307096)
(1355.484977 433.9480144 1.769767195)
(1374.558761 429.7078566 -7.106187141)
(1556.400927 235.2934915 1.237844029)
(1538.515194 256.5126879 -2.947667993)
(1523.817298 283.0546206 -1.8661142)
(1503.134063 303.9735228 -5.3276527)
(1433.188214 375.5308516 2.009299934)
(1481.849351 322.7611043 -3.386337282)
(1668.754004 80.70815195 0.4249153374)
(1660.174013 92.67029922 -0.4856025407)
(1651.983489 108.6740456 -1.3638332)
(1633.598066 131.7517848 4.658398067)
(1627.578692 148.9275329 3.052409591)
(1556.400927 235.2934915 1.237844029)
(1609.488154 167.1210093 -3.973955744)
(1723.074378 15.39260636 6.807472272)
(1719.222709 19.23354132 5.960059134)
(1716.954536 25.82685189 5.633754956)
(1712.140906 28.17769762 4.446934846)
(1705.825193 36.80520414 2.397912164)
(1702.261329 43.43689889 2.155693859)
(1668.754004 80.70815195 0.4249153374)
(1695.504399 53.8286459 3.488772662)
(1723.074378 15.39260636 6.807472272)
(1730.207285 10.21479162 -1.709096018)
)
;
    }
}


// ************************************************************************* //
