/*--------------------------------*- C++ -*----------------------------------*\
| =========                 |                                                 |
| \\      /  F ield         | OpenFOAM: The Open Source CFD Toolbox           |
|  \\    /   O peration     | Version:  2406                                  |
|   \\  /    A nd           | Website:  www.openfoam.com                      |
|    \\/     M anipulation  |                                                 |
\*---------------------------------------------------------------------------*/
FoamFile
{
    version     2.0;
    format      ascii;
    arch        "LSB;label=32;scalar=64";
    class       volScalarField;
    location    "0.002";
    object      dsmcRhoNMean;
}
// * * * * * * * * * * * * * * * * * * * * * * * * * * * * * * * * * * * * * //

dimensions      [0 -3 0 0 0 0 0];

internalField   nonuniform List<scalar> 
546
(
7.404
9.49
9.675
9.6
9.646
9.635
9.637
9.544
9.467
9.467
9.458
9.585
9.608
9.573
9.623
9.491
9.456
9.4
9.29
9.228
7.496
9.623
9.626
9.719
9.663
9.685
9.632
9.632
9.594
9.588
9.643
9.526
9.627
9.51
9.499
9.606
9.67
9.759
9.871
9.907
7.412
9.554
9.547
9.475
9.629
9.672
9.712
9.698
9.671
9.711
9.648
9.746
9.58
9.698
9.602
9.57
9.55
9.573
9.6
9.588
7.449
9.59
9.717
9.72
9.498
9.515
9.595
9.545
9.643
9.583
9.499
9.354
9.49
9.518
9.653
9.582
9.602
9.595
9.773
9.689
7.427
9.652
9.539
9.53
9.55
9.456
9.395
9.461
9.404
9.365
9.497
9.623
9.679
9.667
9.653
9.698
9.616
9.669
9.481
9.479
7.476
9.515
9.53
9.608
9.649
9.669
9.611
9.596
9.599
9.686
9.621
9.568
9.565
9.552
9.502
9.602
9.643
9.581
9.741
9.814
7.397
9.577
9.732
9.666
9.714
9.841
9.876
9.875
9.763
9.706
9.743
9.647
9.671
9.539
9.561
9.545
9.568
9.497
9.389
9.492
7.44
9.603
9.658
9.599
9.59
9.506
9.533
9.495
9.621
9.538
9.611
9.619
9.692
9.722
9.685
9.652
9.653
9.676
9.767
9.719
7.536
9.594
9.629
9.582
9.619
9.423
9.368
9.371
9.393
9.566
9.499
9.549
9.495
9.559
9.599
9.601
9.642
9.618
9.458
9.425
7.39
9.516
9.524
9.469
9.492
9.61
9.736
9.804
9.742
9.641
9.777
9.747
9.747
9.724
9.65
9.672
9.565
9.556
9.55
9.628
7.52
9.679
9.757
9.724
9.727
9.747
9.737
9.48
9.626
9.632
9.457
9.558
9.505
9.531
9.468
9.565
9.58
9.83
9.86
9.844
7.426
9.618
9.578
9.614
9.539
9.476
9.44
9.443
9.507
9.493
9.548
9.521
9.51
9.593
9.672
9.568
9.629
9.472
9.435
9.467
7.346
9.505
9.534
9.576
9.661
9.537
9.492
9.604
9.577
9.507
9.423
9.44
9.466
9.49
9.401
9.445
9.315
9.366
9.34
9.341
7.403
9.405
9.537
9.554
9.576
9.502
9.499
9.437
9.399
9.449
9.471
9.463
9.446
9.437
9.452
9.548
9.581
9.571
9.514
9.622
7.546
9.765
9.624
9.533
9.5
9.577
9.683
9.737
9.655
9.577
9.562
9.573
9.602
9.551
9.581
9.601
9.669
9.673
9.637
9.576
7.436
9.646
9.667
9.751
9.873
9.771
9.691
9.661
9.752
9.87
9.748
9.691
9.654
9.685
9.815
9.654
9.581
9.474
9.368
9.55
7.383
9.653
9.692
9.693
9.661
9.699
9.809
9.786
9.724
9.77
9.737
9.885
9.785
9.66
9.447
9.51
9.605
9.495
9.595
9.48
7.346
9.264
9.374
9.473
9.403
9.493
9.497
9.536
9.508
9.62
9.663
9.684
9.646
9.732
9.76
9.683
9.593
9.66
9.689
9.692
9.418
9.458
9.349
9.335
9.303
9.28
9.311
9.349
9.583
9.449
9.379
9.223
9.203
9.186
8.949
8.961
9.784
9.61
9.521
9.34
9.248
9.218
9.216
9.098
9.084
9.097
9.62
9.578
9.548
9.407
9.397
9.316
9.21
9.262
9.126
9.181
9.675
9.626
9.467
9.395
9.381
9.33
9.263
9.15
9.006
8.937
9.487
9.335
9.31
9.349
9.349
9.345
9.373
9.379
9.249
9.217
9.622
9.608
9.491
9.418
9.468
9.261
9.101
9.021
8.917
8.915
9.481
9.407
9.457
9.341
9.243
9.237
9.227
9.187
8.981
8.918
9.76
9.7
9.602
9.364
9.338
9.274
9.187
9.138
9.073
8.993
9.35
9.306
9.252
9.158
9.188
9.035
8.968
8.869
8.885
8.834
9.605
9.611
9.556
9.605
9.33
9.253
9.301
9.237
9.122
8.944
9.719
9.536
9.36
9.313
9.39
9.287
9.216
9.119
9.11
9.037
9.48
9.509
9.42
9.201
9.097
9.002
8.917
9.02
9.012
9.033
9.308
9.281
9.318
9.352
9.309
9.285
9.19
9.089
8.903
8.886
9.542
9.597
9.461
9.464
9.345
9.296
9.145
9.001
8.946
8.706
9.464
9.41
9.295
9.182
9.19
8.998
8.948
8.978
8.956
9.026
9.565
9.501
9.521
9.393
9.333
9.275
9.26
9.175
9.146
9.04
9.377
9.266
9.266
9.204
9.262
9.23
9.196
9.204
9.137
9.095
9.789
9.593
9.45
9.431
9.231
9.134
9.108
8.931
8.844
8.724
)
;

boundaryField
{
    flow
    {
        type            calculated;
        value           nonuniform List<scalar> 
48
(
7.404
7.496
7.412
7.449
7.427
7.476
7.397
7.44
7.536
7.39
7.52
7.426
7.346
7.403
7.546
7.436
7.383
7.346
7.346
9.264
9.374
9.473
9.403
9.493
9.497
9.536
9.508
9.62
9.663
9.684
9.646
9.732
9.76
9.683
9.593
9.66
9.689
9.692
9.789
9.593
9.45
9.431
9.231
9.134
9.108
8.931
8.844
8.724
)
;
    }
    obstacle
    {
        type            calculated;
        value           nonuniform List<scalar> 0();
    }
    frontAndBack
    {
        type            empty;
    }
    procBoundary2to0
    {
        type            processor;
        value           nonuniform List<scalar> 
31
(
7.42
9.577
9.58
9.388
9.494
9.494
9.517
9.695
9.733
9.769
9.648
9.645
9.552
9.567
9.51
9.546
9.546
9.553
9.634
9.556
9.376
9.312
9.17
9.165
9.207
9.051
9.607
9.459
9.316
9.325
9.325
)
;
    }
    procBoundary2to3
    {
        type            processor;
        value           nonuniform List<scalar> 
19
(
9.15
9.015
9.071
9.056
8.959
8.902
9.05
8.864
8.884
8.735
8.939
9.1
8.934
8.76
8.751
8.917
9.122
9.037
8.576
)
;
    }
}


// ************************************************************************* //
