/*--------------------------------*- C++ -*----------------------------------*\
| =========                 |                                                 |
| \\      /  F ield         | OpenFOAM: The Open Source CFD Toolbox           |
|  \\    /   O peration     | Version:  2406                                  |
|   \\  /    A nd           | Website:  www.openfoam.com                      |
|    \\/     M anipulation  |                                                 |
\*---------------------------------------------------------------------------*/
FoamFile
{
    version     2.0;
    format      ascii;
    arch        "LSB;label=32;scalar=64";
    class       volScalarField;
    location    "0.002";
    object      iDof;
}
// * * * * * * * * * * * * * * * * * * * * * * * * * * * * * * * * * * * * * //

dimensions      [0 -3 0 0 0 0 0];

internalField   nonuniform List<scalar> 
546
(
1.24967977e+20
2.291079578e+20
1.666239693e+20
1.041399808e+20
1.874519654e+20
1.874519654e+20
2.499359539e+20
3.124199424e+20
2.082799616e+20
1.874519654e+20
1.666239693e+20
2.291079578e+20
1.457959731e+20
2.291079578e+20
1.24967977e+20
1.666239693e+20
3.540759347e+20
1.874519654e+20
2.082799616e+20
1.041399808e+20
1.666239693e+20
2.499359539e+20
3.124199424e+20
1.457959731e+20
1.24967977e+20
1.874519654e+20
1.666239693e+20
3.124199424e+20
2.082799616e+20
2.707639501e+20
2.291079578e+20
1.457959731e+20
2.291079578e+20
1.457959731e+20
2.499359539e+20
1.24967977e+20
1.874519654e+20
1.874519654e+20
1.457959731e+20
1.874519654e+20
1.666239693e+20
1.666239693e+20
1.457959731e+20
2.707639501e+20
1.666239693e+20
2.707639501e+20
2.291079578e+20
3.124199424e+20
2.082799616e+20
1.24967977e+20
1.874519654e+20
1.666239693e+20
2.915919462e+20
1.457959731e+20
1.874519654e+20
2.291079578e+20
6.248398848e+19
1.24967977e+20
1.24967977e+20
3.124199424e+20
1.041399808e+20
1.666239693e+20
2.499359539e+20
2.499359539e+20
1.666239693e+20
1.666239693e+20
2.499359539e+20
2.499359539e+20
1.666239693e+20
3.124199424e+20
2.291079578e+20
2.082799616e+20
1.24967977e+20
1.874519654e+20
2.707639501e+20
2.499359539e+20
1.457959731e+20
2.291079578e+20
1.666239693e+20
2.291079578e+20
1.24967977e+20
2.707639501e+20
1.457959731e+20
2.707639501e+20
2.707639501e+20
1.666239693e+20
1.041399808e+20
1.666239693e+20
1.24967977e+20
8.331198464e+19
1.666239693e+20
2.082799616e+20
2.707639501e+20
3.332479385e+20
3.124199424e+20
1.666239693e+20
2.291079578e+20
1.457959731e+20
2.082799616e+20
2.291079578e+20
1.041399808e+20
2.499359539e+20
1.874519654e+20
2.082799616e+20
2.082799616e+20
2.499359539e+20
2.082799616e+20
1.874519654e+20
2.707639501e+20
1.24967977e+20
1.874519654e+20
6.248398848e+19
1.874519654e+20
1.874519654e+20
2.915919462e+20
1.041399808e+20
2.291079578e+20
1.666239693e+20
2.082799616e+20
2.499359539e+20
1.041399808e+20
1.874519654e+20
2.291079578e+20
1.041399808e+20
2.082799616e+20
2.082799616e+20
2.499359539e+20
2.082799616e+20
1.457959731e+20
2.499359539e+20
1.457959731e+20
2.499359539e+20
2.499359539e+20
2.499359539e+20
1.666239693e+20
2.082799616e+20
1.457959731e+20
1.874519654e+20
2.499359539e+20
6.248398848e+19
1.874519654e+20
2.707639501e+20
1.874519654e+20
1.457959731e+20
2.291079578e+20
1.24967977e+20
1.666239693e+20
2.707639501e+20
1.874519654e+20
1.041399808e+20
2.707639501e+20
1.874519654e+20
1.666239693e+20
2.291079578e+20
1.041399808e+20
1.874519654e+20
2.082799616e+20
2.707639501e+20
1.457959731e+20
1.041399808e+20
2.082799616e+20
2.082799616e+20
4.165599232e+19
2.915919462e+20
1.874519654e+20
2.707639501e+20
2.707639501e+20
1.666239693e+20
8.331198464e+19
1.24967977e+20
2.082799616e+20
1.666239693e+20
1.457959731e+20
1.24967977e+20
1.24967977e+20
2.291079578e+20
1.457959731e+20
1.666239693e+20
2.082799616e+20
3.95731927e+20
1.041399808e+20
3.332479385e+20
2.082799616e+20
1.457959731e+20
1.874519654e+20
2.291079578e+20
1.24967977e+20
2.499359539e+20
1.666239693e+20
2.082799616e+20
1.457959731e+20
1.457959731e+20
1.666239693e+20
1.666239693e+20
1.874519654e+20
2.291079578e+20
2.707639501e+20
1.457959731e+20
1.457959731e+20
1.457959731e+20
2.291079578e+20
1.24967977e+20
1.24967977e+20
2.291079578e+20
1.457959731e+20
2.499359539e+20
1.666239693e+20
1.24967977e+20
2.707639501e+20
1.041399808e+20
1.874519654e+20
3.332479385e+20
1.874519654e+20
2.291079578e+20
2.082799616e+20
1.874519654e+20
1.666239693e+20
3.124199424e+20
2.707639501e+20
1.24967977e+20
1.874519654e+20
2.082799616e+20
1.041399808e+20
2.082799616e+20
2.915919462e+20
3.749039309e+20
2.082799616e+20
8.331198464e+19
3.124199424e+20
3.540759347e+20
1.874519654e+20
1.874519654e+20
1.457959731e+20
2.291079578e+20
8.331198464e+19
6.248398848e+19
1.874519654e+20
2.291079578e+20
2.082799616e+20
2.499359539e+20
1.666239693e+20
2.082799616e+20
2.291079578e+20
1.874519654e+20
1.874519654e+20
1.874519654e+20
1.457959731e+20
2.499359539e+20
1.874519654e+20
1.874519654e+20
1.041399808e+20
1.874519654e+20
2.291079578e+20
2.082799616e+20
1.874519654e+20
2.291079578e+20
1.874519654e+20
2.499359539e+20
2.082799616e+20
1.666239693e+20
1.666239693e+20
1.666239693e+20
1.666239693e+20
1.874519654e+20
1.874519654e+20
1.041399808e+20
1.874519654e+20
1.874519654e+20
2.707639501e+20
6.248398848e+19
1.24967977e+20
3.124199424e+20
1.457959731e+20
1.457959731e+20
2.707639501e+20
2.915919462e+20
1.457959731e+20
3.749039309e+20
1.24967977e+20
2.707639501e+20
1.24967977e+20
2.499359539e+20
2.291079578e+20
2.291079578e+20
2.291079578e+20
2.707639501e+20
2.291079578e+20
1.874519654e+20
2.291079578e+20
1.874519654e+20
1.457959731e+20
2.082799616e+20
2.915919462e+20
4.373879193e+20
1.666239693e+20
1.874519654e+20
2.291079578e+20
1.874519654e+20
2.499359539e+20
1.041399808e+20
1.874519654e+20
1.666239693e+20
1.666239693e+20
1.041399808e+20
1.457959731e+20
2.915919462e+20
1.666239693e+20
2.082799616e+20
1.457959731e+20
2.499359539e+20
1.666239693e+20
2.082799616e+20
2.082799616e+20
2.499359539e+20
1.24967977e+20
1.874519654e+20
1.24967977e+20
2.082799616e+20
1.041399808e+20
1.874519654e+20
1.457959731e+20
3.124199424e+20
2.915919462e+20
2.499359539e+20
2.499359539e+20
1.041399808e+20
2.915919462e+20
2.915919462e+20
1.457959731e+20
1.666239693e+20
2.499359539e+20
2.082799616e+20
2.707639501e+20
3.124199424e+20
2.291079578e+20
2.082799616e+20
1.457959731e+20
1.24967977e+20
2.499359539e+20
1.457959731e+20
2.291079578e+20
1.24967977e+20
1.666239693e+20
2.082799616e+20
1.666239693e+20
1.457959731e+20
2.707639501e+20
1.457959731e+20
2.499359539e+20
2.707639501e+20
2.082799616e+20
2.499359539e+20
2.915919462e+20
1.666239693e+20
2.082799616e+20
1.457959731e+20
2.082799616e+20
1.041399808e+20
1.874519654e+20
1.24967977e+20
1.933997406e+20
2.164079869e+20
1.961541108e+20
1.317072858e+20
1.989880718e+20
1.781653177e+20
2.71724148e+20
2.315013913e+20
2.331042402e+20
1.066951997e+20
1.289331604e+20
2.164079869e+20
3.705133229e+20
2.414633573e+20
8.84391424e+19
2.004359824e+20
1.881167191e+20
2.315013913e+20
2.331042402e+20
2.133903993e+20
2.363774592e+20
1.514855919e+20
1.525643094e+20
1.317072858e+20
3.758663579e+20
2.895186412e+20
1.045092877e+20
1.894102292e+20
2.966781239e+20
1.066951997e+20
2.148886007e+20
1.298447921e+20
2.615388162e+20
1.097560723e+20
1.989880704e+20
2.672479746e+20
1.463130028e+20
2.104558088e+20
2.966781239e+20
8.535616032e+19
1.719108806e+20
1.514855908e+20
2.397439131e+20
8.780485658e+19
1.768782848e+20
2.895186412e+20
2.926260055e+20
1.894102279e+20
8.476517826e+19
2.987465611e+20
1.933997406e+20
1.514855908e+20
2.833337175e+20
3.073170023e+20
2.432076433e+20
1.55894653e+20
1.463130028e+20
1.473190672e+20
2.754868294e+20
1.707123195e+20
2.363774608e+20
1.082039942e+20
2.179490135e+20
2.634145716e+20
1.547685003e+20
1.336239892e+20
2.926260075e+20
1.052279051e+20
1.907216511e+20
4.267808016e+19
1.074443004e+20
2.81330383e+20
2.179490135e+20
2.853657859e+20
2.21097856e+20
2.004359824e+20
2.71724148e+20
1.894102292e+20
1.271477683e+20
1.280342405e+20
1.719108806e+20
1.947671882e+20
1.743592096e+20
1.317072858e+20
1.989880718e+20
1.55894653e+20
1.672148603e+20
2.315013897e+20
1.271477665e+20
1.707123183e+20
1.933997393e+20
2.380487872e+20
6.53847045e+19
2.41463359e+20
1.989880718e+20
1.781653177e+20
1.672148603e+20
1.894102292e+20
1.059564735e+20
1.493732806e+20
1.074443011e+20
2.380487872e+20
1.525643084e+20
1.975609273e+20
1.326587136e+20
1.781653177e+20
2.090185768e+20
1.683646482e+20
3.178694185e+20
1.066952004e+20
1.719108806e+20
2.164079869e+20
2.615388162e+20
2.41463359e+20
1.989880718e+20
6.681199412e+19
2.090185754e+20
2.735925515e+20
3.814432996e+20
1.920513594e+20
2.363774608e+20
1.082039934e+20
1.961541108e+20
1.975609287e+20
2.874272148e+20
1.55894653e+20
1.881167178e+20
1.262734861e+20
1.907216524e+20
2.77407521e+20
1.719108806e+20
3.246119826e+20
1.525643105e+20
2.634145734e+20
1.989880704e+20
1.113533227e+20
1.463130028e+20
1.052279044e+20
1.271477665e+20
2.774075191e+20
1.719108806e+20
2.380487856e+20
2.615388143e+20
2.634145697e+20
2.21097856e+20
1.113533243e+20
1.463130028e+20
1.473190672e+20
2.331042418e+20
1.707123195e+20
2.578663191e+20
1.298447921e+20
1.525643094e+20
2.41463359e+20
1.768782861e+20
2.449773118e+20
2.090185768e+20
3.367292964e+20
1.48339062e+20
2.347294409e+20
2.793551809e+20
1.514855908e+20
1.307694072e+20
2.414633573e+20
1.768782861e+20
1.336239882e+20
1.672148603e+20
3.998660394e+20
1.48339062e+20
2.987465591e+20
8.595544028e+19
2.380487872e+20
1.30769409e+20
1.536585001e+20
1.768782848e+20
1.781653177e+20
2.090185754e+20
1.894102279e+20
8.476517826e+19
2.347294409e+20
1.074443004e+20
4.111751751e+20
1.961541108e+20
2.414633573e+20
3.095370006e+20
1.336239882e+20
)
;

boundaryField
{
    flow
    {
        type            zeroGradient;
    }
    obstacle
    {
        type            calculated;
        value           nonuniform List<scalar> 0();
    }
    frontAndBack
    {
        type            empty;
    }
    procBoundary2to0
    {
        type            processor;
        value           nonuniform List<scalar> 
31
(
1.666239693e+20
1.041399808e+20
1.457959731e+20
2.499359539e+20
1.457959731e+20
1.457959731e+20
2.291079578e+20
2.291079578e+20
2.082799616e+20
2.915919462e+20
8.331198464e+19
1.457959731e+20
2.082799616e+20
1.041399808e+20
2.082799616e+20
1.666239693e+20
3.540759347e+20
1.24967977e+20
3.95731927e+20
4.165599232e+19
1.933997406e+20
4.111751751e+20
1.525643094e+20
2.195121445e+20
2.210978576e+20
2.227066471e+20
2.090185754e+20
1.052279044e+20
1.695303565e+20
1.493732806e+20
1.493732806e+20
)
;
    }
    procBoundary2to3
    {
        type            processor;
        value           nonuniform List<scalar> 
19
(
2.467729225e+20
2.467729225e+20
2.019051199e+20
1.346034123e+20
3.813763348e+20
2.243390221e+20
2.467729243e+20
2.019051184e+20
6.730170662e+19
2.467729225e+20
1.570373143e+20
2.692068265e+20
2.243390205e+20
1.794712164e+20
2.692068284e+20
2.019051184e+20
2.692068246e+20
2.243390221e+20
1.570373143e+20
)
;
    }
}


// ************************************************************************* //
