/*--------------------------------*- C++ -*----------------------------------*\
| =========                 |                                                 |
| \\      /  F ield         | OpenFOAM: The Open Source CFD Toolbox           |
|  \\    /   O peration     | Version:  2406                                  |
|   \\  /    A nd           | Website:  www.openfoam.com                      |
|    \\/     M anipulation  |                                                 |
\*---------------------------------------------------------------------------*/
FoamFile
{
    version     2.0;
    format      ascii;
    arch        "LSB;label=32;scalar=64";
    class       volScalarField;
    location    "0.002";
    object      iDofMean;
}
// * * * * * * * * * * * * * * * * * * * * * * * * * * * * * * * * * * * * * //

dimensions      [0 -3 0 0 0 0 0];

internalField   nonuniform List<scalar> 
546
(
1.542104836e+20
1.976576836e+20
2.015108628e+20
1.999487631e+20
2.00906851e+20
2.00677743e+20
2.00719399e+20
1.987823953e+20
1.971786396e+20
1.971786396e+20
1.969911877e+20
1.996363432e+20
2.001153871e+20
1.993864072e+20
2.00427807e+20
1.976785115e+20
1.969495317e+20
1.957831639e+20
1.934920843e+20
1.922007486e+20
1.561266592e+20
2.00427807e+20
2.00490291e+20
2.024272947e+20
2.012609269e+20
2.017191428e+20
2.00615259e+20
2.00615259e+20
1.998237952e+20
1.996988272e+20
2.00844367e+20
1.984074914e+20
2.00511119e+20
1.980742435e+20
1.978451355e+20
2.000737311e+20
2.014067229e+20
2.032604145e+20
2.055931501e+20
2.06342958e+20
1.543771075e+20
1.989906753e+20
1.988448793e+20
1.973452636e+20
2.00552775e+20
2.014483789e+20
2.022814987e+20
2.019899068e+20
2.014275509e+20
2.022606707e+20
2.009485069e+20
2.029896506e+20
1.995322032e+20
2.019899068e+20
1.999904191e+20
1.993239232e+20
1.989073633e+20
1.993864072e+20
1.999487631e+20
1.996988272e+20
1.551477434e+20
1.997404832e+20
2.023856387e+20
2.024481227e+20
1.978243075e+20
1.981783835e+20
1.998446231e+20
1.988032233e+20
2.00844367e+20
1.995946872e+20
1.978451355e+20
1.948250761e+20
1.976576836e+20
1.982408674e+20
2.010526469e+20
1.995738592e+20
1.999904191e+20
1.998446231e+20
2.035520065e+20
2.018024548e+20
1.546895275e+20
2.010318189e+20
1.986782554e+20
1.984908034e+20
1.989073633e+20
1.969495317e+20
1.956790239e+20
1.970536717e+20
1.958664759e+20
1.95054184e+20
1.978034795e+20
2.00427807e+20
2.015941748e+20
2.013442389e+20
2.010526469e+20
2.019899068e+20
2.002820111e+20
2.013858949e+20
1.974702316e+20
1.974285756e+20
1.557100993e+20
1.981783835e+20
1.984908034e+20
2.001153871e+20
2.009693349e+20
2.013858949e+20
2.001778711e+20
1.998654511e+20
1.999279351e+20
2.017399708e+20
2.00386151e+20
1.992822673e+20
1.992197833e+20
1.989490193e+20
1.979076195e+20
1.999904191e+20
2.00844367e+20
1.995530312e+20
2.028855106e+20
2.044059543e+20
1.540646876e+20
1.994697192e+20
2.026980586e+20
2.013234109e+20
2.023231547e+20
2.049683102e+20
2.056972901e+20
2.056764621e+20
2.033437265e+20
2.021565307e+20
2.029271666e+20
2.009276789e+20
2.014275509e+20
1.986782554e+20
1.991364713e+20
1.988032233e+20
1.992822673e+20
1.978034795e+20
1.955540559e+20
1.976993395e+20
1.549602914e+20
2.000112471e+20
2.011567869e+20
1.999279351e+20
1.997404832e+20
1.979909315e+20
1.985532874e+20
1.977618235e+20
2.00386151e+20
1.986574274e+20
2.001778711e+20
2.003444951e+20
2.018649388e+20
2.024897787e+20
2.017191428e+20
2.010318189e+20
2.010526469e+20
2.015316908e+20
2.034270385e+20
2.024272947e+20
1.569597791e+20
1.998237952e+20
2.00552775e+20
1.995738592e+20
2.003444951e+20
1.962622078e+20
1.95116668e+20
1.95179152e+20
1.956373679e+20
1.992406113e+20
1.978451355e+20
1.988865353e+20
1.977618235e+20
1.990948153e+20
1.999279351e+20
1.999695911e+20
2.00823539e+20
2.003236671e+20
1.969911877e+20
1.963038638e+20
1.539188916e+20
1.981992115e+20
1.983658354e+20
1.972202956e+20
1.976993395e+20
2.001570431e+20
2.027813706e+20
2.041976743e+20
2.029063386e+20
2.00802711e+20
2.036353184e+20
2.030104786e+20
2.030104786e+20
2.025314347e+20
2.009901629e+20
2.014483789e+20
1.992197833e+20
1.990323313e+20
1.989073633e+20
2.00531947e+20
1.566265311e+20
2.015941748e+20
2.032187585e+20
2.025314347e+20
2.025939186e+20
2.030104786e+20
2.028021986e+20
1.974494036e+20
2.00490291e+20
2.00615259e+20
1.969703597e+20
1.990739873e+20
1.979701035e+20
1.985116314e+20
1.971994676e+20
1.992197833e+20
1.995322032e+20
2.047392022e+20
2.053640421e+20
2.050307942e+20
1.546686995e+20
2.003236671e+20
1.994905472e+20
2.002403551e+20
1.986782554e+20
1.973660916e+20
1.966162837e+20
1.966787677e+20
1.980117595e+20
1.977201675e+20
1.988657073e+20
1.983033514e+20
1.980742435e+20
1.998029672e+20
2.014483789e+20
1.992822673e+20
2.00552775e+20
1.972827796e+20
1.965121438e+20
1.971786396e+20
1.530024598e+20
1.979701035e+20
1.985741154e+20
1.994488912e+20
2.012192709e+20
1.986365994e+20
1.976993395e+20
2.000320751e+20
1.994697192e+20
1.980117595e+20
1.962622078e+20
1.966162837e+20
1.971578116e+20
1.976576836e+20
1.958039919e+20
1.967204237e+20
1.940127842e+20
1.95075012e+20
1.945334841e+20
1.945543121e+20
1.541896556e+20
1.958873039e+20
1.986365994e+20
1.989906753e+20
1.994488912e+20
1.979076195e+20
1.978451355e+20
1.965537998e+20
1.957623359e+20
1.968037357e+20
1.972619516e+20
1.970953277e+20
1.967412517e+20
1.965537998e+20
1.968662197e+20
1.988657073e+20
1.995530312e+20
1.993447512e+20
1.981575555e+20
2.00406979e+20
1.57168059e+20
2.033853825e+20
2.00448635e+20
1.985532874e+20
1.978659635e+20
1.994697192e+20
2.016774868e+20
2.028021986e+20
2.010943029e+20
1.994697192e+20
1.991572993e+20
1.993864072e+20
1.999904191e+20
1.989281913e+20
1.995530312e+20
1.999695911e+20
2.013858949e+20
2.014692068e+20
2.00719399e+20
1.994488912e+20
1.548769794e+20
2.00906851e+20
2.013442389e+20
2.030937905e+20
2.056348061e+20
2.035103505e+20
2.018441108e+20
2.012192709e+20
2.031146185e+20
2.055723221e+20
2.030313066e+20
2.018441108e+20
2.010734749e+20
2.017191428e+20
2.044267823e+20
2.010734749e+20
1.995530312e+20
1.973244356e+20
1.95116668e+20
1.989073633e+20
1.537730956e+20
2.010526469e+20
2.018649388e+20
2.018857668e+20
2.012192709e+20
2.020107347e+20
2.043018143e+20
2.038227704e+20
2.025314347e+20
2.034895225e+20
2.028021986e+20
2.05884742e+20
2.038019424e+20
2.011984429e+20
1.967620797e+20
1.980742435e+20
2.000529031e+20
1.977618235e+20
1.998446231e+20
1.974494036e+20
1.530024598e+20
1.929505564e+20
1.95241636e+20
1.973036076e+20
1.958456479e+20
1.977201675e+20
1.978034795e+20
1.986157714e+20
1.980325875e+20
2.003653231e+20
2.012609269e+20
2.016983148e+20
2.00906851e+20
2.026980586e+20
2.032812425e+20
2.016774868e+20
1.998029672e+20
2.011984429e+20
2.018024548e+20
2.018649388e+20
2.023820841e+20
2.04678674e+20
2.037605313e+20
2.049145855e+20
2.056873369e+20
2.066717685e+20
1.946171955e+20
1.96755137e+20
2.030761758e+20
2.016325883e+20
2.015440186e+20
1.995930863e+20
2.005784771e+20
2.016438546e+20
1.978604713e+20
1.995674264e+20
2.045037755e+20
2.022480336e+20
2.017623156e+20
1.99306633e+20
1.987289766e+20
1.994848837e+20
2.008618108e+20
1.997121477e+20
2.008452938e+20
2.025962368e+20
2.010758695e+20
2.01574575e+20
2.023344805e+20
2.007363487e+20
2.019308181e+20
2.016056806e+20
2.007310414e+20
2.033121483e+20
2.017739034e+20
2.044669712e+20
2.022254717e+20
2.025847616e+20
2.006179857e+20
2.004802815e+20
2.015869963e+20
2.019086518e+20
2.018861698e+20
2.008536094e+20
1.991207291e+20
1.990329305e+20
1.982959225e+20
1.964604975e+20
1.972909524e+20
1.994986857e+20
2.008993528e+20
2.022332637e+20
2.042836103e+20
2.058804404e+20
2.044934085e+20
2.052687166e+20
2.011176732e+20
2.022059425e+20
2.011265767e+20
2.009710781e+20
2.034565271e+20
2.00415438e+20
1.983553972e+20
1.980219042e+20
1.971529596e+20
1.985429773e+20
1.981705126e+20
1.979757807e+20
2.004060727e+20
1.993279734e+20
1.986215336e+20
1.998960575e+20
2.011015547e+20
2.016658058e+20
1.985679845e+20
1.986097879e+20
2.040021296e+20
2.041421359e+20
2.034788118e+20
1.998187713e+20
2.006629753e+20
2.00696767e+20
2.002297573e+20
2.005901963e+20
2.006020862e+20
2.002800877e+20
1.95432368e+20
1.958501757e+20
1.96061856e+20
1.954229264e+20
1.97439645e+20
1.955246175e+20
1.954566766e+20
1.94685321e+20
1.964454465e+20
1.96739052e+20
2.007623417e+20
2.022690792e+20
2.025040122e+20
2.0496148e+20
2.004910658e+20
2.002423117e+20
2.02714376e+20
2.027633651e+20
2.016854642e+20
1.991888251e+20
2.031451548e+20
2.006906606e+20
1.983505171e+20
1.987304803e+20
2.017803961e+20
2.009780974e+20
2.008618108e+20
2.001731246e+20
2.014201482e+20
2.01259997e+20
1.981496095e+20
2.001224286e+20
1.996219935e+20
1.963405064e+20
1.954841601e+20
1.948104698e+20
1.94345134e+20
1.97999953e+20
1.992533892e+20
2.011709143e+20
1.9455449e+20
1.953240375e+20
1.974604841e+20
1.995627028e+20
2.000397984e+20
2.009348172e+20
2.002951448e+20
1.995145882e+20
1.968434212e+20
1.978971252e+20
1.994455246e+20
2.019744397e+20
2.004908365e+20
2.019526739e+20
2.008133974e+20
2.011728646e+20
1.993143714e+20
1.975828785e+20
1.97794142e+20
1.938884083e+20
1.978151797e+20
1.980389174e+20
1.969730843e+20
1.959350647e+20
1.974826227e+20
1.947239066e+20
1.950207772e+20
1.970780034e+20
1.980152412e+20
2.010150196e+20
1.999262687e+20
1.999540653e+20
2.017623156e+20
2.004376035e+20
2.00555531e+20
2.007184078e+20
2.018207851e+20
2.014023912e+20
2.022161005e+20
2.01326809e+20
1.959967181e+20
1.950083538e+20
1.963585354e+20
1.964045236e+20
1.99029822e+20
1.997445733e+20
2.004259142e+20
2.020389764e+20
2.02017111e+20
2.025516955e+20
2.046082834e+20
2.018902574e+20
2.002577336e+20
2.01248487e+20
1.983636673e+20
1.976670552e+20
1.985079601e+20
1.960462949e+20
1.955389452e+20
1.942892789e+20
)
;

boundaryField
{
    flow
    {
        type            calculated;
        value           nonuniform List<scalar> 
48
(
1.542104836e+20
1.561266592e+20
1.543771075e+20
1.551477434e+20
1.546895275e+20
1.557100993e+20
1.540646876e+20
1.549602914e+20
1.569597791e+20
1.539188916e+20
1.566265311e+20
1.546686995e+20
1.530024598e+20
1.541896556e+20
1.57168059e+20
1.548769794e+20
1.537730956e+20
1.530024598e+20
1.530024598e+20
1.929505564e+20
1.95241636e+20
1.973036076e+20
1.958456479e+20
1.977201675e+20
1.978034795e+20
1.986157714e+20
1.980325875e+20
2.003653231e+20
2.012609269e+20
2.016983148e+20
2.00906851e+20
2.026980586e+20
2.032812425e+20
2.016774868e+20
1.998029672e+20
2.011984429e+20
2.018024548e+20
2.018649388e+20
2.046082834e+20
2.018902574e+20
2.002577336e+20
2.01248487e+20
1.983636673e+20
1.976670552e+20
1.985079601e+20
1.960462949e+20
1.955389452e+20
1.942892789e+20
)
;
    }
    obstacle
    {
        type            calculated;
        value           nonuniform List<scalar> 0();
    }
    frontAndBack
    {
        type            empty;
    }
    procBoundary2to0
    {
        type            processor;
        value           nonuniform List<scalar> 
31
(
1.545437315e+20
1.994697192e+20
1.995322032e+20
1.955332279e+20
1.977409955e+20
1.977409955e+20
1.982200394e+20
2.019274228e+20
2.027188866e+20
2.034686945e+20
2.009485069e+20
2.00886023e+20
1.989490193e+20
1.992614393e+20
1.980742435e+20
1.988240513e+20
1.988240513e+20
1.989698473e+20
2.00656915e+20
1.990323313e+20
2.01479552e+20
2.015191174e+20
1.998592453e+20
2.011828805e+20
2.035647975e+20
2.015717863e+20
2.008041454e+20
1.990701496e+20
1.974181002e+20
1.989865487e+20
1.989865487e+20
)
;
    }
    procBoundary2to3
    {
        type            processor;
        value           nonuniform List<scalar> 
19
(
2.052702037e+20
2.02241627e+20
2.034979269e+20
2.031614169e+20
2.009853284e+20
1.997065975e+20
2.03026815e+20
1.988541077e+20
1.993027872e+20
1.959601344e+20
2.005366504e+20
2.041485101e+20
2.004244809e+20
1.965209819e+20
1.963190796e+20
2.000431046e+20
2.046420545e+20
2.027351743e+20
1.92393144e+20
)
;
    }
}


// ************************************************************************* //
