/*--------------------------------*- C++ -*----------------------------------*\
| =========                 |                                                 |
| \\      /  F ield         | OpenFOAM: The Open Source CFD Toolbox           |
|  \\    /   O peration     | Version:  2406                                  |
|   \\  /    A nd           | Website:  www.openfoam.com                      |
|    \\/     M anipulation  |                                                 |
\*---------------------------------------------------------------------------*/
FoamFile
{
    version     2.0;
    format      ascii;
    arch        "LSB;label=32;scalar=64";
    class       volScalarField;
    location    "0.002";
    object      internalT;
}
// * * * * * * * * * * * * * * * * * * * * * * * * * * * * * * * * * * * * * //

dimensions      [1 2 -2 0 0 0 0];

internalField   nonuniform List<scalar> 
546
(
299.8388776
302.2619495
302.3641064
300.8182466
301.3681879
301.4649433
301.900647
298.8319652
298.3027942
297.0264244
296.0659238
295.8678605
298.3182427
298.5115631
300.4750624
298.6481277
293.7183589
293.7449671
293.8583014
295.3488059
301.8254101
301.6272539
304.0375407
302.9249257
299.9312516
297.3432604
295.987731
296.8699234
296.7657475
296.4627479
295.6391865
293.9955108
296.869402
300.2387265
302.4694442
301.8209634
306.9307336
308.576123
304.7940172
305.7041891
294.1114856
294.4204513
294.7538967
292.794483
300.6787847
299.032569
300.2165642
301.4003314
303.3451142
300.9800558
301.4906081
303.5675011
298.4444887
295.7383111
295.9395656
298.9046126
296.3925024
296.07027
299.7694281
298.06151
293.6973799
293.289172
292.0276528
295.4564605
295.9688629
294.1979632
298.7974781
298.0202966
297.0226954
295.9023076
294.9505211
297.3257869
297.7513405
300.412563
300.7648588
300.1824258
301.3691928
300.1210603
298.8013676
300.93365
299.9584919
299.3475566
296.639996
296.8704803
296.601287
296.1058151
295.218216
290.9891703
294.2205201
298.0657513
299.8763879
299.3239424
298.342708
301.9213113
299.7228475
299.0641992
299.2864927
303.5058841
301.7132618
301.8939496
299.0182806
300.5447945
301.417076
303.8678931
301.7999187
298.4506233
299.5043279
300.2360862
301.9986572
303.0984918
299.0556216
300.0023413
298.0475786
303.6194299
300.2870513
297.1866081
297.2240795
295.0573492
292.6721892
291.2500871
299.3250329
300.3181411
300.3293446
298.5558975
301.9506411
300.4063075
305.6607862
307.8369428
304.4814565
299.1023556
305.4972771
305.4797489
302.519562
302.6525518
301.7245981
300.979494
303.9386335
304.5769881
307.8210612
309.3475111
301.51236
302.857357
299.3401872
302.7167695
303.6642745
306.1809728
301.8577684
297.6478795
295.5797942
301.3521126
300.4712705
299.1822961
301.0775948
300.9039304
301.2417152
301.4802569
300.8888666
299.9458757
301.3896397
301.6124605
306.684756
307.9425397
308.426225
307.1839313
303.1355706
299.9466472
300.1337881
298.3620771
299.0144331
300.6299194
298.1693095
301.591876
298.0759007
299.3094051
298.9015477
296.5922377
298.8113643
293.9456601
292.6308362
291.3330838
299.5484905
302.2054867
297.7268399
296.7885918
296.2940716
296.3030554
299.450677
298.2423127
299.9665717
298.4698477
299.9522882
297.2286076
295.2990414
292.266921
292.9256515
289.9608701
292.2647346
296.4873983
294.7533629
297.4994301
293.9169638
296.71165
297.3992208
298.5030179
301.8097365
302.7144889
303.0191935
303.3209397
300.9676793
302.2340371
300.640503
299.9679308
296.8478255
304.0854026
299.3779417
298.1657075
299.8436971
297.1289483
299.9944455
301.1479931
300.8850662
298.9933566
299.997227
299.357931
294.1983388
296.213589
292.9164198
297.6218878
294.4418535
297.0369033
296.1114449
296.7231588
297.504889
299.2541654
298.9882107
299.2037639
297.1954609
299.8253729
301.4165798
303.255883
296.4988468
298.8174351
299.7969959
300.6074953
302.6681326
301.5040982
298.8355514
295.4228396
296.9613941
293.0302497
295.8241675
294.3729516
295.6267955
302.2343511
301.430052
302.9070572
304.1497749
301.8372774
299.2035732
300.5705145
297.8799253
296.5518039
292.8774677
289.6867283
292.6344744
294.3268519
297.1451605
302.231513
302.4997426
303.9962694
299.3837928
302.2263165
302.3551159
298.3024245
299.233
297.4208059
297.8581592
297.8430318
293.0740131
298.6762014
306.0120034
305.2451267
305.6110113
305.1193848
302.0679282
303.3328707
301.7488255
300.8647064
301.8231362
303.3954277
305.8214236
304.3454554
304.2878449
303.5391917
300.0365427
299.3221582
293.4908607
296.5428209
298.2796894
293.8113012
301.2841132
301.8389824
302.1445509
303.079746
308.636496
305.5883785
308.349711
302.890417
303.8676689
303.4236577
304.3823497
299.9211558
299.2124193
299.3763101
295.0530762
300.4530252
302.9386191
300.6206896
298.5549525
299.169869
299.0775264
300.6936069
305.9674633
302.592091
301.8396519
301.3395079
299.9053696
299.2709722
300.0977427
298.1999744
296.6873156
295.8407514
296.6072996
296.4650251
297.4253718
296.9115203
295.3370626
298.7968811
300.7574214
301.834563
294.3725244
291.7437578
291.1514694
294.9507259
291.4007469
292.7647097
294.2864295
296.5989461
295.4173418
293.5217224
294.7452268
295.9897825
296.1700772
291.9708841
290.7315725
286.5675092
289.641303
288.6966584
285.3356801
287.9983244
311.2186586
308.6768218
306.5834809
305.9313192
300.0940385
301.9385357
294.3395243
296.8219304
295.9951149
293.902707
294.1748629
299.3803768
298.7267585
298.1525795
297.2164617
298.2762247
298.1630102
298.1420574
298.644033
300.2395046
301.872802
304.7607976
302.6092537
304.691965
306.5961503
308.47919
307.9097353
305.4130527
299.5963567
298.6834661
295.863328
294.423846
301.2417246
307.5724405
302.6091795
304.5691942
299.703969
298.8755172
301.4361857
303.9313096
303.9265649
308.1051633
308.4043823
301.7210888
299.7825565
299.4755825
299.4282151
300.9193887
300.6801985
300.4541
298.8437114
294.8559443
292.4761549
300.4578934
299.1636549
299.6904066
292.2391189
295.7756569
294.0564728
294.3443726
293.0070678
295.3135628
296.4453969
288.955841
291.2010465
290.2544772
309.1978838
304.1347004
301.5679711
300.8333866
301.4535018
304.0063355
300.2540846
306.3436568
305.2428261
304.7440534
298.964758
298.8966619
302.0494836
303.7764105
301.4086295
299.2540957
300.7011825
303.2180793
301.5226687
303.6703004
292.7881627
295.5760376
296.6363053
296.3949879
296.5355873
298.2845359
299.9278991
297.0950929
299.9404659
302.7888592
299.7264573
300.17453
297.356346
301.2159074
304.3646285
307.2882167
306.535118
309.46209
306.878138
303.8528188
303.0159349
300.72695
302.6853951
303.8681613
300.9649401
298.0765373
298.2387178
297.9338309
298.6217039
297.9678514
298.4592826
300.3376805
298.1721258
296.7352089
297.0810975
295.6413596
296.3074905
297.1481548
299.6901048
304.3070563
302.2422017
298.3028023
295.2542744
296.0104672
298.954843
299.0397179
302.3615969
304.4609219
305.0237417
302.5168675
295.692569
299.3852054
300.3571124
302.0118743
304.2444364
304.5008553
304.8555364
303.2800006
308.4052813
308.9246626
295.3720309
296.2926283
295.5539927
293.7451282
291.5898561
292.7176924
292.7391308
295.9262733
295.6265441
298.3103379
299.7664369
296.9700167
295.3785064
298.8271153
302.9967142
304.2030156
302.3073113
304.4816909
302.1138532
301.738199
303.3163998
302.4302207
295.444799
297.5513851
296.2875723
297.0321975
300.119038
299.6863107
298.6933287
296.5725524
288.4637533
291.1837741
297.6285376
299.5580254
296.6316982
292.7201303
287.9631928
285.3360049
292.6111395
293.8920052
)
;

boundaryField
{
    flow
    {
        type            calculated;
        value           nonuniform List<scalar> 
48
(
299.8388776
301.8254101
294.1114856
293.6973799
299.9584919
299.0182806
299.3250329
301.51236
306.684756
299.5484905
293.9169638
300.8850662
296.4988468
297.8799253
306.0120034
301.2841132
299.0775264
294.3725244
294.3725244
291.7437578
291.1514694
294.9507259
291.4007469
292.7647097
294.2864295
296.5989461
295.4173418
293.5217224
294.7452268
295.9897825
296.1700772
291.9708841
290.7315725
286.5675092
289.641303
288.6966584
285.3356801
287.9983244
288.4637533
291.1837741
297.6285376
299.5580254
296.6316982
292.7201303
287.9631928
285.3360049
292.6111395
293.8920052
)
;
    }
    obstacle
    {
        type            calculated;
        value           nonuniform List<scalar> 0();
    }
    frontAndBack
    {
        type            empty;
    }
    procBoundary2to0
    {
        type            processor;
        value           nonuniform List<scalar> 
31
(
290.9241052
291.5019683
291.3385769
294.5901415
295.5956723
301.5669221
302.1336215
301.8571077
298.2809691
299.5070391
297.7671135
298.6518169
293.1718078
298.1673981
299.8295875
299.5097049
300.4228713
302.3376223
301.4810795
304.1120821
308.2972278
306.2719026
310.1397942
307.349586
310.9800437
308.2387692
307.225166
304.1887708
306.7344351
308.5974987
308.5974987
)
;
    }
    procBoundary2to3
    {
        type            processor;
        value           nonuniform List<scalar> 
19
(
302.9782057
303.2826457
308.4472406
304.9690696
302.0175303
297.9095331
290.5960464
309.3256247
302.4848782
304.270895
301.9350584
295.5587537
304.3314478
303.6955724
308.1197203
295.7042162
301.9467592
297.9096116
297.4306848
)
;
    }
}


// ************************************************************************* //
