/*--------------------------------*- C++ -*----------------------------------*\
| =========                 |                                                 |
| \\      /  F ield         | OpenFOAM: The Open Source CFD Toolbox           |
|  \\    /   O peration     | Version:  2406                                  |
|   \\  /    A nd           | Website:  www.openfoam.com                      |
|    \\/     M anipulation  |                                                 |
\*---------------------------------------------------------------------------*/
FoamFile
{
    version     2.0;
    format      ascii;
    arch        "LSB;label=32;scalar=64";
    class       volScalarField;
    location    "0.002";
    object      internalEMean;
}
// * * * * * * * * * * * * * * * * * * * * * * * * * * * * * * * * * * * * * //

dimensions      [1 -1 -2 0 0 0 0];

internalField   nonuniform List<scalar> 
546
(
0.3191945328
0.4124305069
0.42061262
0.4152183125
0.4179706195
0.4176280167
0.4183184246
0.4100705417
0.4060418418
0.4043044811
0.4026139556
0.4077472109
0.412110706
0.410875559
0.4157382755
0.4075424579
0.3993370883
0.3970081098
0.3925136537
0.3918716952
0.3253018011
0.4173324514
0.4207984765
0.423309176
0.4167108322
0.4140557449
0.4099126056
0.4111343514
0.4093686476
0.4086949257
0.4098974871
0.4026728668
0.4109202086
0.4105332305
0.4131050332
0.4168627352
0.4267445093
0.4329808879
0.4325822353
0.4354563655
0.3134357183
0.4044401861
0.4046015743
0.3988808608
0.4162795375
0.4158492
0.4192223369
0.4202686508
0.4218028193
0.4202452012
0.4182271024
0.4253855892
0.411083611
0.4123736043
0.408569388
0.4112876276
0.4069786956
0.4075153285
0.4137706322
0.4108989327
0.3145568427
0.404404265
0.4079972831
0.4129151772
0.4041841509
0.4024848566
0.4122142465
0.4089995835
0.4118156929
0.4077095935
0.4028358804
0.3998812427
0.4062758694
0.4111164755
0.4174365657
0.4135638026
0.4160654437
0.4140402305
0.4198668338
0.4192284999
0.3203138193
0.4154264279
0.4068493682
0.4067813247
0.4072653792
0.4025830543
0.3987870313
0.3958356991
0.397820052
0.4013478579
0.4094772704
0.4141455822
0.4151901175
0.4196493726
0.4159903409
0.4170111788
0.413792545
0.4219390939
0.411291408
0.4114509061
0.321416467
0.4111677973
0.413011214
0.4197772514
0.4186995705
0.4149111835
0.4138784083
0.4142420858
0.4168042072
0.4221135862
0.4136883357
0.4127118143
0.4098940959
0.4169893515
0.4102539034
0.4102910348
0.4120949077
0.4064605187
0.4099077128
0.4109729218
0.3183462571
0.4135348786
0.4202434557
0.4149287576
0.421730631
0.4250591499
0.4340321475
0.4370779848
0.4274105405
0.4174084251
0.4279579877
0.4237169075
0.4206548851
0.4150957428
0.4147774394
0.4130607516
0.418126953
0.4158958781
0.4155456694
0.4221875734
0.3225367058
0.4181635243
0.4156744372
0.4177953118
0.4187100632
0.4184823049
0.4137452687
0.4063486793
0.4088801691
0.4132688284
0.4152146048
0.4137775332
0.419558896
0.4206148172
0.4194844121
0.4183861317
0.4176086783
0.4172917944
0.4232437927
0.4214751289
0.3323029295
0.4247862904
0.4270056048
0.4232098345
0.4192450231
0.4063818409
0.4042619459
0.4020042554
0.4038290568
0.4134887209
0.4072320192
0.4140746301
0.4069330134
0.4113712306
0.4125297238
0.4094278123
0.4142526812
0.4064928545
0.3979426508
0.3947955559
0.3182824294
0.4134832001
0.4076978911
0.4040660947
0.4043726574
0.4094120378
0.419186179
0.4204105941
0.4201671312
0.4137363106
0.421656583
0.4165457077
0.4138415517
0.4086257258
0.4064300478
0.4032336552
0.4019411588
0.4073647732
0.4047279813
0.4118350547
0.3177924563
0.4129202476
0.4172124137
0.4173445696
0.4220979594
0.4242337977
0.4242251368
0.4134393609
0.4165496821
0.418563098
0.4087916054
0.4122331795
0.4056832565
0.4167111611
0.4075483489
0.4100565543
0.4130109096
0.4199519228
0.4252959226
0.4262384941
0.3212600098
0.4134732349
0.4131361172
0.4138052314
0.4035005727
0.4035813797
0.397572926
0.404087994
0.402479836
0.4054291585
0.4065076232
0.4061954921
0.4067951013
0.4127582278
0.4157875131
0.4116132152
0.4114569943
0.4083298812
0.4088934301
0.4127838547
0.3131663013
0.408374998
0.4109637492
0.4138900947
0.4204262942
0.4134339081
0.4078411876
0.4079409567
0.4089126738
0.4005502799
0.4007965113
0.399549864
0.402356838
0.4123928495
0.4074381504
0.411350893
0.4073534971
0.4064696455
0.4018044502
0.40368335
0.3170662938
0.4010148548
0.4016047436
0.3979375542
0.4029124763
0.4021110446
0.4058332627
0.4100858562
0.4087970466
0.4130048897
0.4076854509
0.4112086187
0.4106448239
0.4047546332
0.4066626535
0.4083051398
0.410318815
0.4098697348
0.4009050702
0.4132064217
0.3320139668
0.4285703061
0.4228883323
0.4182158455
0.4126000846
0.4176861292
0.4201038008
0.4212088673
0.4189921593
0.4177722695
0.420453271
0.4189054113
0.4200948876
0.4168355097
0.4133196787
0.413196304
0.4080160363
0.4124294726
0.4133011671
0.404532785
0.3221192679
0.4186235691
0.4199596599
0.4249199889
0.4381244673
0.4293158651
0.4296484307
0.4207350622
0.4260683529
0.430593711
0.4266149557
0.4179042474
0.4153249301
0.4168868025
0.4163816112
0.417046966
0.4173174761
0.409499464
0.4021353505
0.4107923178
0.3174809995
0.4173376741
0.4263730457
0.4217128899
0.4192754792
0.4202271661
0.4229704882
0.421086091
0.4195741944
0.4188931475
0.4153605441
0.4204707223
0.4172955519
0.4117671367
0.4039922362
0.4059837551
0.4078649736
0.4079172954
0.4149181398
0.4114133661
0.3109204493
0.3885985801
0.3924144815
0.401733545
0.3939654958
0.3995979912
0.4018442555
0.4066651315
0.4038557303
0.4059910032
0.4095056052
0.4121284453
0.4107613066
0.4085476678
0.4079839754
0.3989679151
0.3994993044
0.4009774724
0.3974990804
0.4013326169
0.4348017587
0.4361443153
0.4312433556
0.4327632891
0.4261068588
0.4307777879
0.3954425475
0.4031583571
0.4149512924
0.4090891046
0.4092880597
0.4124985497
0.4136300262
0.4150277761
0.4059621095
0.410924368
0.4209288533
0.4162566201
0.4159560994
0.4130885799
0.414131994
0.4196842729
0.4195977779
0.420067503
0.4250910476
0.4314305033
0.4274024204
0.424988275
0.4184658558
0.4138955949
0.4124272425
0.409759799
0.4174296219
0.431682407
0.4215030244
0.4298953423
0.4183906331
0.4179753949
0.4174638296
0.4206304479
0.4229458587
0.4294449567
0.4298141518
0.4183491669
0.4120751584
0.4114716872
0.4098831895
0.4081116685
0.4095110257
0.4137821723
0.4144539286
0.4116385882
0.4124559668
0.4270240232
0.4223200941
0.42466768
0.4057347331
0.4128667834
0.4082759584
0.4083597235
0.4115317292
0.4085715922
0.4059217616
0.3950011062
0.3963235085
0.3978204086
0.4229890719
0.4156536895
0.4172051812
0.4139499986
0.4133331764
0.4195082101
0.4168290263
0.4264761605
0.4184160113
0.4178202541
0.421025402
0.4212183871
0.4242783704
0.4190288565
0.4175192765
0.4146045666
0.4156400213
0.4198734342
0.4175505067
0.4198495515
0.3950059252
0.3996196084
0.4014865625
0.3998526414
0.40417066
0.402611138
0.4046886061
0.3992843495
0.4067528735
0.4112293164
0.4153946842
0.419137905
0.4156850881
0.4261904887
0.4212528052
0.4247714891
0.4289615706
0.4331621952
0.4272618839
0.4178128966
0.4249379688
0.4166324703
0.4144559749
0.4168725334
0.4192262599
0.4135519992
0.413537596
0.411698411
0.4152196347
0.4139810604
0.4082553766
0.4149150506
0.4108932731
0.4021912229
0.4009038194
0.3975860024
0.3975299949
0.4061549275
0.4122225281
0.422601286
0.4059288924
0.402222747
0.4024667369
0.4077932635
0.4128341384
0.4147989726
0.4180715879
0.4193337478
0.4144843626
0.4132783754
0.4071161282
0.4174268194
0.4157057675
0.4210437528
0.4217634396
0.4228745207
0.4194558951
0.4136630046
0.4211034826
0.4134833517
0.403350487
0.4050652542
0.4018808551
0.3973163514
0.3975162615
0.3934792621
0.3941080116
0.4026013995
0.4041063243
0.413952409
0.4137199543
0.4099174848
0.4114078226
0.4134783794
0.4194943967
0.4215065423
0.4211803911
0.4233303512
0.4217353186
0.4193585533
0.4103914398
0.4071289677
0.400478988
0.4034289537
0.4070850858
0.4095737542
0.4152417574
0.4179801586
0.4165501359
0.4146870176
0.4074441282
0.4058225113
0.4114503811
0.4161665639
0.4061937985
0.3994298191
0.394610383
0.3861613612
0.3949823825
0.394176029
)
;

boundaryField
{
    flow
    {
        type            calculated;
        value           nonuniform List<scalar> 
48
(
0.3191945328
0.3253018011
0.3134357183
0.3145568427
0.3203138193
0.321416467
0.3183462571
0.3225367058
0.3323029295
0.3182824294
0.3177924563
0.3212600098
0.3131663013
0.3170662938
0.3320139668
0.3221192679
0.3174809995
0.3109204493
0.3109204493
0.3885985801
0.3924144815
0.401733545
0.3939654958
0.3995979912
0.4018442555
0.4066651315
0.4038557303
0.4059910032
0.4095056052
0.4121284453
0.4107613066
0.4085476678
0.4079839754
0.3989679151
0.3994993044
0.4009774724
0.3974990804
0.4013326169
0.4074441282
0.4058225113
0.4114503811
0.4161665639
0.4061937985
0.3994298191
0.394610383
0.3861613612
0.3949823825
0.394176029
)
;
    }
    obstacle
    {
        type            calculated;
        value           nonuniform List<scalar> 0();
    }
    frontAndBack
    {
        type            empty;
    }
    procBoundary2to0
    {
        type            processor;
        value           nonuniform List<scalar> 
31
(
0.3103735495
0.4013951027
0.4012957813
0.3976421199
0.4035045064
0.4116555939
0.4134283138
0.4207753698
0.4174201014
0.420686169
0.4130618789
0.4141603163
0.4026406416
0.4101446209
0.4099737919
0.411086694
0.4123400442
0.415272394
0.4176070235
0.4178408596
0.4287994284
0.426066129
0.4278931551
0.4268519365
0.4370074083
0.4289143809
0.4258758988
0.4180256417
0.4180258166
0.4239061554
0.4239061554
)
;
    }
    procBoundary2to3
    {
        type            processor;
        value           nonuniform List<scalar> 
19
(
0.4293296716
0.4234203354
0.433305778
0.4277112066
0.4190348169
0.4107054016
0.4072833954
0.4246235403
0.4161698771
0.4116060429
0.4179851967
0.4165274647
0.4210669951
0.4120035777
0.4175760732
0.4083520163
0.4265587563
0.4169339129
0.3950289862
)
;
    }
}


// ************************************************************************* //
