/*--------------------------------*- C++ -*----------------------------------*\
| =========                 |                                                 |
| \\      /  F ield         | OpenFOAM: The Open Source CFD Toolbox           |
|  \\    /   O peration     | Version:  2406                                  |
|   \\  /    A nd           | Website:  www.openfoam.com                      |
|    \\/     M anipulation  |                                                 |
\*---------------------------------------------------------------------------*/
FoamFile
{
    version     2.0;
    format      ascii;
    arch        "LSB;label=32;scalar=64";
    class       volScalarField;
    location    "0.002";
    object      internalE;
}
// * * * * * * * * * * * * * * * * * * * * * * * * * * * * * * * * * * * * * //

dimensions      [1 -1 -2 0 0 0 0];

internalField   nonuniform List<scalar> 
546
(
0.2943021323
0.8461989115
0.2969140615
0.2542737211
0.2313401198
0.420445194
0.5590479608
0.7555108972
0.4042411498
0.288890594
0.1716391464
0.3290465402
0.2515304144
0.5853829134
0.1326551445
0.398216375
0.7603698301
0.3991868112
0.3779801345
0.2152382721
0.209344178
0.5909155859
0.6241481711
0.2295461011
0.1774672466
0.2936296264
0.4228275308
0.621872025
0.6439660297
0.7586634815
0.3533006972
0.1997532957
0.281346623
0.1847827762
0.5049273961
0.1421561185
0.3035137842
0.50213945
0.2785237246
0.3750311418
0.2987802516
0.4822392944
0.2415202069
0.6568470851
0.3085750601
0.556290399
0.4161295091
0.392696638
0.4923780856
0.2164270746
0.3764285438
0.44498591
0.5743252274
0.3217410841
0.2867224152
0.4571592555
0.083254563
0.324544838
0.188814352
0.6194256815
0.2788551284
0.3353190358
0.5405689599
0.6985771378
0.2333498439
0.4023234161
0.2118014127
0.5463368866
0.1748778348
0.7198331317
0.4427108933
0.5344883263
0.2484980134
0.3808312958
0.3715466271
0.5991651214
0.5129660441
0.4015823123
0.3064487911
0.444097696
0.3616207121
0.6818822372
0.3439460673
0.3965128735
0.4627854115
0.2442070721
0.4505230802
0.1282185223
0.1583818027
0.1079392501
0.1665608804
0.3103608339
0.4286247649
0.7062514172
0.6620437958
0.2526023174
0.3761925279
0.2341964565
0.305669193
0.1878009954
0.1721335869
0.2818793288
0.4244649546
0.625217212
0.4818420368
0.4805834375
0.5354213066
0.4787318556
0.5887778607
0.3469410871
0.4901038225
0.1811782765
0.2383490871
0.1357108937
0.6972918319
0.2092734992
0.3715412565
0.3491193097
0.4911716917
0.5203952396
0.2530830797
0.3763416584
0.5830281176
0.1521893214
0.4643872827
0.3356176443
0.3468070252
0.4961597414
0.2526054926
0.3613223795
0.1465782928
0.5900873014
0.5093723302
0.2939368764
0.2456149512
0.3725653801
0.2031926257
0.2453172007
0.4885240086
0.05616939881
0.3279234658
0.5080730126
0.3696269067
0.2967474544
0.3998963691
0.423637308
0.2633746931
0.6810368313
0.2200279595
0.1464282949
0.4677191033
0.3606183336
0.4813302438
0.4798235751
0.4095059882
0.4411746068
0.4955261272
0.5766774035
0.2969308706
0.3692023166
0.2808249055
0.5673496263
0.1056708758
0.4030326681
0.2834810431
0.8242947464
0.5762088904
0.4599143959
0.2041703828
0.3482937923
0.4155455277
0.2913025644
0.340490026
0.3613357517
0.2479312898
0.495084636
0.2724393457
0.4667292545
0.581586729
0.7913501178
0.3662165265
0.8959129413
0.4254622989
0.4368912408
0.3145875687
0.6707694936
0.5170083797
0.5542499116
0.2615299388
0.422489941
0.3026388088
0.3541196955
0.2067108521
0.2959517327
0.2664603497
0.3277194559
0.5408579216
0.3648867149
0.178321438
0.1780539355
0.3444941303
0.1858610525
0.4027719654
0.3324505529
0.3046392089
0.5888835727
0.3371225635
0.2562517883
0.6014974851
0.2084841338
0.5072739925
0.7153812818
0.2744072514
0.3472564873
0.5528527352
0.5625876594
0.5220101312
0.5535805496
0.6722273606
0.2479156517
0.6522908952
0.2692571106
0.3150706425
0.6126135095
0.6553030621
0.8605646888
0.5309587578
0.08911422259
0.831776582
0.8325697315
0.1989242577
0.3492167796
0.2553735429
0.7598757903
0.06645060515
0.161742805
0.6352459625
0.3425639087
0.4555346128
0.4456997131
0.4039237884
0.5073844817
0.2866278767
0.2146076462
0.2320634489
0.6248610994
0.2142292554
0.6735197505
0.30413779
0.3876479512
0.2515405204
0.4468109887
0.4616377581
0.4045211819
0.2419225932
0.4321636937
0.4299033333
0.4443494629
0.506481287
0.3362888955
0.4440053578
0.2606334017
0.4522800425
0.3223298512
0.3926715686
0.1777219168
0.2353426677
0.3999203624
0.6094404925
0.1414491256
0.3793100878
0.897838994
0.1829337724
0.3456418556
0.3607975423
0.587056613
0.1648060765
0.7520185932
0.24940819
0.6970421563
0.1834931838
0.4748865931
0.5022597897
0.6017393765
0.4097567986
0.6698856888
0.6517367203
0.2858818861
0.4793432662
0.2119148932
0.3775473941
0.51149686
0.9344777561
0.5776762233
0.2497705136
0.3866677258
0.3145403047
0.2968600979
0.6900434964
0.2900941026
0.2718572186
0.2183734332
0.4350291413
0.3974061376
0.2890291926
0.7345809348
0.534077322
0.3902076405
0.3140926412
0.6043280219
0.4982620778
0.5644858492
0.4466215895
0.6468073714
0.2968095256
0.4280276874
0.4766325553
0.5137203183
0.186487931
0.3545769277
0.2812172556
0.6506419739
0.3622120475
0.7270997399
0.3368529815
0.2186536213
0.5484483243
0.8084242986
0.4588067675
0.3488017127
0.6717258331
0.4877936221
0.7457044995
0.5729075821
0.3256324899
0.3251983955
0.3586343743
0.2778200386
0.5229007403
0.3299304509
0.3307512505
0.2870607238
0.4090391523
0.601935521
0.466818284
0.250133841
0.4701203262
0.392146111
0.5117401597
0.6372136781
0.5291796709
0.4030163115
0.606876135
0.3539351222
0.3792811934
0.4462443963
0.4875623853
0.1357658877
0.6415543893
0.1688965933
0.4171550036
0.4874687213
0.4520760131
0.3589051257
0.5639735311
0.5161268928
0.5817803343
0.5005686346
0.32676728
0.2953987627
0.4031510646
0.5228233007
0.7151601432
0.3550934488
0.1125210563
0.5015782033
0.7274179401
0.6989138138
0.6538288418
0.4549272776
0.7764315843
0.2950416687
0.3665358937
0.326699479
0.8794510388
0.4664262389
0.319568894
0.4026999501
0.8804082797
0.2466160332
0.3896835118
0.2159546608
0.5151328631
0.4332520857
0.5020155368
0.3719941455
0.1716814049
0.3328751341
0.6358875959
0.1401162687
0.2754903005
0.1689197068
0.4901557366
0.2071179818
0.4421373557
0.4513667632
0.5652523978
0.2769331642
0.11351741
0.4927902163
0.4561598026
0.3005676207
0.6835762797
0.9079877958
0.2686161788
0.3500291015
0.258332151
0.3137581892
0.7616763799
0.1341779831
0.3292768363
0.3421493955
0.3560143685
0.2680523163
0.7230928572
0.3153778073
0.7206417121
0.1322743168
0.2760750279
0.1223782485
0.2959328153
0.6778867712
0.4314119758
0.7415618625
0.4859363617
0.3635222061
0.517154194
0.5005928815
0.1387713652
0.3003669547
0.382260969
0.3564000833
0.1919908309
0.1824727712
0.4108683902
0.1987617324
0.4419015455
0.3836528193
0.1720768
0.1716016787
0.2850152153
0.6691130249
0.09905319151
0.3713373647
0.223955379
0.2823399709
0.2468989147
0.4178435116
0.1893952079
0.3915518142
0.112542645
0.2233090624
0.2142425496
0.6480074322
0.3004982905
0.3321818117
0.2985882652
0.4278990984
0.6490142779
0.1909150518
0.3442817308
0.2739985181
0.4277792265
0.4074024623
0.5312947375
0.1777604428
0.3880398131
0.5867739601
0.6255892501
0.4292032007
0.6247311384
0.2674566037
0.1858409359
0.310721475
0.4204750034
0.2469755237
0.3658576952
0.1905593462
0.4720664227
0.3307536871
0.3868219908
0.9675184244
0.2885896905
0.4244931176
0.3205052071
0.2532361328
0.386655008
0.2817889884
0.6691355052
0.40513557
0.2774866872
0.6135180889
0.4597568087
0.2487195589
0.4070313733
0.2777676973
0.5445502286
0.1302515827
0.3927568542
0.164044909
0.6534629283
0.1522270304
0.1258083712
0.2034051402
0.3390286413
0.7814857096
0.656731165
0.7366291211
0.2917589126
0.2785333038
0.7158706129
0.4295900073
0.3786712145
0.8120370942
0.269183815
0.5254910055
0.1500049356
0.8559612117
0.5217233417
0.6164876239
0.01343595758
0.4240135287
0.3422699782
0.1830671292
0.2556277075
0.2223249243
0.4469179015
0.5032166049
0.3563283786
0.3939190032
0.180818926
0.9817428583
0.3005469348
0.5302223149
0.7990749759
0.2702630937
)
;

boundaryField
{
    flow
    {
        type            zeroGradient;
    }
    obstacle
    {
        type            calculated;
        value           nonuniform List<scalar> 0();
    }
    frontAndBack
    {
        type            empty;
    }
    procBoundary2to0
    {
        type            processor;
        value           nonuniform List<scalar> 
31
(
0.1871375259
0.3186845581
0.247558617
0.9504190151
0.4070997652
0.3548113979
0.7728723066
0.5816083332
0.1831659376
0.4197834507
0.09378882895
0.1638745845
0.1835782151
0.2731961299
0.3847141568
0.2378439812
0.5928218396
0.2779666239
0.7616109368
0.05120428446
0.459945514
1.06156772
0.2967620549
0.30959802
0.7390580579
0.441770145
0.3822867733
0.2074460482
0.3192547477
0.7454902777
0.7454902777
)
;
    }
    procBoundary2to3
    {
        type            processor;
        value           nonuniform List<scalar> 
19
(
0.7416401058
0.5885114431
0.7187507566
0.1909025177
0.9237706934
0.2680376874
0.1979595246
0.299121737
0.05934321
0.453694227
0.2618463898
0.7349188896
0.3143182386
0.3101345551
0.8574167675
0.2848644535
0.4824588358
0.5667792371
0.2490078775
)
;
    }
}


// ************************************************************************* //
