/*--------------------------------*- C++ -*----------------------------------*\
| =========                 |                                                 |
| \\      /  F ield         | OpenFOAM: The Open Source CFD Toolbox           |
|  \\    /   O peration     | Version:  2406                                  |
|   \\  /    A nd           | Website:  www.openfoam.com                      |
|    \\/     M anipulation  |                                                 |
\*---------------------------------------------------------------------------*/
FoamFile
{
    version     2.0;
    format      ascii;
    arch        "LSB;label=32;scalar=64";
    class       volScalarField;
    location    "0.002";
    object      linearKE;
}
// * * * * * * * * * * * * * * * * * * * * * * * * * * * * * * * * * * * * * //

dimensions      [1 -1 -2 0 0 0 0];

internalField   nonuniform List<scalar> 
546
(
4.70774267
10.07290461
5.774311285
4.177565143
8.526441315
6.919543067
9.01607925
13.00283545
7.781170259
7.239782926
5.67888757
9.029863858
6.314526098
10.73781902
3.60356115
6.473878872
13.12013158
7.16156649
7.40063155
3.901577268
7.200625726
10.27903785
11.48235368
4.387484745
5.394639742
7.318857667
7.500320552
11.03020513
8.557441123
9.987602081
8.557692115
6.433896134
6.295241409
5.721485627
9.179120801
5.313304143
8.254120605
8.377271703
5.435714852
6.82927485
7.101040429
6.128216662
5.869749239
9.838699606
6.77699935
10.13614096
8.894475819
12.28424376
7.256653133
4.731716176
6.896645349
6.863401618
11.08220514
6.030605805
6.653263641
10.2246154
3.245299317
5.217531123
5.313399366
12.76029493
4.123372104
7.221158964
9.20702965
9.93496219
7.30396663
7.127019869
10.22877746
10.17892206
7.926583444
10.71137941
8.293345098
8.987056612
4.148567432
6.460585666
9.89669843
10.26368385
6.032655261
9.024409168
7.251796867
8.956500492
4.494664259
11.162359
5.786248439
11.94344213
10.01659807
6.109301923
4.665414733
6.689825603
6.068935102
3.40526548
7.218728094
7.388997348
10.69643032
13.32838331
12.6338809
5.707142546
8.643854935
4.914240789
8.663856863
9.433557769
4.198271216
10.39922813
6.2730048
9.059816802
6.920105083
8.182317251
8.431449292
8.361366486
11.4944159
4.130197364
6.575179019
2.890317106
8.888298114
9.301045283
12.38539642
3.255276547
9.394146663
6.520325278
8.103582102
8.575576415
3.986053556
8.094299392
8.484281022
3.624750557
7.56774765
9.122739092
9.668440495
7.740174845
5.316416726
9.187336913
5.030916866
8.644416688
10.93046935
9.725392671
7.732193971
7.775164452
5.46236266
6.189788549
8.142875056
2.339768139
6.518646318
9.657042164
7.85836365
5.206108791
9.086362963
5.587280958
6.651359212
11.39300302
7.26724128
2.775752278
10.4258142
7.351015489
7.623137932
8.084506676
4.253846533
8.319135392
7.797416351
10.64147667
5.364189334
4.339140574
7.543743143
7.804193195
0.989959534
11.44123311
7.406383646
10.32801006
8.807251213
5.881033644
3.165964657
5.179849845
8.027640403
7.348938643
7.297681266
5.030798021
4.600480265
9.739728435
4.835391694
6.950252178
7.876651753
15.8915132
5.584068973
13.87027886
8.034667118
6.90022327
8.130906364
7.949344797
3.841866425
10.29227668
6.432940134
8.80863018
6.093741147
5.33596577
7.224537819
6.104683965
8.050535543
9.3403272
9.437407902
5.795145518
4.722657309
6.646668211
8.668575908
3.82191702
4.611203609
9.708145377
6.259777182
8.467995339
6.779337988
5.22473968
9.300453226
3.233185809
6.796683419
13.48423542
7.878059386
8.794016814
7.994912916
7.447688886
6.053656954
12.52515967
11.02704279
5.282236768
8.126621722
7.001265305
4.196342223
7.347165718
13.28581661
14.08806059
9.425468704
2.616592135
11.20639256
12.49103907
7.623411865
7.748743214
6.078709516
9.524384615
3.249946639
2.32741444
8.128824015
8.221688991
8.848552083
10.28115123
6.181335261
8.753544837
8.480830033
7.058852084
6.857527963
7.841127943
4.567134647
10.15092711
6.901717148
8.639000261
4.285131914
6.818183591
7.591728331
8.125196821
7.682261803
9.460823513
7.118642914
10.93466462
8.792855668
6.386956275
6.126302707
6.575195089
6.918990668
7.862082884
6.348303898
3.985907847
7.675701396
8.47675943
10.41458214
2.527839223
4.63205118
12.34267019
4.787702702
5.955860201
10.52586932
11.58830286
6.080338765
15.56272029
5.0064823
11.28707723
3.92734628
10.0518524
8.029347761
8.91426441
7.866047924
11.74792509
9.700710317
6.252889189
7.944168622
7.077638403
5.647456166
9.082675506
12.41434371
19.23428684
7.074033947
6.555999428
8.881679751
8.445892638
10.23489383
4.326148421
7.000182794
6.772647134
6.089211389
4.208352534
5.527522533
12.40391572
4.923580965
8.656132536
5.832138308
9.982704978
6.687695862
7.06949977
8.69718207
9.36255949
3.785827241
7.996979102
4.88472551
8.577945991
3.916238412
7.408060502
5.476256678
11.07509418
11.6664065
8.505684153
11.31405195
3.439132264
10.40775413
11.77678856
5.253480673
7.328517217
10.25648601
8.3218476
9.347687749
12.97810167
8.338205302
8.074738293
5.401397502
4.879577478
11.20784068
5.960241272
8.321543385
5.600836407
6.358131678
8.41412527
5.306147478
4.522502717
8.927929355
4.599117802
10.15414069
12.05490418
7.029439379
11.54959721
10.56691246
5.263367294
7.736259166
5.332250979
7.694377226
4.35373176
6.705320403
4.860128237
7.826184895
7.998236271
5.983064641
5.321981888
8.207542852
6.802988526
10.35751137
9.126308663
9.791488709
3.669961805
4.563618261
8.141067652
17.63636944
10.43246202
3.766155471
8.58061957
6.831526349
9.673207706
8.807024855
7.459081289
9.040078545
7.063978284
7.089874565
5.07455783
16.38018445
12.07633121
4.478069328
6.460219419
12.79661558
5.304320013
9.319713766
5.612006153
11.27402501
4.641848565
8.862594892
10.43225296
4.958736094
7.922796779
11.70561171
2.917823541
6.988841937
5.376530043
10.58874895
3.328597504
6.256281364
11.56157294
10.3988027
6.106510735
3.478702505
12.10411459
7.454092519
6.193002659
11.83236023
10.49711514
7.314357931
5.642137706
6.280978112
6.049555962
10.20985104
5.827122515
10.19074505
4.73645377
9.116899291
10.60783773
6.341275914
5.946961389
9.997648662
4.628283653
6.585331732
1.784291245
3.909150174
10.09585683
8.141726164
9.656258865
9.024723131
6.99124694
10.87021002
8.291828977
4.77700504
5.459333533
5.771796734
8.468913118
6.979134167
6.309362026
6.551732217
5.811314884
6.64845459
9.890945876
5.691076272
5.85439085
7.285710259
10.58645944
3.132335255
9.915259743
7.99870567
6.224716695
5.863686457
7.137942987
4.19790262
5.46949121
3.863192405
7.696692441
6.540570956
7.933233636
6.832755656
7.415453498
8.548282335
7.014453706
10.63651242
4.209395817
7.988277561
8.677200763
10.07799039
8.150499262
7.517226993
2.035211325
7.308065266
10.03178552
15.02697154
7.124115431
9.291096178
4.328341306
8.271447486
8.288957774
11.58613715
6.121879332
8.16306962
6.868824333
7.814381908
10.85231174
7.469918479
11.82055229
5.143563884
9.20498012
9.779807974
4.509879328
5.660460304
4.124871684
4.652697896
10.29239842
8.061883713
10.1278128
10.99977471
11.81106286
9.265493461
4.196662487
5.97754435
5.632836701
9.087714828
6.946258936
9.589666524
4.829340959
6.424121181
8.763537778
7.372505828
9.621843928
8.224293576
12.26033813
7.222332738
8.964736028
12.18957196
5.576350864
5.632376488
9.214314781
8.042818036
5.532391639
6.481576034
16.0624096
5.245074247
10.13058245
3.814802661
8.86689033
5.099818012
5.791750642
5.844529833
7.307376444
7.81746735
7.999636086
3.338665985
9.754489465
3.596751739
14.78581992
7.43058742
9.796393204
10.90014452
4.82377857
)
;

boundaryField
{
    flow
    {
        type            zeroGradient;
    }
    obstacle
    {
        type            calculated;
        value           nonuniform List<scalar> 0();
    }
    frontAndBack
    {
        type            empty;
    }
    procBoundary2to0
    {
        type            processor;
        value           nonuniform List<scalar> 
31
(
6.543334249
3.930265703
5.459761502
8.627609462
6.252367831
6.156061389
9.033111698
9.657332232
9.824337293
10.49572686
2.731113562
5.367823962
8.358740272
3.833076044
7.086121358
6.816080626
14.51637883
5.347333759
18.34720487
1.497869496
7.066694454
16.81738747
5.680670614
9.206104972
8.608642335
9.236767314
8.007939376
3.658935536
6.923975276
5.838294959
5.838294959
)
;
    }
    procBoundary2to3
    {
        type            processor;
        value           nonuniform List<scalar> 
19
(
8.637339126
10.43322287
7.834379429
3.5559062
14.69805606
7.870770923
9.794604074
7.458118351
2.147645085
10.52659291
5.766666606
10.99970587
8.693449985
7.345176294
9.624725562
9.168207401
10.56063808
8.149423389
6.16042297
)
;
    }
}


// ************************************************************************* //
