/*--------------------------------*- C++ -*----------------------------------*\
| =========                 |                                                 |
| \\      /  F ield         | OpenFOAM: The Open Source CFD Toolbox           |
|  \\    /   O peration     | Version:  2406                                  |
|   \\  /    A nd           | Website:  www.openfoam.com                      |
|    \\/     M anipulation  |                                                 |
\*---------------------------------------------------------------------------*/
FoamFile
{
    version     2.0;
    format      ascii;
    arch        "LSB;label=32;scalar=64";
    class       volScalarField;
    location    "0.002";
    object      linearKEMean;
}
// * * * * * * * * * * * * * * * * * * * * * * * * * * * * * * * * * * * * * //

dimensions      [1 -1 -2 0 0 0 0];

internalField   nonuniform List<scalar> 
546
(
5.863650722
7.82722643
7.891660901
7.806132202
7.86442063
7.847082025
7.834270103
7.764721385
7.720766862
7.737563134
7.737313181
7.870506661
7.913744127
7.843672567
7.858715656
7.726692682
7.693010437
7.663172894
7.624878525
7.566333129
5.905685461
7.937162413
7.866015821
7.934738335
7.880218264
7.862630723
7.839519128
7.843979773
7.84405889
7.814898114
7.869851939
7.766038202
7.822173087
7.761463937
7.758875811
7.878937335
7.919203113
7.947408472
8.004485829
8.037594146
5.862825309
7.893417398
7.853244166
7.761768467
7.921367792
7.987606677
7.982699141
7.952958647
7.927380002
7.958517028
7.885030203
7.944143304
7.776096345
7.88939047
7.788854958
7.781104312
7.758414357
7.780932616
7.838619517
7.833166086
5.926223051
7.979051374
7.958767443
7.980604128
7.783003079
7.800131955
7.867984626
7.826568432
7.894620236
7.84009618
7.799124635
7.710204235
7.845963726
7.864511676
7.953514251
7.910818825
7.901790841
7.848128573
7.980615658
7.90669169
5.903521594
7.974626539
7.791683054
7.742828699
7.800734445
7.733866352
7.651623031
7.746197714
7.695387226
7.658647031
7.770686253
7.863996935
7.903674742
7.873753575
7.870848879
7.905156017
7.836691602
7.919927141
7.764061213
7.747629674
5.911961608
7.856566164
7.787463936
7.848224025
7.875068926
7.889977912
7.842732565
7.825998132
7.817425872
7.876513598
7.836885492
7.789795301
7.792028727
7.828317011
7.780046227
7.84771943
7.905713734
7.863169697
7.988991299
8.096245358
5.834763869
7.887888338
7.943233974
7.929075307
7.95283022
8.040704997
8.092534286
8.082297432
8.022833565
7.942997726
8.00437532
7.90212429
7.939672484
7.861590034
7.837684174
7.827961847
7.831715449
7.750127863
7.675328332
7.761308705
5.899061945
7.935567943
7.867472274
7.786163413
7.802076763
7.752594934
7.773611911
7.752308131
7.856245058
7.819221598
7.862957374
7.850173261
7.894918955
7.87715417
7.863475247
7.849347359
7.879642586
7.920289199
7.93644351
7.919113012
5.90068196
7.862606296
7.820798813
7.800206309
7.823982016
7.678388399
7.634210733
7.643972746
7.668041991
7.787982455
7.730593808
7.770917111
7.731460107
7.810210697
7.841059735
7.815633262
7.811489
7.819144427
7.711161553
7.693658327
5.876628677
7.894659242
7.785330693
7.759908088
7.777328308
7.852354334
7.959955688
7.993009125
7.958043591
7.877500755
7.973391539
7.956558963
7.963687171
7.927970016
7.889391992
7.907518804
7.814829026
7.77639551
7.744854518
7.813878593
5.959427676
8.024095681
8.05200049
7.998373317
8.011126165
8.022981307
8.015679447
7.847171042
7.956122262
7.919994583
7.774372202
7.844894077
7.773128697
7.783987219
7.721872481
7.774368776
7.824209656
8.043590457
8.117031937
8.093304827
5.878772304
7.945808563
7.794456317
7.851265349
7.816143056
7.721726943
7.701792206
7.702032796
7.792196623
7.795309067
7.860966414
7.843870793
7.877466303
7.966275618
7.995759262
7.89788606
7.889001848
7.758014157
7.697709803
7.716408273
5.869198207
7.930269104
7.829000456
7.84702554
7.919319512
7.856593348
7.816246069
7.909020711
7.861688956
7.799300155
7.714757251
7.753392143
7.789886927
7.787737211
7.738528048
7.783650028
7.686869398
7.725712928
7.725317293
7.724095067
5.832774727
7.777304455
7.789476456
7.80312226
7.822859064
7.670183704
7.703513083
7.641042822
7.659184058
7.697641234
7.708923137
7.686798618
7.687461997
7.672691571
7.668424203
7.768113879
7.825186195
7.827988063
7.767932294
7.835136899
5.919439135
8.005502756
7.816831488
7.751094846
7.758726645
7.812499977
7.904041464
7.924264507
7.854263111
7.765297427
7.75669392
7.749500936
7.758408036
7.7374714
7.746947451
7.751680312
7.834245499
7.834676112
7.806160225
7.794852714
5.89145068
7.981053286
7.931430813
8.0183199
8.084115859
8.029423464
7.943072256
7.94539095
8.028014965
8.098211496
8.028199933
7.983022854
7.941875739
7.925944907
8.035132208
7.918111297
7.835460583
7.775021447
7.676342924
7.812705543
5.837342673
7.999586491
7.929649815
7.950890682
7.923974759
7.941395824
8.026717788
8.031927233
7.940631668
8.004343503
7.960229212
8.119780938
8.021591936
7.929918243
7.791022802
7.822853449
7.918125448
7.808143972
7.885719251
7.826196419
5.850019181
7.682397061
7.639521826
7.684261498
7.645980503
7.729643643
7.676582367
7.746522121
7.724337483
7.849074119
7.860511354
7.870162717
7.866299496
7.953505407
7.97481992
7.922388667
7.852982646
7.873546087
7.911987161
7.93213958
7.923109169
8.009003902
7.95981532
8.015317997
8.019038838
8.038214191
7.654033699
7.765491357
7.994989205
7.885778622
7.857470341
7.76223391
7.818887038
7.872423638
7.718105098
7.808068576
7.979924048
7.88477796
7.846209197
7.757595656
7.741895736
7.79027553
7.872895067
7.816221414
7.895551934
7.965869312
7.841531444
7.879862764
7.928273835
7.891415486
7.950807779
7.950553291
7.913360934
8.007840168
7.92715386
8.002590015
7.939565666
7.962697276
7.880454423
7.903597433
7.913760449
7.877609825
7.872889154
7.837575943
7.808015822
7.797664376
7.782212801
7.717944061
7.747481259
7.850722095
7.941724721
7.948181448
8.020554086
8.096468487
8.038376465
8.064420212
7.978879868
7.972345447
7.938848184
7.902323022
7.982181535
7.902032786
7.831741385
7.802147322
7.772980012
7.796497085
7.759016961
7.771304455
7.877953093
7.806163796
7.810900153
7.857465159
7.920445352
7.940812224
7.791070128
7.800465454
7.97595231
7.987908649
7.961846617
7.849826015
7.873281587
7.850202985
7.841287329
7.843912293
7.874775876
7.850902307
7.641632797
7.593918337
7.652135612
7.601650638
7.66773777
7.619166635
7.571806416
7.562544698
7.6366434
7.641260952
7.869389408
7.935992741
7.936182287
7.981362293
7.799069028
7.813349776
7.903680707
7.962282247
7.909127063
7.827661615
8.011702887
7.925598786
7.817142351
7.866129325
8.009707667
7.959047738
7.933075367
7.903730589
7.917218323
7.891784786
7.762800841
7.856272493
7.828480456
7.712804392
7.691147682
7.687391016
7.674405516
7.826768625
7.870764771
7.952370001
7.70949206
7.691684042
7.805398059
7.831667715
7.862853566
7.862373808
7.824046732
7.815547729
7.705853209
7.732221155
7.823160506
7.915210638
7.859737481
7.915822737
7.88958289
7.889088521
7.803177433
7.729440872
7.737725577
7.626456036
7.750230343
7.74316118
7.708553803
7.662290506
7.737737174
7.651618148
7.682597709
7.770802701
7.774905485
7.876724251
7.817875019
7.835840465
7.912548589
7.858081304
7.904775765
7.872122301
7.897649114
7.874887764
7.933027559
7.855985771
7.731785848
7.667644144
7.739856656
7.733770155
7.804747358
7.819449927
7.867793827
7.910844989
7.920421635
7.940606671
8.036413234
7.943462336
7.889878675
7.947713196
7.870402526
7.828692656
7.868870841
7.78098691
7.72984946
7.724700478
)
;

boundaryField
{
    flow
    {
        type            calculated;
        value           nonuniform List<scalar> 
48
(
5.863650722
5.905685461
5.862825309
5.926223051
5.903521594
5.911961608
5.834763869
5.899061945
5.90068196
5.876628677
5.959427676
5.878772304
5.869198207
5.832774727
5.919439135
5.89145068
5.837342673
5.850019181
5.850019181
7.682397061
7.639521826
7.684261498
7.645980503
7.729643643
7.676582367
7.746522121
7.724337483
7.849074119
7.860511354
7.870162717
7.866299496
7.953505407
7.97481992
7.922388667
7.852982646
7.873546087
7.911987161
7.93213958
8.036413234
7.943462336
7.889878675
7.947713196
7.870402526
7.828692656
7.868870841
7.78098691
7.72984946
7.724700478
)
;
    }
    obstacle
    {
        type            calculated;
        value           nonuniform List<scalar> 0();
    }
    frontAndBack
    {
        type            empty;
    }
    procBoundary2to0
    {
        type            processor;
        value           nonuniform List<scalar> 
31
(
5.89859591
7.958930366
7.86407441
7.725066754
7.796118451
7.793355228
7.789174288
7.969573835
7.935576809
7.951100897
7.857816435
7.820785004
7.766165887
7.801470339
7.760518581
7.802340182
7.805214623
7.801351691
7.874615085
7.7984141
7.919397995
7.892209972
7.801607507
7.815671261
7.93167853
7.864545741
7.859697887
7.765690758
7.693622443
7.775664605
7.775664605
)
;
    }
    procBoundary2to3
    {
        type            processor;
        value           nonuniform List<scalar> 
19
(
7.985591948
7.924682207
8.020427549
7.948571921
7.88421745
7.865941673
8.007556999
7.781130288
7.830196231
7.608556531
7.868633087
8.006936974
7.895107861
7.681929098
7.765684279
7.832094036
8.016798431
7.965451754
7.598862498
)
;
    }
}


// ************************************************************************* //
