/*--------------------------------*- C++ -*----------------------------------*\
| =========                 |                                                 |
| \\      /  F ield         | OpenFOAM: The Open Source CFD Toolbox           |
|  \\    /   O peration     | Version:  2406                                  |
|   \\  /    A nd           | Website:  www.openfoam.com                      |
|    \\/     M anipulation  |                                                 |
\*---------------------------------------------------------------------------*/
FoamFile
{
    version     2.0;
    format      ascii;
    arch        "LSB;label=32;scalar=64";
    class       volVectorField;
    location    "0.002";
    object      momentumMean;
}
// * * * * * * * * * * * * * * * * * * * * * * * * * * * * * * * * * * * * * //

dimensions      [1 -2 -1 0 0 0 0];

internalField   nonuniform List<vector> 
546
(
(0.0063266288 -3.037853461e-05 -1.060594438e-07)
(0.0082687342 -3.337665391e-05 -8.904586226e-06)
(0.008383999318 3.989438043e-07 -7.709981786e-06)
(0.008305485083 2.183841734e-05 -1.458941425e-05)
(0.008359372939 -5.440521039e-06 -4.226017551e-06)
(0.008342442881 -2.928556787e-05 1.147805107e-05)
(0.00833117762 -2.844574298e-05 3.292216888e-06)
(0.008251018011 -3.626547312e-05 -4.9199801e-06)
(0.008192504489 -4.363371721e-05 -5.37152123e-06)
(0.008208808902 -9.535308619e-06 -1.656624877e-05)
(0.008206247293 -1.179217323e-05 -2.425111156e-05)
(0.00833075685 1.48337076e-05 6.526694923e-06)
(0.008361735995 2.08009983e-05 1.136054629e-05)
(0.008311847803 3.450744115e-05 1.814210903e-05)
(0.008341249533 3.390956501e-05 3.515859296e-05)
(0.008213490483 2.000365179e-05 1.970966444e-05)
(0.008174833591 1.026031865e-05 2.78688112e-06)
(0.008133247553 -2.749054448e-07 -2.836735476e-07)
(0.008066571516 7.01308742e-06 8.788565478e-06)
(0.008006949213 1.107321854e-05 -3.067874855e-06)
(0.006378461475 2.350537992e-06 1.725797119e-05)
(0.008375589998 1.07045965e-06 2.536185421e-05)
(0.008348342846 9.17254341e-06 2.87276351e-05)
(0.008423410421 -2.356138203e-05 2.205221202e-05)
(0.008368484063 3.0960004e-06 1.498566553e-05)
(0.008370132663 -3.700278583e-07 -4.375899628e-06)
(0.008332961385 -2.355819426e-05 -1.439276808e-06)
(0.008334351467 -1.768916718e-05 3.908440032e-07)
(0.008318719233 4.140438073e-06 -1.672486248e-06)
(0.008295755105 9.967010913e-06 2.638011409e-06)
(0.008348247487 1.13740814e-05 -9.883671981e-06)
(0.008242200662 1.707164082e-06 -1.727397104e-05)
(0.008316636064 -1.50477043e-05 -4.12748491e-05)
(0.008238390829 -1.998321602e-05 -3.673057178e-05)
(0.00822802286 -3.327600365e-06 -3.987446879e-05)
(0.008343440605 2.29314032e-05 -1.740058657e-05)
(0.008394483605 1.010364485e-05 -2.364294499e-05)
(0.008448013469 2.750361292e-05 -3.177691017e-06)
(0.008525115689 5.644614097e-06 1.591021526e-05)
(0.008560239875 2.230076369e-06 3.273689716e-05)
(0.006324638694 1.223687256e-06 -2.357450421e-05)
(0.008324437816 6.511972311e-07 -4.229710966e-05)
(0.008314515528 -8.991909491e-06 -3.119860726e-05)
(0.008230307639 -2.933728314e-05 -3.111119691e-05)
(0.008379526501 -2.133260653e-05 -1.850221807e-05)
(0.008438430468 -2.143060677e-05 -2.455378357e-05)
(0.008451902279 1.144164618e-05 -2.804888674e-05)
(0.008429239412 1.785898878e-05 -2.072103463e-05)
(0.008404705011 1.096360592e-05 -2.702821101e-05)
(0.008438914114 -1.476209025e-05 -2.789023982e-05)
(0.008374427471 9.365888813e-06 -3.672123962e-05)
(0.008442425077 5.791867312e-06 -3.18259259e-05)
(0.008281945458 9.382386617e-06 -1.818152726e-05)
(0.008389689758 -4.318044432e-06 -2.784535777e-06)
(0.008302585354 3.676935971e-06 -1.511688164e-05)
(0.008280038788 -1.155347704e-05 -1.176053188e-05)
(0.008256989744 -4.956349353e-06 -6.562538962e-06)
(0.008279333723 2.787217084e-06 -2.004867709e-05)
(0.008325671454 7.718724856e-06 -2.534032277e-05)
(0.008312061655 -7.260652606e-06 -4.10068976e-05)
(0.00637406382 -9.856909501e-06 -1.703747767e-05)
(0.008391728596 -4.04475571e-05 -7.310903146e-06)
(0.008435883585 -3.560229204e-05 -1.55452876e-05)
(0.008450898511 -2.746641434e-05 -1.04605722e-05)
(0.008255852975 -3.406628093e-05 -9.411916502e-06)
(0.00826651439 -1.693246072e-05 7.499222128e-06)
(0.008337308356 -3.204602731e-05 6.243477932e-06)
(0.008293793903 -9.764283035e-06 -1.507234716e-06)
(0.008372097202 3.384836152e-06 -1.558620783e-05)
(0.008313854397 2.284664602e-05 -7.04789235e-06)
(0.008259457123 -1.210806474e-05 -1.273294383e-05)
(0.008153191076 -4.444077081e-07 -3.574413661e-06)
(0.008283982804 1.302020966e-05 -2.935077715e-05)
(0.008303664427 2.222078526e-05 -1.138012683e-05)
(0.008406031458 1.160364294e-05 -1.100437117e-06)
(0.008356029106 -6.058088126e-06 -1.744117744e-05)
(0.008362627391 1.995294176e-06 -2.90577169e-07)
(0.008324822885 -1.416710588e-05 1.15190899e-05)
(0.008466359127 -2.712154537e-05 1.053528221e-05)
(0.008398009283 -6.842781793e-06 3.160284493e-05)
(0.006352705135 -2.911223182e-05 -1.222531639e-05)
(0.008405362978 -7.686712086e-07 -1.55722701e-05)
(0.008264739159 8.736543343e-06 -1.240456086e-05)
(0.008233161279 7.988459423e-06 -7.376491304e-06)
(0.008275234811 3.423888062e-06 1.399247138e-07)
(0.00820026702 3.850216886e-06 -1.450122122e-05)
(0.008129629527 1.072135583e-05 6.233436669e-06)
(0.008216457702 -1.171361838e-05 3.246594603e-05)
(0.008162583386 -3.197893875e-05 3.494699148e-05)
(0.008128961234 -2.97130463e-05 4.138615287e-05)
(0.008240661656 1.317517204e-05 3.83718339e-05)
(0.008347374204 -4.226731273e-06 3.05355669e-05)
(0.008388315933 -1.713347923e-06 4.088839682e-05)
(0.008370988939 -2.6054369e-05 3.835091647e-05)
(0.008360667362 -2.160240128e-05 3.017709172e-05)
(0.008395569438 -6.097691531e-06 2.879910989e-05)
(0.008323654221 -9.485247308e-06 3.09962762e-05)
(0.008391278921 -1.318443254e-05 1.491908858e-05)
(0.008233239403 -1.067497884e-05 1.220889146e-05)
(0.008216520713 -2.456675779e-06 -2.480267613e-07)
(0.006377273732 1.198892771e-05 -1.336389797e-06)
(0.008286186791 1.229834324e-05 1.274427055e-05)
(0.008268984938 7.914437735e-06 1.733373421e-05)
(0.008327958428 3.706285709e-05 1.480681819e-05)
(0.008361335618 2.627282506e-05 2.852454951e-05)
(0.008376235751 -1.34892369e-06 2.584595462e-05)
(0.00833174979 -7.863814196e-06 2.18195671e-06)
(0.008310333133 -2.973617343e-05 -2.72423478e-05)
(0.008309453763 -1.064809403e-05 -5.374883729e-07)
(0.008376599817 -2.119258502e-05 -9.807670711e-06)
(0.008330328919 -5.997205879e-05 3.999455397e-07)
(0.008282486984 -4.992535735e-05 -4.049325521e-06)
(0.008283688833 -2.854437325e-05 -4.370103511e-06)
(0.008294870549 -1.088714187e-05 -1.044088703e-05)
(0.008248634341 -1.483592845e-05 -9.012175196e-06)
(0.008324726755 -1.357678255e-05 -1.996430236e-05)
(0.00837542782 -3.697904628e-06 -3.198713798e-05)
(0.00833225399 -6.651359987e-06 -3.052896714e-05)
(0.00846785633 9.378869741e-06 -2.718103062e-05)
(0.008559528502 1.09667372e-05 -1.138225183e-05)
(0.006307751911 3.207316464e-06 -1.04571814e-05)
(0.008345396337 2.121164174e-06 -7.65873747e-07)
(0.008442742858 -1.4996853e-05 -3.333407054e-06)
(0.008408264181 -2.468577982e-05 -1.04679087e-05)
(0.008440650856 -3.475087195e-05 -1.699959919e-05)
(0.008533724589 -1.357306984e-05 -2.801308541e-05)
(0.008576511742 2.752507418e-06 7.065123016e-07)
(0.008572861782 3.423146498e-06 1.2525334e-05)
(0.008495109122 6.908834584e-06 -1.223491993e-07)
(0.008430289186 -1.20937246e-05 -1.545267275e-06)
(0.00847697968 1.876442887e-05 4.061641293e-06)
(0.008381835242 2.302938227e-05 8.172621775e-06)
(0.008410013864 -1.009930069e-05 -1.345973437e-07)
(0.008321085302 -2.95523822e-05 -8.385857734e-06)
(0.008306504264 -5.916812051e-06 -1.123400732e-05)
(0.0082964387 3.855654344e-06 -6.707325482e-06)
(0.008302426892 -1.920070409e-06 -2.682055639e-06)
(0.008226663683 -3.465822757e-05 1.286939249e-05)
(0.008139120716 -3.73941175e-05 5.191535523e-06)
(0.0082260843 -4.202884049e-05 -8.379167502e-06)
(0.006353794815 -9.684430929e-06 7.580686868e-06)
(0.008364359169 -1.808118919e-05 -1.590320864e-05)
(0.008355619025 -2.659768637e-05 -3.074926e-05)
(0.008287156431 -2.329078755e-05 -2.109077792e-05)
(0.008298109949 -2.143277665e-05 -7.615015512e-06)
(0.008239856817 -9.526876546e-06 -1.924808338e-05)
(0.008261795493 -1.4038958e-05 -3.077239983e-05)
(0.008230328528 -3.15797489e-06 -1.759547927e-05)
(0.00834478749 -2.414847987e-06 -3.083653066e-05)
(0.008286613941 2.048307009e-05 -3.321623511e-05)
(0.008339057291 9.593556342e-06 -3.159689896e-05)
(0.008334046887 -6.213856176e-06 -3.994743e-05)
(0.008386691665 4.520714959e-06 -4.580910494e-05)
(0.008387524111 4.109597399e-06 -2.892053247e-05)
(0.008369408775 -1.337395076e-05 -3.269978164e-05)
(0.008349009334 -2.748071912e-05 -2.896942644e-05)
(0.008365344641 -1.859985823e-05 -3.582703138e-05)
(0.008395792371 9.091151004e-06 -4.070943442e-05)
(0.008443812968 -6.821287944e-06 -5.533589441e-05)
(0.008415656431 -7.034377393e-06 -4.836296792e-05)
(0.006393853357 -5.852996059e-06 -2.924420694e-05)
(0.008327421798 -8.424111744e-06 -2.805640764e-05)
(0.008326090803 -2.531017613e-05 -2.172690633e-05)
(0.008298918 -1.85924687e-05 -4.300877491e-05)
(0.008324921094 -3.626137717e-06 -3.827630247e-05)
(0.008163834831 -6.720498187e-06 -1.083863571e-05)
(0.008118948989 -3.234720557e-06 -2.170903534e-06)
(0.008124300901 -3.334937697e-06 -8.872560675e-06)
(0.008139421484 -1.04209582e-05 -7.421675379e-06)
(0.008275036603 -2.764889486e-05 -1.404556627e-05)
(0.008217205394 -1.850279187e-05 -2.296683839e-05)
(0.008264058142 -1.15193223e-05 -7.601107055e-06)
(0.008216447469 2.286638473e-05 1.834145043e-05)
(0.008288955145 5.631150154e-06 1.90608555e-05)
(0.008317721505 -1.086174074e-05 9.27172562e-06)
(0.008304227434 -1.044487375e-05 1.267164002e-05)
(0.00831629839 -1.371507031e-05 8.684583515e-06)
(0.008311184198 -3.817012287e-05 -4.018030036e-06)
(0.008186514938 -1.215407392e-05 1.499270983e-05)
(0.008164176782 -2.860911505e-05 8.59637835e-06)
(0.006324464724 -4.430613769e-06 6.792147373e-08)
(0.008311156715 1.084362796e-05 1.653138744e-05)
(0.008255065493 2.813067734e-05 2.727468508e-05)
(0.008218401535 9.667075299e-06 3.725389208e-05)
(0.008236181088 2.922524837e-06 2.323900601e-05)
(0.008326162309 1.876838877e-06 2.253366417e-05)
(0.008439291212 -1.380555536e-05 1.154924759e-05)
(0.008481638129 -2.115382603e-05 -9.697091565e-06)
(0.008440363937 -2.698263688e-05 -1.034089616e-05)
(0.008354339488 -1.235874017e-05 -1.11080952e-05)
(0.008466205809 -1.866876343e-05 -7.009368276e-06)
(0.008444992594 -1.731225311e-05 -3.337296447e-05)
(0.008452561325 -3.686725242e-05 -3.676388728e-05)
(0.008419235675 -2.319989345e-05 -4.172629545e-05)
(0.008365630978 -6.097193536e-06 -3.482917823e-05)
(0.008388922477 1.21265094e-05 -3.064675632e-05)
(0.008295840238 2.836675288e-05 -2.903577194e-05)
(0.008269118865 3.238940691e-05 -3.261234945e-06)
(0.008251758803 9.826066173e-06 -1.702064721e-05)
(0.008318730426 -4.263630455e-06 -6.381961819e-06)
(0.006420758383 1.44759376e-05 4.773984407e-06)
(0.008446487666 9.215096406e-06 -2.780107779e-06)
(0.008508339785 3.700176847e-06 1.084900034e-06)
(0.008463806005 -8.712759776e-06 -1.10300638e-05)
(0.008472191309 2.143672476e-06 -5.789840845e-06)
(0.008479239557 -1.966700953e-05 -2.07963075e-06)
(0.00847170058 -2.815973834e-06 -3.859649919e-06)
(0.008276529684 -3.489955978e-06 1.468543221e-06)
(0.008397290181 -2.68506363e-06 7.33511066e-06)
(0.008381770619 4.279330421e-06 9.289936174e-06)
(0.008227599403 -2.406734958e-06 2.545317884e-05)
(0.008304838637 2.308514285e-06 3.428177846e-05)
(0.008241403677 -1.202026846e-06 2.810136992e-05)
(0.008263484275 1.087718841e-07 1.449142702e-05)
(0.008204340014 6.999998246e-06 6.277012463e-06)
(0.008267886777 -1.472085158e-05 1.301179795e-05)
(0.008300670204 -1.529333711e-05 1.466975657e-05)
(0.008528429216 -2.352006122e-05 -1.200509824e-05)
(0.008578184342 1.809858207e-05 7.075986439e-06)
(0.008559776511 4.407133784e-06 2.264359458e-05)
(0.006337369188 -7.247074862e-07 2.410873779e-05)
(0.008378346634 3.878088256e-06 2.960064132e-05)
(0.008288079747 -7.964694408e-06 2.080981288e-05)
(0.008328238825 9.613255106e-06 3.422868486e-05)
(0.008280961659 -1.167345765e-05 1.834745928e-05)
(0.008206638528 -2.356228428e-05 9.816876998e-06)
(0.008180994385 -2.284107411e-05 1.103076209e-05)
(0.008180765839 -6.182169354e-06 1.430882395e-05)
(0.008262407236 3.516843742e-07 2.624074487e-05)
(0.008259352969 4.425026962e-06 1.232852169e-05)
(0.008315807428 9.075944461e-06 -3.552036828e-06)
(0.008297653285 8.626938561e-06 1.605076793e-05)
(0.008310556783 -8.229424134e-06 2.884111181e-05)
(0.008390119216 -6.52162892e-06 5.323763901e-05)
(0.008436803089 7.731425886e-07 6.377763433e-05)
(0.00834586441 -4.320049229e-06 5.522299641e-05)
(0.008363345455 -6.82902178e-06 5.053139874e-05)
(0.008217963329 8.392828254e-06 4.911124373e-05)
(0.008170037133 -1.140655696e-05 4.736363272e-05)
(0.008198362263 5.869802395e-06 1.229424229e-05)
(0.006299111187 9.149497303e-07 -1.419929265e-05)
(0.008324342551 -1.692810467e-05 -3.343586057e-05)
(0.008284414059 -1.930042489e-05 -2.226544427e-05)
(0.00830764995 -1.121231371e-05 -2.955851496e-05)
(0.008381016177 5.590482588e-06 -1.986333939e-05)
(0.008303877585 2.035569978e-05 -7.414675813e-06)
(0.008261345994 1.759875585e-06 -2.170812309e-06)
(0.008363886961 7.80388031e-06 2.946200075e-06)
(0.00832585627 1.564561773e-05 9.946193759e-06)
(0.008262229865 -1.546751817e-05 2.854602889e-05)
(0.008185370663 -1.784624268e-06 2.883386972e-05)
(0.008210038387 -1.366906172e-05 4.280725611e-05)
(0.008241329063 -5.71035615e-06 2.761975058e-05)
(0.008251322674 -3.403173922e-06 4.481574951e-07)
(0.00819410212 1.25663457e-05 -9.208089922e-06)
(0.008231076502 1.344286413e-05 -2.162445575e-05)
(0.008123972125 4.948610037e-06 -1.924485828e-05)
(0.008169459356 -6.836157974e-06 -1.422484049e-05)
(0.008162299451 4.838327777e-06 -1.661265783e-05)
(0.008160518251 6.213853889e-06 -1.747683153e-05)
(0.006302814987 7.959458351e-06 -2.559844693e-05)
(0.008202001807 2.620124509e-06 -2.3982052e-05)
(0.008270243979 1.799815464e-05 -3.672431412e-06)
(0.008280954102 5.702436739e-06 -6.451159504e-06)
(0.008304489829 5.84765133e-07 4.895809277e-06)
(0.008189349548 5.735597142e-06 9.530388371e-06)
(0.008203235649 1.858329823e-05 1.713667079e-05)
(0.008139925587 2.37014265e-05 2.635149809e-06)
(0.008140810891 -5.081972089e-07 -1.093402099e-05)
(0.008172567321 6.901333447e-06 -1.390841603e-05)
(0.008186567055 1.492371615e-06 -3.243910273e-05)
(0.008171783396 -2.305946597e-06 -4.10998323e-05)
(0.008170908389 3.706437115e-06 -3.573786744e-05)
(0.00815891148 2.383946653e-06 -3.421593408e-05)
(0.008167677346 5.103704489e-06 -3.256565738e-05)
(0.008259269637 3.030343379e-07 -2.335815557e-05)
(0.008305692673 -2.441130109e-06 -1.28621743e-05)
(0.00830577458 1.669606917e-06 -1.023368773e-05)
(0.008250390909 -3.286427071e-06 -3.485024376e-06)
(0.008332079496 -9.423491762e-06 -3.877904821e-07)
(0.006403398246 7.138991214e-06 -2.068385182e-05)
(0.008467118898 1.443436136e-05 -1.894989738e-05)
(0.008317074521 1.260637509e-05 -2.407424318e-05)
(0.008241606279 2.191062917e-05 -1.849862939e-05)
(0.008234783665 2.12623256e-05 -1.914551361e-05)
(0.008290003391 3.990508927e-05 -1.852714409e-05)
(0.008376671125 9.3038755e-06 -8.666566848e-06)
(0.00841055817 8.929887075e-06 -2.124310522e-05)
(0.008338670603 1.009711111e-06 -2.349667869e-05)
(0.008262412854 4.621364497e-06 -1.839366249e-05)
(0.008254572884 1.895300001e-05 -1.069299562e-05)
(0.008259607121 7.749496147e-06 -8.805660834e-06)
(0.008275146125 -1.037280149e-05 4.304722235e-06)
(0.008245264428 -9.423604595e-06 -2.350645227e-06)
(0.008256263803 -2.840625499e-05 -8.883035254e-06)
(0.008269443325 -3.105954105e-05 -1.468018181e-05)
(0.008344984048 -4.069332229e-05 -6.175955353e-06)
(0.00833932981 -4.427721067e-05 -5.332608158e-06)
(0.008310294576 -1.908171257e-05 -6.520292379e-06)
(0.008279688028 -1.159124014e-05 7.003344222e-06)
(0.006345885047 2.098144755e-05 -1.84825455e-06)
(0.008408356413 3.60613939e-05 -2.695198573e-05)
(0.008393151047 3.934310356e-05 -2.067241594e-05)
(0.008471807887 3.011498209e-05 -2.899281428e-05)
(0.008558733637 1.851993499e-05 -3.642979847e-05)
(0.008492802208 -6.933191635e-07 -5.367919198e-05)
(0.008421022487 2.48793745e-05 -3.02430915e-05)
(0.008412238495 4.221713063e-05 -1.915538254e-05)
(0.008493987971 2.409136357e-05 -1.997151751e-05)
(0.008571899304 5.195054032e-06 -1.161153234e-05)
(0.008481063105 -6.620840585e-06 -7.898700707e-07)
(0.008430493756 -1.156301182e-05 -6.509562202e-06)
(0.008392868918 -8.707438161e-06 -1.82320699e-05)
(0.008395244132 -5.859776493e-06 -1.262905957e-05)
(0.00851136054 -7.841177525e-06 -9.05266073e-07)
(0.008382912687 -1.440954607e-05 -3.834281821e-06)
(0.008308390093 1.389262125e-06 -2.254791879e-06)
(0.008237908098 -4.528463452e-06 -2.328015213e-06)
(0.008139363024 8.90017223e-07 -1.299992243e-05)
(0.008285792862 -1.297588776e-05 -2.18771197e-06)
(0.006299133096 -6.042652031e-06 -4.480410101e-06)
(0.008429883406 -1.550289274e-05 -5.62162811e-06)
(0.008417828523 -2.040188182e-05 -8.482175214e-06)
(0.008429325348 -2.288115932e-05 1.47786593e-06)
(0.008397158892 -3.255281556e-06 5.05062424e-06)
(0.008422056738 4.450079662e-06 -4.863882178e-06)
(0.008508399933 -5.37884163e-07 -9.004822021e-07)
(0.008506421931 7.889167281e-07 -9.461899872e-06)
(0.008434353528 1.183146144e-05 3.314335677e-06)
(0.008488336601 1.826289104e-05 -6.208050368e-06)
(0.008446716211 1.965596726e-05 -1.049223749e-05)
(0.008594342436 2.438684952e-05 -2.910758695e-06)
(0.0084995144 4.035947417e-05 7.312790803e-06)
(0.008401059545 3.64974661e-05 5.845997727e-06)
(0.008236729 2.222689546e-05 -3.099024304e-06)
(0.008279943648 3.109543495e-05 -7.121878144e-06)
(0.008371134863 4.28269833e-05 -2.636128459e-05)
(0.008256858023 1.512944177e-05 3.774160857e-06)
(0.008334938003 -7.435265955e-06 -1.857687841e-05)
(0.008260488398 -1.135046882e-05 -1.139683642e-05)
(0.006283973526 1.158506238e-05 3.399759502e-06)
(0.008087000768 1.576906123e-06 -6.575653682e-06)
(0.008114315169 -1.308653794e-06 1.871929216e-05)
(0.008183419731 6.293055565e-06 2.439278452e-05)
(0.008142062914 8.566166132e-06 1.880173209e-05)
(0.008225767143 2.897517066e-05 3.155262586e-05)
(0.00818985638 1.987343817e-05 1.34420805e-05)
(0.008245214995 1.501913592e-05 2.216888852e-05)
(0.008218495694 1.643406568e-05 1.403810867e-05)
(0.0083389667 3.605600147e-05 1.935557764e-06)
(0.008364381695 6.018228784e-05 -1.209244592e-05)
(0.008377305213 7.621054799e-05 -1.327144694e-06)
(0.008359464361 4.070505549e-05 -1.959406015e-05)
(0.008435534873 6.30383268e-05 -9.02586249e-06)
(0.008456925969 8.532253636e-05 -3.450036483e-06)
(0.008397146248 6.006948158e-05 -7.088048975e-06)
(0.008323656896 3.209441484e-05 -1.050198436e-05)
(0.008363173813 4.273984528e-05 -1.306949856e-05)
(0.008405344739 4.511599526e-05 -1.158399545e-05)
(0.00841747914 4.585612553e-05 -4.033315411e-06)
(0.00840112337 4.286110697e-05 -1.01504431e-05)
(0.008485530494 3.260622813e-05 -4.366140437e-06)
(0.008455015515 2.002533952e-05 4.371960782e-06)
(0.00850474411 2.425941347e-05 -8.244716567e-06)
(0.008520489714 4.107010415e-05 -2.359748468e-05)
(0.00853683075 6.914171467e-05 -4.853882552e-05)
(0.008112139383 -6.806583986e-06 -9.897030271e-07)
(0.008211528736 -6.145836283e-06 2.164347908e-05)
(0.00846416894 -2.545096237e-05 1.619156468e-05)
(0.008375000166 -2.507807378e-05 1.32134315e-06)
(0.008359014339 -2.939686388e-05 -4.211186555e-06)
(0.008265876434 1.507131287e-05 1.439399982e-05)
(0.008322559778 1.792465422e-05 -9.075630217e-06)
(0.008356836902 5.404634524e-05 -1.147143232e-05)
(0.008205828878 4.386595687e-05 -2.586818572e-05)
(0.008277775225 5.834925313e-05 -1.709088177e-05)
(0.008493484685 -1.480346055e-05 3.052750869e-05)
(0.008399592657 -1.667612394e-05 1.047316959e-05)
(0.008371281836 -1.731324206e-05 2.081571995e-05)
(0.008266014744 5.63578542e-06 3.110888956e-05)
(0.00823510278 6.201768399e-06 2.54796914e-05)
(0.008277054841 -7.03580739e-08 8.210746589e-06)
(0.008355287564 1.621662353e-05 1.939088247e-06)
(0.008294667948 3.667461513e-06 2.322970444e-05)
(0.008366694925 2.079569208e-05 2.63620839e-05)
(0.008430722729 3.713340916e-05 2.240929934e-05)
(0.008338541705 6.163333906e-06 -2.995693665e-05)
(0.008367926315 2.631320604e-05 -3.476941904e-05)
(0.008419131106 9.743981091e-06 -3.617545897e-05)
(0.00837104687 -1.04945205e-05 -3.016114894e-05)
(0.00842844623 -6.537711641e-06 -4.059515e-05)
(0.008415206711 1.574809439e-05 -3.213085997e-05)
(0.008379121358 2.416301568e-05 -2.132983055e-05)
(0.008478178158 2.403830364e-06 -3.154843635e-05)
(0.008402129114 1.755886645e-07 -3.331228453e-05)
(0.008499958167 -1.919871293e-05 -2.669856588e-05)
(0.008425477632 -8.239438345e-06 7.040449085e-06)
(0.008442209255 6.936098618e-06 -1.044684101e-06)
(0.008356144932 2.393947423e-05 1.291908789e-05)
(0.008367407917 3.887405076e-05 8.720698874e-06)
(0.008395326417 2.704141443e-05 1.740287026e-05)
(0.008374428937 1.34384576e-05 1.650273327e-05)
(0.008371123488 -2.146769298e-05 2.811567082e-05)
(0.008334339858 -3.389407425e-05 2.890312756e-05)
(0.008278372757 -2.935337266e-05 1.093426726e-05)
(0.008275275957 -3.326930227e-05 1.295635508e-06)
(0.00825127869 3.489904411e-07 2.673447549e-05)
(0.008185209631 3.456217345e-06 7.386403628e-06)
(0.008219378392 -1.051453644e-05 3.953610702e-06)
(0.008326603704 -3.413905364e-05 1.124530856e-05)
(0.008403229941 -1.850624422e-05 9.310854413e-07)
(0.008428065893 -4.797430483e-06 3.916113006e-06)
(0.008503913543 5.516691146e-07 -1.186325999e-06)
(0.008577147079 9.986241292e-06 -8.860592786e-06)
(0.008522897176 -1.103923023e-05 -4.457787471e-06)
(0.008545623596 1.653162032e-05 -7.891370043e-06)
(0.008432269614 -2.773059401e-06 -1.31557951e-05)
(0.008448204925 -2.540189581e-06 -9.547979658e-06)
(0.008393479895 -7.01219408e-06 -2.15485879e-05)
(0.008366704292 1.075819203e-06 -1.668281326e-05)
(0.008451864835 -2.338002068e-05 -1.445251437e-05)
(0.008356973287 -4.194552036e-05 -1.671131464e-05)
(0.008283110746 -3.645466882e-05 -2.37906911e-05)
(0.008252162422 -1.568976411e-05 -2.790822094e-05)
(0.008221645266 -1.057925923e-06 -3.379897919e-05)
(0.008261842483 -1.382826558e-06 -4.49533819e-05)
(0.008233512569 -3.092448756e-05 5.10539445e-06)
(0.008237684212 -1.804057157e-05 -8.832803375e-06)
(0.008343830448 -2.52427188e-05 -1.038186966e-05)
(0.008289986325 -7.914409692e-06 -3.45999227e-05)
(0.008275082623 9.655234515e-06 -7.298618999e-05)
(0.008328620734 1.357416252e-05 -7.443260559e-05)
(0.00839023596 7.534478251e-06 -6.867248988e-05)
(0.008406342314 -6.364849624e-06 -4.514965466e-05)
(0.008263311362 -8.862746478e-06 -2.797276317e-05)
(0.008269315421 -6.958372355e-06 -8.623621862e-06)
(0.008481154378 -3.982699537e-06 -5.506745819e-05)
(0.008487819817 -1.755462419e-05 -5.949448605e-05)
(0.00846155501 2.279396101e-06 -3.173681609e-05)
(0.008319452627 -2.241815559e-05 -7.068396136e-07)
(0.008345569286 -1.835368361e-05 1.442450719e-05)
(0.008331182634 4.330022845e-06 1.709815833e-05)
(0.008320025974 -6.379650332e-06 5.037586188e-06)
(0.008331279885 2.436166313e-05 7.539413805e-06)
(0.008345947852 1.828346702e-05 -1.240313284e-05)
(0.008327188085 -2.674976187e-05 -1.670598359e-05)
(0.008120811835 -1.566788355e-05 1.110096388e-06)
(0.008097042787 -3.411919429e-06 5.543616147e-06)
(0.008133915391 -4.66733536e-06 -4.097042156e-06)
(0.008099427821 8.559749345e-06 -1.054670066e-05)
(0.008174205946 -2.649098088e-06 -3.016141497e-06)
(0.008119219118 -2.01545829e-05 -7.026309035e-06)
(0.008090283584 -2.932212325e-05 5.499864647e-07)
(0.008068036359 -2.361947496e-05 -5.102584078e-06)
(0.008144324033 -1.609998952e-05 -1.370275793e-06)
(0.008151684109 6.714480974e-06 -1.582527817e-05)
(0.008352899873 1.553217944e-06 -5.424375298e-06)
(0.008423812159 1.273269494e-07 -8.195358705e-06)
(0.008426647038 4.742755588e-06 4.815768577e-06)
(0.008494767022 7.428436833e-06 2.392726945e-05)
(0.008314358349 2.720015178e-05 6.084207407e-06)
(0.00831244881 1.120121023e-05 1.804926774e-05)
(0.00840684758 1.18033476e-05 1.655117294e-05)
(0.008439230843 1.980636553e-05 2.045791583e-05)
(0.008391694 3.569752815e-05 1.633962302e-05)
(0.008295612099 1.348729024e-05 3.574615792e-05)
(0.008485455523 -2.773771337e-06 2.648457951e-05)
(0.008387182455 -7.317036704e-06 2.96212127e-05)
(0.00828354096 -4.430284377e-06 2.68295598e-05)
(0.00831659145 3.869291346e-07 3.295690357e-05)
(0.008453073652 -8.688360514e-06 3.235492392e-05)
(0.008411435531 1.847975373e-06 1.964959398e-05)
(0.008391753909 2.688574779e-05 -6.210856416e-06)
(0.008361806884 4.036459458e-05 6.931637128e-06)
(0.008394474103 2.762518476e-05 -5.084248473e-06)
(0.008368610229 4.546892319e-05 -1.548773187e-05)
(0.008243348767 1.803819076e-05 2.175405787e-05)
(0.008329830911 1.468352196e-05 9.971813405e-06)
(0.008303989534 9.611233069e-06 -3.724534234e-07)
(0.008176229252 4.885117694e-06 -1.639176278e-05)
(0.008150763858 1.028036818e-05 2.82202856e-06)
(0.008134807431 -2.311503691e-06 1.644098862e-05)
(0.008120026204 -1.299726298e-05 2.884783215e-05)
(0.00827864043 -2.261847787e-05 4.37796787e-06)
(0.008327815639 -4.990381529e-05 -2.130265111e-06)
(0.008408873639 -1.791185778e-05 -4.99688277e-06)
(0.008143090662 5.981506372e-06 -3.625955289e-05)
(0.008145849186 2.69054888e-06 -2.751823894e-05)
(0.008245294182 8.049395869e-06 -1.950731284e-05)
(0.008302807249 9.230503569e-06 -1.352025939e-05)
(0.008331238857 -2.638799498e-05 -2.914816286e-05)
(0.008349920238 -2.228240554e-05 -1.534938182e-05)
(0.00831455711 -1.291832805e-05 -3.085930041e-05)
(0.008294601475 -2.279498563e-05 -2.026395806e-05)
(0.008187296538 -1.397980465e-05 1.788766093e-06)
(0.008226919712 -4.040547184e-05 3.272210413e-05)
(0.008315757606 -2.589923095e-05 -7.611930809e-06)
(0.008416055002 -1.849786642e-05 -9.20274297e-06)
(0.008356634668 -2.594909166e-05 -9.633676095e-06)
(0.008411112131 -1.342685036e-05 -6.518264064e-06)
(0.008369277146 1.52442317e-05 -1.200390013e-05)
(0.008378516506 6.559431359e-06 -8.152970027e-06)
(0.008300509669 1.173177755e-05 4.028819042e-06)
(0.008222052196 1.375553758e-05 -1.550194417e-06)
(0.008227119093 2.60630044e-05 7.555208564e-06)
(0.008087871217 1.909572796e-05 -1.386314356e-05)
(0.008215940868 -1.025674789e-06 1.599326433e-05)
(0.008221387816 8.516212597e-06 1.253449811e-05)
(0.0081822386 1.459828539e-06 2.549944147e-05)
(0.008138177911 5.119058616e-07 2.348841614e-05)
(0.008215519043 1.638571666e-07 3.092365659e-05)
(0.008113443281 -1.467062271e-05 1.513936447e-05)
(0.008137859748 4.429663514e-06 -2.564242586e-06)
(0.008229009216 3.535573169e-05 -2.599025225e-05)
(0.008247151608 3.461423225e-05 -2.954486628e-05)
(0.008364993337 4.461675586e-05 -3.017637043e-05)
(0.008314571671 -1.85905315e-06 -9.926740714e-06)
(0.008317205074 -1.414056862e-05 9.918109385e-06)
(0.008395102817 -1.934331192e-06 -1.926985158e-05)
(0.008336547693 -4.981690627e-06 -1.609387539e-05)
(0.008363274233 2.079162391e-05 -1.693305977e-05)
(0.008357505871 1.667686894e-05 4.031480744e-06)
(0.008388045021 4.157762238e-06 -5.06975881e-06)
(0.008371101358 -2.633578016e-05 -1.53147466e-05)
(0.008418233369 -3.319221083e-05 -1.666509995e-05)
(0.008354579029 -3.638319979e-05 -8.293900435e-06)
(0.008178448729 -1.022322529e-05 -1.597156739e-05)
(0.008127521128 -5.147242964e-06 -3.887828884e-05)
(0.008199594198 -2.943539491e-05 -2.718798997e-05)
(0.008199437585 -1.654277359e-05 -2.157942179e-05)
(0.008285859824 -5.627842207e-06 -3.47453284e-05)
(0.008307938025 -1.316698666e-05 -4.826776822e-05)
(0.008341237417 -1.25822518e-06 -2.674389075e-05)
(0.008399965703 -2.61034537e-05 5.683316209e-06)
(0.008408168487 -2.428222887e-05 7.554850004e-06)
(0.008429385391 -1.140303186e-05 6.311446644e-06)
(0.008523813257 4.080264103e-05 2.282707586e-06)
(0.008412849881 4.078700838e-05 -1.013315228e-05)
(0.00835264016 2.783627375e-05 -2.829549755e-06)
(0.008401568215 2.841281139e-05 7.516060896e-06)
(0.008301571236 -5.305783703e-06 -1.051416396e-05)
(0.008270940271 -4.332679404e-06 5.697702103e-06)
(0.008315812546 -2.49271808e-07 1.114113979e-05)
(0.008215754094 1.277919543e-05 -9.91837364e-06)
(0.008176603952 2.275014687e-05 -6.586926435e-06)
(0.008145031807 3.038192968e-07 4.542911247e-06)
)
;

boundaryField
{
    flow
    {
        type            calculated;
        value           nonuniform List<vector> 
48
(
(0.0063266288 -3.037853461e-05 -1.060594438e-07)
(0.006378461475 2.350537992e-06 1.725797119e-05)
(0.006324638694 1.223687256e-06 -2.357450421e-05)
(0.00637406382 -9.856909501e-06 -1.703747767e-05)
(0.006352705135 -2.911223182e-05 -1.222531639e-05)
(0.006377273732 1.198892771e-05 -1.336389797e-06)
(0.006307751911 3.207316464e-06 -1.04571814e-05)
(0.006353794815 -9.684430929e-06 7.580686868e-06)
(0.006393853357 -5.852996059e-06 -2.924420694e-05)
(0.006324464724 -4.430613769e-06 6.792147373e-08)
(0.006420758383 1.44759376e-05 4.773984407e-06)
(0.006337369188 -7.247074862e-07 2.410873779e-05)
(0.006299111187 9.149497303e-07 -1.419929265e-05)
(0.006302814987 7.959458351e-06 -2.559844693e-05)
(0.006403398246 7.138991214e-06 -2.068385182e-05)
(0.006345885047 2.098144755e-05 -1.84825455e-06)
(0.006299133096 -6.042652031e-06 -4.480410101e-06)
(0.006283973526 1.158506238e-05 3.399759502e-06)
(0.006283973526 1.158506238e-05 3.399759502e-06)
(0.008087000768 1.576906123e-06 -6.575653682e-06)
(0.008114315169 -1.308653794e-06 1.871929216e-05)
(0.008183419731 6.293055565e-06 2.439278452e-05)
(0.008142062914 8.566166132e-06 1.880173209e-05)
(0.008225767143 2.897517066e-05 3.155262586e-05)
(0.00818985638 1.987343817e-05 1.34420805e-05)
(0.008245214995 1.501913592e-05 2.216888852e-05)
(0.008218495694 1.643406568e-05 1.403810867e-05)
(0.0083389667 3.605600147e-05 1.935557764e-06)
(0.008364381695 6.018228784e-05 -1.209244592e-05)
(0.008377305213 7.621054799e-05 -1.327144694e-06)
(0.008359464361 4.070505549e-05 -1.959406015e-05)
(0.008435534873 6.30383268e-05 -9.02586249e-06)
(0.008456925969 8.532253636e-05 -3.450036483e-06)
(0.008397146248 6.006948158e-05 -7.088048975e-06)
(0.008323656896 3.209441484e-05 -1.050198436e-05)
(0.008363173813 4.273984528e-05 -1.306949856e-05)