/*--------------------------------*- C++ -*----------------------------------*\
| =========                 |                                                 |
| \\      /  F ield         | OpenFOAM: The Open Source CFD Toolbox           |
|  \\    /   O peration     | Version:  2406                                  |
|   \\  /    A nd           | Website:  www.openfoam.com                      |
|    \\/     M anipulation  |                                                 |
\*---------------------------------------------------------------------------*/
FoamFile
{
    version     2.0;
    format      ascii;
    arch        "LSB;label=32;scalar=64";
    class       volVectorField;
    location    "0.002";
    object      momentum;
}
// * * * * * * * * * * * * * * * * * * * * * * * * * * * * * * * * * * * * * //

dimensions      [1 -2 -1 0 0 0 0];

internalField   nonuniform List<vector> 
546
(
(0.005098417842 -3.906343951e-05 -0.0003309328002)
(0.0100952613 -0.000848348521 -0.0006119579581)
(0.006497937308 -0.0004913132274 -0.0003022885441)
(0.004394234952 8.713851167e-05 -0.0004056526505)
(0.008325885837 0.001130794855 -0.000637920925)
(0.007881496034 -9.809048031e-05 -0.0004127627672)
(0.009898137721 -4.899940056e-05 -0.001010538326)
(0.01328190739 -0.0004396917829 0.0002951514844)
(0.008330809233 -0.0003793010997 2.271131307e-05)
(0.007677095283 -0.0004375556318 0.0003005416248)
(0.006344387167 -0.0002110201054 -0.0001803910083)
(0.009442673867 3.491122594e-05 -0.0008088323527)
(0.006268068341 0.0003370128516 0.001211711308)
(0.01071991228 -0.0004566468075 3.528891756e-05)
(0.004419467309 -0.0002770302798 0.0002723065037)
(0.007021238888 -0.0003907129919 0.0004791914461)
(0.01425544026 -0.0004386299265 -4.331777923e-05)
(0.007488918153 -0.0001165617206 -0.0003752217306)
(0.008070676787 7.056519929e-05 -0.0001889837926)
(0.004192515333 -0.000485957142 4.544504459e-06)
(0.007448656201 0.0001431323902 0.0002025542055)
(0.01032521743 -0.0003491352015 -0.0002768275998)
(0.01273042962 0.0005490768732 -6.313583799e-06)
(0.005261919919 -0.0005579992326 0.0001435071901)
(0.005322256471 0.0001402472562 -3.312343716e-05)
(0.007866995067 0.0002395326204 0.0002286976168)
(0.007365479955 0.0002311869843 -0.0003948428442)
(0.01218531233 -0.0008342356159 -0.0006205526708)
(0.00884071695 5.120556998e-05 -0.0001250088844)
(0.01109143269 -0.0002554302425 0.0004354845687)
(0.009121664499 0.0005496822818 0.0003359753086)
(0.006338947849 -8.386724827e-05 -0.0004459545718)
(0.007782704217 -0.0006903238264 -9.722017961e-05)
(0.006367463136 -0.000208085176 -0.0002617705742)
(0.01003421449 0.0008482934224 0.000224180197)
(0.005538975874 0.0002171425891 0.0005689126341)
(0.008320191456 -0.0006623594188 -4.937168592e-05)
(0.008259395462 0.0004652526805 0.0003436558278)
(0.005859138522 0.0004355442019 0.0001354494889)
(0.007690787435 9.640866783e-05 -0.0002188946702)
(0.007157479636 8.461388535e-05 0.0001401729157)
(0.006635990802 -0.0003761176407 -0.0001628732974)
(0.0061791922 -0.0003144559054 0.0003177723136)
(0.01071272487 0.0002106779472 0.0005048679675)
(0.007077722039 0.0005189381161 -0.0005396666077)
(0.01086376595 7.159224089e-05 -0.0001089115301)
(0.009295730397 0.0006660385078 2.448673492e-05)
(0.01310955832 0.0009054544512 -0.0001142696703)
(0.008264876866 -0.0005833785066 -4.337899871e-05)
(0.004983803504 -0.0001936592847 -0.0008278643791)
(0.007542841844 -0.000197194376 0.0004547808165)
(0.007238803712 -0.0001982433567 0.0002694125615)
(0.01187563443 -0.0006739347249 -0.0006067772275)
(0.006160037468 -0.000760553681 -0.0001498982014)
(0.00738384543 -0.0004180271529 -0.0002117866989)
(0.01042709903 0.000329262292 -0.0005491344447)
(0.003035362245 -0.0001449863326 -0.0003676916947)
(0.005416931091 -0.0002508389892 -0.0003645937955)
(0.00533452179 -0.0006138018569 0.0002149503592)
(0.01331515019 4.051210788e-05 0.0001623949106)
(0.004431515687 0.0001150481251 -0.0001598030542)
(0.007370218345 0.0003470517357 -0.000415014902)
(0.01004896745 0.0004162198232 0.000714406584)
(0.01034813322 -0.0008764291294 -0.001403084295)
(0.007424178068 -4.099067439e-05 -2.802769549e-05)
(0.007268296309 0.0001075603582 -4.236513319e-06)
(0.01043605094 -0.0005875670783 0.0006291154205)
(0.01076172665 -0.0006552203937 -0.0001836321845)
(0.007693034335 -8.873469754e-05 9.953110357e-05)
(0.01212158528 0.0003728450582 -0.001232487745)
(0.009056545876 6.471157583e-05 -0.0002445391616)
(0.009053118967 -0.0002584793223 0.0006087938153)
(0.004752726676 1.495546293e-05 0.0001257920318)
(0.007016223669 0.0002639734714 0.0003512754584)
(0.01064280054 0.0002902277448 0.0007262887157)
(0.01063969063 0.000311895083 7.777571123e-05)
(0.006135767724 0.000134680873 0.0003832704496)
(0.009502338772 0.0002678725042 -0.0006559347837)
(0.007350434006 -0.0008928187274 0.0003346615195)
(0.009636032254 -0.0002268686606 0.0002525295042)
(0.00510847302 0.0003482076121 -0.000264718872)
(0.01169327502 0.0003073886315 -0.0005905637693)
(0.005992028691 5.357951286e-05 8.358555073e-05)
(0.01181317776 0.0003341857028 -0.000772114588)
(0.01081960439 0.0002339377065 -0.0001131694249)
(0.006683232082 0.0005264138797 -0.0005822997462)
(0.004531681317 0.0002330924662 0.0007483716902)
(0.007008859454 0.0005856266703 0.0006391953428)
(0.005785062589 -0.0004974189568 0.0004250339507)
(0.003506271695 6.189625734e-05 -0.0002443067076)
(0.007448596945 9.523079763e-05 0.0007635112866)
(0.008297153773 0.0005298267614 0.0005285716935)
(0.01132456993 0.0005294862224 0.000240412173)
(0.01398749891 0.0001203131288 0.0002727086324)
(0.01326176499 -0.001252092325 -8.346310103e-05)
(0.006540462526 -8.441140248e-05 -0.000346024822)
(0.009491169475 -0.0004824610746 0.0003585317933)
(0.005608113067 -9.019656645e-06 -0.0001493727719)
(0.008756320991 -0.0006189711438 -0.001426777924)
(0.01006142618 -3.805833323e-05 -0.0002340116701)
(0.004343975971 -2.652450693e-05 0.000140018886)
(0.01085126808 0.0002801090111 -0.0006973069792)
(0.007157229322 -0.0006974174714 0.0009550092105)
(0.009050853284 -0.001053174876 -0.0002489358281)
(0.00798010594 0.0001074803874 -0.0001987320629)
(0.009538237752 0.000153567211 0.0002711820573)
(0.008707139464 0.0004271794478 0.0001192245206)
(0.008612859618 -0.00011463935 -0.000458241723)
(0.01180329818 0.0008234641154 0.0002759268408)
(0.004839629695 -0.0004282975355 -0.0004734682184)
(0.007454559859 -0.0001335074138 -0.0004388868561)
(0.002801922781 -0.0003228669258 -0.0004632929953)
(0.008491313601 -0.0005011781687 -0.0002712082212)
(0.008870629714 -0.0004831435218 2.956782683e-05)
(0.01264674745 -0.0007629075348 0.0003767616231)
(0.003930775586 0.0002361027043 6.714147907e-05)
(0.009718334042 -0.0001899779458 -0.0004555365049)
(0.006906813658 -0.0002025935725 2.630964088e-05)
(0.008583322721 0.000168069964 0.0003740995786)
(0.009626850934 -0.0003344499686 0.0003396854005)
(0.004256319336 0.0003489588715 -0.0001374970761)
(0.008266343845 0.0001247009441 -8.569982606e-05)
(0.009140104971 -0.0005190816393 0.0004484668098)
(0.003994206884 -0.0001006006573 0.0002583030582)
(0.008444814481 0.0002425751281 -0.0008094922044)
(0.009093171875 -0.0003781162458 -0.0004491636187)
(0.01018393584 -0.0009765454955 8.356313301e-05)
(0.008577077353 -2.814442462e-05 -7.09827628e-05)
(0.005833059145 -0.0002459878029 -0.0006118307856)
(0.01010167868 -0.0008623938275 0.0006532559338)
(0.005675179792 3.493220899e-05 8.360546596e-05)
(0.009668699931 -0.0001647571556 -0.0002398919415)
(0.01099830378 -1.671932687e-05 -0.0003636503648)
(0.01043429186 -0.000621064448 -0.0002454280322)
(0.007594470412 0.0001305180573 0.000192156577)
(0.008553441881 -0.000438754057 -0.0001829382663)
(0.00607834761 0.0004227406634 -0.0001460401304)
(0.007034915482 -0.0005638746497 0.0001019626198)
(0.009248257816 9.438171587e-05 -0.0002513284998)
(0.002645459814 0.0001109206947 7.572254147e-05)
(0.007458015779 -0.0001672625685 7.679305536e-05)
(0.01079573387 0.0003326072401 0.0005931539137)
(0.008106081658 -0.0001696089026 3.006576173e-05)
(0.005814747236 0.0004548752615 -0.0001308606305)
(0.009597235758 0.0002257108862 0.0004176155333)
(0.005623349252 -0.0005573095674 -0.0001303343668)
(0.007051543956 0.000350166908 -0.000811094328)
(0.01172479748 -0.0007486086804 -0.0009361247496)
(0.007847523894 0.0001762283804 0.0002880083999)
(0.003602537236 0.0003947078128 0.0002364370043)
(0.01126882064 0.0005142608797 0.0001198259268)
(0.007722251297 -0.0006664171627 -0.0002816395432)
(0.007445130562 8.252673521e-05 0.0003196515595)
(0.009369105806 -0.0002258147834 0.0002248915444)
(0.00456110796 8.066495326e-05 0.0003167137635)
(0.008396102017 0.0003930822531 0.0002750866008)
(0.008173560033 0.0007291110304 -0.0005258957697)
(0.0113212309 -2.411805373e-05 0.0002493933757)
(0.00599658438 0.000170456649 -1.515057372e-05)
(0.004543607358 2.987284847e-05 -0.0005237179901)
(0.008180740027 0.001497609074 -0.0004422253871)
(0.008351793569 0.0001372413675 -0.0003368949943)
(0.00131567883 0.0001424156021 -0.0002807808425)
(0.01211732796 7.037719683e-05 2.636533767e-05)
(0.008004885571 -0.0001246641046 0.0003097533076)
(0.01087882045 -0.0001698211052 -0.0003493417726)
(0.01049755315 -0.0002690276848 6.891914613e-05)
(0.00628786756 -0.0003101458803 0.0002695302092)
(0.003445674789 -0.0003846302625 2.453387067e-05)
(0.005251992039 0.0002096384924 0.0006166170315)
(0.008660870861 0.0006391350796 0.0001779887075)
(0.007328890919 -0.000347176796 -0.000704049586)
(0.006989166409 0.000405687458 -0.0008238469917)
(0.005337995768 0.0006225537233 -2.580372891e-05)
(0.005070458361 -2.428344645e-05 0.0001290325864)
(0.009979170236 -0.0008479377028 0.0004331335697)
(0.005807649937 0.0002872613351 0.0005875623916)
(0.007015229507 0.001173065344 6.42782711e-05)
(0.008602217012 -0.0002786336004 -0.0004742522317)
(0.01675239011 0.001153552621 0.0005118577559)
(0.005215254704 -0.0004161689068 -0.0001186344565)
(0.01441489787 0.0007628678147 -0.0006508810634)
(0.008530800916 -0.0002044596986 -0.0006271405727)
(0.006681583011 0.0002694882721 1.86593439e-05)
(0.008374313646 -0.0004769390972 -0.000117755324)
(0.008770510202 0.0005137323498 0.0004528809973)
(0.004539880664 0.0001895141654 -0.0002309558082)
(0.01078112219 0.0001352243303 0.0005019710112)
(0.00688180398 7.029362876e-05 -0.0004768250967)
(0.00911821593 -0.0003090794408 -0.000507641524)
(0.006266457125 0.0006644178148 -0.0004056214485)
(0.005906819744 -0.0002892850266 -0.0001168974402)
(0.007303013721 -2.069614166e-05 -0.0008085400486)
(0.006739083662 0.0001763113222 -0.0001442061276)
(0.008237743988 0.0001330511772 0.00124661813)
(0.009845265697 -0.0005595808536 5.321714716e-05)
(0.01063094323 0.0001934332259 8.610314093e-05)
(0.005948562488 0.0002074808743 0.0001324277595)
(0.005437882826 0.0005433800892 0.0001724976518)
(0.006466590179 -0.0006367661245 -0.0005139695602)
(0.009287989723 0.001076907679 0.0001359073621)
(0.004588677861 -7.836297789e-05 -0.0002041756947)
(0.004976580148 -0.0001144606819 0.000502489649)
(0.01005151625 0.0008725750932 -0.000310102974)
(0.006390839868 0.0004629950227 -0.0002551951485)
(0.009815722873 0.0001673324239 -0.0005958009101)
(0.007024924738 -0.0001121589149 -0.0007627288348)
(0.005388131512 -8.309374729e-05 0.0004493967251)
(0.01023960865 -0.0002470431947 -0.0005346095719)
(0.003836426344 -0.0001032398488 -0.0001823961067)
(0.007404104896 0.0002691268644 0.0009226776811)
(0.01391656618 0.0009152338348 0.0002454626189)
(0.008110903492 0.0002482240249 -0.0006191956663)
(0.00932712458 0.0008595212964 -0.0003911759295)
(0.008730311421 -0.0003966073527 0.0004416382204)
(0.0079551361 0.0004525544963 -0.001032398552)
(0.006635288728 -0.0006537778422 -6.885170214e-05)
(0.01302063927 0.001009282845 2.803529396e-05)
(0.01154868549 3.364541019e-05 -0.0003632880441)
(0.005452846828 -0.0004592583549 -6.119390894e-05)
(0.008313688893 0.0001514376419 -0.0002385166824)
(0.007990800027 5.620274863e-05 0.0009669705938)
(0.004369881049 0.0004082555421 0.0004078046794)
(0.00828112002 5.845868185e-05 -0.0004256521845)
(0.01322141511 0.00100105832 -0.001057905411)
(0.01545577277 0.001492343765 -0.0002483814232)
(0.009353578427 -4.627670588e-05 0.0007486770491)
(0.002897307376 -0.0004065501663 0.0005555580943)
(0.01227261823 -0.0007808923755 -1.541978857e-05)
(0.01384584682 0.0004973847034 0.0002019286487)
(0.007696756721 0.0007711652921 -0.0005038108108)
(0.00812515313 -0.000129838904 -0.0002376409611)
(0.00626962943 0.0002089574261 0.0005665379648)
(0.009868775612 0.001272950503 8.717749315e-05)
(0.003409742257 -0.0003404811086 0.0001117172434)
(0.002493489613 7.021451811e-05 0.0004221921347)
(0.008325202719 -0.0001972098972 0.001179407273)
(0.008971137471 -0.0003585876968 0.0008217928479)
(0.008971478382 9.094572305e-05 0.001039547113)
(0.01097559094 9.358904761e-05 -0.0002818904466)
(0.00684450251 -0.0002512284929 0.0002984904863)
(0.00902964469 0.0006904425304 -0.0005107266666)
(0.009375504644 -0.0003480129284 -0.00101200442)
(0.007543591859 -8.782307503e-05 -0.0005619974791)
(0.007541249272 0.0006427637702 0.0001376408077)
(0.008175377397 -0.0001813425626 0.0002172394854)
(0.005336537155 0.0001932009787 0.0002327068506)
(0.01059016817 0.001296759244 0.000421117008)
(0.007467335804 -0.00056738143 2.486067652e-05)
(0.008623744835 -0.0002922729069 -0.0001301673343)
(0.004557110208 0.0002085301713 -0.0004638018854)
(0.007519639137 -0.0002126783298 -0.0002614082032)
(0.009027426562 -0.000227597535 -0.0002363554671)
(0.008678262705 -0.000349066299 0.0006761938327)
(0.007922602961 -0.001184593122 0.0004951097847)
(0.009773584994 -0.000507160937 0.0009401344876)
(0.007714273048 0.0003440757396 5.632307191e-05)
(0.0108689895 0.001118834526 0.0006140413815)
(0.00876967975 -0.00137869209 0.0002274837886)
(0.006598903868 0.0004360957213 -0.0006484052514)
(0.006639128957 -0.0008119769927 9.745718506e-05)
(0.006835340767 0.0004489829095 -0.0003848827238)
(0.006805998445 -0.0001934274684 0.0005799384971)
(0.008184518581 4.7893562e-05 -7.963490238e-05)
(0.00720524947 0.0001794124696 0.0002615358126)
(0.004241442179 0.0004047476399 -0.0001158055585)
(0.007964005824 -0.0003610821946 0.0003937986526)
(0.008391981703 -0.0002226077102 -0.000950913954)
(0.01124302355 7.66123891e-05 0.0007096247729)
(0.002556373555 0.0003551670662 0.0001303981666)
(0.005151424624 -7.690940419e-05 0.0003813704111)
(0.01278614932 0.0002540135396 -0.0005901791437)
(0.005527903767 -0.0001665551499 0.000340132972)
(0.00624614955 -0.000120184443 0.0003169578398)
(0.01131746931 8.777539019e-05 -0.0002964653149)
(0.01196082098 -9.691727002e-05 0.0007805439025)
(0.006375180274 -0.0004020606024 0.0001339999543)
(0.01613962939 -0.0003635936981 0.0005568382066)
(0.005330071946 -0.0002077451988 0.0002869238221)
(0.01170520307 -0.0002924029212 0.0002745414619)
(0.00460560865 9.55631896e-05 0.0004053881788)
(0.01056342698 0.0003231734827 -0.000324232503)
(0.009074055222 0.0003829290445 -0.000416615346)
(0.009453512928 -0.0002620487312 0.0008679417118)
(0.008831503791 -0.0006411465623 0.0004677522386)
(0.01182808344 0.0001693390192 0.0008106135702)
(0.00987008725 0.0005400540608 -0.0007029360438)
(0.007073992011 -0.0005736464145 0.000177948714)
(0.009020798053 0.0002753536486 -0.0006176139978)
(0.007707232303 0.00015138249 -0.0003865674769)
(0.006020182028 -2.239873583e-05 0.0002007065662)
(0.009327001454 5.770748925e-05 0.0004155202061)
(0.01265305544 0.0002462263888 -0.0006092366639)
(0.01933454335 0.001073081696 5.559840978e-05)
(0.007186944285 -7.666758442e-05 -0.0001475534829)
(0.007276178321 -4.472638246e-06 -0.0007544405796)
(0.009510553504 -7.757039557e-05 -0.0004926117746)
(0.008536744902 0.0006167403763 -0.0003526733582)
(0.01063461219 0.0001258726791 -0.0001722044186)
(0.004585917145 0.0002125767895 -0.0001644319473)
(0.007643874624 -0.0004357121307 0.001003484487)
(0.006948998218 1.031550982e-05 -0.0002917225738)
(0.006586184318 -0.0007073384249 0.000200783486)
(0.004570878217 0.0006841099981 2.989469429e-05)
(0.006060170416 -0.0004164403726 0.0001084328342)
(0.01236997942 -0.0005361267114 -0.0008019852624)
(0.006053783144 0.0001757114499 0.0002758241497)
(0.008896873047 0.0003857932669 -2.625663157e-05)
(0.006167816367 0.0007619630906 0.0003862936769)
(0.01045576545 -0.0002359179285 -9.591807298e-06)
(0.007011607906 -0.0005031815418 0.0004917354601)
(0.00793420999 0.0008075242023 0.0001991413377)
(0.009017057622 -0.0002298087403 -0.0008163916794)
(0.01004960692 0.0001492727493 0.0002061699565)
(0.004502958698 0.0009800029793 0.0002380765034)
(0.008188320057 -0.0009287514612 0.0002010748565)
(0.005222599369 -0.0003573909895 -0.0002088516538)
(0.008919728521 0.000159738243 -6.015705823e-05)
(0.004340027357 0.0002142119062 7.264761784e-05)
(0.007896202737 -0.0003006175331 -9.490449562e-05)
(0.005915716988 -6.442752435e-06 -0.0005853511668)
(0.0121261233 0.0005757252715 -0.0004574337312)
(0.0122990025 -0.0002622597802 -0.0001612271309)
(0.009860393362 0.0005060944071 -0.0005232668215)
(0.01139609369 -1.5611867e-05 0.0005075566269)
(0.003856651261 -0.0001555435535 0.0003088982308)
(0.0115028211 -0.0001350450106 -3.343248997e-06)
(0.01225825894 -0.0005475683454 0.0006871647903)
(0.005686023075 -0.0001265450348 -5.812858597e-06)
(0.007447376704 0.0001559295444 0.0003881833101)
(0.01068058178 0.0005251440434 -0.0005108160954)
(0.00872005703 -0.000349495478 0.00010030111)
(0.01055417025 0.0007003023626 -0.0002113268763)
(0.01319399478 -0.000397700944 0.0005268927217)
(0.009161383839 0.0003698697031 0.0009187205806)
(0.008592123346 0.001077433673 0.0004358181583)
(0.0058988011 -0.0002251675722 0.0004661895434)
(0.005156786856 -0.0007355821098 0.0001405238941)
(0.01089993103 0.0006319802935 -0.001534161422)
(0.006277200434 -0.0003772070067 -0.0004971129115)
(0.0089856423 -0.0004077967952 0.0004547438923)
(0.005780936164 4.132788914e-05 0.0002328752219)
(0.006769767771 0.0006033826948 -0.0002396097995)
(0.008961523217 0.0003438555051 1.938742552e-05)
(0.006107568548 0.0001330321398 0.0002026590833)
(0.005329774156 -0.0003587225603 -2.912280653e-05)
(0.01046967683 0.0003921176043 0.0002274429109)
(0.005346113226 -0.0003199446343 2.98476397e-05)
(0.01059109356 3.830933426e-05 0.0002502863434)
(0.01238244962 0.0008313554843 0.0002550322966)
(0.008144285905 0.0003083076108 0.0005068296185)
(0.01126688776 -0.0001134537004 0.0004480219471)
(0.01159731437 -0.0001699358538 0.001473902326)
(0.006213598962 0.0003584060883 -0.0006988507314)
(0.008548242673 -0.0005432408301 0.001112515633)
(0.005764354736 0.0003710818832 9.738572604e-05)
(0.00828374918 0.0002580963498 0.000704798281)
(0.004477945362 9.011108484e-05 0.0002646419426)
(0.007396237971 -0.0009728346006 -0.00104231132)
(0.005053091276 -8.68335869e-05 -0.0004318648596)
(0.008315152736 0.0004902390505 -0.0007780027461)
(0.008879099405 -0.0003049634879 -0.0002384400747)
(0.007083887124 0.0005635982512 0.0004480904942)
(0.005621109229 -0.0002981912157 9.133287072e-05)
(0.008335889687 0.0006388491072 -0.0002856981058)
(0.007070436476 0.001029520421 8.280392732e-05)
(0.01112883017 -1.271289924e-05 -0.0001932467279)
(0.00971763059 0.0005746225681 0.0003463412467)
(0.01025270298 -0.0001172334635 -0.0001731068302)
(0.004257979605 0.0002060838746 0.0002900806738)
(0.004938974562 0.000439736692 -0.0002646004224)
(0.008869792112 -0.0006609993223 0.000178162901)
(0.01726992473 -9.134139838e-05 0.0007228709374)
(0.01079358392 -0.0005789656902 0.0001642578173)
(0.003842934321 0.0002668873454 -0.0004910363963)
(0.008607775769 0.0005339777757 0.0009758177247)
(0.007474894301 0.0006747086132 -0.0008799994345)
(0.009903322844 0.0003906588106 0.0002466142415)
(0.009487442628 -0.0005239337128 -0.0002811263303)
(0.008295075964 -0.0002243989488 0.0005524410358)
(0.009606677275 0.0001525728564 0.000460381274)
(0.006907871496 -0.0006887457993 -4.849660851e-06)
(0.007005509886 7.577120577e-05 0.0003027691447)
(0.005425624868 -0.00018605497 -0.0004675576129)
(0.01717239571 0.0002759738153 0.00134696741)
(0.01236980905 8.879630049e-05 0.0009210846997)
(0.004705304767 0.0001443988884 1.129306252e-05)
(0.007158358303 0.0001772937563 -0.0004500420929)
(0.01308205899 1.92702014e-06 0.000114780502)
(0.005018549444 -0.0003051568283 0.000549341702)
(0.009612734527 0.0008464688015 -0.0007962916633)
(0.005586039114 -0.0001745243521 -0.0007316498862)
(0.01175910791 0.0004405924923 0.000848618515)
(0.004679317374 8.015178809e-05 -3.143505162e-05)
(0.008938542041 0.0001778821395 -0.001137367208)
(0.01108505318 -0.0001283461773 0.0002442076149)
(0.005544881674 -0.0002153322361 -0.0003746966648)
(0.008564445921 0.0005302830774 0.0002181621934)
(0.01234047321 -0.0008879088994 -0.0001030680297)
(0.003354574903 0.0001570550602 -0.0003045591141)
(0.00742789421 -0.0003648903548 -0.0004868245059)
(0.005991700958 -1.444509815e-05 0.0006613012483)
(0.01062720923 0.0003195209639 -0.0006074514326)
(0.003598221623 6.899505834e-05 -0.0002159520221)
(0.007155521626 -0.0003318798187 0.0004044387893)
(0.01214348794 6.739987716e-05 0.0001419657629)
(0.01167184217 -0.0005010715817 -0.0001999343132)
(0.007131858831 0.0002283930661 0.0005575230366)
(0.003700898985 -0.0002094652782 -0.0001549476472)
(0.01280542833 0.0001189401428 0.0001994501464)
(0.008024062257 -0.0005519670743 2.926296787e-05)
(0.006612384265 0.000328844385 1.976318182e-05)
(0.01187293194 -0.0009939985733 0.0008152322366)
(0.01175268634 -0.0008012689645 -0.0001109401277)
(0.008702128783 -0.0001823479814 -0.0006248922796)
(0.006374693749 -0.0006811812193 -0.0006176644668)
(0.00621966949 -0.001060569966 -0.0003717784273)
(0.006422229486 -0.0004062524278 0.0001419036423)
(0.01085813231 0.0005155676617 -0.001193328293)
(0.006625352527 0.0001112223277 -0.000256700515)
(0.01031107434 -0.0007033158495 0.00106094131)
(0.004797042597 0.0004302227386 0.0005011534515)
(0.009310040054 -0.0001894685846 -0.0002806747813)
(0.01133689053 -0.0008246580937 0.0003420416401)
(0.006399141663 -0.0008696551533 0.0001129409445)
(0.005927897108 0.0004118889594 -0.000106583305)
(0.01109374142 -0.0001712553349 0.0001014396545)
(0.004624627299 0.0002981746066 -0.0003835850467)
(0.007506806468 -0.0001479751605 -0.0003325502445)
(0.001811890961 -7.749379383e-05 0.0002197130924)
(0.004569851945 -3.316655034e-05 0.0001751319659)
(0.01129960995 -0.0005048150676 -0.0005675641654)
(0.008864912074 -0.0006228640507 -0.001004553619)
(0.01118145749 -0.0003218349268 -8.044789978e-05)
(0.009506591399 -0.00071989851 -0.0007066292811)
(0.007825495626 0.0003627371559 -0.0008755482256)
(0.011268254 9.118826105e-05 0.0006866812078)
(0.008277328585 -0.0001522280852 0.0002474925934)
(0.005194756781 -0.000118725434 0.0003588481628)
(0.005519338304 0.0001633211117 0.000264992374)
(0.006183002443 -0.0006275777306 2.297821082e-05)
(0.008665999992 -3.827924406e-05 0.0003971926944)
(0.007182749076 0.0001599225257 4.128923146e-05)
(0.006171096369 -0.0002162152373 0.0001245192501)
(0.007633949127 0.0001882183705 -5.485273779e-05)
(0.006288030399 1.80475212e-05 0.0007348691025)
(0.007064313935 -0.0004306391215 -0.0001707092499)
(0.01002271382 -2.788479666e-05 0.001023051242)
(0.005779603915 0.0007689319243 -0.0003553702041)
(0.006590708119 0.0002699040974 5.919706023e-05)
(0.007919332598 -4.464288015e-05 -0.0001639832407)
(0.01063647839 -0.000284720907 0.0003606339943)
(0.00287859864 -2.425446564e-05 0.0005799967185)
(0.01036773664 0.0006562781872 0.0004391186076)
(0.00840492474 0.0003320347759 -0.0001820110445)
(0.007021123647 0.0005777247349 -0.0002824455062)
(0.006701687531 -0.0002673764536 0.0002794580699)
(0.007705498795 0.0004687252354 -0.0002912912696)
(0.004500041239 3.330326101e-07 0.0001566037245)
(0.006164264462 2.167820236e-05 -0.0001637471276)
(0.004385620289 -0.0003842295292 -0.0001610170959)
(0.009006676743 -0.0006094011934 -0.001003356018)
(0.006649935449 -0.0007253818998 -0.0004701421146)
(0.008265837632 -0.000995817043 7.319672395e-05)
(0.006401548159 -0.0004768467681 -0.0001236848906)
(0.007310378486 -0.0003634570599 -0.0002152735545)
(0.009115686899 -7.325119771e-05 -0.0001943477232)
(0.007206284954 -0.0006360962071 8.672480465e-05)
(0.01201904334 0.001549697429 0.0003106942625)
(0.004448762878 -0.0001152249585 0.0004027487353)
(0.007907477703 -0.0003771062276 0.0002771073923)
(0.00910105896 0.0002495255287 -0.0002581903621)
(0.01078681903 0.0004516630265 -0.0004765931666)
(0.009285238101 0.0004163949306 -0.0006331095972)
(0.008260760992 0.0004738973802 0.0003023009429)
(0.002492225615 -0.000320278319 0.000341743192)
(0.008277729225 0.0008446961156 0.0006153994411)
(0.0108138652 -9.544695059e-05 -0.001058786555)
(0.01625754964 -1.074292053e-05 0.0004273338264)
(0.007712306322 -0.0007094012221 6.032091148e-05)
(0.009548884706 0.0008737267008 0.0005887661829)
(0.004548705235 -0.0001028701291 0.0002388476913)
(0.008446749999 0.0002703191834 -0.0005904875019)
(0.008375799046 0.000187733734 -0.0001019443902)
(0.01222974929 -0.0007438369708 7.949508355e-05)
(0.006529332892 -0.0004703273443 0.0001463866796)
(0.008516804179 0.0002500853877 0.0002779350442)
(0.006504772658 0.000134345368 -0.000551060525)
(0.008176417483 6.52828251e-05 0.0002555049947)
(0.01150959302 0.0002929987042 2.87073599e-05)
(0.007437907498 0.0009238561298 -0.0007027280112)
(0.0129438617 8.688063839e-05 0.001402542845)
(0.005918865279 0.0001212325965 -8.001701314e-05)
(0.01038174904 -4.817534962e-05 0.0003550142703)
(0.00948529564 0.0007236195011 -0.0006068067743)
(0.004791457576 -5.535232392e-05 -3.815648086e-07)
(0.006134846396 0.0001423828606 0.0002535051922)
(0.004510017365 -2.057508551e-05 -0.0002819256705)
(0.005196922164 9.00903597e-05 -0.000377739713)
(0.01136668001 0.0002545090416 9.586901061e-05)
(0.008059184361 -0.0002710982411 0.0004185632149)
(0.01036849642 -0.0002391900412 -0.0004829786129)
(0.01141224211 -8.577608941e-05 -0.0009620201587)
(0.01177920192 -0.001002388578 0.0003929676147)
(0.009358179837 0.000167779977 -0.000193624786)
(0.004615755733 -3.496477471e-05 0.0001388723552)
(0.006305749502 -0.0003917732277 -0.0005447734086)
(0.005981403462 0.0001978635589 -9.829209523e-05)
(0.009707604582 0.0002720144936 -0.0003107461659)
(0.007226316643 0.000240064695 -0.0006941069283)
(0.0103088783 0.0005887926262 -0.0004222259263)
(0.00522669275 0.0002333051393 0.0007546382933)
(0.006627495849 0.0008798242799 -0.0001926883383)
(0.009778533906 -0.000101540551 -0.0005860923268)
(0.007767854732 0.0004191924631 -0.0002800431127)
(0.01009204865 -9.632003533e-05 -0.0002288308292)
(0.008561494119 -0.0003368682773 0.0004352764669)
(0.01348028524 0.001616392842 0.0006514311167)
(0.006986412623 5.826469418e-06 -6.48857987e-05)
(0.00952168267 -1.307259823e-05 -0.0005185045539)
(0.01220198911 0.0003418714202 1.361942721e-05)
(0.006151123081 -0.0001107495482 0.0009623713028)
(0.005636408335 0.0002301423861 0.001248676084)
(0.009878296267 -0.0005104119236 0.0002431987697)
(0.008192407771 0.0006217785976 -0.0002263434205)
(0.005509563488 0.0006729391057 0.0001091594312)
(0.006787524184 -0.0002590488182 -0.0006029655127)
(0.01704908677 -0.000226780002 -0.0006948931582)
(0.005944277578 -7.980091106e-06 0.0003674220489)
(0.01131870417 0.000603774138 9.778370982e-05)
(0.003712491868 -0.0005876999337 -0.0004005998856)
(0.009673835843 0.0001628418378 -0.0006375041221)
(0.005361812056 0.000268565841 -0.0002030663858)
(0.00614490348 -0.0004795752358 -0.0002743909184)
(0.006864523166 -0.0004454946245 0.0001568918003)
(0.007749451272 -0.0005021774258 -0.0002884977643)
(0.008586283772 -2.387589852e-05 -0.0005157440837)
(0.007729258345 -0.0005993789259 -2.407513017e-05)
(0.003447801609 0.0002398089811 -0.0003307791427)
(0.01034014277 0.0001187729056 0.0005253475668)
(0.004123361528 -0.0004557757667 -1.827167505e-05)
(0.01627527535 -0.0004800331411 0.001252058193)
(0.008118848315 -0.0004031950449 0.0005092853864)
(0.01019505972 -2.850399595e-05 0.0003208781462)
(0.01241234483 0.000141358037 -0.0002282658041)
(0.005267393459 -0.0006031466977 9.043795624e-05)
)
;

boundaryField
{
    flow
    {
        type            zeroGradient;
    }
    obstacle
    {
        type            calculated;
        value           nonuniform List<vector> 0();
    }
    frontAndBack
    {
        type            empty;
    }
    procBoundary2to0
    {
        type            processor;
        value           nonuniform List<vector> 
31
(
(0.006973146046 0.0003505180788 -0.0005668877447)
(0.004134867701 -0.0002421950484 1.427137809e-05)
(0.005903438806 -8.092578405e-05 0.0002068450686)
(0.009815309435 -0.0002748492222 -7.161867582e-05)
(0.006387284927 0.0009474656213 7.223514816e-05)
(0.006562424926 0.0001889271874 0.0002095651049)
(0.009378403361 -0.000686944667 5.434664323e-05)
(0.009641863947 0.0006722901488 0.0004783842864)
(0.009666845652 -0.0005034045185 -0.0006617218559)
(0.01129415432 -0.0004322284779 0.0001089030152)
(0.003224199376 0.00011865571 -0.0001182009833)
(0.00567770545 -0.000461544459 0.0004862069165)
(0.008772952259 -0.0004503971064 0.000845342189)
(0.0041649488 -0.0002302024186 -0.000493060161)
(0.008057426792 -3.023676672e-05 0.0002839570989)
(0.007138014003 0.0003162965414 0.0005267852026)
(0.01519112962 0.0001224748111 0.0004768284222)
(0.005451429102 -0.0002675720684 -0.0001281464653)
(0.01798644579 -0.0005501628605 -0.000815079309)
(0.001691490369 -0.0001688409461 2.955175897e-05)
(0.00770055654 -0.0007257912049 -0.000243811607)
(0.01733488441 -0.00132707745 0.0006270555816)
(0.006252385636 0.0001109790705 0.0006928813995)
(0.00942016097 -0.0006370371748 0.000495592234)
(0.008902340912 0.0003123301825 -0.0009545373086)
(0.009577870261 -0.0004561603949 -0.0004948897621)
(0.008514273045 0.000180615045 -0.0001367881709)
(0.004147002038 3.481784448e-05 -0.0001160410353)
(0.007490015906 0.0001906861084 0.0002780040636)
(0.006032274359 -0.00100942207 -0.001093801942)
(0.006032274359 -0.00100942207 -0.001093801942)
)
;
    }
    procBoundary2to3
    {
        type            processor;
        value           nonuniform List<vector> 
19
(
(0.009696211961 -0.0002713558942 -5.783577604e-05)
(0.0108126239 0.0005108774672 0.0002106465817)