/*--------------------------------*- C++ -*----------------------------------*\
| =========                 |                                                 |
| \\      /  F ield         | OpenFOAM: The Open Source CFD Toolbox           |
|  \\    /   O peration     | Version:  2406                                  |
|   \\  /    A nd           | Website:  www.openfoam.com                      |
|    \\/     M anipulation  |                                                 |
\*---------------------------------------------------------------------------*/
FoamFile
{
    version     2.0;
    format      ascii;
    arch        "LSB;label=32;scalar=64";
    class       volScalarField;
    location    "0.002";
    object      overallT;
}
// * * * * * * * * * * * * * * * * * * * * * * * * * * * * * * * * * * * * * //

dimensions      [1 2 -2 0 0 0 0];

internalField   nonuniform List<scalar> 
546
(
290.5357047
300.7420607
298.6413602
298.7741556
297.7464199
298.1894898
299.4636045
300.4078216
301.225789
299.5835506
299.2132705
299.9877511
302.0737904
299.7113827
299.1368971
298.6187555
297.754434
298.0321311
299.891339
301.2568335
296.118618
305.5449294
301.205194
300.9202334
300.2681332
300.0043367
300.7434654
300.5043417
300.7263043
300.796942
300.3925754
298.8138396
299.0470693
300.6380958
302.994785
302.3406732
303.7040089
304.4735756
301.7341486
302.0540221
290.6406748
301.4287055
294.10332
295.5518411
301.9495664
300.875824
299.0716124
299.9139473
299.548091
298.639603
298.1337952
301.8099148
298.0600592
297.4843215
294.3854658
297.5423969
296.9805851
295.9648084
297.9286595
299.7469447
293.7047045
301.2439162
298.8107939
298.1832567
293.9978985
294.9804439
297.7946989
297.5784862
297.7947269
297.9758522
297.0062002
296.478128
298.9114381
300.7237628
302.0509134
300.6888729
299.2348342
300.9322191
301.8952333
298.7049417
294.3807219
304.9604537
298.9796048
298.9005081
297.824758
298.0810068
296.8397796
293.9285238
296.383838
296.5332623
299.2076073
298.4340237
298.9303662
299.5241143
299.5349308
300.8654104
301.16231
303.8106577
300.6806622
302.8464694
293.020573
304.0284106
297.6359692
300.3083178
300.6886304
298.913037
296.3537446
299.4771179
298.9726369
301.0037912
297.194503
297.3472294
297.6774178
300.8673795
298.9819777
299.132669
299.2620251
296.1010595
297.547328
296.6271232
290.540004
298.4425473
296.6974696
295.830348
297.1829282
298.4961586
302.3829912
302.4623028
299.1345352
297.3128722
300.6110379
299.7903451
300.8100439
296.9896338
300.7307059
299.2876848
302.4842303
301.8580715
303.0484557
304.1567824
296.1963863
307.7350655
301.9640396
304.0154018
302.5032367
302.2135577
301.084307
300.9684408
298.6074296
301.1301157
301.3275732
300.4573114
301.2875567
300.745023
299.3759676
300.0222514
300.4893985
301.77381
300.835094
300.5613378
296.3406825
305.8377235
301.9342465
299.5453956
298.8326372
297.0263368
296.587336
295.5323793
299.0869996
302.1109043
300.444699
300.9579113
301.300787
300.6659707
300.9960556
299.1745551
300.2301437
297.5166134
296.7796406
296.3842805
292.8362971
304.4414638
299.7232892
298.3950737
297.2109709
297.4510569
298.2782219
300.536309
300.0191477
298.2579904
298.2213049
295.8326892
294.7889118
295.0347083
297.8520704
295.9553719
295.7807802
297.1442104
295.0919381
296.9971861
292.5459142
303.3963352
297.9961885
299.5302957
303.025524
306.3857927
306.1271847
303.7683485
302.5738191
300.7716587
300.002921
301.3853317
300.1018945
300.00826
297.4200434
297.7059136
300.2263075
297.8606085
300.4951437
300.7541162
295.4976084
305.4452166
300.0053036
302.8395329
300.2482702
298.2480061
296.5419058
297.7141509
295.8036558
296.2764307
297.1064441
296.2050426
297.0397795
300.5281109
300.7908326
298.3557972
297.9268224
302.9833949
301.8412153
301.3097465
294.7773005
305.7510194
302.4729656
303.8763937
305.8829416
302.6812604
301.6785725
298.7318152
300.0889698
299.6208424
299.4435823
300.1540582
300.3988055
300.8105548
299.4466932
302.5710324
302.3041694
300.1221824
298.6808804
300.1762249
292.2902139
302.2679001
297.16571
297.022457
297.7628512
296.6927341
300.0307167
302.6010542
300.7489093
303.9306266
301.7627581
302.9227311
301.8150776
301.4593799
300.054185
300.8341622
300.4894007
299.6316382
297.0142696
298.6511977
299.2282986
309.3591346
303.0774217
301.9882527
300.4854123
303.2429557
306.7686725
306.5282336
307.1822327
305.2979225
304.9578171
302.6052753
303.2601955
300.9465398
301.0514363
300.3191653
298.4763345
302.6062277
302.2410284
299.1808278
296.0179976
304.7251084
302.5130423
307.4379827
309.0562298
305.5866756
302.2332825
298.9304218
300.4025958
304.2454476
305.6919992
303.6312607
302.4867766
303.9538631
300.4883137
300.4120575
301.7097936
298.1838865
297.9675491
301.6854391
293.7137457
304.1514864
299.4824373
298.1735978
298.6126951
298.5441256
299.9583192
298.1211093
296.4836205
297.5546279
298.3873988
299.9509154
299.1652309
298.3314619
298.7225341
298.3261213
298.5544102
302.6788399
305.9640678
302.7312102
294.8832087
301.236741
296.8048544
295.9303795
291.371623
292.3734428
295.2455532
298.2640134
297.7949583
295.1294749
294.282908
293.8439187
295.4753014
296.755824
297.4375139
295.3006542
295.7923225
294.7746303
289.4309085
291.3418929
308.975694
311.6722649
303.7365596
306.4376721
304.730488
310.9419627
297.7363327
302.495402
300.2503479
299.4824887
300.2599618
303.2995788
301.3357301
308.3754387
303.9160867
310.6522651
297.9944286
295.7228875
295.6141717
299.102915
304.005175
305.7675523
301.9766517
303.8148371
303.3290429
307.6457728
306.6853863
305.1864038
299.5204958
296.4688971
294.7680602
298.6056179
299.6435364
304.5527533
302.2276184
303.1068922
296.4509229
298.1765402
298.8237558
301.3074928
301.9152851
307.219918
306.745662
302.700508
304.8220145
302.8390254
304.020517
303.1594673
302.8340614
300.8434562
301.377714
300.6425853
301.4532473
304.9885993
301.8240626
303.136987
295.9967963
297.1543671
300.2846696
299.2014679
301.7506781
298.148739
296.6030883
296.6293635
296.1830334
296.1077409
304.6922733
302.1230687
303.3575428
301.4047337
304.1583469
305.3079373
303.0845169
307.9702097
305.5266934
304.9496102
297.7851954
298.7567571
299.3550501
302.1396584
302.502384
302.1895435
302.3125877
303.8498775
304.6894329
304.0711907
296.7121642
299.325279
300.8795795
297.8819162
299.2856532
295.7912134
296.8458428
295.7128148
298.0830936
300.1725841
298.8584032
298.4218576
298.3810342
301.7786407
298.5917926
302.8108845
302.6728658
305.0543878
301.3310975
300.8009883
297.8946001
298.0133458
297.5739398
298.3531075
299.480717
297.6733845
298.1518709
296.1877707
296.8294953
298.6172732
299.3989243
302.5001704
300.8771015
300.5440139
299.8890598
298.3318799
299.258112
299.9073716
302.1707852
304.8973985
303.4445699
301.2378631
302.3280532
302.5024755
301.9988709
301.2087739
302.5513286
302.6118654
299.4094752
296.5518957
294.7262889
297.2977194
296.180575
299.7595378
302.8948021
300.9305255
299.3408113
300.0910624
302.4739388
303.8971894
302.0703405
300.8122917
301.8086244
299.0004057
297.4695277
297.7078206
295.6664236
296.9663781
297.9059098
299.5184447
300.1209072
301.6329449
300.8969022
302.5720501
304.3069548
300.4406541
303.2278317
302.270885
300.9375793
300.7810919
303.2216252
302.1232408
297.992886
298.9588996
299.7950112
300.2478656
303.4336354
301.7879935
302.1296859
300.0920769
294.2921505
295.7024712
297.705831
299.920738
300.1703659
296.3890117
292.5718577
292.3897061
295.4971208
298.5112369
)
;

boundaryField
{
    flow
    {
        type            calculated;
        value           nonuniform List<scalar> 
48
(
290.5357047
296.118618
290.6406748
293.7047045
294.3807219
293.020573
290.540004
296.1963863
296.3406825
292.8362971
292.5459142
295.4976084
294.7773005
292.2902139
299.2282986
296.0179976
293.7137457
294.8832087
294.8832087
301.236741
296.8048544
295.9303795
291.371623
292.3734428
295.2455532
298.2640134
297.7949583
295.1294749
294.282908
293.8439187
295.4753014
296.755824
297.4375139
295.3006542
295.7923225
294.7746303
289.4309085
291.3418929
294.2921505
295.7024712
297.705831
299.920738
300.1703659
296.3890117
292.5718577
292.3897061
295.4971208
298.5112369
)
;
    }
    obstacle
    {
        type            calculated;
        value           nonuniform List<scalar> 0();
    }
    frontAndBack
    {
        type            empty;
    }
    procBoundary2to0
    {
        type            processor;
        value           nonuniform List<scalar> 
31
(
291.8538704
303.6040597
298.0738361
297.7820058
298.7191628
300.2427614
297.1528384
299.4516479
299.6705863
299.2063639
298.502393
299.079281
294.9930995
299.3281399
299.8009496
297.599212
297.9491977
300.1043367
300.2145075
303.5374311
309.8542106
311.9745704
314.039169
315.3211773
325.5207587
318.9642505
300.9031746
300.5745997
304.2589026
306.6477516
306.6477516
)
;
    }
    procBoundary2to3
    {
        type            processor;
        value           nonuniform List<scalar> 
19
(
319.725789
315.330345
312.0009305
307.5847362
308.1889383
304.689012
300.022251
307.3003161
298.615567
301.3651459
297.7937746
299.0436735
304.1663422
296.9594924
306.4825737
300.7897296
301.9248251
299.4694478
300.070169
)
;
    }
}


// ************************************************************************* //
