/*--------------------------------*- C++ -*----------------------------------*\
| =========                 |                                                 |
| \\      /  F ield         | OpenFOAM: The Open Source CFD Toolbox           |
|  \\    /   O peration     | Version:  2406                                  |
|   \\  /    A nd           | Website:  www.openfoam.com                      |
|    \\/     M anipulation  |                                                 |
\*---------------------------------------------------------------------------*/
FoamFile
{
    version     2.0;
    format      ascii;
    arch        "LSB;label=32;scalar=64";
    class       volScalarField;
    location    "0.002";
    object      p;
}
// * * * * * * * * * * * * * * * * * * * * * * * * * * * * * * * * * * * * * //

dimensions      [1 -1 -2 0 0 0 0];

internalField   nonuniform List<scalar> 
546
(
0.3026883236
0.4089740761
0.4119815578
0.4105158936
0.4095988411
0.4100653842
0.4126904154
0.4136746425
0.4126730133
0.4101056349
0.409747309
0.4172101848
0.42075752
0.4136279735
0.4126524592
0.4074756545
0.4084827798
0.4066652337
0.4059444445
0.4049364102
0.3150506773
0.4263666326
0.4142650334
0.4186402267
0.417490912
0.4202317379
0.4208896116
0.4195231782
0.4184741895
0.418653249
0.4208816093
0.4136719593
0.4159440088
0.4114433639
0.4143008618
0.4180590718
0.4192673225
0.4233866879
0.4253443153
0.4267906437
0.3072709581
0.4204853783
0.4031131895
0.4051415512
0.4192117942
0.4201213997
0.4165576531
0.4168143267
0.413003188
0.4147987493
0.4104661635
0.4212807805
0.4102010759
0.416431294
0.4049934463
0.4081636519
0.40832453
0.4072733972
0.4095359553
0.4147714181
0.3145699173
0.4226850426
0.4237920379
0.4192665673
0.3996981351
0.4042690103
0.4099085605
0.4079890245
0.4135997019
0.4124713229
0.4075152035
0.3979811782
0.4089140868
0.4118262737
0.4204114603
0.4147266964
0.4111543421
0.4159053244
0.4271125146
0.4140538374
0.3103866857
0.4284088055
0.4121974239
0.4114173384
0.4100653074
0.4070588119
0.4024377688
0.4024997561
0.4026951438
0.3979086771
0.4079552517
0.4120934249
0.4165531467
0.4140961474
0.415555653
0.4211971542
0.4181150432
0.422645263
0.4089453652
0.4136145528
0.3106715164
0.4191108771
0.4043762269
0.4115816463
0.4161300097
0.4159826092
0.406622206
0.4124968115
0.4098435914
0.4172515714
0.4093974782
0.4066241061
0.4090456477
0.4106899319
0.4072822384
0.4147688685
0.4168041886
0.4088568156
0.421287663
0.4236185045
0.3027741044
0.4092304241
0.4117734671
0.4086155408
0.4106322909
0.4205545494
0.4262748095
0.4243594722
0.4149011278
0.4132462745
0.4165497841
0.4105643903
0.4166930634
0.4021510137
0.4125002852
0.4091910529
0.4147922604
0.4097081367
0.4048076366
0.4103806729
0.3130589481
0.4293881691
0.4217470621
0.4207824961
0.416041885
0.4094446595
0.4119783438
0.4139040592
0.4158604617
0.4127614241
0.4171867812
0.4167165032
0.4200465409
0.4202446059
0.4151542679
0.4150138308
0.4166846308
0.4215302368
0.4219458714
0.4190270533
0.3136226948
0.4199472
0.4120257329
0.4056703785
0.4093265596
0.399787551
0.3963005207
0.3956498365
0.4039923959
0.416883651
0.4124114674
0.4126239461
0.4142707012
0.4144786731
0.4173476242
0.4153690364
0.4175308541
0.4147232135
0.4073457734
0.4062039753
0.3063957995
0.4185820429
0.4122543506
0.4077113655
0.4064582487
0.4120557592
0.4164507425
0.4258000616
0.4202898708
0.4132468527
0.4176010462
0.4132852329
0.4126500315
0.4150752475
0.4178222712
0.4171273971
0.4100003103
0.4088688399
0.4055028146
0.4106762754
0.3153217515
0.4284248734
0.4186081936
0.4197383412
0.4249318717
0.4328089359
0.4314770867
0.4144557564
0.4202546038
0.4151876916
0.4073467005
0.4154796359
0.4130951423
0.4073991344
0.4031061476
0.4090026577
0.4138892688
0.4216754287
0.4264789718
0.4253093524
0.3116728788
0.4283435287
0.4131546548
0.4218263156
0.4173299662
0.4082010917
0.4057743274
0.4042967737
0.4055823046
0.4036991952
0.4087842141
0.4050133775
0.405735151
0.4156867947
0.4199655356
0.4096689754
0.4131445695
0.4154980245
0.4098535115
0.408368806
0.3101357651
0.4241678207
0.4170774782
0.421391375
0.4278689358
0.4161241908
0.4143079611
0.4155564065
0.4160904044
0.4155650197
0.408969434
0.4126276075
0.4131815832
0.4091549459
0.4029700269
0.4105903512
0.4032337404
0.4026202532
0.4006345651
0.4028007611
0.3071500549
0.4138975926
0.4114050792
0.4147324896
0.4146807811
0.4074981811
0.4124016276
0.4109215489
0.4048535972
0.4128562543
0.4130847054
0.4127878529
0.4094223986
0.4118938774
0.4085226604
0.416115011
0.4163599897
0.413971983
0.4098884029
0.413148769
0.319747102
0.4381972226
0.4170452536
0.4110629675
0.4089974391
0.4174797759
0.4317517709
0.4344237101
0.4313913603
0.4221384612
0.4184744135
0.414913397
0.4177302942
0.4109015732
0.4156498143
0.4154901517
0.419567522
0.4264843718
0.4224493263
0.4168544664
0.3127354492
0.4252948986
0.4208132884
0.4351037879
0.4391175215
0.4293118778
0.4154442449
0.4115672316
0.4179707601
0.4325374047
0.4296742442
0.426520226
0.4228999399
0.4275106751
0.4291653729
0.4169521902
0.4144961655
0.4039671901
0.4008166895
0.4165492306
0.3079912725
0.4253364218
0.4113113119
0.411449703
0.4118047141
0.4137300893
0.4230949505
0.4183895867
0.4111525359
0.4173822418
0.4193273887
0.4302068368
0.4232934563
0.4160876991
0.4069287908
0.409207527
0.4152703168
0.4167500413
0.4268897594
0.4134503134
0.3118194361
0.4096727802
0.4051138857
0.4039574178
0.3938998714
0.3987079166
0.4040270403
0.410470072
0.4092730046
0.4096973334
0.4084350643
0.4071487043
0.4091553204
0.4197067488
0.4236680685
0.4192321607
0.4136393689
0.4150471989
0.407007469
0.4090981893
0.4295790376
0.4431983247
0.424569176
0.4339570808
0.4370791024
0.4521865403
0.4030485176
0.4160016775
0.4248935424
0.4220334555
0.4233984787
0.4214986115
0.4196508515
0.4387447744
0.4212135859
0.4393410736
0.4205321974
0.4106273379
0.4089227019
0.4104822596
0.419007579
0.4219949327
0.4181358355
0.4180520635
0.4175413872
0.4294878461
0.4245699362
0.4244626309
0.4182892559
0.4087809254
0.4098826087
0.4194596587
0.4137386155
0.4246187818
0.4206172332
0.4264553093
0.4108218088
0.4163462039
0.4114338358
0.4145783282
0.4182810123
0.4273884934
0.4259613019
0.420612511
0.4236203903
0.419173826
0.4203604216
0.4131750523
0.4144001105
0.4146758676
0.4203111001
0.4251028168
0.4335554379
0.4377560886
0.4285794531
0.4328074761
0.4144297831
0.4160743026
0.4226882863
0.4195905712
0.4319992279
0.4151091204
0.4062816389
0.4124838804
0.4076242836
0.4111911341
0.4127161252
0.4110716072
0.4213314957
0.4152602983
0.4195143521
0.4225017477
0.4233779593
0.4302501686
0.4190645365
0.4182899696
0.4182568159
0.420889787
0.4179704091
0.4152659665
0.4200444397
0.4213828089
0.4193522586
0.4213315447
0.4248594321
0.4207733252
0.4038291636
0.4080679161
0.4110584274
0.4031958839
0.4104177795
0.3970021791
0.3977576456
0.3961881353
0.4025548654
0.4053072081
0.4133896057
0.4150591034
0.4180725019
0.427517508
0.4079364127
0.4144562922
0.4199535882
0.4228795682
0.4143901134
0.4108188627
0.4129680282
0.4103666779
0.4027910955
0.4042624899
0.4157805358
0.4126197742
0.4133368929
0.4076771031
0.4110663297
0.4154848487
0.4103975661
0.4198941661
0.4171058834
0.4107952348
0.4072192825
0.4036164691
0.4041276486
0.412440622
0.4179094714
0.4239676654
0.4086203101
0.4088186634
0.4185374084
0.4226992524
0.419840094
0.4198134806
0.4185088206
0.4150892414
0.4017693651
0.3996967973
0.4048988015
0.4125759194
0.4060716207
0.4158103371
0.418645188
0.4146107151
0.4068095557
0.4064136763
0.4076055028
0.4022682309
0.4185954785
0.4153633986
0.4160554606
0.4091634
0.4108755803
0.4046590439
0.4006762574
0.4049598002
0.4092992844
0.4167464721
0.4145353191
0.4206448068
0.4242180031
0.4221146415
0.4225177439
0.4128179369
0.423317869
0.4182074309
0.4189986226
0.4171415594
0.410177721
0.4064402115
0.4062355926
0.4066095367
0.4151168439
0.4169638243
0.4228851649
0.4228656098
0.4245372302
0.4228890641
0.4211647788
0.4163186833
0.4116284689
0.4170064059
0.4142699463
0.4077737428
0.4051361901
0.4020716497
0.4014751392
0.4045017631
)
;

boundaryField
{
    flow
    {
        type            calculated;
        value           nonuniform List<scalar> 
48
(
0.3026883236
0.3150506773
0.3072709581
0.3145699173
0.3103866857
0.3106715164
0.3027741044
0.3130589481
0.3136226948
0.3063957995
0.3153217515
0.3116728788
0.3101357651
0.3071500549
0.319747102
0.3127354492
0.3079912725
0.3118194361
0.3118194361
0.4096727802
0.4051138857
0.4039574178
0.3938998714
0.3987079166
0.4040270403
0.410470072
0.4092730046
0.4096973334
0.4084350643
0.4071487043
0.4091553204
0.4197067488
0.4236680685
0.4192321607
0.4136393689
0.4150471989
0.407007469
0.4090981893
0.4211647788
0.4163186833
0.4116284689
0.4170064059
0.4142699463
0.4077737428
0.4051361901
0.4020716497
0.4014751392
0.4045017631
)
;
    }
    obstacle
    {
        type            calculated;
        value           nonuniform List<scalar> 0();
    }
    frontAndBack
    {
        type            empty;
    }
    procBoundary2to0
    {
        type            processor;
        value           nonuniform List<scalar> 
31
(
0.3120267558
0.4291691874
0.4167579234
0.4048228292
0.4106107364
0.4086430059
0.4020691193
0.4151868633
0.4206611964
0.4199822908
0.4147618426
0.4151483043
0.4068095624
0.412805721
0.409908528
0.4067163391
0.4066813832
0.4101598873
0.4146829629
0.4165249375
0.4324086799
0.4392881146
0.4368596266
0.4453037219
0.4710631849
0.4537885675
0.4112699786
0.4097477983
0.4124029477
0.4194423591
0.4194423591
)
;
    }
    procBoundary2to3
    {
        type            processor;
        value           nonuniform List<scalar> 
19
(
0.4688827611
0.4514538161
0.4416261334
0.4338252141
0.4333057039
0.426282662
0.429302143
0.419989838
0.407297308
0.4050547323
0.4084301875
0.424712892
0.4206862672
0.3967729251
0.4138781963
0.4200567286
0.4265071125
0.4205723128
0.4008716515
)
;
    }
}


// ************************************************************************* //
