/*--------------------------------*- C++ -*----------------------------------*\
| =========                 |                                                 |
| \\      /  F ield         | OpenFOAM: The Open Source CFD Toolbox           |
|  \\    /   O peration     | Version:  2406                                  |
|   \\  /    A nd           | Website:  www.openfoam.com                      |
|    \\/     M anipulation  |                                                 |
\*---------------------------------------------------------------------------*/
FoamFile
{
    version     2.0;
    format      ascii;
    arch        "LSB;label=32;scalar=64";
    class       volScalarField;
    location    "0.002";
    object      rhoMMean;
}
// * * * * * * * * * * * * * * * * * * * * * * * * * * * * * * * * * * * * * //

dimensions      [1 -3 0 0 0 0 0];

internalField   nonuniform List<scalar> 
546
(
3.699628429e-06
4.739075612e-06
4.831902242e-06
4.796824355e-06
4.819237779e-06
4.811773858e-06
4.809915792e-06
4.764742576e-06
4.725524918e-06
4.730488646e-06
4.727371319e-06
4.789836354e-06
4.8004226e-06
4.782370767e-06
4.805342381e-06
4.740525032e-06
4.719301929e-06
4.689357311e-06
4.637261702e-06
4.606410857e-06
3.744179512e-06
4.806445432e-06
4.810173226e-06
4.855415383e-06
4.827125341e-06
4.843500936e-06
4.816663647e-06
4.81390602e-06
4.794746138e-06
4.787842074e-06
4.81406223e-06
4.753613137e-06
4.804521758e-06
4.750139443e-06
4.742744463e-06
4.799729861e-06
4.832996961e-06
4.880093851e-06
4.93302008e-06
4.953003918e-06
3.702537266e-06
4.770826017e-06
4.768677193e-06
4.734362653e-06
4.814314665e-06
4.839204954e-06
4.854369609e-06
4.848210563e-06
4.833136509e-06
4.853678537e-06
4.823860136e-06
4.873729648e-06
4.789345439e-06
4.844418826e-06
4.799447433e-06
4.781745303e-06
4.770405709e-06
4.780164666e-06
4.797513762e-06
4.790737582e-06
3.724453109e-06
4.793912185e-06
4.858996965e-06
4.857278447e-06
4.744259492e-06
4.74966519e-06
4.791852296e-06
4.767226107e-06
4.817853967e-06
4.785834463e-06
4.745433149e-06
4.672597022e-06
4.744177221e-06
4.757391543e-06
4.824695755e-06
4.789831356e-06
4.799792137e-06
4.796540262e-06
4.882874805e-06
4.840198449e-06
3.710766199e-06
4.817937903e-06
4.76108039e-06
4.756377428e-06
4.765028336e-06
4.720060276e-06
4.688659573e-06
4.726066445e-06
4.697981559e-06
4.678888951e-06
4.743154775e-06
4.808237889e-06
4.833563483e-06
4.831061624e-06
4.822489654e-06
4.845521877e-06
4.805054955e-06
4.832168007e-06
4.739887904e-06
4.736161775e-06
3.733942969e-06
4.749734131e-06
4.760996453e-06
4.795872516e-06
4.821035235e-06
4.828100508e-06
4.798841963e-06
4.791233496e-06
4.793168834e-06
4.838745696e-06
4.804098117e-06
4.777398708e-06
4.779599811e-06
4.769995397e-06
4.745369207e-06
4.795586756e-06
4.817578204e-06
4.788175113e-06
4.873238733e-06
4.910036803e-06
3.697341723e-06
4.78727222e-06
4.865157678e-06
4.831749364e-06
4.855338111e-06
4.91408035e-06
4.934614047e-06
4.935301787e-06
4.875826195e-06
4.852429273e-06
4.868829862e-06
4.821100843e-06
4.834722144e-06
4.769766914e-06
4.77897268e-06
4.770535259e-06
4.780501038e-06
4.742396428e-06
4.686305593e-06
4.735011445e-06
3.717750868e-06
4.797587701e-06
4.82511773e-06
4.799304553e-06
4.79653193e-06
4.755648032e-06
4.769550094e-06
4.749287162e-06
4.814163454e-06
4.768662197e-06
4.804426157e-06
4.806714529e-06
4.841030736e-06
4.853972628e-06
4.837089454e-06
4.822832691e-06
4.82317906e-06
4.836109289e-06
4.881279172e-06
4.857345722e-06
3.764307896e-06
4.793987791e-06
4.812384327e-06
4.788452542e-06
4.806231945e-06
4.707664911e-06
4.681789458e-06
4.680829287e-06
4.690586579e-06
4.780153002e-06
4.747156666e-06
4.774540482e-06
4.747563645e-06
4.778969347e-06
4.794478706e-06
4.793861573e-06
4.812750691e-06
4.798991508e-06
4.719581024e-06
4.704359091e-06
3.691952687e-06
4.752838127e-06
4.754299211e-06
4.724425199e-06
4.732046996e-06
4.791463646e-06
4.854754303e-06
4.890923576e-06
4.861106841e-06
4.808405763e-06
4.877986683e-06
4.860494707e-06
4.86394174e-06
4.851631978e-06
4.818141393e-06
4.832241946e-06
4.77946193e-06
4.773035451e-06
4.770612531e-06
4.807074229e-06
3.757111407e-06
4.832598313e-06
4.875471494e-06
4.860801086e-06
4.867148626e-06
4.875248009e-06
4.870060797e-06
4.740230941e-06
4.812792972e-06
4.813768139e-06
4.725025671e-06
4.775313826e-06
4.747442426e-06
4.759964009e-06
4.728766795e-06
4.773050447e-06
4.782589253e-06
4.907167955e-06
4.920592432e-06
4.913947468e-06
3.711040296e-06
4.805885575e-06
4.787136005e-06
4.804362216e-06
4.768663863e-06
4.736639361e-06
4.717896456e-06
4.715971116e-06
4.751513258e-06
4.744044339e-06
4.770609198e-06
4.757327601e-06
4.75082885e-06
4.793641421e-06
4.832035124e-06
4.781879852e-06
4.811212335e-06
4.732978841e-06
4.712166049e-06
4.730764408e-06
3.671266113e-06
4.750200053e-06
4.763898626e-06
4.782996232e-06
4.825950017e-06
4.767074895e-06
4.743008562e-06
4.800829579e-06
4.788926796e-06
4.756545927e-06
4.717523426e-06
4.724032175e-06
4.736346936e-06
4.745211331e-06
4.705835796e-06
4.726108726e-06
4.659640134e-06
4.685646803e-06
4.675744965e-06
4.67664286e-06
3.697489602e-06
4.700189326e-06
4.768109005e-06
4.774686695e-06
4.788649367e-06
4.750401876e-06
4.749087005e-06
4.71616794e-06
4.698938397e-06
4.717980393e-06
4.726910396e-06
4.724346261e-06
4.719492088e-06
4.717960398e-06
4.727568144e-06
4.774400935e-06
4.790174393e-06
4.78602129e-06
4.758005344e-06
4.810787027e-06
3.768874643e-06
4.87824245e-06
4.809618369e-06
4.760312045e-06
4.745296934e-06
4.781756966e-06
4.834948961e-06
4.863304612e-06
4.82394074e-06
4.785962347e-06
4.778974346e-06
4.786024623e-06
4.800895187e-06
4.773440764e-06
4.784659139e-06
4.7966192e-06
4.832857414e-06
4.83300196e-06
4.814327995e-06
4.780859072e-06
3.713400941e-06
4.81420511e-06
4.824994845e-06
4.872152344e-06
4.932609769e-06
4.883285117e-06
4.843993518e-06
4.828569762e-06
4.874222231e-06
4.931777482e-06
4.870768532e-06
4.839374494e-06
4.819733693e-06
4.837572039e-06
4.900524657e-06
4.818079117e-06
4.784590199e-06
4.733051114e-06
4.681858399e-06
4.77571414e-06
3.690837973e-06
4.826626094e-06
4.845029295e-06
4.844341554e-06
4.825467432e-06
4.844489433e-06
4.896653982e-06
4.886274559e-06
4.856595706e-06
4.882731925e-06
4.865993298e-06
4.941040525e-06
4.89013357e-06
4.830360553e-06
4.724112779e-06
4.755034231e-06
4.803037347e-06
4.745633306e-06
4.794196279e-06
4.734646747e-06
3.668370605e-06
4.626532576e-06
4.681730515e-06
4.730567584e-06
4.698255655e-06
4.744044339e-06
4.743223716e-06
4.766935348e-06
4.749653526e-06
4.80609573e-06
4.826711697e-06
4.834054399e-06
4.817790025e-06
4.858194671e-06
4.872856747e-06
4.834121673e-06
4.789780744e-06
4.823121783e-06
4.83819917e-06
4.840892855e-06
4.848422119e-06
4.90218452e-06
4.881065328e-06
4.910889004e-06
4.929841482e-06
4.951444679e-06
4.667509572e-06
4.72098409e-06
4.868611347e-06
4.835508391e-06
4.837330215e-06
4.791394235e-06
4.817182326e-06
4.840366558e-06
4.751306476e-06
4.792608294e-06
4.908096256e-06
4.853152233e-06
4.844517269e-06
4.783619528e-06
4.766901517e-06
4.786013283e-06
4.817421417e-06
4.785136864e-06
4.814995296e-06
4.854034796e-06
4.825491664e-06
4.833802295e-06
4.854453231e-06
4.814035128e-06
4.841913359e-06
4.836324644e-06
4.813731758e-06
4.875957413e-06
4.837902768e-06
4.906375277e-06
4.846754288e-06
4.856174556e-06
4.806758832e-06
4.807587144e-06
4.836622372e-06
4.845660918e-06
4.843618418e-06
4.819377651e-06
4.777387401e-06
4.77627432e-06
4.760027673e-06
4.719358287e-06
4.740347646e-06
4.795713035e-06
4.829170035e-06
4.858222319e-06
4.905995896e-06
4.944171251e-06
4.911084203e-06
4.924204984e-06
4.832205968e-06
4.856422927e-06
4.82223102e-06
4.812499998e-06
4.869988769e-06
4.797190539e-06
4.749985376e-06
4.740026021e-06
4.719415134e-06
4.753678093e-06
4.74735679e-06
4.742328308e-06
4.804076438e-06
4.7836919e-06
4.767888748e-06
4.801661712e-06
4.831652397e-06
4.843347313e-06
4.766731589e-06
4.766583686e-06
4.894357432e-06
4.896772146e-06
4.880708219e-06
4.788604787e-06
4.807883815e-06
4.807957669e-06
4.798974832e-06
4.812236077e-06
4.812121687e-06
4.80232209e-06
4.686531517e-06
4.6952068e-06
4.701880964e-06
4.687884667e-06
4.737422455e-06
4.692862629e-06
4.69189633e-06
4.670733533e-06
4.715772547e-06
4.723973669e-06
4.812252219e-06
4.851412395e-06
4.857553127e-06
4.915589147e-06
4.809221529e-06
4.803981638e-06
4.858257182e-06
4.859565275e-06
4.831675105e-06
4.771495259e-06
4.870212475e-06
4.811579424e-06
4.756565344e-06
4.763725814e-06
4.837206869e-06
4.819584405e-06
4.814824336e-06
4.79425609e-06
4.826165159e-06
4.81773339e-06
4.75385849e-06
4.800875819e-06
4.786758456e-06
4.710065991e-06
4.691530663e-06
4.672104093e-06
4.664249433e-06
4.754120017e-06
4.787131438e-06
4.832248296e-06
4.672070776e-06
4.68715374e-06
4.73594222e-06
4.78886683e-06
4.798160535e-06
4.819939131e-06
4.803380739e-06
4.782578044e-06
4.718438953e-06
4.744706733e-06
4.791737254e-06
4.853826922e-06
4.815726955e-06
4.850931822e-06
4.822975011e-06
4.829914856e-06
4.789306832e-06
4.747474693e-06
4.749032485e-06
4.657106477e-06
4.738749373e-06
4.746513011e-06
4.725101177e-06
4.698167342e-06
4.738919583e-06
4.67224043e-06
4.675846096e-06
4.726726691e-06
4.749196573e-06
4.824864234e-06
4.803468036e-06
4.8006534e-06
4.843044262e-06
4.809632064e-06
4.809866807e-06
4.815194136e-06
4.843901752e-06
4.834461901e-06
4.850964822e-06
4.826953222e-06
4.699445102e-06
4.679674772e-06
4.714600647e-06
4.718758876e-06
4.77972868e-06
4.797351763e-06
4.809378914e-06
4.848463263e-06
4.853217553e-06
4.862582277e-06
4.9061674e-06
4.835220734e-06
4.796699536e-06
4.820079871e-06
4.753500237e-06
4.739379277e-06
4.761828693e-06
4.701867566e-06
4.690012656e-06
4.660160865e-06
)
;

boundaryField
{
    flow
    {
        type            calculated;
        value           nonuniform List<scalar> 
48
(
3.699628429e-06
3.744179512e-06
3.702537266e-06
3.724453109e-06
3.710766199e-06
3.733942969e-06
3.697341723e-06
3.717750868e-06
3.764307896e-06
3.691952687e-06
3.757111407e-06
3.711040296e-06
3.671266113e-06
3.697489602e-06
3.768874643e-06
3.713400941e-06
3.690837973e-06
3.668370605e-06
3.668370605e-06
4.626532576e-06
4.681730515e-06
4.730567584e-06
4.698255655e-06
4.744044339e-06
4.743223716e-06
4.766935348e-06
4.749653526e-06
4.80609573e-06
4.826711697e-06
4.834054399e-06
4.817790025e-06
4.858194671e-06
4.872856747e-06
4.834121673e-06
4.789780744e-06
4.823121783e-06
4.83819917e-06
4.840892855e-06
4.9061674e-06
4.835220734e-06
4.796699536e-06
4.820079871e-06
4.753500237e-06
4.739379277e-06
4.761828693e-06
4.701867566e-06
4.690012656e-06
4.660160865e-06
)
;
    }
    obstacle
    {
        type            calculated;
        value           nonuniform List<scalar> 0();
    }
    frontAndBack
    {
        type            empty;
    }
    procBoundary2to0
    {
        type            processor;
        value           nonuniform List<scalar> 
31
(
3.709375722e-06
4.786927516e-06
4.788862854e-06
4.691681298e-06
4.744252827e-06
4.745149056e-06
4.756424708e-06
4.844275946e-06
4.860333498e-06
4.880248395e-06
4.819378992e-06
4.81592696e-06
4.767651414e-06
4.776431873e-06
4.748209105e-06
4.763711799e-06
4.76481485e-06
4.770893292e-06
4.808256218e-06
4.768899011e-06
4.828291785e-06
4.828438305e-06
4.789422597e-06
4.823254962e-06
4.878223755e-06
4.831911786e-06
4.807066677e-06
4.768677975e-06
4.731660063e-06
4.768196129e-06
4.768196129e-06
)
;
    }
    procBoundary2to3
    {
        type            processor;
        value           nonuniform List<scalar> 
19
(
4.918000163e-06
4.856645012e-06
4.874567042e-06
4.871792607e-06
4.822832186e-06
4.794883841e-06
4.866435426e-06
4.768528907e-06
4.781411161e-06
4.703026175e-06
4.804529263e-06
4.890435663e-06
4.809049918e-06
4.715471831e-06
4.714490416e-06
4.801445274e-06
4.908148091e-06
4.868491269e-06
4.614969969e-06
)
;
    }
}


// ************************************************************************* //
