/*--------------------------------*- C++ -*----------------------------------*\
| =========                 |                                                 |
| \\      /  F ield         | OpenFOAM: The Open Source CFD Toolbox           |
|  \\    /   O peration     | Version:  2406                                  |
|   \\  /    A nd           | Website:  www.openfoam.com                      |
|    \\/     M anipulation  |                                                 |
\*---------------------------------------------------------------------------*/
FoamFile
{
    version     2.0;
    format      ascii;
    arch        "LSB;label=32;scalar=64";
    class       volScalarField;
    location    "0.002";
    object      rhoM;
}
// * * * * * * * * * * * * * * * * * * * * * * * * * * * * * * * * * * * * * //

dimensions      [1 -3 0 0 0 0 0];

internalField   nonuniform List<scalar> 
546
(
2.905505464e-06
5.53358202e-06
3.942947953e-06
2.559135888e-06
4.427198864e-06
4.634020865e-06
6.086773598e-06
7.401644995e-06
4.911449774e-06
4.496139531e-06
3.874007286e-06
5.53358202e-06
3.52763771e-06
5.809344689e-06
2.905505464e-06
4.080829287e-06
8.439087484e-06
4.358258196e-06
4.911449774e-06
2.421254554e-06
4.080829287e-06
5.879951596e-06
7.608466997e-06
3.458697042e-06
2.905505464e-06
4.565080198e-06
4.080829287e-06
7.401644995e-06
5.049331109e-06
6.571024508e-06
5.395700685e-06
3.52763771e-06
5.395700685e-06
3.734459711e-06
5.948892263e-06
3.043386799e-06
4.565080198e-06
4.358258196e-06
3.458697042e-06
4.565080198e-06
3.942947953e-06
3.942947953e-06
3.458697042e-06
6.433143174e-06
4.149769955e-06
6.433143174e-06
5.464641352e-06
7.470585662e-06
4.980390442e-06
2.905505464e-06
4.427198864e-06
4.01188862e-06
6.917394084e-06
3.458697042e-06
4.565080198e-06
5.602522687e-06
1.521693399e-06
3.043386799e-06
2.974446132e-06
7.470585662e-06
2.490195221e-06
4.01188862e-06
6.01783293e-06
6.01783293e-06
4.01188862e-06
3.942947953e-06
5.879951596e-06
6.01783293e-06
4.149769955e-06
7.470585662e-06
5.395700685e-06
4.911449774e-06
2.974446132e-06
4.496139531e-06
6.433143174e-06
5.948892263e-06
3.458697042e-06
5.326760018e-06
3.942947953e-06
5.464641352e-06
3.043386799e-06
6.502083841e-06
3.458697042e-06
6.433143174e-06
6.364202506e-06
4.080829287e-06
2.421254554e-06
3.942947953e-06
2.974446132e-06
1.937003643e-06
4.080829287e-06
4.911449774e-06
6.502083841e-06
8.02377724e-06
7.401644995e-06
4.01188862e-06
5.671463354e-06
3.458697042e-06
5.049331109e-06
5.671463354e-06
2.421254554e-06
5.948892263e-06
4.496139531e-06
4.980390442e-06
4.980390442e-06
6.155714265e-06
4.911449774e-06
4.565080198e-06
6.571024508e-06
2.974446132e-06
4.496139531e-06
1.521693399e-06
4.496139531e-06
4.565080198e-06
6.917394084e-06
2.490195221e-06
5.602522687e-06
3.942947953e-06
4.911449774e-06
5.811010928e-06
2.490195221e-06
4.496139531e-06
5.395700685e-06
2.490195221e-06
5.049331109e-06
4.911449774e-06
5.879951596e-06
5.049331109e-06
3.458697042e-06
6.01783293e-06
3.596578377e-06
5.948892263e-06
6.086773598e-06
6.01783293e-06
4.01188862e-06
5.049331109e-06
3.596578377e-06
4.427198864e-06
5.879951596e-06
1.590634067e-06
4.496139531e-06
6.433143174e-06
4.496139531e-06
3.458697042e-06
5.602522687e-06
3.043386799e-06
4.01188862e-06
6.571024508e-06
4.565080198e-06
2.490195221e-06
6.502083841e-06
4.427198864e-06
3.874007286e-06
5.740404021e-06
2.559135888e-06
4.427198864e-06
4.980390442e-06
6.433143174e-06
3.52763771e-06
2.559135888e-06
5.118271776e-06
4.911449774e-06
9.685018214e-07
7.055275419e-06
4.565080198e-06
6.433143174e-06
6.708905843e-06
3.942947953e-06
2.00594431e-06
2.974446132e-06
4.980390442e-06
3.942947953e-06
3.665519044e-06
2.974446132e-06
3.043386799e-06
5.464641352e-06
3.665519044e-06
4.01188862e-06
5.049331109e-06
9.54547064e-06
2.559135888e-06
8.161658575e-06
5.049331109e-06
3.458697042e-06
4.634020865e-06
5.395700685e-06
2.974446132e-06
6.01783293e-06
3.942947953e-06
5.049331109e-06
3.52763771e-06
3.52763771e-06
3.942947953e-06
3.942947953e-06
4.634020865e-06
5.602522687e-06
6.639965176e-06
3.458697042e-06
3.52763771e-06
3.52763771e-06
5.395700685e-06
2.905505464e-06
2.905505464e-06
5.53358202e-06
3.52763771e-06
6.01783293e-06
4.01188862e-06
2.974446132e-06
6.433143174e-06
2.421254554e-06
4.427198864e-06
8.02377724e-06
4.427198864e-06
5.53358202e-06
5.049331109e-06
4.634020865e-06
3.942947953e-06
7.401644995e-06
6.571024508e-06
2.974446132e-06
4.565080198e-06
4.980390442e-06
2.421254554e-06
4.911449774e-06
7.055275419e-06
9.199101064e-06
5.049331109e-06
1.937003643e-06
7.401644995e-06
8.439087484e-06
4.496139531e-06
4.427198864e-06
3.52763771e-06
5.602522687e-06
2.074884977e-06
1.452752732e-06
4.565080198e-06
5.53358202e-06
4.980390442e-06
6.155714265e-06
4.01188862e-06
4.980390442e-06
5.53358202e-06
4.427198864e-06
4.427198864e-06
4.496139531e-06
3.458697042e-06
5.948892263e-06
4.634020865e-06
4.565080198e-06
2.628076555e-06
4.496139531e-06
5.53358202e-06
5.118271776e-06
4.427198864e-06
5.464641352e-06
4.427198864e-06
5.879951596e-06
4.980390442e-06
3.874007286e-06
3.942947953e-06
4.080829287e-06
3.874007286e-06
4.565080198e-06
4.496139531e-06
2.490195221e-06
4.702961533e-06
4.427198864e-06
6.502083841e-06
1.452752732e-06
2.974446132e-06
7.401644995e-06
3.458697042e-06
3.52763771e-06
6.502083841e-06
7.055275419e-06
3.596578377e-06
9.130160396e-06
2.974446132e-06
6.502083841e-06
3.043386799e-06
5.948892263e-06
5.53358202e-06
5.464641352e-06
5.464641352e-06
6.502083841e-06
5.395700685e-06
4.427198864e-06
5.53358202e-06
4.427198864e-06
3.458697042e-06
5.118271776e-06
6.848453417e-06
1.037609113e-05
3.874007286e-06
4.496139531e-06
5.464641352e-06
4.565080198e-06
5.879951596e-06
2.490195221e-06
4.496139531e-06
3.942947953e-06
3.942947953e-06
2.628076555e-06
3.52763771e-06
6.986334752e-06
4.080829287e-06
4.980390442e-06
3.458697042e-06
5.948892263e-06
4.01188862e-06
4.980390442e-06
5.049331109e-06
5.948892263e-06
2.974446132e-06
4.427198864e-06
3.043386799e-06
4.980390442e-06
2.490195221e-06
4.565080198e-06
3.52763771e-06
7.401644995e-06
6.986334752e-06
6.01783293e-06
6.155714265e-06
2.421254554e-06
6.986334752e-06
7.124216086e-06
3.389756375e-06
4.01188862e-06
6.01783293e-06
5.049331109e-06
6.364202506e-06
7.332704328e-06
5.53358202e-06
4.980390442e-06
3.389756375e-06
2.974446132e-06
5.879951596e-06
3.458697042e-06
5.464641352e-06
3.112327466e-06
3.942947953e-06
5.049331109e-06
3.942947953e-06
3.458697042e-06
6.502083841e-06
3.458697042e-06
5.948892263e-06
6.708905843e-06
5.049331109e-06
5.948892263e-06
6.986334752e-06
4.080829287e-06
5.187212443e-06
3.389756375e-06
4.980390442e-06
2.490195221e-06
4.565080198e-06
2.974446132e-06
4.852184604e-06
5.246378826e-06
4.777006444e-06
3.134852914e-06
4.772839451e-06
4.216059536e-06
6.663512183e-06
5.591389966e-06
5.63010314e-06
2.621927837e-06
2.99769598e-06
5.103116739e-06
8.975140374e-06
5.977315654e-06
2.056210061e-06
4.80756839e-06
4.512084017e-06
5.521729093e-06
5.419673585e-06
4.961326785e-06
5.495775925e-06
3.522040011e-06
3.691402441e-06
3.134852914e-06
9.397543338e-06
6.878740208e-06
2.637396384e-06
4.403787829e-06
7.178339121e-06
2.551295614e-06
5.280672474e-06
3.162153504e-06
6.513624216e-06
2.6244872e-06
4.919206198e-06
6.287231309e-06
3.470962463e-06
4.962758428e-06
7.108195936e-06
1.984530727e-06
4.210312354e-06
3.665302074e-06
5.790469349e-06
2.114121434e-06
4.331970293e-06
7.099887909e-06
7.080295222e-06
4.612770417e-06
2.04093358e-06
7.157754214e-06
4.567672097e-06
3.665302074e-06
6.659650055e-06
7.217778824e-06
5.727761098e-06
3.845698382e-06
3.401777314e-06
3.634150931e-06
6.475211968e-06
4.110325872e-06
5.78028847e-06
2.587373909e-06
5.139455687e-06
6.560339905e-06
3.671551023e-06
3.18047365e-06
6.941924972e-06
2.516209667e-06
4.574564758e-06
9.922653637e-07
2.782592491e-06
6.684193491e-06
5.283737933e-06
6.998047119e-06
5.433258714e-06
4.80756839e-06
6.525141886e-06
4.543109575e-06
3.026328797e-06
2.976796091e-06
3.996927973e-06
4.886492344e-06
4.125992745e-06
3.207511433e-06
4.772839451e-06
3.698266581e-06
4.026115799e-06
5.452068183e-06
3.166615125e-06
4.039693622e-06
4.638800192e-06
5.749527436e-06
1.52019438e-06
5.977315696e-06
4.772839451e-06
4.437207236e-06
3.956930651e-06
4.473448702e-06
2.533631195e-06
3.543560996e-06
2.711464382e-06
5.749527436e-06
3.619261292e-06
4.811267116e-06
3.157498482e-06
4.142343636e-06
5.067237357e-06
3.984138943e-06
7.460607165e-06
2.480663409e-06
4.210312354e-06
5.174747783e-06
6.369341969e-06
5.759340136e-06
4.846022842e-06
1.627094764e-06
5.067237323e-06
6.430687694e-06
9.359559007e-06
4.677090773e-06
5.495775963e-06
2.659004935e-06
4.632724198e-06
4.593291592e-06
6.902232918e-06
3.845698382e-06
4.788824581e-06
3.214502045e-06
4.574564789e-06
6.520357087e-06
4.210312354e-06
7.762121728e-06
3.763543591e-06
6.342364392e-06
4.846022808e-06
2.736396553e-06
3.60933276e-06
2.585870523e-06
3.096471941e-06
6.732253709e-06
4.210312354e-06
5.677896352e-06
6.369341925e-06
6.342364303e-06
5.213708543e-06
2.662680691e-06
3.678517908e-06
3.494829185e-06
5.489816807e-06
3.969061428e-06
6.066520045e-06
3.090522461e-06
3.691402441e-06
5.831998656e-06
4.331970323e-06
5.769438399e-06
4.998052208e-06
8.316582253e-06
3.589169561e-06
5.528091723e-06
6.708392337e-06
3.59367103e-06
3.256812085e-06
5.759340096e-06
4.405153714e-06
3.180473627e-06
4.026115799e-06
9.854172402e-06
3.659312746e-06
7.016489721e-06
2.069592113e-06
5.82115848e-06
3.184671007e-06
3.645218647e-06
4.258786902e-06
4.437207236e-06
5.136422471e-06
4.473448672e-06
1.970790395e-06
5.739988391e-06
2.640336237e-06
9.774715952e-06
4.777006444e-06
5.831998615e-06
7.416285437e-06
3.180473627e-06
)
;

boundaryField
{
    flow
    {
        type            zeroGradient;
    }
    obstacle
    {
        type            calculated;
        value           nonuniform List<scalar> 0();
    }
    frontAndBack
    {
        type            empty;
    }
    procBoundary2to0
    {
        type            processor;
        value           nonuniform List<scalar> 
31
(
4.080829287e-06
2.559135888e-06
3.458697042e-06
5.948892263e-06
3.52763771e-06
3.596578377e-06
5.326760018e-06
5.395700685e-06
5.118271776e-06
6.77951275e-06
2.00594431e-06
3.389756375e-06
5.049331109e-06
2.490195221e-06
4.980390442e-06
3.942947953e-06
8.714850153e-06
2.974446132e-06
9.54547064e-06
1.037442489e-06
4.49654397e-06
9.846346996e-06
3.691402441e-06
5.32163292e-06
5.213708579e-06
5.325361345e-06
4.928867026e-06
2.446548777e-06
4.362439899e-06
3.472928773e-06
3.472928773e-06
)
;
    }
    procBoundary2to3
    {
        type            processor;
        value           nonuniform List<scalar> 
19
(
5.960239096e-06
6.034495312e-06
4.84280647e-06
3.203785551e-06
9.164024647e-06
5.29013848e-06
5.811726706e-06
4.991318866e-06
1.564764679e-06
5.737470449e-06
3.725373774e-06
6.333314932e-06
5.587163305e-06
4.172705781e-06
6.407571195e-06
4.917062651e-06
6.481827318e-06
5.364394696e-06
3.651117558e-06
)
;
    }
}


// ************************************************************************* //
