/*--------------------------------*- C++ -*----------------------------------*\
| =========                 |                                                 |
| \\      /  F ield         | OpenFOAM: The Open Source CFD Toolbox           |
|  \\    /   O peration     | Version:  2406                                  |
|   \\  /    A nd           | Website:  www.openfoam.com                      |
|    \\/     M anipulation  |                                                 |
\*---------------------------------------------------------------------------*/
FoamFile
{
    version     2.0;
    format      ascii;
    arch        "LSB;label=32;scalar=64";
    class       volScalarField;
    location    "0.002";
    object      rhoNMean;
}
// * * * * * * * * * * * * * * * * * * * * * * * * * * * * * * * * * * * * * //

dimensions      [0 -3 0 0 0 0 0];

internalField   nonuniform List<scalar> 
546
(
7.710524178e+19
9.882884178e+19
1.007554314e+20
9.997438156e+19
1.004534255e+20
1.003388715e+20
1.003596995e+20
9.939119767e+19
9.858931982e+19
9.858931982e+19
9.849559384e+19
9.981817159e+19
1.000576935e+20
9.969320362e+19
1.002139035e+20
9.883925577e+19
9.847476584e+19
9.789158195e+19
9.674604216e+19
9.610037428e+19
7.806332961e+19
1.002139035e+20
1.002451455e+20
1.012136473e+20
1.006304634e+20
1.008595714e+20
1.003076295e+20
1.003076295e+20
9.991189758e+19
9.984941359e+19
1.004221835e+20
9.920374571e+19
1.002555595e+20
9.903712174e+19
9.892256776e+19
1.000368656e+20
1.007033614e+20
1.016302073e+20
1.02796575e+20
1.03171479e+20
7.718855377e+19
9.949533765e+19
9.942243967e+19
9.86726318e+19
1.002763875e+20
1.007241894e+20
1.011407493e+20
1.009949534e+20
1.007137754e+20
1.011303354e+20
1.004742535e+20
1.014948253e+20
9.97661016e+19
1.009949534e+20
9.999520956e+19
9.966196162e+19
9.945368166e+19
9.969320362e+19
9.997438156e+19
9.984941359e+19
7.75738717e+19
9.987024158e+19
1.011928193e+20
1.012240613e+20
9.891215376e+19
9.908919173e+19
9.992231157e+19
9.940161167e+19
1.004221835e+20
9.97973436e+19
9.892256776e+19
9.741253804e+19
9.882884178e+19
9.912043372e+19
1.005263235e+20
9.97869296e+19
9.999520956e+19
9.992231157e+19
1.017760032e+20
1.009012274e+20
7.734476374e+19
1.005159095e+20
9.933912768e+19
9.92454017e+19
9.945368166e+19
9.847476584e+19
9.783951196e+19
9.852683583e+19
9.793323794e+19
9.752709202e+19
9.890173976e+19
1.002139035e+20
1.007970874e+20
1.006721194e+20
1.005263235e+20
1.009949534e+20
1.001410055e+20
1.006929474e+20
9.873511579e+19
9.87142878e+19
7.785504964e+19
9.908919173e+19
9.92454017e+19
1.000576935e+20
1.004846675e+20
1.006929474e+20
1.000889355e+20
9.993272557e+19
9.996396757e+19
1.008699854e+20
1.001930755e+20
9.964113363e+19
9.960989163e+19
9.947450966e+19
9.895380975e+19
9.999520956e+19
1.004221835e+20
9.97765156e+19
1.014427553e+20
1.022029772e+20
7.70323438e+19
9.973485961e+19
1.013490293e+20
1.006617054e+20
1.011615773e+20
1.024841551e+20
1.02848645e+20
1.02838231e+20
1.016718633e+20
1.010782654e+20
1.014635833e+20
1.004638395e+20
1.007137754e+20
9.933912768e+19
9.956823564e+19
9.940161167e+19
9.964113363e+19
9.890173976e+19
9.777702797e+19
9.884966977e+19
7.748014571e+19
1.000056236e+20
1.005783935e+20
9.996396757e+19
9.987024158e+19
9.899546575e+19
9.927664369e+19
9.888091177e+19
1.001930755e+20
9.932871368e+19
1.000889355e+20
1.001722475e+20
1.009324694e+20
1.012448893e+20
1.008595714e+20
1.005159095e+20
1.005263235e+20
1.007658454e+20
1.017135192e+20
1.012136473e+20
7.847988953e+19
9.991189758e+19
1.002763875e+20
9.97869296e+19
1.001722475e+20
9.81311039e+19
9.755833401e+19
9.7589576e+19
9.781868396e+19
9.962030563e+19
9.892256776e+19
9.944326766e+19
9.888091177e+19
9.954740764e+19
9.996396757e+19
9.998479556e+19
1.004117695e+20
1.001618335e+20
9.849559384e+19
9.81519319e+19
7.695944581e+19
9.909960573e+19
9.918291771e+19
9.861014782e+19
9.884966977e+19
1.000785215e+20
1.013906853e+20
1.020988372e+20
1.014531693e+20
1.004013555e+20
1.018176592e+20
1.015052393e+20
1.015052393e+20
1.012657173e+20
1.004950815e+20
1.007241894e+20
9.960989163e+19
9.951616565e+19
9.945368166e+19
1.002659735e+20
7.831326556e+19
1.007970874e+20
1.016093793e+20
1.012657173e+20
1.012969593e+20
1.015052393e+20
1.014010993e+20
9.87247018e+19
1.002451455e+20
1.003076295e+20
9.848517984e+19
9.953699365e+19
9.898505175e+19
9.92558157e+19
9.859973382e+19
9.960989163e+19
9.97661016e+19
1.023696011e+20
1.026820211e+20
1.025153971e+20
7.733434974e+19
1.001618335e+20
9.974527361e+19
1.001201775e+20
9.933912768e+19
9.86830458e+19
9.830814187e+19
9.833938387e+19
9.900587974e+19
9.886008377e+19
9.943285366e+19
9.915167572e+19
9.903712174e+19
9.990148358e+19
1.007241894e+20
9.964113363e+19
1.002763875e+20
9.864138981e+19
9.825607188e+19
9.858931982e+19
7.650122989e+19
9.898505175e+19
9.928705769e+19
9.972444561e+19
1.006096354e+20
9.931829969e+19
9.884966977e+19
1.000160376e+20
9.973485961e+19
9.900587974e+19
9.81311039e+19
9.830814187e+19
9.857890582e+19
9.882884178e+19
9.790199595e+19
9.836021186e+19
9.700639211e+19
9.753750601e+19
9.726674206e+19
9.727715606e+19
7.709482778e+19
9.794365194e+19
9.931829969e+19
9.949533765e+19
9.972444561e+19
9.895380975e+19
9.892256776e+19
9.827689988e+19
9.788116795e+19
9.840186785e+19
9.863097581e+19
9.854766383e+19
9.837062586e+19
9.827689988e+19
9.843310985e+19
9.943285366e+19
9.97765156e+19
9.967237562e+19
9.907877773e+19
1.002034895e+20
7.858402951e+19
1.016926912e+20
1.002243175e+20
9.927664369e+19
9.893298176e+19
9.973485961e+19
1.008387434e+20
1.014010993e+20
1.005471515e+20
9.973485961e+19
9.957864964e+19
9.969320362e+19
9.999520956e+19
9.946409566e+19
9.97765156e+19
9.998479556e+19
1.006929474e+20
1.007346034e+20
1.003596995e+20
9.972444561e+19
7.743848972e+19
1.004534255e+20
1.006721194e+20
1.015468953e+20
1.02817403e+20
1.017551752e+20
1.009220554e+20
1.006096354e+20
1.015573093e+20
1.02786161e+20
1.015156533e+20
1.009220554e+20
1.005367375e+20
1.008595714e+20
1.022133912e+20
1.005367375e+20
9.97765156e+19
9.866221781e+19
9.755833401e+19
9.945368166e+19
7.688654782e+19
1.005263235e+20
1.009324694e+20
1.009428834e+20
1.006096354e+20
1.010053674e+20
1.021509072e+20
1.019113852e+20
1.012657173e+20
1.017447612e+20
1.014010993e+20
1.02942371e+20
1.019009712e+20
1.005992214e+20
9.838103986e+19
9.903712174e+19
1.000264516e+20
9.888091177e+19
9.992231157e+19
9.87247018e+19
7.650122989e+19
9.647527821e+19
9.7620818e+19
9.865180381e+19
9.792282394e+19
9.886008377e+19
9.890173976e+19
9.930788569e+19
9.901629374e+19
1.001826615e+20
1.006304634e+20
1.008491574e+20
1.004534255e+20
1.013490293e+20
1.016406213e+20
1.008387434e+20
9.990148358e+19
1.005992214e+20
1.009012274e+20
1.009324694e+20
1.011910421e+20
1.02339337e+20
1.018802656e+20
1.024572927e+20
1.028436684e+20
1.033358842e+20
9.730859777e+19
9.837756849e+19
1.015380879e+20
1.008162942e+20
1.007720093e+20
9.979654315e+19
1.002892385e+20
1.008219273e+20
9.893023567e+19
9.978371322e+19
1.022518878e+20
1.011240168e+20
1.008811578e+20
9.965331649e+19
9.936448828e+19
9.974244185e+19
1.004309054e+20
9.985607385e+19
1.004226469e+20
1.012981184e+20
1.005379348e+20
1.007872875e+20
1.011672403e+20
1.003681743e+20
1.00965409e+20
1.008028403e+20
1.003655207e+20
1.016560741e+20
1.008869517e+20
1.022334856e+20
1.011127358e+20
1.012923808e+20
1.003089928e+20
1.002401408e+20
1.007934982e+20
1.009543259e+20
1.009430849e+20
1.004268047e+20
9.956036456e+19
9.951646524e+19
9.914796123e+19
9.823024876e+19
9.86454762e+19
9.974934285e+19
1.004496764e+20
1.011166319e+20
1.021418052e+20
1.029402202e+20
1.022467042e+20
1.026343583e+20
1.005588366e+20
1.011029712e+20
1.005632884e+20
1.00485539e+20
1.017282636e+20
1.00207719e+20
9.917769858e+19
9.90109521e+19
9.85764798e+19
9.927148864e+19
9.908525632e+19
9.898789034e+19
1.002030364e+20
9.966398669e+19
9.931076682e+19
9.994802875e+19
1.005507774e+20
1.008329029e+20
9.928399224e+19
9.930489393e+19
1.020010648e+20
1.02071068e+20
1.017394059e+20
9.990938565e+19
1.003314877e+20
1.003483835e+20
1.001148786e+20
1.002950981e+20
1.003010431e+20
1.001400439e+20
9.771618399e+19
9.792508784e+19
9.8030928e+19
9.771146319e+19
9.871982249e+19
9.776230875e+19
9.772833832e+19
9.734266049e+19
9.822272323e+19
9.836952601e+19
1.003811708e+20
1.011345396e+20
1.012520061e+20
1.0248074e+20
1.002455329e+20
1.001211558e+20
1.01357188e+20
1.013816825e+20
1.008427321e+20
9.959441257e+19
1.015725774e+20
1.003453303e+20
9.917525857e+19
9.936524013e+19
1.00890198e+20
1.004890487e+20
1.004309054e+20
1.000865623e+20
1.007100741e+20
1.006299985e+20
9.907480473e+19
1.000612143e+20
9.981099673e+19
9.817025322e+19
9.774208003e+19
9.74052349e+19
9.717256698e+19
9.899997649e+19
9.962669462e+19
1.005854572e+20
9.727724498e+19
9.766201874e+19
9.873024205e+19
9.978135141e+19
1.000198992e+20
1.004674086e+20
1.001475724e+20
9.975729408e+19
9.84217106e+19
9.894856259e+19
9.972276231e+19
1.009872199e+20
1.002454183e+20
1.00976337e+20
1.004066987e+20
1.005864323e+20
9.965718571e+19
9.879143926e+19
9.889707099e+19
9.694420416e+19
9.890758987e+19
9.901945871e+19
9.848654216e+19
9.796753234e+19
9.874131135e+19
9.73619533e+19
9.751038862e+19
9.853900168e+19
9.900762062e+19
1.005075098e+20
9.996313434e+19
9.997703265e+19
1.008811578e+20
1.002188017e+20
1.002777655e+20
1.003592039e+20
1.009103925e+20
1.007011956e+20
1.011080503e+20
1.006634045e+20
9.799835907e+19
9.750417688e+19
9.817926772e+19
9.820226178e+19
9.951491099e+19
9.987228664e+19
1.002129571e+20
1.010194882e+20
1.010085555e+20
1.012758478e+20
1.023041417e+20
1.009451287e+20
1.001288668e+20
1.006242435e+20
9.918183366e+19
9.883352761e+19
9.925398004e+19
9.802314745e+19
9.776947262e+19
9.714463945e+19
)
;

boundaryField
{
    flow
    {
        type            calculated;
        value           nonuniform List<scalar> 
48
(
7.710524178e+19
7.806332961e+19
7.718855377e+19
7.75738717e+19
7.734476374e+19
7.785504964e+19
7.70323438e+19
7.748014571e+19
7.847988953e+19
7.695944581e+19
7.831326556e+19
7.733434974e+19
7.650122989e+19
7.709482778e+19
7.858402951e+19
7.743848972e+19
7.688654782e+19
7.650122989e+19
7.650122989e+19
9.647527821e+19
9.7620818e+19
9.865180381e+19
9.792282394e+19
9.886008377e+19
9.890173976e+19
9.930788569e+19
9.901629374e+19
1.001826615e+20
1.006304634e+20
1.008491574e+20
1.004534255e+20
1.013490293e+20
1.016406213e+20
1.008387434e+20
9.990148358e+19
1.005992214e+20
1.009012274e+20
1.009324694e+20
1.023041417e+20
1.009451287e+20
1.001288668e+20
1.006242435e+20
9.918183366e+19
9.883352761e+19
9.925398004e+19
9.802314745e+19
9.776947262e+19
9.714463945e+19
)
;
    }
    obstacle
    {
        type            calculated;
        value           nonuniform List<scalar> 0();
    }
    frontAndBack
    {
        type            empty;
    }
    procBoundary2to0
    {
        type            processor;
        value           nonuniform List<scalar> 
31
(
7.727186575e+19
9.973485961e+19
9.97661016e+19
9.776661397e+19
9.887049777e+19
9.887049777e+19
9.911001972e+19
1.009637114e+20
1.013594433e+20
1.017343472e+20
1.004742535e+20
1.004430115e+20
9.947450966e+19
9.963071963e+19
9.903712174e+19
9.941202567e+19
9.941202567e+19
9.948492365e+19
1.003284575e+20
9.951616565e+19
1.00739776e+20
1.007595587e+20
9.992962267e+19
1.005914402e+20
1.017823987e+20
1.007858931e+20
1.004020727e+20
9.953507478e+19
9.870905009e+19
9.949327437e+19
9.949327437e+19
)
;
    }
    procBoundary2to3
    {
        type            processor;
        value           nonuniform List<scalar> 
19
(
1.026351019e+20
1.011208135e+20
1.017489635e+20
1.015807085e+20
1.004926642e+20
9.985329873e+19
1.015134075e+20
9.942705387e+19
9.965139361e+19
9.798006719e+19
1.002683252e+20
1.02074255e+20
1.002122404e+20
9.826049097e+19
9.815953982e+19
1.000215523e+20
1.023210272e+20
1.013675871e+20
9.619657198e+19
)
;
    }
}


// ************************************************************************* //
