/*--------------------------------*- C++ -*----------------------------------*\
| =========                 |                                                 |
| \\      /  F ield         | OpenFOAM: The Open Source CFD Toolbox           |
|  \\    /   O peration     | Version:  2406                                  |
|   \\  /    A nd           | Website:  www.openfoam.com                      |
|    \\/     M anipulation  |                                                 |
\*---------------------------------------------------------------------------*/
FoamFile
{
    version     2.0;
    format      ascii;
    arch        "LSB;label=32;scalar=64";
    class       volScalarField;
    location    "0.002";
    object      rhoN;
}
// * * * * * * * * * * * * * * * * * * * * * * * * * * * * * * * * * * * * * //

dimensions      [0 -3 0 0 0 0 0];

internalField   nonuniform List<scalar> 
546
(
6.248398848e+19
1.145539789e+20
8.331198464e+19
5.20699904e+19
9.372598272e+19
9.372598272e+19
1.24967977e+20
1.562099712e+20
1.041399808e+20
9.372598272e+19
8.331198464e+19
1.145539789e+20
7.289798656e+19
1.145539789e+20
6.248398848e+19
8.331198464e+19
1.770379674e+20
9.372598272e+19
1.041399808e+20
5.20699904e+19
8.331198464e+19
1.24967977e+20
1.562099712e+20
7.289798656e+19
6.248398848e+19
9.372598272e+19
8.331198464e+19
1.562099712e+20
1.041399808e+20
1.35381975e+20
1.145539789e+20
7.289798656e+19
1.145539789e+20
7.289798656e+19
1.24967977e+20
6.248398848e+19
9.372598272e+19
9.372598272e+19
7.289798656e+19
9.372598272e+19
8.331198464e+19
8.331198464e+19
7.289798656e+19
1.35381975e+20
8.331198464e+19
1.35381975e+20
1.145539789e+20
1.562099712e+20
1.041399808e+20
6.248398848e+19
9.372598272e+19
8.331198464e+19
1.457959731e+20
7.289798656e+19
9.372598272e+19
1.145539789e+20
3.124199424e+19
6.248398848e+19
6.248398848e+19
1.562099712e+20
5.20699904e+19
8.331198464e+19
1.24967977e+20
1.24967977e+20
8.331198464e+19
8.331198464e+19
1.24967977e+20
1.24967977e+20
8.331198464e+19
1.562099712e+20
1.145539789e+20
1.041399808e+20
6.248398848e+19
9.372598272e+19
1.35381975e+20
1.24967977e+20
7.289798656e+19
1.145539789e+20
8.331198464e+19
1.145539789e+20
6.248398848e+19
1.35381975e+20
7.289798656e+19
1.35381975e+20
1.35381975e+20
8.331198464e+19
5.20699904e+19
8.331198464e+19
6.248398848e+19
4.165599232e+19
8.331198464e+19
1.041399808e+20
1.35381975e+20
1.666239693e+20
1.562099712e+20
8.331198464e+19
1.145539789e+20
7.289798656e+19
1.041399808e+20
1.145539789e+20
5.20699904e+19
1.24967977e+20
9.372598272e+19
1.041399808e+20
1.041399808e+20
1.24967977e+20
1.041399808e+20
9.372598272e+19
1.35381975e+20
6.248398848e+19
9.372598272e+19
3.124199424e+19
9.372598272e+19
9.372598272e+19
1.457959731e+20
5.20699904e+19
1.145539789e+20
8.331198464e+19
1.041399808e+20
1.24967977e+20
5.20699904e+19
9.372598272e+19
1.145539789e+20
5.20699904e+19
1.041399808e+20
1.041399808e+20
1.24967977e+20
1.041399808e+20
7.289798656e+19
1.24967977e+20
7.289798656e+19
1.24967977e+20
1.24967977e+20
1.24967977e+20
8.331198464e+19
1.041399808e+20
7.289798656e+19
9.372598272e+19
1.24967977e+20
3.124199424e+19
9.372598272e+19
1.35381975e+20
9.372598272e+19
7.289798656e+19
1.145539789e+20
6.248398848e+19
8.331198464e+19
1.35381975e+20
9.372598272e+19
5.20699904e+19
1.35381975e+20
9.372598272e+19
8.331198464e+19
1.145539789e+20
5.20699904e+19
9.372598272e+19
1.041399808e+20
1.35381975e+20
7.289798656e+19
5.20699904e+19
1.041399808e+20
1.041399808e+20
2.082799616e+19
1.457959731e+20
9.372598272e+19
1.35381975e+20
1.35381975e+20
8.331198464e+19
4.165599232e+19
6.248398848e+19
1.041399808e+20
8.331198464e+19
7.289798656e+19
6.248398848e+19
6.248398848e+19
1.145539789e+20
7.289798656e+19
8.331198464e+19
1.041399808e+20
1.978659635e+20
5.20699904e+19
1.666239693e+20
1.041399808e+20
7.289798656e+19
9.372598272e+19
1.145539789e+20
6.248398848e+19
1.24967977e+20
8.331198464e+19
1.041399808e+20
7.289798656e+19
7.289798656e+19
8.331198464e+19
8.331198464e+19
9.372598272e+19
1.145539789e+20
1.35381975e+20
7.289798656e+19
7.289798656e+19
7.289798656e+19
1.145539789e+20
6.248398848e+19
6.248398848e+19
1.145539789e+20
7.289798656e+19
1.24967977e+20
8.331198464e+19
6.248398848e+19
1.35381975e+20
5.20699904e+19
9.372598272e+19
1.666239693e+20
9.372598272e+19
1.145539789e+20
1.041399808e+20
9.372598272e+19
8.331198464e+19
1.562099712e+20
1.35381975e+20
6.248398848e+19
9.372598272e+19
1.041399808e+20
5.20699904e+19
1.041399808e+20
1.457959731e+20
1.874519654e+20
1.041399808e+20
4.165599232e+19
1.562099712e+20
1.770379674e+20
9.372598272e+19
9.372598272e+19
7.289798656e+19
1.145539789e+20
4.165599232e+19
3.124199424e+19
9.372598272e+19
1.145539789e+20
1.041399808e+20
1.24967977e+20
8.331198464e+19
1.041399808e+20
1.145539789e+20
9.372598272e+19
9.372598272e+19
9.372598272e+19
7.289798656e+19
1.24967977e+20
9.372598272e+19
9.372598272e+19
5.20699904e+19
9.372598272e+19
1.145539789e+20
1.041399808e+20
9.372598272e+19
1.145539789e+20
9.372598272e+19
1.24967977e+20
1.041399808e+20
8.331198464e+19
8.331198464e+19
8.331198464e+19
8.331198464e+19
9.372598272e+19
9.372598272e+19
5.20699904e+19
9.372598272e+19
9.372598272e+19
1.35381975e+20
3.124199424e+19
6.248398848e+19
1.562099712e+20
7.289798656e+19
7.289798656e+19
1.35381975e+20
1.457959731e+20
7.289798656e+19
1.874519654e+20
6.248398848e+19
1.35381975e+20
6.248398848e+19
1.24967977e+20
1.145539789e+20
1.145539789e+20
1.145539789e+20
1.35381975e+20
1.145539789e+20
9.372598272e+19
1.145539789e+20
9.372598272e+19
7.289798656e+19
1.041399808e+20
1.457959731e+20
2.186939597e+20
8.331198464e+19
9.372598272e+19
1.145539789e+20
9.372598272e+19
1.24967977e+20
5.20699904e+19
9.372598272e+19
8.331198464e+19
8.331198464e+19
5.20699904e+19
7.289798656e+19
1.457959731e+20
8.331198464e+19
1.041399808e+20
7.289798656e+19
1.24967977e+20
8.331198464e+19
1.041399808e+20
1.041399808e+20
1.24967977e+20
6.248398848e+19
9.372598272e+19
6.248398848e+19
1.041399808e+20
5.20699904e+19
9.372598272e+19
7.289798656e+19
1.562099712e+20
1.457959731e+20
1.24967977e+20
1.24967977e+20
5.20699904e+19
1.457959731e+20
1.457959731e+20
7.289798656e+19
8.331198464e+19
1.24967977e+20
1.041399808e+20
1.35381975e+20
1.562099712e+20
1.145539789e+20
1.041399808e+20
7.289798656e+19
6.248398848e+19
1.24967977e+20
7.289798656e+19
1.145539789e+20
6.248398848e+19
8.331198464e+19
1.041399808e+20
8.331198464e+19
7.289798656e+19
1.35381975e+20
7.289798656e+19
1.24967977e+20
1.35381975e+20
1.041399808e+20
1.24967977e+20
1.457959731e+20
8.331198464e+19
1.041399808e+20
7.289798656e+19
1.041399808e+20
5.20699904e+19
9.372598272e+19
6.248398848e+19
9.669987032e+19
1.082039934e+20
9.807705538e+19
6.58536429e+19
9.949403591e+19
8.908265883e+19
1.35862074e+20
1.157506956e+20
1.165521201e+20
5.334759983e+19
6.446658021e+19
1.082039934e+20
1.852566614e+20
1.207316786e+20
4.42195712e+19
1.002179912e+20
9.405835955e+19
1.157506956e+20
1.165521201e+20
1.066951997e+20
1.181887296e+20
7.574279594e+19
7.628215471e+19
6.58536429e+19
1.879331789e+20
1.447593206e+20
5.225464384e+19
9.47051146e+19
1.48339062e+20
5.334759983e+19
1.074443004e+20
6.492239607e+19
1.307694081e+20
5.487803613e+19
9.94940352e+19
1.336239873e+20
7.315650138e+19
1.052279044e+20
1.48339062e+20
4.267808016e+19
8.595544028e+19
7.574279541e+19
1.198719566e+20
4.390242829e+19
8.84391424e+19
1.447593206e+20
1.463130028e+20
9.470511396e+19
4.238258913e+19
1.493732806e+20
9.669987032e+19
7.574279541e+19
1.416668588e+20
1.536585012e+20
1.216038217e+20
7.794732648e+19
7.315650138e+19
7.365953358e+19
1.377434147e+20
8.535615974e+19
1.181887304e+20
5.41019971e+19
1.089745067e+20
1.317072858e+20
7.738425015e+19
6.68119946e+19
1.463130037e+20
5.261395256e+19
9.536082555e+19
2.133904008e+19
5.372215018e+19
1.406651915e+20
1.089745067e+20
1.426828929e+20
1.10548928e+20
1.002179912e+20
1.35862074e+20
9.47051146e+19
6.357388413e+19
6.401712024e+19
8.595544028e+19
9.73835941e+19
8.717960478e+19
6.58536429e+19
9.949403591e+19
7.794732648e+19
8.360743015e+19
1.157506948e+20
6.357388327e+19
8.535615915e+19
9.669986965e+19
1.190243936e+20
3.269235225e+19
1.207316795e+20
9.949403591e+19
8.908265883e+19
8.360743015e+19
9.47051146e+19
5.297823677e+19
7.468664028e+19
5.372215055e+19
1.190243936e+20
7.628215418e+19
9.878046365e+19
6.63293568e+19
8.908265883e+19
1.045092884e+20
8.418232409e+19
1.589347092e+20
5.33476002e+19
8.595544028e+19
1.082039934e+20
1.307694081e+20
1.207316795e+20
9.949403591e+19
3.340599706e+19
1.045092877e+20
1.367962757e+20
1.907216498e+20
9.60256797e+19
1.181887304e+20
5.410199672e+19
9.807705538e+19
9.878046435e+19
1.437136074e+20
7.794732648e+19
9.405835892e+19
6.313674307e+19
9.536082619e+19
1.387037605e+20
8.595544028e+19
1.623059913e+20
7.628215524e+19
1.317072867e+20
9.94940352e+19
5.567666137e+19
7.315650138e+19
5.26139522e+19
6.357388327e+19
1.387037596e+20
8.595544028e+19
1.190243928e+20
1.307694072e+20
1.317072849e+20
1.10548928e+20
5.567666217e+19
7.315650138e+19
7.365953358e+19
1.165521209e+20
8.535615974e+19
1.289331595e+20
6.492239607e+19
7.628215471e+19
1.207316795e+20
8.843914303e+19
1.224886559e+20
1.045092884e+20
1.683646482e+20
7.416953098e+19
1.173647204e+20
1.396775905e+20
7.574279541e+19
6.538470358e+19
1.207316786e+20
8.843914303e+19
6.681199412e+19
8.360743015e+19
1.999330197e+20
7.416953098e+19
1.493732795e+20
4.297772014e+19
1.190243936e+20
6.53847045e+19
7.682925005e+19
8.84391424e+19
8.908265883e+19
1.045092877e+20
9.470511396e+19
4.238258913e+19
1.173647204e+20
5.372215018e+19
2.055875875e+20
9.807705538e+19
1.207316786e+20
1.547685003e+20
6.681199412e+19
)
;

boundaryField
{
    flow
    {
        type            zeroGradient;
    }
    obstacle
    {
        type            calculated;
        value           nonuniform List<scalar> 0();
    }
    frontAndBack
    {
        type            empty;
    }
    procBoundary2to0
    {
        type            processor;
        value           nonuniform List<scalar> 
31
(
8.331198464e+19
5.20699904e+19
7.289798656e+19
1.24967977e+20
7.289798656e+19
7.289798656e+19
1.145539789e+20
1.145539789e+20
1.041399808e+20
1.457959731e+20
4.165599232e+19
7.289798656e+19
1.041399808e+20
5.20699904e+19
1.041399808e+20
8.331198464e+19
1.770379674e+20
6.248398848e+19
1.978659635e+20
2.082799616e+19
9.669987032e+19
2.055875875e+20
7.628215471e+19
1.097560723e+20
1.105489288e+20
1.113533235e+20
1.045092877e+20
5.26139522e+19
8.476517826e+19
7.468664028e+19
7.468664028e+19
)
;
    }
    procBoundary2to3
    {
        type            processor;
        value           nonuniform List<scalar> 
19
(
1.233864613e+20
1.233864613e+20
1.009525599e+20
6.730170614e+19
1.906881674e+20
1.12169511e+20
1.233864621e+20
1.009525592e+20
3.365085331e+19
1.233864613e+20
7.851865717e+19
1.346034132e+20
1.121695102e+20
8.973560819e+19
1.346034142e+20
1.009525592e+20
1.346034123e+20
1.12169511e+20
7.851865717e+19
)
;
    }
}


// ************************************************************************* //
