/*--------------------------------*- C++ -*----------------------------------*\
| =========                 |                                                 |
| \\      /  F ield         | OpenFOAM: The Open Source CFD Toolbox           |
|  \\    /   O peration     | Version:  2406                                  |
|   \\  /    A nd           | Website:  www.openfoam.com                      |
|    \\/     M anipulation  |                                                 |
\*---------------------------------------------------------------------------*/
FoamFile
{
    version     2.0;
    format      ascii;
    arch        "LSB;label=32;scalar=64";
    class       volScalarField;
    location    "0.002";
    object      translationalT;
}
// * * * * * * * * * * * * * * * * * * * * * * * * * * * * * * * * * * * * * //

dimensions      [1 2 -2 0 0 0 0];

internalField   nonuniform List<scalar> 
546
(
284.3335894
299.7288015
296.1595294
297.4114282
295.3319079
296.0058541
297.8389095
301.4583926
303.1744522
301.2883014
301.3115017
302.7343449
304.5774889
300.5112623
298.244787
298.5991741
300.4451508
300.8902405
303.913364
305.1955185
292.3140898
308.1567132
299.3169628
299.5837718
300.4927209
301.7783876
303.9139549
302.9272873
303.3666755
303.6864047
303.5615014
302.0260589
300.4988476
300.904342
303.3450123
302.6871465
301.5528591
301.738544
299.6942361
299.6205773
288.326801
306.100875
293.6696023
297.3900798
302.7967542
302.1046607
298.3083113
298.9230245
297.0167422
297.0793011
295.89592
300.6381905
297.8037729
298.6483284
293.3493993
296.6342531
297.3726402
295.8945007
296.7014804
300.8705678
293.7095875
306.547079
303.3328879
300.0011208
292.6839222
295.5020977
297.1261794
297.2839459
298.3094146
299.3582152
298.3766528
295.913022
299.6848365
300.9312294
302.9082832
301.0265042
297.8119285
301.4729917
303.9578104
297.2191362
290.6622086
308.7023851
300.5393439
300.2538599
298.6404053
299.3978013
297.920822
295.8880929
297.8260499
295.5116029
298.7617535
297.8407446
299.3221384
297.925983
299.409653
302.066218
302.4128548
304.0138401
299.9922625
303.4814826
289.0221012
306.3508213
295.1152313
297.9352676
299.9477716
299.2213127
294.2533557
298.9711391
296.9552901
299.6073241
295.9537574
295.5771548
297.4306439
299.0326792
298.1119287
300.4300429
300.6206555
296.7968663
300.7974205
300.2118139
284.683318
297.1921514
294.2762197
294.013315
294.004453
297.222726
300.1977945
298.8792094
295.5699211
296.1198833
297.3535451
295.9974092
299.6703652
293.2143551
300.0681111
298.159812
301.5146282
300.0454605
299.8667186
300.6962965
292.6524038
310.9868711
303.7132746
304.8811566
301.7292114
299.5686142
300.568666
303.1821483
300.6258532
300.9821177
301.8984417
301.3073216
301.4275313
300.6390847
298.1321358
299.0502478
300.2230864
302.9924329
300.4653968
299.8605894
289.4446335
304.4345127
297.6062609
294.4530385
295.9640148
295.0794633
294.2230346
293.6459141
299.1353772
303.0982275
301.9616254
300.5352681
303.4507113
301.5703478
302.3923941
300.8961001
301.1759967
299.8972489
299.5455101
299.7517449
288.3615015
305.9321151
301.0542554
299.4660617
297.8222371
298.2163912
297.4965852
302.0656399
300.0541983
298.1167522
297.067316
294.9020769
294.4488253
296.8798999
301.1363497
299.9517065
298.1248106
297.5820851
295.3176548
296.6623567
291.6318811
307.8527921
298.394167
300.2151476
303.8360489
308.8333285
308.1991788
304.0666211
303.644579
299.7967398
299.5778664
302.3302656
302.2712739
297.2901649
296.1147778
297.3993844
300.4813811
298.3483819
300.8289425
300.4915316
291.9059699
309.7464565
300.010688
305.1606009
304.2815577
299.6042842
298.9588964
297.7756597
296.711524
295.769449
297.7697769
295.8596318
296.7297066
301.377408
301.9925806
297.790486
298.4143967
305.0887429
302.1243057
300.0123223
293.6296029
310.3734089
304.2569455
306.0556592
308.0261476
303.4660351
303.5739199
300.9377989
302.1740202
304.0145709
301.8565255
304.0081293
303.5801455
299.8613573
298.1244541
302.3470159
301.0737658
298.9787857
298.3324186
299.9133652
288.5637395
306.0786308
300.0245383
301.9129428
301.1817691
298.2699889
301.9544209
302.847415
299.5816872
303.8868648
303.348735
303.3870075
301.4550521
303.5640168
300.6016416
303.109733
302.2435618
300.8240424
299.6411073
298.6345286
294.7058288
312.1018065
301.3883619
299.9008313
299.4304017
303.1830124
310.1152371
310.3039184
310.7549638
306.5662524
304.3820794
301.4451553
302.575096
299.2181052
301.728032
300.9838368
301.7999838
306.6484989
304.8819211
302.7605122
292.5072539
306.6491924
302.7587032
310.3434739
309.3360524
305.5855404
298.1556634
296.290425
298.092547
304.7933076
306.5650988
306.1046639
304.6696814
307.0055652
304.1118053
300.3847458
300.8905766
296.559351
297.5759469
303.3624859
290.137892
306.4567394
295.1590866
295.2279358
296.4613905
296.6805375
299.993619
297.354534
294.0742057
297.1243969
299.5207877
302.6910248
300.8705184
299.5757532
299.587309
299.2691886
300.6993086
305.2668125
309.4351655
303.3289751
295.223665
307.5653965
300.5737777
296.583482
291.3522071
292.1125982
295.8849691
299.3740583
299.380036
296.2013099
293.9746956
292.4133429
295.0121175
299.945784
301.9081415
301.1227508
299.8930022
298.8266115
292.1610608
293.5709386
307.4803842
313.6692271
301.838612
306.7752408
307.8214543
316.9442475
300.0008717
306.2777164
303.08717
303.2023431
304.3166944
305.9123802
303.0750445
315.1906782
308.3825034
318.9029587
297.8820409
294.1101076
293.5942641
298.3451886
305.4267571
306.4387221
301.554917
303.2300851
301.1509713
307.0901614
305.8691537
305.0353045
299.4699218
294.9925178
294.0378816
301.3934658
298.5780776
302.5396284
301.9732444
302.1320242
294.2822256
297.7105555
297.0821358
299.5582817
300.574432
306.6297544
305.6398484
303.3534541
308.1816532
305.0813206
307.0820516
304.6528531
304.26997
301.103027
303.0670491
304.5003459
307.4379755
308.0090698
303.5976677
305.4347072
298.5019146
298.0735073
304.4368007
302.4395314
307.5797516
300.0388564
296.7082159
301.7450451
299.5043579
300.0099167
301.6885329
300.7819809
304.5505906
301.7856318
305.9615769
306.1756718
304.9714717
309.0545784
305.7159382
305.0866481
296.9988204
298.6634872
297.558761
301.0484904
303.2315537
304.1465087
303.3868578
304.2710763
306.8006091
304.3384508
299.3281653
301.8247733
303.708429
298.8732017
301.1190304
294.1289984
294.7911387
294.791296
296.8448455
298.4284006
298.2797005
297.2534094
299.0641596
302.1537962
294.7432353
299.8259964
300.098031
302.1159197
297.6330705
298.7664346
294.4803768
296.2042764
294.1663029
294.676405
298.4912349
297.404616
298.093973
295.0237306
295.6346895
299.0502211
300.0253522
303.9418304
302.6804187
303.0832173
301.7610347
300.1255601
301.2251929
301.7468495
303.8245722
305.2909599
304.2461487
303.1945703
307.0439057
306.830481
304.0282228
302.6548113
302.6778164
301.379161
295.6666309
292.5752478
294.0821021
295.9060621
293.3962167
298.2579801
301.9950459
298.5503056
295.6643279
297.9651035
298.5197105
300.5455407
306.5358803
303.8254006
305.9783789
302.503924
301.3893088
301.0345727
297.6179521
297.6597812
299.425487
300.3238493
300.3572206
304.7415637
304.5758327
305.0686733
305.1804485
297.9324131
303.8415119
300.7970144
300.1533966
300.1430205
303.1584422
301.9185875
299.6916108
299.8972426
302.1333038
302.3916443
305.643367
303.1891153
304.4205907
302.4384265
298.1777487
298.7149359
297.75736
300.1625464
302.5294777
298.8349327
295.6443009
297.0921737
297.4211083
301.5907247
)
;

boundaryField
{
    flow
    {
        type            calculated;
        value           nonuniform List<scalar> 
48
(
284.3335894
292.3140898
288.326801
293.7095875
290.6622086
289.0221012
284.683318
292.6524038
289.4446335
288.3615015
291.6318811
291.9059699
293.6296029
288.5637395
294.7058288
292.5072539
290.137892
295.223665
295.223665
307.5653965
300.5737777
296.583482
291.3522071
292.1125982
295.8849691
299.3740583
299.380036
296.2013099
293.9746956
292.4133429
295.0121175
299.945784
301.9081415
301.1227508
299.8930022
298.8266115
292.1610608
293.5709386
298.1777487
298.7149359
297.75736
300.1625464
302.5294777
298.8349327
295.6443009
297.0921737
297.4211083
301.5907247
)
;
    }
    obstacle
    {
        type            calculated;
        value           nonuniform List<scalar> 0();
    }
    frontAndBack
    {
        type            empty;
    }
    procBoundary2to0
    {
        type            processor;
        value           nonuniform List<scalar> 
31
(
292.4737139
311.6721206
302.5640089
299.9099154
300.8014899
299.3599877
293.8323164
297.848008
300.5969978
299.0059138
298.9925794
299.364257
296.2072939
300.1019677
299.7818576
296.3255501
296.3000819
298.6154796
299.3701262
303.1543304
310.8921992
315.776349
316.6387522
320.6355714
335.2145686
326.1145714
296.6885137
298.1651523
302.6085476
305.3479202
305.3479202
)
;
    }
    procBoundary2to3
    {
        type            processor;
        value           nonuniform List<scalar> 
19
(
330.8908446
323.3621446
314.3700572
309.3285139
312.3032103
309.2086647
306.3063874
305.9501103
296.0360262
299.4279798
295.0329186
301.3669534
304.0562719
292.4687724
305.3911425
304.1800719
301.9102023
300.5093385
301.8298251
)
;
    }
}


// ************************************************************************* //
