/*--------------------------------*- C++ -*----------------------------------*\
| =========                 |                                                 |
| \\      /  F ield         | OpenFOAM: The Open Source CFD Toolbox           |
|  \\    /   O peration     | Version:  2406                                  |
|   \\  /    A nd           | Website:  www.openfoam.com                      |
|    \\/     M anipulation  |                                                 |
\*---------------------------------------------------------------------------*/
FoamFile
{
    version     2.0;
    format      ascii;
    arch        "LSB;label=32;scalar=64";
    class       volVectorField;
    location    "0.002";
    object      UMean;
}
// * * * * * * * * * * * * * * * * * * * * * * * * * * * * * * * * * * * * * //

dimensions      [0 1 -1 0 0 0 0];

internalField   nonuniform List<vector> 
546
(
(1710.071409 -8.21123937 -0.02866759347)
(1744.79896 -7.042861656 -1.878971123)
(1735.134301 0.0825645438 -1.595641095)
(1731.45491 4.5526823 -3.041473519)
(1734.584041 -1.128917329 -0.8769057983)
(1733.756225 -6.086231135 2.385409498)
(1732.083883 -5.913979415 0.6844645581)
(1731.681802 -7.61121352 -1.032580464)
(1733.670784 -9.233623348 -1.136703609)
(1735.298299 -2.015713245 -3.50201639)
(1735.900723 -2.494446158 -5.12993584)
(1739.257092 3.096913235 1.362613342)
(1741.874975 4.333159813 2.366572119)
(1738.018277 7.215551203 3.793538793)
(1735.828349 7.056638699 7.316563561)
(1732.611984 4.219712301 4.157696523)
(1732.212457 2.174117868 0.5905282522)
(1734.405594 -0.05862326681 -0.06049305455)
(1739.511814 1.512333759 1.895205844)
(1738.218639 2.403871231 -0.6660011341)
(1703.567218 0.6277845344 4.609279854)
(1742.574657 0.222713368 5.276634172)
(1735.559709 1.906905007 5.972266226)
(1734.848567 -4.852598629 4.541776609)
(1733.637201 0.6413755976 3.104469942)
(1728.116248 -0.07639677645 -0.9034579916)
(1730.02767 -4.890977654 -0.2988119813)
(1731.307473 -3.674597533 0.08119061767)
(1734.965521 0.8635364529 -0.3488164335)
(1732.670998 2.081733432 0.5509812915)
(1734.137842 2.362678515 -2.053083552)
(1733.881245 0.3591297889 -3.633861348)
(1731.001853 -3.13198796 -8.590834047)
(1734.347155 -4.206869347 -7.732524954)
(1734.865313 -0.7016191554 -8.407467258)
(1738.314623 4.777644549 -3.625326231)
(1736.91059 2.09055477 -4.891984245)
(1731.117009 5.635877866 -0.6511536692)
(1728.173725 1.14425119 3.225248429)
(1728.292571 0.450247245 6.609503587)
(1708.190422 0.330499646 -6.367121387)
(1744.863004 0.1364956988 -8.865783305)
(1743.568539 -1.885619246 -6.542402851)
(1738.419349 -6.196670025 -6.571359059)
(1740.543999 -4.431078566 -3.843167585)
(1743.76381 -4.428538774 -5.073929252)
(1741.091627 2.356978784 -5.778069862)
(1738.628985 3.683624823 -4.273955177)
(1738.9753 2.268424634 -5.592271387)
(1738.663583 -3.041423147 -5.746206637)
(1736.042762 1.941575533 -7.612417978)
(1732.230896 1.188385021 -6.530096702)
(1729.243706 1.959012299 -3.796244705)
(1731.825851 -0.8913441605 -0.5747925349)
(1729.904425 0.7661165211 -3.149712931)
(1731.593438 -2.416163202 -2.459464302)
(1730.877885 -1.038978581 -1.375677325)
(1732.018518 0.5830797219 -4.194139425)
(1735.413772 1.608901035 -5.281969792)
(1735.027543 -1.515560492 -8.559620913)
(1711.409335 -2.646538757 -4.57449112)
(1750.496937 -8.437275348 -1.525039021)
(1736.136829 -7.3270867 -3.199279134)
(1739.842301 -5.654692156 -2.153587099)
(1740.177364 -7.180526485 -1.983853648)
(1740.441496 -3.564979854 1.578894896)
(1739.892601 -6.687607491 1.302936223)
(1739.752577 -2.048210598 -0.3161659804)
(1737.723322 0.7025609692 -3.235093454)
(1737.179683 4.773806156 -1.472656943)
(1740.506475 -2.551519399 -2.683199496)
(1744.894978 -0.0951093591 -0.7649736632)
(1746.136878 2.744461063 -6.186694927)
(1745.4238 4.670791769 -2.392093803)
(1742.292547 2.405051744 -0.2280842508)
(1744.535138 -1.264781091 -3.641292594)
(1742.289489 0.4157042887 -0.06053953186)
(1735.589077 -2.953609291 2.401541376)
(1733.888225 -5.554421618 2.157598265)
(1735.054744 -1.413739925 6.529245705)
(1711.965883 -7.845342512 -3.294553127)
(1744.597615 -0.1595436106 -3.232144211)
(1735.895738 1.834991772 -2.605408823)
(1730.973078 1.679525972 -1.550863323)
(1736.660147 0.7185451629 0.02936492795)
(1737.322521 0.8157134996 -3.072253398)
(1733.892043 2.286656915 1.329470944)
(1738.540454 -2.478513266 6.869549212)
(1737.466034 -6.806952805 7.438724704)
(1737.369986 -6.350449136 8.845294961)
(1737.379876 2.777723408 8.089939233)
(1736.056825 -0.8790603483 6.350677234)
(1735.431005 -0.3544688985 8.459265503)
(1732.743151 -5.393093906 7.938403493)
(1733.682799 -4.479512209 6.257575213)
(1732.645038 -1.258417914 5.943448533)
(1732.270349 -1.974014324 6.450764141)
(1736.545358 -2.728471468 3.087452373)
(1737.011417 -2.252158501 2.575776413)
(1734.847985 -0.5187060527 -0.05236872663)
(1707.919426 3.210795614 -0.3579031088)
(1744.558024 2.589269821 2.683154509)
(1736.818126 1.662349009 3.640778645)
(1736.484529 7.728073874 3.087408629)
(1734.344432 5.449623117 5.916685549)
(1734.892581 -0.2793901427 5.353234586)
(1736.200078 -1.638689971 0.4546840105)
(1734.487192 -6.206371168 -5.685873548)
(1733.603395 -2.221514493 -0.1121363323)
(1731.151076 -4.379768301 -2.026903525)
(1734.004743 -12.48352081 0.08325090996)
(1733.681338 -10.45032253 -0.8476004973)
(1733.134396 -5.972126198 -0.9143241451)
(1738.96825 -2.282421882 -2.188867317)
(1738.249224 -3.126401299 -1.899151531)
(1735.914118 -2.83109935 -4.163057281)
(1738.514138 -0.7675858017 -6.639671766)
(1740.173196 -1.389122125 -6.375908654)
(1737.623949 1.924566034 -5.577611136)
(1743.271761 2.233534624 -2.318160186)
(1706.023512 0.8674655211 -2.828297243)
(1743.246666 0.4430840939 -0.1599812402)
(1735.348249 -3.082500915 -0.6851590996)
(1740.211163 -5.109077057 -2.166484209)
(1738.426998 -7.15725067 -3.501218412)
(1736.586295 -2.762077311 -5.70057537)
(1738.03091 0.5577958868 0.1431747843)
(1737.049152 0.6936042912 2.537906401)
(1742.29121 1.416956698 -0.02509301899)
(1737.333758 -2.492303117 -0.3184523026)
(1741.071247 3.853991494 0.8342130261)
(1738.572893 4.776789165 1.695177521)
(1739.503039 -2.08891026 -0.0278397268)
(1744.547575 -6.195770722 -1.758127365)
(1738.135959 -1.238092881 -2.350715954)
(1739.100174 0.8082225861 -1.405990129)
(1736.727348 -0.4016462697 -0.5610406979)
(1734.706031 -7.308167527 2.713689731)
(1736.788298 -7.97944495 1.107809856)
(1737.289212 -8.876185619 -1.769619271)
(1709.042655 -2.604916594 2.039051872)
(1743.451019 -3.768808475 -3.314834377)
(1731.69226 -5.512339358 -6.372748132)
(1726.741102 -4.852950525 -4.39454877)
(1730.022873 -4.468390279 -1.587608635)
(1732.646479 -2.003276206 -4.047415464)
(1732.195979 -2.943455405 -6.451845399)
(1732.96081 -0.6649366068 -3.704867419)
(1733.382668 -0.5016132107 -6.40537675)
(1737.722992 4.295349355 -6.965524865)
(1735.703083 1.996816275 -6.576622873)
(1733.834376 -1.292745 -8.310755664)
(1732.418595 0.9338331454 -9.462675914)
(1727.971036 0.8466461832 -5.958116102)
(1730.257184 -2.764875632 -6.760218505)
(1731.142229 -5.698045295 -6.006724324)
(1734.404743 -3.856348271 -7.428094817)
(1736.063408 1.87984813 -8.417806957)
(1729.836109 -1.397438602 -11.33635108)
(1732.562785 -1.448193684 -9.956665779)
(1698.54686 -1.554866451 -7.76881375)
(1737.055279 -1.75722428 -5.85241533)
(1730.138376 -5.259383793 -4.514790352)
(1733.110629 -3.882771843 -8.981769065)
(1732.109725 -0.7544658183 -7.963889989)
(1734.158014 -1.427565112 -2.302337979)
(1734.155084 -0.6909154258 -0.4636909783)
(1735.654176 -0.7124672772 -1.895510417)
(1735.267295 -2.221674843 -1.582248884)
(1731.123794 -5.784102485 -2.938308933)
(1730.974133 -3.897657729 -4.838019893)
(1730.859372 -2.412655698 -1.592008086)
(1730.666102 4.816446168 3.863339558)
(1734.465016 1.178318952 3.988486663)
(1734.854197 -2.265468554 1.933833934)
(1732.262667 -2.178801701 2.643305367)
(1727.97199 -2.849736293 1.804494783)
(1731.860576 -7.95378004 -0.8372655024)
(1734.585103 -2.575244255 3.176703559)
(1735.449319 -6.081405457 1.827321891)
(1713.040567 -1.200073279 0.01839716797)
(1748.672371 2.281505843 3.478213858)
(1736.336971 5.9168925 5.736846562)
(1739.555859 2.046190783 7.885380868)
(1740.511262 0.6176026653 4.910983772)
(1737.707499 0.3917047098 4.702876999)
(1738.355988 -2.843718652 2.378956147)
(1734.158794 -4.325118907 -1.982670842)
(1736.304964 -5.550718748 -2.127271935)
(1737.444779 -2.570236537 -2.310140979)
(1735.594285 -3.827145224 -1.436938789)
(1737.475937 -3.561829434 -6.8661662)
(1737.800693 -7.579706829 -7.558455517)
(1735.340956 -4.781874131 -8.600465914)
(1736.277601 -1.26546588 -7.228758018)
(1736.031136 2.509499635 -6.342140285)
(1735.726816 5.935135231 -6.075113134)
(1732.465419 6.785913753 -0.6832622506)
(1729.706353 2.059707451 -3.567811701)
(1730.518405 -0.8869491611 -1.327618737)
(1708.961403 3.852943401 1.270652874)
(1747.814968 1.906861653 -0.5752821978)
(1745.131685 0.7589372334 0.2225220752)
(1741.236857 -1.79245347 -2.269186418)
(1740.688843 0.4404370281 -1.189575517)
(1739.242709 -4.034053137 -0.4265692219)
(1739.547191 -0.5782214949 -0.7925260238)
(1746.01824 -0.7362417615 0.3098041508)
(1744.785248 -0.5579013363 1.524086056)
(1741.207798 0.8889772622 1.92986781)
(1741.281419 -0.5093591286 5.38688689)
(1739.118923 0.4834267169 7.178958224)
(1735.967061 -0.2531946125 5.919265027)
(1736.039234 0.02285140893 3.04444046)
(1734.985118 1.480301006 1.327410028)
(1732.201842 -3.084160065 2.726096884)
(1735.601735 -3.197710758 3.067325207)
(1737.953397 -4.793001063 -2.446441277)
(1743.323484 3.678130696 1.438035468)
(1741.934884 0.8968622096 4.608025367)
(1707.706919 -0.1952841867 6.496490435)
(1743.351252 0.8069456076 6.159248041)
(1731.323225 -1.663770238 4.347027714)
(1733.474382 2.000943034 7.124501301)
(1736.537088 -2.447951457 3.847505257)
(1732.586735 -4.974472929 2.072540519)
(1734.034323 -4.841368251 2.338067863)
(1734.693797 -1.310900598 3.034120353)
(1738.900175 0.07401523581 5.522607944)
(1740.994051 0.9327541325 2.598736608)
(1743.133231 1.90247075 -0.7445667168)
(1744.183706 1.813400145 3.373904276)
(1749.285661 -1.732208083 6.070753699)
(1750.26008 -1.360474918 11.10588681)
(1746.014437 0.1600035117 13.19891778)
(1745.310353 -0.903420697 11.54838644)
(1738.303129 -1.419397296 10.50284112)
(1736.319473 1.773265534 10.37639199)
(1733.817749 -2.420661081 10.05135053)
(1732.988912 1.240772503 2.598785571)
(1715.787141 0.2492191255 -3.867682759)
(1752.419363 -3.56366142 -7.038832091)
(1738.998814 -4.051392862 -4.673786328)
(1736.913338 -2.344202914 -6.179916003)
(1736.656233 1.158421154 -4.11594387)
(1741.923038 4.27006083 -1.555393187)
(1741.794451 0.3710462594 -0.4576867784)
(1742.175352 1.62552746 0.6136856197)
(1738.564114 3.267040487 2.076914971)
(1737.02304 -3.25183829 6.001419797)
(1735.099102 -0.3782968535 6.112077696)
(1737.930243 -2.893515796 9.061592834)
(1740.01803 -1.205645665 5.831445827)
(1738.873592 -0.7171806869 0.09444415935)
(1741.263927 2.67037488 -1.956738467)
(1741.6181 2.844383171 -4.575530739)
(1743.476297 1.062015498 -4.13011686)
(1743.507289 -1.458957165 -3.035832851)
(1745.668233 1.034771531 -3.552943531)
(1744.952201 1.328699684 -3.737046436)
(1704.620071 2.152665513 -6.923196461)
(1745.036473 0.5574508445 -5.102358721)
(1734.491382 3.774694458 -0.7702071005)
(1734.345022 1.194305952 -1.35111682)
(1734.202944 0.1221148362 1.022377899)
(1723.927735 1.207391983 2.006227814)
(1727.328988 3.913025432 3.608413738)
(1725.961775 5.025568809 0.5587480857)
(1732.478744 -0.1081514942 -2.326913032)
(1732.217313 1.462772812 -2.947959693)
(1731.906546 0.3157181944 -6.862643886)
(1729.717287 -0.4880985579 -8.699580858)
(1731.310962 0.7853466105 -7.572396938)
(1729.330217 0.5052917897 -7.252272422)
(1727.669935 1.079562332 -6.888458588)
(1729.907008 0.0634706515 -4.892374119)
(1733.90194 -0.5096119492 -2.685116082)
(1735.423659 0.3488507082 -2.138245341)
(1734.002027 -0.6907152963 -0.7324549099)
(1731.957671 -1.958825387 -0.08060853243)
(1699.021287 1.894197046 -5.488071052)
(1735.690463 2.958926602 -3.884574736)
(1729.258724 2.621075962 -5.0054373)
(1731.316393 4.602771616 -3.886011929)
(1735.356876 4.480715516 -4.034629208)
(1733.673093 8.345277594 -3.874547415)
(1732.525243 1.924296528 -1.792483627)
(1729.391605 1.836176795 -4.368039208)
(1728.601376 0.2093125031 -4.870847292)
(1726.384843 0.965608202 -3.843252653)
(1727.268716 3.965913737 -2.237508479)
(1725.776144 1.619192703 -1.839869522)
(1723.667317 -2.160597365 0.8966499095)
(1727.32099 -1.974174408 -0.4924425258)
(1725.569902 -5.936944338 -1.856565953)
(1724.014974 -6.475298488 -3.060526842)
(1726.718447 -8.420137158 -1.277909697)
(1725.496882 -9.161430316 -1.103373887)
(1726.158788 -3.963525666 -1.354351508)
(1731.841057 -2.424509898 1.464871505)
(1708.91459 5.650197186 -0.4977255565)
(1746.572118 7.490622664 -5.598429048)
(1739.515029 8.154019813 -4.284443115)
(1738.822452 6.181042784 -5.950719976)
(1735.132929 3.754591558 -7.38550183)
(1739.157556 -0.1419780224 -10.99243454)
(1738.446275 5.136128777 -6.243421133)
(1742.180171 8.743195751 -3.967092427)
(1742.634531 4.942606724 -4.097375245)
(1738.095309 1.053383704 -2.354431518)
(1741.216617 -1.35930101 -0.1621653884)
(1742.062692 -2.389360822 -1.345124708)
(1741.355322 -1.806622256 -3.782796117)
(1735.42514 -1.211305268 -2.610619433)
(1736.826388 -1.600068987 -0.1847283987)
(1739.886889 -2.990724254 -0.7958113031)
(1736.489385 0.2903617796 -0.4712612335)
(1740.506895 -0.9567746772 -0.4918635267)
(1738.48979 0.1900991331 -2.776658609)
(1734.985097 -2.717057047 -0.4580910635)
(1706.694562 -1.637203279 -1.213927605)
(1746.537486 -3.211952291 -1.164711747)
(1737.415403 -4.21088926 -1.750696373)
(1740.035308 -4.723275406 0.3050705475)
(1740.175229 -0.6746043988 1.046660103)
(1738.481806 0.9185858951 -1.004003052)
(1737.594685 -0.1098472886 -0.1838974543)
(1740.880875 0.1614556691 -1.936424112)
(1736.680185 2.436163551 0.6824401038)
(1738.440023 3.740301807 -1.271429696)
(1735.866799 4.039456295 -2.156237555)
(1739.379062 4.935569622 -0.5890983245)
(1738.094528 8.253245764 1.495417395)
(1739.219972 7.555847167 1.210261152)
(1743.550458 4.704988322 -0.6560013379)
(1741.300535 6.539476572 -1.497755389)
(1742.883567 8.916645907 -5.488461299)
(1739.885383 3.188076447 0.7952912948)
(1738.54751 -1.550888934 -3.874868138)
(1744.689486 -2.397321159 -2.407114412)
(1713.014906 3.158094869 0.9267764542)
(1747.961488 0.340839732 -1.421291988)
(1733.18715 -0.2795235203 3.998370281)
(1729.902297 1.330296091 5.156418144)
(1732.996991 1.82326522 4.001853767)
(1733.914474 6.107693899 6.650997251)
(1726.643496 4.189858915 2.833954564)
(1729.667888 3.150690081 4.650553638)
(1730.335834 3.460055683 2.955606886)
(1735.081274 7.502139678 0.4027297567)
(1732.935841 12.46858972 -2.505317632)
(1732.977026 15.76534762 -0.2745407033)
(1735.124262 8.448906093 -4.067022441)
(1736.351761 12.97566917 -1.857863487)
(1735.51705 17.50975676 -0.7080110626)
(1737.057281 12.42614184 -1.466253738)
(1737.794973 6.700602085 -2.19258144)
(1733.975253 8.861448496 -2.709759186)
(1737.287872 9.324956183 -2.394278334)
(1738.827814 9.472658642 -0.833175931)
(1732.754113 8.840217687 -2.093555975)
(1730.969216 6.651366957 -0.890651998)
(1732.206997 4.10265755 0.8956980676)
(1731.813548 4.939922985 -1.678864368)
(1728.349632 8.3309178 -4.786661957)
(1724.109084 13.96394773 -9.8029623)
(1738.00166 -1.458290311 -0.2120409207)
(1739.368017 -1.301812539 4.58452701)
(1738.518098 -5.227560912 3.325704915)
(1731.979244 -5.186233123 0.273258372)
(1728.02227 -6.077084378 -0.8705600751)
(1725.150557 3.145496306 3.00413598)
(1727.682121 3.720983141 -1.884012188)
(1726.488439 11.16575462 -2.369951155)
(1727.067896 9.23239894 -5.444436357)
(1727.196282 12.17484292 -3.566091933)
(1730.504913 -3.016130853 6.219826812)
(1730.749882 -3.436142767 2.15801382)
(1727.990917 -3.573780647 4.296758335)
(1727.983318 1.17814249 6.503211507)
(1727.558824 1.301006194 5.345126453)
(1729.425798 -0.01470076862 1.715571208)
(1734.390007 3.366245577 0.4025158025)
(1733.423345 0.7664277152 4.854553819)
(1737.633043 4.318943385 5.474996813)
(1736.848433 7.650008852 4.616633437)
(1728.019088 1.277244752 -6.208058936)
(1731.127134 5.443583423 -7.192974996)
(1734.31089 2.007225248 -7.452015138)
(1738.883628 -2.179984196 -6.265253189)
(1740.726363 -1.350233091 -8.384113262)
(1740.000378 3.256211182 -6.643652429)
(1740.670602 5.019601609 -4.43103846)
(1738.771987 0.4929965872 -6.470203424)
(1736.729636 0.03629437649 -6.885687069)
(1732.431314 -3.913013547 -5.441606965)
(1738.375237 -1.699990933 1.452611102)
(1738.448476 1.428305045 -0.2151249072)
(1738.415682 4.980377645 2.687692132)
(1740.458918 8.085979433 1.813945044)
(1735.782902 5.590970795 3.598145343)
(1728.232553 2.773297146 3.405672322)
(1728.278895 -4.432160241 5.804683274)
(1729.339442 -7.032873682 5.997273849)
(1732.824254 -6.144231186 2.288754573)
(1732.579706 -6.965534231 0.2712648858)
(1733.451832 0.07331689332 5.616453795)
(1734.390384 0.7323490048 1.565128812)
(1733.918903 -2.21809395 0.8340339143)
(1736.259789 -7.118660644 2.344866859)
(1740.09817 -3.832179046 0.1928044435)
(1734.80449 -0.9874868146 0.8060794151)
(1733.371516 0.1124479364 -0.2418114537)
(1734.799756 2.019800849 -1.792129021)
(1735.44106 -2.247819376 -0.9076992547)
(1735.432141 3.357216113 -1.602567332)
(1745.014528 -0.5738702819 -2.722523664)
(1739.594152 -0.5230577359 -1.966051928)
(1740.580213 -1.454138976 -4.468593025)
(1738.535958 0.2235468474 -3.466558601)
(1735.499862 -4.800836673 -2.967668932)
(1742.055734 -8.74376784 -3.483562828)
(1743.818157 -7.674690748 -5.008581968)
(1740.952979 -3.310058645 -5.887778004)
(1742.089863 -0.2241646249 -7.161688097)
(1737.989473 -0.2908961295 -9.456547335)
(1734.336165 -6.514043273 1.075418317)
(1737.054813 -3.804159139 -1.862545737)
(1736.822999 -5.254437377 -2.161054221)
(1732.96828 -1.654456403 -7.232891127)
(1735.586349 2.025054489 -15.30786347)
(1734.528843 2.826971856 -15.50142639)
(1736.514813 1.559399897 -14.21304436)
(1735.647223 -1.314142722 -9.321994013)
(1733.538213 -1.859292119 -5.868331927)
(1734.851618 -1.45982381 -1.809182935)
(1732.843278 -0.8137328734 -11.25121305)
(1733.349963 -3.584937929 -12.14973543)
(1733.673605 0.4670215876 -6.502502233)
(1737.343756 -4.681563126 -0.1476086762)
(1735.809268 -3.81741413 3.000177988)
(1732.790346 0.9005950433 3.556220645)
(1733.709024 -1.329377743 1.049721318)
(1731.269986 5.062441399 1.566717361)
(1734.359269 3.799460656 -2.577476974)
(1733.992 -5.570172381 -3.478730347)
(1732.797871 -3.343172555 0.2368695024)
(1724.533792 -0.7266813954 1.180696907)
(1729.92797 -0.9926528118 -0.8713623734)
(1727.736153 1.82593002 -2.249778185)
(1725.4543 -0.5591855304 -0.6366629799)
(1730.120773 -4.294731061 -1.497233052)
(1724.309962 -6.249524966 0.1172205066)
(1727.35959 -5.056909111 -1.092458827)
(1727.039197 -3.414072533 -0.2905729187)
(1725.598972 1.421362913 -3.349992883)
(1735.756875 0.3227632039 -1.127200955)
(1736.362831 0.02624533621 -1.689272739)
(1734.75139 0.9763672089 0.9913980252)
(1728.127955 1.511199698 4.867630052)
(1728.836631 5.655832575 1.265112736)
(1730.32485 2.331651341 3.757147528)
(1730.424567 2.429543591 3.406812838)
(1736.622592 4.075748427 4.209824269)
(1736.808419 7.388230246 3.381771883)
(1738.577039 2.82663809 7.491605038)
(1742.317315 -0.5695380543 5.438074756)
(1743.124599 -1.520714106 6.156234801)
(1741.496303 -0.9314040819 5.640532162)
(1745.816568 0.08122405648 6.918304046)
(1747.511298 -1.796152356 6.688761676)
(1745.261588 0.3834304409 4.077030784)
(1742.899288 5.58395196 -1.289944551)
(1744.130211 8.419365552 1.445821207)
(1739.36735 5.72404463 -1.053475856)
(1737.043035 9.4378247 -3.214734112)
(1734.033267 3.794431576 4.576084441)
(1735.064856 3.058509012 2.077082137)
(1734.783489 2.007879269 -0.07780911172)
(1735.905456 1.037165446 -3.480155653)
(1737.335732 2.191261002 0.6015155315)
(1741.144304 -0.4947457601 3.518968819)
(1740.907368 -2.786571166 6.184881954)
(1741.361261 -4.757658154 0.9208787018)
(1739.625441 -10.42457596 -0.4449982497)
(1740.157609 -3.706733736 -1.034069953)
(1742.929646 1.280268784 -7.760916868)
(1737.909537 0.5740261637 -5.870991324)
(1741.003965 1.699639796 -4.118992996)
(1733.772841 1.927492222 -2.823269025)
(1736.340165 -5.499606523 -6.074861949)
(1732.370474 -4.622964094 -3.184559267)
(1730.980233 -2.689424126 -6.424496014)
(1734.336878 -4.766254814 -4.237036568)
(1735.170597 -2.962802909 0.3791012473)
(1733.915324 -8.51590501 6.896549349)
(1735.436892 -5.404977272 -1.588553463)
(1733.900928 -3.810985995 -1.895976745)
(1735.279999 -5.388405925 -2.000461443)
(1733.916789 -2.767890963 -1.343713807)
(1735.293491 3.160752785 -2.488899507)
(1734.713086 1.358084263 -1.688015269)
(1733.133825 2.449577352 0.8412113032)
(1731.879099 2.897443056 -0.3265303172)
(1732.377936 5.488066144 1.590894269)
(1736.67303 4.100341716 -2.976771871)
(1733.778307 -0.2164441941 3.374996876)
(1732.09002 1.794203993 2.640780311)
(1731.653629 0.3089518053 5.39659163)
(1732.202648 0.1089586267 4.999484784)
(1733.627022 0.03457690381 6.525465572)
(1736.520927 -3.139954574 3.24027941)
(1740.403679 0.9473501527 -0.5484018363)
(1740.953043 7.47996108 -5.498573104)
(1736.536166 7.288439574 -6.221024087)
(1733.726159 9.247256232 -6.254346022)
(1730.951806 -0.3870231125 -2.066577864)
(1732.515218 -2.945550833 2.065991556)
(1733.43508 -0.3994039879 -3.978871664)
(1733.302586 -1.035773748 -3.346176001)
(1738.7746 4.322702632 -3.520484131)
(1735.652943 3.463384543 0.8372415796)
(1731.671171 0.8583498285 -1.046627093)
(1731.547694 -5.447510127 -3.167828585)
(1735.372999 -6.842393638 -3.435419667)
(1730.818312 -7.537508261 -1.718247526)
(1740.30094 -2.175411153 -3.398607078)
(1736.770508 -1.099914677 -8.307904018)
(1739.191675 -6.243454561 -5.766764145)
(1737.625889 -3.505746749 -4.573113896)
(1733.541876 -1.17743968 -7.269309771)
(1731.77587 -2.744636481 -10.06133604)
(1734.368942 -0.2616190579 -5.560778477)
(1732.500639 -5.383861294 1.172189187)
(1732.493628 -5.003325857 1.556668318)
(1733.520362 -2.345056847 1.297961923)
(1737.366984 8.316601883 0.4652730736)
(1739.910201 8.435397394 -2.095695903)
(1741.3307 5.803213968 -0.5898951421)
(1743.035061 5.894676468 1.559322894)
(1746.41229 -1.116184588 -2.211878286)
(1745.152643 -0.9141871016 1.202204291)
(1746.348532 -0.05234791591 2.33967673)
(1747.338473 2.717897781 -2.109454063)
(1743.407652 4.850764494 -1.404458136)
(1747.800568 0.06519502343 0.9748400064)
)
;

boundaryField
{
    flow
    {
        type            calculated;
        value           nonuniform List<vector> 
48
(
(1710.071409 -8.21123937 -0.02866759347)
(1703.567218 0.6277845344 4.609279854)
(1708.190422 0.330499646 -6.367121387)
(1711.409335 -2.646538757 -4.57449112)
(1711.965883 -7.845342512 -3.294553127)
(1707.919426 3.210795614 -0.3579031088)
(1706.023512 0.8674655211 -2.828297243)
(1709.042655 -2.604916594 2.039051872)
(1698.54686 -1.554866451 -7.76881375)
(1713.040567 -1.200073279 0.01839716797)
(1708.961403 3.852943401 1.270652874)
(1707.706919 -0.1952841867 6.496490435)
(1715.787141 0.2492191255 -3.867682759)
(1704.620071 2.152665513 -6.923196461)
(1699.021287 1.894197046 -5.488071052)
(1708.91459 5.650197186 -0.4977255565)
(1706.694562 -1.637203279 -1.213927605)
(1713.014906 3.158094869 0.9267764542)
(1713.014906 3.158094869 0.9267764542)
(1747.961488 0.340839732 -1.421291988)
(1733.18715 -0.2795235203 3.998370281)
(1729.902297 1.330296091 5.156418144)
(1732.996991 1.82326522 4.001853767)
(1733.914474 6.107693899 6.650997251)
(1726.643496 4.189858915 2.833954564)
(1729.667888 3.150690081 4.650553638)
(1730.335834 3.460055683 2.955606886)
(1735.081274 7.502139678 0.4027297567)
(1732.935841 12.46858972 -2.505317632)
(1732.977026 15.76534762 -0.2745407033)
(1735.124262 8.448906093 -4.067022441)
(1736.351761 12.97566917 -1.857863487)
(1735.51705 17.50975676 -0.7080110626)
(1737.057281 12.42614184 -1.466253738)
(1737.794973 6.700602085 -2.19258144)
(1733.975253 8.861448496 -2.709759186)
(1737.287872 9.324956183 -2.394278334)
(1738.827814 9.472658642 -0.833175931)
(1737.366984 8.316601883 0.4652730736)
(1739.910201 8.435397394 -2.095695903)
(1741.3307 5.803213968 -0.5898951421)
(1743.035061 5.894676468 1.559322894)
(1746.41229 -1.116184588 -2.211878286)
(1745.152643 -0.9141871016 1.202204291)
(1746.348532 -0.05234791591 2.33967673)
(1747.338473 2.717897781 -2.109454063)
(1743.407652 4.850764494 -1.404458136)
(1747.800568 0.06519502343 0.9748400064)
)
;
    }
    obstacle
    {
        type            calculated;
        value           nonuniform List<vector> 0();
    }
    frontAndBack
    {
        type            empty;
    }
    procBoundary2to0
    {
        type            processor;
        value           nonuniform List<vector> 
31
(
(1711.134289 2.315566377 5.486997009)
(1748.221273 1.371640007 5.866255359)
(1738.704829 -11.0211514 4.759770193)
(1741.88184 -8.223709986 3.915035212)
(1739.786435 -5.387905981 4.423870118)
(1739.657782 1.396019497 1.4105532)
(1738.276755 3.750319804 2.614767678)
(1741.591942 6.021480686 2.578963639)
(1733.71952 3.505226601 0.3794619798)
(1732.134495 -3.45429955 2.74131752)
(1732.833508 -0.07732368864 5.396200366)
(1728.94146 -5.580566065 2.062629844)
(1732.583775 -2.398636236 4.970186168)
(1734.175125 -3.462973548 0.05583003077)
(1734.866298 -7.852571774 -3.039734743)
(1737.684682 -5.723988771 -4.989252682)
(1737.849276 -3.440180309 -1.808277722)
(1735.644163 1.924012485 -4.035825341)
(1736.860934 5.234679587 -3.249548114)
(1734.482688 7.035572819 -4.964663618)
(1735.419056 7.913584857 0.4906067437)
(1730.906548 8.356248832 -2.742514794)
(1727.471565 7.109034003 0.2455766583)
(1721.557734 8.852906918 -4.027645876)
(1721.03947 14.15555295 0.920434127)
(1724.315566 13.11677791 8.440736202)
(1735.903638 3.803440082 -4.252430547)
(1731.803383 6.054025952 -1.852995176)
(1729.268593 10.54909138 -4.499953831)
(1731.322287 8.054303753 -5.325603645)
(1731.322287 8.054303753 -5.325603645)
)
;
    }
    procBoundary2to3
    {
        type            processor;
        value           nonuniform List<vector> 
19
(
(1720.732938 21.10048888 -10.3991868)
(1727.538813 12.66814546 -4.515939375)
(1737.47119 11.12951009 0.04019491286)
(1730.874093 -2.094044553 -4.982788763)
(1732.038394 -6.307036024 -2.761405268)
(1736.154937 3.922663599 3.532785822)
(1739.592042 -1.249414538 -10.01514463)
(1731.849475 -2.423852609 0.6268901243)
(1737.72175 0.5692611569 -6.173805616)
(1725.453785 5.142394572 -1.978172313)
(1737.918657 -0.9537357378 10.76896887)
(1736.044428 9.528417222 -7.156899247)
(1738.102445 -1.60360648 -0.9367296598)
(1733.68389 -4.310835966 8.584772262)
(1740.959435 2.335286667 -8.881002057)
(1732.002262 5.831788335 -8.242416938)
(1733.792108 -1.408741551 0.308539594)
(1735.819102 -2.643361506 3.437339468)
(1741.416226 -1.293864615 -3.760257799)
)
;
    }
}


// ************************************************************************* //
