/*--------------------------------*- C++ -*----------------------------------*\
| =========                 |                                                 |
| \\      /  F ield         | OpenFOAM: The Open Source CFD Toolbox           |
|  \\    /   O peration     | Version:  2406                                  |
|   \\  /    A nd           | Website:  www.openfoam.com                      |
|    \\/     M anipulation  |                                                 |
\*---------------------------------------------------------------------------*/
FoamFile
{
    version     2.0;
    format      ascii;
    arch        "LSB;label=32;scalar=64";
    class       Cloud<dsmcParcel>;
    location    "0.003/lagrangian/dsmc";
    object      coordinates;
}
// * * * * * * * * * * * * * * * * * * * * * * * * * * * * * * * * * * * * * //

9499
(
(0.8814692489 0.05483152861 0.004433846962 0.05926537557) 20 40 1
(0.1284335339 0.003472199215 0.4323110338 0.4357832331) 21 1077 1
(0.3237614745 0.1566746908 0.3381192628 0.181444572) 201 394 1
(0.08418600078 0.4579069996 0.2743354322 0.1835715674) 82 162 2
(0.6451654705 0.1774172648 0.09388035151 0.08353691325) 146 289 1
(0.3871114353 0.1828867116 0.3064442824 0.1235575708) 119 233 1
(0.1347984699 0.1824409295 0.2501598356 0.4326007651) 416 819 1
(0.09106955244 0.4544652238 0.3532393366 0.1012258872) 147 291 1
(0.3768054072 0.3115972964 0.05149904776 0.2600982486) 117 232 1
(0.3268082475 0.3365958763 0.116000868 0.2205950082) 268 526 2
(0.1730736765 0.3411601261 0.07230303567 0.4134631618) 27 1083 1
(0.2044148135 0.3977925933 0.3495772997 0.04821529359) 296 581 2
(0.08729748903 0.4563512555 0.1956261062 0.2607251493) 111 219 2
(0.4328096425 0.2835951787 0.0607015094 0.2228936693) 87 173 1
(0.2541038894 0.3191912524 0.05375680285 0.3729480553) 26 1082 1
(0.1315785173 0.09320534781 0.4342107413 0.3410053935) 416 817 1
(0.004796882001 0.2086117002 0.2889898588 0.497601559) 298 529 2
(0.7628017433 0.03019068598 0.1185991284 0.08840844237) 57 111 1
(0.4431382145 0.2679157414 0.01051515137 0.2784308928) 113 165 2
(0.488775563 0.2556122185 0.05339225364 0.2022199648) 82 160 2
(0.2116150858 0.1600811788 0.2341112783 0.3941924571) 170 335 1
(0.3050606524 0.07481547806 0.2726541957 0.3474696738) 329 589 2
(0.5866794475 0.1573172573 0.04934301899 0.2066602763) 144 226 2
(0.03520429296 0.05544367629 0.4269541772 0.4823978535) 168 273 2
(0.3646172117 0.2864317517 0.3176913942 0.0312596425) 25 51 2
(0.2757246345 0.3621376827 0.2620358057 0.100101877) 20 41 1
(0.470013181 0.2649934095 0.1734189744 0.09157443509) 148 234 1
(0.1828958936 0.4085520532 0.1862546701 0.2222973831) 17 34 2
(0.325471228 0.337264386 0.2815536781 0.05571070789) 28 57 1
(0.02062399536 0.05460774011 0.4896880023 0.4350802622) 52 104 2
(0.3330760542 0.07102554707 0.2624364258 0.3334619729) 148 292 1
(0.8734928187 0.06325359067 0.00307159114 0.06018199953) 25 48 2
(0.1691781595 0.1679811064 0.4154109203 0.2474298139) 145 284 1
(0.4092869698 0.04690274906 0.248453766 0.2953565151) 27 1083 1
(0.8604049283 0.04394421564 0.06979753583 0.02585332019) 207 409 2
(0.1417110539 0.4291444731 0.1335160815 0.2956283915) 111 217 2
(0.3114354788 0.09238027273 0.3442822606 0.2519019879) 203 398 1
(0.1683576266 0.4158211867 0.209910501 0.2059106857) 142 281 1
(0.02877643458 0.3066385656 0.4856117827 0.1789732171) 199 393 2
(0.3993525594 0.2361107231 0.0642129972 0.3003237203) 149 1045 1
(0.008773553059 0.4443557881 0.4956132235 0.05125743532) 28 54 1
(0.795880565 0.07216118339 0.1020597175 0.02989853412) 114 226 2
(0.5999824965 0.2000087517 0.0866667898 0.1133419619) 386 761 1
(0.7763692976 0.1118153512 0.08261861185 0.02919673933) 265 523 1
(0.5984778317 0.09732296638 0.1034381178 0.2007610842) 86 112 2
(0.08705617048 0.2498395589 0.4564719148 0.2066323558) 117 232 2
(0.21157248 0.3727768931 0.02143686687 0.39421376) 419 1054 1
(0.08446814592 0.3298064267 0.457765927 0.1279595003) 86 168 1
(0.4377075391 0.05898512292 0.2811462305 0.2221611075) 57 114 2
(0.1390931523 0.4304534239 0.09862829761 0.3318251263) 28 57 1
(0.2776494719 0.3611752641 0.2156360578 0.1455392063) 24 1080 2
(0.008012325383 0.1557483539 0.3402454834 0.4959938373) 22 1078 1
(0.4983115524 0.05452509605 0.1963191277 0.2508442238) 117 173 2
(0.2611041761 0.3694479119 0.07648261712 0.2929652948) 59 58 1
(0.4485565237 0.2757217382 0.08587722269 0.1898445155) 175 346 1
(0.1963441989 0.4018279005 0.1437695254 0.2580583752) 50 97 2
(0.2346984105 0.3826507948 0.1704723144 0.2121784804) 56 112 1
(0.02710958072 0.3737070048 0.4864452096 0.1127382048) 22 45 2
(0.06125735966 0.07837960956 0.4693713202 0.3909917106) 54 108 2
(0.2743509691 0.193870504 0.1689540115 0.3628245154) 76 150 1
(0.3192309501 0.340384525 0.2967852257 0.04359929927) 23 44 2
(0.8998653691 0.0311992419 0.05006731544 0.01886807354) 26 53 2
(0.6750302754 0.1624848623 0.111925413 0.05055944932) 25 50 2
(0.1180335573 0.4409832214 0.2587195507 0.1822636706) 43 86 1
(0.1158284513 0.4420857743 0.1463452795 0.2957404949) 56 53 1
(0.1058372642 0.4470813679 0.3764086525 0.07067271538) 117 173 1
(0.5399928235 0.2300035882 0.1641832543 0.06582033396) 173 342 1
(0.4929659258 0.2535170371 0.08620060703 0.1673164301) 29 1085 2
(0.2738124579 0.06495282982 0.2981409412 0.363093771) 56 53 2
(0.3525928283 0.3237035858 0.2921825611 0.03152102472) 176 345 2
(0.7401626831 0.1062012113 0.1299186584 0.02371744718) 148 290 1
(0.09143964359 0.4542801782 0.03521575216 0.419064426) 23 1079 2
(0.678599272 0.03541987223 0.1252804918 0.160700364) 77 152 1
(0.8216690495 0.08916547527 0.06577740663 0.02338806864) 204 400 2
(0.6630969199 0.1684515401 0.1121341269 0.05631741314) 118 233 2
(0.02025222701 0.4898738865 0.3219528385 0.167921048) 179 353 1
(0.7508751101 0.1245624449 0.07929031857 0.04527212636) 172 281 1
(0.09803983334 0.1509619548 0.3000181285 0.4509800833) 115 227 1
(0.447375509 0.2036384368 0.2763122455 0.07267380868) 27 52 1
(0.2387896367 0.3623194371 0.3806051817 0.0182857446) 89 174 1
(0.8250624587 0.08746877064 0.07179858877 0.01567018187) 298 529 1
(0.3067520361 0.194615699 0.3466239819 0.1520082829) 12 25 2
(0.106837275 0.4465813625 0.3392103861 0.1073709764) 50 41 1
(0.5523291515 0.2238354242 0.0330091305 0.1908262937) 22 42 2
(0.6788971462 0.0218322194 0.1605514269 0.1387192075) 231 453 1
(0.644458096 0.177770952 0.1487720279 0.02899892408) 80 159 1
(0.6161636143 0.1919181929 0.1793259449 0.01259224798) 24 48 2
(0.07680191543 0.4615990423 0.3668945688 0.09470447347) 136 266 2
(0.523636048 0.116901344 0.121280632 0.238181976) 88 116 2
(0.2387235681 0.2631485843 0.1174896316 0.3806382159) 80 100 2
(0.08846272231 0.238172389 0.4557686388 0.2175962499) 119 233 1
(0.4722061673 0.2638969163 0.06384570519 0.2000512112) 268 529 1
(0.9802760011 0.006279275398 0.009861999457 0.003582724059) 115 228 2
(0.345537782 0.327231109 0.17865584 0.148575269) 200 395 1
(0.6621682561 0.07471820951 0.09419766245 0.168915872) 57 55 2
(0.4714857791 0.2642571104 0.1145643522 0.1496927583) 56 112 1
(0.3157328328 0.3421335836 0.1922829349 0.1498506487) 232 457 2
(0.3406030143 0.2602143295 0.06948416336 0.3296984929) 25 50 1
(0.1044052998 0.4260110469 0.4477973501 0.02178630318) 417 819 1
(0.0795409769 0.1590373289 0.3011921827 0.4602295116) 147 290 1
(0.5466729439 0.1641189354 0.06254459261 0.226663528) 140 276 1
(0.06807803511 0.4659609824 0.4121842038 0.05377677868) 22 45 1
(0.2194081258 0.228347742 0.3902959371 0.1619481951) 441 869 2
(0.6636173708 0.1681913146 0.1654619085 0.002729406043) 265 522 2
(0.6439176263 0.1780411868 0.04212790188 0.135913285) 328 588 1
(0.2666729812 0.05728894647 0.3666635094 0.3093745629) 20 38 1
(0.4621063145 0.2689468428 0.06024963085 0.2086972119) 269 530 1
(0.1989815232 0.1425224711 0.4005092384 0.2579867674) 147 291 2
(0.3466509695 0.3266745152 0.1457454262 0.180929089) 20 40 2
(0.9195704804 0.04021475982 0.0293696 0.01084515982) 175 346 1
(0.4843649052 0.2578175474 0.05652025798 0.2012972894) 25 48 2
(0.1782462322 0.4108768839 0.209172749 0.2017041349) 130 198 1
(0.2614613568 0.1764922355 0.1927770861 0.3692693216) 112 163 2
(0.03007544492 0.4849622775 0.1818511894 0.3031110881) 208 410 2
(0.2265969578 0.3867015211 0.3069837192 0.07971780189) 444 875 1
(0.05836991968 0.4708150402 0.2052827228 0.2655323174) 74 146 2
(0.06286125311 0.4685693734 0.09218167585 0.3763876976) 57 114 1
(0.0173000969 0.4913499515 0.4653590103 0.02599094124) 143 280 2
(0.7665973068 0.1000349986 0.01666634805 0.1167013466) 15 1071 1
(0.3196567022 0.3401716489 0.154461941 0.1857097079) 325 640 2
(0.1605204298 0.4197397851 0.3514445811 0.068295204) 320 572 1
(0.1107554244 0.4446222878 0.4373781848 0.007244103008) 114 226 1
(0.07495408739 0.189607737 0.2729152193 0.4625229563) 17 1073 1
(0.3870721907 0.3064639047 0.3015538993 0.004910005398) 48 37 1
(0.3492674663 0.3126469398 0.01271932701 0.3253662668) 146 230 2
(0.3809884511 0.3095057745 0.1948243537 0.1146814207) 51 101 2
(0.1831336211 0.0694159025 0.4084331894 0.339017287) 233 460 2
(0.45554351 0.05092396187 0.2213042831 0.272228245) 52 103 1
(0.3962384514 0.3018807743 0.0216335235 0.2802472508) 179 353 1
(0.08420495427 0.4578975229 0.02020822454 0.4376892983) 29 1085 2
(0.7362696367 0.1318651817 0.08395698518 0.04790819647) 25 1081 2
(0.1679120238 0.3129383146 0.1031056735 0.4160439881) 173 283 2
(0.5154467736 0.01666881361 0.2422766132 0.2256077996) 385 759 2
(0.1210664871 0.4394667565 0.1318148105 0.307651946) 119 235 1
(0.6982170034 0.1041727893 0.1508914983 0.04671870905) 80 156 1
(0.6116808282 0.1941595859 0.08873439516 0.1054251907) 118 231 2
(0.4608849151 0.1272901012 0.2695575424 0.1422674412) 80 156 1
(0.1452409853 0.042865112 0.3845143953 0.4273795073) 358 705 1
(0.7502575155 0.1248712422 0.1222379987 0.002633243541) 57 114 1
(0.2765077795 0.3617461102 0.2019024838 0.1598436264) 49 98 1
(0.3323122188 0.3338438906 0.02814273146 0.3057011591) 147 290 2
(0.1645208076 0.4177395962 0.2461898269 0.1715497693) 229 451 2
(0.3176652808 0.2711780322 0.06998932738 0.3411673596) 229 393 2
(0.1221028307 0.4389485847 0.1439068119 0.2950417728) 23 1079 2
(0.4248758947 0.1343781138 0.1531839389 0.2875620527) 179 1046 1
(0.4916664754 0.1753337056 0.07883305666 0.2541667623) 28 56 1
(0.4857738563 0.1041563023 0.2571130718 0.1529567695) 143 283 2
(0.4904843859 0.2547578071 0.1054895344 0.1492682727) 141 279 1
(0.04126722882 0.1728975371 0.4793663856 0.3064688484) 140 277 2
(0.6886111733 0.1001045149 0.0555898984 0.1556944133) 201 396 1
(0.2613925928 0.3693037036 0.2717623618 0.09754134179) 142 280 2
(0.1234511846 0.4382744077 0.3235585773 0.1147158304) 86 171 1
(0.1049146418 0.09668287281 0.3508598063 0.4475426791) 22 1078 1
(0.7632628338 0.0312446837 0.08712389939 0.1183685831) 49 39 2
(0.2265565661 0.386721717 0.3653579643 0.02136375263) 119 176 1
(0.5709403653 0.2145298174 0.05512544284 0.1594043745) 267 526 2
(0.4262387953 0.2868806023 0.01897431109 0.2679062912) 58 116 1
(0.6608921393 0.08162450518 0.1695539304 0.08792942519) 89 174 1
(0.7085461444 0.1263806941 0.1457269278 0.01934623371) 57 111 1
(0.2021318674 0.3989340663 0.2677494004 0.131184666) 85 166 2
(0.8728851448 0.0544190201 0.009138407481 0.06355742758) 297 527 2
(0.648666951 0.1756665245 0.1097008622 0.06596566234) 178 351 2
(0.2324033897 0.3837983051 0.09787322173 0.2859250834) 237 465 2
(0.2843021181 0.3578489409 0.2067165594 0.1511323815) 116 171 1
(0.05291098693 0.3357610582 0.4735445065 0.1377834484) 79 157 2
(0.1918087364 0.2939731186 0.4040956318 0.1101225132) 82 163 2
(0.3356345578 0.3321827211 0.006671677628 0.3255110435) 117 232 1
(0.4846379575 0.2576810212 0.1766346268 0.08104639442) 23 44 2
(0.4762013041 0.261899348 0.1325808094 0.1293185385) 177 291 1
(0.1149192051 0.4425403974 0.3470494156 0.09549098189) 177 350 1
(0.4001002042 0.2279611354 0.07198876247 0.2999498979) 115 169 2
(0.06365077357 0.4681746132 0.06312699268 0.4050476205) 47 94 1
(0.3255362413 0.09603510869 0.2411967707 0.3372318793) 205 346 2
(0.2219560145 0.06621647367 0.3890219927 0.3228055191) 145 287 2
(0.03620420911 0.4818978954 0.4705879877 0.01130990772) 89 1043 2
(0.3217261778 0.160835045 0.1783018661 0.3391369111) 264 520 1
(0.003533811536 0.4982330942 0.3205109014 0.1777221929) 413 755 1
(0.5439941055 0.2280029472 0.1643469026 0.06365604467) 19 36 2
(0.1043307683 0.0391104371 0.4478346159 0.4087241788) 23 47 2
(0.572366 0.213817 0.01748318597 0.196333814) 224 441 2
(0.7310672493 0.1344663753 0.06284449847 0.07162187688) 46 33 1
(0.2340073428 0.3829963286 0.02649243864 0.35650389) 18 37 1
(0.3554014089 0.03238603242 0.2899132631 0.3222992955) 221 435 1
(0.01927977461 0.4903601127 0.2445546427 0.24580547) 84 164 2
(0.158418668 0.420790666 0.1655075493 0.2552831166) 166 327 2
(0.641456432 0.179271784 0.1171998871 0.06207189693) 101 141 1
(0.6867028299 0.1566485851 0.0874453826 0.06920320246) 447 822 1
(0.0564754888 0.3611143276 0.4717622556 0.110647928) 56 112 2
(0.04070944466 0.4604821889 0.4796452777 0.01916308878) 230 454 2
(0.1684876112 0.0177239959 0.4157561944 0.3980321985) 75 146 1
(0.7228894298 0.1385552851 0.02828129637 0.1102739887) 53 47 1
(0.6254852941 0.1872573529 0.02984521485 0.1574121381) 76 150 2
(0.2096527351 0.2385302486 0.1566433839 0.3951736325) 323 578 2
(0.4107384072 0.1803074918 0.1143233046 0.2946307964) 20 40 1
(0.1929446502 0.1812970696 0.4035276749 0.2222306053) 48 93 1
(0.03085551526 0.4845722424 0.1909950518 0.2935771906) 88 175 1
(0.2423305859 0.3788347071 0.3714417297 0.00739297737) 44 29 1
(0.345674107 0.1052962141 0.3271629465 0.2218667324) 195 382 1
(0.2210457904 0.2810543116 0.3894771048 0.1084227932) 359 707 2
(0.6330820997 0.1834589502 0.01626918227 0.1671897679) 358 703 2
(0.3615013432 0.1161570962 0.3192493284 0.2030922322) 238 467 1
(0.7734959503 0.1132520248 0.0496250854 0.06362693943) 296 583 2
(0.6780657763 0.1387140615 0.1609671119 0.02225305032) 52 104 2
(0.07815484385 0.4609225781 0.07356057381 0.3873620043) 84 167 1
(0.1132445573 0.4433777214 0.06417110716 0.3792066142) 117 229 2
(0.6717232965 0.1641383518 0.1309321002 0.03320625153) 86 171 1
(0.08151461069 0.4592426947 0.3697535094 0.08948918526) 237 465 2
(0.04462703436 0.4024670795 0.07521940336 0.4776864828) 238 411 2
(0.1298334244 0.329338669 0.1057446188 0.4350832878) 49 39 2
(0.1089793313 0.1543486643 0.2911616701 0.4455103344) 55 51 2
(0.2096872135 0.3665501457 0.3951563933 0.02860624758) 389 764 1
(0.6563750422 0.1718124789 0.00458980791 0.167222671) 297 583 2
(0.1498734044 0.08991854225 0.4250632978 0.3351447556) 237 465 1
(0.4397266773 0.2801366614 0.07046814311 0.2096685183) 23 47 1
(0.3985927712 0.3007036144 0.116805669 0.1838979454) 59 117 1
(0.4949889327 0.2525055337 0.02175415081 0.2307513829) 291 573 2
(0.1715209608 0.1191462958 0.4142395196 0.2950932238) 20 38 1
(0.5742717985 0.2128641008 0.0289103584 0.1839537424) 15 30 2
(0.3324443501 0.1414335956 0.1923442294 0.333777825) 141 278 1
(0.3833809235 0.1719613697 0.3083095382 0.1363481685) 299 587 1
(0.1237705169 0.4381147415 0.3592060876 0.07890865395) 46 92 1
(0.2738140228 0.3630929886 0.3482908244 0.01480216417) 175 345 2
(0.7457279966 0.06219874939 0.0649372523 0.1271360017) 28 56 1
(0.1473756389 0.2181818746 0.208130306 0.4263121806) 29 1085 1
(0.05080591098 0.3809604102 0.4745970445 0.0936366343) 44 85 1
(0.4464457281 0.01235379868 0.276777136 0.2644233373) 116 230 2
(0.6168210575 0.0710378112 0.1205516601 0.1915894713) 318 626 1
(0.1983200278 0.4008399861 0.02196735267 0.3788726334) 328 647 1
(0.1425639963 0.4287180019 0.1195237832 0.3091942187) 82 160 2
(0.02870985047 0.4856450748 0.08573984789 0.3999052269) 29 1085 2
(0.1128209872 0.4435895064 0.3253044358 0.1182850706) 172 337 2
(0.4507992579 0.1947124786 0.07988789241 0.274600371) 87 172 1
(0.6347738066 0.08866621306 0.09394688362 0.1826130967) 27 54 1
(0.3016999248 0.3491500376 0.1787980509 0.1703519867) 51 43 1
(0.5777752266 0.04107564546 0.2111123867 0.1700367413) 178 349 1
(0.9266466693 0.01455206602 0.02212459936 0.03667666537) 29 1085 1
(0.41982137 0.1716270713 0.290089315 0.1184622437) 233 460 2
(0.03390084933 0.4830495753 0.1934681684 0.289581407) 19 1075 2
(0.7528633448 0.05544275949 0.1235683276 0.06812556812) 112 222 2
(0.3300240611 0.0009451900141 0.3340427794 0.3349879694) 27 54 1
(0.3034531602 0.286872862 0.06140055792 0.3482734199) 50 41 2
(0.06837603409 0.465811983 0.2737169511 0.1920950318) 171 279 1
(0.07880877578 0.4605956121 0.0869259794 0.3736696327) 54 49 1
(0.02899262401 0.4606253207 0.485503688 0.02487836725) 117 229 1
(0.2045406643 0.3977296679 0.2407289419 0.157000726) 115 228 1
(0.03012073758 0.1719815082 0.3129581231 0.4849396312) 24 1080 1
(0.5586375732 0.2206812134 0.03532205399 0.1853591594) 238 467 2
(0.3304303298 0.01195633037 0.3228285048 0.3347848351) 114 225 1
(0.5031828195 0.2484085903 0.1520507941 0.09635779613) 137 271 1
(0.2102888938 0.3948555531 0.2056653051 0.189190248) 76 150 2
(0.5491403631 0.1044181453 0.2254298184 0.1210116731) 148 290 1
(0.01591994043 0.4920400298 0.2792081549 0.2128318749) 173 283 1
(0.5054934257 0.2472532872 0.1092632429 0.1379900442) 115 169 1
(0.3718703606 0.3140648197 0.2035390209 0.1105257988) 111 219 2
(0.5661058926 0.2169470537 0.2135094313 0.003437622419) 359 648 1
(0.9759093267 0.01204533664 0.004910396511 0.007134940133) 24 1080 2
(0.7500898531 0.02591718511 0.09903788832 0.1249550734) 21 42 1
(0.2978250593 0.1570027064 0.1940847639 0.3510874704) 19 1075 1
(0.2940530374 0.3529734813 0.3283859823 0.02458749902) 141 220 1
(0.221204178 0.389397911 0.02606929657 0.3633286144) 202 399 1
(0.2128435599 0.3393677483 0.05421047173 0.3935782201) 176 289 2
(0.02633459881 0.4868327006 0.108094936 0.3787377646) 28 1084 2
(0.149261893 0.4253690535 0.3228853449 0.1024837086) 239 469 2
(0.03334594416 0.4833270279 0.04972221212 0.4336048158) 140 276 2
(0.4832333297 0.05937308234 0.1990102528 0.2583833351) 171 337 1
(0.1342378499 0.4328810751 0.3335250832 0.09935599189) 84 167 1
(0.5387603147 0.2306198426 0.1240649226 0.10655492) 52 101 2
(0.1547658772 0.4226170614 0.3600195716 0.06259748986) 22 1078 2
(0.4058350512 0.2970824744 0.1191516177 0.1779308567) 175 287 1
(0.007606449622 0.136584397 0.3596123782 0.4961967752) 264 462 2
(0.1770929223 0.4114535388 0.3371435407 0.07430999816) 21 1077 2
(0.6257590005 0.04602217279 0.1410983269 0.1871204997) 27 54 1
(0.00892340208 0.495538299 0.4089339133 0.08660438567) 55 110 1
(0.07740707499 0.1136988713 0.3475975912 0.4612964625) 389 1053 1
(0.599720668 0.200139666 0.02854351311 0.1715961529) 18 37 1
(0.3727207824 0.3136396088 0.2662425727 0.04739703606) 21 43 1
(0.1458125993 0.4270937004 0.3636922764 0.06340142401) 268 526 2
(0.06921547903 0.4653922605 0.1185361737 0.3468560868) 26 50 2
(0.1084583096 0.404826885 0.4457708452 0.04094396019) 25 51 2
(0.07734257781 0.4613287111 0.235951102 0.225377609) 85 168 2
(0.3083772326 0.3458113837 0.1920044529 0.1538069308) 89 174 2
(0.2348566026 0.2489145376 0.1336571611 0.3825716987) 56 111 1
(0.5325452226 0.2337273887 0.1383891343 0.09533825441) 59 58 1
(0.2410409369 0.3794795316 0.1297909896 0.249688542) 22 42 2
(0.6282785862 0.1788670721 0.00699363484 0.1858607069) 207 350 2
(0.2007830793 0.3996084604 0.07079158472 0.3288168756) 53 106 1
(0.4872260693 0.2563869653 0.0565324354 0.1998545299) 296 525 1
(0.5586703546 0.2079746703 0.01269015246 0.2206648227) 58 57 2
(0.07780305563 0.4610984722 0.262636011 0.1984624612) 78 154 2
(0.5553850876 0.2223074562 0.07355333521 0.148754121) 389 707 1
(0.101677819 0.4068656585 0.042295432 0.4491610905) 292 517 2
(0.1512719973 0.4243640013 0.2287607061 0.1956032953) 178 351 2
(0.2422991804 0.3788504098 0.2666281809 0.1122222289) 208 411 1
(0.1294266373 0.4352866814 0.2849773219 0.1503093594) 262 516 2
(0.4641916167 0.06839275446 0.2679041916 0.1995114372) 112 222 2
(0.1088207326 0.4455896337 0.006838148145 0.4387514855) 267 526 2
(0.1500119465 0.4249940268 0.3321461421 0.09284788461) 236 466 1
(0.1352482347 0.2845837041 0.1477921785 0.4323758826) 146 230 2
(0.5956161703 0.2021919148 0.02642003398 0.1757718808) 119 233 2
(0.3858816917 0.0589261927 0.3070591542 0.2481329615) 224 439 1
(0.546999004 0.226500498 0.1945670176 0.03193348044) 141 279 1
(0.2363858033 0.3818070983 0.003168049185 0.3786390492) 329 589 1
(0.04922405139 0.4753879743 0.4659629635 0.009425010786) 27 55 1
(0.02906357196 0.248341548 0.237126666 0.485468214) 115 227 1
(0.5088415301 0.1920954225 0.0534838124 0.2455792349) 139 216 2
(0.2156763196 0.2166604219 0.1755014183 0.3921618402) 145 228 2
(0.1062824741 0.1595762399 0.4468587629 0.2872825231) 26 53 2
(0.661592769 0.1692036155 0.0467395541 0.1224640614) 80 158 2
(0.3910168736 0.3044915632 0.07098903189 0.2335025313) 293 575 2
(0.70521227 0.05982757036 0.147393865 0.08756629462) 209 410 1
(0.09461329001 0.452693355 0.34217192 0.110521435) 86 171 1
(0.3690781248 0.3154609376 0.2804439532 0.03501698438) 49 97 2
(0.003179780668 0.3219760769 0.1764340328 0.4984101097) 29 1041 1
(0.4114925238 0.1907845488 0.2942537381 0.1034691893) 229 452 2
(0.2357675535 0.03565061148 0.3464656118 0.3821162233) 119 176 2
(0.1267239025 0.4366380488 0.1473888641 0.2892491847) 263 518 2
(0.1193367499 0.3949949404 0.4403316251 0.04533668465) 175 343 1
(0.3086013867 0.3456993066 0.157549375 0.1881499316) 231 455 2
(0.17110656 0.07845330293 0.3359934171 0.41444672) 261 456 2
(0.86004027 0.06579106095 0.00418880407 0.06997986502) 142 222 2
(0.4181812728 0.2909093636 0.06141112525 0.2294982383) 114 225 2
(0.1668202691 0.1431671783 0.4165898655 0.2734226872) 25 51 2
(0.1778666564 0.1946457382 0.4110666718 0.2164209336) 109 213 1
(0.3775740764 0.001992917389 0.3092200444 0.3112129618) 25 1081 1
(0.2116517077 0.3247153826 0.06945876352 0.3941741461) 170 335 1
(0.03397520692 0.4045597645 0.4830123965 0.07845263207) 146 289 2
(0.02381198282 0.1683821692 0.3197118394 0.4880940086) 325 582 2
(0.8381755565 0.05142068985 0.08091222173 0.02949153189) 49 98 2
(0.5136923331 0.2431538335 0.07090762826 0.1722462052) 85 169 1
(0.3552740659 0.322362967 0.1616567345 0.1607062325) 292 573 2
(0.3452875613 0.1545261836 0.1728300358 0.3273562193) 142 222 2
(0.339427218 0.330286391 0.1649346223 0.1653517687) 42 84 1
(0.1319455689 0.1170746733 0.4340272155 0.3169525422) 53 106 2
(0.4632137267 0.2683931366 0.1906478957 0.07774524096) 21 42 2
(0.4256290372 0.2871854814 0.2080814318 0.07910404961) 49 97 2
(0.19922353 0.3427727504 0.400388235 0.05761548463) 116 230 2
(0.6046498306 0.06118757474 0.1976750847 0.13648751) 138 270 1
(0.1722883199 0.41385584 0.3020830676 0.1117727725) 84 108 1
(0.1554277403 0.4222861299 0.03169274961 0.3905933803) 262 517 1
(0.0173429372 0.1929967885 0.2983317429 0.4913285314) 81 102 2
(0.562976437 0.2185117815 0.1783308971 0.0401808844) 28 57 1
(0.8317444114 0.01778545987 0.06634233443 0.0841277943) 56 53 2
(0.1768686869 0.4115656565 0.4069003419 0.004665314641) 85 166 2
(0.8494701542 0.03193108219 0.04333384073 0.07526492292) 53 47 2
(0.5653734141 0.217313293 0.1011382001 0.1161750929) 108 155 1
(0.1246344061 0.3690472361 0.4376827969 0.0686355608) 352 694 2
(0.7997295108 0.03669356309 0.06344168151 0.1001352446) 38 75 1
(0.1639291789 0.4180354106 0.1176242139 0.3004111966) 88 172 2
(0.4290104041 0.07629218113 0.2854947979 0.2092026168) 116 230 2
(0.1557995071 0.1698017571 0.2522984893 0.4221002464) 82 104 2
(0.1733970375 0.2423253327 0.1709761486 0.4133014813) 78 96 2
(0.1593292528 0.3377645468 0.08257082682 0.4203353736) 24 48 1
(0.6583175956 0.1708412022 0.1276866095 0.0431545927) 49 97 2
(0.666130623 0.1669346885 0.09024896755 0.07668572094) 26 52 2
(0.05235618789 0.08776067222 0.4738219061 0.3860612338) 16 33 2
(0.7625869951 0.1187065025 0.07107776739 0.04762873507) 148 293 1
(0.06174257871 0.4099177323 0.05921097835 0.4691287106) 209 1047 1
(0.2174794695 0.0462607581 0.3449995072 0.3912602653) 142 280 1
(0.1829935919 0.04483030051 0.3636729035 0.408503204) 321 632 1
(0.6609142833 0.06232891617 0.1695428583 0.1072139422) 47 91 1
(0.5681197264 0.07751127976 0.138428857 0.2159401368) 234 403 2
(0.4580247249 0.2269877818 0.04399985573 0.2709876376) 141 220 2
(0.08415552274 0.4579222386 0.2319107713 0.2260114674) 329 1051 2
(0.5539920458 0.1077373589 0.2230039771 0.1152666182) 78 155 2
(0.2867510838 0.1479082214 0.2087162367 0.3566244581) 136 268 1
(0.06971241163 0.2236967952 0.241446999 0.4651437942) 52 103 1
(0.04709810927 0.3013874729 0.1750634724 0.4764509454) 65 128 1
(0.4651167978 0.1142637226 0.1531778785 0.2674416011) 149 235 2
(0.008583890408 0.4957080548 0.4875873173 0.008120737546) 228 449 2
(0.796275145 0.1018624275 0.02322250125 0.07863992623) 48 96 1
(0.3570893897 0.3214553052 0.06722418938 0.2542311158) 205 346 1
(0.03476613228 0.4826169339 0.2458520686 0.2367648653) 111 161 1
(0.5915276098 0.2042361951 0.1345523844 0.06968381071) 201 397 1
(0.8759286092 0.06203569542 0.01613336107 0.04590233435) 292 576 1
(0.7981111246 0.1009444377 0.04678811867 0.05415631905) 173 342 1
(0.2132592503 0.1167822007 0.2765881741 0.3933703748) 85 168 1
(0.5863056726 0.2068471637 0.1738826387 0.03296452501) 269 528 2
(0.3500421608 0.3249789196 0.3080059591 0.01697296053) 83 162 2
(0.2887367944 0.3556316028 0.004514409389 0.3511171934) 205 402 2
(0.1157790528 0.4421104736 0.2424451652 0.1996653084) 17 1073 2
(0.2862619047 0.1888770186 0.3568690477 0.1679920291) 262 517 2
(0.3067491788 0.3466254106 0.08198939672 0.2646360139) 171 338 1
(0.03744129565 0.421415518 0.4812793522 0.05986383418) 20 38 1
(0.1991175116 0.1576403759 0.4004412442 0.2428008684) 111 220 2
(0.3647783026 0.009489385458 0.3176108487 0.3081214633) 52 104 2
(0.5671658742 0.2164170629 0.1289926017 0.08742446123) 51 43 1
(0.1248749507 0.3252937453 0.4375625246 0.1122687794) 265 523 2
(0.0158774687 0.3116803566 0.4920612656 0.180380909) 58 116 2
(0.9118377142 0.04408114292 0.001716774693 0.04236436823) 169 334 1
(0.4611782887 0.2694108557 0.1926398993 0.07677095635) 141 279 1
(0.2567201448 0.01465416103 0.3716399276 0.3569857666) 113 224 2
(0.08524781042 0.4573760948 0.1205355492 0.3368405455) 22 42 2
(0.3664630747 0.221294082 0.3167684626 0.09547438062) 23 47 2
(0.6082661899 0.006557894884 0.195866905 0.1893090101) 44 88 2
(0.3594483436 0.3202758282 0.1390503559 0.1812254723) 208 410 2
(0.2713841123 0.3643079438 0.1858735233 0.1784344205) 58 115 2
(0.6109766596 0.1945116702 0.01084883465 0.1836628356) 44 29 1
(0.4769609434 0.1816682558 0.2615195283 0.07985127243) 55 107 1
(0.2154271436 0.3922864282 0.2652539406 0.1270324876) 51 43 1
(0.230554302 0.384722849 0.3523278887 0.03239496033) 85 166 2
(0.04444821058 0.4777758947 0.2323985947 0.2453773) 170 335 2
(0.7411865916 0.1139162383 0.01549046593 0.1294067042) 81 102 2
(0.4417776959 0.279111152 0.2356533319 0.04345782018) 58 57 1
(0.09173527979 0.4458420711 0.4541323601 0.008290288992) 53 103 1
(0.4527877078 0.2736061461 0.2514360358 0.02217011034) 267 468 1
(0.1283621936 0.2128167263 0.4358189032 0.2230021769) 25 48 1
(0.6151270094 0.1291078586 0.06332863665 0.1924364953) 138 272 1
(0.572163317 0.2139183415 0.1999761974 0.01394214406) 113 223 2
(0.5070498108 0.166742786 0.2464750946 0.07973230862) 208 408 1
(0.07209609082 0.1170491236 0.346902831 0.4639519546) 17 1073 1
(0.3193447167 0.3403276417 0.2606258358 0.07970180585) 146 286 2
(0.2789695879 0.1341464542 0.360515206 0.2263687518) 89 174 1
(0.2009138903 0.3995430548 0.3541008484 0.04544220644) 142 222 1
(0.4915231915 0.1534376579 0.1008007464 0.2542384043) 47 93 1
(0.1919752061 0.1359378988 0.2680744982 0.404012397) 358 705 1
(0.2940861838 0.1467894101 0.206167498 0.3529569081) 79 156 1
(0.2861623982 0.1783659155 0.1785528854 0.3569188009) 267 526 1
(0.6168948465 0.1575727158 0.1915525768 0.03397986092) 81 161 2
(0.7695052867 0.1152473566 0.04836446436 0.06688289227) 207 408 2
(0.9529690647 0.001408788952 0.02210667868 0.02351546763) 119 1044 1
(0.2314499675 0.1313357956 0.3842750162 0.2529392206) 134 265 2
(0.2067717105 0.3966141447 0.08733629419 0.3092778506) 57 55 1
(0.1903892317 0.4048053841 0.2929209682 0.1118844159) 255 502 2
(0.4066822686 0.1459877502 0.2966588657 0.1506711155) 324 636 1
(0.2155687639 0.3922156181 0.2788359931 0.113379625) 55 110 1
(0.1702458 0.4148771 0.3770223482 0.0378547518) 86 168 2
(0.5916095049 0.1674340257 0.2041952475 0.03676122181) 117 229 1
(0.4770065783 0.2614967109 0.1400658844 0.1214308265) 55 107 2
(0.3190282439 0.3404858781 0.1541858648 0.1863000133) 17 35 1
(0.09092437786 0.1269987807 0.4545378111 0.3275390303) 24 46 1
(0.7596862206 0.1201568897 0.08025543792 0.03990145178) 257 504 2
(0.1289416755 0.3999374899 0.03559167238 0.4355291623) 146 230 2
(0.07314386252 0.4634280687 0.2263062339 0.2371218348) 205 402 2
(0.1956889903 0.3734907116 0.4021555048 0.02866479321) 112 219 1
(0.1311546254 0.4344226873 0.1387259474 0.2956967399) 239 1048 2
(0.3841199874 0.3079400063 0.04368215011 0.2642578562) 324 580 1
(0.06705325567 0.4664733722 0.247378306 0.2190950662) 108 211 2
(0.2243888592 0.3082026748 0.3878055704 0.07960289558) 119 233 1
(0.206551344 0.396724328 0.1101163868 0.2866079413) 48 37 1
(0.06782116646 0.4660894168 0.3104749723 0.1556144445) 322 632 2
(0.2699605649 0.2655589763 0.3650197176 0.0994607413) 26 50 1
(0.1070782443 0.4284039047 0.4464608779 0.01805697317) 82 160 1
(0.09792677481 0.4510366126 0.2374743042 0.2135623084) 112 222 1
(0.0009813196478 0.458330393 0.04117894716 0.4995093402) 328 588 2
(0.4612439222 0.08065458211 0.2693780389 0.1887234568) 263 519 2
(0.01503955475 0.006472916971 0.4860073057 0.4924802226) 80 100 2
(0.1693138128 0.4153430936 0.1883313604 0.2270117333) 173 339 2
(0.3067807183 0.3466096408 0.2160184882 0.1305911526) 291 571 2
(0.3460462051 0.3269768975 0.2067811757 0.1201957218) 75 90 1
(0.1665697024 0.06826733321 0.3484478156 0.4167151488) 388 764 1
(0.3656471893 0.009318296889 0.3171764054 0.3078581085) 18 37 2
(0.3147258091 0.1428347865 0.1998023089 0.3426370954) 76 150 1
(0.464569622 0.267715189 0.2440156302 0.02369955878) 175 343 2
(0.001402821982 0.499298589 0.2815747921 0.2177237969) 138 214 1
(0.756936842 0.06957243318 0.121531579 0.0519591458) 269 528 1
(0.3372945604 0.3313527198 0.1716780272 0.1596746926) 268 528 2