/*--------------------------------*- C++ -*----------------------------------*\
| =========                 |                                                 |
| \\      /  F ield         | OpenFOAM: The Open Source CFD Toolbox           |
|  \\    /   O peration     | Version:  2406                                  |
|   \\  /    A nd           | Website:  www.openfoam.com                      |
|    \\/     M anipulation  |                                                 |
\*---------------------------------------------------------------------------*/
FoamFile
{
    version     2.0;
    format      ascii;
    arch        "LSB;label=32;scalar=64";
    class       scalarField;
    location    "0.003/lagrangian/dsmc";
    object      Ei;
}
// * * * * * * * * * * * * * * * * * * * * * * * * * * * * * * * * * * * * * //


9499
(
1.591116945e-21
3.378641578e-22
8.182909276e-21
1.85324081e-20
3.563109455e-21
2.159844547e-20
1.396352413e-20
1.081855764e-20
3.060802545e-21
3.783784443e-21
8.473356579e-21
3.652025268e-21
6.570269811e-22
8.787948942e-21
8.989833032e-21
3.290390091e-20
6.765115816e-21
8.042408812e-20
1.560901843e-20
5.584885006e-21
4.618307702e-21
7.698056101e-21
9.139248957e-21
4.830666258e-21
3.43465035e-21
1.165204409e-20
1.233088043e-20
2.822798223e-21
2.351845186e-21
1.723935283e-20
2.123233674e-20
1.108489529e-20
1.446175912e-22
1.329389722e-21
1.307278437e-20
5.835443344e-21
2.13435026e-20
7.648409543e-21
8.638682647e-21
8.014122213e-22
2.486771556e-20
1.069941093e-20
1.790805797e-21
5.184309776e-21
3.517075464e-21
1.752592822e-20
1.857181654e-21
3.993352948e-21
1.549784307e-21
3.719926077e-20
3.323116424e-21
4.857665665e-21
6.78366514e-21
4.870736894e-21
4.364913242e-21
1.245721077e-20
1.221591368e-22
5.391079783e-21
6.789281236e-22
2.298211872e-21
3.089633698e-21
6.712562598e-21
1.123222789e-20
2.938249032e-21
2.686538703e-20
6.882269193e-21
9.365955322e-21
1.182261359e-20
2.78014062e-21
1.219498342e-20
6.956650578e-21
9.21404222e-21
2.277640932e-20
2.442319338e-20
5.614970263e-21
1.722735912e-20
1.996032825e-20
7.730072968e-21
9.607077354e-21
3.589273657e-22
2.191811343e-21
3.83110675e-22
9.04362793e-21
1.560759641e-20
1.568829447e-21
1.117129204e-20
2.0403608e-22
8.91740769e-21
1.524678637e-20
2.660125179e-21
6.037685051e-21
2.800765692e-21
1.737870935e-20
2.554251591e-22
6.300241233e-22
5.899997376e-21
1.706162394e-20
1.239268951e-20
4.874226767e-21
3.640332364e-21
6.560579024e-21
6.360646957e-22
8.85963231e-22
1.25827173e-20
3.350398149e-20
2.92696983e-21
1.688412507e-20
9.763764354e-21
7.95256012e-21
1.249990713e-20
1.961814512e-20
6.658877515e-21
2.894539937e-22
6.921949398e-21
3.450533444e-20
1.457146437e-21
2.316147246e-21
1.017396786e-20
4.230173636e-21
9.71819484e-21
4.326754537e-20
1.59407006e-21
6.072789056e-21
2.518220118e-20
3.370328014e-22
3.960813067e-21
1.001674557e-20
6.256366201e-22
3.002524404e-21
2.092991127e-21
7.955534267e-21
1.678163828e-21
7.069692548e-21
7.593509321e-22
4.930953093e-20
5.455466496e-21
2.615232559e-20
5.007266573e-21
4.658701947e-21
4.234073674e-20
4.790241617e-21
2.130346511e-21
1.449695247e-21
1.490490961e-21
4.577836897e-21
4.222440154e-21
1.901856399e-20
3.167354255e-21
9.997791604e-22
1.454949884e-20
3.676703565e-21
2.766865234e-20
4.68713631e-21
6.169817157e-21
2.074612838e-20
1.358627166e-21
1.791740027e-20
1.118015979e-21
2.910393921e-21
2.933302145e-21
5.931931611e-21
4.731425437e-20
2.79516982e-20
2.95782852e-21
3.218851694e-21
1.44134523e-19
3.323979055e-21
1.324482354e-20
8.86258701e-21
6.380024976e-21
2.583377764e-20
8.890856989e-21
1.155214826e-20
1.818338129e-21
1.780736613e-20
1.847261256e-20
5.837982609e-21
3.789746284e-21
2.948779479e-21
8.676900071e-21
1.321745456e-20
8.30545077e-21
6.783677797e-24
4.316811793e-21
4.292389521e-21
7.515617123e-21
1.763386099e-20
4.943423603e-21
2.13147187e-20
2.630703267e-21
3.813106384e-20
7.12501721e-22
6.261146574e-21
2.358027756e-22
1.970942879e-21
1.979340187e-21
1.548670628e-20
1.556976076e-20
3.863880824e-21
2.194240349e-20
1.101719037e-20
1.341269614e-21
3.996394252e-20
1.845934381e-20
3.54900821e-22
3.089470243e-21
9.835472e-23
2.047183408e-21
1.798631533e-20
5.454783262e-21
6.319468011e-22
7.995794856e-21
1.793622254e-20
2.329243901e-21
1.421514782e-20
5.478255407e-21
2.813226699e-21
7.859030496e-21
2.733258914e-20
1.899374537e-20
1.41999299e-20
1.988531841e-21
9.984336948e-21
9.631852752e-21
4.316603861e-21
4.428285654e-21
7.125847514e-21
1.874512337e-22
1.409067159e-21
4.038642663e-21
2.002560478e-20
1.012854991e-20
2.600441136e-20
3.209444323e-21
3.733985619e-21
1.341799361e-20
2.975393508e-20
1.169099294e-21
7.543857101e-21
4.244751617e-20
4.275218031e-22
7.164830855e-21
6.09316083e-21
1.221246956e-20
1.307758815e-20
8.860364618e-21
2.468048374e-21
6.235084665e-21
1.299704181e-22
7.449354398e-21
2.051775713e-20
1.060792211e-20
1.344942679e-20
1.394334239e-20
4.905105577e-21
1.227723932e-20
1.469642051e-20
2.015711756e-20
4.723032684e-22
2.047929989e-22
6.255170916e-21
1.031585339e-20
2.558841087e-21
5.845348145e-21
1.145322063e-20
4.170784489e-21
9.123384872e-21
2.995863765e-21
1.004307135e-20
7.036809916e-21
1.340524161e-21
9.681788526e-21
2.412998151e-21
2.665701946e-21
5.984800774e-21
3.544397136e-21
8.589947771e-21
1.113518555e-20
3.842447264e-21
4.117313647e-21
4.007050725e-20
3.084020101e-21
5.122949871e-21
1.292974532e-20
1.335939264e-20
3.884300402e-21
6.735721246e-21
1.69609658e-20
5.003825918e-21
2.38163064e-20
1.480998881e-21
1.002709729e-20
1.064501824e-21
1.351755632e-20
4.254983512e-21
8.989023166e-22
9.046076331e-22
1.292446072e-20
1.612255112e-20
3.452116525e-21
1.882570593e-20
6.080580552e-21
7.754673703e-21
3.211463952e-21
8.989299494e-21
2.227862748e-21
6.666404751e-21
1.333230697e-21
1.1446957e-20
1.082390373e-20
1.777403242e-20
1.100248718e-21
1.152060033e-21
2.351547762e-20
6.678283927e-21
7.086843322e-21
1.678976727e-20
3.012303431e-21
1.177387405e-20
3.92346686e-21
1.105676278e-20
7.874235071e-22
1.887314053e-21
1.904975174e-21
9.245418135e-21
2.192923623e-20
2.102124185e-21
1.282926313e-20
1.441621803e-21
1.33931078e-20
1.831097102e-20
1.335659154e-21
2.040341751e-20
6.027044908e-21
1.127161941e-20
1.038383511e-21
6.345115362e-21
5.398908485e-21
1.127440868e-20
1.368248011e-21
1.60016668e-20
4.531801499e-21
5.177991792e-21
2.10461742e-20
8.595149685e-21
1.651843638e-22
4.098164492e-21
2.612533901e-20
7.041708438e-21
6.197133762e-21
3.182554883e-21
3.972860688e-21
3.125363715e-21
3.806536617e-21
2.408025549e-21
1.43901986e-21
1.146882357e-20
8.006407669e-22
2.430716461e-20
2.31592104e-20
3.15658212e-21
8.914893738e-21
9.42041989e-21
5.703107826e-21
2.282343277e-21
3.718833318e-21
4.246047359e-22
1.84128067e-20
2.113575031e-20
5.611508346e-21
7.08658256e-21
1.268833102e-20
4.713433784e-21
1.206649126e-20
8.145806387e-21
1.563833676e-21
5.54846788e-21
8.224679999e-21
3.21250134e-20
2.00623879e-20
3.213064052e-21
2.634074481e-22
3.750526064e-21
1.439721965e-20
5.501742947e-21
1.47740799e-20
1.010419486e-20
3.039425722e-21
8.642962472e-21
1.297548747e-20
2.911235982e-21
9.564586738e-22
5.034530382e-21
4.200324323e-21
1.059316898e-21
2.116785974e-20
2.621472485e-20
3.113186397e-22
4.20950963e-22
5.86704917e-21
5.205590087e-21
7.77818869e-21
4.706030128e-21
8.814199017e-22
1.431825458e-21
1.409904625e-21
6.653064009e-21
6.374210078e-21
8.461016486e-21
3.364047658e-21
2.220946261e-20
3.478058925e-22
2.683179355e-21
1.162205529e-20
1.994169075e-20
2.970631341e-20
3.374346758e-20
6.696367399e-21
3.717702035e-20
8.549787957e-21
7.812422515e-21
1.938604704e-21
1.38218592e-20
2.592596513e-20
3.246994399e-21
8.108146351e-22
9.277685505e-21
1.329313044e-20
1.538068217e-20
2.58195314e-20
4.92321849e-21
6.063340434e-21
1.952996502e-21
7.037108172e-21
1.34229802e-21
8.78103102e-21
8.066875168e-21
4.802966708e-21
1.189006303e-21
1.574816264e-20
1.184887656e-20
4.763882123e-20
7.223570031e-21
1.291376521e-20
1.1792846e-20
5.267248802e-22
8.040389848e-21
1.852635259e-22
6.052066867e-21
9.365522693e-21
8.249075997e-21
2.067506707e-21
6.355482214e-21
5.192052573e-21
6.830335454e-22
7.773060411e-21
5.515647322e-21
7.887505245e-21
1.819195278e-21
1.87034002e-20
1.817083167e-20
6.781311939e-21
1.981286509e-21
7.3643116e-21
4.252858905e-21
1.87938164e-21
1.071853001e-20
9.341306262e-22
1.969238377e-21
6.860394707e-21
5.966632511e-22
2.502877869e-21
4.914707843e-21
1.764828056e-21
1.338181734e-20
2.475709432e-21
6.97952508e-21
8.015935046e-21
1.800532089e-20
1.08886035e-21
3.711861365e-21
1.593529035e-20
2.486892926e-22
8.004547259e-21
6.281175853e-21
1.460110723e-20
1.350777146e-21
9.890868398e-22
1.059845826e-20
3.600969625e-21
6.414148277e-21
6.326958681e-21
8.994131617e-21
3.597164788e-20
7.816212909e-21
1.091110734e-21
3.343083486e-21
1.110404421e-21
1.873765578e-21
3.015028531e-20
4.693349402e-21
1.343455144e-20
5.973843437e-22
1.39389728e-21
3.874859216e-21
1.57846783e-20
3.407754166e-20
5.204108237e-21
2.175341407e-20
4.785949748e-22
2.854671429e-21
2.895720912e-21
1.579140341e-20
1.803178415e-20
7.313970898e-21
1.035679512e-20
3.731860963e-21
1.033359325e-20
9.76334475e-21
1.44078378e-20
9.235502508e-21
4.982391631e-22
1.180145691e-21
6.379157337e-21
1.178370286e-22
5.209099143e-21
5.987304207e-21
2.359011734e-20
5.029089498e-21
2.421755329e-20
5.329168366e-21
6.59099796e-23
4.989803797e-21
8.331462976e-21
2.556617685e-21
1.441601116e-21
3.068310951e-20
1.936392336e-21
3.581813438e-20
3.465136569e-20
6.491783253e-21
1.866109103e-20
1.689763384e-20
1.207412707e-20
1.427951138e-21
5.890220757e-21
5.50353501e-21
3.903026562e-21
1.06274477e-21
4.194986386e-21
7.266068869e-21
3.495180954e-21
1.101267896e-21
1.145317947e-21
1.21132456e-20
2.055174953e-20
1.736718613e-20
1.015031414e-20
4.826136191e-21
3.477337561e-22
8.970257859e-21
4.622288755e-21
3.172317313e-21
4.313876291e-20
2.610173424e-20
2.847750803e-20
4.9060168e-21
4.408358438e-21
8.098486023e-21
2.835802408e-21
2.941826699e-21
3.427547145e-20
2.837720451e-21
7.07749266e-22
1.901521947e-20
3.648410437e-21
2.331790958e-21
6.191067799e-21
7.918385908e-21
5.588796239e-22
1.085345284e-21
1.85031639e-20
5.726582601e-21
2.358079324e-21
1.461190102e-20
1.759167623e-20
4.322891388e-22
1.368323189e-21
9.633659509e-21
3.594009513e-21
4.853781406e-21
3.285716567e-21
2.145985354e-20
4.804851445e-21
1.086345366e-21
3.582361253e-22
3.521719416e-21
2.13313316e-20
5.203413098e-21
5.210335658e-21
1.272798627e-22
1.73735782e-20
2.037187214e-20
5.732175302e-21
1.83303283e-21
2.412156869e-21
4.039013088e-22
6.188323141e-22
1.951147883e-20
1.450850287e-21
1.443465234e-20
2.129741133e-21
1.743601176e-20
1.330924027e-20
1.301480507e-22
3.121521306e-21
8.033443263e-21
5.633723465e-21
3.964854445e-20
1.91631797e-21
6.205429297e-21
1.567869712e-20
4.707825695e-21
1.973334666e-20
1.115257522e-20
4.813130878e-20
3.362537768e-20
2.455662123e-20
2.547386499e-21
4.587714958e-21
1.244618981e-22
4.57058422e-21
1.60606952e-21
4.360011572e-21
9.98734577e-22
2.73578137e-21
2.216339686e-20
1.4619408e-21
6.776890089e-21
6.835397989e-21
3.623790782e-21
2.642989404e-20
8.863157453e-21
7.992301835e-21
1.496112156e-20
3.660754291e-21
2.417229011e-21
2.635175332e-21
6.114081192e-20
1.023834937e-20
1.277592672e-20
3.163390414e-20
6.745642842e-21
2.194252722e-20
1.814300525e-21
1.331294103e-20
1.092225774e-20
9.042017494e-21
9.555943279e-21
1.560358145e-20
7.321452759e-21
4.038920156e-21
1.82402351e-20
5.677935093e-21
3.614336982e-20
2.087655842e-20
2.872726655e-21
5.96996189e-21
1.048109969e-20
8.99075976e-21
1.693078766e-20
2.827267889e-21
9.128715989e-21
6.233403609e-21
5.567142792e-22
3.013863925e-20
1.283394711e-20
1.263338415e-20
3.584775302e-21
1.844045114e-21
3.930092473e-21
4.996992572e-21
5.008724787e-21
5.243903004e-21
2.962695711e-21
5.302364317e-21
1.56887547e-20
1.62756772e-20
3.200693811e-20
1.352402647e-21
6.776037692e-21
1.114926373e-20
3.421400481e-20
1.169888843e-21
9.359994696e-21
8.037434094e-21
1.506309002e-21
1.566631388e-20
1.324949012e-21
3.091811638e-21
8.021666714e-21
4.562903209e-20
1.329730619e-20
7.62977974e-21
6.66567361e-21
7.117288632e-22
3.805638469e-21
7.026379965e-22
1.385417619e-20
4.786848092e-21
1.311518645e-20
9.030605801e-22
7.748330715e-21
2.559838752e-20
1.858326112e-20
1.363663516e-21
1.34299074e-20
1.208123182e-20
3.949652501e-21
1.25678533e-20
8.096811399e-21
8.968387828e-22
1.737088032e-20
3.183162324e-21
1.467265506e-20
3.61606973e-21
2.787761596e-20
1.584121923e-20
1.010203987e-21
1.777924294e-20
2.680055541e-21
4.917332405e-20
1.571657081e-20
1.647688826e-20
8.960713427e-22
1.252753682e-24
2.934338916e-21
1.244415763e-20
1.334950801e-20
1.317391014e-22
4.238304742e-20
5.04434211e-21
1.808894418e-20
1.496235981e-20
1.179735719e-21
7.395034426e-21
1.165833982e-20
1.057601727e-20
4.545105044e-21
1.103952051e-20
2.785030786e-20
1.88044968e-20
6.149357604e-21
1.588471608e-21
3.037275903e-21
2.433480466e-21
9.307278386e-21
7.817806725e-21
3.728120313e-20
9.010076212e-21
7.593929156e-21
1.069763372e-20
8.065268246e-21
1.140076445e-20
7.075568532e-21
2.701453014e-21
1.107793706e-20
2.838327461e-21
1.91933187e-20
5.442954338e-21
1.549992146e-20
2.245438239e-21
1.340310415e-20
2.221337735e-21
8.688438787e-21
9.707219829e-21
1.116753943e-20
7.576787708e-21
5.662670981e-21
3.39763697e-21
2.624204669e-21
2.325309305e-20
1.422080847e-21
6.415522645e-21
4.439088717e-21
2.101547504e-20
4.406005701e-21
3.921199232e-21
5.031742734e-21
7.162914881e-22
3.233382967e-21
9.284310891e-21
4.758831223e-22
1.015602526e-20
1.191916559e-20
2.074944559e-20
1.810986673e-21
8.554599157e-21
1.131947256e-20
9.502104664e-21
3.091545854e-21
1.529239504e-20
2.081594952e-20
8.913746238e-21
1.890812985e-21
1.065504415e-20
2.915853977e-21
3.345750308e-21
5.345214188e-21
5.965837288e-21
5.457846052e-21
1.882114913e-20
8.103683615e-22
1.754366756e-21
1.388243946e-22
2.343321231e-21
7.555192953e-21
2.211931663e-21
5.556633846e-21
1.300630025e-20
2.670652479e-21
4.124597798e-21
1.506859698e-20
1.250382921e-20
5.187736359e-21
2.785048455e-21
6.497632118e-21
9.093790093e-21
3.88391895e-22
2.843272402e-21
3.995781988e-20
1.476055811e-22
4.107735782e-20
8.080751023e-21
1.846494206e-20
9.881759089e-22
2.628771932e-20
1.491013531e-20
2.75743338e-21
3.921224316e-21
6.403258966e-21
4.899984219e-21
8.402615527e-22
3.182137518e-20
1.955486595e-21
3.693545345e-21
2.980898285e-22
5.225688256e-21
1.710218561e-21
5.134285785e-22
1.267438603e-21
2.441040178e-21
4.112540181e-20
1.320960028e-20
1.114900323e-21
4.6475475e-22
4.108795076e-22
5.723614637e-21
8.964636389e-21
1.061905683e-21
2.262805073e-23
1.542498189e-20
1.457639036e-20
1.317012281e-20
1.633523193e-21
2.503359058e-20
1.782617852e-20
4.92206256e-21
4.848609621e-20
1.578555204e-20
2.845246632e-20
3.812462487e-21
6.432286195e-21
1.985445822e-20
1.991972492e-20
2.122671937e-20
1.843866783e-20
3.906498e-21
8.110029471e-21
1.932769653e-20
2.247768455e-20
1.951394666e-21
3.443989415e-21
1.876573148e-21
1.368072372e-20
9.760505661e-22
9.329892867e-21
3.058870888e-20
2.434465807e-22
8.237710792e-21
1.499080659e-20
3.231562892e-20
1.452249286e-20
1.960204028e-21
7.608782688e-21
3.180664797e-20
2.893466894e-21
8.540658204e-21
1.853853006e-20
2.34828789e-20
6.440128082e-22
2.594135158e-21
1.169936298e-20
1.521737116e-20
1.518106946e-20
1.096629966e-21
1.068650894e-21
2.507789247e-20
2.395336959e-20
7.175942514e-21
2.44010488e-21
1.931414746e-22
5.381514574e-21
3.358124691e-21
1.917568624e-20
4.140994493e-21
8.700341926e-21
1.93070112e-21
8.13216924e-21
1.506539053e-20
1.084861431e-20
1.366701506e-20
1.298127689e-20
9.204319598e-21
3.542125179e-20
4.272371742e-20
2.436437496e-21
2.852067443e-21
3.089603237e-20
9.204918125e-22
2.880883712e-21
8.162683028e-21
1.044138201e-20
5.418421936e-20
1.462920536e-20
1.55010527e-21
4.794249421e-22
2.451940172e-21
1.063992442e-20
1.02251516e-20
2.20308474e-21
4.34755425e-22
1.253063406e-20
6.418346256e-21
8.047493028e-21
3.917541146e-21
5.343526149e-20
1.723835028e-21
1.001447846e-20
7.343565705e-21
1.924113821e-21
1.63344266e-21
2.428155241e-21
1.17104601e-20
1.419372898e-20
3.802181341e-20
9.163698797e-22
8.526186766e-22
7.198804776e-21
2.535825395e-21
3.646481132e-21
3.785248764e-20
2.983584474e-21
5.633683456e-21
2.836801148e-20
1.125169211e-21
2.903161705e-20
1.500873259e-20
5.481201638e-21
1.05046543e-20
4.454663074e-21
2.642634495e-21
1.604458283e-20
3.282727324e-21
1.339304099e-20
1.195390522e-20
6.165519856e-21
2.221205875e-20
1.769886532e-20
1.448678965e-20
4.203449256e-21
1.470515808e-20
4.663819767e-21
3.745221506e-21
6.842877252e-22
5.299113516e-22
1.927922491e-20
2.316295955e-21
3.372956936e-21
4.327278915e-21
7.436430642e-21
4.390117962e-22
1.580287073e-21
1.278367987e-20
8.997403769e-21
2.998648389e-21
4.410871094e-20
1.652506671e-20
7.510167142e-21
3.411763886e-20
6.204375514e-22
2.074637562e-22
1.517164106e-20
2.086993812e-20
6.551936718e-21
7.11073629e-21
9.121502722e-21
3.701019458e-21
1.07445157e-20
1.5605434e-20
3.250391401e-22
8.918296319e-22
7.721775354e-21
6.909272128e-21
1.992939456e-21
3.404102492e-21
8.525518661e-22
9.151913286e-21
2.189303579e-20
2.582191314e-20
5.171359727e-21
2.168993096e-21
1.170869528e-20
1.284593707e-20
8.629294088e-21
5.598024636e-22
1.163817438e-20
3.490013868e-21
7.682379803e-21
1.971518617e-21
6.995342527e-21
1.769644568e-20
1.116912659e-20
6.092381606e-21
9.135118453e-21
1.232957156e-20
6.688976125e-21
4.705185451e-21
9.027837916e-21
2.38731531e-21
5.141556599e-21
1.014691721e-20
6.936492978e-22
3.559902416e-21
2.755450815e-20
7.822158916e-21
5.632587104e-21
2.8734373e-20
4.778772291e-21
9.374332562e-21
1.077220029e-20
1.082980476e-20
2.89620067e-23
9.712932793e-21
1.67104929e-22
3.549190541e-21
1.225146155e-20
1.378840883e-21
1.946682882e-20
1.071106831e-21
1.023269083e-21
1.868605666e-20
1.04147143e-20
3.970654429e-21
1.824833389e-20
7.531085332e-21
1.033724561e-20
1.409971508e-20
1.314774367e-20
1.60233602e-21
2.913312343e-23
3.98526852e-20
8.646677637e-21
1.168272507e-20
1.897358974e-21
2.627670854e-20
2.782749668e-20
1.610357571e-20
5.903506268e-21
4.284020234e-20
3.242961226e-20
3.025509491e-21
3.581439062e-21
6.534345456e-22
2.27930174e-20
9.754292384e-21
5.910506653e-21
2.66086637e-21
8.521787431e-21
3.53800971e-21
5.205768006e-21
1.183978806e-21
2.732322827e-20
1.296872158e-20
5.553785274e-21
8.326522399e-23
2.666034621e-20
1.821469784e-21
5.063063998e-22
1.303687053e-20
1.652282245e-21
5.198351459e-20
2.281644095e-20
8.112746802e-21
1.257420168e-20
1.657818863e-20
9.270893899e-21
3.050173402e-20
8.266385735e-21
1.689276006e-20
6.997312169e-21
8.497080284e-21
1.288492371e-20
3.202363076e-20
1.113208795e-21
8.030757541e-21
1.552090164e-22
1.253404769e-21
1.952901172e-20
2.582996667e-20
1.00281218e-20
3.308165808e-20
9.565808625e-21
5.009052968e-20
1.777322414e-20
6.860573486e-21
2.791728557e-21
9.795040267e-21
5.449126428e-20
2.340315787e-20
1.928046712e-20
4.524963119e-21
3.2654964e-22
1.479193691e-20
2.192717335e-21
2.893716426e-20
1.122146058e-20
1.375103308e-21
8.987537721e-22
1.639184422e-20
2.052447063e-21
1.144061314e-20
3.308650087e-21
4.118887364e-21
3.953285457e-21
1.977925301e-21
9.843460263e-21
2.035225226e-20
3.18371907e-20
5.86125264e-21
1.092734019e-21
3.396431637e-20
1.321576186e-20
4.908990292e-20
1.780674669e-20
7.584989601e-21
3.933754373e-21
8.180678482e-21
2.883977089e-21
1.664524264e-20
1.789733037e-20
1.968699453e-20
1.371269335e-20
2.071699781e-20
1.21233203e-20
3.54006834e-21
4.588895803e-21
4.251053949e-21
1.237739904e-20
1.637537456e-20
3.418465403e-21
3.078987276e-21
2.084244818e-21
3.580251599e-21
5.571264758e-21
5.586223036e-21
5.422186859e-21
3.618360684e-20
1.00815615e-20
1.767927865e-20
7.540817271e-21
1.750871618e-20
9.352881909e-21
1.466982474e-21
1.058761184e-20
5.958893927e-21
2.375683756e-20
6.236102002e-21
2.51529334e-21
1.103478189e-20
5.107823729e-20
1.012554158e-20
1.196432716e-21
7.013107888e-21
4.287546589e-20
2.096438798e-20
3.342367077e-20
3.614666212e-21
7.459046522e-21
1.486050018e-22
1.171864682e-20
1.971825003e-21
6.957091723e-21
2.732261417e-21
6.633791057e-21
6.604019723e-20
7.410255154e-22
2.504400874e-20
3.63539826e-21
1.550246797e-20
2.654232089e-20
8.620292425e-21
1.811136615e-20
1.228493003e-20
1.237943336e-23
8.856027899e-21
2.636547574e-20
4.482682316e-21
9.991473665e-21
2.147679143e-20
7.354772686e-21
1.203462563e-20
9.222319316e-22
2.999852516e-21
2.995483342e-21
1.640684117e-20
2.290298493e-21
2.682738228e-20
2.000256197e-21
8.591453876e-21
1.404887132e-20
2.789640421e-21
7.323670139e-21
4.913990965e-21
1.622241077e-21
3.054263108e-21
2.787172473e-20
1.712117409e-20
8.65156501e-22
6.204374964e-21
1.174158265e-20
4.644913096e-21
1.175119399e-20
2.039290996e-20
9.513428588e-21
2.66663885e-21
2.052958273e-20
2.439772259e-20
2.909090203e-20
3.381941047e-20
1.404065658e-22
5.59162712e-21
3.018707002e-20
1.640693615e-21
3.15634343e-20
2.66220118e-21
3.600387598e-20
8.63567246e-21
2.095064894e-21
1.333722371e-20
8.390135949e-21
6.472286134e-21
2.40728619e-21
8.640225875e-22
3.601940696e-20
6.552787906e-21
1.250426917e-20
9.578493787e-21
6.106275909e-21
9.474810059e-23
1.152261632e-20
2.515879664e-20
2.700045003e-20
1.529953052e-21
1.685088417e-20
3.991492239e-21
9.118856611e-21
2.341598095e-20
6.563393057e-21
6.925449407e-20
4.312932883e-21
1.042837374e-20
7.816146597e-21
2.005303328e-20
7.417265519e-21
1.709127086e-20
8.162900989e-21
1.260343779e-21
5.157597351e-20
1.991557927e-20
5.09803343e-21
2.862318189e-20
5.661354354e-21
1.202277331e-20
5.329581136e-21
1.928546829e-21
1.41424902e-20
1.072243798e-22
9.383278258e-21
8.431428144e-21
4.563266908e-22
1.315512454e-20
2.047616811e-20
1.502909582e-21
1.584810042e-21
8.221092126e-22
1.491661091e-21
6.286263432e-21
3.538092114e-21
8.230055405e-21
4.666868349e-21
2.554242201e-21
3.905845962e-21
1.292635352e-21
2.811454258e-21
3.585873815e-22
1.829865023e-20
4.213708192e-21
8.836365547e-21
3.452313822e-21
3.09595521e-21
1.458805369e-21
2.565144822e-21
1.235428046e-20
8.587796679e-21
1.521222603e-20
7.530613418e-21
7.477622605e-22
2.35597639e-20
1.40993949e-20
1.319108704e-20
2.012895693e-20
2.620619755e-21
1.59442217e-20
1.101967822e-20
6.899236984e-21
1.305019901e-20
1.36966202e-20
1.044402452e-20
3.719936723e-21
4.242641414e-20
2.394647161e-20
5.530177435e-21
1.134489519e-21
7.534903011e-21
5.052353864e-21
5.594788141e-21
1.239678355e-20
3.876578639e-20
1.635112999e-20
1.868529904e-20
1.776333235e-20
1.621081003e-20
5.401251865e-21
1.930196614e-21
8.077336558e-22
6.534747395e-21
2.080049164e-21
3.479838151e-21
4.053230686e-21
2.327323023e-21
1.612829443e-21
2.590345872e-20
9.170684204e-21
5.027504173e-20
6.929836836e-21
9.845675055e-21
8.195656388e-21
4.056592096e-21
6.433408975e-21
4.23709255e-21
6.784502194e-24
1.480531142e-20
1.220474394e-20
2.897443334e-20
2.945808976e-21
2.349905218e-20
1.387546411e-20
3.304295886e-20
2.468746516e-20
1.298225539e-21
1.115974243e-20
1.44439011e-20
4.890273206e-21
4.008205484e-22
1.997721586e-21
2.321249738e-22
1.856700895e-20
6.082589371e-21
1.896174165e-21
8.582348184e-21
3.224001577e-21
2.609024984e-21
3.107267722e-21
8.688926105e-21
1.046609007e-20
1.197113011e-20
2.370303547e-21
4.463134138e-22
1.961749586e-21
3.083115706e-20
2.078508024e-20
1.490024824e-20
6.1737332e-21
2.784530729e-21
9.978429936e-21
1.296807186e-20
5.067899207e-21
8.09127707e-21
5.191926618e-21
2.706363099e-21
1.488998561e-20
2.103467106e-20
1.094811766e-20
6.002393564e-22
1.38940283e-21
1.641019267e-20
4.637983768e-20
5.348915114e-22
7.750401487e-23
1.325167121e-20
2.001780611e-21
3.564486587e-21
1.434339041e-20
9.440801643e-21
9.643326013e-21
2.955564223e-23
7.952023305e-22
5.043098938e-21
1.649098176e-20
3.504594795e-21
1.869816763e-20
2.083099052e-20
1.011754713e-20
2.91006617e-21
1.724058855e-20
3.52300149e-21
7.649255279e-21
6.746883418e-21
6.772614023e-21
6.840724746e-21
1.205063673e-20
3.685326328e-21
4.163647795e-21
6.976247018e-22
1.0291641e-20
2.473245115e-22
3.089966428e-20
9.969112398e-21
1.734323557e-20
5.487422557e-22
9.845750248e-21
1.018420262e-21
2.993504838e-20
1.699063187e-21
1.046764639e-20
2.985076727e-21
1.222801114e-20
4.40922247e-21
5.153117737e-21
4.005989652e-21
3.050495979e-20
8.696278143e-21
2.996569804e-20
7.526943378e-21
2.927694403e-20
3.085302956e-20
1.807314117e-21
2.994774514e-20
2.119621698e-20
4.481321341e-22
1.704267148e-20
1.287698663e-20
2.70046356e-20
2.610522021e-21
1.143445182e-20
1.02647483e-20
7.117701444e-21
3.295624245e-21
2.670071836e-21
9.782902401e-21
5.343593975e-21
1.08812012e-20
7.946339227e-21
1.109878339e-20
4.472082105e-21
1.354656484e-21
1.329694608e-20
9.265603551e-21
2.484470392e-21
5.036241171e-21
1.984275325e-20
4.985756031e-20
4.646998107e-21
7.169613711e-21
3.424161118e-20
7.723745368e-21
8.074336449e-21
3.051059903e-20
7.603814626e-22
6.792322813e-21
3.648966923e-21
1.11404059e-21
5.535889142e-21
1.187255396e-20
2.299775883e-21
9.451424942e-22
5.715532824e-21
1.436576018e-20
7.751776209e-21
1.555301195e-21
6.3632358e-21
2.114814753e-21
1.222398109e-20
1.073791449e-20
2.551106136e-20
4.703425873e-21
1.439997899e-20
4.667007977e-21
2.046264557e-21
5.774104488e-21
2.242076655e-20
1.966144046e-21
2.106765199e-21
6.622808825e-21
1.048682391e-20
2.083695253e-20
1.247085308e-20
2.030471736e-21
4.826037779e-21
5.951934193e-22
4.988736487e-22
4.710189349e-21
1.027172729e-21
1.910832521e-20
8.032277452e-21
8.131603633e-22
7.756927011e-21
6.551713159e-21
8.074627615e-21
1.274125787e-21
1.405917466e-20
5.972350463e-21
8.190622225e-22
3.768561069e-20
4.526626938e-21
4.005001373e-20
1.012186237e-21
1.973077244e-20
2.919903161e-21
2.129426158e-20
2.225953847e-20
1.353431275e-20
3.121322467e-21
1.137143699e-21
2.333120262e-20
1.428772622e-20
1.184555412e-20
1.649258005e-21
2.32339292e-21
1.096960441e-21
1.629784439e-20
1.094827547e-20
3.319295014e-20
8.578882313e-22
5.940617475e-21
1.391300146e-21
2.089006273e-20
3.312976948e-21
5.288180041e-21
3.283261933e-20
2.685112561e-21
3.952003615e-21
6.623190159e-21
9.16728705e-21
3.554852179e-21
1.187499404e-20
3.194882723e-21
2.221813422e-20
3.406103633e-21
8.090536485e-21
3.709977121e-21
3.300830217e-21
1.634099503e-20
1.766069741e-20
5.953983495e-21
2.372438603e-20
1.169503489e-21
7.353867882e-21
1.767457787e-20
1.661263277e-20
8.557550067e-21
3.405875582e-20
1.776244867e-21
1.773790449e-21
2.0154714e-20
1.74354788e-20
2.521471721e-20
1.104879783e-20
1.546172127e-20
3.234388909e-21
1.810366691e-20
5.411433948e-21
6.702208284e-21
1.854600745e-20
6.29073413e-21
8.974571792e-21
1.328717147e-20
4.460603597e-21
3.703969053e-21
1.571288179e-20
9.782573599e-21
1.168565805e-20
3.993589807e-21
2.110536852e-20
4.117127378e-21
1.077071463e-21
1.186471504e-20
4.885414381e-21
6.173789596e-21
3.329597458e-20
3.960825908e-21
2.77081788e-21
7.137701403e-21
1.034678839e-20
2.965017253e-21
1.0999087e-21
3.191314322e-21
1.349878262e-21
4.91680112e-21
1.133628209e-20
1.406637658e-21
9.028733682e-21
1.652113094e-20
2.517612683e-20
1.722049885e-21
7.448958354e-20
6.795999079e-21
5.814924767e-21
5.271467997e-21
1.836181188e-20
9.209515019e-22
5.61680103e-20
8.521599154e-21
9.512294018e-22
3.549948924e-21
1.326060526e-20
7.237493174e-22
7.296630443e-21
4.208854281e-20
4.643669182e-22
3.517604306e-21
2.280122042e-20
1.426276303e-20
1.504407492e-20
1.110672095e-20
1.80923367e-20
2.677836067e-21
1.344194362e-20
4.310003697e-21
1.137003934e-20
6.144671622e-21
6.398993718e-22
3.725599602e-21
9.139518359e-21
3.104090796e-20
6.558145359e-21
2.939023522e-21
5.850205006e-22
7.72354655e-23
3.666053479e-21
9.203636217e-21
1.782120144e-20
5.882059333e-22
1.381485498e-21
1.555384298e-20
6.933827632e-21
3.36653879e-21
1.114100291e-20
3.741851256e-21
2.466788371e-21
6.00227849e-21
1.970432904e-21
2.979976123e-21
1.408401804e-20
3.42819991e-20
3.53553132e-21
1.493452245e-20
9.515750463e-21
1.311290482e-20
1.657028791e-21
2.181336764e-20
1.0959803e-20
4.560923819e-21
1.179408704e-20
2.941954955e-21
1.148373643e-20
5.145983644e-21
6.59061096e-21
8.440950703e-21
6.149808282e-21
1.123824194e-20
9.363090884e-21
1.838129544e-21
3.65643633e-20
4.270974042e-21
1.562557131e-21
1.846126922e-20
5.957378658e-21
2.971500537e-21
2.275204469e-22
1.477874989e-21
3.520814029e-21
1.915953968e-21
1.508221563e-20
1.191327084e-20
8.120859613e-21
5.119382327e-20
3.054474013e-21
5.040343914e-21
2.559301047e-21
2.101884872e-20
1.199282267e-20
7.295481876e-21
6.357682227e-21
4.465752866e-21
8.061199232e-21
1.649805314e-20
2.596626605e-21
1.035781899e-21
3.849696058e-20
1.027532635e-21
2.115069456e-21
7.655471873e-22
2.045843834e-20
2.474331892e-20
2.735549887e-20
1.347589886e-20
2.287167772e-20
1.491161323e-20
1.489505247e-20
1.435016757e-21
7.564262709e-22
2.101448573e-20
3.655165439e-20
7.410543698e-22
2.175793353e-21
1.44258858e-21
2.949021628e-20
1.009255346e-20
4.785864715e-21
3.245013482e-21
1.381533582e-20
5.16415948e-21
1.284224114e-20
1.966720371e-20
6.367334828e-22
1.307312217e-21
1.773140717e-20
1.595459691e-20
3.427896939e-21
4.919964904e-21
4.645142387e-21
6.97682177e-21
5.434853576e-21
1.383494799e-21
6.112019085e-21
1.116665215e-20
2.521080655e-20
2.625392163e-21
1.166730154e-20
1.426228396e-20
6.014412329e-21
4.449300362e-21
9.149298792e-21
3.697003349e-21
4.125849848e-21
1.018257625e-20
1.500277349e-21
4.876285121e-22
3.990570718e-21
9.794551135e-21
1.669803394e-20
4.99558607e-21
2.615506596e-22
1.452580051e-20
3.738298034e-21
1.375793345e-21
5.042651201e-21
4.412799057e-21
5.337728496e-22
3.051839165e-20
7.34070101e-21
1.45661085e-20
8.732701405e-21
9.842657011e-21
4.958661638e-21
1.687041533e-21
5.870558499e-21
5.941842907e-21
1.33137439e-20
3.639193373e-20
9.198969973e-21
8.049515279e-21
5.720386989e-22
1.610774293e-20
2.987828856e-20
1.744967208e-21
7.460746169e-21
9.759612403e-22
1.431974893e-21
2.027839772e-20
4.072440286e-21
7.823907594e-21
1.008423647e-20
3.266934596e-20
1.228668224e-21
7.106231362e-21
1.462341022e-20
2.021015086e-21
3.35987019e-21
2.092505031e-20
5.485659842e-20
1.794943919e-21
2.373177708e-20
1.847803425e-21
3.886026731e-23
4.607464516e-21
3.124704545e-21
2.315604095e-20
1.325527535e-20
6.934368548e-22
1.340452675e-20
2.963548268e-21
3.870670002e-22