/*--------------------------------*- C++ -*----------------------------------*\
| =========                 |                                                 |
| \\      /  F ield         | OpenFOAM: The Open Source CFD Toolbox           |
|  \\    /   O peration     | Version:  2406                                  |
|   \\  /    A nd           | Website:  www.openfoam.com                      |
|    \\/     M anipulation  |                                                 |
\*---------------------------------------------------------------------------*/
FoamFile
{
    version     2.0;
    format      ascii;
    arch        "LSB;label=32;scalar=64";
    class       labelField;
    location    "0.003/lagrangian/dsmc";
    object      origId;
}
// * * * * * * * * * * * * * * * * * * * * * * * * * * * * * * * * * * * * * //


9499
(
101938
107612
110192
111566
114734
115109
115298
116342
118778
116326
115693
118680
116955
120501
116115
117843
119836
119893
122960
120750
122674
114059
123363
119192
123672
121434
122048
121423
120804
122978
123909
122880
119423
123502
127972
125315
125013
125221
121545
124512
125248
125340
124317
124848
126030
121623
123916
125543
122607
123983
124916
126169
119917
127092
127379
127187
125432
122449
126870
127384
129510
125744
127391
128308
127591
123595
126744
127485
127906
125730
127662
128673
123874
126853
127811
128201
127503
127573
127772
128189
127878
128492
127477
127694
128406
128820
128804
129096
124503
128009
128328
129036
129558
123682
128515
129439
124101
131642
124836
129729
122875
126472
127877
128226
129138
129622
129933
126556
130038
127062
130422
130744
125521
127249
129405
126553
127266
127989
129137
129531
129534
125552
128278
129207
130565
128797
129108
129951
131174
122554
129105
129533
129829
129842
128188
130475
129235
131247
128573
129830
130031
130683
127997
131902
122153
129322
130219
130335
130447
130632
130665
129045
129451
129753
129967
130117
131374
132166
129743
130952
126937
127993
128185
128933
129730
130853
131570
126859
128192
131033
131491
132109
132391
131383
132266
129620
129852
130328
131038
131380
128290
131273
131382
129932
131255
131576
131667
126238
131258
131553
128891
129120
129553
129646
131142
131664
131763
131786
130733
131271
131363
131967
132095
132408
128785
131043
131385
131490
131602
123160
128711
130884
131370
131795
132731
132815
133409
126552
126741
126972
129749
130033
130541
131141
131171
131186
131249
132263
132706
133206
129715
130955
130971
131562
131742
132084
132299
132901
132978
135644
131386
131789
133342
129227
129301
129409
130428
130940
131159
131367
132130
129202
126841
128087
128679
132609
133406
129516
129539
131975
133110
133202
134126
124915
129923
130567
132481
132699
135128
127259
128586
129233
131461
132382
133012
134002
127056
130347
130581
132502
130209
131962
132378
132924
133120
133175
134144
129839
133205
133405
133797
134247
133531
133845
134243
127480
129530
130575
131692
128082
128724
130437
131552
131774
132804
133340
133640
131868
132777
132973
133003
133308
133831
131582
132605
132702
132809
133643
133838
134320
134717
135061
128210
129926
130035
131365
131571
131679
131854
132292
132990
133288
134439
134965
124126
128490
127577
130331
131596
133004
133489
134716
130963
132888
133083
133915
133936
134118
134580
132394
134669
134984
130225
131253
132620
132773
133095
134034
134310
132774
132904
133292
134047
135541
123373
132100
134122
134193
127693
129005
130553
133096
133118
133224
133502
133895
134677
134860
126739
131891
133416
133501
133524
133728
133950
135663
129606
130119
133483
134229
134934
136549
131272
132091
132520
133523
134848
134988
135639
133716
129713
132566
134130
135047
135120
129238
130944
131055
133085
135347
135485
136116
132902
133730
134890
135042
135249
135251
135275
135451
136046
136180
136761
136994
132163
132178
132187
132582
132684
133193
135135
135240
135697
132970
133911
134013
134164
134648
134913
135065
135158
135368
135743
135962
133597
132884
133086
133179
134442
135361
135383
135478
136102
136674
131947
125320
131673
132616
133617
133893
134429
134857
134920
135782
136042
131248
132425
132999
134932
135331
135658
135675
137481
131144
134453
134645
135154
135267
135454
136078
136374
132491
133203
134719
135050
136275
132456
132477
133919
134134
134543
135771
128915
130231
130857
130953
132694
133204
135125
135344
135569
136413
136510
137624
137626
129435
128395
131965
131966
134347
135466
135576
135666
135877
136171
136597
133596
135247
135561
135853
135871
136760
136992
139827
134103
134143
134331
134832
135045
136051
136600
136889
136982
137516
131979
134529
135363
135812
136354
136795
137438
138710
132189
133611
134632
135134
135335
135898
136596
136684
136806
136817
137354
137419
135309
135682
136580
137234
134125
134930
135338
135892
135944
136067
136589
136696
136773
136797
136886
137009
137326
137407
137412
137487
137497
137674
133897
134127
134217
134303
134528
135052
135343
135429
136352
136484
136865
136995
137051
137189
137531
137630
127776
133724
134207
135151
135254
136059
136070
136181
136582
136807
136991
137425
138293
138501
129127
129721
131467
135482
135655
135881
135886
135976
136073
136251
136608
136671
137208
137298
137506
137962
138233
138340
140446
130935
134631
131135
132476
134113
135665
135885
137199
137331
137391
137432
137498
137633
138025
138500
132508
133717
134524
135016
135446
136178
136555
136923
137317
137401
137714
137827
138358
138495
138906
132180
132170
132591
134149
134440
135350
135780
136493
137490
137821
138245
129616
136548
128781
133632
134318
134644
135138
135651
136208
136264
136454
136573
136690
137194
137433
137601
138083
138237
130948
133802
136452
136513
136822
137277
137313
137494
137637
137699
137859
137920
137929
138190
138679
138820
140546
134323
134634
134774
137510
137673
137930
138120
138219
138450
140239
130843
135150
136550
136780
136871
137090
137201
137245
137833
138113
138152
138319
138637
132063
134225
134740
135861
135868
135875
136074
137184
137340
137687
137817
137891
137912
137933
138522
138546
138705
138837
140240
131056
134431
134441
135250
136260
136274
136391
136799
137430
137439
137595
137737
138085
138138
138507
139078
139581
136062
136253
136451
136453
136911
137183
137717
137727
137807
137937
137991
138295
138562
139046
141565
129822
132995
136879
137081
137108
137598
137608
137776
137900
137902
138205
138629
138729
139137
139450
134718
132881
133697
134948
135847
136888
137197
138241
138328
138927
139263
139521
139653
133786
129324
132169
134536
135121
135752
135852
136245
137708
138121
138341
138346
138433
138641
139013
139052
139149
139363
139444
139492
131549
133511
133913
134534
134960
135974
137206
137399
137402
137416
137590
138235
138547
138571
138608
139060
139256
139769
140060
140373
140448
134033
134104
135148
135346
135438
136791
136885
136988
137203
137300
138422
139152
139321
139369
136357
132674
135227
135245
135674
135840
136355
136790
137078
137200
137505
137730
137928
138204
138300
138515
138539
138907
139655
140133
140278
140364
135957
137304
137603
138119
138752
138921
139138
139153
139160
139207
139741
132812
134128
134410
135146
136284
136348
136867
137195
137309
137803
138041
138109
138424
138462
138529
138542
138844
139123
139224
139565
140026
135017
129222
130966
131654
134438
134846
136061
136460
137804
138013
138209
138311
138315
138429
138543
138651
138912
138942
140267
133608
127396
132065
133490
134237
135769
135943
136169
136570
137282
137760
137876
138197
138895
138965
139170
139239
139249
139978
140749
136147
132396
138105
133493
135857
136153
136973
136975
137732
137917
138201
138398
138770
138845
139323
139347
139449
139550
139621
139679
140644
133701
136669
136781
137286
137789
138324
139236
139250
139365
139422
139560
139570
139659
139919
139959
139979
140794
130420
135542
136359
137105
137500
137604
138520
138538
138560
138718
138940
139034
139037
139049
139245
139300
139459
140041
140058
140177
140265
140699
133782
134133
134754
138199
138498
138605
138941
138970
139016
139156
139244
139537
139562
139746
139950
140197
140380
135854
135872
136060
138532
138631
138647
138721
139345
139451
139966
140163
140418
140587
140752
141110
141190
142591
136049
136400
137496
137695
138004
138619
138823
139020
139105
139349
139418
139438
139676
139875
139939
140483
140588
142491
137411
134511
135646
136057
136966
137388
137612
137982
138925
139339
139473
139568
139748
139872
139917
139922
139941
139947
140160
140170
140174
140259
140377
140384
140451
140473
141187
138294
135760
136041
138099
138307
138314
139056
139230
139436
139749
140070
140190
140582
135844
133922
134856
136779
137077
137488
138082
138126
138937
139045
139120
139234
139240
139443
139478
139662
139775
139970
140087
140286
140361
140664
140713
140994
141086
141172
134325
135661
137800
137813
138196
138840
139544
139757
139905
140045
140067
140367
140382
140685
140795
141021
136368
139543
132607
138505
138739
139442
139638
140062
140608
140781
140783
140857
140997
141060
141155
141317
141682
138442
138614
138623
139233
139946
140284
140376
140668
140763
140869
141010
141182
141228
142894
130315
134218
138536
137495
137773
137888
137924
138735
138829
138923
139130
139353
139843
140053
140379
140383
140392
140470
140577
140701
140785
140827
141140
142187
134520
137588
138007
138187
138192
138214
138736
138938
139148
139346
139636
139664
140022
140604
141104
141290
141632
141716
138320
138135
134039
136956
138530
138728
139352
139640
140034
140049
140290
140291
140422
140769
140777
140779
140910
141100
141298
127058
133692
136875
137996
138220
138407
138704
138750
138928
139053
139378
139759
140046
140069
140355
141381
120864
141505
142051
143518
134446
134917
135680
135858
135958
136962
137400
137584
137834
138753
138834
139336
139869
140335
140517
140641
140657
140885
140969
140971
141094
141287
141612
141714
141990
142246
138216
142082
133627
139051
139750
139841
139968
140071
140262
140375
140449
140486
140502
140571
140667
140812
140951
140993
141058
141508
141605
141731
142208
130950
139445
132272
137085
137511
139921
140148
140164
140648
140669
141762
141822
142006
138401
139011
139357
139417
139723
139842
139866
139948
140879
140892
140975
141079
141306
141484
141595
141941
142164
142463
136365
137589
138408
138416
138494
139055
139643
139682
139731
139953
140136
140161
140171
140806
141004
141292
141419
141601
141625
141706
141712
141842
141992
142023
142143
142321
142388
135761
136676
137909
137921
138725
138765
139645
139656
139772
140059
140077
140138
140352
140602
140672
141180
141669
141707
141809
141900
141922
141929
142205
142627
142797
142798
140750
132080
135534
137396
138525
138824
139019
139429
139635
139929
140167
140279
140339
140403
140897
140977
140992
141072
141191
141203
141270
141279
141599
141789
141810
141823
141907
143121
143519
143715
135030
132787
136560
137710
139029
139330
139355
140162
140419
140572
140583
140751
140791
140804
140820
141071
141098
141157
141211
141460
141504
141531
141581
141920
141949
142303
142324
142488
142492
142836
142997
136266
136878
137517
137616
137913
138110
138203
138954
139467
139584
139627
139724
139848
140294
140459
140728
140861
141188
141295
141297
141311
141400
141653
141801
141805
141915
141937
141947
142000
142024
142221
142318
142723
143012
137191
137491
137509
138212
138526
138734
138830
139131
139358
140232
140238
140662
140771
141052
141092
141171
141173
141374
141412
141492
141827
141831
142289
142311
142312
142317
142436
142687
142741
142816
143039
141560
137193
137802
138732
138922
140251
140256
140479
140780
140787
141474
141498
141557
120170
141604
141665
141667
141840
141881
142226
142760
142846
142998
143059
136358
137811
138305
138496
138727
139243
139940
140063
140456
140468
140678
140775
141174
141305
141689
141710
141781
141800
141896
142083
142134
142209
142316
142405
142431
142437
142489
142536
142631
142967
143038
137895
136463
138396
139651
140264
140547
140570
140700
140865
141475
141478
141570
141578
141594
141607
141825
142160
142227
142412
142432
142824
142850
142913
143258
143345
143412
143545
143565
144223
140242
131659
138301
138726
140144
140406
140462
140968
141177
141259
141579
141666
141693
141703
141794
141799
142013
142502
142580
142598
142649
142661
142832
142923
142944
143027
143534
143587
143717
134834
139547
139652
140270
140555
140597
141131
141185
141193
141392
141489
141617
141684
141686
141771
141926
142011
142028
142325
142419
142439
142600
142746
142922
142957
143031
143223
143614
143758
144226
146269
141153
138089
138211
139747
140028
140458
140564
140784
141059
141118
141481
141497
142022
142118
142123
142504
142531
142704
142722
142724
142918
142926
142943
143020
143032
143143
143195
143446
143453
143455
143636
143641
140688
136691
137292
137681
138915
139142
139824
140400
141080
141383
141520
141611
141702
142076
142104
142190
142349
142418
142452
142705
142713
142842
142910
143095
143105
143360
143409
143670
143740
143963
137275
138080
138910
139530
139945
140237
140366
140748
140970
141221
141234
141499
141500
141795
141832
141909
142314
142403
142413
142625
142641
142659
142727
142737
142800
142812
142908
142920
143048
143159
143190
143200
143233
143309
143541
143637
144527
145759
139934
135759
135967
137826
139124
140055
140258
140349
140362
140553
141066
141376
141384
141668
142105
142243
142307
142331
142395
142605
142814
143157
143241
143436
143716
143718
144372
142991
139104
139536
139728
140135
140552
140768
140873
140929
140965
141009
141061
141064
141314
141363
141385
141720
141732
141782
141806
141875
142079
142101
142260
142424
142510
142535
142544
142709
142733
142752
142807
142829
142835
142911
143005
143046
143342
143405
143599
143839
144252
144280
145560
145665
135772
136959
138511
138813
139327
140859
141282
141389
141738
141783
141813
141874
141887
141931
142047
142135
142301
142319
142506
142512
142573
142628
142765
142822
142823
142912
143125
143218
143259
143348
143543
143618
143630
143649
143682
144030
144149
144208
144228
136566
136984
137798
137998
138410
138413
139933
140385
141808
141998
142088
142149
142202
142214
142242
142389
142447
142511
142516
142523
142590
142711
142738
142820
142837
142859
143131
143339
143394
143406
143433
143452
143539
143544
143554
143590
143658
144062
144459
144937
137889
145459
123081
136659
138011
138423
140457
141267
141393
141761
141811
142200
142425
142500
142515
142635
142930
142995
143047
143094
143099
143130
143140
143329
143335
143506
143676
143698
143757
143858
143955
143964
144155
144472
144484
144490
142391
134617
134622
136250
137294
137686
138514
139551
140246
140578
140670
141178
141694
141715
141791
141878
141995
142091
142113
142132
142287
142306
142309
142427
142702
142811
142860
142891
142931
142946
143009
143111
143149
143197
143224
143448
143470
143573
143619
143680
143779
143792
143846
143987
144005
144098
144133
144171
144258
144274
144286
144583
145352
146577
140661
139519
139642
140208
140758
141366
141982
142007
142274
142613
142673
142849
142956
142971
143025
143118
143124
143134
143246
143255
143350
143553
143655
143819
143848
143892
143905
143960
143965
144065
144122
144456
144936
138345
142402
135956
136254
138917
139834
141583
142127
142194
142414
142442
142524
142532
142550
142588
142833
142938
143429
143549
143551
143569
143902
143991
144026
144089
144529
144732
144934
145016
143098
142794
137788
138418
140557
140756
141602
142217
142336
142351
142718
143119
143457
143459
143489
143574
143726
143753
143953
144034
144086
144103
144176
144306
144393
145149
146372
135638
139028
139721
140653
141276
141371
141377
141779
141994
142036
142092
142337
142350
142793
143008
143044
143054
143064
143139
143250
143317
143364
143464
143472
143558
143563
143659
143750
143759
143774
143799
143860
143941
143998
144058
144180
144193
144257
144262
144357
144365
144579
144777
145861
145965
136663
139334
139541
140142
141571
141696
141798
141993
142114
142297
142344
142620
142650
142714
142717
142736
143166
143174
143196
143319
143326
143380
143431
143445
143575
143580
143746
144048
144147
144363
144446
144451
144462
144464
144650
145203
145507
143954
134532
140631
139216
140253
140654
140894
141181
141299
141614
141787
142005
142075
142399
142415
142696
142827
143037
143226
143349
143474
143559
143570
143615
143648
143662
143663
143752
144118
144135
144454
144628
145232
145664
131681
136561
136778
137596
138521
139246
139725
140358
140561
140660
140680
141065
141260
141767
142109
142126
142198
142401
142420
142433
142473
142601
142719
142818
142831
143042
143162
143215
143272
143460
143527
143532
143567
143647
143754
143834
143887
143938
144003
144057
144072
144085
144142
144148
144231
144238
144301
144443
144563
144838
144880
145201
145361
146066
138534
138816
140150
141394
141406
141473
141676
141898
141996
142124
142258
142326
142392
142632
142712
142924
143264
143351
143454
143613
143633
143638
143652
143671
143742
143786
143814
143840
143944
143966
144066
144587
144730
144804
144874
144891
145314
147903
122997
136981
137887
140348
140474
140871
140882
141906
142188
142203
142304
142518
142614
142621
143222
143254
143270
143312
143451
143529
143642
143729
143743
143852
143853
143961
144025
144060
144074
144123
144373
144376
144664
144676
144760
144935
144989
145039
145045
145070
145083
145151
145392
145483
145494
146299
146376
141458
142416
137796
138318
139135
139831
139920
140889
141316
141890
141918
142295
142308
142423
142517
142935
142952
143051
143141
143225
143321
143447
143538
143712
143727
143739
143828
143845
143856
143957
143962
144028
144055
144059
144162
144163
144169
144263
144397
144474
144480
144487
144502
144552
144555
144560
144618
144670
144686
144758
144764
144820
144892
144903
145289
145407
145500
123506
145686
139733
137287
140048
140275
140360
140760
141165
141889
141985
142102
142119
142428
142697
142708
122176
142945
143010
143014
143230
143313
143323
143381
143526
143660
143674
143678
143732
143744
143854
144052
144146
144232
144283
144374
144408
144438
144482
144510
144539
144553
144662
144677
144702
144746
144876
144878
145006
145052
145105
145416
145503
145609
145712
146232
138308
138516
139232
140565
140788
141049
141459
141777
141924
142728
142847
143208
143371
143410
143531
143542
143632
143644
143755
143823
143837
143855
143877
143984
144043
144134
144177
144266
144267
144378
144457
144470
144567
144584
144666
144674
144776
144964
145056
145061
145073
145093
145128
145298
145381
145487
145525
145794
145889
145909
146129
146888
147601
137111
148528
143616
136464
137076
138607
138827
139214
139325
139527
140908
141261
141296
141359
142099
142129
142210
142300
142313
142404
142597
142744
142802
142996
143018
143287
143332
143666
143736
143738
143751
143760
143775
143780
143986
144064
144082
144083
144154
144240
144253
144254
144293
144366
144383
144434
144468
144562
144568
144570
144592
144639
144649
144679
144698
144712
144770
144785
144789
144851
144860
144868
144908
144909
145012
145182
145190
145249
145351
145389
145603
137202
139522
139930
140152
141258
141461
141681
141980
141981
141997
142182
142216
142616
142703
142843
143137
143138
143221
143424
143535
143578
143650
143745
143773
143838
143882
143891
143911
144075
144225
144260
144321
144345
144360
144367
144402
144546
144603
144667
144692
144727
144751
144778
144782
144796
144862
144890
144972
144974
144984
145053
145059
145067
145102
145187
145195
145250
145282
145312
145317
145375
145398
145421
145457
145496
145722
145768
146004
146373
124302
147492
139727
124391
136547
141598
142215
140568
141370
141378
141558
142315
142640
142901
143198
143229
143237
143366
143516
143568
143657
143776
143927
143971
144080
144120
144138
144185
144248
144251
144259
144346
144386
144450
144455
144475
144556
144671
144728
144881
144959
144961
144970
144983
145176
145290
145300
145374
145475
145569
145607
145614
145867
146189
146217
146518
123696
138342
139111
140766
140973
141786
142292
142387
142505
142796
142940
143443
143477
143550
143635
143696
143768
143772
143822
143825
143937
144032
144033
144041
144045
144051
144091
144108
144151
144159
144172
144194
144344
144476
144522
144543
144550
144582
144654
144877
144895
144941
144946
144978
144991
145063
123586
145152
145177
145215
145228
145384
145391
145394
145408
145523
145550
145605
145656
145683
145701
145717
145744
145836
146987
132279
140477
138831
139936
140363
140454
140544
140856
141274
141277
141590
142407
142529
143021
143847
143861
143893
144273
144351
144388
144447
144706
144749
144792
144850
144887
144995
145041
145058
145077
145086
145088
145156
145184
145185
145279
145306
145501
145634
145678
145700
145816
145827
145859
145913
146007
146100
122894
134305
124397
124922
139026
140247
141976
142096
142592
142612
143030
143120
143557
143827
143864
144038
144141
144165
144355
144371
144571
144642
144647
144775
144780
144825
144861
144864
144950
144969
144994
145096
145161
145174
145181
145227
145247
145305
145309
145318
145410
124641
145674
145718
146159
146200
146219
146290
146680
146825
147094
124556
147397
135015
136373
137071
138509
138615
139420
140147
140342
140345
140365
141886
142110
142411
142610
142893
142928
143430
143555
143719
143756
143976
144049
144067
144070
144168
144270
144276
144381
144440
144448
144574
144740
144768
144787
144900
144956
144967
145095
145113
145124
145179
145180
145276
145278
145377
145378
145477
145519
145599
145600
145608
145616
145621
145654
145679
145680
145694
145703
145709
145787
146098
124815
146180
123334
146340
146368
146474
146528
123850
143115
142290
142396
143315
139227
139426
139628
140064
141470
142222
142486
142742
142848
143418
143536
143592
143762
143789
143870
144129
144132
144250
144310
144665
144689
144741
144774
144801
144885
144899
144938
144960
145010
145027
145064
145091
145098
145119
145260
145326
145396
145400
145409
145448
145474
145491
145498
145531
145638
145693
145758
145785
145790
145824
145858
145886
145911
145988
146021
146026
146083
146086
146104
146149
146215
146221
146337
146402
146613
146806
141164
143411
123498
124830
139531
140153
140999
141179
141770
142201
142595
142840
142936
143213
143235
143327
143330
143331
143434
143548
144126
144152
144481
144544
144564
144604
144659
144794
144835
144853
144867
144875
144906
144992
144999
145007
145029
145085
145175
145268
145404
145422
145502
145577
145596
145602
145619
145624
145633
145676
145689
145695
145788
145810
145817
145823
145928
146005
146103
146115
146124
146182
146198
146235
146285
146345
146404
146421
146499
146507
146719
148315
148426
124123
133790
137915
140143
140658
141257
142417
143419
143556
143564
143869
143871
144054
144157
144161
144277
144478
144498
144541
144551
144663
144726
144773
144863
144977
145074
145079
145106
145122
145194
145206
145299
145395
145402
145497
145516
145613
145720
145802
145807
145812
145819
145841
145896
145987
146010
146018
146080
146318
146357
146374
146391
146555
146702
146718
146863
147093
147112
147600
125720
139447
140855
141636
141784
142521
142929
143114
143320
143413
144309
144461
144534
144557
144644
144841
144852
144873
144958
145101
145196
145293
145294
145297
145359
145414
145505
145585
145622
145627
145685
145723
145831
145869
145904
145991
146003
146013
146036
146102
146106
146125
146170
146187
146202
146416
146418
146423
146444
146598
146746
146808
146817
123753
146962
146986
147027
147300
147732
148424
125797
126054
124816
137192
144349
139448
139735
140030
140759
141479
142195
142507
143108
143247
143818
143900
144217
144244
144385
144437
144538
144559
144566
144675
144681
144790
144883
144932
144971
145003
145084
145148
145189
145286
145302
145386
145423
145486
145492
145526
145597
145692
145697
145708
145746
145748
123758
145881
145888
145982
146025
146071
146109
146111
146118
146188
146245
146262
146326
146333
146471
146511
146516
146564
146649
146736
146790
146827
148114
141769
142603
139830
140746
141154
143325
143403
144050
144237
144429
144435
144549
144565
144629
144755
144844
144847
144884
144973
145004
145186
145216
145264
145325
145366
145403
145509
145532
145571
145592
145610
145711
145752
145795
145801
145813
145899
145916
145952
146034
146048
146117
146185
146304
146389
146410
146436
146504
146550
146624
146815
147804
124923
143442
141893
144846
141067
141999
142094
142095
143035
143216
143749
143829
144449
144489
144704
144744
144839
144879
144966
145153
145204
145380
145488
145513
145548
145815
145846
145879
145891
145906
145917
145981
146184
146208
146214
146225
146229
146291
146297
146412
146413
146508
146514
146536
146655
146678
146821
146943
147061
147141
147151
147231
147299
125612
125092
138909
139648
140770
143106
143112
143577
144239
144322
144524
144754
144976
144986
145076
145256
145277
145316
145376
145493
145514
145564
145573
145574
145575
145576
145589
145705
145780
145786
145820
145951
146008
146011
146014
146016
146019
146065
146067
146196
146292
146298
146322
146388
146479
146505
146515
146519
146525
146529
146604
146614
146630
146635
146812
146822
146826
146953
147055
147298
147328
147357
125342
148353
149338
139133
139844
141369
143737
144256
144439
144586
144631
144807
144865
145146
145173
145192
145224
145295
145349
145456
145572
145604
145620
145658
145663
145707
145782
145805
145870
145874
145890
145903
145945
145946
146038
146091
146095
146101
146122
146130
146150
146172
146226
146279
146324
146325
146401
146430
124118
146488
146502
146533
146694
146734
146759
146776
146803
146835
147031
147118
147161
124390
147375
147442
147471
147546
124992
147882
149038
125006
140772
140990
141372
141790
142615
143304
143337
143932
144380
144837
144845
145208
145251
145388
145466
145557
145587
145601
145642
145749
145897
145947
145996
145997
146126
146141
146222
146323
146342
146347
146394
146395
146419
146431
146445
146450
146485
146541
146562
146600
146615
146616
146629
146631
146687
146713
146737
146871
146959
146969
147020
147114
147127
147367
147698
147863
148083
148213
148425
148524
124742
139839
139944
141063
141418
142012
142087
142406
142729
142817
143311
143952
144968
144979
145170
145211
145219
145296
145482
145536
145727
145766
145771
145797
145830
145871
145907
145914
145975
145984
145992
146001
146058
146110
146128
146178
146223
146267
146311
146399
146408
146439
146472
146495
146521
146582
146617
146622
146632
146638
146720
146728
146743
146810
146854
146907
146915
147019
147066
147155
147169
147253
147261
147347
147400
147427
147476
147479
147774
124820
147941
146365
141987
142197
142291
142299
142522
142587
143322
143333
143521
143528
143627
143629
143844
143996
144340
144430
144452
144453
144757
144953
145159
145469
145511
145595
145629
145687
145773
145800
145900
145918
145980
146009
146028
146040
146108
146131
146148
146186
146331
146332
146344
146349
146403
146424
146442
146483
146539
146581
146584
146620
146636
146662
146668
146673
146681
146696
146715
146727
146730
146753
146807
146833
146877
146951
146991
147033
147051
147124
147245
147336
147997
145660
145943
125799
125710
143242
125009
140569
142009
142896
143004
143770
144044
144723
144747
144788
144855
144923
144940
144981
145009
145023
145248
145272
145373
145485
145508
145580
145594
145598
145617
145637
145681
145775
145781
145793
145796
145818
145885
145902
145919
145922
146015
146023
146030
146044
146116
146146
146203
146233
146289
146335
146434
146468
146469
146482
146503
146546
146557
146641
146651
146669
146925
146928
146946
147028
147070
147110
147146
147150
147170
147180
147189
147254
147258
147266
147352
147360
147423
147433
147438
147469
147536
147620
147659
147674
147729
148284
148526
148727
141697
125626
141195
142701
143007
143210
143849
143933
144888
145155
145321
145363
145385
145390
145397
145399
145470
145636
145791
145804
145837
145985
146020
146127
146162
146211
146238
146296
146309
146312
146330
146435
146446
146494
146500
146513
146605
146609
146647
146660
146703
146782
146836
146838
146839
146844
146917
146922
146930
146963
146965
146968
147037
147081
147195
147212
147217
147229
147239
147249
147259
147333
147518
147526
147658
147688
147808
147852
125878
148053
148108
148277
148510
124660
124069
137001
138127
141768
142098
143205
143421
143438
144069
144648
144759
144783
144985
145042
145164
145263
145287
145291
145476
145522
145757
145767
145806
145811
145872
145877
145929
145986
146134
146265
146300
146302
146303
146411
146524
146608
146621
146639
146646
146650
146701
146710
146766
146787
146816
146923
146955
146958
146983
146993
147025
147034
147048
147063
147067
147119
147154
147225
147251
147255
125249
147428
147431
147480
147528
147531
147663
147824
147869
147870
147928
148828
144192
124845
139335
141380
143427
144027
144037
144657
144866
145283
145303
145472
145506
145529
145615
145774
145776
145784
145826
145901
145999
124902
146079
146197
146209
146216
146240
146247
146317
146321
146362
146369
146375
146398
146409
146414
146432
146481
146532
146537
146576
146595
146618
146708
146716
146717
146921
147038
147057
147107
147121
147129
147130
147143
147144
147156
147241
147270
147326
147363
147455
147512
147535
147549
147572
147587
147680
147821
147908
147938
126135
148144
126743
149437
125962
149849
142305
124818
126134
142490
125532
147588
140369
141388
141910
142606
143943
144369
144442
144715
144752
144849
145037
145075
145160
145178
145370
145706
145714
145809
145829
145848
145905
145915
145963
146137
146168
146306
146308
146405
146425
146448
146492
146522
146530
146610
146704
146712
146729
146738
146741
146745
146789
146801
146823
146837
146850
146898
146932
146952
147006
147012
147015
147049
147069
147140
147160
147162
147208
147322
147362
147390
147454
125515
147557
147653
147657
148086
148276
148372
148463
148465
148720
150571
144521
136362
146773
123021
138523
141877
142236
144264
144335
144542
144711
144848
144882
145057
145520
145567
145673
145979
145998
146212
146295
146352
146470
146543
146601
146633
146711
146781
146799
146857
146869
146883
146899
146934
146938
146999
147023
147062
147139
147227
147256
147272
147278
147295
147359
147373
147432
147449
147460
147504
147547
147568
147648
147665
147696
147743
147763
147792
147807
147844
147873
148117
148185
148188