/*--------------------------------*- C++ -*----------------------------------*\
| =========                 |                                                 |
| \\      /  F ield         | OpenFOAM: The Open Source CFD Toolbox           |
|  \\    /   O peration     | Version:  2406                                  |
|   \\  /    A nd           | Website:  www.openfoam.com                      |
|    \\/     M anipulation  |                                                 |
\*---------------------------------------------------------------------------*/
FoamFile
{
    version     2.0;
    format      ascii;
    arch        "LSB;label=32;scalar=64";
    class       Cloud<dsmcParcel>;
    location    "0.003/lagrangian/dsmc";
    object      positions;
}
// * * * * * * * * * * * * * * * * * * * * * * * * * * * * * * * * * * * * * //

9499
(
(0.2328567947 0.06539010558 1.084202172e-19) 20
(0.2433235036 0.0655767105 -4.33680869e-19) 21
(0.2374517502 0.1031096625 -4.33680869e-19) 201
(0.2511387842 0.08076908994 2.168404345e-19) 82
(0.2774109219 0.1007221551 -1.626303259e-19) 146
(0.2986526064 0.099952361 -2.168404345e-19) 119
(0.2814256427 0.152611387 2.168404345e-19) 416
(0.2830577878 0.1036101158 1.084202172e-19) 147
(0.2853553908 0.09776227756 -2.168404345e-19) 117
(0.2908032256 0.124467384 0) 268
(0.2862999448 0.07719722313 4.33680869e-19) 27
(0.275097645 0.1254760982 -1.084202172e-19) 296
(0.2435069163 0.08425876155 0) 111
(0.285284943 0.09199991916 0) 87
(0.2785381657 0.07535025831 2.168404345e-19) 26
(0.2748205576 0.15196605 -4.33680869e-19) 416
(0.2955720746 0.1288919565 4.33680869e-19) 298
(0.2848418483 0.08520711696 -1.626303259e-19) 57
(0.2553476447 0.08707157737 -2.168404345e-19) 113
(0.2456995226 0.08015707185 4.33680869e-19) 82
(0.2354125924 0.09704068759 -2.168404345e-19) 170
(0.3030658218 0.1367411258 -2.168404345e-19) 329
(0.2632626803 0.09517039957 -3.252606517e-19) 144
(0.2204232021 0.0892858514 0) 168
(0.2707461207 0.07719558435 5.421010862e-20) 25
(0.2304117834 0.06687584379 -2.710505431e-19) 20
(0.2926694503 0.1018792108 5.421010862e-20) 148
(0.2126621942 0.05867086607 1.084202172e-19) 17
(0.2912226549 0.0826813389 5.421010862e-20) 28
(0.2509651972 0.07882339243 -4.33680869e-19) 52
(0.2959090297 0.1055644532 -2.168404345e-19) 148
(0.27002303 0.07518049778 -1.626303259e-19) 25
(0.2673436047 0.09873929895 -2.168404345e-19) 145
(0.2876408427 0.07821624481 -2.168404345e-19) 27
(0.2859420096 0.1133067347 0) 207
(0.2367591395 0.08334837273 2.168404345e-19) 111
(0.2526448257 0.1069103262 0) 203
(0.2460495477 0.09469598382 2.168404345e-19) 142
(0.2261536203 0.1024068396 -4.33680869e-19) 199
(0.3032761063 0.1062210358 -2.168404345e-19) 149
(0.2895933759 0.08066136483 4.607859233e-19) 28
(0.2631133318 0.09116712153 5.421010862e-20) 114
(0.277466149 0.1459930837 -5.421010862e-20) 386
(0.269876022 0.1213346426 2.168404345e-19) 265
(0.2789147571 0.08768502079 2.168404345e-19) 86
(0.2873240334 0.09904627591 1.084202172e-19) 117
(0.3039926583 0.1553306714 -4.33680869e-19) 419
(0.2746413379 0.08846511285 -2.168404345e-19) 86
(0.2874403277 0.0869459433 1.084202172e-19) 57
(0.2926176378 0.08356156457 -4.33680869e-19) 28
(0.2617794231 0.0709403014 -2.168404345e-19) 24
(0.2502426261 0.06707570997 0) 22
(0.2872430602 0.09508580853 -2.168404345e-19) 117
(0.2987560611 0.08626607927 -6.505213035e-19) 59
(0.2698530594 0.1051851861 -1.084202172e-19) 175
(0.2293470006 0.0695407303 0) 50
(0.2768296514 0.08480597928 0) 56
(0.2485089147 0.07234389409 0) 22
(0.2658690109 0.08250163915 2.168404345e-19) 54
(0.2046932762 0.07120373891 -2.168404345e-19) 76
(0.2526744828 0.068881659 1.897353802e-19) 23
(0.2782686003 0.07766156566 0) 26
(0.2717442879 0.07536720367 5.421010862e-20) 25
(0.1770979498 0.0597087552 3.252606517e-19) 43
(0.2758757914 0.07989913603 0) 56
(0.2852108598 0.09348596504 -1.626303259e-19) 117
(0.2540159007 0.1012905587 2.168404345e-19) 173
(0.299712135 0.08165928507 1.084202172e-19) 29
(0.2804002595 0.08152642708 -2.168404345e-19) 56
(0.2756613512 0.1033025856 4.607859233e-19) 176
(0.2923756852 0.1034102495 1.084202172e-19) 148
(0.2520762172 0.06780833901 2.168404345e-19) 23
(0.2107709287 0.07245670406 0) 77
(0.2622059184 0.1072117878 -1.355252716e-20) 204
(0.2946497175 0.09798265997 -2.710505431e-20) 118
(0.2985365997 0.1129382152 3.252606517e-19) 179
(0.2473008596 0.09767402449 -3.252606517e-19) 172
(0.2739459095 0.09492959551 0) 115
(0.2836419047 0.07920939797 -1.084202172e-19) 27
(0.2980883771 0.0937312473 3.659182332e-19) 89
(0.2932457614 0.1306788893 -2.710505431e-19) 298
(0.1726067377 0.05161941663 -1.084202172e-19) 12
(0.2315912505 0.06832079816 0) 50
(0.2459413091 0.06863237721 -1.084202172e-19) 22
(0.2388028634 0.1090603538 -1.084202172e-19) 231
(0.2312728424 0.07790660173 4.065758147e-20) 80
(0.2643489366 0.07362473787 1.965116438e-19) 24
(0.1984122103 0.0786686132 -1.084202172e-19) 136
(0.2942910919 0.09136142639 2.168404345e-19) 88
(0.233303969 0.07509731872 2.168404345e-19) 80
(0.2975165201 0.1001926684 -1.084202172e-19) 119
(0.2928807304 0.1270130041 -1.084202172e-19) 268
(0.2705317142 0.09245199122 1.185846126e-20) 115
(0.231046758 0.1025479561 2.168404345e-19) 200
(0.2864639438 0.084188233 -1.084202172e-19) 57
(0.2772543085 0.08424670066 -2.168404345e-19) 56
(0.2502553058 0.1098612999 0) 232
(0.2730203616 0.07638458802 2.168404345e-19) 25
(0.2823371784 0.1514917133 -8.131516294e-20) 417
(0.2892564873 0.1042113361 2.168404345e-19) 147
(0.2341341946 0.08979837618 2.168404345e-19) 140
(0.2445087786 0.07117920633 1.626303259e-19) 22
(0.2412628383 0.1522574724 2.168404345e-19) 441
(0.2717878361 0.1210844933 7.623296525e-20) 265
(0.2923305698 0.1355292933 1.084202172e-19) 328
(0.2296145697 0.06635253032 -2.168404345e-19) 20
(0.3005281664 0.1286408199 -2.168404345e-19) 269
(0.2877147045 0.1044005642 2.168404345e-19) 147
(0.2348973692 0.06483313269 -1.084202172e-19) 20
(0.2702809634 0.1039430888 -5.421010862e-20) 175
(0.2685426701 0.07448341859 1.084202172e-19) 25
(0.1546721193 0.06787500967 1.084202172e-19) 130
(0.2491175105 0.08500813361 0) 112
(0.2970652364 0.1137437305 -2.168404345e-19) 208
(0.2605495043 0.1554835473 -5.421010862e-20) 444
(0.1902773079 0.06489546584 0) 74
(0.2850472109 0.08738369385 0) 57
(0.2515258165 0.090857761 -1.897353802e-19) 143
(0.1944329888 0.05447400256 0) 15
(0.2731002864 0.1316664749 2.168404345e-19) 325
(0.2318887151 0.1220777967 1.084202172e-19) 320
(0.2595565527 0.09227535864 2.337810934e-19) 114
(0.2116292155 0.05693434931 2.168404345e-19) 17
(0.2171305104 0.06539542477 -3.388131789e-20) 48
(0.2782249129 0.09807952318 2.168404345e-19) 146
(0.2423863381 0.07308891475 0) 51
(0.2578522865 0.1147428729 -2.168404345e-19) 233
(0.2497218513 0.07694054292 -4.33680869e-19) 52
(0.3008228105 0.1124280008 2.168404345e-19) 179
(0.2976543098 0.07998711304 0) 29
(0.2701407438 0.07447793204 -1.355252716e-19) 25
(0.2560547252 0.09801955948 -2.168404345e-19) 173
(0.2722261941 0.145270461 2.168404345e-19) 385
(0.2999848555 0.1020106783 -2.168404345e-19) 119
(0.2312563988 0.07712100355 1.626303259e-19) 80
(0.2918869218 0.09712402303 1.084202172e-19) 118
(0.2303534579 0.07746448155 0) 80
(0.2966257813 0.1449983491 -4.33680869e-19) 358
(0.2848141929 0.0854045233 -1.016439537e-20) 57
(0.2232500079 0.07099995092 -1.084202172e-19) 49
(0.2882919621 0.1006074486 -2.168404345e-19) 147
(0.2279722861 0.1048576303 3.252606517e-19) 229
(0.2253216009 0.1032612405 0) 229
(0.2530210981 0.06815028983 -2.168404345e-19) 23
(0.3031787115 0.1121525862 2.168404345e-19) 179
(0.2953038714 0.08232166615 2.168404345e-19) 28
(0.2564328112 0.09621576596 1.084202172e-19) 143
(0.2392234715 0.09214226749 0) 141
(0.2347450676 0.09241465299 -2.168404345e-19) 140
(0.2412126033 0.1032060275 -1.084202172e-19) 201
(0.2504626437 0.0927439907 -3.252606517e-19) 142
(0.2756637738 0.09047615187 2.168404345e-19) 86
(0.2503229695 0.06738024582 4.33680869e-19) 22
(0.2254497568 0.06868643928 0) 49
(0.3008258691 0.09768178922 -1.897353802e-19) 119
(0.2873814042 0.1235040083 -2.168404345e-19) 267
(0.2932229196 0.08846082204 0) 58
(0.2996940927 0.0945182928 -5.421010862e-20) 89
(0.2846354493 0.08476635351 4.065758147e-20) 57
(0.2674689705 0.08440906626 -3.252606517e-19) 85
(0.2858145695 0.1292903464 5.421010862e-20) 297
(0.2947047802 0.1089946728 -1.084202172e-19) 178
(0.2828241083 0.1172740724 0) 237
(0.2769767365 0.09195081015 0) 116
(0.2258396238 0.07831644867 -3.252606517e-19) 79
(0.2484880692 0.08352832746 4.878909776e-19) 82
(0.2856972142 0.09795969739 0) 117
(0.2533037576 0.06974690529 1.084202172e-19) 23
(0.2847618295 0.1055939904 1.084202172e-19) 177
(0.2831048166 0.1091580887 2.710505431e-19) 177
(0.2710562744 0.09081998952 -2.168404345e-19) 115
(0.2090686339 0.06802476539 0) 47
(0.2723460643 0.1079544911 -2.168404345e-19) 205
(0.2729685132 0.1008677421 -2.168404345e-19) 145
(0.304661848 0.09522004557 -1.829591166e-19) 89
(0.2654724062 0.1207860481 0) 264
(0.2539157371 0.1434348793 3.252606517e-19) 413
(0.2230496759 0.06177958432 2.168404345e-19) 19
(0.2583838942 0.07470087157 -2.168404345e-19) 23
(0.1883163169 0.09602614364 -1.084202172e-19) 224
(0.2013803866 0.06235778623 0) 46
(0.2169668729 0.06347537681 0) 18
(0.1662841214 0.09430028715 0) 221
(0.2591533471 0.08244020089 0) 84
(0.2051355896 0.08709530914 -2.168404345e-19) 166
(0.1633537647 0.06504120953 -1.084202172e-19) 101
(0.2852186868 0.1565935947 1.084202172e-19) 447
(0.2789728125 0.08585383889 0) 56
(0.2325558007 0.1097295393 2.032879073e-19) 230
(0.1911410567 0.06924239546 0) 75
(0.2544256654 0.07606160675 -1.084202172e-19) 53
(0.203353603 0.06886926045 0) 76
(0.2564624489 0.1271461298 2.168404345e-19) 323
(0.2346528466 0.06651562529 0) 20
(0.2140940846 0.06781420788 1.084202172e-19) 48
(0.291914437 0.09476647977 0) 88
(0.1866324086 0.0570150194 -4.81114714e-19) 44
(0.1918152107 0.09317563663 -1.084202172e-19) 195
(0.3018148751 0.1460036522 -5.421010862e-20) 359
(0.2919683353 0.1419003225 2.168404345e-19) 358
(0.2909352031 0.1207183872 1.084202172e-19) 238
(0.2789885327 0.1278934648 1.084202172e-19) 296
(0.2478158055 0.07610161882 1.626303259e-19) 52
(0.262329027 0.08729477146 0) 84
(0.2823708046 0.09493060183 0) 117
(0.2771284349 0.08929388929 -2.710505431e-20) 86
(0.2822500977 0.115623487 -1.084202172e-19) 237
(0.2939429105 0.1176019581 0) 238
(0.2255950719 0.06682594253 0) 49
(0.2727280309 0.07906025954 0) 55
(0.2979776689 0.1487995767 6.776263578e-20) 389
(0.2844369801 0.1293379225 2.168404345e-19) 297
(0.282510148 0.1196355403 0) 237
(0.2547305711 0.07277545922 2.168404345e-19) 23
(0.3000975848 0.09029746092 -4.33680869e-19) 59
(0.2419513692 0.1193296671 2.168404345e-19) 291
(0.2292525594 0.06617150186 0) 20
(0.1959290214 0.05445726684 0) 15
(0.2425715582 0.09256311029 -2.168404345e-19) 141
(0.2986384152 0.1330163698 3.252606517e-19) 299
(0.199192197 0.06532428789 3.794707604e-19) 46
(0.2732752082 0.1043217732 -2.439454888e-19) 175
(0.2943344092 0.08198859085 -3.252606517e-19) 28
(0.3025750818 0.08147883727 -2.168404345e-19) 29
(0.183073307 0.05905237076 5.421010862e-20) 44
(0.2801423387 0.09629923247 -4.33680869e-19) 116
(0.2186266045 0.1226790429 2.168404345e-19) 318
(0.2932014474 0.1389094069 -2.168404345e-19) 328
(0.2443823777 0.07943823591 2.168404345e-19) 82
(0.2979425525 0.07991218571 -2.168404345e-19) 29
(0.2442692219 0.09579370133 0) 172
(0.287839839 0.09150025103 0) 87
(0.2871378284 0.0802489942 0) 27
(0.2387302582 0.0707572196 1.084202172e-19) 51
(0.29175794 0.1096225205 0) 178
(0.3011531123 0.08323450059 2.710505431e-20) 29
(0.2561703321 0.1136971129 1.084202172e-19) 233
(0.2225832064 0.05974259511 -4.33680869e-19) 19
(0.248164939 0.08764726169 1.084202172e-19) 112
(0.2883006933 0.08189169706 2.168404345e-19) 27
(0.2328762173 0.06924075859 0) 50
(0.2385658597 0.09363452888 0) 171
(0.2600421923 0.07566228517 -2.168404345e-19) 54
(0.2820502937 0.0953519244 -2.710505431e-19) 117
(0.2686744799 0.09421028887 1.084202172e-19) 115
(0.2652745708 0.0711665386 0) 24
(0.2916851376 0.1195559958 1.084202172e-19) 238
(0.2654391942 0.0929953128 0) 114
(0.2083886976 0.08482410439 0) 137
(0.2049376905 0.06907264764 -1.084202172e-19) 76
(0.2916490089 0.1037784289 1.084202172e-19) 148
(0.253648132 0.09701529926 3.252606517e-19) 173
(0.2694556353 0.09072300277 0) 115
(0.2424211282 0.08487443917 -5.421010862e-20) 111
(0.3009604592 0.1425177338 1.846531825e-19) 359
(0.2628301199 0.07322549446 6.776263578e-21) 24
(0.2409780313 0.06809375939 0) 21
(0.2262673154 0.06152076021 -4.33680869e-19) 19
(0.2398410256 0.08870498916 3.930232875e-19) 141
(0.2474501245 0.1065548128 -2.168404345e-19) 202
(0.2785418599 0.1034055743 2.168404345e-19) 176
(0.290483864 0.07790779558 -4.33680869e-19) 28
(0.2977478056 0.1192934302 -1.084202172e-19) 239
(0.2360927701 0.08732810838 -2.168404345e-19) 140
(0.2419962227 0.09834433213 -2.168404345e-19) 171
(0.2603477807 0.08664278318 -2.168404345e-19) 84
(0.2458896871 0.07393738322 0) 52
(0.2471721483 0.06668157876 1.084202172e-19) 22
(0.2691518542 0.101758332 1.084202172e-19) 175
(0.2656302034 0.1169621455 0) 264
(0.2394627836 0.0646855877 1.084202172e-19) 21
(0.2871722271 0.08052027302 -2.168404345e-19) 27
(0.2673938727 0.08304019565 -4.33680869e-19) 55
(0.3045046215 0.1517416068 0) 389
(0.2169492829 0.062365363 2.168404345e-19) 18
(0.2379991812 0.06857933454 0) 21
(0.2901146921 0.1229448541 -5.421010862e-20) 268
(0.274583313 0.0757334975 -2.168404345e-19) 26
(0.2708213749 0.07794375596 -2.710505431e-20) 25
(0.274024884 0.08630952056 -2.168404345e-19) 85
(0.2983530945 0.09263919916 0) 89
(0.2810438459 0.08448151482 0) 56
(0.3002603748 0.0874033446 2.168404345e-19) 59
(0.2447570284 0.06775123805 4.33680869e-19) 22
(0.2857996458 0.11184756 1.084202172e-19) 207
(0.2547294441 0.07926054909 6.505213035e-19) 53
(0.2766043068 0.1263130504 2.168404345e-19) 296
(0.2934634272 0.08571352965 0) 58
(0.2206831532 0.07299144325 -3.252606517e-19) 78
(0.2998532108 0.1477646053 1.084202172e-19) 389
(0.247971727 0.1192909186 0) 292
(0.2966027678 0.1087191006 5.421010862e-19) 178
(0.2913368743 0.1162318284 2.710505431e-19) 208
(0.2509661663 0.1158322383 0) 262
(0.2491677013 0.08873216183 0) 112
(0.2891447616 0.1223228361 -2.168404345e-19) 267
(0.2755981838 0.1186542459 1.084202172e-19) 236
(0.2792553987 0.0977248245 -4.33680869e-19) 146
(0.2994457771 0.09932002677 -1.084202172e-19) 119
(0.1843482078 0.09794123067 2.168404345e-19) 224
(0.2385443902 0.09181655707 -5.421010862e-20) 141
(0.2981033732 0.1355555635 0) 329
(0.2821990766 0.08108715956 1.28749008e-19) 27
(0.2742091022 0.09463783016 4.33680869e-19) 115
(0.2251947951 0.08583174341 -2.168404345e-19) 139
(0.2718460918 0.09617022633 0) 145
(0.2803184817 0.08043378008 2.168404345e-19) 26
(0.2336957233 0.07673022254 0) 80
(0.2529475853 0.1225172003 4.33680869e-19) 293
(0.2998626904 0.1165238478 -1.084202172e-19) 209
(0.2755221059 0.09052231753 -1.626303259e-19) 86
(0.2271918166 0.06963401405 1.897353802e-19) 49
(0.3047878662 0.08535983387 0) 29
(0.2255762101 0.1071210805 -5.421010862e-20) 229
(0.3036286744 0.09840172849 0) 119
(0.2585964725 0.1166490639 2.168404345e-19) 263
(0.267153993 0.1032499672 2.981555974e-19) 175
(0.2426625311 0.1079759518 0) 231
(0.2425893286 0.1125053837 0) 261
(0.2476771462 0.09224019138 0) 142
(0.2651043675 0.0897577559 -2.168404345e-19) 114
(0.2725925302 0.07824049073 0) 25
(0.2216567102 0.08174866431 0) 109
(0.2728641051 0.07418753063 0) 25
(0.2354124527 0.09606630329 2.168404345e-19) 170
(0.2787276137 0.1027534764 1.626303259e-19) 146
(0.2729460685 0.1299194799 -4.33680869e-19) 325
(0.2250101931 0.06976462655 -1.084202172e-19) 49
(0.2699667566 0.08795113937 0) 85
(0.2451916227 0.1203970367 0) 292
(0.2489650488 0.09104741442 0) 142
(0.170191466 0.05724459032 2.168404345e-19) 42
(0.2576844397 0.08021203475 -2.168404345e-19) 53
(0.2420726075 0.06734627139 1.084202172e-19) 21
(0.2269760518 0.06931522692 1.084202172e-19) 49
(0.2785678844 0.09661633207 -5.421010862e-20) 116
(0.2156604739 0.08586370199 2.168404345e-19) 138
(0.2620373184 0.08219643555 -3.794707604e-19) 84
(0.2474076388 0.1184228904 0) 262
(0.2423031925 0.07672979102 0) 81
(0.2920078216 0.08222918825 -2.710505431e-20) 28
(0.2786307459 0.08263664995 0) 56
(0.2673728618 0.08358989174 -1.965116438e-19) 85
(0.2555954484 0.07673366765 0) 53
(0.2162817144 0.07781499066 2.168404345e-19) 108
(0.2481723114 0.1361842985 -3.794707604e-19) 352
(0.1417290765 0.0482163686 2.710505431e-19) 38
(0.2901836102 0.09099078222 2.168404345e-19) 88
(0.279721657 0.09624692406 0) 116
(0.2495716499 0.07898391594 2.168404345e-19) 82
(0.2184719085 0.07113651908 2.168404345e-19) 78
(0.2660920557 0.07462967622 0) 24
(0.2260882502 0.06930083236 -5.421010862e-20) 49
(0.2793982119 0.0772484075 1.626303259e-19) 26
(0.2048715105 0.06086185072 0) 16
(0.2928239215 0.1040437958 1.084202172e-19) 148
(0.3045643958 0.117419706 -4.33680869e-19) 209
(0.2506301964 0.0953574484 0) 142
(0.2431417877 0.1289313805 0) 321
(0.2082545694 0.06561542473 -5.421010862e-20) 47
(0.2639416192 0.1124766506 2.168404345e-19) 234
(0.2403627593 0.08931387958 0) 141
(0.30447887 0.1376852177 -2.168404345e-19) 329
(0.2180453613 0.07486868106 -5.421010862e-20) 78
(0.2046459664 0.08369353502 2.168404345e-19) 136
(0.2511940089 0.07743735468 4.33680869e-19) 52
(0.1217403287 0.05050145893 -4.33680869e-19) 65
(0.3021544662 0.1041411419 2.168404345e-19) 149
(0.2209472494 0.104303258 -2.642742795e-19) 228
(0.2169887751 0.06782801848 -5.421010862e-20) 48
(0.268570724 0.1071843683 0) 205
(0.2382256605 0.08164736881 -2.168404345e-19) 111
(0.2390014568 0.1035905221 1.626303259e-19) 201
(0.2475222031 0.1221843389 5.421010862e-20) 292
(0.2549090066 0.1007467103 1.084202172e-19) 173
(0.273506267 0.089021576 -4.33680869e-19) 85
(0.2994103591 0.1259706099 -2.439454888e-19) 269
(0.2527917011 0.08046065372 -4.065758147e-20) 83
(0.2677984418 0.1088201722 4.33680869e-19) 205
(0.2080279348 0.05609383002 0) 17
(0.2489285107 0.1183566081 0) 262
(0.2394035533 0.09862208579 -2.168404345e-19) 171
(0.2287424471 0.06463251956 -5.421010862e-20) 20
(0.2418790472 0.08774355163 -2.168404345e-19) 111
(0.2499958613 0.07757152702 -2.168404345e-19) 52
(0.2393607056 0.07170400564 0) 51
(0.2713647765 0.1234966367 5.421010862e-20) 265
(0.2947444095 0.08998376062 -2.168404345e-19) 58
(0.2247719875 0.09346046973 5.421010862e-20) 169
(0.238559547 0.09207294452 -1.626303259e-19) 141
(0.2579887944 0.09147188862 -2.168404345e-19) 113
(0.2441643211 0.0676487056 0) 22
(0.2559954633 0.07331801295 0) 23
(0.1881293798 0.0609879954 1.084202172e-19) 44
(0.2958083968 0.1141331873 -4.33680869e-19) 208
(0.2961444372 0.08664293178 -2.168404345e-19) 58
(0.1852873203 0.05781553185 -2.168404345e-19) 44
(0.2685145032 0.08095641128 0) 55
(0.2390608274 0.07058941527 1.084202172e-19) 51
(0.2675770981 0.08395299329 -1.084202172e-19) 85
(0.2360504099 0.09435065706 0) 170
(0.24014396 0.07831264899 3.252606517e-19) 81
(0.2930362642 0.08527844246 2.710505431e-20) 58
(0.2518089979 0.07624002945 9.486769009e-20) 53
(0.2855784364 0.1224810173 -3.388131789e-19) 267
(0.2671883285 0.07572209714 1.084202172e-19) 25
(0.2186330679 0.08612323699 1.084202172e-19) 138
(0.2568968547 0.0889818462 -3.794707604e-19) 113
(0.2914888904 0.114605615 -5.421010862e-20) 208
(0.2121930162 0.05707670765 2.168404345e-19) 17
(0.2755348671 0.09779777491 -5.421010862e-20) 146
(0.2982412252 0.09491602889 1.084202172e-19) 89
(0.2473026155 0.09022486123 2.981555974e-19) 142
(0.2114846833 0.066404069 -2.168404345e-19) 47
(0.2964474502 0.1443228043 -2.168404345e-19) 358
(0.2274779414 0.07712354336 -2.168404345e-19) 79
(0.2884680607 0.1256124527 2.168404345e-19) 267
(0.2402855329 0.08023807529 -5.421010862e-20) 81
(0.2866237196 0.1126986076 -4.878909776e-19) 207
(0.3011635551 0.1000062482 -1.355252716e-20) 119
(0.1886161964 0.08099889545 2.168404345e-19) 134
(0.2833921029 0.08211381865 0) 57
(0.1973936214 0.1047113805 -5.421010862e-20) 255
(0.2606271625 0.1311217355 -2.168404345e-19) 324
(0.2683840413 0.082704549 5.421010862e-20) 55
(0.2749676576 0.08568767365 -2.710505431e-20) 86
(0.2841905993 0.09594191588 0) 117
(0.2685146768 0.07969997065 2.168404345e-19) 55
(0.2083734075 0.06096520048 1.084202172e-19) 17
(0.2594259083 0.07428214708 2.168404345e-19) 24
(0.2086303653 0.1072817831 -5.421010862e-20) 257
(0.2784004671 0.09750087931 2.168404345e-19) 146
(0.2669782613 0.1073689214 -2.168404345e-19) 205
(0.2445844891 0.08621996176 3.252606517e-19) 112
(0.3042995257 0.1208846799 2.168404345e-19) 239
(0.2608741857 0.1285280045 0) 324
(0.2136151134 0.07697789829 -1.084202172e-19) 108
(0.2980335952 0.09955885227 5.421010862e-20) 119
(0.21498494 0.06428924464 0) 48
(0.2440980223 0.1251654008 2.168404345e-19) 322
(0.2753469974 0.07716995497 0) 26
(0.2442473739 0.08021145139 1.626303259e-19) 82
(0.2458399024 0.0889993431 -1.084202172e-19) 112
(0.2936837778 0.1340219641 0) 328
(0.2567054906 0.1194723091 1.084202172e-19) 263
(0.2361132936 0.07514773946 -4.33680869e-19) 80
(0.2521041378 0.09841757578 -3.252606517e-19) 173
(0.2373871469 0.1184725503 -3.252606517e-19) 291
(0.193392299 0.06530081206 0) 75
(0.296544394 0.1502976399 2.168404345e-19) 388
(0.2195139183 0.0637428942 0) 18
(0.2045392352 0.07135389065 0) 76
(0.2684673629 0.1019002955 2.981555974e-19) 175
(0.2155109371 0.08197562363 2.168404345e-19) 138
(0.3000594553 0.1273517994 0) 269
(0.2958929324 0.1253066732 1.084202172e-19) 268
(0.2050860059 0.08073298388 0) 136
(0.1935081742 0.0789944187 5.421010862e-20) 135
(0.2418217551 0.08602604991 0) 111
(0.2657206407 0.0872618753 -2.168404345e-19) 84
(0.2383810384 0.1001169846 -3.252606517e-19) 201
(0.3029790552 0.1121331547 -2.168404345e-19) 179
(0.2536327307 0.07044428605 1.084202172e-19) 23
(0.2055624328 0.06677094237 0) 46
(0.2464234883 0.07597836598 0) 52
(0.2345631647 0.09618402396 -2.168404345e-19) 170
(0.2671736626 0.1309768947 0) 325
(0.1862335548 0.05334620017 -5.421010862e-20) 14
(0.2201072308 0.06083526411 0) 18
(0.2511544789 0.09160121828 0) 142
(0.1790216533 0.05180028471 5.421010862e-20) 13
(0.2919326499 0.1463328323 -1.084202172e-19) 388
(0.2331622729 0.09412418203 -1.084202172e-19) 170
(0.2616111723 0.07216269077 1.355252716e-20) 24
(0.2354306857 0.08814259379 2.168404345e-19) 140
(0.2368441639 0.06891892177 -2.202285663e-19) 21
(0.2819038444 0.1246285836 0) 266
(0.1836173336 0.05502908945 -3.117081246e-19) 14
(0.2807102097 0.1156186536 2.168404345e-19) 236
(0.2341779026 0.1107922145 0) 260
(0.2682519283 0.0738211431 0) 25
(0.1666277648 0.08449076632 -2.168404345e-19) 191
(0.2839741776 0.1358529128 -1.084202172e-19) 327
(0.2064047837 0.08822703378 -2.168404345e-19) 167
(0.2968966219 0.1088386743 1.084202172e-19) 178
(0.1496685758 0.04087264858 -2.168404345e-19) 9
(0.2069436969 0.06238136617 0) 47
(0.299187734 0.1277263905 -3.252606517e-19) 269
(0.2601173317 0.07526745432 1.084202172e-19) 24
(0.2583794246 0.07396427536 -2.168404345e-19) 23
(0.2375562847 0.06806316038 0) 21
(0.2287033774 0.1104833944 3.252606517e-19) 260
(0.2847103611 0.09470860733 -2.168404345e-19) 117
(0.2984815273 0.1204264017 1.084202172e-19) 239
(0.2506643413 0.07480121148 3.252606517e-19) 52
(0.2575365631 0.08243774062 0) 83
(0.2774312642 0.08586657365 5.421010862e-20) 86
(0.2459362263 0.06861575637 -1.084202172e-19) 22
(0.2863654515 0.09192320471 1.084202172e-19) 87
(0.2712503439 0.09773212458 2.168404345e-19) 145
(0.2477054697 0.1185154504 8.131516294e-20) 262
(0.2394362263 0.1380699857 2.710505431e-20) 381
(0.2274048857 0.07273221145 0) 49
(0.2453357224 0.1084126921 0) 232
(0.2356996522 0.07515445921 0) 80
(0.2986926353 0.1280703102 0) 269
(0.2583043069 0.07624682244 0) 53
(0.2833847439 0.09242221535 0) 87
(0.2375701557 0.09986033079 -2.168404345e-19) 201
(0.2152170458 0.09463277124 0) 198
(0.2282542345 0.09997188252 -2.458380781e-20) 199
(0.1829267133 0.05535930046 -6.776263578e-21) 44
(0.2294322088 0.09132561228 -2.168404345e-19) 170
(0.1944282657 0.05583229903 5.421010862e-20) 15
(0.2934584235 0.0973813107 5.421010862e-19) 118
(0.2795032557 0.09865606186 2.168404345e-19) 146
(0.2908105789 0.1541327371 2.168404345e-19) 418
(0.2231020824 0.08242517779 -3.252606517e-19) 109
(0.2346763987 0.1165743171 0) 290
(0.2618741769 0.109542506 -2.168404345e-19) 204
(0.1967139712 0.05820139091 0) 15
(0.2947398482 0.1060364912 1.084202172e-19) 148
(0.2306005615 0.09673418391 1.084202172e-19) 170
(0.3030317706 0.1258031296 -2.168404345e-19) 269
(0.2637598552 0.118662427 -1.084202172e-19) 264
(0.2151729141 0.07165233285 2.710505431e-19) 78
(0.2936778679 0.1621345148 -4.33680869e-19) 478
(0.2977894664 0.151600446 2.168404345e-19) 419
(0.232980318 0.06739578255 5.421010862e-20) 20
(0.23732463 0.09669402929 -1.626303259e-19) 171
(0.1783169722 0.04940250553 3.252606517e-19) 13
(0.2807003081 0.1304920007 -2.168404345e-19) 296
(0.2567504275 0.1020050118 -3.252606517e-19) 173
(0.1757926364 0.05119157496 3.252606517e-19) 13
(0.2064622632 0.07307447932 4.33680869e-19) 77
(0.2268012973 0.06174491372 -2.168404345e-19) 19
(0.2715380319 0.1020890591 0) 175
(0.2651983766 0.09404485405 0) 144
(0.2645894859 0.1120638955 0) 234
(0.2822090394 0.1407749483 -2.710505431e-19) 357
(0.2965852434 0.1044825706 -2.168404345e-19) 148
(0.2935203882 0.1041044629 1.76182853e-19) 148
(0.2352071032 0.1479931094 -2.168404345e-19) 440
(0.2707987389 0.1437552479 2.710505431e-20) 385
(0.2470439453 0.07423449292 5.421010862e-20) 52
(0.2649804305 0.08312625763 2.168404345e-19) 84
(0.2947367231 0.07974905626 -4.33680869e-19) 28
(0.2332802992 0.06914848091 0) 50
(0.2727208877 0.0735938985 2.168404345e-19) 25
(0.2449594748 0.08468555579 5.421010862e-20) 112
(0.2758945455 0.1196565396 2.168404345e-19) 266
(0.2278222108 0.08161941674 8.131516294e-20) 109
(0.2741680366 0.07526049623 1.084202172e-19) 25
(0.2960069235 0.08170891041 0) 28
(0.2773025475 0.1131303567 2.168404345e-19) 206
(0.205040713 0.06653022062 -2.168404345e-19) 46
(0.2381130602 0.07761648781 0) 81
(0.226907535 0.0991222571 1.084202172e-19) 199
(0.2589067358 0.107663053 4.33680869e-19) 203
(0.23354114 0.0689745118 -2.168404345e-19) 50
(0.2485604016 0.07853420493 -4.33680869e-19) 82
(0.2089572191 0.05866795661 -1.084202172e-19) 17
(0.2667582722 0.0721271582 -1.626303259e-19) 25
(0.281218314 0.1160359797 0) 236
(0.2138449929 0.07026480635 -1.084202172e-19) 78
(0.2824954117 0.09467895379 0) 117
(0.2566585481 0.08927963831 2.168404345e-19) 113
(0.2653277825 0.1508638527 2.168404345e-19) 414
(0.2882158581 0.116580475 -2.168404345e-19) 237
(0.2989535939 0.09346655033 -1.084202172e-19) 89
(0.2334224144 0.08740040005 2.168404345e-19) 140
(0.2626693235 0.1292461549 4.065758147e-20) 324
(0.2010623588 0.06271012973 1.897353802e-19) 46
(0.2762838373 0.1314559701 2.168404345e-19) 326
(0.2821226568 0.09311858765 -4.878909776e-19) 117
(0.2209035769 0.08584241882 -5.421010862e-20) 138
(0.2528948434 0.07306393109 0) 23
(0.2722869291 0.08935465676 2.168404345e-19) 85
(0.2609245794 0.09058924034 0) 114
(0.2688531999 0.1195202343 1.897353802e-19) 265
(0.3010106755 0.08207917351 -2.168404345e-19) 29
(0.2904002996 0.122407342 -2.168404345e-19) 268
(0.2813808668 0.09132207893 2.168404345e-19) 86
(0.2170588054 0.09217811086 1.084202172e-19) 168
(0.1687087172 0.05819251262 0) 72
(0.2932365462 0.1013843809 3.523657061e-19) 148
(0.2006966407 0.09933952321 -2.710505431e-19) 226
(0.1709490767 0.07105659264 -2.168404345e-19) 102
(0.254690351 0.07984180315 2.710505431e-19) 83
(0.2091432918 0.06707961737 -2.168404345e-19) 47
(0.2350821214 0.1003483137 -3.252606517e-19) 200
(0.2462307981 0.07535213252 -5.421010862e-20) 52
(0.2137867143 0.07523618368 1.355252716e-20) 78
(0.3005161885 0.1408743293 -2.168404345e-19) 329
(0.2533966623 0.0912459313 2.168404345e-19) 143
(0.2370533152 0.06726359821 0) 21
(0.2366582315 0.0857380151 0) 111
(0.2519156314 0.07280131799 0) 23
(0.2745024531 0.0830356414 -2.168404345e-19) 56
(0.304438957 0.09328787933 2.168404345e-19) 89
(0.2333324207 0.08114550599 4.33680869e-19) 110
(0.2882082971 0.1132626301 0) 207
(0.2787365825 0.1139815098 2.710505431e-19) 206
(0.2324813994 0.0664183076 -4.065758147e-20) 20
(0.2744088561 0.1460456889 -2.168404345e-19) 386
(0.1825758355 0.07003615099 0) 103
(0.2141160819 0.1278151824 -1.084202172e-19) 348
(0.2164944753 0.06458391775 0) 48
(0.2319709536 0.1212375062 -2.168404345e-19) 290
(0.209851326 0.05740064501 0) 17
(0.2962688803 0.1195608463 2.168404345e-19) 238
(0.2960882658 0.0926886935 1.084202172e-19) 88
(0.2550746638 0.1273127472 -2.57498016e-19) 323
(0.2887435208 0.08100436579 0) 27
(0.2849976055 0.08644790554 0) 57
(0.2336954173 0.06358008699 0) 20
(0.253523383 0.07683315975 -8.131516294e-20) 53
(0.3038782997 0.08901786235 2.168404345e-19) 59
(0.2998438895 0.1206721131 1.084202172e-19) 239
(0.2907828999 0.08859489083 5.421010862e-20) 58
(0.2481189844 0.1012918682 1.626303259e-19) 172
(0.2493794724 0.07208351648 1.084202172e-19) 22
(0.2518564803 0.1425924443 0) 383
(0.2117035414 0.07651119567 -2.168404345e-19) 107
(0.2935337305 0.08063329058 3.252606517e-19) 28
(0.1641596336 0.07474771891 4.065758147e-19) 131
(0.2087205049 0.08376631772 -1.084202172e-19) 137
(0.2545211551 0.0843126526 1.084202172e-19) 83
(0.2323412026 0.08379040051 -5.421010862e-20) 110
(0.2799924808 0.07898150647 0) 26
(0.2946335415 0.1008342657 1.084202172e-19) 118
(0.2493268494 0.07505317521 0) 52
(0.2237768925 0.06510300003 1.084202172e-19) 19
(0.226314794 0.06370483254 0) 19
(0.2517614284 0.07224787569 2.168404345e-19) 23
(0.2550698122 0.06853781676 1.897353802e-19) 23
(0.2742342417 0.113758861 2.168404345e-19) 235
(0.2654472238 0.0959172786 -1.084202172e-19) 144
(0.2691167467 0.09573716993 -2.168404345e-19) 145
(0.2183257788 0.06600300504 -2.168404345e-19) 48
(0.1796852998 0.04935861133 0) 13
(0.2592897852 0.1002784741 -2.168404345e-19) 174
(0.2327850773 0.1213815392 -1.355252716e-19) 290
(0.214523161 0.09329789068 5.421010862e-20) 168
(0.2472932742 0.06941751697 2.710505431e-20) 22
(0.3029614299 0.09325753778 4.33680869e-19) 89
(0.2990073407 0.1542034903 -2.168404345e-19) 419
(0.2956837931 0.09677381825 0) 118
(0.2776192235 0.09054294004 0) 86
(0.2394599849 0.0696476385 0) 21