/*--------------------------------*- C++ -*----------------------------------*\
| =========                 |                                                 |
| \\      /  F ield         | OpenFOAM: The Open Source CFD Toolbox           |
|  \\    /   O peration     | Version:  2406                                  |
|   \\  /    A nd           | Website:  www.openfoam.com                      |
|    \\/     M anipulation  |                                                 |
\*---------------------------------------------------------------------------*/
FoamFile
{
    version     2.0;
    format      ascii;
    arch        "LSB;label=32;scalar=64";
    class       vectorField;
    location    "0.003/lagrangian/dsmc";
    object      U;
}
// * * * * * * * * * * * * * * * * * * * * * * * * * * * * * * * * * * * * * //


9499
(
(-866.7496244 -137.3739236 48.59520718)
(-574.0710791 31.94093807 -224.5758765)
(417.3534238 843.8998064 -232.2423176)
(819.6319624 -431.3613692 -33.34172754)
(-402.4370419 1140.506674 304.1176006)
(770.5710543 399.324491 537.4107891)
(828.9216877 613.2889072 143.4840239)
(363.8381008 1143.208107 -330.0813522)
(293.1910974 304.9516079 -112.969684)
(942.4468421 638.1317141 -190.2658857)
(-371.704832 795.0169681 84.98310338)
(1209.533292 588.6847429 -951.1174218)
(-324.4278145 496.5018028 596.8552102)
(1226.426554 -343.20122 222.8327267)
(-612.2296923 -56.29512333 -54.62812215)
(1102.066523 859.9655069 -105.7485678)
(803.3728774 -115.2554176 315.6545406)
(668.1281674 -20.70582905 -189.9684991)
(376.4046933 469.3867458 -424.6784092)
(-154.8471789 633.4531288 -452.4727742)
(461.943761 543.9093429 -473.6718396)
(531.6001848 862.2155684 216.9047359)
(217.820528 720.3445908 239.0931744)
(823.5661037 -520.88136 111.963964)
(1331.367695 -254.3725286 174.2775044)
(413.229343 426.9685469 -73.17256981)
(-523.5663019 164.2757139 -239.2902066)
(517.0408912 305.5676957 397.9509314)
(918.7069237 -682.7312074 271.3372022)
(-159.1226891 112.8889443 -646.2158181)
(810.8674754 590.0707063 -270.5974416)
(-114.1410782 325.534361 -1241.670442)
(809.5040524 -56.99014159 -590.5887558)
(672.782705 -109.2606267 362.2453002)
(536.854751 668.3034882 128.1190196)
(129.4612544 1282.032714 116.2859021)
(839.1849287 -338.7249946 -558.5138369)
(351.4259388 347.4862243 -188.4067287)
(952.1472327 543.8234779 874.3528351)
(1061.941937 -418.5575776 59.92943784)
(-45.43937957 123.3096643 151.2792142)
(-110.632175 -56.34619743 -451.686369)
(509.0739896 1142.945009 -785.4843091)
(1022.099827 1330.723983 -202.017088)
(378.2673282 533.5413469 236.1553826)
(484.3837405 686.2250265 -93.54174728)
(323.2096923 486.751731 660.0628844)
(61.73886129 -369.0576107 294.6121417)
(119.8418855 -181.9003805 170.294306)
(531.7479153 -184.9161757 420.70433)
(459.6977112 -52.56982679 -327.8667486)
(-855.1311012 645.7825619 -52.0266358)
(202.8876243 -363.2133014 -61.56105559)
(1193.461335 1009.962899 795.810258)
(-416.9616823 687.6886616 379.5595727)
(-408.3353834 -415.933615 429.3021526)
(149.5607218 140.2324269 133.5478686)
(397.4814588 497.0033925 304.8158953)
(-509.6179279 1065.028909 -711.2364)
(80.14570701 -138.4516021 508.3228262)
(84.49816806 346.8313354 234.8002656)
(226.7978965 313.4485814 424.7487771)
(1057.085793 -337.9912508 -86.67601614)
(1150.768465 -587.1619873 -58.45614724)
(445.4150817 631.9866643 503.4896728)
(475.4953078 1095.681482 460.5484755)
(927.8767005 -55.50057249 -1291.657203)
(3.055201152 879.7828292 59.9290689)
(420.0140395 581.6524152 3.882393258)
(2091.690827 -343.6778543 84.58818976)
(872.7107839 219.9206622 587.5614408)
(-142.4256129 381.4319566 -122.1613635)
(715.8585158 193.5037862 505.2535266)
(780.1945421 751.1684131 152.0889107)
(593.9049681 -316.3992087 174.6196152)
(363.7205471 658.9485573 514.3495983)
(2098.595414 874.641976 -488.2965802)
(43.26520937 242.3566772 366.0554788)
(156.5971858 230.4095412 -557.8226101)
(491.159716 320.9047322 1.408472357)
(1771.435297 127.6788633 202.4851278)
(-236.0866416 -239.7880229 884.1726204)
(-72.1019317 468.6303579 129.8529879)
(-144.4942754 -136.1344213 437.0276634)
(-272.5677139 363.4952561 -557.0049032)
(646.6450228 490.7754259 353.5622582)
(-177.7880838 187.8054569 95.58579524)
(237.626808 44.30052597 12.65397732)
(681.282682 1023.558184 32.37345067)
(254.9306053 -319.8432939 -540.7648427)
(1148.220043 -243.1220704 -70.13712681)
(156.3144246 249.1618086 -149.2776091)
(-207.2573645 338.2465831 14.12168656)
(383.1900294 442.584519 778.8483223)
(222.3807895 173.297004 -52.47552281)
(279.0013865 -216.4935812 -798.8355753)
(280.7053081 1089.652797 248.913837)
(70.25085086 111.7031747 182.9195443)
(1463.273006 465.1689719 352.688012)
(228.1957793 283.5310163 967.9388003)
(-76.55291617 205.640376 340.1469991)
(-509.0228462 134.6813211 -247.006865)
(1340.701183 63.19377671 -644.5714449)
(43.0251945 1032.769917 -87.56310007)
(408.1190703 546.9587182 -839.8348845)
(542.5903717 -122.1002866 4.758696036)
(394.846018 -65.440592 69.91791499)
(1016.89246 382.924499 726.2069373)
(-491.5155106 247.8136749 207.3356308)
(189.8665232 572.2985158 -106.3317651)
(284.9135542 364.1793582 -601.9762811)
(383.9997387 -87.72229114 87.67769527)
(565.3347257 349.4768442 62.721681)
(1672.817243 581.0424074 -137.957073)
(1515.599056 429.2590837 -555.4356938)
(439.6777803 5.148219305 78.50983875)
(41.44895512 -37.88901384 -54.5901751)
(609.1673384 792.3903441 -537.3446125)
(-340.1440563 -45.10989337 203.7999327)
(1160.322687 234.6916795 -353.3787874)
(1085.842735 886.5973962 -48.61451433)
(-233.7871966 888.7030565 252.3267262)
(354.7109671 -33.84296767 -349.0995438)
(234.7515357 -206.8355274 202.4102927)
(378.8743512 150.8003771 565.0326185)
(714.1279161 443.2083475 -165.7328132)
(1706.221905 284.0270185 399.2971266)
(891.0453529 -96.08016039 346.4671695)
(1179.277693 3.934380484 421.7998001)
(-172.9384735 510.1023566 144.0173935)
(-77.0349515 905.0640094 -413.8977933)
(996.8645269 1309.520701 -172.4467037)
(1798.573443 963.471163 348.002661)
(1138.781175 715.6685563 -648.4984668)
(162.5175068 16.87402282 -347.8003965)
(301.0419062 -9.010698266 304.2382742)
(616.5582508 304.7747912 -34.69378368)
(1454.201134 798.6286006 33.19420237)
(593.958241 1241.815607 -35.76338931)
(218.9462876 217.8128286 -495.7962765)
(178.9064478 1258.175938 -320.9009882)
(842.2837649 911.4628022 -100.7811418)
(1244.940756 425.4005557 -938.2101386)
(-14.66011011 229.1785774 432.5277273)
(974.3611573 765.6774931 -364.553182)
(-65.84618508 696.9053627 -68.58059268)
(296.5922138 -928.1140939 19.99436524)
(302.9944368 832.0936296 141.8079214)
(669.5830801 -16.21119257 -174.6609087)
(-341.8350794 510.3368903 -137.6926948)
(1097.825198 1176.252555 -926.7396723)
(937.1097913 -77.19707635 114.8156478)
(-793.0358721 -63.38145917 239.6896475)
(-170.4100465 121.6513046 238.0384569)
(1404.206407 160.2264311 207.0308764)
(627.7889812 698.9167625 -87.24732759)
(1409.844514 2.277266681 153.3351973)
(-99.67083349 1066.667093 -224.5540944)
(2.863710033 397.0969696 -792.3645034)
(1055.540456 161.5681846 958.9857418)
(1125.996437 -196.2985889 249.3491248)
(1570.889438 730.9133789 70.54114951)
(990.5226537 231.3917612 596.963581)
(228.4360293 225.9627113 39.17963665)
(-538.3421022 -131.9391647 -147.5633852)
(721.4525425 -26.47541202 -5.220107465)
(679.554717 614.3414322 -184.4679722)
(325.7934061 -30.91662179 -212.9757343)
(1203.92851 660.6369958 -229.0473527)
(346.0080457 -148.9791681 -958.6204549)
(268.5752482 -247.4648404 330.5451928)
(-261.2328379 55.6860125 199.6433242)
(1745.387511 -421.7803064 -300.8604066)
(304.9082697 274.0002105 322.594934)
(530.5056473 -60.7837777 255.609128)
(-343.7717146 204.4056941 -633.0787979)
(943.5570177 666.3236522 544.2548758)
(410.0585649 -743.2050472 -181.8664174)
(55.94584042 499.6347987 332.4134837)
(288.3750168 -598.6530771 -763.6183179)
(573.7841 56.83493642 -640.7044549)
(-802.4001886 512.1079434 -363.5940734)
(163.1479659 1024.108727 -297.0941307)
(1155.286682 -616.4118724 278.387253)
(654.8808707 -522.5992915 204.5003287)
(-300.7610988 971.9423393 503.3348275)
(143.9615897 78.76335694 -658.5240663)
(90.43935668 326.0565523 395.1581084)
(205.8176709 -912.3962235 387.7410165)
(431.6274722 730.249696 361.7072111)
(-341.3029616 -28.46183495 163.6393046)
(919.0039318 -120.3068843 -207.9095282)
(1953.730178 453.4947591 -238.1339946)
(147.1310085 -587.534222 812.5927433)
(151.964875 235.0932593 -332.3508178)
(588.4956185 -517.0643816 870.7359796)
(-154.5690026 392.1287214 -461.1063917)
(1191.88641 681.1114629 416.3520936)
(846.8296665 38.08620151 -512.1844755)
(1110.47793 274.874565 -329.1106009)
(850.2799875 -239.8803265 -26.64325462)
(423.0590517 1024.100237 581.6329591)
(296.2198135 366.0513817 -289.0337882)
(27.80282547 751.592444 353.8634494)
(425.3645678 -131.2697195 -530.4611112)
(75.98727498 252.1690962 -655.014732)
(145.4684369 712.4594194 556.1687986)
(239.1291556 293.0642077 -31.25779962)
(231.8256206 -27.11526372 57.09781686)
(376.1814589 -94.68588703 152.642629)
(1374.358441 583.2879236 753.1546416)
(826.2784839 582.8872134 -91.93496906)
(814.3332701 721.0229166 -76.10931065)
(467.1913072 -29.86993243 1430.126214)
(903.8064725 -430.3702187 -139.6879763)
(1154.529722 111.5694059 -166.6558518)
(813.1946205 366.917412 -282.3990847)
(433.9187192 140.7409148 -402.5908335)
(639.7853596 68.14656779 -755.9879312)
(1600.653738 27.03270977 649.8293899)
(1796.386314 559.1269147 565.5693666)
(79.187545 -531.6983711 -243.7120999)
(497.2630319 -1355.740386 -468.96035)
(439.8583222 -201.6918485 -415.2442043)
(-124.9821234 77.07102903 -435.4081773)
(-167.333043 607.8133358 209.6134949)
(232.2938147 877.3845566 -34.11052744)
(1052.774971 109.4642859 -351.5780068)
(879.0574729 -198.3767707 553.0189567)
(392.0344123 750.823059 -250.6123791)
(-222.9346347 210.8697803 -856.2570243)
(1272.930126 359.8710594 192.2125221)
(545.8425313 99.77898633 351.2436381)
(443.5215334 671.7935534 122.8158548)
(192.437631 -109.5911612 -592.1643589)
(579.0396758 -264.1794993 -333.2017047)
(380.5749023 472.5871908 971.7096272)
(-75.48906344 1055.050776 -260.0902191)
(1140.515549 -630.5742662 -380.0602666)
(302.9055998 192.4644163 -247.6042221)
(-966.9979085 -475.5039928 -567.5284292)
(780.6159508 301.4237539 683.8396404)
(1378.150132 -138.7245066 475.2747282)
(14.67742164 362.3462244 1113.797991)
(1235.593879 881.8479335 8.897437605)
(651.9009324 -361.8472747 -1156.318206)
(1733.010164 878.2893398 -198.521461)
(996.8344295 -795.9363194 -441.842661)
(-119.6997296 613.6733006 265.6914179)
(694.0263832 437.4866347 -409.4546393)
(1097.189391 83.93049524 -544.5347906)
(1165.48935 -393.728072 98.04807047)
(1358.742179 764.7480335 49.84963643)
(1477.603671 98.4248387 -276.8369641)
(498.3905124 -1.124821327 568.0648073)
(894.4750556 -139.0479168 714.7459443)
(231.6586326 -331.2926593 290.5910207)
(445.8725793 313.2640478 -390.7341187)
(-281.4778948 616.2893 -97.15335165)
(1143.34974 101.1604121 -1283.080329)
(1762.799757 -284.9892202 719.7046397)
(-697.3560312 178.4352718 -517.7424829)
(813.9819108 -358.2834454 115.0345302)
(259.3601062 16.16937985 -230.9269829)
(984.1580284 171.3316158 924.8947986)
(608.8269019 316.0857916 129.9495363)
(-293.1594814 -425.6585074 -26.24583907)
(-9.742834797 175.5325081 103.0976167)
(1094.726019 276.628836 -51.46888442)
(1187.948516 56.7744217 1120.896021)
(494.3676188 -109.5988783 -402.0540832)
(-303.4726068 -349.4226242 22.24056265)
(238.0077745 727.873586 205.7780761)
(1817.434533 1077.873039 -222.9132457)
(-24.0844959 -109.6629507 450.0639864)
(19.83169342 -61.10817169 -342.8232661)
(936.3389696 99.65841716 -290.9823398)
(1180.400114 403.7350392 440.9276394)
(287.9940104 247.5192443 -86.19879366)
(730.4926416 -760.8470172 860.2499239)
(-181.8889722 71.69406512 108.9042346)
(-46.69498577 -140.3585723 -386.8961387)
(516.5192851 543.2506776 626.098153)
(-521.4918481 396.8452298 -464.2634577)
(12.61344871 632.5858147 -98.69927801)
(665.5796781 -421.8845559 844.5992301)
(155.0367832 494.9168979 74.85777718)
(440.0724637 92.04709449 -175.2728793)
(739.9934098 164.5799905 -210.7710443)
(1007.289073 530.600735 504.5304269)
(291.6936086 1002.938017 -394.699943)
(765.812218 875.1065169 -870.969218)
(1605.518186 562.8439083 217.9807786)
(-4.249374461 800.3596317 245.8653741)
(1037.071635 314.4159985 134.9549506)
(581.5852353 1008.660531 -400.2022445)
(1275.796423 627.7255548 528.3357893)
(867.8232637 -110.5281345 -24.7981902)
(304.3699398 -308.5851313 137.7067016)
(1186.477955 1288.386741 -193.6853459)
(784.1823656 507.9373008 543.5338678)
(878.3516759 278.9133849 -518.8406974)
(-253.3850924 687.5306908 -936.6761427)
(384.8670031 770.925266 -280.7858306)
(-140.7004055 1123.873757 -40.88973397)
(739.8852135 377.2558746 -100.6493987)
(-5.744282058 765.3741092 311.8760927)
(258.4860829 -221.9705526 581.6808955)
(999.1227791 539.6141038 202.6091625)
(1436.987813 -314.2771337 -607.015128)
(241.7350108 680.7970379 533.3342268)
(589.8351506 1099.136462 -202.4160504)
(686.7919942 88.83588516 -1286.882158)
(-95.26738292 835.2300523 643.0680807)
(983.6529513 200.0965857 -173.4694624)
(44.08234349 608.5842735 493.6968116)
(578.2953097 528.6046632 835.8712529)
(869.6258765 1285.580187 -582.4043937)
(1309.398928 493.7496407 -743.1391555)
(699.6810655 433.8131726 -134.4404432)
(44.38792104 174.2919179 27.02767881)
(-912.9623563 -29.52101205 -96.41123196)
(919.5036144 199.4420306 -439.707356)
(-218.1220326 142.9703581 -593.2339132)
(1647.052542 450.7458724 -437.4751755)
(918.148483 -270.0918062 499.5551462)
(1603.670128 940.530855 -569.2186962)
(788.5730178 -197.164694 331.3449571)
(-609.5084814 795.3645697 134.1177133)
(650.0320297 -269.9820891 -1040.798329)
(12.92133666 397.6037231 -655.115765)
(-318.3181881 180.4935482 623.0201116)
(4.959043227 -120.5222854 -480.9994799)
(94.21736292 79.0867491 337.2640087)
(781.4020611 33.79991774 344.0183506)
(875.1419674 -277.118613 101.8941498)
(290.6566526 -257.5708845 -1042.630179)
(-93.50196774 335.7449343 -169.5173303)
(1070.473867 996.2359324 -373.5796108)
(-357.4985883 74.88031352 23.09289922)
(-500.2174812 132.3170724 136.1309901)
(-237.6603176 166.9129816 -311.9934638)
(846.8825866 -351.5572692 265.9208906)
(845.7504681 830.9734972 2.740500762)
(749.3250137 733.9857515 -141.4343564)
(1002.218033 59.09256623 -166.6559633)
(-545.4015031 382.1549045 -242.1028856)
(1738.224588 -1320.565538 -340.4468845)
(1507.370621 -657.7532061 -258.8709653)
(1885.878584 236.709667 171.1380341)
(879.4761087 745.7789886 -57.59553085)
(57.40698615 -274.1219822 -575.7252634)
(-66.2311425 255.0468215 153.0408959)
(213.3285962 516.5815731 -521.4054213)
(251.3125923 251.8735589 -286.3657998)
(873.1814755 528.6120442 230.4960691)
(642.9972905 376.0133357 -147.9228273)
(999.8350363 159.5632183 -88.8684318)
(709.0295795 1210.046074 274.4792164)
(32.16083595 -524.2110152 -64.65647239)
(-352.8183548 1031.26239 1249.997975)
(1018.787706 -3.232490175 -247.0301885)
(2084.496594 -75.74552559 -316.6362177)
(-246.231843 667.0095362 -380.3901276)
(-644.8772669 747.4715832 299.5010683)
(-245.9852405 -50.29396297 574.1178768)
(1420.904281 48.48760454 734.4529296)
(607.5972999 -226.8643314 930.1148876)
(1275.028458 -234.5315755 -243.9638934)
(255.5446105 -151.3986368 -256.0574073)
(1163.611801 -651.4602297 -572.8213428)
(1163.862946 151.2030903 -643.6956048)
(542.2471913 1046.301389 -603.6632561)
(936.9634962 1435.479099 34.67932144)
(881.6860285 276.9276765 -64.8825267)
(550.2069553 -314.9166766 -236.2080166)
(1107.878269 638.1884855 36.34015281)
(263.7062384 475.3478648 -17.50061717)
(512.119818 425.8161651 -613.426754)
(-394.0876119 -355.1595992 252.6589034)
(845.875607 603.7038921 277.525163)
(1544.139647 165.2063449 1298.304777)
(1567.302435 -416.0196671 -695.2575223)
(321.3385151 332.8704443 -697.0408844)
(199.9770797 -115.5770458 -202.6003954)
(384.4068534 345.3080345 -889.4468586)
(613.0871312 369.5432969 -367.71401)
(1488.362528 126.2872164 310.4008661)
(293.8105995 391.4386385 333.2139255)
(879.0055413 447.2396732 175.7276482)
(18.0531766 485.5961441 -142.922112)
(-0.3515437407 112.5511473 409.5195785)
(75.62723683 263.3323958 81.01540703)
(-502.7124252 649.6724411 -475.4340592)
(1151.918448 460.3117164 -382.1664088)
(181.8956876 -93.85762337 -184.1576285)
(1355.563729 595.4492404 101.7497258)
(-431.3519761 429.1244664 237.9127024)
(605.6019566 -199.7999515 -506.5325423)
(601.0474876 371.995001 -188.5091145)
(780.5766309 351.2717106 199.7792211)
(1865.525485 63.63886751 289.9759031)
(305.8618406 36.06833289 -470.6515738)
(13.75477195 135.9216093 -242.643458)
(554.3376013 443.3905238 -236.5570049)
(921.190109 -85.58630602 -360.1084943)
(1907.011227 397.3325186 -543.137055)
(1096.133603 -672.9083061 -0.6191489689)
(724.148108 519.5103821 -482.9630429)
(-295.6214042 -208.2409514 -439.3737894)
(-361.2961299 -321.4418874 573.6551662)
(411.8712322 203.4621616 242.8809707)
(508.1073958 810.2717068 533.7877172)
(-67.8021107 229.5278637 -327.5132772)
(149.834211 289.9152159 279.6395132)
(-120.272146 772.8376388 117.2014643)
(2065.470259 386.2693879 -752.7265388)
(681.5889191 556.039419 133.0473012)
(-132.1436823 1037.575369 912.4584031)
(630.3242316 -100.5011617 32.81357583)
(1111.340555 541.0349176 -497.1733411)
(307.1897057 -311.8937382 -242.174808)
(-68.41266149 204.4281105 -25.04168803)
(458.8820909 1802.821068 574.3981161)
(541.2116768 -71.25321909 -245.726555)
(560.7760913 280.3539876 447.1293829)
(187.0477755 272.728914 -506.3631217)
(1005.835789 39.74350149 -673.6839397)
(630.658963 -293.023204 604.5946788)
(535.5092261 218.3505204 267.4908043)
(925.870473 1329.827651 -198.2529817)
(1157.256281 396.896514 530.6320422)
(481.6046641 692.5406346 -32.50450645)
(438.078109 -61.40323134 657.7038687)
(1778.922227 439.890028 97.03866954)
(524.561343 947.2027938 525.09292)
(-327.3765178 373.0335465 -381.2969235)
(-70.09446109 163.2342358 -79.45718408)
(441.9792693 1.159703049 -298.5957555)
(1182.850793 272.0767883 -495.4395296)
(882.7438746 -282.6042629 -538.4899554)
(-478.2873528 -605.1083019 95.57622478)
(-268.9806179 918.9013117 45.47959025)
(917.4713388 247.6406115 44.85173318)
(860.1414907 1376.701195 -238.7876002)
(656.2561424 671.3677569 -161.7242339)
(643.2002516 760.85059 477.4615186)
(451.2288362 213.5709074 717.0070241)
(393.7033814 331.8577256 -1085.289306)
(761.9355077 512.4570505 -207.9017286)
(56.14392436 1173.931614 357.0432101)
(304.1538771 358.4671773 -444.5301051)
(1625.730365 1185.158793 -203.1441418)
(608.9549511 1096.062812 -1036.004669)
(1946.145179 -47.19649937 -113.5122808)
(955.8344643 905.2058113 -172.2222841)
(103.4507835 282.9848465 -166.0995702)
(699.5554709 306.8195837 -1229.964006)
(-43.16616189 835.5815018 252.6933393)
(635.2132697 -92.10414816 -194.1512487)
(1613.591511 737.222744 67.54037869)
(933.8961189 948.2313778 -58.09887508)
(235.7852571 737.3850169 95.68141576)
(669.7584043 -19.94201065 -416.4884048)
(171.0627984 384.8068675 113.2662262)
(626.5319403 1235.376386 -152.3987719)
(296.3431251 1036.839003 1433.143071)
(139.4538556 573.9580925 157.2216202)
(-216.5523577 399.8531688 136.2680205)
(1049.292711 -133.2901547 -507.4687243)
(-161.985869 -208.044225 24.15662111)
(1304.691485 375.4140843 -61.23940658)
(740.8928914 237.5229304 -144.9783692)
(646.1840012 281.9945358 -456.5609185)
(-844.0485527 512.7461211 -427.6175135)
(73.16227355 -8.959263408 -184.9358487)
(1527.324032 -175.9929818 -41.45471385)
(395.2560258 -538.7998031 -580.8693555)
(302.4328027 576.5245799 596.9483497)
(1155.953894 116.8232796 -918.7916312)
(-255.3097812 1408.841409 244.4194535)
(1428.376849 909.1144497 618.4653631)
(359.925801 586.7972862 -419.8226544)
(629.1038309 362.0178239 -1479.482199)
(395.3333193 226.3132599 476.7579541)
(206.1580489 227.8633692 -339.5152606)
(146.2308991 -38.2767925 -1001.063675)
(1015.599766 534.8057824 -5.169781662)
(-798.897938 576.1728523 -639.3088743)
(-374.5983481 13.12273409 260.6985619)
(-457.8585795 544.2928026 750.325715)
(1017.47281 1009.838492 662.4456924)
(888.3375823 -397.8387252 19.80159931)
(473.9828638 -440.4833873 159.1972396)
(907.6753768 299.6519016 -186.618509)
(61.41863958 433.2648557 -266.4213929)
(391.6072744 -42.75190636 171.6219057)
(-116.1266381 232.7463804 -139.6848873)
(-377.5855166 117.8818865 610.711743)
(616.0107908 -515.08961 -75.71095324)
(813.2517551 1143.72658 -229.8653751)
(645.7694077 278.7798004 -38.62952755)
(572.1414925 238.1969034 880.5417491)
(566.103441 520.2749475 839.373323)
(-28.59409812 -142.7535218 -718.126128)
(570.0668857 57.8468056 344.6634042)
(318.3656776 385.5988629 -122.8034338)
(225.2579137 74.29978349 -86.44498941)
(279.4534519 810.8188641 -49.76098923)
(1000.917609 162.5946335 131.3393289)
(-295.2029311 -58.50714054 -111.8225521)
(738.7786339 571.4550262 -128.0008148)
(1127.990163 -374.9902998 512.9252489)
(169.4600301 213.8361871 36.55829269)
(169.2378994 -138.4473853 595.5865945)
(519.1904192 163.9808582 353.6728415)
(1380.686839 896.320392 -277.7974188)
(710.4731463 -745.5487334 333.1578955)
(1526.224131 440.0986114 -519.8299044)
(814.2634372 279.8386731 772.4174131)
(281.9395277 282.8430632 706.374224)
(1195.373851 -404.6536998 81.84095389)
(1249.841259 -133.0448764 -278.737382)
(830.193342 629.4693051 301.6843723)
(91.95726598 1188.764949 -269.7178177)
(912.2688076 495.0504089 114.8082155)
(1917.415621 695.0304176 616.0611792)
(1272.429638 -174.2228081 66.47756478)
(-470.2223259 782.0040868 229.4281197)
(312.9446619 -233.9431991 368.7929467)
(-25.95586036 290.8511032 387.2340174)
(441.8467668 669.0301063 216.1614533)
(851.1306981 844.9266636 -7.594583544)
(611.2826322 -369.4402586 413.7609662)
(819.1405243 662.5507276 -641.9915793)
(-400.5429272 -499.8098334 -123.4353708)
(44.30696243 291.8764169 -711.8069666)
(259.7310931 -10.02448176 -1193.423164)
(548.1529338 -780.3876606 -35.89856909)
(593.7388623 68.93777344 -855.7821783)
(659.2892161 -199.9717509 -742.4734034)
(986.1010469 -291.7046253 -204.3266553)
(1000.65887 1155.941477 848.5726733)
(820.9424827 1435.608595 720.6271615)
(693.6551783 16.40496762 982.9766816)
(2327.244947 -48.39877114 454.982065)
(1.307086022 437.2410507 -424.5153861)
(-259.200064 39.60156331 -710.2964676)
(-1233.12505 -88.03890349 917.7401447)
(305.7871013 130.7728511 -212.7507978)
(1302.930095 1717.721756 -15.66424602)
(781.277746 722.1691999 -1384.523126)
(754.1695467 246.4907176 -1013.823732)
(-269.5431174 61.75918472 583.2290375)
(1385.936313 571.4296938 122.2943432)
(523.7536809 291.8198235 -766.043549)
(-194.9923818 410.4019494 1673.047928)
(1208.420943 483.9252094 28.66390078)
(1380.972321 -667.5653152 423.8545637)
(972.9328366 -308.6375573 -76.09075947)
(881.5263647 -41.80654587 195.9873661)
(-20.51451331 612.041769 214.5899812)
(-105.2363808 608.586071 338.2176056)
(301.0940734 754.0840048 -516.7322988)
(899.0394913 18.81331289 -898.4564474)
(-676.2120576 -715.5270557 -135.2511392)
(-331.7418712 682.3990265 299.2046215)
(2160.44712 212.1387787 -554.6704828)
(390.328312 654.1789116 -240.4342269)
(141.2383584 260.4997299 -142.8813749)
(980.8708624 617.7816477 118.1600114)
(1125.311961 70.51556029 201.5306595)
(478.1723433 791.3246755 169.3246925)
(246.9148761 324.7168639 -207.0634321)
(1520.944579 190.9900496 -598.9101196)
(1330.341447 -251.7355013 65.26392032)
(-528.5429198 117.0349859 -296.9713995)
(543.6438599 45.44446934 80.98813062)
(702.2661629 1171.546926 -1100.400512)
(934.51012 610.1986746 281.6378947)
(982.692743 -260.6958402 -1134.147813)
(-10.71812193 -301.827428 472.7685737)
(306.7040057 782.795671 -48.22900939)
(-346.0156483 268.0095666 -954.3523794)
(711.0854598 234.9491557 -218.8348427)
(1060.525942 -660.9421755 -529.3130855)
(559.7971876 -234.6136229 314.0820586)
(-96.34411554 644.2908852 -663.7976272)
(1060.656601 704.3759746 239.6650001)
(711.6485247 400.201658 272.1442493)
(662.9905354 -285.8418716 -575.4724012)
(-148.5571197 -405.5175697 120.6965316)
(535.9395185 709.6128529 670.1897652)
(626.0180513 619.1069114 -40.91427192)
(358.1065112 835.9221433 833.9491429)
(811.3046365 -548.2114757 -544.6757188)
(-206.2760485 235.4208798 55.80991689)
(-839.9934629 -990.8195592 283.6989886)
(552.1495203 -177.0751103 -579.8504614)
(763.8683563 98.05011564 889.0037317)
(79.03147806 346.3024243 -1.578263117)
(28.56655714 542.7937297 -560.4983677)
(419.2571746 464.2388194 125.8054705)
(16.88824205 -252.3190704 -508.1592907)
(339.3203213 1298.089247 -212.7566137)
(-375.7208381 923.6099797 -168.1235093)
(124.6054564 715.1113482 910.301434)
(-35.01075517 815.4971806 174.0665952)
(1243.290138 366.8092889 501.4708463)
(-24.70482287 211.8797963 -439.6738075)
(721.6257913 866.3708371 481.2044448)
(847.8809416 594.9512968 -150.1604667)
(1176.038996 96.98790247 -143.398521)
(902.4466812 -275.6744766 -55.67080905)
(374.6988882 173.3044012 -4.614007386)
(808.1853137 132.7640311 -384.0837176)
(-236.6974656 621.4425356 86.51865043)
(342.5740009 -501.3981034 335.6648107)
(257.8432761 -387.2308664 467.8979738)
(960.6167791 554.494485 -669.2844696)
(925.725531 -260.6970207 67.48125399)
(196.8309429 -537.8467066 977.2360229)
(1232.87931 956.6190259 -68.56301254)
(762.8735491 -29.49063138 -396.5580468)
(-259.8455756 -528.9635039 815.4838388)
(-47.39806799 161.781262 167.2028521)
(-680.2117036 279.4869822 -57.04140113)
(-440.2813046 778.4926238 368.8253641)
(636.2071792 -609.4699925 -206.0618244)
(-344.7952748 575.2272262 -480.9692627)
(516.0448619 358.4417916 -736.1116686)
(176.0148948 -12.09531669 398.1563592)
(304.4977417 421.7826545 79.47232819)
(457.4116288 767.9220823 -56.40253758)
(-351.6627843 412.2458949 -546.7704652)
(547.7731621 -294.6816672 -149.8788116)
(1511.233884 363.9004224 -832.6981719)
(107.2109678 451.3966549 -470.1044519)
(-50.3206185 295.3899197 -480.6553576)
(-70.75059041 886.9939231 -140.906491)
(37.44058116 -183.4856814 -445.8350046)
(582.1110258 52.09214168 -103.0478843)
(729.6533545 -474.7819106 -593.8364086)
(628.754264 589.6853556 -338.2930661)
(-123.0883141 163.7305083 -212.0707911)
(666.0449279 658.2617687 -172.8538)
(418.0760093 407.4984589 -682.9584124)
(496.8477052 112.4722308 790.9748081)
(542.1643869 -531.0135516 -349.5962068)
(534.0219916 504.3012987 -244.531113)
(1563.497446 -279.0971742 602.8621399)
(1182.50924 813.130546 677.6606318)
(572.5653534 640.0456282 518.4068423)
(1322.472098 -34.30417226 1158.579588)
(1544.310318 1461.897642 56.12015029)
(197.7045723 216.3064118 307.2355818)
(63.82046724 -82.49686947 -76.94629297)
(484.0958751 372.8281677 755.3091409)
(455.2345322 197.7375942 -905.9776443)
(1215.022866 -393.660959 -849.1853801)
(1617.532764 -379.4544136 -387.1172986)
(340.8870676 642.6762145 -636.0702599)
(638.5319906 284.1556611 7.891473816)
(655.3260312 401.6584025 130.422593)
(184.6426059 -353.5670502 -205.6964373)
(-118.3246012 334.3558016 -115.6813651)
(398.2729767 1295.388869 201.2361128)
(1032.687421 -648.2177924 -503.2923148)
(890.2365249 1540.780499 339.2786554)
(307.5195445 153.3601571 -177.6182926)
(1609.334958 157.7924041 -742.9383214)
(852.071627 1220.869748 701.1554609)
(823.4909111 949.7990181 628.0624568)
(1126.762865 350.9127289 340.7708786)
(930.6163457 392.0489837 -611.6533834)
(1160.009963 7.950149079 -656.6364902)
(-273.7348751 284.7872799 11.64628828)
(1393.161835 132.8660145 -423.6411017)
(1415.655758 1442.211558 628.605058)
(-347.0578198 684.48338 263.0388719)
(865.0624354 -451.7027629 295.506424)
(-197.2146584 670.2385009 -1161.574466)
(827.0327049 329.2739749 -281.1908895)
(437.5035559 -70.99084899 -447.3760489)
(112.38751 -243.3251661 -336.9296332)
(1353.45589 86.2978469 640.4726429)
(522.9609512 203.6695635 440.2427516)
(-357.1505982 395.4559982 602.5417339)
(71.2041804 612.0060517 394.1949563)
(829.8224662 256.1166732 680.8513267)
(-135.1637438 1086.286838 126.2678294)
(1101.765546 -42.64086219 -216.1189994)
(367.009852 309.6295398 547.6177464)
(634.4269939 55.29502168 -179.8185505)
(1119.295625 -386.8766791 -431.91092)
(289.3290119 -702.3143434 -360.9431094)
(458.6347243 -306.4727281 59.07410927)
(471.1509683 1144.549533 590.3740774)
(-333.229459 294.9809447 547.3022074)
(696.588608 942.6158362 90.86987178)
(393.9111865 143.1995464 198.4189243)
(-24.60097395 1013.48705 -68.96838233)
(-225.2508523 160.3369029 315.3832844)
(6.338964563 -446.1469588 225.0311614)
(119.857675 671.7762643 415.3624897)
(527.8364105 454.5000859 -217.5380252)
(298.3481745 -694.4600182 102.5900737)
(1322.774918 -292.6986097 650.5552962)
(-171.5200198 644.141746 -691.985431)
(-295.4330913 -42.00760192 24.69859249)
(-357.9338018 483.5654894 -2.793499335)
(-329.7111194 676.3893427 437.5427258)
(-100.7017392 4.172213509 -379.0846878)
(-330.7298681 28.50343906 61.53947464)
(823.3030556 -192.6175769 161.9028383)
(901.1965447 -534.560542 1008.930163)
(806.2998638 634.2464148 85.78651266)
(-317.6956171 622.6479473 -740.5524396)
(847.6393425 498.5333394 -214.4470412)
(105.3328126 320.9785667 -642.3139104)
(-178.0928318 352.918 492.6149319)
(993.4118176 60.26688433 -170.2455581)
(325.5281306 714.6977068 -266.398855)
(863.9964622 451.950229 445.0541713)
(-429.5804735 -87.49747426 273.6119051)
(333.984313 748.9074596 -153.248131)
(1276.394741 439.2128295 -277.5254642)
(508.8368533 560.2303844 128.1574609)
(1074.361176 -118.8675345 357.9699755)
(483.4180793 342.1105571 221.5492399)
(1003.377163 578.5852057 75.71420299)
(294.0312254 153.6134382 -524.7806616)
(894.4055568 -151.1348191 546.1574774)
(572.7786787 336.4011703 218.868223)
(1201.896063 10.1423278 91.36852921)
(1664.496849 727.0118495 -439.7433935)
(1817.840433 -38.44951389 327.5020743)
(1259.920375 574.1972514 -311.3001658)
(1319.22131 201.2206215 301.3636991)
(369.8525498 -20.64098648 -478.3320908)
(247.6931959 215.2382175 -1.713262967)
(345.2057857 611.2849628 -686.0248612)
(696.1739395 435.4785587 253.7903349)
(358.7489784 388.6629242 -253.3627082)
(-378.5066215 734.5456305 -60.87997864)
(2291.518373 -163.0053023 -497.1313627)
(1684.553073 501.3205719 -54.76814454)
(495.8491487 621.0830899 -117.5647509)
(1471.068649 310.8902433 -869.1386254)
(354.2086644 1002.963276 -946.0924559)
(612.2524557 695.1521567 660.6659696)
(359.9202631 483.8526609 -291.6586243)
(1078.834509 676.1587319 245.1819983)