/*--------------------------------*- C++ -*----------------------------------*\
| =========                 |                                                 |
| \\      /  F ield         | OpenFOAM: The Open Source CFD Toolbox           |
|  \\    /   O peration     | Version:  2406                                  |
|   \\  /    A nd           | Website:  www.openfoam.com                      |
|    \\/     M anipulation  |                                                 |
\*---------------------------------------------------------------------------*/
FoamFile
{
    version     2.0;
    format      ascii;
    arch        "LSB;label=32;scalar=64";
    class       volScalarField;
    location    "0.004";
    object      dsmcRhoNMean;
}
// * * * * * * * * * * * * * * * * * * * * * * * * * * * * * * * * * * * * * //

dimensions      [0 -3 0 0 0 0 0];

internalField   nonuniform List<scalar> 
654
(
7.299
9.4135
9.481
9.495
9.508
9.5445
9.511
9.528
9.517
9.449
9.4355
9.4745
9.416
9.4445
9.4795
9.551
9.574
9.733
10.193
13.1085
7.3775
9.528
9.628
9.5785
9.567
9.6555
9.623
9.603
9.6405
9.6635
9.641
9.6325
9.6905
9.725
9.7045
9.774
9.914
10.174
10.802
12.5465
7.4785
9.676
9.728
9.7415
9.6885
9.7015
9.7425
9.709
9.723
9.6695
9.666
9.6715
9.675
9.717
9.774
9.778
9.773
9.9805
10.3715
11.352
7.508
9.5375
9.581
9.566
9.4685
9.434
9.4765
9.479
9.476
9.544
9.592
9.6295
9.6955
9.6015
9.6155
9.584
9.639
9.862
10.231
10.935
7.447
9.559
9.513
9.527
9.5925
9.608
9.5975
9.5385
9.5135
9.4925
9.4445
9.448
9.5265
9.549
9.63
9.8025
9.908
10.0255
10.175
10.4815
7.456
9.5415
9.631
9.5745
9.526
9.588
9.485
9.5625
9.5985
9.6495
9.67
9.612
9.522
9.53
9.578
9.491
9.5425
9.716
9.905
10.162
7.4635
9.569
9.6465
9.623
9.6965
9.697
9.696
9.6445
9.6905
9.6515
9.62
9.6715
9.704
9.653
9.661
9.6315
9.7735
9.741
9.9075
10.1205
7.444
9.57
9.6315
9.6955
9.6405
9.6435
9.7685
9.801
9.807
9.72
9.6345
9.543
9.6035
9.623
9.6795
9.7805
9.7715
9.78
9.847
9.8895
7.4355
9.6575
9.6745
9.597
9.55
9.4995
9.5745
9.5875
9.5325
9.5805
9.755
9.7365
9.647
9.6255
9.4995
9.5215
9.6135
9.7325
9.709
9.82
7.4315
9.435
9.549
9.619
9.6615
9.688
9.6325
9.6075
9.6175
9.625
9.6075
9.633
9.698
9.7175
9.749
9.8165
9.7965
9.6305
9.734
9.773
7.4855
9.574
9.6135
9.53
9.5175
9.4635
9.3955
9.41
9.4755
9.4835
9.523
9.556
9.599
9.5565
9.514
9.416
9.4965
9.6095
9.716
9.7165
7.459
9.569
9.61
9.59
9.6675
9.7
9.746
9.713
9.751
9.6285
9.581
9.4745
9.4155
9.544
9.616
9.691
9.7205
9.636
9.6385
9.755
7.458
9.5935
9.653
9.606
9.547
9.521
9.49
9.47
9.423
9.5075
9.6145
9.65
9.6865
9.6615
9.581
9.651
9.642
9.7305
9.76
9.7095
7.4545
9.624
9.6595
9.693
9.6775
9.68
9.6295
9.6515
9.624
9.567
9.509
9.5385
9.532
9.5525
9.566
9.486
9.4325
9.471
9.408
9.568
7.3615
9.5645
9.627
9.5805
9.626
9.636
9.6775
9.6895
9.7215
9.7315
9.6665
9.641
9.691
9.6375
9.6245
9.5315
9.607
9.5925
9.5655
9.521
7.5055
9.627
9.62
9.641
9.585
9.6495
9.656
9.5655
9.574
9.499
9.5195
9.4455
9.337
9.3785
9.456
9.544
9.522
9.4605
9.542
9.506
7.4925
9.55
9.576
9.649
9.581
9.6215
9.545
9.626
9.64
9.6885
9.7425
9.738
9.7735
9.8065
9.6775
9.671
9.6945
9.72
9.6725
9.685
7.428
9.5345
9.6055
9.6035
9.629
9.61
9.669
9.6475
9.6
9.55
9.5665
9.617
9.662
9.6805
9.6655
9.6815
9.7905
9.7275
9.689
9.72
7.4985
9.6005
9.66
9.6045
9.6555
9.709
9.6875
9.724
9.744
9.751
9.7115
9.6845
9.5485
9.5675
9.5155
9.56
9.514
9.5145
9.5785
9.571
7.429
9.639
9.768
9.738
9.671
9.6705
9.6575
9.6945
9.685
9.671
9.709
9.6995
9.8
9.811
9.8795
9.7725
9.7575
9.806
9.803
9.8235
7.431
9.533
9.5095
9.5195
9.544
9.5795
9.543
9.3755
9.444
9.494
9.5515
9.5595
9.551
9.5055
9.547
9.6545
9.638
9.5615
9.543
9.494
7.3945
9.479
9.517
9.425
9.4435
9.388
9.504
9.6245
9.6625
9.6585
9.5795
9.5555
9.5425
9.559
9.5715
9.599
9.573
9.5725
9.646
9.6545
23.011
26.335
27.138
28.277
28.3985
28.756
28.6405
28.5305
27.5675
27.7795
15.8145
18.829
20.5745
22.13
23.447
23.9315
24.2925
24.611
24.83
24.5785
13.0685
14.9685
16.6995
18.276
19.696
20.7335
21.669
22.5275
22.7495
23.009
11.957
13.1205
14.2045
15.548
16.7795
18.1515
19.4615
20.0495
20.512
21.1645
11.0575
11.847
12.78
14.0075
14.894
15.653
16.7835
17.567
18.666
19.5885
10.5565
11.0825
11.7955
12.305
13.01
13.8955
15.016
16.004
16.787
17.716
10.3
10.625
10.9095
11.5025
12.008
12.7545
13.425
14.4
15.3665
16.209
10.0895
10.2615
10.386
10.831
11.143
11.606
12.3215
12.918
13.6385
14.4065
9.9495
10.1105
10.2595
10.4425
10.6895
11.0075
11.213
11.8535
12.514
13.076
9.8625
9.8505
9.895
9.943
10.0735
10.5025
10.8535
11.1255
11.4285
11.835
9.8105
9.8915
10.051
10.1255
10.198
10.2265
10.34
10.641
10.9475
11.3095
9.695
9.6915
9.6105
9.61
9.703
9.843
9.962
10.137
10.328
10.556
9.7005
9.719
9.735
9.686
9.627
9.7205
9.891
9.907
9.968
10.248
9.5855
9.551
9.518
9.4935
9.4915
9.475
9.4515
9.555
9.702
9.741
9.4615
9.4145
9.408
9.495
9.483
9.571
9.5725
9.612
9.612
9.6275
9.6545
9.7025
9.5735
9.499
9.495
9.4015
9.415
9.411
9.514
9.4635
9.5945
9.5695
9.4625
9.4065
9.206
9.241
9.2845
9.228
9.171
9.3305
9.6385
9.4905
9.4025
9.387
9.4785
9.393
9.3185
9.2445
9.2015
9.2485
9.549
9.646
9.6185
9.6
9.454
9.3465
9.3145
9.243
9.1495
9.2275
9.6955
9.6085
9.5005
9.3675
9.333
9.308
9.334
9.3825
9.246
9.151
9.4805
9.414
9.388
9.347
9.304
9.2175
9.116
9.0395
9.096
9.008
9.599
9.4755
9.375
9.349
)
;

boundaryField
{
    flow
    {
        type            calculated;
        value           nonuniform List<scalar> 
42
(
7.299
7.3775
7.4785
7.508
7.447
7.456
7.4635
7.444
7.4355
7.4315
7.4855
7.459
7.458
7.4545
7.3615
7.5055
7.4925
7.428
7.4985
7.429
7.431
7.3945
7.299
9.4135
9.481
9.495
9.508
9.5445
9.511
9.528
9.517
9.449
9.4355
9.4745
9.416
9.4445
9.4795
9.551
9.574
9.733
10.193
13.1085
)
;
    }
    obstacle
    {
        type            calculated;
        value           nonuniform List<scalar> 10(23.011 26.335 27.138 28.277 28.3985 28.756 28.6405 28.5305 27.5675 27.7795);
    }
    frontAndBack
    {
        type            empty;
    }
    procBoundary0to1
    {
        type            processor;
        value           nonuniform List<scalar> 
21
(
27.2335
24.352
22.9
21.3545
19.9385
18.525
16.8775
15.3555
13.811
12.425
11.6885
10.9765
10.344
9.866
9.781
9.389
9.343
9.304
9.178
9.1235
8.9375
)
;
    }
    procBoundary0to2
    {
        type            processor;
        value           nonuniform List<scalar> 
31
(
7.416
9.5315
9.6875
9.6165
9.6255
9.559
9.546
9.464
9.422
9.441
9.5
9.6355
9.6105
9.558
9.595
9.509
9.5505
9.4865
9.412
9.4035
9.312
9.259
9.18
9.1715
9.119
9.1135
9.472
9.471
9.4955
9.312
9.339
)
;
    }
}


// ************************************************************************* //
