/*--------------------------------*- C++ -*----------------------------------*\
| =========                 |                                                 |
| \\      /  F ield         | OpenFOAM: The Open Source CFD Toolbox           |
|  \\    /   O peration     | Version:  2406                                  |
|   \\  /    A nd           | Website:  www.openfoam.com                      |
|    \\/     M anipulation  |                                                 |
\*---------------------------------------------------------------------------*/
FoamFile
{
    version     2.0;
    format      ascii;
    arch        "LSB;label=32;scalar=64";
    class       volScalarField;
    location    "0.004";
    object      dsmcSigmaTcRMax;
}
// * * * * * * * * * * * * * * * * * * * * * * * * * * * * * * * * * * * * * //

dimensions      [0 3 -1 0 0 0 0];

internalField   nonuniform List<scalar> 
654
(
5.545870265e-16
6.583265e-16
6.108646134e-16
5.866403003e-16
5.72412906e-16
5.865386616e-16
6.110990481e-16
6.097710396e-16
6.149143532e-16
5.649714428e-16
5.945007609e-16
8.504836161e-16
7.095446114e-16
7.435956121e-16
7.729130894e-16
8.658610282e-16
7.861222285e-16
8.362921828e-16
8.400282473e-16
8.475916329e-16
5.740937325e-16
5.746638676e-16
5.97946086e-16
5.698319799e-16
6.01485024e-16
5.926194587e-16
5.74315798e-16
5.774820566e-16
6.098132619e-16
5.94196257e-16
6.314406303e-16
7.414422173e-16
6.558277841e-16
6.762800272e-16
8.091481748e-16
7.281717701e-16
8.093779086e-16
8.246137923e-16
8.526199285e-16
8.717365353e-16
6.211151892e-16
6.113459007e-16
6.087117844e-16
5.798941668e-16
5.9436029e-16
6.316341362e-16
6.33175897e-16
6.244842007e-16
7.817943987e-16
5.858098103e-16
5.865655609e-16
7.252616478e-16
7.552568559e-16
7.437998786e-16
8.671626902e-16
8.247864492e-16
8.319128841e-16
8.422810019e-16
8.176533132e-16
8.438422361e-16
5.800289844e-16
6.225840616e-16
5.874503846e-16
5.982958732e-16
5.458398538e-16
6.445887087e-16
5.698828886e-16
6.601166476e-16
6.480279118e-16
5.875758281e-16
6.099231285e-16
6.401231009e-16
7.079043242e-16
5.57937352e-16
8.464675765e-16
7.490515249e-16
8.128549506e-16
8.31648919e-16
8.75177272e-16
8.054373094e-16
6.059153748e-16
5.731264325e-16
5.991898638e-16
5.852973513e-16
6.263018777e-16
6.289510285e-16
6.037644555e-16
5.554679712e-16
7.221734047e-16
5.816002663e-16
5.57905442e-16
5.795369263e-16
6.162829031e-16
8.146214203e-16
7.82038388e-16
7.799039898e-16
8.094186486e-16
7.758408337e-16
8.406740868e-16
8.693773448e-16
6.133049863e-16
5.97280081e-16
6.896273503e-16
6.461588741e-16
5.555605809e-16
6.190859002e-16
6.150211903e-16
5.939528074e-16
6.91947189e-16
7.975917381e-16
7.715256129e-16
5.935480576e-16
5.701548848e-16
5.911586132e-16
7.616743157e-16
8.188798544e-16
8.515114975e-16
9.158130289e-16
8.31545588e-16
8.388548759e-16
5.670465346e-16
6.02851502e-16
6.527787921e-16
5.922938471e-16
5.709237178e-16
5.868204337e-16
5.633473138e-16
6.259727211e-16
6.210180643e-16
5.683132081e-16
6.37474548e-16
5.97416961e-16
5.944069306e-16
7.805048518e-16
7.195637464e-16
7.316282866e-16
8.286683336e-16
8.44557443e-16
7.786441097e-16
7.864602977e-16
6.165851427e-16
5.639382311e-16
5.907055026e-16
6.180258642e-16
5.874797965e-16
5.931494052e-16
5.859390621e-16
6.088945174e-16
5.753337139e-16
6.40926244e-16
6.081993247e-16
6.350023719e-16
5.467178142e-16
5.915178226e-16
7.502103569e-16
7.836946322e-16
7.757129908e-16
7.334050312e-16
8.367702041e-16
8.638937452e-16
5.454241715e-16
5.633030443e-16
5.704212369e-16
5.993551142e-16
5.542994353e-16
5.900314281e-16
5.892442067e-16
6.073390027e-16
6.06307778e-16
6.131575238e-16
5.686682988e-16
5.996911128e-16
5.833694191e-16
7.75620383e-16
7.898557639e-16
7.435631247e-16
8.086437191e-16
7.036862338e-16
7.484282389e-16
8.151070576e-16
5.79441637e-16
5.677500579e-16
6.0170559e-16
5.902909413e-16
5.734231074e-16
5.733186843e-16
6.103039303e-16
6.216444193e-16
6.251081034e-16
6.203844983e-16
6.117368354e-16
7.740123766e-16
7.18589553e-16
8.668127552e-16
6.225176343e-16
7.528951474e-16
7.371062884e-16
7.339053357e-16
7.455002511e-16
8.005379514e-16
6.041266832e-16
5.735701826e-16
5.865173472e-16
5.799985819e-16
6.417237336e-16
6.117969708e-16
5.87008862e-16
5.716358604e-16
5.962778649e-16
5.811707745e-16
5.944569855e-16
5.997445982e-16
6.976918099e-16
6.321743583e-16
7.036849784e-16
7.087138988e-16
7.725024126e-16
8.113089127e-16
7.810678873e-16
7.585206033e-16
5.910259629e-16
6.303942477e-16
6.189336348e-16
6.079759554e-16
5.719535856e-16
6.160447692e-16
5.619877954e-16
6.14246767e-16
5.849482304e-16
5.644702646e-16
6.16757683e-16
6.344698596e-16
5.90214465e-16
7.58471593e-16
5.802302006e-16
6.812629315e-16
7.229350262e-16
7.13160206e-16
7.561697027e-16
7.473305288e-16
5.888429785e-16
5.76004318e-16
5.905273977e-16
6.203865565e-16
5.54002345e-16
5.697129404e-16
6.47602767e-16
8.319178339e-16
5.884552629e-16
6.001147191e-16
5.681992251e-16
5.47268279e-16
6.107884106e-16
6.358560781e-16
6.112152526e-16
7.194420647e-16
6.787889446e-16
7.845191328e-16
7.312468833e-16
7.78607924e-16
5.676057766e-16
5.786469221e-16
5.898607884e-16
6.296619976e-16
6.288418578e-16
6.305688028e-16
5.542952927e-16
5.997610831e-16
6.405633968e-16
5.800980733e-16
7.582766612e-16
6.062279327e-16
6.060483402e-16
5.708245374e-16
5.66357732e-16
6.269050723e-16
6.087187307e-16
6.804395316e-16
6.791446236e-16
6.177318944e-16
5.54904601e-16
6.093529047e-16
5.710777381e-16
5.980873217e-16
5.664064003e-16
6.123068209e-16
6.158757995e-16
6.201199933e-16
6.029160082e-16
6.01301436e-16
5.873673833e-16
6.107225858e-16
5.925285976e-16
5.948840415e-16
6.425022355e-16
6.063103342e-16
5.834964582e-16
6.989527572e-16
7.128572587e-16
7.037340402e-16
5.949922866e-16
6.420358384e-16
6.003252556e-16
5.913263384e-16
5.932465339e-16
5.877632128e-16
5.882179385e-16
5.982851482e-16
5.83751182e-16
5.923029796e-16
5.861486042e-16
6.012092853e-16
6.050673498e-16
6.173844951e-16
6.162259743e-16
6.040677189e-16
6.349999275e-16
6.168005925e-16
7.607696495e-16
8.224253836e-16
5.613203983e-16
5.854607187e-16
5.926423831e-16
6.093704603e-16
5.790745038e-16
5.967926066e-16
5.761791882e-16
6.379016037e-16
6.048180895e-16
5.873003824e-16
5.687855738e-16
5.975191133e-16
6.121425601e-16
5.677390827e-16
5.940810164e-16
5.930420868e-16
6.206944562e-16
6.200264518e-16
6.360648774e-16
8.119529741e-16
5.407145435e-16
6.014652936e-16
6.248716148e-16
5.912198198e-16
5.782038094e-16
5.60514116e-16
6.097250465e-16
6.453042671e-16
5.919924204e-16
5.858488691e-16
5.713526925e-16
6.562949228e-16
5.57725596e-16
6.042107141e-16
5.954562526e-16
7.014950086e-16
5.775855643e-16
6.154390625e-16
6.107282893e-16
7.643709532e-16
5.583896251e-16
5.686980609e-16
6.205721967e-16
5.994463657e-16
5.765177079e-16
6.328353514e-16
5.680544509e-16
6.103408779e-16
5.942256514e-16
5.64088575e-16
5.955700648e-16
6.296851738e-16
5.945222816e-16
5.505038981e-16
5.722215447e-16
6.254904512e-16
6.242669577e-16
6.201191338e-16
5.749860147e-16
5.906634802e-16
5.587409255e-16
6.26743704e-16
5.746134756e-16
6.274603105e-16
5.894928908e-16
6.275383727e-16
5.941998208e-16
5.967820226e-16
6.186324105e-16
5.676039301e-16
5.784613364e-16
5.70330722e-16
6.527414703e-16
5.949261341e-16
6.338862567e-16
8.46699122e-16
6.384208343e-16
6.223344915e-16
5.880593755e-16
8.113602186e-16
5.321441409e-16
6.392545043e-16
6.410104421e-16
5.844470519e-16
6.126807023e-16
6.084625081e-16
5.959134224e-16
5.890814931e-16
6.019398452e-16
5.814797245e-16
5.884116703e-16
7.656140473e-16
6.309136135e-16
6.277447676e-16
8.054218675e-16
6.281547992e-16
6.508178876e-16
6.097945829e-16
5.812289682e-16
7.360361807e-16
5.568132691e-16
5.894371637e-16
6.251922248e-16
6.042668291e-16
5.802458115e-16
5.853279503e-16
5.98409612e-16
6.033673745e-16
5.789419764e-16
5.944463972e-16
5.864542384e-16
5.755553466e-16
7.457437284e-16
6.374126035e-16
6.87295892e-16
6.092778192e-16
5.721152807e-16
6.584704632e-16
5.925317529e-16
7.089255215e-16
8.453550054e-16
8.953532317e-16
9.077155719e-16
8.852239782e-16
8.832627097e-16
8.510286863e-16
9.141735792e-16
8.538237989e-16
8.322765383e-16
8.861870315e-16
8.992199429e-16
8.667855115e-16
9.04225825e-16
8.691696817e-16
8.759316832e-16
8.721043237e-16
8.778487616e-16
8.886404687e-16
9.20661526e-16
8.48577127e-16
8.873452136e-16
8.397110639e-16
9.042527304e-16
9.11522556e-16
8.656255956e-16
8.622596675e-16
8.753232766e-16
8.990835831e-16
8.262352304e-16
8.310450939e-16
8.289239613e-16
8.664582486e-16
8.926095904e-16
8.668513972e-16
8.377339287e-16
8.741894131e-16
9.01183733e-16
9.095017931e-16
8.746815195e-16
8.873199309e-16
8.521052208e-16
8.323988984e-16
8.579090993e-16
8.49338302e-16
8.694991528e-16
8.584868924e-16
8.310862686e-16
8.519083801e-16
8.561799656e-16
8.44427099e-16
8.044063291e-16
8.141070739e-16
8.364532752e-16
8.158114962e-16
8.200957102e-16
8.536470181e-16
8.308450577e-16
8.701186061e-16
8.500252433e-16
8.262364216e-16
7.984099075e-16
7.713740399e-16
7.861610528e-16
8.331626407e-16
7.816672327e-16
8.690610594e-16
8.002221741e-16
8.066291803e-16
8.24870305e-16
8.175119747e-16
8.229143992e-16
8.653784269e-16
8.364221097e-16
8.665843683e-16
8.446612492e-16
8.41461925e-16
8.709835321e-16
8.379366434e-16
7.992812277e-16
7.855174761e-16
7.88567511e-16
7.692783332e-16
7.594603729e-16
8.216755699e-16
8.509071817e-16
8.216292749e-16
8.375699768e-16
7.965072234e-16
8.270273055e-16
7.855843253e-16
8.717017351e-16
8.714963824e-16
8.256016568e-16
8.199369349e-16
7.663936966e-16
7.860846232e-16
7.888058376e-16
7.786676847e-16
8.171279937e-16
8.181151707e-16
7.923942113e-16
7.545845634e-16
8.593471171e-16
7.195824599e-16
8.340916304e-16
8.216201632e-16
8.913551624e-16
7.77336099e-16
8.224619015e-16
7.885171468e-16
7.505134331e-16
7.82787926e-16
7.666516212e-16
8.474835438e-16
7.794092364e-16
8.227904762e-16
7.885786916e-16
7.423674317e-16
8.189459448e-16
7.754961691e-16
7.393553282e-16
7.596550517e-16
7.149879959e-16
7.78701505e-16
7.644679983e-16
8.340129793e-16
8.554564059e-16
7.597127787e-16
7.400383764e-16
7.665814998e-16
7.337576922e-16
7.658965676e-16
8.18010404e-16
7.921505847e-16
8.386297888e-16
7.698744524e-16
8.362213781e-16
8.20990497e-16
7.574859381e-16
7.418016973e-16
6.975457105e-16
7.434216135e-16
7.955453536e-16
7.671166312e-16
7.680999644e-16
8.09522497e-16
7.169594271e-16
8.044404647e-16
8.121242127e-16
7.77492275e-16
6.989453679e-16
6.543441733e-16
6.988020447e-16
7.673319608e-16
7.930434619e-16
7.611687124e-16
7.212367368e-16
8.079871477e-16
7.751611473e-16
7.121637669e-16
7.092871629e-16
7.228061267e-16
5.920056153e-16
7.354754811e-16
7.088843805e-16
7.318217819e-16
7.85050646e-16
7.036132619e-16
7.332569583e-16
7.366275347e-16
6.848528858e-16
7.043940785e-16
7.662555853e-16
7.593987586e-16
8.54214979e-16
7.199379808e-16
7.352292279e-16
7.652472685e-16
7.822937554e-16
7.429580892e-16
6.521328793e-16
7.488498696e-16
6.759839495e-16
7.268624954e-16
7.777960661e-16
6.735487459e-16
7.188478668e-16
6.941893889e-16
7.395772674e-16
7.400506274e-16
6.082493288e-16
7.737435973e-16
6.596107461e-16
6.771228403e-16
6.631383371e-16
7.02401306e-16
7.000939339e-16
7.033326946e-16
7.126586439e-16
7.873724001e-16
5.624979498e-16
6.445124735e-16
6.672588082e-16
6.53506418e-16
7.941713625e-16
6.271007046e-16
6.342162608e-16
7.191390263e-16
6.644383522e-16
7.494816948e-16
5.748007647e-16
6.998634201e-16
6.998634201e-16
6.177376761e-16
)
;

boundaryField
{
    flow
    {
        type            zeroGradient;
    }
    obstacle
    {
        type            zeroGradient;
    }
    frontAndBack
    {
        type            empty;
    }
    procBoundary0to1
    {
        type            processor;
        value           nonuniform List<scalar> 
21
(
8.923705598e-16
8.442621287e-16
8.969227752e-16
8.422206704e-16
9.38730981e-16
8.341688259e-16
8.425212306e-16
9.174333777e-16
8.111939212e-16
8.121631546e-16
7.939525392e-16
7.629617071e-16
7.826106632e-16
7.854921666e-16
7.367926725e-16
7.627291618e-16
7.351309976e-16
7.363758015e-16
7.607753432e-16
7.82592707e-16
7.520028169e-16
)
;
    }
    procBoundary0to2
    {
        type            processor;
        value           nonuniform List<scalar> 
31
(
5.808734642e-16
5.935175517e-16
5.471543951e-16
6.059135872e-16
5.937390646e-16
5.950918012e-16
5.721091098e-16
5.912450245e-16
6.233426551e-16
6.08352801e-16
6.243320989e-16
5.914719671e-16
6.254698482e-16
6.084517887e-16
5.791647383e-16
5.570193897e-16
6.183894279e-16
7.249864719e-16
6.674069471e-16
5.577600849e-16
5.854813129e-16
6.659051421e-16
6.0273059e-16
6.549564637e-16
6.663314913e-16
6.553724077e-16
6.092597706e-16
6.175220492e-16
5.810054625e-16
5.854813129e-16
6.222574966e-16
)
;
    }
}


// ************************************************************************* //
