/*--------------------------------*- C++ -*----------------------------------*\
| =========                 |                                                 |
| \\      /  F ield         | OpenFOAM: The Open Source CFD Toolbox           |
|  \\    /   O peration     | Version:  2406                                  |
|   \\  /    A nd           | Website:  www.openfoam.com                      |
|    \\/     M anipulation  |                                                 |
\*---------------------------------------------------------------------------*/
FoamFile
{
    version     2.0;
    format      ascii;
    arch        "LSB;label=32;scalar=64";
    class       volScalarField;
    location    "0.004";
    object      iDofMean;
}
// * * * * * * * * * * * * * * * * * * * * * * * * * * * * * * * * * * * * * //

dimensions      [0 -3 0 0 0 0 0];

internalField   nonuniform List<scalar> 
654
(
1.52023544e+20
1.960643418e+20
1.974702316e+20
1.977618235e+20
1.980325875e+20
1.987928093e+20
1.980950715e+20
1.984491474e+20
1.982200394e+20
1.968037357e+20
1.965225578e+20
1.973348496e+20
1.961164118e+20
1.967100097e+20
1.974389896e+20
1.989281913e+20
1.994072352e+20
2.027188866e+20
2.122997649e+20
2.730237877e+20
1.536585417e+20
1.984491474e+20
2.00531947e+20
1.995009612e+20
1.992614393e+20
2.011047169e+20
2.00427807e+20
2.000112471e+20
2.00792297e+20
2.012713409e+20
2.00802711e+20
2.00625673e+20
2.018336968e+20
2.025522626e+20
2.021252887e+20
2.035728345e+20
2.064887539e+20
2.119040329e+20
2.249840145e+20
2.613184538e+20
1.557621693e+20
2.015316908e+20
2.026147466e+20
2.028959246e+20
2.017920408e+20
2.020628047e+20
2.029167526e+20
2.022190147e+20
2.025106067e+20
2.013963089e+20
2.013234109e+20
2.014379649e+20
2.015108628e+20
2.023856387e+20
2.035728345e+20
2.036561464e+20
2.035520065e+20
2.078738157e+20
2.160175622e+20
2.364394124e+20
1.563765952e+20
1.986470134e+20
1.995530312e+20
1.992406113e+20
1.972098816e+20
1.964913158e+20
1.973765056e+20
1.974285756e+20
1.973660916e+20
1.987823953e+20
1.997821392e+20
2.00563189e+20
2.019378368e+20
1.999800051e+20
2.002715971e+20
1.996155152e+20
2.00761055e+20
2.054056981e+20
2.130912287e+20
2.27754138e+20
1.551060874e+20
1.990948153e+20
1.981367275e+20
1.984283194e+20
1.997925532e+20
2.001153871e+20
1.998966931e+20
1.986678414e+20
1.981471415e+20
1.977097535e+20
1.967100097e+20
1.967829077e+20
1.984179054e+20
1.988865353e+20
2.00573603e+20
2.041664324e+20
2.063637859e+20
2.088110755e+20
2.119248609e+20
2.183086417e+20
1.552935394e+20
1.987303254e+20
2.00594431e+20
1.994176492e+20
1.984074914e+20
1.996988272e+20
1.975535436e+20
1.991677133e+20
1.999175211e+20
2.009797489e+20
2.014067229e+20
2.001986991e+20
1.983241794e+20
1.984908034e+20
1.994905472e+20
1.976785115e+20
1.987511534e+20
2.023648107e+20
2.06301302e+20
2.11654097e+20
1.554497493e+20
1.993030952e+20
2.00917265e+20
2.00427807e+20
2.019586648e+20
2.019690788e+20
2.019482508e+20
2.00875609e+20
2.018336968e+20
2.010214049e+20
2.003653231e+20
2.014379649e+20
2.021148747e+20
2.010526469e+20
2.012192709e+20
2.00604845e+20
2.035624205e+20
2.028855106e+20
2.063533719e+20
2.107897351e+20
1.550436034e+20
1.993239232e+20
2.00604845e+20
2.019378368e+20
2.00792297e+20
2.00854781e+20
2.034582805e+20
2.041351904e+20
2.042601583e+20
2.024481227e+20
2.00667329e+20
1.987615673e+20
2.000216611e+20
2.00427807e+20
2.016045888e+20
2.037082164e+20
2.035207645e+20
2.036978024e+20
2.050932782e+20
2.05978468e+20
1.548665654e+20
2.011463729e+20
2.015004488e+20
1.998862791e+20
1.989073633e+20
1.978555495e+20
1.994176492e+20
1.996884132e+20
1.985428734e+20
1.995426172e+20
2.031771025e+20
2.027917846e+20
2.009276789e+20
2.00479877e+20
1.978555495e+20
1.983137654e+20
2.002299411e+20
2.027084726e+20
2.022190147e+20
2.045309223e+20
1.547832535e+20
1.965121438e+20
1.988865353e+20
2.003444951e+20
2.012296849e+20
2.017816268e+20
2.00625673e+20
2.001049731e+20
2.003132531e+20
2.00469463e+20
2.001049731e+20
2.00636087e+20
2.019899068e+20
2.023960527e+20
2.030521346e+20
2.044580243e+20
2.040414644e+20
2.00584017e+20
2.027397146e+20
2.035520065e+20
1.559079653e+20
1.994072352e+20
2.002299411e+20
1.984908034e+20
1.982304534e+20
1.971057417e+20
1.956894379e+20
1.959914439e+20
1.973556776e+20
1.975223016e+20
1.983450074e+20
1.990323313e+20
1.999279351e+20
1.990427453e+20
1.981575555e+20
1.961164118e+20
1.977930655e+20
2.001466291e+20
2.023648107e+20
2.023752247e+20
1.553560234e+20
1.993030952e+20
2.001570431e+20
1.997404832e+20
2.013546529e+20
2.020315627e+20
2.029896506e+20
2.023023267e+20
2.030937905e+20
2.00542361e+20
1.995530312e+20
1.973348496e+20
1.961059978e+20
1.987823953e+20
2.002820111e+20
2.018441108e+20
2.024585367e+20
2.00698571e+20
2.00750641e+20
2.031771025e+20
1.553351954e+20
1.998133812e+20
2.010526469e+20
2.000737311e+20
1.988448793e+20
1.983033514e+20
1.976576836e+20
1.972411236e+20
1.962622078e+20
1.980221735e+20
2.002507691e+20
2.009901629e+20
2.017503848e+20
2.012296849e+20
1.995530312e+20
2.010109909e+20
2.00823539e+20
2.026668166e+20
2.032812425e+20
2.022294287e+20
1.552622974e+20
2.00448635e+20
2.011880289e+20
2.018857668e+20
2.015629328e+20
2.016150028e+20
2.00563189e+20
2.010214049e+20
2.00448635e+20
1.992614393e+20
1.980534155e+20
1.986678414e+20
1.985324594e+20
1.989594333e+20
1.992406113e+20
1.975743716e+20
1.964600738e+20
1.972619516e+20
1.959497879e+20
1.992822673e+20
1.533252937e+20
1.992093693e+20
2.00511119e+20
1.995426172e+20
2.00490291e+20
2.00698571e+20
2.015629328e+20
2.018128688e+20
2.024793647e+20
2.026876446e+20
2.013338249e+20
2.00802711e+20
2.018441108e+20
2.00729813e+20
2.00459049e+20
1.985220454e+20
2.000945591e+20
1.997925532e+20
1.992301973e+20
1.983033514e+20
1.563245252e+20
2.00511119e+20
2.003653231e+20
2.00802711e+20
1.996363432e+20
2.009797489e+20
2.011151309e+20
1.992301973e+20
1.994072352e+20
1.978451355e+20
1.982721094e+20
1.967308377e+20
1.944710001e+20
1.95335362e+20
1.969495317e+20
1.987823953e+20
1.983241794e+20
1.970432577e+20
1.987407394e+20
1.979909315e+20
1.560537612e+20
1.989073633e+20
1.994488912e+20
2.009693349e+20
1.995530312e+20
2.00396565e+20
1.988032233e+20
2.00490291e+20
2.00781883e+20
2.017920408e+20
2.029167526e+20
2.028230266e+20
2.035624205e+20
2.042497443e+20
2.015629328e+20
2.014275509e+20
2.019170088e+20
2.024481227e+20
2.014587929e+20
2.017191428e+20
1.547103555e+20
1.985845294e+20
2.000633171e+20
2.000216611e+20
2.00552775e+20
2.001570431e+20
2.013858949e+20
2.009380929e+20
1.999487631e+20
1.989073633e+20
1.992510253e+20
2.003028391e+20
2.012400989e+20
2.016254168e+20
2.013129969e+20
2.016462448e+20
2.039164964e+20
2.026043326e+20
2.018024548e+20
2.024481227e+20
1.561787292e+20
1.999591771e+20
2.011984429e+20
2.000424891e+20
2.011047169e+20
2.022190147e+20
2.017712128e+20
2.025314347e+20
2.029479946e+20
2.030937905e+20
2.022710847e+20
2.017087288e+20
1.988761213e+20
1.992718533e+20
1.981887975e+20
1.991156433e+20
1.981575555e+20
1.981679695e+20
1.995009612e+20
1.993447512e+20
1.547311835e+20
2.00761055e+20
2.034478665e+20
2.028230266e+20
2.014275509e+20
2.014171369e+20
2.011463729e+20
2.019170088e+20
2.017191428e+20
2.014275509e+20
2.022190147e+20
2.020211487e+20
2.041143624e+20
2.043434703e+20
2.057701881e+20
2.035415925e+20
2.032291725e+20
2.042393303e+20
2.041768463e+20
2.046038203e+20
1.547728395e+20
1.985532874e+20
1.980638295e+20
1.982721094e+20
1.987823953e+20
1.995217892e+20
1.987615673e+20
1.95272878e+20
1.966995957e+20
1.977409955e+20
1.989386053e+20
1.991052293e+20
1.989281913e+20
1.979805175e+20
1.988448793e+20
2.010838889e+20
2.00740227e+20
1.991468853e+20
1.987615673e+20
1.977409955e+20
1.540126176e+20
1.974285756e+20
1.982200394e+20
1.963038638e+20
1.966891817e+20
1.955332279e+20
1.979492755e+20
2.00459049e+20
2.012505129e+20
2.011672009e+20
1.995217892e+20
1.990219173e+20
1.987511534e+20
1.990948153e+20
1.993551652e+20
1.999279351e+20
1.993864072e+20
1.993759932e+20
2.00906851e+20
2.010838889e+20
4.809726445e+20
5.542353749e+20
5.75089352e+20
6.03404034e+20
6.102513921e+20
6.223028084e+20
6.242168707e+20
6.2627912e+20
6.095115171e+20
6.186679302e+20
3.305524266e+20
3.962672441e+20
4.360002903e+20
4.722329554e+20
5.038493017e+20
5.178967753e+20
5.294526402e+20
5.402413359e+20
5.489859788e+20
5.473795325e+20
2.731559256e+20
3.150207787e+20
3.538840236e+20
3.899922952e+20
4.23244588e+20
4.486895006e+20
4.722737163e+20
4.945059808e+20
5.029865697e+20
5.124257243e+20
2.499235109e+20
2.761285453e+20
3.010117439e+20
3.317793938e+20
3.605723271e+20
3.928129582e+20
4.24161472e+20
4.401108717e+20
4.535159242e+20
4.713474832e+20
2.3112229e+20
2.493269977e+20
2.708247447e+20
2.989066031e+20
3.200550819e+20
3.387434228e+20
3.657947262e+20
3.856169821e+20
4.127012601e+20
4.362489159e+20
2.206504594e+20
2.332376511e+20
2.499619151e+20
2.625768871e+20
2.795700691e+20
3.007097186e+20
3.272722377e+20
3.513072336e+20
3.711569722e+20
3.945470962e+20
2.152891329e+20
2.236092978e+20
2.311864282e+20
2.454523078e+20
2.580382317e+20
2.760175676e+20
2.925965502e+20
3.160974864e+20
3.397500219e+20
3.609852042e+20
2.108892919e+20
2.159592292e+20
2.200927855e+20
2.311231422e+20
2.394503674e+20
2.511631101e+20
2.685458766e+20
2.835657867e+20
3.015443122e+20
3.208423311e+20
2.079630319e+20
2.127813464e+20
2.174120866e+20
2.228329253e+20
2.297051697e+20
2.382110921e+20
2.443862283e+20
2.601987191e+20
2.766818582e+20
2.912112117e+20
2.061445704e+20
2.073094954e+20
2.096878599e+20
2.121740748e+20
2.164680318e+20
2.272824889e+20
2.365509614e+20
2.44218235e+20
2.526816858e+20
2.635733168e+20
2.050576737e+20
2.081723641e+20
2.129937017e+20
2.160684496e+20
2.191433949e+20
2.213096283e+20
2.253592795e+20
2.335828715e+20
2.420468789e+20
2.518700825e+20
2.026435091e+20
2.039632481e+20
2.036589366e+20
2.050681743e+20
2.085064091e+20
2.130103821e+20
2.171208077e+20
2.225194611e+20
2.283498678e+20
2.350891377e+20
2.027584693e+20
2.04542002e+20
2.062972534e+20
2.066899415e+20
2.068732549e+20
2.103593838e+20
2.155733685e+20
2.174706785e+20
2.203903429e+20
2.282297719e+20
2.00354755e+20
2.010063426e+20
2.016987403e+20
2.025821756e+20
2.039615154e+20
2.050465676e+20
2.059945086e+20
2.097438526e+20
2.145091399e+20
2.169385434e+20
1.977629264e+20
1.981336225e+20
1.993676993e+20
2.026141856e+20
2.037788615e+20
2.071240857e+20
2.086316931e+20
2.109950733e+20
2.125192607e+20
2.144108245e+20
2.017969836e+20
2.041947499e+20
2.028748599e+20
2.026995417e+20
2.040367264e+20
2.034559703e+20
2.051989962e+20
2.065828763e+20
2.103525002e+20
2.107584355e+20
2.005428721e+20
2.013956862e+20
2.005226235e+20
2.007256791e+20
1.978264458e+20
1.999826207e+20
2.023547616e+20
2.02565807e+20
2.027688452e+20
2.077964371e+20
2.014625539e+20
1.997330867e+20
1.992511485e+20
2.003095679e+20
2.036821588e+20
2.032720221e+20
2.030957868e+20
2.029280006e+20
2.034431936e+20
2.059702425e+20
1.99591839e+20
2.030056745e+20
2.038284668e+20
2.048547848e+20
2.031556831e+20
2.022657249e+20
2.030086086e+20
2.028950738e+20
2.022934834e+20
2.055025601e+20
2.026539598e+20
2.022164653e+20
2.01327894e+20
1.998934566e+20
2.00555531e+20
2.014325556e+20
2.034336092e+20
2.059572682e+20
2.044270791e+20
2.037988527e+20
1.981600604e+20
1.981230984e+20
1.989438734e+20
1.994560076e+20
1.999323541e+20
1.994740619e+20
1.986823207e+20
1.984280031e+20
2.011106112e+20
2.006141477e+20
2.006369305e+20
1.994174016e+20
1.986683866e+20
1.994986857e+20
)
;

boundaryField
{
    flow
    {
        type            calculated;
        value           nonuniform List<scalar> 
42
(
1.52023544e+20
1.536585417e+20
1.557621693e+20
1.563765952e+20
1.551060874e+20
1.552935394e+20
1.554497493e+20
1.550436034e+20
1.548665654e+20
1.547832535e+20
1.559079653e+20
1.553560234e+20
1.553351954e+20
1.552622974e+20
1.533252937e+20
1.563245252e+20
1.560537612e+20
1.547103555e+20
1.561787292e+20
1.547311835e+20
1.547728395e+20
1.540126176e+20
1.52023544e+20
1.960643418e+20
1.974702316e+20
1.977618235e+20
1.980325875e+20
1.987928093e+20
1.980950715e+20
1.984491474e+20
1.982200394e+20
1.968037357e+20
1.965225578e+20
1.973348496e+20
1.961164118e+20
1.967100097e+20
1.974389896e+20
1.989281913e+20
1.994072352e+20
2.027188866e+20
2.122997649e+20
2.730237877e+20
)
;
    }
    obstacle
    {
        type            calculated;
        value           nonuniform List<scalar> 10(276.7574339 286.1552698 301.3082878 276.3504483 303.668332 302.4606074 283.4942593 284.09928 291.5875129 278.772719);
    }
    frontAndBack
    {
        type            empty;
    }
    procBoundary0to1
    {
        type            processor;
        value           nonuniform List<scalar> 
21
(
6.109536732e+20
5.463103846e+20
5.137363584e+20
4.790647626e+20
4.472983573e+20
4.155880372e+20
3.786281829e+20
3.444837839e+20
3.098346223e+20
2.787412337e+20
2.622186648e+20
2.462457274e+20
2.320562828e+20
2.213328776e+20
2.194259975e+20
2.106319063e+20
2.095999468e+20
2.087250261e+20
2.058983545e+20
2.046757053e+20
2.00503001e+20
)
;
    }
    procBoundary0to2
    {
        type            processor;
        value           nonuniform List<scalar> 
31
(
1.544604195e+20
1.985220454e+20
2.017712128e+20
2.002924251e+20
2.00479877e+20
1.990948153e+20
1.988240513e+20
1.971161557e+20
1.962413798e+20
1.966371117e+20
1.978659635e+20
2.00688157e+20
2.001674571e+20
1.990739873e+20
1.998446231e+20
1.980534155e+20
1.989177773e+20
1.975847856e+20
1.960330999e+20
1.958560619e+20
2.00104265e+20
2.003721551e+20
2.00077193e+20
2.013255619e+20
2.016191363e+20
2.029637028e+20
1.979823946e+20
1.993226979e+20
2.012219375e+20
2.00104265e+20
1.992852939e+20
)
;
    }
}


// ************************************************************************* //
