/*--------------------------------*- C++ -*----------------------------------*\
| =========                 |                                                 |
| \\      /  F ield         | OpenFOAM: The Open Source CFD Toolbox           |
|  \\    /   O peration     | Version:  2406                                  |
|   \\  /    A nd           | Website:  www.openfoam.com                      |
|    \\/     M anipulation  |                                                 |
\*---------------------------------------------------------------------------*/
FoamFile
{
    version     2.0;
    format      ascii;
    arch        "LSB;label=32;scalar=64";
    class       volScalarField;
    location    "0.004";
    object      iDof;
}
// * * * * * * * * * * * * * * * * * * * * * * * * * * * * * * * * * * * * * //

dimensions      [0 -3 0 0 0 0 0];

internalField   nonuniform List<scalar> 
654
(
1.666239693e+20
1.457959731e+20
1.874519654e+20
2.291079578e+20
2.707639501e+20
3.124199424e+20
2.082799616e+20
1.874519654e+20
1.666239693e+20
1.666239693e+20
1.457959731e+20
3.540759347e+20
2.082799616e+20
1.666239693e+20
2.707639501e+20
1.24967977e+20
1.874519654e+20
2.291079578e+20
2.082799616e+20
1.666239693e+20
1.457959731e+20
2.291079578e+20
2.291079578e+20
2.082799616e+20
1.041399808e+20
1.874519654e+20
3.124199424e+20
1.457959731e+20
1.457959731e+20
2.707639501e+20
1.874519654e+20
1.874519654e+20
1.457959731e+20
1.874519654e+20
2.707639501e+20
2.291079578e+20
2.082799616e+20
2.707639501e+20
2.082799616e+20
3.332479385e+20
1.24967977e+20
2.499359539e+20
2.082799616e+20
1.24967977e+20
1.041399808e+20
2.291079578e+20
1.666239693e+20
1.874519654e+20
1.457959731e+20
2.082799616e+20
2.082799616e+20
1.041399808e+20
1.24967977e+20
1.041399808e+20
2.499359539e+20
3.332479385e+20
2.499359539e+20
2.291079578e+20
3.124199424e+20
2.915919462e+20
1.874519654e+20
2.082799616e+20
1.457959731e+20
2.499359539e+20
2.915919462e+20
8.331198464e+19
2.499359539e+20
2.082799616e+20
2.082799616e+20
2.707639501e+20
2.291079578e+20
1.666239693e+20
2.707639501e+20
2.707639501e+20
8.331198464e+19
1.457959731e+20
2.499359539e+20
1.874519654e+20
2.082799616e+20
2.291079578e+20
8.331198464e+19
1.874519654e+20
1.666239693e+20
2.082799616e+20
2.915919462e+20
1.24967977e+20
2.499359539e+20
6.248398848e+19
2.082799616e+20
1.041399808e+20
1.666239693e+20
2.707639501e+20
2.291079578e+20
2.082799616e+20
1.874519654e+20
3.749039309e+20
6.248398848e+19
2.291079578e+20
2.291079578e+20
6.248398848e+19
1.874519654e+20
2.499359539e+20
1.666239693e+20
2.082799616e+20
2.082799616e+20
1.457959731e+20
2.291079578e+20
3.124199424e+20
2.499359539e+20
2.082799616e+20
6.248398848e+19
2.082799616e+20
1.457959731e+20
1.24967977e+20
2.707639501e+20
1.457959731e+20
2.915919462e+20
2.291079578e+20
2.499359539e+20
1.666239693e+20
1.666239693e+20
1.457959731e+20
2.082799616e+20
1.041399808e+20
2.707639501e+20
2.499359539e+20
6.248398848e+19
2.082799616e+20
2.915919462e+20
2.499359539e+20
2.082799616e+20
1.24967977e+20
1.041399808e+20
1.874519654e+20
1.874519654e+20
2.082799616e+20
1.666239693e+20
2.707639501e+20
1.874519654e+20
1.457959731e+20
1.24967977e+20
1.874519654e+20
1.874519654e+20
1.457959731e+20
2.082799616e+20
2.499359539e+20
1.666239693e+20
3.332479385e+20
1.457959731e+20
1.457959731e+20
2.707639501e+20
2.291079578e+20
2.499359539e+20
1.666239693e+20
1.874519654e+20
2.291079578e+20
1.24967977e+20
1.041399808e+20
2.291079578e+20
3.124199424e+20
1.874519654e+20
2.082799616e+20
2.915919462e+20
2.082799616e+20
1.666239693e+20
2.291079578e+20
1.874519654e+20
1.874519654e+20
2.707639501e+20
1.041399808e+20
1.24967977e+20
2.291079578e+20
2.082799616e+20
1.457959731e+20
2.499359539e+20
2.082799616e+20
2.707639501e+20
2.082799616e+19
1.041399808e+20
2.082799616e+20
1.457959731e+20
2.707639501e+20
8.331198464e+19
1.874519654e+20
2.291079578e+20
1.457959731e+20
2.707639501e+20
1.666239693e+20
2.082799616e+20
2.707639501e+20
1.24967977e+20
1.666239693e+20
8.331198464e+19
2.499359539e+20
1.24967977e+20
1.874519654e+20
2.082799616e+20
1.666239693e+20
3.124199424e+20
2.291079578e+20
8.331198464e+19
2.291079578e+20
3.749039309e+20
1.874519654e+20
1.457959731e+20
1.874519654e+20
2.707639501e+20
2.082799616e+20
2.291079578e+20
1.24967977e+20
2.499359539e+20
2.291079578e+20
1.666239693e+20
1.874519654e+20
2.707639501e+20
1.457959731e+20
2.707639501e+20
3.95731927e+20
6.248398848e+19
1.874519654e+20
2.499359539e+20
1.457959731e+20
1.874519654e+20
1.874519654e+20
1.666239693e+20
1.457959731e+20
1.874519654e+20
2.291079578e+20
2.082799616e+20
2.082799616e+20
2.082799616e+20
1.457959731e+20
2.499359539e+20
1.457959731e+20
2.291079578e+20
2.082799616e+20
2.082799616e+20
1.24967977e+20
1.24967977e+20
2.082799616e+20
1.457959731e+20
1.874519654e+20
2.291079578e+20
2.082799616e+20
2.499359539e+20
2.499359539e+20
1.457959731e+20
1.666239693e+20
2.082799616e+20
2.082799616e+20
1.24967977e+20
1.874519654e+20
8.331198464e+19
1.24967977e+20
2.915919462e+20
3.332479385e+20
2.291079578e+20
1.457959731e+20
6.248398848e+19
3.124199424e+20
2.082799616e+20
1.874519654e+20
1.874519654e+20
2.707639501e+20
1.666239693e+20
8.331198464e+19
1.666239693e+20
2.291079578e+20
2.291079578e+20
2.291079578e+20
2.291079578e+20
1.457959731e+20
2.707639501e+20
1.666239693e+20
2.082799616e+20
2.082799616e+20
1.24967977e+20
1.457959731e+20
2.915919462e+20
6.248398848e+19
2.291079578e+20
1.666239693e+20
2.291079578e+20
1.874519654e+20
3.124199424e+20
1.666239693e+20
2.499359539e+20
2.915919462e+20
2.082799616e+20
2.291079578e+20
1.666239693e+20
2.082799616e+20
1.666239693e+20
2.291079578e+20
1.666239693e+20
2.291079578e+20
1.874519654e+20
1.24967977e+20
2.082799616e+20
1.457959731e+20
1.24967977e+20
1.874519654e+20
3.124199424e+20
1.24967977e+20
2.291079578e+20
2.707639501e+20
1.457959731e+20
2.499359539e+20
1.874519654e+20
1.041399808e+20
2.082799616e+20
1.666239693e+20
1.24967977e+20
1.666239693e+20
1.24967977e+20
2.291079578e+20
2.915919462e+20
2.082799616e+20
2.291079578e+20
1.457959731e+20
1.041399808e+20
2.291079578e+20
1.457959731e+20
1.24967977e+20
1.457959731e+20
1.666239693e+20
1.666239693e+20
1.874519654e+20
1.041399808e+20
2.499359539e+20
2.707639501e+20
1.874519654e+20
2.291079578e+20
1.457959731e+20
2.082799616e+20
1.666239693e+20
1.457959731e+20
1.24967977e+20
2.707639501e+20
1.874519654e+20
1.666239693e+20
1.874519654e+20
2.291079578e+20
1.666239693e+20
1.666239693e+20
1.041399808e+20
2.291079578e+20
2.082799616e+20
1.457959731e+20
2.291079578e+20
1.457959731e+20
2.291079578e+20
2.707639501e+20
3.332479385e+20
1.457959731e+20
2.707639501e+20
2.291079578e+20
1.666239693e+20
2.499359539e+20
1.041399808e+20
1.666239693e+20
2.082799616e+20
1.874519654e+20
2.082799616e+20
2.915919462e+20
2.915919462e+20
2.291079578e+20
1.457959731e+20
1.041399808e+20
2.499359539e+20
2.499359539e+20
2.291079578e+20
2.707639501e+20
1.874519654e+20
1.457959731e+20
1.874519654e+20
2.499359539e+20
1.457959731e+20
2.291079578e+20
1.24967977e+20
1.457959731e+20
2.082799616e+20
2.707639501e+20
2.499359539e+20
2.291079578e+20
1.457959731e+20
1.666239693e+20
3.540759347e+20
1.666239693e+20
1.666239693e+20
1.24967977e+20
2.082799616e+20
1.24967977e+20
1.457959731e+20
2.082799616e+20
1.666239693e+20
1.666239693e+20
2.499359539e+20
1.24967977e+20
2.915919462e+20
1.666239693e+20
1.666239693e+20
3.332479385e+20
4.165599232e+19
2.082799616e+20
2.291079578e+20
1.24967977e+20
1.666239693e+20
2.082799616e+20
2.082799616e+20
2.499359539e+20
2.291079578e+20
1.041399808e+20
1.666239693e+20
2.915919462e+20
2.291079578e+20
2.291079578e+20
1.457959731e+20
1.666239693e+20
1.666239693e+20
1.666239693e+20
8.331198464e+19
1.874519654e+20
2.291079578e+20
2.291079578e+20
1.666239693e+20
1.666239693e+20
1.666239693e+20
1.666239693e+20
1.457959731e+20
1.874519654e+20
3.124199424e+20
2.082799616e+20
1.457959731e+20
4.165599232e+19
2.499359539e+20
2.291079578e+20
2.707639501e+20
2.915919462e+20
2.291079578e+20
4.80742724e+20
5.892762672e+20
5.297823642e+20
3.8410272e+20
6.446658015e+20
6.275831633e+20
4.576929273e+20
6.804876438e+20
2.432076426e+20
7.794732648e+20
2.508222909e+20
4.840483624e+20
5.297823645e+20
4.267808001e+20
4.942437813e+20
4.32815975e+20
6.538470395e+20
4.170730723e+20
4.864152853e+20
4.231426294e+20
2.717241484e+20
2.525469716e+20
1.907216511e+20
4.694588801e+20
5.372215018e+20
6.275831633e+20
2.833337169e+20
4.829267153e+20
2.87427214e+20
3.563306353e+20
2.926260059e+20
4.209116196e+20
3.390607133e+20
2.133903999e+20
3.653106207e+20
3.462527797e+20
2.615388158e+20
4.609755009e+20
4.421957139e+20
4.231426294e+20
2.508222908e+20
5.050939432e+20
3.178694187e+20
2.987465603e+20
3.00844041e+20
3.678935787e+20
4.79487829e+20
3.29268215e+20
3.537565714e+20
3.563306356e+20
1.672148605e+20
2.946381335e+20
2.754868294e+20
4.054417599e+20
3.653106207e+20
4.111751757e+20
3.487184206e+20
2.853657859e+20
4.864152849e+20
3.786013003e+20
3.762334362e+20
2.735925526e+20
2.754868295e+20
2.987465603e+20
2.578663208e+20
2.380487862e+20
2.833337171e+20
3.29268215e+20
3.979761425e+20
1.55894653e+20
2.926260059e+20
1.473190669e+20
1.907216512e+20
3.841027199e+20
2.793551805e+20
2.596895848e+20
3.051286184e+20
2.63414572e+20
3.316467854e+20
2.895186412e+20
2.090185757e+20
2.735925526e+20
2.542955348e+20
2.133904001e+20
3.223329011e+20
3.24611981e+20
1.961541117e+20
1.536585003e+20
2.653174283e+20
3.340599706e+20
2.090185758e+20
3.156837147e+20
2.966781241e+20
2.774075201e+20
3.438217609e+20
3.678935787e+20
2.833337171e+20
1.756097146e+20
2.87427214e+20
2.672479765e+20
1.881167181e+20
3.156837145e+20
2.119129457e+20
1.2803424e+20
2.148886006e+20
1.947671886e+20
1.089745065e+20
1.975609288e+20
3.095369997e+20
2.227066471e+20
2.508222908e+20
1.262734859e+20
1.695303566e+20
2.560684799e+20
2.363774606e+20
2.813303837e+20
2.179490139e+20
3.073170026e+20
1.768782864e+20
3.563306368e+20
1.881167181e+20
1.473190672e+20
2.542955358e+20
2.560684801e+20
1.933997397e+20
2.596895844e+20
3.269235191e+20
2.414633556e+20
2.874272128e+20
2.004359824e+20
3.135278624e+20
2.946381317e+20
2.542955331e+20
1.707123195e+20
3.438217611e+20
1.731263895e+20
1.307694072e+20
1.317072858e+20
2.432076416e+20
3.786012973e+20
1.254111461e+20
3.156837153e+20
2.119129457e+20
1.920513607e+20
1.504220215e+20
2.380487872e+20
1.961541121e+20
2.41463359e+20
2.432076433e+20
1.336239882e+20
1.672148603e+20
2.104558102e+20
2.754868312e+20
1.493732806e+20
2.148886007e+20
1.731263907e+20
1.743592108e+20
1.53658499e+20
1.768782848e+20
3.340599706e+20
2.926260055e+20
1.894102279e+20
6.357388327e+19
1.493732795e+20
2.148886007e+20
2.380487856e+20
1.525643094e+20
1.975609301e+20
1.768782861e+20
3.117893059e+20
2.090185754e+20
2.315013913e+20
1.48339063e+20
2.774075191e+20
2.148885992e+20
1.298447921e+20
2.615388143e+20
1.756097144e+20
2.210978576e+20
2.672479765e+20
2.299204345e+20
1.473190672e+20
1.695303565e+20
2.133904008e+20
2.363774608e+20
1.947671882e+20
3.051286189e+20
2.19512143e+20
1.989880704e+20
2.449773135e+20
1.045092877e+20
3.156837153e+20
4.238258913e+19
2.987465591e+20
2.363774608e+20
1.731263907e+20
3.051286189e+20
3.073170002e+20
1.547685003e+20
2.227066471e+20
2.508222905e+20
1.894102279e+20
1.271477674e+20
2.133904008e+20
1.074443004e+20
2.81330383e+20
1.743592108e+20
2.634145734e+20
2.210978576e+20
1.781653177e+20
1.672148603e+20
2.525469706e+20
1.695303565e+20
1.920513607e+20
)
;

boundaryField
{
    flow
    {
        type            zeroGradient;
    }
    obstacle
    {
        type            calculated;
        value           nonuniform List<scalar> 10(403.5283852 187.5779641 407.4739629 1e-300 169.6788719 1e-300 198.8035964 1014.570785 1e-300 317.4465756);
    }
    frontAndBack
    {
        type            empty;
    }
    procBoundary0to1
    {
        type            processor;
        value           nonuniform List<scalar> 
21
(
5.384136507e+20
5.384136511e+20
4.935458465e+20
5.159797486e+20
4.262441401e+20
4.486780429e+20
4.262441401e+20
2.916407275e+20
2.916407277e+20
3.589424338e+20
2.916407275e+20
2.243390219e+20
2.243390205e+20
1.121695102e+20
2.467729243e+20
2.467729225e+20
2.243390205e+20
1.794712177e+20
2.019051199e+20
2.467729225e+20
2.019051199e+20
)
;
    }
    procBoundary0to2
    {
        type            processor;
        value           nonuniform List<scalar> 
31
(
1.666239693e+20
1.666239693e+20
3.124199424e+20
1.666239693e+20
1.874519654e+20
3.332479385e+20
2.499359539e+20
2.499359539e+20
1.666239693e+20
2.707639501e+20
2.915919462e+20
1.666239693e+20
1.666239693e+20
2.291079578e+20
2.291079578e+20
1.874519654e+20
1.874519654e+20
2.291079578e+20
2.707639501e+20
1.24967977e+20
6.446658021e+19
2.164079869e+20
1.307694072e+20
1.317072858e+20
8.843914303e+19
2.227066471e+20
1.254111452e+20
1.894102292e+20
1.271477674e+20
6.446658021e+19
1.920513594e+20
)
;
    }
}


// ************************************************************************* //
