/*--------------------------------*- C++ -*----------------------------------*\
| =========                 |                                                 |
| \\      /  F ield         | OpenFOAM: The Open Source CFD Toolbox           |
|  \\    /   O peration     | Version:  2406                                  |
|   \\  /    A nd           | Website:  www.openfoam.com                      |
|    \\/     M anipulation  |                                                 |
\*---------------------------------------------------------------------------*/
FoamFile
{
    version     2.0;
    format      ascii;
    arch        "LSB;label=32;scalar=64";
    class       volScalarField;
    location    "0.004";
    object      internalE;
}
// * * * * * * * * * * * * * * * * * * * * * * * * * * * * * * * * * * * * * //

dimensions      [1 -1 -2 0 0 0 0];

internalField   nonuniform List<scalar> 
654
(
0.2078342587
0.6575835989
0.3890361847
0.427150637
0.5387525758
0.6463757427
0.3145375757
0.5177884975
0.2468475138
0.4435044301
0.2273007585
0.9182149981
0.6494848881
0.1805103353
0.829903584
0.2114787891
0.1949901635
0.6032365182
0.9807297198
0.3532981908
0.1854060063
0.7139811656
0.4720200102
0.6383264426
0.1458467484
0.5358187408
0.599255611
0.1647481004
0.2076109363
0.3661253806
0.2908365558
0.3564878752
0.424090728
0.3827907837
0.5724316377
0.3267668301
0.4096960829
0.6030257452
0.5005965591
1.620563937
0.2627715341
0.6588985856
0.3678897344
0.245448694
0.2412411866
0.6491450603
0.1920182848
0.318467282
0.2315936572
0.4807539663
0.6325604868
0.2781635772
0.10598074
0.1435721752
0.1894891025
0.9794833008
0.3943344605
0.7903940229
0.9905051504
0.6626251111
0.3473262176
0.3410363594
0.1668552635
0.4179255862
0.6166435587
0.1063243982
0.4041340936
0.4598492147
0.6686678339
0.4351399023
0.3862740382
0.3930580938
0.4773460574
0.6478299969
0.3410263611
0.2351635787
0.641552211
0.452171892
0.8694781612
0.6200660619
0.1831009548
0.4445353035
0.362270037
0.3805186348
0.6622852824
0.1513237846
0.482210233
0.1027216938
0.2076734689
0.1807647369
0.3839723017
0.3423484684
0.419586885
0.419746721
0.7756077089
0.9180072454
0.0451063331
0.2877172214
0.5680639491
0.238190848
0.4258747259
0.4320052581
0.3657571818
0.4951908806
0.4158485777
0.3809912017
0.3933587368
0.3691458683
0.3907207771
0.501933711
0.05135002269
0.3275786016
0.3201379643
0.137316829
0.5039106303
0.2424834487
0.6525948472
0.5460916051
0.5117432624
0.4810696978
0.3767443607
0.3247688922
0.6722799765
0.3952653824
0.357385293
0.4340776302
0.1894757862
0.4209496703
0.5404223014
0.540113041
0.4475006359
0.3990421667
0.3103788488
0.2405055202
0.3457158058
0.4512694387
0.1830432357
0.6194823637
0.5086258754
0.2069921736
0.2655985384
0.2560530744
0.341348677
0.346616008
0.3070840853
0.4143020414
0.2289933503
1.109474498
0.3229798822
0.1518415461
0.7405790718
0.449791935
0.6809813138
0.2343919197
0.4186532003
0.5235930928
0.2456825547
0.1800938025
0.4033249518
0.448923105
0.2678841227
0.5225799047
0.6387748194
0.6684676681
0.2615500595
0.6462525649
0.3395135929
0.1472729881
0.639676583
0.4093765045
0.1956660502
0.3775199783
0.2896484693
0.3886487164
0.5323241274
0.2287738757
0.5420074556
0.01167157894
0.1725370231
0.3707918205
0.6142976679
0.8582848273
0.3045572009
0.1712871928
0.3354919547
0.2536107499
0.5652610147
0.2412591983
0.3308391459
0.7384986628
0.3079338889
0.2904865955
0.1132906871
0.3455060635
0.1254583333
0.3388153501
0.4868828244
0.3073046341
0.5065411341
0.6583193176
0.2742889271
0.4887823479
0.9363264677
0.3258057037
0.3983088666
0.5922676852
0.3836077494
0.2504343725
0.6666018333
0.1734751111
0.4483701214
0.6777289773
0.4000462409
0.222389644
0.4936093034
0.2563286127
0.8457586846
1.240644422
0.03360870051
0.2837010592
0.420704726
0.3603357915
0.4256603874
0.3249050954
0.2428251696
0.1355892252
0.3188518293
0.3783017174
0.347350556
0.3266265155
0.6813849522
0.3882788066
0.8056516838
0.2011799736
0.6026325919
0.6174097799
0.4750377368
0.2503712654
0.163035333
0.4749596898
0.2915138072
0.1574611618
0.9765500437
0.515915198
0.4886798187
0.3916393816
0.2447029267
0.3280304035
0.4890458604
0.5233288182
0.1764083279
0.5539069914
0.1018682632
0.1269013619
0.6775156016
0.5477342003
0.4103919349
0.2885828339
0.08623667298
0.9830162543
0.4667210143
0.8409724482
0.4529376893
0.7488403122
0.3159694692
0.1847743761
0.3199592644
0.7210199717
0.6707484192
0.3977154234
0.3410355846
0.1659091415
0.4471252841
0.3508386915
0.4055512184
0.2331146987
0.1025239921
0.3911605002
0.6207122291
0.06536034944
0.6834807024
0.3299940596
0.3295699432
0.6578132269
0.7496994639
0.3610723826
0.5339432685
0.6241214357
0.3027035543
0.2529600364
0.1713053146
0.446923002
0.173813526
0.6102739173
0.2750637311
0.3478273343
0.1309644832
0.2891238585
0.3598779589
0.3634650686
0.1469371555
0.4495722752
0.6025950409
0.3514344285
0.5780632494
0.675010177
0.2287385581
0.693767147
0.5481587039
0.08167590252
0.650085001
0.496165487
0.2481390834
0.3068179611
0.3501556009
0.4007200236
0.7964842816
0.613579483
0.5838754504
0.1133221645
0.1180188719
0.3855428849
0.1381210049
0.4135211383
0.2376180684
0.4691824679
0.3484037386
0.6234035029
0.2267160399
0.3463660004
0.8582407203
0.2578295315
0.4568887061
0.3280619188
0.5758653225
0.2745096002
0.1571622281
0.1597570474
0.8701145118
0.4725469784
0.2319615744
0.5534607358
0.5740696325
0.3771834159
0.5649084037
0.1018524568
0.7211124151
0.3685821585
0.5195379783
0.5057469819
0.3682997792
0.4914056966
0.6487335478
0.6450493857
0.3124458682
0.6402136264
0.4506953396
0.1357399084
0.4210484135
0.2069988402
0.4037422076
0.4592844267
0.338931409
0.3688135741
0.3884707224
0.5712365017
0.4013179308
0.2691518613
0.1651240413
0.3621988076
0.5675317287
0.4347653677
0.5976377212
0.2491841816
0.2051010261
0.3213690429
0.5817636958
0.4642711457
0.3671003085
0.5514802583
0.2552077989
0.2812721077
0.6313099731
0.5955872009
0.4826888799
0.5191976799
0.1246501006
1.097947287
0.2655151852
0.3807613607
0.2979650767
0.7173626905
0.242903137
0.2192130742
0.3137784556
0.6023349235
0.4867422593
0.4551934156
0.3831160833
0.4796147778
0.4513884292
0.3115198631
0.6020647256
0.1011493201
0.3042087933
0.9065008581
0.2528762498
0.4239869234
0.5284945249
0.3977110859
0.3197276137
0.4037827589
0.1595097317
0.3831157845
0.4348960415
0.4955733429
0.7387421835
0.1938429113
0.1821891217
0.207431838
0.4376102677
0.0547564182
0.5197983762
0.3928131606
0.5182213158
0.4361525566
0.2654200264
0.2603185955
0.419041682
0.3921148
0.5274943755
0.7715186192
0.2801641334
0.3474844593
0.05957284988
0.4731583688
0.6013101039
0.4909851111
0.3982116096
0.672295764
1.145474726
2.054646433
3.851405561
1.779820531
2.481098836
3.343050681
1.801878964
3.691640703
1.172799774
4.008779982
0.8521358118
1.413467421
2.317038792
1.667866984
3.203523364
1.727588371
3.791977031
2.331780562
2.223147184
3.073654332
1.379496121
0.7745943891
0.6958040568
1.979722891
2.266518628
2.929068582
1.058768966
2.869081301
1.262989014
1.754912681
0.6390340468
1.780113386
0.8693273189
1.609500863
1.999272972
1.34675629
1.197077266
2.243598515
1.382989745
2.395593269
0.423705195
2.353466722
0.9385692277
0.5275048547
0.5501476431
2.164491782
2.738431585
1.848127678
1.203176629
1.484098545
0.4110020652
0.4450280617
0.6712530918
1.25547503
1.277787447
1.357256257
1.278420827
3.346510525
1.832741703
1.051164406
0.7189456656
0.4940641895
1.104398313
0.7866099982
0.3423641179
0.3325048868
1.041427034
2.327631269
1.447360407
0.8226460546
1.257006174
0.2935139253
0.3082171024
1.166849623
0.5681885502
0.7717098059
1.348130152
1.589954469
1.556904098
0.8391553157
0.5824620531
0.626440245
0.4874164798
0.4981175709
0.5927501366
0.9139398739
0.3518657186
0.4487876899
0.9594097555
1.283814579
0.5346332159
0.4821115637
0.542967797
0.562532068
0.96856489
1.217019024
0.9896748339
0.3908259111
0.5743818766
1.462239398
0.3573656154
0.4192054991
0.5832610555
0.1578757295
0.2832845349
0.2077226882
0.1676655016
0.5201168462
0.7370760634
0.4325503912
0.6492164857
0.1918875121
0.4368164648
0.7723522734
0.5355258482
0.4793370849
0.6813488054
0.6406205405
0.6739209541
0.7838263078
0.2369769578
0.4064400767
0.8907929963
0.4828478614
0.3557477924
0.5835923589
1.264482713
0.7908391595
0.6280772174
0.3613290308
0.484581751
0.4661399643
0.6537637558
0.5424193657
0.628968504
0.5559100416
0.927533098
0.2184013374
0.5380861658
0.9120992045
0.255283626
0.6090448874
0.454453862
0.4896420323
0.3298679211
0.8249286631
0.3635958877
0.4595263782
0.3608207347
0.2090848761
0.519762809
0.2980388341
0.6395709812
0.2009704131
0.2115821003
0.2003618607
0.3470999483
0.2111878509
0.3011527304
0.6216195238
0.4157906181
0.667165031
0.2180887059
0.0797739256
0.4106427224
0.3892078281
0.4561644404
0.5162382025
0.2097623523
0.5174983084
0.3580001211
0.7764680114
0.3160131127
0.4982312153
0.5212629539
0.3225996131
0.8167593703
0.3511479194
0.5707251899
0.4966535053
0.6083732637
0.2647159798
0.3749621818
0.6082611575
0.6250523761
0.3991476164
0.6746159768
0.5027549651
0.2967097777
0.4371814827
0.1955693961
0.6819278898
0.02190698489
0.3441556444
0.6044969959
0.3024494186
0.4878429613
0.5211418701
0.4417605328
0.2404832038
0.5018135911
0.4086393627
0.2723870186
0.685242605
0.1977136513
0.713376903
0.3513949133
0.5085902662
0.6706805675
0.3343123882
0.3794165541
0.3658031334
0.2367807629
0.2780565751
)
;

boundaryField
{
    flow
    {
        type            zeroGradient;
    }
    obstacle
    {
        type            calculated;
        value           nonuniform List<scalar> 10(2.034171723e-18 3.891189724e-19 1.273108009e-18 0 3.780598279e-19 0 4.632992373e-19 2.021175706e-18 0 7.596370806e-19);
    }
    frontAndBack
    {
        type            empty;
    }
    procBoundary0to1
    {
        type            processor;
        value           nonuniform List<scalar> 
21
(
1.521026996
2.50575343
2.41969332
2.461892888
1.78332541
1.836766244
1.777706625
1.13909862
0.9623214666
1.030368652
0.616917332
0.3538943323
1.326428772
0.5426938622
0.4441586412
0.4808517901
0.5133965213
0.3279686941
1.274170897
0.7499848398
0.2822323581
)
;
    }
    procBoundary0to2
    {
        type            processor;
        value           nonuniform List<scalar> 
31
(
0.2831978684
0.318892217
0.7238804713
0.2443757491
0.408951738
0.6092491596
0.7914287513
0.2447464191
0.2104973651
0.9326039091
0.5460684073
0.2673297997
0.2027103302
0.3398428775
0.3458792701
0.3959635537
0.3123785929
0.5210912553
0.4633575004
0.1609862246
0.1706156759
0.4761690678
0.1038199176
0.1805883074
0.2084262716
0.2699588592
0.1182522846
0.1778344732
0.1547725458
0.1706156759
0.3526570923
)
;
    }
}


// ************************************************************************* //
