/*--------------------------------*- C++ -*----------------------------------*\
| =========                 |                                                 |
| \\      /  F ield         | OpenFOAM: The Open Source CFD Toolbox           |
|  \\    /   O peration     | Version:  2406                                  |
|   \\  /    A nd           | Website:  www.openfoam.com                      |
|    \\/     M anipulation  |                                                 |
\*---------------------------------------------------------------------------*/
FoamFile
{
    version     2.0;
    format      ascii;
    arch        "LSB;label=32;scalar=64";
    class       volScalarField;
    location    "0.004";
    object      internalT;
}
// * * * * * * * * * * * * * * * * * * * * * * * * * * * * * * * * * * * * * //

dimensions      [1 2 -2 0 0 0 0];

internalField   nonuniform List<scalar> 
654
(
299.5070853
300.6977504
301.3622816
301.5641418
300.0444164
300.6041568
299.7563831
299.4166984
297.9804077
296.1969483
296.472556
300.1997546
298.3470905
299.9404886
303.2660644
303.0360738
309.6295986
309.8449924
334.5031287
423.2123678
301.4304115
300.5890205
298.626153
296.5585073
300.4578116
303.1896619
301.681117
302.1877124
302.6071553
306.1656116
305.0037399
302.6763452
302.6714689
303.5201684
301.3274743
302.4805683
309.6519564
322.015151
346.488621
423.9451041
300.7694988
301.7774101
302.2459003
299.3739193
296.6140367
296.1754096
293.6115535
294.9993691
293.3753814
295.481499
294.503542
295.3302011
294.7717039
296.1995831
302.3687807
304.3713246
304.3314485
316.4200752
342.9991777
393.0610196
298.6856716
297.3218143
300.3157035
298.9205572
300.9359149
297.9668029
299.529542
300.2191132
301.0081594
295.8635847
295.4982465
297.9425572
299.7417151
301.31306
302.2205407
305.3793646
309.0706053
312.8514356
332.8792241
366.275805
294.9628618
298.2099953
294.6604005
297.7669296
297.1440686
297.809086
296.6814227
299.2014387
299.211029
300.3754472
304.4765045
304.2731231
304.2075231
305.3162074
306.1908285
307.4912844
308.5000711
316.6678959
332.1618897
352.5460015
296.1330032
295.939218
297.171517
297.0137455
296.4491322
297.8722078
298.3201567
297.2127347
296.8298969
300.3926261
299.7306531
298.5663965
299.0999158
299.5590641
299.0145964
302.4450583
307.4525735
320.3076885
320.2371957
331.498568
304.4242369
303.5537598
303.5057417
300.1596385
300.4843101
299.015477
299.6679668
298.1136941
299.9843042
297.0386662
298.9156901
296.1739554
298.636164
299.5765583
302.2245718
302.4897737
303.5555319
303.4333592
307.1548642
319.5504312
302.3559167
302.8786965
301.7057367
303.1701717
299.450517
302.0901905
302.1702643
300.714363
302.1835531
301.8084063
297.9843916
300.580875
300.5381699
301.1504774
301.105261
302.4837598
305.5656719
308.2571828
318.8996838
317.3834886
307.718403
307.9105604
306.8275997
304.5480889
303.5848901
300.2868393
298.7697286
298.2803484
301.2934649
302.0365189
301.8059475
301.1930538
302.6623291
300.3770268
300.9413798
304.4635777
304.6386433
308.6412005
309.6410844
314.0682731
302.4271915
301.342512
299.1155354
300.3635081
302.0119374
305.0816687
305.1191041
305.4555802
301.7311481
302.685169
302.0691068
302.6880626
305.8772104
307.180134
304.2853224
303.1223963
303.8244625
306.2381286
309.9503605
314.9136536
300.3708014
300.0711733
302.8069619
301.1534615
301.3401256
301.73489
302.0242828
300.2132038
301.5566824
300.5297932
298.6324127
296.3715208
297.187692
295.9305412
296.0700644
298.2065712
300.2247405
300.4395355
302.1634291
305.6823431
297.6328014
300.60921
299.4952488
302.8491497
303.6566893
302.5472738
301.8127558
301.4561538
303.045173
302.5717206
303.6374467
305.6066087
305.5046317
304.9118526
303.767871
299.422887
299.4868655
300.6266292
300.1323514
307.390253
297.506357
296.5828864
295.4117569
294.5270424
292.1825002
292.3141717
295.8160049
297.6916771
298.0775913
297.2161724
295.3550824
296.4864693
297.0948206
298.2837659
298.5538948
297.7704493
300.6656027
302.80915
301.997987
301.2309717
297.2863712
296.6290074
298.3510613
301.5192822
304.6923747
303.7800924
302.4179799
300.2073582
297.8233409
297.6239386
300.7353584
299.8187188
300.0814967
301.2506034
302.0856412
304.3199784
301.6358155
302.6683832
303.2061681
302.4105259
298.3541725
299.9211601
300.1748155
299.3485732
295.9811989
297.9641714
294.7073876
298.3512386
297.034203
299.2894381
300.7539892
299.7352513
300.3248388
297.3829767
297.5792086
295.3386101
296.0947418
297.1446173
298.7573044
303.6976505
298.8467301
298.0039971
298.5865874
296.0644222
293.9419084
293.9141214
296.2596236
297.9933871
296.228287
297.0907904
296.1364526
297.6296015
297.8445651
297.4173662
297.3431055
299.1290733
302.5571566
298.5227367
299.8539224
305.9211457
298.246012
298.8884912
296.9559716
297.0758399
298.7808086
297.9338669
298.3629871
298.202345
298.6687199
300.1952824
301.2862016
300.1022616
299.8204924
301.5037636
301.4098091
296.478919
296.5602354
299.7686393
300.8020067
304.2576501
305.1632158
303.2571621
303.3267433
301.14816
299.8997842
302.1141712
301.1055988
301.4663449
302.626205
298.6658107
298.691082
298.5608668
298.9079048
300.9172771
299.3852043
298.1932314
297.7170413
297.1118822
297.9791411
296.2814591
295.7236203
295.9390756
297.4179549
298.7840165
297.0519445
297.9139721
294.5777598
293.0711196
293.5741849
293.7319629
296.0163984
295.5453383
294.527695
291.9265146
292.9724854
294.6922601
296.7399983
299.5582898
296.7942496
298.8186544
294.3832932
295.9762842
297.1107511
295.6157107
298.0110549
297.144601
296.2954413
297.6295412
298.1286015
293.9435156
296.4263452
299.3033283
300.1219222
300.8576674
303.2262837
302.8310688
302.3021451
301.9117052
300.730789
298.4785957
302.1327919
301.4656174
301.0666749
297.7090414
298.3444602
298.2878438
299.5508157
301.827058
302.3596307
303.9941612
303.8277449
300.1451101
299.7977444
298.9952154
298.1284966
299.4365648
300.4736783
300.649734
300.1001653
301.7939583
300.0514065
299.3430508
300.2102094
300.7472208
298.6201273
300.9997661
300.957716
301.0190156
298.0406501
299.1685182
299.5778809
299.0363344
297.9969238
299.7167012
299.7023143
297.5163139
295.1784991
295.3610255
295.4515756
297.6822537
546.1591494
600.8710653
624.0637688
643.4723148
668.7509425
680.0047745
694.4740567
693.2905245
695.5868133
702.3650132
502.886552
566.4226041
609.6718875
644.6453828
669.4725029
688.9898824
732.2931452
744.4662939
748.1129959
752.0945523
458.2629267
506.7940879
547.4362053
591.3890277
626.3183667
673.0370496
696.4026864
725.6398023
736.9230121
745.2949634
405.9042402
449.3980716
488.3347533
537.7183213
580.1628956
612.2370452
648.4126735
670.0805499
680.2706937
709.3520212
387.389038
420.0096252
449.8954265
482.3200905
517.1911485
551.043375
592.853094
617.3486961
643.8229073
659.620669
360.602026
385.5368002
404.8912765
437.6147768
466.9501229
501.3056971
546.5992635
572.161212
594.1485463
626.1989364
345.7714648
364.5184562
365.7940354
399.3465596
423.8992781
450.1117875
472.048891
505.4080411
534.3800442
563.9423064
325.477277
341.1524117
352.6477749
373.1551791
393.6351151
411.1390175
439.7152152
470.9793748
488.5816849
510.6647838
325.7094164
330.9624344
339.6363892
356.1953989
369.3793517
392.1887053
405.9884203
426.0338823
450.1651736
475.3008726
319.7578587
322.9877908
334.2681526
341.2099395
346.977785
364.8263056
384.5495934
396.5334519
412.7902609
430.9709184
312.4312922
324.9454971
326.4460969
330.1030096
337.4977922
352.6331331
359.296385
366.799871
388.2055567
405.1438204
305.097191
314.0649096
319.8989088
320.0087405
326.4791321
328.7837486
337.922791
348.2689935
356.10252
369.7461998
305.8759154
305.5031122
309.604157
317.2347412
318.1414166
326.0076837
335.4358201
336.3610611
340.1222864
351.9251878
306.5501721
307.6043818
311.5233352
313.7111399
318.1436531
315.7104496
325.4949518
328.0316424
338.5102255
339.5866719
305.1615475
304.38562
304.7035321
306.2210345
313.2583588
314.4666567
318.9707309
322.7342508
328.4712985
331.1510939
303.6178713
307.2520171
305.2975187
303.3746818
307.3207769
313.1897518
311.113184
317.7313523
322.2187424
326.13016
304.2462804
302.2406281
306.4490075
305.4622643
299.9202144
306.4174054
305.1340601
309.1583942
314.6511617
315.0565646
300.8293101
301.7197782
302.7792324
300.2996155
301.7775572
303.8883233
305.7505556
305.7401411
308.9541874
315.0440509
296.8648883
297.1242626
300.7208813
302.2719998
302.9020482
301.8051345
302.437584
305.1897336
306.9026276
309.9157077
301.7233099
301.2634152
298.8954958
299.5553144
300.2969163
303.3718859
306.4088266
305.8650551
307.5551345
309.8240465
301.8310828
299.8337341
304.3007524
303.0894079
303.1391054
300.7694014
305.5058468
304.5592054
307.6835659
307.5184282
298.5642092
296.0529854
298.8995603
300.7591316
)
;

boundaryField
{
    flow
    {
        type            calculated;
        value           nonuniform List<scalar> 
42
(
299.5070853
301.4304115
300.7694988
298.6856716
294.9628618
296.1330032
304.4242369
302.3559167
307.718403
302.4271915
300.3708014
297.6328014
297.506357
297.2863712
298.3541725
298.8467301
298.246012
305.1632158
295.7236203
294.3832932
302.1327919
300.0514065
299.5070853
300.6977504
301.3622816
301.5641418
300.0444164
300.6041568
299.7563831
299.4166984
297.9804077
296.1969483
296.472556
300.1997546
298.3470905
299.9404886
303.2660644
303.0360738
309.6295986
309.8449924
334.5031287
423.2123678
)
;
    }
    obstacle
    {
        type            calculated;
        value           nonuniform List<scalar> 10(508.1010084 566.3164615 573.6693776 588.9055218 607.2381428 611.6578291 613.1893061 632.6330804 635.5183115 607.9962089);
    }
    frontAndBack
    {
        type            empty;
    }
    procBoundary0to1
    {
        type            processor;
        value           nonuniform List<scalar> 
21
(
702.32854
753.9143449
768.0022907
725.8796003
680.0352904
642.4206042
594.071536
542.2451286
497.9284725
453.3418213
423.3498795
392.3126215
364.6180757
349.9269826
334.8811049
333.1438333
319.7270845
318.9897571
314.8692377
309.851251
307.8253449
)
;
    }
    procBoundary0to2
    {
        type            processor;
        value           nonuniform List<scalar> 
31
(
301.0704063
302.942254
302.2314607
302.1908033
302.3789417
301.4240013
299.8261773
298.3129057
299.1235461
294.946233
294.1563837
294.097136
294.9368563
293.9517758
296.0061229
295.9481911
294.219108
294.5518769
295.4123291
295.7950026
303.7683467
304.1477025
303.6329438
302.747263
298.4810843
297.8988419
296.6236411
298.3506607
296.9250959
303.7683467
296.2740957
)
;
    }
}


// ************************************************************************* //
