/*--------------------------------*- C++ -*----------------------------------*\
| =========                 |                                                 |
| \\      /  F ield         | OpenFOAM: The Open Source CFD Toolbox           |
|  \\    /   O peration     | Version:  2406                                  |
|   \\  /    A nd           | Website:  www.openfoam.com                      |
|    \\/     M anipulation  |                                                 |
\*---------------------------------------------------------------------------*/
FoamFile
{
    version     2.0;
    format      ascii;
    arch        "LSB;label=32;scalar=64";
    class       volScalarField;
    location    "0.004";
    object      internalEMean;
}
// * * * * * * * * * * * * * * * * * * * * * * * * * * * * * * * * * * * * * //

dimensions      [1 -1 -2 0 0 0 0];

internalField   nonuniform List<scalar> 
654
(
0.3143196664
0.4069887424
0.4108129566
0.4116951578
0.4101812582
0.4125240327
0.4099167946
0.4101841325
0.4077452119
0.4024088461
0.4022078171
0.4089476562
0.4039144099
0.4073006995
0.4133427616
0.4161446025
0.4262231
0.4336030171
0.490233854
0.797650129
0.3197402978
0.4117901481
0.4133948022
0.4084218622
0.4132952026
0.4209109727
0.4174069767
0.4172389275
0.4194496558
0.4253945786
0.4227935351
0.4191974088
0.4217147205
0.4244028141
0.4204486731
0.4250802286
0.4413913655
0.4710523012
0.5381387183
0.7647743361
0.3234069738
0.4198398684
0.4227514162
0.419315473
0.413189554
0.4131321339
0.4112866812
0.4118098011
0.4101333105
0.4108046981
0.4092968514
0.410679276
0.4100509818
0.4138259647
0.4249231319
0.4279123863
0.4276375397
0.4540643641
0.5114883437
0.641554343
0.3224331928
0.4077203757
0.4137042408
0.411137651
0.409690879
0.4041707158
0.4081207912
0.4091682735
0.4101138259
0.4059971978
0.40753524
0.4125127429
0.4178481552
0.4159662861
0.4178274235
0.4208114835
0.4283421118
0.4436129758
0.4896726702
0.5758748464
0.3158273837
0.4098602003
0.4030327725
0.4078812283
0.409826431
0.4114073333
0.409401627
0.4103409428
0.409278575
0.4099643821
0.4134603296
0.4133372705
0.4166816855
0.4191880011
0.4239547989
0.4333818828
0.4394832797
0.4564688732
0.4859429781
0.5313006197
0.3174635006
0.4059946092
0.4115092999
0.4088779989
0.4060334853
0.4106379662
0.4068375443
0.4086391313
0.4096491904
0.4167687703
0.4167337985
0.4126252297
0.409492129
0.4104653073
0.4117829041
0.4127238412
0.4218338161
0.4474617945
0.4560656302
0.4843529372
0.3266802308
0.4176411294
0.4209570337
0.4153018541
0.418926557
0.4169002485
0.4177668913
0.4133926341
0.4179706711
0.4122008581
0.4134517879
0.4118525811
0.4166719611
0.4157873037
0.4198101587
0.4188955208
0.4265690675
0.4249794781
0.4375448423
0.4649887735
0.3236129754
0.416755899
0.4178097663
0.4226275176
0.4150741782
0.4188633852
0.4244051994
0.4237655535
0.42609662
0.421792339
0.4127848865
0.412427256
0.4149829644
0.416672782
0.4190562848
0.4253674077
0.4293059322
0.4334641157
0.4515014164
0.4512942029
0.3289763958
0.4275534267
0.4267996377
0.4202352354
0.4168546154
0.4101456751
0.4112953377
0.4111791734
0.4129501387
0.4160530614
0.42330769
0.4216468988
0.4198089942
0.4157106043
0.4110396768
0.4168135307
0.4210829082
0.4318962194
0.4322491733
0.4434418167
0.3231457206
0.4087929517
0.4106747049
0.4154111825
0.419536507
0.4249632099
0.4225805545
0.4219485969
0.4172375924
0.4188832269
0.4172706083
0.4192353973
0.4265111519
0.4291891805
0.426522715
0.4278344847
0.4279517154
0.4240423066
0.4337950362
0.442507341
0.3232805814
0.4130653731
0.4185510898
0.412650001
0.4123641873
0.4105616765
0.4080025233
0.4061818405
0.4108394916
0.4097861458
0.4088950168
0.407205561
0.4101643414
0.4066209429
0.4050034621
0.4037241692
0.4099313579
0.4151059547
0.4221147199
0.42705253
0.3191997112
0.4135899026
0.4138228004
0.4175861214
0.4220832559
0.4219549332
0.4229266852
0.4209966432
0.4248715174
0.4188784908
0.4182801561
0.416313153
0.4135826171
0.4184136343
0.4199884843
0.4172099694
0.4185694
0.4165099005
0.4159329755
0.4311401382
0.3190213288
0.4090950814
0.4100069063
0.4067886707
0.4010718803
0.4001598638
0.4036351419
0.4053384125
0.403849556
0.406293488
0.4082932901
0.4113706303
0.413773863
0.4143575593
0.4112772356
0.4131949474
0.416823277
0.4236480791
0.4237941488
0.4205305772
0.3186358298
0.4104595109
0.4143652476
0.4202177508
0.4239609494
0.4228007584
0.418709135
0.4165980553
0.4121121664
0.4093970643
0.4111690632
0.411187514
0.4112674529
0.4137576746
0.4154909319
0.4150636255
0.4090824155
0.4121582372
0.4101440647
0.4160247426
0.3157908358
0.4124492036
0.4154954906
0.4123504361
0.4096482206
0.4128211387
0.4100674458
0.4156524097
0.415184213
0.4187668242
0.4180052558
0.415490402
0.4184667314
0.4120800465
0.4117957421
0.4047460037
0.4089964856
0.4098271877
0.4108916339
0.4157431361
0.3224996354
0.4124906906
0.4129965823
0.4104019306
0.40509298
0.4077804057
0.4113114641
0.4098409911
0.4077754173
0.4057590054
0.4053284598
0.4042054507
0.3998509471
0.4010521018
0.4042652643
0.4104782468
0.414225373
0.4060622296
0.4113866904
0.4181271782
0.3212939053
0.4104059559
0.4088625105
0.4121456596
0.411589824
0.4121580134
0.409469888
0.4127223638
0.4139690426
0.4181783042
0.4220372137
0.4201845978
0.421320432
0.4251164015
0.4193934586
0.4122553423
0.4133704458
0.4189416627
0.4183314906
0.4236841548
0.3259156149
0.4157287697
0.4189206503
0.4158252385
0.4152010379
0.4174414548
0.4186021761
0.4181717721
0.4177138307
0.4101001917
0.410843502
0.4128322243
0.4152460634
0.4188379287
0.4160597935
0.4150892839
0.4190922758
0.4155491043
0.4151125949
0.4140681539
0.3188317042
0.408504886
0.4130906831
0.4126037896
0.412390126
0.4158784949
0.4103106231
0.4097500961
0.4112976514
0.4118143297
0.4133359457
0.4115308598
0.4043545939
0.4015809507
0.400829373
0.4050677917
0.4059198855
0.4097966496
0.4087465276
0.411212315
0.3144449383
0.410194643
0.4172776354
0.4139028072
0.4143857846
0.4131596145
0.411425094
0.4148609336
0.4151493463
0.4087298519
0.4138018148
0.4174091684
0.4228875364
0.4244000733
0.4307277965
0.42550748
0.4241123111
0.4256698893
0.4238751797
0.4215805176
0.322809432
0.4132077619
0.411643687
0.4074808965
0.4094015657
0.4108464011
0.4110139108
0.4068681547
0.4105640086
0.41496891
0.417253608
0.4125414022
0.4116975633
0.4086394541
0.4092338063
0.4156575842
0.416384396
0.4133214495
0.4117676738
0.4119655109
0.3190109355
0.407974289
0.4107963888
0.4075529792
0.4054647944
0.4062939258
0.4112567133
0.4165558121
0.4140626902
0.4154575588
0.4126232321
0.4108454368
0.4088603914
0.4119310188
0.4124498887
0.4106178899
0.4062878823
0.4065178806
0.4097648093
0.4132223682
1.813398246
2.298947929
2.477524157
2.680351045
2.817259081
2.921240577
2.992575598
2.997345447
2.926758296
2.999674117
1.147529802
1.549467076
1.835002033
2.101506654
2.328557715
2.463256587
2.676490392
2.776428232
2.835189249
2.841937999
0.8641297399
1.102108475
1.337359215
1.592146004
1.829953956
2.084675588
2.270428426
2.477115441
2.558775061
2.636408551
0.7003002847
0.8566355844
1.014739752
1.231566437
1.444095599
1.660194657
1.898612404
2.035835628
2.129746456
2.308110542
0.6180772533
0.7229065372
0.8411114061
0.9952323012
1.142692593
1.288576653
1.497056296
1.643388669
1.834238569
1.986470948
0.5492709113
0.6207519594
0.6986599762
0.7932353777
0.9011866913
1.040647646
1.234900054
1.387583435
1.522321088
1.705551268
0.5138837207
0.562681947
0.5837844954
0.676660256
0.7550928112
0.8576512252
0.9534760411
1.102850873
1.253323915
1.405327936
0.473836819
0.5085970258
0.5357973439
0.5953693984
0.6506732356
0.7128499895
0.8151613566
0.9219541443
1.017049113
1.131048359
0.4675952128
0.4861450371
0.5097432703
0.5479251919
0.5857293492
0.6449271555
0.684926512
0.7652492199
0.8598172991
0.955499149
0.4550370184
0.4622308229
0.4838624163
0.4997670189
0.5185003336
0.5724080376
0.6279581127
0.6685155606
0.7200403088
0.7841569729
0.4422666102
0.4669680844
0.4799896174
0.4923732396
0.5105672138
0.538737276
0.5589614986
0.5914578073
0.648656592
0.7044325333
0.4268000957
0.4422063111
0.4497486122
0.4530161732
0.4699248784
0.4834646399
0.506491931
0.5349786023
0.561344424
0.6000533761
0.4281321951
0.4313717921
0.440913941
0.4526407877
0.4543370562
0.4734164317
0.4991811154
0.5049635437
0.5174653233
0.5544676962
0.4239892251
0.426830928
0.4337578737
0.438717313
0.4479454144
0.4468842638
0.4628641044
0.4749616897
0.5012694015
0.5085585475
0.416608657
0.4163282805
0.419358922
0.4283102513
0.4406719439
0.4496336537
0.4593933642
0.4700791345
0.481891566
0.4901471732
0.4229564019
0.4331047192
0.4275679161
0.4245078271
0.4328663947
0.4398773324
0.4407042605
0.4531145339
0.4678989582
0.4744926955
0.4211978149
0.4202005424
0.4242044291
0.423266702
0.4095846648
0.4230184287
0.4262434492
0.4323154763
0.4404373783
0.4519394278
0.4183772726
0.4160134722
0.4164669272
0.4152504118
0.4243200266
0.4264275174
0.4286686967
0.4282999657
0.4339012009
0.4479498186
0.4090300504
0.4163896215
0.4231379958
0.4274621178
0.4248002733
0.4214077526
0.4238418301
0.4274595501
0.4285841453
0.4396574397
0.4221021449
0.4205489096
0.4154099768
0.4133607232
0.4157565671
0.4218505267
0.430306174
0.4348711392
0.4340252608
0.4358835288
0.4128893579
0.410080583
0.4179142664
0.4173221948
0.418387447
0.4141652759
0.4190176838
0.4171846246
0.427162272
0.4258790776
0.4135254296
0.4075548818
0.4099280555
0.4142022585
)
;

boundaryField
{
    flow
    {
        type            calculated;
        value           nonuniform List<scalar> 
42
(
0.3143196664
0.3197402978
0.3234069738
0.3224331928
0.3158273837
0.3174635006
0.3266802308
0.3236129754
0.3289763958
0.3231457206
0.3232805814
0.3191997112
0.3190213288
0.3186358298
0.3157908358
0.3224996354
0.3212939053
0.3259156149
0.3188317042
0.3144449383
0.322809432
0.3190109355
0.3143196664
0.4069887424
0.4108129566
0.4116951578
0.4101812582
0.4125240327
0.4099167946
0.4101841325
0.4077452119
0.4024088461
0.4022078171
0.4089476562
0.4039144099
0.4073006995
0.4133427616
0.4161446025
0.4262231
0.4336030171
0.490233854
0.797650129
)
;
    }
    obstacle
    {
        type            calculated;
        value           nonuniform List<scalar> 10(9.70740063e-19 1.118702312e-18 1.193235999e-18 1.123464623e-18 1.272952355e-18 1.277117807e-18 1.200030938e-18 1.240725283e-18 1.279235762e-18 1.17005087e-18);
    }
    frontAndBack
    {
        type            empty;
    }
    procBoundary0to1
    {
        type            processor;
        value           nonuniform List<scalar> 
21
(
2.962116932
2.843250108
2.72368212
2.400559201
2.099821392
1.843045687
1.55276339
1.289490193
1.065002209
0.8723295906
0.7663314404
0.6668905846
0.5840972041
0.5346591011
0.5072619967
0.4844060276
0.4626197795
0.4596262919
0.4475450006
0.4377973728
0.4260679372
)
;
    }
    procBoundary0to2
    {
        type            processor;
        value           nonuniform List<scalar> 
31
(
0.3210250189
0.415166397
0.420971288
0.4178297601
0.4184811799
0.4142775343
0.4115210625
0.4059269302
0.4052236566
0.4003703815
0.4017935619
0.4074423251
0.4075455172
0.4039654333
0.4083633558
0.4046239894
0.4040155435
0.4017620358
0.3997713123
0.399927669
0.4196164104
0.4207029051
0.4193726245
0.4207583536
0.4154341225
0.4173888026
0.4054020457
0.4105228756
0.4124542978
0.4196164104
0.4075890748
)
;
    }
}


// ************************************************************************* //
