/*--------------------------------*- C++ -*----------------------------------*\
| =========                 |                                                 |
| \\      /  F ield         | OpenFOAM: The Open Source CFD Toolbox           |
|  \\    /   O peration     | Version:  2406                                  |
|   \\  /    A nd           | Website:  www.openfoam.com                      |
|    \\/     M anipulation  |                                                 |
\*---------------------------------------------------------------------------*/
FoamFile
{
    version     2.0;
    format      ascii;
    arch        "LSB;label=32;scalar=64";
    class       volScalarField;
    location    "0.004";
    object      linearKE;
}
// * * * * * * * * * * * * * * * * * * * * * * * * * * * * * * * * * * * * * //

dimensions      [1 -1 -2 0 0 0 0];

internalField   nonuniform List<scalar> 
654
(
6.291384343
6.565779583
8.2552
9.569151197
11.42309768
12.56593007
8.421585711
7.846607002
6.033106059
7.301343909
6.756658405
12.4050062
7.466167671
7.274460661
12.72824359
5.399677762
8.391595076
8.048627214
6.380795532
4.962746028
5.410620277
9.879883089
8.417981086
7.940450575
4.078719564
6.99161402
12.90055065
5.440645216
6.222975121
11.96346667
7.362792629
7.329364289
5.231262477
7.175142897
12.33345341
8.450276752
8.314115877
9.706039598
7.329616609
9.672700334
4.633307353
8.754765583
8.372319112
4.696755714
4.890546237
9.445268624
6.977582957
6.327389898
4.830774125
6.778291508
9.02350192
4.442092481
4.732012638
4.970835929
9.777208878
14.94533907
10.06543502
9.088670472
11.98096399
11.04369674
6.773900716
7.382227156
5.909154948
10.77792422
11.70216035
3.970233638
9.780580046
8.448980136
7.548120995
13.37094799
8.10874639
6.56994423
10.48833207
9.154988441
3.549094191
5.743499519
9.22194116
7.818650946
7.030329952
6.179019586
3.536600858
8.042573773
5.650166314
8.420973539
9.889995146
4.683599232
9.976106722
2.62480672
9.752241457
3.301356253
6.431763044
11.34334762
10.23388055
9.532631658
7.769020664
15.71619923
2.183190472
8.580990951
8.972284272
2.978234136
6.275564298
8.143834185
7.532032866
9.687664431
7.923653907
5.144267408
8.593359015
11.96658479
10.83025155
8.9690024
2.461760259
7.672120618
5.564427015
5.32267417
10.29409872
5.737914248
10.34626452
7.085080254
11.3052362
6.885603158
5.588496788
5.283940707
8.366714009
3.847452899
9.555291095
9.731075254
2.790044046
8.552585387
9.836041373
8.72226196
7.404668544
4.198331332
4.296015318
8.535191672
7.975257927
7.95422415
5.583681375
11.27569899
7.865089204
6.014790624
5.233309224
7.285161195
6.37275231
5.540964739
8.550832741
10.4721396
6.807236363
13.69097107
5.168448863
5.79841189
8.317892793
9.170519611
10.18695125
7.01055038
7.300327664
9.072800334
5.43052122
3.670066091
8.693063334
11.05895313
6.502008044
8.127644748
11.37345936
8.616111883
6.258429025
9.553833194
6.819469324
6.821487085
10.70482001
3.925706709
3.966439092
9.074393424
8.655200812
5.684805504
9.384091164
9.409215165
10.59875302
0.2770740384
3.526708606
7.558260458
5.063355403
11.56766137
3.517056131
8.212785909
9.622166158
5.403066047
10.4929626
5.713040917
8.096288643
11.55490899
3.930335176
8.942773731
3.814768164
10.46984231
4.326189683
6.622928574
8.137492829
6.033729631
12.33026003
7.225217175
4.106321212
9.197091107
13.84144289
6.480266927
5.925505681
6.712390782
9.645742041
8.464919435
7.399359497
4.521319874
9.506431033
8.267703028
7.092913437
8.390144097
10.87197513
5.651186544
9.591952433
14.05521099
2.403011145
8.266821839
9.004573638
5.266001337
8.81058321
5.991626642
6.431332851
5.425388005
7.849345027
10.99622914
9.131809517
9.135746668
8.603634065
5.784513708
10.5252354
7.172552914
8.575451994
9.883445735
7.581832113
5.469964298
5.45813798
7.813623309
6.266301911
6.981187185
9.505896821
8.093237755
10.1304815
8.783775934
5.314088225
6.197139472
7.326714569
7.979310887
4.098338912
6.428484693
2.782134628
4.285589691
11.5990417
12.29390452
10.664927
6.620033845
2.700636819
10.56139424
8.227251362
6.799978412
6.668655754
10.17014533
5.028545718
3.337712668
6.005513988
8.43527626
10.22470228
10.0334486
9.735664001
4.659567053
11.37955362
5.082558351
6.953893577
8.02752507
4.010978269
4.998880724
12.75292495
2.758764361
8.250301048
6.831698712
9.450566942
7.314688738
13.8294802
6.89004427
9.378753922
11.50539453
8.610175653
9.787914007
6.241012616
8.919277678
5.673648541
8.766568559
6.668466167
10.95901675
7.677951195
4.290573541
9.444766645
6.628352765
3.659126276
8.060608226
12.3758983
3.884565298
7.816865397
11.19701386
5.405449613
10.12620274
7.025959541
3.703579392
8.493085249
5.776689144
5.048415543
6.222544043
5.750755968
8.35895551
9.389699846
8.705368785
8.668348506
4.586781611
5.044537938
9.199320967
5.523360403
4.747131704
6.60177585
7.595143792
7.010622783
8.291722934
3.089504056
9.291310386
11.93194483
7.609009594
8.943083937
6.411314187
9.248051523
6.568494748
4.943862118
4.487574978
10.51506961
7.488189961
7.089099016
7.468926959
10.14825369
5.855876925
6.689744023
4.925674856
8.335500338
8.298924939
5.22799759
8.61024157
4.591720264
8.684516255
11.44993659
12.94730884
4.906993185
10.82081006
8.90802084
6.345855293
9.945664333
3.901077043
6.22051991
7.958837911
7.081580552
9.121796807
9.522635712
11.49588184
10.22078106
5.542827637
4.693581872
9.378574821
9.399465038
10.2658344
10.46115779
7.652802451
5.577568605
8.032440818
10.61990016
5.255197591
8.72032885
5.172496985
6.505371931
8.988813216
11.19613581
10.20327811
9.551996078
4.922075743
7.08186317
13.63671475
6.224267955
6.441050103
4.639311831
8.602561732
5.12765263
6.626767999
8.054479519
5.309448756
6.722699471
9.391541755
5.368221716
13.39314456
6.044999063
7.908168409
12.72708842
1.377888593
8.697299488
8.71674996
4.321747987
5.896103188
8.586546879
8.190003028
10.05202231
8.697958829
3.588453913
7.675311726
11.09109307
9.824551625
9.278316773
5.185367032
7.517182731
6.730647199
6.123162975
3.313434701
6.988190431
10.23417553
8.648083471
7.203299316
6.681957082
5.744871194
6.364146671
4.902301777
6.644001762
11.5303437
9.162818049
5.918386466
1.88390582
10.38277521
10.5315997
11.48953799
11.85747567
8.550051542
9.416700766
8.480321697
9.245684736
6.929981695
11.36744315
8.290765363
4.152539618
6.723742174
2.661698569
14.18011856
8.294102019
12.02767506
11.72807276
9.189241515
6.976686685
6.263623332
9.548618011
5.506290696
4.952036995
4.041404313
8.242106475
6.957136544
6.760666904
9.584405309
13.95579481
16.21894797
4.654637939
12.19418499
5.942320938
9.052011759
10.370921
15.12561379
8.510549316
4.883718299
9.308652385
8.650577549
6.783917288
9.253890439
9.046691243
7.172052952
11.12813379
15.96648494
9.477120592
11.14982148
8.330167199
8.701008905
10.09650378
8.700891009
8.385686811
10.31470314
6.792895676
10.77777661
10.46010673
13.87196244
11.62272522
11.75901477
10.57922222
8.228164399
17.59419313
11.22494369
12.88261019
9.094610595
11.25025861
10.25760159
9.019198527
10.81945288
8.58241469
6.564390865
11.44022469
3.6235787
8.202232394
6.160169616
4.833999796
14.00489273
11.90752671
9.110954861
11.41881666
8.302214989
9.991984781
8.50687334
8.810982051
9.70108158
9.680285558
8.822944597
12.49831873
10.58487538
4.683032618
6.454986292
8.596814626
12.80723331
8.596451628
12.19079185
11.66942441
11.80662072
10.36183185
11.44593647
9.820762336
5.798860313
11.06260291
9.483707546
8.414179009
13.10172803
9.693575444
5.683977114
8.299562053
7.240684847
4.505612415
7.625018528
10.16124345
7.271453372
9.480738822
4.419026016
6.696693694
9.501777738
8.467183244
10.35013507
9.2934923
12.56071294
7.782125949
13.4673892
8.515256948
6.728788925
8.545908858
9.889664763
7.368834242
9.240659861
12.83433949
10.01965619
10.95972019
8.153343449
11.78663424
12.02022654
8.094623071
6.792769533
12.87192055
5.97728981
5.00196144
5.049195151
9.482903149
15.51262649
4.322089223
11.72555747
7.706231223
7.33955647
6.395520883
10.07555327
8.313708666
8.51961437
9.72201697
5.74246378
5.973463154
8.00108048
11.10233763
6.339062293
8.969865125
6.782268441
6.553832846
6.505783657
6.74853736
12.02552766
10.280118
6.66864974
3.094052408
4.623441348
7.147831843
8.505367079
4.854595887
7.228935974
5.423511349
11.99944203
8.284962041
9.365723981
5.274272512
11.07804932
7.632660841
5.100742449
9.030356425
6.00937833
8.829993985
9.867704171
8.555174898
6.41925876
6.763841106
9.071704176
10.18846176
7.981966415
11.20841176
8.436115272
8.946738584
8.279036789
4.511401649
12.99634608
1.674475165
12.34074711
12.16637194
5.96334598
11.90491495
10.47985363
5.526214645
9.412976184
8.958444946
7.496917416
3.641603976
6.836999939
3.312429627
13.87465712
8.131586185
9.517985699
8.942757793
6.297743989
6.371307439
11.11496551
7.220816305
6.981004577
)
;

boundaryField
{
    flow
    {
        type            zeroGradient;
    }
    obstacle
    {
        type            calculated;
        value           nonuniform List<scalar> 10(3.75857184e-18 3.168454728e-18 1.216870767e-18 0 7.432532948e-19 0 3.377603139e-19 5.09277258e-18 0 2.522388314e-18);
    }
    frontAndBack
    {
        type            empty;
    }
    procBoundary0to1
    {
        type            processor;
        value           nonuniform List<scalar> 
21
(
6.939063503
8.387847262
11.81809266
9.164335927
11.36668636
10.57011796
15.27640772
9.289508706
9.669800406
13.32064369
8.578685417
9.9957297
9.201589246
3.501781692
11.50479809
10.07313183
7.981095934
7.436292784
7.475294259
8.489883377
7.006896321
)
;
    }
    procBoundary0to2
    {
        type            processor;
        value           nonuniform List<scalar> 
31
(
7.175428944
6.499121604
10.77822639
6.673605335
8.009950856
14.64770618
9.583670088
7.952057566
7.200505784
10.92793543
9.650643274
6.692308549
6.732280028
9.68309253
10.17113528
7.775424847
7.603030573
7.708868255
11.55734504
4.678080504
1.631641722
7.154455318
5.336796013
5.407308892
3.386719728
8.548982606
5.494276993
6.679304447
5.140932174
1.631641722
6.175609906
)
;
    }
}


// ************************************************************************* //
