/*--------------------------------*- C++ -*----------------------------------*\
| =========                 |                                                 |
| \\      /  F ield         | OpenFOAM: The Open Source CFD Toolbox           |
|  \\    /   O peration     | Version:  2406                                  |
|   \\  /    A nd           | Website:  www.openfoam.com                      |
|    \\/     M anipulation  |                                                 |
\*---------------------------------------------------------------------------*/
FoamFile
{
    version     2.0;
    format      ascii;
    arch        "LSB;label=32;scalar=64";
    class       volScalarField;
    location    "0.004";
    object      linearKEMean;
}
// * * * * * * * * * * * * * * * * * * * * * * * * * * * * * * * * * * * * * //

dimensions      [1 -1 -2 0 0 0 0];

internalField   nonuniform List<scalar> 
654
(
5.780477557
7.793940287
7.760288745
7.788709859
7.78062438
7.821129936
7.787591605
7.801797222
7.755881014
7.698660018
7.679978379
7.683127705
7.644779795
7.677649439
7.679453188
7.721056037
7.695015339
7.718521328
7.807708173
8.311295698
5.85606221
7.889231129
7.864240235
7.818529905
7.81562348
7.884432308
7.86053167
7.857402228
7.907835629
7.931143095
7.929456787
7.918485656
7.946163674
7.94364584
7.933625558
7.948115572
8.006034869
8.091339538
8.227570381
8.502540352
5.923362273
7.999653858
7.958924072
7.985401211
7.939489539
7.930859701
7.962847762
7.932991219
7.91703869
7.857001748
7.831799386
7.829413064
7.850513833
7.856298491
7.908983594
7.900491257
7.882059936
7.980442117
7.962934277
8.19729524
5.939892796
7.847932593
7.785296558
7.77216242
7.69905849
7.698173237
7.736207155
7.737477583
7.747523671
7.799858934
7.851584658
7.877773482
7.924550099
7.82090484
7.799331587
7.736345263
7.719929367
7.827344143
7.969519377
8.176422924
5.89613863
7.91552708
7.822851388
7.823011855
7.889943547
7.879813702
7.858933828
7.806088206
7.775554164
7.757743987
7.713921082
7.69582197
7.763816159
7.767910281
7.823131266
7.958507353
7.979914337
7.993379162
8.002248685
8.050921247
5.90129374
7.87294774
7.84019795
7.782724649
7.740008674
7.787073772
7.727058683
7.802306937
7.8287585
7.879161523
7.890584145
7.862356424
7.794213391
7.801778048
7.824098659
7.733019591
7.753554085
7.798895826
7.878920254
7.969805366
5.903778951
7.911885506
7.894084617
7.860716457
7.920061584
7.915602763
7.921997902
7.853254865
7.892137685
7.8573377
7.833729494
7.846117206
7.877678413
7.844076712
7.845952994
7.805948327
7.881141996
7.844579842
7.937004319
8.006941248
5.890630341
7.888260684
7.842735023
7.900057696
7.849605703
7.870901068
7.984309956
8.003812707
8.000338099
7.936180669
7.861447284
7.811433392
7.8523256
7.875056596
7.88690915
7.983263415
7.979655752
7.952191864
7.965052584
7.959698004
5.882122516
7.991189616
7.930057814
7.866627497
7.83281348
7.786076067
7.825686713
7.849189654
7.808986069
7.830444923
7.970360582
7.963546028
7.875891112
7.884962009
7.78261041
7.775422077
7.847585849
7.920458748
7.875601639
7.956153412
5.90200792
7.819244638
7.795058232
7.86715452
7.873009273
7.893682292
7.865833387
7.817068895
7.856939269
7.882815824
7.850017095
7.88795368
7.945834203
7.944928417
7.984247808
8.044980982
7.997486089
7.885913922
7.914330503
7.91428805
5.870085876
7.838901993
7.812369541
7.761044117
7.753529241
7.733120943
7.654325376
7.69770247
7.739491312
7.720438517
7.762719639
7.769497142
7.814295631
7.771704096
7.765668575
7.671827212
7.743352437
7.853125814
7.921232834
7.914182159
5.910956189
7.909643832
7.830008888
7.777266553
7.867348406
7.896805053
7.914024407
7.889654914
7.903440233
7.822986122
7.795073941
7.720060527
7.677175311
7.777861496
7.821459895
7.879936856
7.90609817
7.816471782
7.81842875
7.897174331
5.876370859
7.893561085
7.880709234
7.842093274
7.777339905
7.767151444
7.752158284
7.738486591
7.700649045
7.780035186
7.876091269
7.891552854
7.93052878
7.896472666
7.844158573
7.893828171
7.893712262
7.975716722
7.992810317
7.930118741
5.880191402
7.945340975
7.913012614
7.930299359
7.928691343
7.923435821
7.896515329
7.935050321
7.917171249
7.851660223
7.803734693
7.809836103
7.802356403
7.825250258
7.833686662
7.745509214
7.694096752
7.695138546
7.644214893
7.776550524
5.847787749
7.922975021
7.864283629
7.840639554
7.869982427
7.868696828
7.890383622
7.895564366
7.928191935
7.926299547
7.879601887
7.883560993
7.933394651
7.879908547
7.873702073
7.805164202
7.855153649
7.832807404
7.808501892
7.754768762
5.933591203
7.952890328
7.868442235
7.873226722
7.823301618
7.879949639
7.888257004
7.82185574
7.813511959
7.75246604
7.775903205
7.72409096
7.653174378
7.688726843
7.736205159
7.816994632
7.79370137
7.772503445
7.81599519
7.793259295
5.921611272
7.885954771
7.814975123
7.873985009
7.815477428
7.845834524
7.775453225
7.859113454
7.857787938
7.925037491
7.957689253
7.975431384
7.969883499
8.014931884
7.909176072
7.874115038
7.884500654
7.923990518
7.869404391
7.878319635
5.912624605
7.891205203
7.864953055
7.844982745
7.878611081
7.865162162
7.911341169
7.899266583
7.865672936
7.792752027
7.800860908
7.850955278
7.843644979
7.875233791
7.882872985
7.918714386
8.025119462
7.958968946
7.930866341
7.954817084
5.898554757
7.878321673
7.865356748
7.821877936
7.868895148
7.898640695
7.888511842
7.919469263
7.941973677
7.984022137
7.924333078
7.891268109
7.799845908
7.813010701
7.761285796
7.774376854
7.733280543
7.73282625
7.790342656
7.795072838
5.913027258
8.000462183
8.006839497
7.973360617
7.919617179
7.899663837
7.89871364
7.911366856
7.891261147
7.855617954
7.894436042
7.913193235
7.996118232
8.00496378
8.059149558
8.003969944
7.984400222
8.043391471
8.006327036
8.019141957
5.892572028
7.897043025
7.77777479
7.80049517
7.809367016
7.83536091
7.828383578
7.688551494
7.775125774
7.822352488
7.858173992
7.859606179
7.822502395
7.783025206
7.81468664
7.892725735
7.885564954
7.809888393
7.804527525
7.750793972
5.877345851
7.887525266
7.827651704
7.77561039
7.782895473
7.732114172
7.77811123
7.907972169
7.901823269
7.88146106
7.820066259
7.781335114
7.781114783
7.784647709
7.803591935
7.833764773
7.794699435
7.799411505
7.867584748
7.882771527
9.706543102
9.812284344
9.559659151
9.208569281
8.856277073
8.560905795
8.201535462
7.83210718
7.526749188
7.355685232
9.170774446
9.825166635
10.21215083
10.47947141
10.54826588
10.33176627
10.03987509
9.731557494
9.51577401
9.125600853
8.637901829
9.214480838
9.821038012
10.31680744
10.62779964
10.99302941
11.00371422
11.03133981
10.83543835
10.49069648
8.494498266
8.863050802
9.188389559
9.685220176
10.08669418
10.64512652
11.20274307
11.37776462
11.4966994
11.47364164
8.191905662
8.512976761
8.946513944
9.518365654
9.93057907
10.26293276
10.689295
11.00961912
11.43852843
11.74138068
8.143115754
8.379886423
8.764510038
8.982055011
9.289037258
9.689610388
10.21874919
10.67780005
11.09021467
11.49578504
8.095867012
8.279037837
8.395359075
8.705560762
8.971799899
9.416790959
9.769376984
10.28185439
10.81399819
11.21199187
8.058056501
8.094233402
8.237136981
8.452301195
8.703070968
8.966822576
9.379044785
9.650298617
9.979716104
10.43982315
7.977642048
8.139951691
8.217594846
8.320899071
8.492888166
8.706472887
8.82412068
9.229175397
9.68054125
9.985107158
7.98453792
8.005129418
8.061622778
8.093093174
8.191400401
8.485752758
8.729232296
8.964055941
9.165872602
9.465583332
7.98995029
8.036449374
8.224169726
8.306934589
8.395795232
8.391399198
8.494912584
8.629314212
8.846201879
9.107846543
7.911924298
7.916551599
7.905180947
7.893978483
8.005312944
8.131252654
8.199876685
8.301143164
8.449109512
8.704408606
7.907922409
7.914210357
7.94671191
7.971564646
7.938087837
8.014653264
8.188473668
8.298809318
8.351585672
8.582918989
7.821411251
7.815107363
7.812109166
7.844092646
7.889221111
7.923488037
7.935664881
8.095001365
8.200841229
8.270959446
7.735376291
7.713610999
7.821742956
7.908878147
7.96932797
8.111682996
8.124468095
8.184739148
8.225411818
8.246676039
7.950490173
8.035756366
7.978290623
7.970928513
8.002078874
7.935845127
7.979944559
7.981056034
8.061804649
8.057917683
7.82372887
7.866755148
7.833164881
7.822850103
7.715912744
7.799584672
7.857985868
7.888352537
7.89447049
8.097850099
7.893977133
7.81344621
7.797004191
7.827874989
7.934422539
7.923397345
7.932586148
7.949678917
7.945182874
8.002594897
7.79967403
7.945941997
7.977765361
8.00439452
8.003701677
7.96562463
7.960455536
7.943411641
7.871608669
7.993992574
7.959351384
7.954139252
7.915745522
7.85182181
7.856728923
7.879780561
7.943397821
8.044642349
7.987307067
7.949251742
7.769797558
7.765045956
7.801333265
7.81558803
7.843758055
7.812123271
7.771886627
7.748448789
7.862163828
7.840492545
7.875448794
7.825183886
7.770542737
7.816687218
)
;

boundaryField
{
    flow
    {
        type            calculated;
        value           nonuniform List<scalar> 
42
(
5.780477557
5.85606221
5.923362273
5.939892796
5.89613863
5.90129374
5.903778951
5.890630341
5.882122516
5.90200792
5.870085876
5.910956189
5.876370859
5.880191402
5.847787749
5.933591203
5.921611272
5.912624605
5.898554757
5.913027258
5.892572028
5.877345851
5.780477557
7.793940287
7.760288745
7.788709859
7.78062438
7.821129936
7.787591605
7.801797222
7.755881014
7.698660018
7.679978379
7.683127705
7.644779795
7.677649439
7.679453188
7.721056037
7.695015339
7.718521328
7.807708173
8.311295698
)
;
    }
    obstacle
    {
        type            calculated;
        value           nonuniform List<scalar> 10(4.09965226e-18 3.698660874e-18 3.422488875e-18 3.01253601e-18 3.104989982e-18 2.901052208e-18 2.789596903e-18 2.615452727e-18 2.587198639e-18 2.564619151e-18);
    }
    frontAndBack
    {
        type            empty;
    }
    procBoundary0to1
    {
        type            processor;
        value           nonuniform List<scalar> 
21
(
7.046609976
8.800765233
10.20692744
11.35940525
11.89362289
11.81104658
11.58163426
10.99772689
10.49650791
9.756753984
9.367095388
8.973666512
8.684367638
8.366280808
8.418000604
8.062086488
8.130837933
8.104436056
7.953659724
7.992668829
7.820628859
)
;
    }
    procBoundary0to2
    {
        type            processor;
        value           nonuniform List<scalar> 
31
(
5.869850317
7.863101858
7.892965179
7.812612622
7.831559638
7.796225304
7.786353282
7.730903085
7.717130019
7.73607754
7.791095178
7.915006261
7.915095719
7.848277467
7.878909622
7.805291549
7.833452157
7.794152628
7.73974276
7.711235989
7.862717834
7.853802106
7.846137882
7.881726158
7.89257565
7.933080036
7.774798346
7.839367313
7.920537308
7.862717834
7.817518792
)
;
    }
}


// ************************************************************************* //
