/*--------------------------------*- C++ -*----------------------------------*\
| =========                 |                                                 |
| \\      /  F ield         | OpenFOAM: The Open Source CFD Toolbox           |
|  \\    /   O peration     | Version:  2406                                  |
|   \\  /    A nd           | Website:  www.openfoam.com                      |
|    \\/     M anipulation  |                                                 |
\*---------------------------------------------------------------------------*/
FoamFile
{
    version     2.0;
    format      ascii;
    arch        "LSB;label=32;scalar=64";
    class       volVectorField;
    location    "0.004";
    object      momentum;
}
// * * * * * * * * * * * * * * * * * * * * * * * * * * * * * * * * * * * * * //

dimensions      [1 -2 -1 0 0 0 0];

internalField   nonuniform List<vector> 
654
(
(0.006932989918 3.057970534e-05 0.0001607760573)
(0.00643913677 0.0009691587661 3.487983495e-05)
(0.008396601867 0.0004634588444 -7.983159277e-05)
(0.010086903 0.0001095321768 0.0002335170383)
(0.01154382226 -0.0002348288159 5.495901129e-06)
(0.01321408154 -0.0004721235065 -0.0009007681865)
(0.008665185221 0.0001183253083 -0.001087718967)
(0.008035241381 -0.0003137080668 6.17103421e-05)
(0.006728453771 -0.0003455909723 0.0003499587766)
(0.007516121101 -0.0005681508959 0.0004563963967)
(0.006489727927 0.0003961868873 0.0005103849373)
(0.01337422469 -0.0003605048114 0.0003875830911)
(0.008427123691 9.105982213e-05 -0.0002066767305)
(0.007404585368 -0.0002487984346 -0.0001439781356)
(0.01236109811 -0.0004576254248 -0.0005175348937)
(0.005429204806 0.000311684569 -0.0002953469366)
(0.008571133268 0.0001576386855 -0.0002407071005)
(0.008305266295 -2.126726054e-05 0.0003002365245)
(0.006892881455 -0.0006504055529 -6.266013451e-05)
(0.004317948508 3.219865837e-05 -0.0001895286751)
(0.005807922661 -0.0006243461804 0.0003740542252)
(0.0101496052 -0.0007053698431 -0.0002665407925)
(0.009513332256 -0.0005257866385 -0.0001394734518)
(0.008574081972 0.0001034795577 -0.0008749253117)
(0.004325210594 4.111559377e-06 -0.0003918957802)
(0.007785291724 -0.0003086475707 -7.683061203e-05)
(0.01321424057 0.000238803772 1.997248379e-06)
(0.005847932276 -0.0005841525904 0.0005885764263)
(0.006439557158 -0.0006265177548 4.919591092e-05)
(0.01186063941 -0.0001810551774 0.0004857469839)
(0.007627512778 3.513065984e-05 -0.0001088040419)
(0.007777645276 -0.001081030318 -0.0002766096319)
(0.00590635434 2.543249705e-05 5.288650285e-05)
(0.007783581278 0.0004987599917 -0.0002537503717)
(0.01205362127 1.123333766e-05 0.0006097070336)
(0.009020137328 0.0007844915446 -6.963221681e-05)
(0.008872285437 -0.0006061488695 0.0001469766229)
(0.01084918719 -0.0002132993232 -0.0001557101248)
(0.007395582555 0.001079384994 0.0006425631242)
(0.009041045735 0.001067615976 2.554755199e-05)
(0.004956554443 4.10010416e-05 -0.0003638879897)
(0.009544552286 -3.413168515e-06 0.0003610016642)
(0.008672145798 0.0004063152166 -0.000613327265)
(0.00492747542 0.0006651918469 -0.0002158629827)
(0.004799394582 -2.8190093e-05 -0.001085048571)
(0.009696835006 -0.0001565259138 7.235291103e-05)
(0.007338675972 -0.0002153261008 -0.0002479016186)
(0.007557855609 0.0004050217449 0.000427337248)
(0.005672291223 0.0001405724171 -8.640596487e-05)
(0.007879347289 -2.895433611e-05 -0.0003865587089)
(0.009114732092 0.001780195981 -0.000538238097)
(0.00443789008 0.0001442694097 0.0001241891875)
(0.005188118784 -0.0001125638227 -0.000490813663)
(0.004841333294 0.0005204474877 -2.557539201e-05)
(0.01023971167 -0.00023954413 0.0009801989711)
(0.01485724408 0.0001357378397 -0.001085319769)
(0.010625487 -0.0004185986135 -0.0004224759315)
(0.008762981433 -0.000907493705 -0.0002779450991)
(0.01237438354 0.0007441443856 -0.001468783605)
(0.01109107919 -6.774447377e-06 0.0003534218336)
(0.00742714346 0.0005554653647 0.0001798850694)
(0.008147793496 -0.0001488599605 0.0002028711225)
(0.006231807173 -0.0006431970829 -0.0001089406038)
(0.01083949874 0.0003652024426 -0.0006730795915)
(0.0126267086 0.0003084897164 -8.654489296e-05)
(0.00388874184 0.0001928469031 0.0004928429481)
(0.01033611001 -0.001001343441 1.569072629e-05)
(0.008845356768 -0.0001642400259 -0.0008934281937)
(0.008111238414 -8.689008207e-06 -0.0004238131359)
(0.01257100155 0.0006752625187 0.0002890295036)
(0.009135029229 0.0001519804409 -9.695702146e-05)
(0.006836836735 0.0005857127312 3.9209324e-05)
(0.01127136405 0.0002799474857 -6.96275781e-05)
(0.01029379119 0.0006775166419 -0.001042877673)
(0.003629103819 -0.0001705187098 0.000591305495)
(0.005845787345 0.0001331073098 -0.0002255923356)
(0.01000130738 -0.0001553458662 -0.001330162922)
(0.008166932988 -0.000418010461 0.0007222067236)
(0.007226076535 6.420801791e-05 0.0007273301455)
(0.006652127557 0.0011164498 -0.0003642217311)
(0.003795605857 -3.705097356e-06 0.0001353600761)
(0.008214170118 7.527685874e-05 0.0003056926728)
(0.006372718607 -0.0007240857246 0.0002340251507)
(0.0089352475 -0.0004453216496 0.0002524994554)
(0.01123359761 -0.0007635705869 -0.0003551524621)
(0.005201298515 0.0002650965172 -5.411129141e-06)
(0.0105995335 0.0007216742793 -0.0008043086069)
(0.002747108455 -0.0003938862407 0.0001271471347)
(0.009739601035 0.001195057205 -0.0004667066729)
(0.003897279778 -0.0002936406433 0.000184099697)
(0.007019527797 -0.0007110952014 0.0002191307557)
(0.01165282616 -0.0003570307862 -0.0003096346852)
(0.01018977427 0.0008505440929 0.0008219989793)
(0.009310060464 0.0001665418401 -0.0005933426687)
(0.0082497513 -0.0001607273791 -0.0002882433136)
(0.01624978602 -0.001403025239 0.0003247331549)
(0.002487678278 -0.0002165628517 -6.695072324e-05)
(0.00929740352 0.0008787517688 -3.616838492e-05)
(0.00890572557 0.0004531325695 0.0005210329727)
(0.003004302177 9.35064196e-05 -0.0001479553392)
(0.007380405796 0.0005791282199 0.0001524944341)
(0.009299670352 0.0005178251344 8.508612374e-06)
(0.007483557488 0.0005948528102 -0.0001100463193)
(0.009478104957 0.0001485100779 1.672520304e-05)
(0.008533646736 0.0001595840924 7.877386701e-05)
(0.00569603917 3.932845337e-05 -0.000335758967)
(0.009323576336 2.744838015e-05 -0.0001087076638)
(0.01277680433 -0.0006512988589 7.225329312e-05)
(0.01088455702 -0.000298370532 0.0006199083851)
(0.009396240722 -0.0003178480213 0.0001504226649)
(0.002708330642 -0.0001030648114 0.0001735248462)
(0.008357756921 7.831528806e-05 -0.0001528513141)
(0.006046114532 -0.0002451362853 -0.0003678593453)
(0.005357101069 0.00036357533 0.0005081663695)
(0.01107119376 -0.0002486294696 0.0006884950071)
(0.006121694802 0.0004283335492 0.0001104054969)
(0.0118167379 0.0009103850128 0.0003771282202)
(0.008428598962 -4.775188086e-05 -0.0005920105135)
(0.01112495994 0.0003786585932 -0.0003326532976)
(0.006565716376 0.0003806781393 -0.0003116189693)
(0.006468018754 -0.0005028351126 -0.0001329095137)
(0.005923054103 -0.0002198644815 -0.000367800452)
(0.008883244973 -4.090122829e-06 -9.746817497e-05)
(0.004222992617 -3.780755004e-05 6.936201429e-05)
(0.0105534459 0.0004519154421 -0.00130636736)
(0.01050644244 -0.000386067674 -0.000122624704)
(0.002805305346 -5.981927853e-05 -0.000168870183)
(0.008803980351 0.0004249334695 -0.0007959063828)
(0.01099699433 0.0006192097868 0.0003005145441)
(0.009910953605 0.0005530450631 0.0005149191906)
(0.008075543906 0.000150135624 0.0005580708523)
(0.004788721342 8.375782297e-06 0.0001112793486)
(0.004559309094 0.0001652103839 -0.0002626509488)
(0.008371901456 -0.0001270608364 -0.0003019096247)
(0.007250878462 0.0004963987949 0.0008104711195)
(0.00854806687 0.000394866982 -0.0003000828391)
(0.006572266549 0.0002642999196 -0.0001496126359)
(0.01162309738 -0.0003259486324 0.0006618838132)
(0.008078681165 0.0001894094904 0.0005339629895)
(0.005119135913 0.0009509293901 -0.0004961827014)
(0.005383931041 0.000165538718 0.0005145480198)
(0.00791191359 0.0004211160427 0.0006857907519)
(0.00724472494 -0.0001188404904 0.0003661784076)
(0.005975883326 8.818642969e-05 4.924564793e-05)
(0.008974356048 -0.0002829575106 -0.0005941980938)
(0.01084764327 0.0001173667221 -7.99600697e-05)
(0.007010692414 0.000839830913 -4.170745099e-05)
(0.01432955931 0.0003040593754 -0.0003698442848)
(0.005790867749 0.0002023739035 -0.0004930893901)
(0.006226695367 -1.102287675e-05 8.601053082e-05)
(0.00990732937 -0.0003578380008 -0.0008724479854)
(0.009611796607 0.0002077336488 0.0004280771634)
(0.01066770956 0.0003100517377 0.0002057589362)
(0.007109044387 -0.000628638394 -0.0006952828402)
(0.007899677926 0.0002697937519 0.001303530879)
(0.009406494894 -0.0004562416064 -0.0005120839928)
(0.005654110463 -0.0005721676474 0.0001792110622)
(0.003923525053 0.0004589997696 0.0009809984898)
(0.009329444351 0.001070635239 -0.0009290608435)
(0.01228774657 -0.0005310151352 -0.000409374429)
(0.007309493905 0.0008273685804 -0.0003761083786)
(0.008608376595 0.0001134533837 -0.0002784653347)
(0.01212029592 0.0003106683683 0.0002801979157)
(0.00898289011 0.0001103208125 -0.0005188161764)
(0.006787924943 -0.0004614394981 -3.478725676e-05)
(0.009907126958 -0.0003157439234 0.0004629208311)
(0.00749549636 0.0004549578616 0.000682052562)
(0.007548342265 -0.0002422963547 0.0001035134856)
(0.01112705328 -0.001092797445 0.0008802894343)
(0.00422790089 -0.0001666494674 -0.000349319899)
(0.00463040572 -8.23451514e-05 -0.0004324696382)
(0.00971085522 -0.0006401860089 -0.0003330559914)
(0.009012359015 -4.30767927e-05 0.0002139742874)
(0.006015818479 0.0002927355231 7.280528778e-05)
(0.01052865729 0.000362374005 -3.649728071e-06)
(0.009453185798 0.0007747082574 -0.0004340647048)
(0.01098725486 -0.0003500703037 -0.000311883055)
(0.0005098301938 8.184488461e-05 4.14885435e-05)
(0.003922077039 2.594933195e-05 1.274659825e-05)
(0.008337015892 0.0004390700305 0.0002649375406)
(0.005680392462 -0.0003365404732 7.97975135e-05)
(0.01179159886 -0.0003407591794 0.0002029057994)
(0.003647710202 5.482242235e-05 -5.633618837e-06)
(0.008371763081 0.0004853463065 -0.0002367091088)
(0.01006511358 -3.976783543e-05 0.0003814251701)
(0.005804699176 -0.000498463545 0.0001978252417)
(0.01123716125 0.0006034861694 -0.0002897972026)
(0.006515119991 -0.0003350094209 -0.0006512744938)
(0.008553774954 0.0005821097199 -0.000424620556)
(0.0118465412 0.0002685864628 -0.0006638860946)
(0.004611504347 7.23739968e-05 -0.0005270974455)
(0.008411526234 0.0002290734473 -1.769650191e-05)
(0.003843042239 -0.0006612263998 0.0001622151836)
(0.01082023567 0.0001829054601 0.0001517862889)
(0.004784549483 -1.675395983e-05 -0.0007414077535)
(0.007365825539 -2.154126484e-05 0.0005628944855)
(0.008726796249 0.0004429615419 3.129610442e-05)
(0.006557508459 -8.507109664e-05 -5.367971581e-05)
(0.01298159793 -0.000483651161 0.0006844950469)
(0.008343029243 -0.0001341421994 -0.000540350781)
(0.003997628097 0.0001567114186 -0.0001302981096)
(0.009693008245 -0.0001560231285 -0.0004110495728)
(0.01544504204 0.0002134895724 0.000409786014)
(0.007345067142 -0.000144684211 -0.0002608740566)
(0.006214173395 0.0002646187845 -0.0001551234869)
(0.0075051286 0.0001821910366 -4.214925841e-05)
(0.0107164826 -0.0003406909781 9.097663753e-05)
(0.008986440001 -0.0003077868938 0.0003675191116)
(0.008436779043 -0.0003032542014 -0.000287613572)
(0.005071028096 -0.0002766203966 7.866076526e-05)
(0.01014205786 -0.0004989505695 0.000201078264)
(0.009148255113 -0.0006885035017 -0.0001852946096)
(0.007169743745 -0.000609200858 -0.0001368954647)
(0.008331395232 0.0006195167508 -0.0005537546033)
(0.01139277706 0.0001138764137 -0.0002971573796)
(0.006094784845 0.0002225414126 0.0001247628972)
(0.01046628469 -0.0002063584213 -0.000616989495)
(0.01591522277 0.0006196252369 -0.0002085484107)
(0.002637966008 -0.0002771837063 7.904160719e-05)
(0.008131298433 0.0005886376782 2.992110932e-05)
(0.009760878407 9.221597098e-05 -0.001111476728)
(0.005719880309 -0.0001492507084 0.0005385482507)
(0.008490492842 0.000686835497 -9.415320328e-05)
(0.007109638785 -0.0005634274491 0.0001335377986)
(0.006831696992 -7.299081958e-06 -0.0009128389673)
(0.005754704768 0.0005821250999 -0.0003079112303)
(0.008178606032 0.0002196500449 0.0008495701733)
(0.01058432168 0.0007225600308 -0.0001454298286)
(0.008989936966 -0.001293155079 0.0009703453228)
(0.009422693583 -1.724912012e-05 -0.00057041249)
(0.008831144363 -0.0004780640521 0.0001900284807)
(0.006078364818 0.0005137564877 -0.0002909543669)
(0.01085835499 -0.0009278080188 -0.0008578363606)
(0.006908230133 0.0003154476886 0.0002977920499)
(0.009467097812 0.0003454183779 0.0006585302005)
(0.009600881414 -0.0002339510127 0.0003417210769)
(0.008287150748 -0.000436830807 -0.000258992401)
(0.00512438138 -0.0002129723978 -0.0001912819235)
(0.005417190018 -0.0004278153223 -0.0004999875774)
(0.008506023519 -0.0003905251652 0.0002618626888)
(0.006406335245 -0.0006254973428 0.0002829401509)
(0.007667456907 -0.0001911176454 -0.0001074166878)
(0.009860548076 -0.0006116503579 -0.0004029872689)
(0.008613757048 -0.0001760077812 -0.0001022788049)
(0.01056377451 0.000391962695 0.0003140150894)
(0.01006874696 -0.0001497176357 -5.435465986e-05)
(0.005686805771 -5.282400063e-05 -0.0002509190722)
(0.006742359828 -0.0004230318383 0.0004309056654)
(0.008062687357 0.0001380128653 -0.0004585217509)
(0.008572515812 0.0002163014934 -0.0003278723749)
(0.004681622964 1.819105577e-05 -0.0006853210774)
(0.007358334578 0.0001528598795 7.06910395e-06)
(0.003300080607 -0.0002279170778 0.0002176770371)
(0.00487365512 -5.052665113e-05 -7.327975575e-05)
(0.01230038931 0.001047062491 0.000208882305)
(0.01341226761 0.0005413179704 0.001239236063)
(0.0105521089 0.0004701806144 -0.0001105002546)
(0.006524296305 0.0006737454862 0.0008952048002)
(0.00267940905 -0.0001383054668 0.0001025326071)
(0.01213525232 0.0004170878748 -3.094437211e-05)
(0.008742638366 -8.982043079e-05 -0.0007250303729)
(0.007516715006 -0.0003911993071 -0.0001703909157)
(0.00767845751 -0.0002916588495 5.553577004e-05)
(0.01087601985 -0.0006261385079 0.0004854518447)
(0.006007028479 -0.0005136396424 1.289185502e-05)
(0.003462184031 0.000687919714 -0.0004894404896)
(0.006572279843 7.618891916e-05 -0.0001478315372)
(0.009159887817 0.0006436472328 0.0001731841966)
(0.01019612663 -0.0002744704379 7.229852012e-05)
(0.01004165402 0.0008771733343 -0.0001969580239)
(0.01007758916 -0.0004993678602 -0.0001238955456)
(0.005416990915 7.579519559e-05 4.697585041e-05)
(0.01201257094 -0.0003110774675 -5.865719915e-08)
(0.006148988857 -0.0001937050701 0.0004380156667)
(0.008006769087 0.001023076891 0.0002115565824)
(0.008705735753 0.0003049446447 -0.0003219129765)
(0.004739818981 0.000164710799 0.0004972282514)
(0.005433983103 0.0008303001303 0.000378868129)
(0.01282126562 -0.0009138450017 0.0008891725248)
(0.0027527212 -0.0003011272765 -1.975102621e-05)
(0.008932946669 -0.0008867660853 0.0001253587916)
(0.007201736867 3.473733388e-05 0.0004576188726)
(0.009700952611 0.0001839240444 0.0001431436196)
(0.007788878562 0.0004485342764 -0.001183523659)
(0.01364878668 -0.0006043646772 0.0001611853504)
(0.007178147024 6.089852829e-05 8.31621505e-05)
(0.01022034595 0.0005286893755 0.0003124833021)
(0.01246051002 -0.0005099877748 -0.0002891682787)
(0.008805326167 1.739088387e-05 -0.0001526019006)
(0.009934133971 2.497285442e-05 -0.0006803804613)
(0.006692553155 0.0003424815911 0.0004515486933)
(0.009065068788 0.000536156683 9.59639439e-05)
(0.00636185241 9.3495879e-05 -8.048529384e-05)
(0.009500815285 0.0001319947685 0.0007917055581)
(0.006938712727 0.0002625058439 -0.0007208677953)
(0.01062140314 -0.0006235379668 0.0001525250756)
(0.008046357427 -0.0004987318687 -0.0002346329142)
(0.004846161134 0.000100471805 -0.0002492797214)
(0.009421399298 0.0005312173789 0.0004774590555)
(0.006615448193 0.0001550993147 0.0006405294785)
(0.004656971787 -3.176207982e-05 0.0001601489165)
(0.008368593036 5.434289772e-05 0.0006554880412)
(0.01302694585 0.0002637488909 -0.000140866885)
(0.004547743073 -7.484739102e-05 -0.0004754066484)
(0.008853623874 -0.0003978640989 -0.0003668571181)
(0.01177143167 0.0001468949522 0.0004211921237)
(0.005792868685 -6.048774812e-05 0.0002733403248)
(0.01059105512 0.0007130767044 -0.0001649318501)
(0.007568115239 0.0001624808792 0.0001303105547)
(0.004080184387 0.0003055181828 0.0001054076176)
(0.008755116052 -0.0002514398822 0.0003888850636)
(0.006431028636 0.001161672643 6.272062103e-05)
(0.005311955436 -3.413392767e-05 -0.0001168996943)
(0.006709679067 0.0004394853008 9.475038969e-05)
(0.005657928525 -0.0003471669724 0.000395027532)
(0.009148457002 0.0004536646673 -0.0004533209043)
(0.01109696498 0.0007403755657 -0.0001387176157)
(0.009060816667 0.0007028775195 -0.0002249717986)
(0.009379266027 0.0005404855881 -0.00015337225)
(0.005615008363 -0.0001969820825 0.0005410150854)
(0.004752580836 0.0005006590935 -0.0001340494971)
(0.009541535672 -0.0004362789419 0.0004469932456)
(0.005867914803 -0.0002485530708 -0.0001619616005)
(0.00512555093 -0.0004108490265 0.0001969619769)
(0.006670656233 0.0007482597291 -5.05161078e-05)
(0.007543932271 -0.0001402357093 4.54967402e-05)
(0.007322678107 6.628084915e-05 -0.0003918660986)
(0.008426171202 0.0005054748456 3.912887707e-06)
(0.00364371337 -0.0005735719835 -0.0002456022441)
(0.01004165497 -0.0003787162837 0.0003060141657)
(0.0121994171 0.0004674385509 9.895346841e-05)
(0.007924234516 -0.0001540872683 0.0001107621047)
(0.009333919836 -0.0004820175504 -0.000327254336)
(0.006501067234 0.000269045785 7.760951571e-05)
(0.00929197708 0.0003859653067 -4.706218228e-06)
(0.00708186348 0.0001023312224 0.0002906485458)
(0.005524569206 0.0001628737868 2.529185728e-05)
(0.005240889678 -5.731240814e-05 -9.402401897e-05)
(0.01092583672 0.001339885221 0.0003124115376)
(0.007754049387 0.0007574459541 -0.00018468245)
(0.007218356132 0.0005581891776 0.0002352425158)
(0.007894540661 7.70428029e-05 -0.0003857061351)
(0.01005162454 -0.000175408511 7.611992681e-05)
(0.006788077262 0.00011776613 0.0003089494413)
(0.007092810502 0.0002232823003 -0.0004894584481)
(0.004792986291 -0.0001211004742 -1.386606433e-05)
(0.009316585257 0.000224979245 2.778367055e-05)
(0.008699124744 0.0004274328239 0.0001346170753)
(0.005483116525 -0.0001351310372 -0.001052334173)
(0.009554988589 0.001000472346 -0.0004956494605)
(0.005401649916 0.0002349600378 2.278038965e-05)
(0.009342506568 0.001395922449 0.001210921048)
(0.0116357725 -0.0004940143925 -0.000129113893)
(0.01391143735 0.0003330779023 -0.000748302909)
(0.005654031943 0.0005395551711 -0.0003631218683)
(0.01138404264 7.474740201e-06 -0.0007838639512)
(0.009702979374 -0.0002594901104 -0.0001623501305)
(0.006851984168 -0.0005134078112 -4.00378286e-05)
(0.01050345283 0.0001376717113 -0.000459986207)
(0.004179219179 -0.0001216640695 0.0001580050749)
(0.006835069443 -1.70540597e-05 -0.0001684815459)
(0.008696406922 8.038583609e-05 -0.0003199350769)
(0.00778511335 -0.0001113399441 -0.0005152566848)
(0.00903221164 -0.0001043058844 0.0001930056155)
(0.01123182392 0.000245547081 0.0004142159757)
(0.0122728813 -5.615064918e-05 0.0006169885265)
(0.01038137758 -6.412521744e-05 0.0003502812153)
(0.006011094163 -0.0004999264356 0.0001631335262)
(0.004653668723 -8.919768863e-05 0.0004720778591)
(0.01030854251 -0.0004546339691 -0.0004053942727)
(0.009928924624 0.0004658101812 1.445889872e-05)
(0.01008641912 0.001740322561 0.0007304147158)
(0.01121728112 0.0001111027972 0.0006909690927)
(0.008126246864 9.495995164e-05 -0.0002078992818)
(0.006047925357 0.0003151024848 0.0002582564226)
(0.008034555975 0.0009129185152 -0.0003743154493)
(0.01088896238 0.0002697300105 0.0003871329789)
(0.005761922797 0.000439255132 -0.0003955053431)
(0.009581323098 -0.0001634034836 0.0001502854876)
(0.005425323059 -2.992710971e-05 2.935317252e-05)
(0.006445085801 -3.735509808e-06 -0.0004675702449)
(0.009060695071 -0.0001760621162 -0.000703819237)
(0.01154462757 -0.0009777774406 0.0002516729639)
(0.010645208 0.0001805076291 -0.00197103916)
(0.009933295131 8.93367441e-06 4.687131696e-05)
(0.005524179184 -0.0003426274768 0.0009291515049)
(0.00732515074 3.437937584e-05 0.0004467691625)
(0.01448864894 0.0002919862856 0.0006933841125)
(0.006731365472 0.0003422195582 0.0003953356787)
(0.00700541217 0.0001893600932 0.0001307530483)
(0.005153469881 0.0005666532711 -0.0007259701238)
(0.008946003996 -0.0001674515014 -0.0003140120584)
(0.005202256283 0.0004226966467 -0.0001265097958)
(0.006631216603 1.324526893e-05 0.0004494392592)
(0.008639253655 0.0005981987636 -0.0007450012114)
(0.006174006969 -0.0004227086566 0.0004772552229)
(0.007094724118 0.0001313964339 4.040857525e-05)
(0.01022356071 0.0001570231164 0.0006454910718)
(0.005604643394 0.0001846078159 0.0002031853606)
(0.01349293 3.667882766e-05 -0.001093201506)
(0.006668737659 0.0001115991073 -0.000275758608)
(0.007679125275 0.0002125118345 0.0003645465259)
(0.01341054178 0.00107602553 -0.0005378718461)
(0.001591501549 -0.0002125554094 -4.458726505e-06)
(0.009031039545 -0.0002888256368 -0.0007586692539)
(0.009288798961 -0.001087741574 4.62138807e-05)
(0.004893617996 0.0002218357939 0.0004860799293)
(0.006710375572 -0.0003728450904 -0.0006286433049)
(0.00890222255 0.0005185205546 -0.0006053940978)
(0.008609759258 0.0002877925525 0.0004694290339)
(0.01059862006 -0.0007607291312 0.0004247871416)
(0.009469244602 0.0006946584808 0.0001427615734)
(0.003998421732 0.0005955818636 -0.0002149115314)
(0.007699119802 -0.0004325831546 0.0003273784954)
(0.01219998043 0.00030513985 -0.000735563431)
(0.01021702531 -0.0002697172094 0.000585187413)
(0.00976512923 0.0004568050896 -0.0002822271638)
(0.00586735775 0.0001093336911 0.0001315986226)
(0.007389113085 0.0004375242889 -7.236506446e-05)
(0.007015817111 -0.0001002860423 0.0006508629184)
(0.006824339107 0.0007641329032 0.0005668322106)
(0.003500579686 0.000520888551 -4.712648118e-05)
(0.007570932066 2.551096979e-06 -0.0002110369187)
(0.01027537941 0.0007871400828 7.975736557e-05)
(0.009263886214 -0.0001144390172 0.0004977387709)
(0.007291468226 8.940180744e-05 -0.0001629647011)
(0.006987434202 5.061676475e-05 -0.0002655043557)
(0.006659871981 -0.0002312781778 -0.0004472827989)
(0.006657948059 2.513871688e-05 -0.0001101436427)
(0.00557403324 -0.0002177559985 -4.77317383e-05)
(0.007325037237 0.0009600744857 0.0008971872206)
(0.01271903905 0.0002387980825 -0.0002018673665)
(0.009324991656 -3.797455208e-06 0.001148543629)
(0.006198923606 7.931581292e-05 -5.331449967e-05)
(0.00196412975 -7.838915413e-05 -4.456326292e-05)
(0.01065591341 0.000874355096 -0.0004358875418)
(0.01042854184 0.0002483469719 0.0002189764423)
(0.01163946656 0.00037826477 -0.0002301819993)
(0.01238063007 0.0005898976197 -1.107457254e-05)
(0.009237953689 -4.431480122e-05 0.0005705584058)
(0.006938688482 0.002113788748 0.0002878545966)
(0.008467562037 0.003098987297 0.0017234143)
(0.006953630545 0.00233569666 0.0005366799708)
(0.005777336722 0.002340862911 0.0001851256449)
(0.009865289855 0.001365295949 0.002461799254)
(0.006721318383 0.001741274877 -0.0005448906852)
(0.003363306639 0.002324656592 -0.00121692932)
(0.004552759221 0.002542057241 0.001654670436)
(0.0009382884834 0.0002457661031 -0.0004449203615)
(0.01055824921 0.002003422607 -0.0007839061222)
(0.007300950909 0.0003408405846 -9.670645985e-05)
(0.01092091068 0.002634458736 0.0001122538047)
(0.01114445417 0.00340326637 0.0002989127471)
(0.009857787318 0.001164481828 0.000743034764)
(0.006955399737 0.003445945117 0.002209353437)
(0.005824295017 0.004127332006 -0.000645434275)
(0.009261724609 0.003554451294 0.0001301888958)
(0.004649446494 0.002960042241 0.001463825162)
(0.004507403108 0.00351939916 0.001004269141)
(0.00319025346 0.001422887152 -0.0006387190552)
(0.008398159782 0.001070510752 -0.001123490456)
(0.00785809345 1.095084332e-05 0.0005773030809)
(0.006829712221 0.0009828364696 0.0005166197378)
(0.009062476258 0.003036901984 0.0002180811457)
(0.01305909048 0.002017890975 -0.002111204805)
(0.01476050766 0.005029271667 -0.00120630891)
(0.004040969619 0.002975128516 -0.0002775421965)
(0.01287418477 0.00478263984 -0.001121804381)
(0.006190356358 0.003076563615 -0.001095713892)
(0.008342629953 0.003171084449 -0.001617696471)
(0.01062390737 0.001480554425 -0.000601036937)
(0.01446953741 0.0007757011964 -0.002460657844)
(0.009545544455 -3.837974518e-05 -0.001262744076)
(0.004863106848 0.003022101824 -3.542137284e-05)
(0.009003755951 0.003416673734 -0.001623392378)
(0.00626573238 0.00281657584 0.001796023836)
(0.006563009837 0.001063711955 0.0003146094853)
(0.008904160567 0.004672096699 0.0005651695572)
(0.008005203279 0.00431525288 0.001113494734)
(0.00762283157 0.002285565042 0.001779142176)
(0.01078057429 -0.0001048123215 0.000322570045)
(0.01590029671 0.001676242942 0.001965863634)
(0.008759875268 0.002265462902 -0.0003977452927)
(0.01103055625 0.0008981474176 0.001246675054)
(0.008509219351 0.0008264041716 -3.319445011e-05)
(0.008518020825 0.001320673298 0.001614904281)
(0.01148929463 0.003124161333 -0.0004197985574)
(0.007663240391 0.002392337709 0.001032567993)
(0.007864712243 0.003979983875 -0.001119438629)
(0.01028497026 0.003540610417 -0.0004644820225)
(0.006973782258 0.0006546021044 -8.8151636e-05)
(0.01061381247 0.0005857087413 -0.0009279938217)
(0.01044291956 -0.0001128669227 0.0002708456319)
(0.01365882113 0.001496108921 0.0006199334329)
(0.01204267912 0.001480394735 0.000733215909)
(0.01201745645 0.001688620788 -6.669859939e-05)
(0.01140212987 0.001541322581 -0.001080768658)
(0.007515551341 0.002403706098 -0.002036232579)
(0.01593040752 0.006022147862 0.002367761145)
(0.01011274587 0.005259878733 -0.0005743782894)
(0.01332023461 0.0005385138562 0.0002738811161)
(0.009947233991 -0.0006315633613 0.001539377051)
(0.01062232256 0.001585366718 -0.0007358305147)
(0.01077323516 0.001243780063 -0.0003820376938)
(0.009438919878 0.0004132150676 -0.0004612176613)
(0.009760571002 0.0008395501993 0.0003285516718)
(0.008248562134 0.002933668807 0.0009980452884)
(0.007301491095 0.001633074887 -0.0003321552862)
(0.01147608857 0.003097942585 0.0005782503128)
(0.003432443864 0.002091394309 0.001283544397)
(0.009558353148 0.0002503107616 0.0005349265723)
(0.006187294753 0.0005097349323 -0.0001302586879)
(0.006118287604 -0.0003065665811 0.0005454742777)
(0.01395065653 0.001341543534 0.0007793089279)
(0.01228422665 0.0001770192067 -0.0003589010038)
(0.008739312105 0.002378592615 -0.0004110107791)
(0.01169994538 0.001495865826 -0.0004974108283)
(0.008322465051 0.002655829215 -0.0004075349679)
(0.008319450589 0.004174225245 0.001211232531)
(0.009444355874 0.001896059327 -0.0008251664901)
(0.008293015006 0.0009720503722 0.0009501374558)
(0.01100951886 0.0002531722661 0.0001007383292)
(0.01047824332 0.0003600448535 -0.0009359608499)
(0.008884108424 0.0008180867724 0.001048965913)
(0.01316698053 0.0007451937981 9.584050384e-06)
(0.01167173203 0.001168044711 0.0003905680035)
(0.004312128879 0.001878402984 0.002107570275)
(0.006373058329 0.001578306998 -9.642122209e-05)
(0.008428950833 0.001819525739 -5.76216164e-05)
(0.01327493827 0.001315527467 -0.0007678139524)
(0.008878087975 -0.0008649390684 0.0004253871087)
(0.01315382722 -0.000187637625 0.001007489491)
(0.01222555306 -0.0001909840851 0.001206927073)
(0.01186145022 9.09962369e-05 0.0003088542627)
(0.01155582507 0.001659416935 -0.0002262433893)
(0.012565475 0.00125952813 0.001271295218)
(0.01008595664 0.0004207481311 -0.0008431161576)
(0.006344760474 -0.0002001274305 -0.0002552400343)
(0.01034480112 0.002621843004 -0.001806212616)
(0.009812285465 0.0002661338232 -0.0006636146346)
(0.008262151276 0.001271038181 -0.0002592063343)
(0.01357214451 -0.0002202219711 -0.000389143276)
(0.009535754682 0.000608260136 -0.0003497204642)
(0.005568402674 -9.449760542e-05 0.0004717747696)
(0.008901957538 0.000124578755 -0.0002417767112)
(0.007820626527 3.431621188e-05 0.0002407678648)
(0.004587949356 0.0002998315088 0.0003035949245)
(0.007781491472 0.0009433237682 0.0003768369217)
(0.01108829361 0.00224929203 0.0001135230729)
(0.008311541673 0.0004507444931 0.0001068095049)
(0.01004492228 0.0005957557717 -0.0001168460117)
(0.004936913419 -0.0005872488033 5.667176725e-05)
(0.006999142034 0.0008178273845 0.0001115322843)
(0.01038357475 -0.0006443446014 -0.0008502099804)
(0.009376620706 0.0001985020012 -0.0003205000139)
(0.01012324442 0.002117363429 0.0005757380315)
(0.009185124467 0.0009163663928 0.0001728411251)
(0.0126935145 0.001363251463 -0.0004540498343)
(0.005986425691 0.001660702738 0.0002672331284)
(0.01371206819 0.001279541149 -0.001589856052)
(0.008042652706 0.0005305604294 0.0002608255163)
(0.006333753926 0.0003594514314 4.558200012e-05)
(0.009127839879 0.0004421623294 4.62793873e-05)
(0.01072148937 -0.0006591341342 -0.0003928534877)
(0.007806311705 -9.239992082e-05 0.0003089852446)
(0.009455982586 0.0009376562458 -7.906615168e-05)
(0.01376128282 0.0002264591441 4.144811398e-05)
(0.01031252298 -0.0001272563153 0.0001903356275)
(0.01162581906 0.0008578197651 -4.482254139e-05)
(0.008503072825 -0.0001426945595 -0.0009281871879)
(0.01267226229 -3.2940302e-05 -0.0005924752226)
(0.01282608965 -0.0001273028352 0.0001288250135)
(0.009258855585 0.0002959534684 -0.0001996964019)
(0.007141685517 3.758555502e-06 -0.0004151720335)
(0.01354768098 0.0002000564846 0.0005493890406)
(0.006761153029 0.0006562092221 -0.0005638639746)
(0.005240850609 -0.0003968580297 -0.0003329598734)
(0.005515312801 5.41551366e-05 0.0002378687581)
(0.009708416668 0.0002511272874 0.0006949882956)
(0.01635487105 -0.0001359179572 -0.0004468995068)
(0.004925477296 -0.0003068788576 0.000340977417)
(0.01280273478 -0.0001909040582 0.0007386679363)
(0.008364678828 0.0006874025864 0.0009654676024)
(0.007897752139 -0.0002058765737 6.468197832e-06)
(0.006550255677 -2.244635999e-05 0.000162683534)
(0.010280895 -0.0002088402798 0.0001453163186)
(0.008392784416 3.552775056e-05 -0.0005436031077)
(0.00943334862 0.0006068016571 -0.0006056860261)
(0.01031640417 -0.000698667476 -0.0002356084613)
(0.005590731706 2.847500596e-05 0.0001526363786)
(0.006645087198 0.0007194948087 -0.0002201947266)
(0.008533462946 0.0003125548872 0.0002803351466)
(0.01140850777 0.0007575647975 0.0004981836961)