/*--------------------------------*- C++ -*----------------------------------*\
| =========                 |                                                 |
| \\      /  F ield         | OpenFOAM: The Open Source CFD Toolbox           |
|  \\    /   O peration     | Version:  2406                                  |
|   \\  /    A nd           | Website:  www.openfoam.com                      |
|    \\/     M anipulation  |                                                 |
\*---------------------------------------------------------------------------*/
FoamFile
{
    version     2.0;
    format      ascii;
    arch        "LSB;label=32;scalar=64";
    class       volVectorField;
    location    "0.004";
    object      momentumMean;
}
// * * * * * * * * * * * * * * * * * * * * * * * * * * * * * * * * * * * * * //

dimensions      [1 -2 -1 0 0 0 0];

internalField   nonuniform List<vector> 
654
(
(0.006233449823 -2.096827446e-05 -1.619695357e-05)
(0.008219812567 -2.933517913e-05 -2.578084018e-05)
(0.008235990763 -3.202699202e-05 -1.788876919e-05)
(0.008253201897 -2.759913125e-05 -1.654088894e-05)
(0.008253212134 -2.897892388e-05 -2.705359108e-05)
(0.008290673628 -3.280099635e-05 -1.558238102e-05)
(0.008257209038 -3.178448225e-05 2.985078733e-06)
(0.008268554443 -4.152331287e-05 -6.473952598e-06)
(0.008237742989 -4.247652268e-05 2.608398714e-06)
(0.008180212862 -4.477682732e-05 -8.491511192e-07)
(0.008168910219 -3.597282089e-05 8.153929695e-08)
(0.008181362835 -1.914842675e-05 -8.673550492e-06)
(0.008140099592 -1.276793084e-05 -1.070441663e-05)
(0.008162115394 -9.204713848e-06 -9.942382022e-06)
(0.008165893808 -1.412567349e-05 -8.249535842e-06)
(0.008193810926 -2.738865914e-05 -8.314602755e-06)
(0.008136703592 -5.462728031e-05 6.044142085e-06)
(0.008092956876 -8.569433785e-05 4.197910335e-06)
(0.007985207749 -0.0001076811304 -1.176008153e-05)
(0.007728890995 7.225409044e-05 2.098238497e-05)
(0.006308165112 7.194000411e-06 -9.88849673e-06)
(0.00831660363 -8.537665439e-06 -1.170669884e-05)
(0.008347964549 -4.787186309e-06 -1.000185394e-05)
(0.008298976882 -9.496361723e-06 -2.278844371e-05)
(0.008293823903 -5.866581518e-06 -1.492339698e-05)
(0.008367528201 -2.040646884e-05 -2.889771277e-05)
(0.008336833443 -3.271943785e-05 -4.481460369e-05)
(0.00832705862 -1.036856898e-05 -2.684936299e-05)
(0.008373234309 -1.191174615e-05 -1.699379978e-05)
(0.008396572606 -1.312564403e-05 -5.950441316e-06)
(0.008387995594 -5.622702418e-06 -1.583598533e-06)
(0.008378237673 -1.440397112e-05 5.12381218e-06)
(0.008408034138 -1.21484055e-05 1.315076622e-05)
(0.008407662435 -2.194851686e-05 1.13129331e-05)
(0.008383587937 -1.194460052e-05 -9.762532297e-07)
(0.008390703112 -1.507060216e-05 -6.577113752e-07)
(0.008419644722 1.162764334e-05 2.660826127e-05)
(0.008455501186 1.946848715e-05 -4.964845509e-07)
(0.008416668783 0.0001013700575 1.76293343e-05)
(0.008225765388 0.0004401464521 -4.328790173e-06)
(0.006384647275 -4.621501365e-06 2.140762639e-05)
(0.008433320807 -1.311231823e-05 2.353542201e-05)
(0.008444847867 -2.661503198e-05 6.301461448e-06)
(0.008463359897 -3.4321444e-05 5.897252525e-06)
(0.008418923543 -4.295895171e-05 9.628260173e-06)
(0.008419336735 -2.426599265e-05 1.382694234e-05)
(0.008457280446 -7.07122357e-06 2.200200957e-05)
(0.008424855628 -6.271960305e-06 1.779192305e-05)
(0.008419345421 7.819702211e-06 2.162313048e-06)
(0.008360099784 2.876820029e-07 -3.92901879e-06)
(0.008345481047 3.426523736e-06 -1.409733227e-05)
(0.008346034025 -1.577208577e-05 -1.42981114e-05)
(0.008352796387 -1.257606554e-05 -1.644606987e-05)
(0.008361394662 -7.641427359e-06 -1.478662698e-05)
(0.008402238888 -1.333140339e-05 -2.183236307e-05)
(0.008373981485 -4.94457137e-06 -5.76785917e-06)
(0.008321541194 9.914068912e-06 2.243101578e-06)
(0.008350222684 4.870018056e-05 -3.673720425e-06)
(0.00819495988 0.0001433529255 -3.452310205e-06)
(0.008241112107 0.0003552980835 6.31973334e-06)
(0.006409747865 -3.050574796e-05 -2.615483267e-06)
(0.008293901679 -1.434729211e-05 1.274722809e-06)
(0.008286177755 -6.234245068e-06 1.060598695e-05)
(0.008273416881 -7.58199189e-06 2.088586021e-05)
(0.008193243586 1.24489193e-05 1.492623904e-05)
(0.008180095229 2.483395755e-06 5.265094557e-06)
(0.008218260325 -1.654389364e-05 -6.304592763e-06)
(0.008218677326 -2.70064448e-05 -1.51140513e-05)
(0.008221653417 -2.756745914e-05 -9.335532555e-06)
(0.008281973723 -7.004311825e-06 -4.516948729e-07)
(0.008326278968 -7.730333286e-06 8.119802506e-07)
(0.008357842144 1.627992772e-05 -1.354057036e-05)
(0.008406643916 2.185852624e-05 -2.069003863e-05)
(0.008304222704 1.463839352e-05 7.083540016e-07)
(0.00827631291 9.008965985e-06 2.604925796e-06)
(0.008213937007 -3.339292024e-06 8.535723292e-06)
(0.00817801006 1.797715826e-05 -6.565063388e-07)
(0.008218416832 5.112359349e-05 1.112002854e-05)
(0.008290800939 0.0001037040346 7.803981186e-07)
(0.008367521573 0.0003103667693 -2.854102168e-05)
(0.006360723049 -8.168195041e-06 8.882976978e-07)
(0.008345366529 -2.279699639e-05 1.081054924e-05)
(0.008282847812 -1.592755983e-05 1.527434855e-05)
(0.008289319637 -3.107658729e-06 1.150171713e-05)
(0.008349121101 -7.268028469e-06 1.686341524e-05)
(0.008345883882 -1.136794617e-05 1.663318465e-05)
(0.008332246928 1.569169371e-05 3.65003639e-05)
(0.008278442805 9.161848573e-06 3.132262239e-05)
(0.008249169713 -3.850949917e-06 1.716645629e-05)
(0.008232543701 -7.03096647e-06 1.974080117e-05)
(0.008186602202 -2.901395286e-05 2.102507564e-05)
(0.008176343623 -2.57762224e-05 1.935619212e-05)
(0.00824973558 -2.170843655e-05 2.068519457e-05)
(0.008254890135 -1.403511121e-05 3.902380583e-06)
(0.008310961581 1.377089842e-05 4.77847626e-06)
(0.008430316866 2.244617248e-05 -1.001663391e-05)
(0.008440624287 3.488227595e-05 -9.461898047e-06)
(0.008410336875 7.540968353e-05 -2.322616411e-05)
(0.008378192628 0.0001105405627 -2.167632473e-05)
(0.008358809996 0.0002232634207 -2.554696098e-05)
(0.006363919351 1.527589418e-05 3.278690002e-07)
(0.008309815882 1.804106251e-05 -5.947063219e-06)
(0.008331654638 1.231155348e-05 -1.92321209e-06)
(0.00827542835 -1.834865712e-06 -6.467264689e-06)
(0.008232867981 6.33805328e-06 -8.753188427e-06)
(0.008287315748 -9.143679801e-06 1.873354611e-06)
(0.008211386839 -1.382638296e-05 -1.113768179e-05)
(0.008285493057 -1.405077852e-05 -1.165825032e-05)
(0.008315312474 7.193208715e-07 1.244756889e-06)
(0.008356227857 3.886209864e-06 8.152962617e-06)
(0.008373051019 1.613588435e-05 8.336326843e-06)
(0.008340695262 1.710970037e-06 9.573211443e-06)
(0.008264480427 -9.109991048e-06 3.152449316e-06)
(0.008271131824 -1.946910962e-05 2.762491401e-06)
(0.008285047726 -2.706471076e-05 1.425967751e-05)
(0.008192852547 -2.081133655e-05 1.604062466e-05)
(0.00818725216 2.016206786e-05 -1.519391614e-06)
(0.008195035278 7.169387047e-05 -1.501466901e-05)
(0.008268196312 8.493012538e-05 -1.319652065e-05)
(0.008294020434 0.0001915905036 -2.745155958e-05)
(0.006372135225 8.817493264e-06 -1.643407389e-05)
(0.008347064231 1.513851862e-05 -1.476347534e-05)
(0.008373843146 8.885454757e-06 -1.841961956e-05)
(0.00834463214 2.112962923e-05 -2.342122215e-05)
(0.00840433913 6.186558032e-06 -3.6363749e-05)
(0.008401132814 1.295963035e-05 -3.723520295e-05)
(0.008406261693 -5.374136258e-06 -2.609160284e-05)
(0.008349541734 -1.657305453e-05 -1.899025664e-05)
(0.008391325993 -2.576093406e-05 -2.176808811e-05)
(0.008356007696 -2.338548363e-05 -7.856609649e-06)
(0.008326616186 -1.554067071e-05 -2.564897211e-05)
(0.008352723829 -1.368919031e-05 -1.854463404e-05)
(0.008382148153 -2.125426256e-06 -1.05204613e-05)
(0.00834204964 1.269380587e-05 -2.388805704e-05)
(0.008347015194 1.34426834e-05 -2.199357184e-05)
(0.00829733829 2.140118367e-05 -2.197071332e-05)
(0.008349044967 2.305272299e-05 -2.470665024e-05)
(0.008302332537 2.55265553e-05 -3.414751471e-05)
(0.008357878087 6.267583354e-05 -2.187897766e-05)
(0.008408264714 0.0001245660102 1.996470065e-06)
(0.00635552614 -2.012781338e-05 -1.834669722e-05)
(0.008335747139 -1.624811402e-05 -2.943566105e-05)
(0.008341058117 -2.08815521e-05 -3.253544363e-05)
(0.008394312351 -1.699637393e-05 -2.856406543e-05)
(0.008352632546 -1.167792013e-05 -1.223530597e-05)
(0.008362229289 -1.128933499e-05 -1.674264522e-05)
(0.008475845942 1.88967402e-05 -2.31764927e-05)
(0.0084950575 1.910552492e-05 -1.384397208e-05)
(0.008496118297 1.804690854e-05 -1.776624069e-05)
(0.008427388649 4.435848373e-06 -2.798860788e-05)
(0.008352666206 -7.963001802e-06 -1.773347593e-05)
(0.008285336476 -1.154537363e-06 -2.509367741e-05)
(0.008334545018 4.806129122e-06 -2.153058938e-05)
(0.008352763261 3.196854318e-06 -1.791367788e-05)
(0.008365595499 1.041795013e-05 -1.552639266e-05)
(0.00845191679 1.794146952e-06 -1.344913218e-05)
(0.008439105092 2.912398777e-06 -9.934814109e-06)
(0.00840711795 1.584463689e-05 -2.083246687e-05)
(0.008402553448 5.359839118e-05 -1.358379488e-05)
(0.008382524962 8.236070106e-05 -1.388704917e-05)
(0.006342812276 -1.766942065e-05 -1.584050881e-05)
(0.008419870831 -1.041536877e-05 -1.441838287e-05)
(0.008404263691 -1.842128882e-06 -1.366826108e-05)
(0.008333559461 -3.263030022e-06 -9.230396024e-06)
(0.008292729061 -1.718577561e-05 -9.88121293e-06)
(0.008247865502 -9.417260628e-07 -2.294828611e-06)
(0.008300046834 -8.894825052e-06 1.047692366e-06)
(0.008319971744 -3.294203811e-06 -8.767948339e-06)
(0.008272123715 5.083048344e-06 -7.691512263e-06)
(0.008300276546 2.292234979e-05 -6.125489399e-06)
(0.008450638169 2.849946325e-05 8.88213885e-07)
(0.008439351512 1.331415776e-05 -1.343436469e-05)
(0.008354847263 -1.345709976e-05 -2.63434117e-06)
(0.008342805577 -1.941452719e-05 5.010794039e-08)
(0.008238758528 -2.739568609e-05 3.079820909e-06)
(0.008232585422 -1.131037437e-05 -4.052362885e-06)
(0.008300408336 1.237161431e-05 -5.871144113e-06)
(0.00837418704 3.092726236e-05 -6.427362165e-06)
(0.008318261871 5.746864187e-05 -4.537601447e-06)
(0.00838275505 9.436474817e-05 2.083242621e-06)
(0.006353123836 -2.497050975e-06 2.274543966e-05)
(0.008236669129 -2.269315014e-05 2.398719754e-05)
(0.008274391509 -2.83159957e-05 1.710634442e-05)
(0.008345760236 -2.328606728e-05 1.835307234e-05)
(0.008364896476 -3.568127594e-06 1.345474337e-05)
(0.008384253175 -5.54669519e-06 6.318873958e-06)
(0.008348641616 -1.806328814e-05 1.22359064e-05)
(0.008310730732 -1.320738095e-05 5.546367488e-06)
(0.00833783998 -4.141290571e-06 1.081358446e-05)
(0.008352824487 -5.599434559e-06 6.474508616e-06)
(0.008325303316 -4.752869092e-07 1.893978234e-05)
(0.008352487475 1.728255952e-05 1.839414429e-05)
(0.008404336007 1.298648396e-05 2.77451342e-05)
(0.008415426559 2.640846393e-05 1.483609391e-05)
(0.008449688633 2.479048777e-05 9.67709061e-06)
(0.008507548664 2.689732471e-05 1.205684129e-05)
(0.008469622643 2.185051797e-05 1.952862821e-05)
(0.008336440386 2.901169301e-05 2.399766985e-05)
(0.0083674597 3.966291799e-05 2.931264304e-05)
(0.008348323361 4.9240388e-05 1.316593633e-05)
(0.00635755039 1.040220185e-05 -1.168658701e-05)
(0.008307029196 1.332974851e-05 -2.085254262e-05)
(0.008310105333 3.514367682e-06 -2.425184959e-05)
(0.008248931885 -5.318325445e-06 -1.39009722e-05)
(0.008238179052 -5.786704522e-06 -8.289204301e-06)
(0.008205512324 -2.328757925e-05 1.989333643e-06)
(0.008134098441 -9.030062455e-06 2.917449207e-06)
(0.008162075623 -4.033313684e-06 -1.066001138e-05)
(0.008212958332 -8.391026217e-06 -1.554827781e-05)
(0.008207120196 -6.99274676e-06 -1.642369869e-05)
(0.00824299024 -2.322157836e-05 -2.582847258e-05)
(0.00826530114 -1.293335163e-05 -1.320775678e-05)
(0.008303233787 5.979474817e-06 -1.34169817e-05)
(0.008259544254 1.111439364e-05 -1.985458156e-05)
(0.008234137483 2.309359093e-05 -2.731872428e-05)
(0.008142575898 1.515548911e-05 -1.307047739e-05)
(0.008207851385 2.35743015e-05 -8.680069348e-06)
(0.008321086318 -6.270485285e-06 -1.553322411e-05)
(0.008386865174 1.662686936e-05 -5.185766267e-06)
(0.008355882091 6.53946956e-05 1.446564341e-05)
(0.00636640201 -2.250156891e-06 -8.013552072e-06)
(0.008338409419 -3.918911408e-06 -5.715778651e-06)
(0.008323232093 1.222121732e-05 6.595292614e-06)
(0.008286799127 -1.22508547e-06 -5.983681992e-06)
(0.008370368882 -1.000128021e-05 -1.608266889e-05)
(0.008401247298 -2.493549477e-06 -1.924737162e-05)
(0.008428797764 2.991506578e-06 -1.947966307e-05)
(0.008400035989 -1.268226189e-05 -1.287142693e-05)
(0.008416383109 -7.762088666e-06 -3.426672307e-06)
(0.008318989094 -2.063954019e-06 -7.656841583e-07)
(0.008287149351 1.829365182e-05 -2.573067284e-06)
(0.00820158112 1.741454073e-05 -1.678262301e-05)
(0.008154368884 2.030284599e-06 -1.386766125e-05)
(0.008261519003 -7.534993109e-06 -1.118635015e-05)
(0.008314412583 -1.860511924e-05 -1.163211557e-06)
(0.008370158513 -1.200980461e-05 -9.229127013e-06)
(0.008391703699 -1.94153562e-05 -1.386134546e-05)
(0.008307562992 -1.006597827e-06 -6.583627703e-06)
(0.008304797895 -3.375606956e-06 -1.970958627e-05)
(0.008366866946 1.810525052e-05 -3.520378323e-06)
(0.006348564383 1.553654022e-05 -3.365816909e-06)
(0.008336199933 7.455806284e-06 -1.837744971e-05)
(0.008364337347 2.947067311e-06 -2.271974568e-05)
(0.008324064162 5.228586815e-06 -2.268111643e-05)
(0.00826466952 3.95808001e-06 -2.860676384e-05)
(0.008246329875 6.951699551e-06 -2.356161609e-05)
(0.008223254517 -1.154176742e-05 -2.095335251e-05)
(0.008209692464 -2.15950658e-07 -3.035003031e-05)
(0.008172138207 9.27849418e-07 -2.495600997e-05)
(0.00825254772 -3.121913804e-06 -2.519176113e-05)
(0.008348137148 -1.638451285e-05 -1.783811621e-05)
(0.008372393766 -2.757650401e-05 -9.05138718e-06)
(0.008406891508 -2.938342645e-05 -1.340157874e-05)
(0.008373257787 -2.032100184e-05 -2.028235662e-05)
(0.008310623899 -1.26427931e-05 -1.518688e-05)
(0.008368282705 -1.86312788e-05 -1.779369822e-05)
(0.008358930682 5.58544092e-06 -1.212801985e-05)
(0.008433844915 4.562633857e-06 -9.894999291e-06)
(0.008451317308 8.21485659e-06 1.191107695e-05)
(0.008395005166 2.361730797e-05 1.210149313e-06)
(0.006350209164 1.023133094e-05 -2.039907352e-05)
(0.008386408684 9.903000779e-06 -1.836472479e-05)
(0.008385758163 1.972015688e-05 -4.628423094e-06)
(0.008405238966 2.739801886e-05 -7.761134067e-06)
(0.008401925798 1.983802557e-05 -5.158915584e-06)
(0.008396454259 1.988712256e-05 -1.206431917e-05)
(0.008364306527 1.895080767e-05 1.722037977e-06)
(0.008395754624 1.25804671e-05 9.886040396e-06)
(0.008375673259 -2.803353202e-06 8.239039906e-06)
(0.008316784826 -1.863461233e-05 1.663430572e-05)
(0.008259798491 -1.470776772e-05 1.34828001e-07)
(0.008277769036 -1.572143956e-05 -3.360804427e-07)
(0.008272524054 -1.363355911e-05 -1.689665888e-06)
(0.00829715 -1.460074851e-05 1.719875143e-05)
(0.008303417476 -5.214692119e-06 1.126726956e-05)
(0.008223500682 -5.721632074e-06 -6.792762697e-07)
(0.008172492528 -9.116167132e-06 -1.256946979e-05)
(0.00818005428 -1.484517603e-05 -2.033654939e-06)
(0.008117944947 8.65192053e-06 -2.278477649e-05)
(0.00825159628 1.146512842e-05 -1.28126231e-05)
(0.006292802252 1.802588083e-05 1.98610975e-05)
(0.00833896483 2.032764986e-05 2.091951706e-05)
(0.008340090576 3.875677819e-06 1.55536689e-05)
(0.008313332718 -1.152528819e-05 1.491612625e-05)
(0.008342826897 4.366668215e-06 8.785590091e-06)
(0.008350621221 1.357556327e-05 1.108317272e-06)
(0.008378232243 9.510774359e-06 2.632630981e-06)
(0.008389931707 -4.132997774e-06 -8.171430548e-06)
(0.00841830741 2.99997807e-07 -1.670583659e-06)
(0.008420877651 8.12498391e-06 -2.893512384e-06)
(0.008371132585 1.087074555e-06 -7.516298333e-07)
(0.008363497942 -1.603442877e-05 1.070062772e-05)
(0.008414700918 1.814895584e-06 -3.126240954e-06)
(0.008359949058 1.179300919e-06 -1.505495297e-05)
(0.008350913783 -3.653475675e-07 -1.313928938e-05)
(0.008272579407 1.633518462e-05 -2.475632317e-07)
(0.008325996829 1.694567609e-05 -1.920266126e-06)
(0.008302069696 1.94279207e-05 -9.943291088e-06)
(0.008275878979 9.243884409e-06 1.813091341e-06)
(0.008222668099 -8.267421797e-06 -8.48207833e-06)
(0.006401065408 -2.075112395e-05 -4.196612863e-06)
(0.008389662836 -3.037607956e-05 -1.098094065e-05)
(0.008346422483 -7.14671619e-06 -7.215075651e-06)
(0.008355153905 1.68320116e-05 -1.996515065e-06)
(0.008304217723 1.142646975e-05 8.278987675e-08)
(0.008361041908 8.112869946e-07 5.094062926e-06)
(0.008365867432 1.860307601e-05 2.485833834e-06)
(0.008292909962 1.413660054e-05 5.088759714e-06)
(0.0082919803 3.924143457e-06 -7.458386642e-06)
(0.008226173245 9.421277104e-06 -8.490874885e-06)
(0.008246379146 1.295172788e-05 -6.086412318e-06)
(0.008189596831 2.949334126e-05 -5.033000051e-06)
(0.008106536312 3.165753421e-05 1.91381222e-05)
(0.008142652139 2.274222645e-05 2.908011873e-05)
(0.008204186897 5.44899197e-06 2.429387071e-05)
(0.008286115242 -1.364912524e-05 9.966694788e-06)
(0.00826497773 -1.584644154e-05 -3.790846651e-06)
(0.008228833444 3.808932966e-06 -4.58009367e-06)
(0.008283975996 1.384212322e-05 -1.231495981e-05)
(0.008250901184 1.971669323e-05 -1.747309946e-05)
(0.006387304157 3.008878994e-05 5.536268225e-07)
(0.008318632753 2.36764874e-05 3.728397501e-06)
(0.008298510464 -1.872592097e-06 -6.107907371e-06)
(0.008357907932 -4.616738849e-06 -1.384975964e-05)
(0.008297568633 5.119409976e-06 -5.292577191e-06)
(0.008329339881 8.781791532e-06 -7.922646202e-06)
(0.008258829571 1.468448408e-05 -1.959170376e-06)
(0.008339660546 2.505352037e-05 5.279940944e-06)
(0.008344741501 2.7204556e-05 1.427324493e-06)
(0.008405356576 2.165117725e-05 -3.050282757e-06)
(0.008448000421 1.782778966e-05 -4.005438988e-06)
(0.008455372721 1.02914852e-05 -1.422459116e-05)
(0.008468118531 2.993914661e-06 -2.849436018e-05)
(0.008505284604 5.740252051e-06 -4.167564048e-05)
(0.008393834022 1.16429144e-05 -3.404457426e-05)
(0.008364414697 7.051139304e-06 -2.187236895e-05)
(0.008379320038 1.234862715e-05 -1.494921805e-05)
(0.008407775238 -8.386119934e-06 -3.66203557e-06)
(0.008359575271 1.193573533e-05 4.545298008e-06)
(0.008358996691 -6.343840974e-06 9.278569334e-06)
(0.006358577529 -1.390127672e-05 9.341902267e-06)
(0.008321944181 -1.021985139e-05 1.130487632e-05)
(0.00833998829 2.023271436e-05 1.339478957e-05)
(0.008330092875 3.532178671e-05 9.688050987e-06)
(0.008356253528 2.547884915e-05 1.077838018e-05)
(0.008341140294 7.826543904e-06 4.106871935e-06)
(0.008393094943 6.637920752e-07 7.009896048e-06)
(0.008379994092 3.089129863e-06 3.588283993e-06)
(0.008343614427 -1.49945479e-05 1.532968524e-05)
(0.008280969651 -2.137879011e-05 5.98799753e-06)
(0.008289835838 -4.243046955e-06 6.603890505e-06)
(0.008339801548 -4.733644657e-06 6.901792721e-06)
(0.008351215128 4.998375238e-06 -2.436568521e-07)
(0.0083753127 8.435516146e-06 5.655655938e-06)
(0.008372116258 8.547401669e-06 1.481028623e-05)
(0.008399727862 1.501289878e-05 1.46080494e-05)
(0.008505674232 5.096990835e-06 1.25048793e-05)
(0.008442569522 3.022340026e-06 2.081192953e-06)
(0.008412048404 9.332843028e-06 6.35915554e-06)
(0.008432922203 1.900478835e-05 -7.04559097e-06)
(0.006381092983 1.815425239e-05 -1.116926181e-05)
(0.008339330496 5.204126535e-06 -1.337469999e-05)
(0.00836608126 -2.39855589e-06 -6.184039136e-06)
(0.008318102383 -2.719343004e-05 5.165156608e-08)
(0.008364081977 -1.942889801e-05 -2.156514121e-05)
(0.008401414417 -1.804733247e-06 -2.388694799e-05)
(0.008380847287 9.597959136e-06 -1.9414073e-05)
(0.008411679835 -1.126301003e-06 -4.953509466e-06)
(0.00842994288 2.212427967e-05 -1.18755119e-05)
(0.008456818611 3.125542185e-05 -7.902406193e-06)
(0.008410256895 1.262774771e-05 -1.980671442e-07)
(0.008378850659 6.38723449e-06 -1.930772481e-06)
(0.008275704563 1.004234884e-05 4.256044607e-06)
(0.008293566013 -1.092836709e-05 6.666602515e-07)
(0.00824144555 -2.244702402e-06 -1.003001106e-05)
(0.008263001243 -2.12519751e-06 -1.395080257e-05)
(0.008221757984 1.363092796e-05 -7.486824238e-06)
(0.008226583388 7.672930955e-06 4.711491348e-06)
(0.008283235673 4.492541633e-06 1.745881e-06)
(0.008290071529 1.687382351e-06 9.74034053e-06)
(0.00635732753 -1.57731593e-05 -1.749435761e-05)
(0.008416605084 -1.018260592e-05 -3.508916845e-05)
(0.00848151802 -7.789299942e-06 -4.362976123e-05)
(0.008448785058 -1.910557969e-06 -3.046336246e-05)
(0.008394381672 -5.017495766e-06 -1.672805211e-05)
(0.008384536924 -1.044285043e-05 -1.264492794e-06)
(0.008377055876 -2.030657813e-05 -3.492211521e-06)
(0.008401605711 4.775194546e-06 -2.009327122e-05)
(0.008390405322 4.039895064e-06 -2.632432569e-05)
(0.008365064322 1.572052148e-05 -4.631329699e-05)
(0.008401274754 8.068845203e-06 -4.243513619e-05)
(0.008406578598 1.085152836e-05 -3.035184405e-05)
(0.008489178256 2.914846389e-05 -3.346509728e-05)
(0.008499705463 3.999346615e-05 -2.773697507e-05)
(0.008559127251 1.590739195e-05 -1.843418287e-05)
(0.008483661598 1.798025616e-05 -2.3059161e-05)
(0.008472826323 1.358214815e-05 -3.274495987e-06)
(0.008525069345 2.008162627e-06 -6.800477454e-06)
(0.00849601613 1.394012077e-05 -2.720312922e-05)
(0.008507796731 1.489834802e-06 -2.520059504e-05)
(0.006346564296 -2.701422358e-05 -9.675362337e-08)
(0.008320562588 -2.435954954e-05 3.935737454e-06)
(0.008251164081 -2.155849773e-06 2.365867994e-06)
(0.008265093495 -1.05543141e-05 -3.070630617e-06)
(0.008278275945 1.49421158e-07 -1.070067645e-05)
(0.008307510061 9.049654898e-06 -1.251379013e-05)
(0.008292672406 1.267102401e-05 -9.727543991e-06)
(0.008147545101 -4.182731733e-06 -2.040498955e-05)
(0.008222796724 -2.382901888e-06 1.897160422e-06)
(0.008265786208 -1.480837714e-05 1.748714307e-07)
(0.008309549901 -3.247820185e-06 2.65989573e-06)
(0.008311197088 2.751986433e-06 -2.141133262e-05)
(0.008293166744 -1.033273058e-05 -1.104955247e-05)
(0.008252646139 -6.500896556e-06 -3.329558909e-06)
(0.008286610494 2.521681854e-05 1.421566249e-06)
(0.008371303607 1.777520054e-05 7.501687793e-06)
(0.008355641802 1.341660402e-05 -4.407069919e-06)
(0.00828053118 1.12790268e-05 -3.670383197e-06)
(0.008274665247 1.618530063e-05 2.301262707e-06)
(0.008223178085 2.197465387e-06 -7.870919372e-06)
(0.006324628796 8.111662963e-06 5.669054523e-06)
(0.008291110471 6.375642497e-06 1.15582459e-06)
(0.008283501105 -2.908776233e-05 -6.961698977e-06)
(0.008217713052 -1.514154774e-05 2.512736757e-06)
(0.008230798083 -9.297162652e-06 -2.810926651e-07)
(0.008180048684 -3.850165881e-06 9.893178692e-07)
(0.008252660208 1.246029974e-06 -4.552300424e-07)
(0.008371581692 1.430837853e-05 1.12488221e-05)
(0.008379733982 1.490229717e-05 1.895719794e-05)
(0.008369750602 1.147441994e-05 1.259532312e-05)
(0.008303587708 2.029518072e-05 2.825801102e-05)
(0.008272838674 -5.882369936e-07 1.322482958e-05)
(0.00826323122 8.926960268e-07 1.030434535e-05)
(0.008270356786 -2.233730546e-06 -4.150884173e-06)
(0.008281190288 -1.758424072e-05 -2.313503714e-05)
(0.008313572402 -1.380548898e-05 -2.043957029e-05)
(0.008281798018 -3.155931358e-06 -1.761710981e-05)
(0.008281404762 1.315765925e-05 -2.559380727e-05)
(0.008346900401 1.207282305e-05 -2.160046301e-05)
(0.008357591926 3.626556465e-05 -1.494400433e-05)
(0.00777632011 0.001744325302 -9.15280194e-05)
(0.008074915857 0.002316704669 -5.32989039e-05)
(0.007990987943 0.002274524005 -8.657212033e-05)
(0.007700506401 0.002194583909 1.61495314e-05)
(0.007372882804 0.002168308254 5.532327322e-05)
(0.007079254903 0.002075381926 1.994615261e-05)
(0.006678487647 0.001857185821 -2.873723811e-05)
(0.006315241048 0.001875437351 -0.0001311283813)
(0.006027113512 0.001675232771 -8.980980702e-05)
(0.005852773761 0.001731401026 1.533501562e-05)
(0.008433137442 0.001281754577 -9.18728965e-05)
(0.00899135396 0.002071762765 -7.431697355e-05)
(0.009477125278 0.002538944104 3.947537683e-05)
(0.009824265815 0.002837743298 -3.640910377e-05)
(0.009946263612 0.002960499129 -4.848650194e-05)
(0.009784179964 0.003018806943 -8.510401032e-05)
(0.009581650539 0.003006402326 -6.696676793e-05)
(0.009318945217 0.002897191814 -0.0001507700185)
(0.009110922739 0.002757302376 -5.453471259e-05)
(0.008707240261 0.0026644465 -1.758598752e-05)
(0.008394980665 0.0009173600587 -4.858367475e-06)
(0.00888523134 0.001509334616 -0.000100858665)
(0.00945142462 0.00201224891 -1.617618029e-05)
(0.009914188499 0.002491331741 -0.000100289412)
(0.01024966679 0.002898554196 -9.00497932e-05)
(0.01062518417 0.003206345426 -6.534223018e-05)
(0.01072324794 0.003358849641 -6.774434001e-05)
(0.01085916984 0.003413182917 -7.417085352e-05)
(0.01073742002 0.003385903743 -6.522981811e-05)
(0.01049459383 0.003397927699 4.289606555e-06)
(0.008531907938 0.0006302096786 2.774078382e-05)
(0.008778655912 0.001073490319 1.847628525e-05)
(0.009059822048 0.001520104343 1.149894545e-05)
(0.009451454996 0.001970381913 2.475127776e-05)
(0.009882368572 0.002385869607 6.133047553e-05)
(0.01050105854 0.002762941633 -4.78391378e-05)
(0.01101512213 0.003204702584 1.355197473e-05)
(0.01130571688 0.003391045842 -8.015793649e-05)
(0.01142118812 0.003578713922 -6.579685948e-05)
(0.01146835409 0.003645908077 -4.411509601e-05)
(0.00839454627 0.0004703192258 -2.259733121e-05)
(0.008613403226 0.0007702489233 1.352331909e-05)
(0.008973546188 0.001101445732 1.605172964e-05)
(0.009448640503 0.001501160546 -3.819194836e-07)
(0.009860568765 0.001826698812 2.093631884e-05)
(0.0101680728 0.002229797563 5.598183189e-05)
(0.01052922587 0.002682295524 2.930602057e-05)
(0.010910275 0.003011355939 3.620775896e-05)
(0.01134183805 0.003413462649 -3.000287607e-06)
(0.01174750671 0.003562635028 4.465634211e-05)
(0.008406769118 0.0003267370451 -1.864017556e-05)
(0.008560311124 0.0005135304026 -1.624836629e-05)
(0.008846381143 0.0008075268833 3.886062806e-05)
(0.009034621099 0.001088218251 4.458291142e-06)
(0.009290978325 0.001448320909 1.549789636e-06)
(0.009692781995 0.001734747171 -5.076190933e-06)
(0.01016833412 0.002178097719 -2.812571187e-05)
(0.01061360448 0.002536366476 2.509551096e-05)
(0.0109807243 0.002868806087 8.11995424e-05)
(0.01146628566 0.003146844468 6.281456053e-06)
(0.008439774429 0.0002268812862 -5.249410495e-06)
(0.008544193116 0.0003718191351 -6.873315421e-06)
(0.008632131308 0.0005385401915 -3.318542657e-05)
(0.008855056251 0.0008280463416 -2.267876297e-05)
(0.009112978202 0.001043222509 -2.785770303e-05)
(0.009487465154 0.00134751179 -5.58462667e-05)
(0.009833981926 0.001635981438 -6.672655674e-05)
(0.01028079854 0.002065744296 -4.614665232e-05)
(0.01080977751 0.002395816279 2.977267069e-07)
(0.01120510435 0.002730262512 6.282852881e-06)
(0.008434607689 0.000178128808 -1.819016669e-05)
(0.008421618603 0.000291489078 -3.192092275e-05)
(0.008533924908 0.0003788290457 3.27245025e-06)
(0.008681311948 0.0005650079939 -1.049694262e-05)
(0.008895460083 0.0007434516699 1.606007611e-05)
(0.009107103786 0.0009972418015 1.819402743e-05)
(0.009512687694 0.00121983202 -5.956328457e-06)
(0.009746392041 0.001512865674 -2.614423975e-05)
(0.01004569132 0.001847936327 -3.873853605e-05)
(0.01051942452 0.002180836514 3.764334865e-05)
(0.008368846195 0.0001521010502 -9.804685121e-06)
(0.008497243178 0.0001983789652 8.215434731e-06)
(0.008579954449 0.0002854901312 -3.011224609e-06)
(0.008647393392 0.0003897407026 4.280317411e-06)
(0.008775994418 0.0005556087963 3.467126682e-05)
(0.008926524896 0.0007192430955 5.383721459e-05)
(0.009000709585 0.0009119591349 1.803990195e-05)
(0.009376032716 0.001157927333 -2.124454901e-05)
(0.009774354893 0.001386742201 -2.228280458e-05)
(0.01009472438 0.001646904333 -4.585925185e-05)
(0.00839854313 7.720020864e-05 2.251509005e-05)
(0.008391690396 0.0001567859981 1.509449817e-06)
(0.008417313813 0.0002144843472 7.520765301e-06)
(0.008421201044 0.0002715212333 -5.31669968e-06)
(0.008518134418 0.0003731340958 -1.299373422e-06)
(0.008768485934 0.0005245088454 -1.047913181e-05)
(0.008997984208 0.0006582141088 -3.034835578e-05)
(0.009179948922 0.0008072352078 -8.976768617e-06)
(0.009310280761 0.001062351032 -3.547632187e-06)
(0.00958975414 0.001258090139 -1.52856643e-05)
(0.0084236814 7.140990015e-05 1.9036566e-06)
(0.008450420497 0.0001339531916 1.441190159e-05)
(0.008619353427 0.0001676196866 -2.451752778e-05)
(0.008689765945 0.000239183703 -1.687835256e-05)
(0.00875972279 0.0002890335816 -1.898837172e-05)
(0.008706372895 0.0003865836967 -1.573867784e-05)
(0.008774927831 0.0005238722869 1.942032229e-05)
(0.008924380587 0.0006438960551 1.960342427e-05)
(0.009124351479 0.0008129784974 4.724961371e-05)
(0.009382174853 0.0009763249514 3.693796695e-05)
(0.008358272155 3.931964073e-05 -4.749602556e-06)
(0.008341002211 6.439910496e-05 1.453819369e-05)
(0.008314165959 8.917516746e-05 9.506942841e-06)
(0.008285013454 0.0001539378413 2.559935331e-05)
(0.008389716132 0.0001983989298 2.11218268e-05)
(0.008496195403 0.0002694134163 1.405674757e-05)
(0.008563813573 0.0003691969593 1.49104948e-05)
(0.008666987979 0.0004739372963 -9.927733264e-06)
(0.008789330198 0.0005722673655 -1.007932398e-05)
(0.009005558502 0.0006969986448 -1.022239537e-05)
(0.008365166278 5.098816565e-05 1.434977376e-06)
(0.008382257165 8.208297015e-05 1.002104558e-05)
(0.008402893943 0.0001102925914 1.585319619e-05)
(0.008427378525 0.0001180500753 1.976570437e-08)
(0.008379169135 0.0001718004021 -1.466742601e-05)
(0.008437932264 0.0002297222162 -2.602657005e-05)
(0.008609098232 0.000243996138 -1.989682623e-05)
(0.008675056162 0.0003195413888 -2.399130152e-05)
(0.008708590873 0.0004233751836 -2.612019123e-05)
(0.008923117277 0.0005335213001 -2.653208718e-05)
(0.008282514067 1.376355993e-05 -1.338848833e-05)
(0.008271240416 2.030941002e-05 -2.141803337e-05)
(0.008269432534 6.712801303e-05 -2.82504886e-05)
(0.008296305493 9.111987913e-05 -8.648153229e-06)
(0.008329177238 0.0001075010241 -3.37643528e-05)
(0.008345361742 0.0001425501229 -3.151427179e-05)
(0.008339482745 0.0001672814687 -2.111975941e-05)
(0.008470657346 0.0002303352773 -2.440416741e-05)
(0.008563891316 0.0002911732347 -3.620045697e-05)
(0.008637321923 0.0003647436059 -9.62439675e-06)
(0.008187115142 2.49557966e-05 -1.182615471e-05)
(0.008183654848 3.99921845e-05 -2.365430306e-05)
(0.008260114012 3.976871815e-05 -1.804295677e-05)
(0.00836418142 3.903929169e-05 -1.866154477e-05)
(0.008393384453 7.032883911e-05 -3.584270075e-06)
(0.008526874589 9.137139938e-05 1.213377964e-07)
(0.008542078162 0.0001487150372 -1.25214619e-06)