/*--------------------------------*- C++ -*----------------------------------*\
| =========                 |                                                 |
| \\      /  F ield         | OpenFOAM: The Open Source CFD Toolbox           |
|  \\    /   O peration     | Version:  2406                                  |
|   \\  /    A nd           | Website:  www.openfoam.com                      |
|    \\/     M anipulation  |                                                 |
\*---------------------------------------------------------------------------*/
FoamFile
{
    version     2.0;
    format      ascii;
    arch        "LSB;label=32;scalar=64";
    class       volScalarField;
    location    "0.004";
    object      overallT;
}
// * * * * * * * * * * * * * * * * * * * * * * * * * * * * * * * * * * * * * //

dimensions      [1 2 -2 0 0 0 0];

internalField   nonuniform List<scalar> 
654
(
291.7955992
299.9411769
295.3675806
299.029027
298.6196572
299.4613616
298.9608239
300.4878335
299.3920251
298.1153322
296.1063198
299.2200632
296.3299012
300.5269262
307.9681598
319.764806
347.7091076
404.6572541
556.3635089
965.7768984
293.4696157
302.6878557
299.2449017
299.1477755
300.5544419
302.5911534
302.8638198
303.1764211
302.800304
303.6121984
302.2275108
301.2050819
305.5064635
311.9971729
316.8185806
332.2721265
363.0144546
418.3186567
567.1574308
855.2081796
295.1874038
306.2043567
300.203372
299.2881279
296.4534487
296.6560864
293.873912
295.5537965
295.8628956
297.5132604
296.5779896
296.8930948
300.6920884
307.7046664
316.1295643
330.0096488
348.8910927
404.3953921
535.4405097
696.6591802
291.6419259
301.9932981
297.8904119
297.8511195
297.7650921
296.2788132
297.1494024
298.0235768
299.3415429
296.5910972
298.6616694
299.3468455
302.306884
305.5929894
316.9980456
324.0840518
348.6505412
401.4981425
473.4083491
595.0632613
290.3326294
301.5623293
296.1066284
297.0685993
298.5439771
299.7662999
299.3361622
300.5532519
301.0136905
300.3666585
302.0462933
302.4868808
300.7976663
304.1933192
308.2975459
321.1758715
342.1878721
385.3061405
433.1073239
506.2907007
292.1491389
301.6845054
299.1874937
299.7123748
298.5214569
297.2139113
297.7833358
297.5836453
298.068758
303.0112735
301.0467791
298.6029418
299.1429999
300.0882849
308.4128594
313.4586811
334.5769714
381.5542109
400.5858512
458.7201146
293.4992036
303.2064551
300.3866768
299.4346659
301.7621197
301.9954233
301.0776069
298.6859402
299.3918052
298.2114873
300.1457968
299.344916
300.0724984
301.146229
302.6685056
309.929926
333.4509345
339.9459121
371.9101174
408.2411176
292.6268398
302.3786289
299.0412566
302.508887
296.8836078
299.5110388
301.0173426
301.8200591
302.4655601
300.8151858
297.9785919
299.7107933
298.9976017
300.4866628
308.225043
312.8400308
317.9989685
328.5916954
349.8385681
365.5284141
298.4436437
309.2831165
302.6685003
302.2502491
303.6584893
301.6660774
300.6510182
300.7246107
301.9213533
303.2506789
303.4530338
303.7048196
303.9626913
307.0140863
305.0349042
310.4868958
314.9143331
324.3968675
335.914386
350.3740978
295.9297028
303.0026177
298.3753904
298.4670681
299.1727597
301.3527501
300.926959
300.1616547
300.4177023
301.7659917
302.3910367
303.9500743
309.0818656
308.2133466
307.5526996
309.8628193
311.2366839
314.164223
327.6657621
346.5152661
293.5078264
302.2975692
301.571544
300.1735412
300.9300565
300.1006033
299.6870811
300.9590351
299.875941
300.1357018
300.3855223
297.5179151
300.2058685
300.1790019
304.1288974
304.1542408
308.469269
306.2078303
315.8357564
330.0731321
295.4812901
305.3377361
299.3582381
299.7563483
299.6216356
299.3944953
299.6598603
299.8700286
303.6723424
302.7730151
302.8685093
303.0851621
303.1699253
303.9659308
303.1087634
304.4354996
307.4169468
307.8581793
309.1893271
326.8917091
294.3790914
304.6295399
298.5895655
297.9941923
296.9214362
297.9555969
300.2569776
300.2232415
298.2302951
298.2239994
298.4855888
299.4017697
300.079247
301.6313941
302.3997865
301.238557
304.2282635
309.0909149
311.4853647
310.9961262
293.0930684
301.6117224
300.4448217
302.7502197
302.8134514
304.0390514
301.1448773
300.6336855
299.0480768
298.5912676
302.6974547
300.1669809
299.8361222
298.9170901
301.0310444
300.7152852
300.4082449
304.3645977
309.2628789
312.3840945
296.1732823
307.878129
303.1932037
300.5364401
300.7799083
299.5995105
298.622701
299.0836777
299.4317901
300.4106683
299.1765941
299.0858163
297.9048979
296.8199768
298.2203274
298.5700472
301.1814543
303.4767995
304.3386965
307.8443007
294.4791543
302.7816004
299.3053762
298.8623838
298.2043412
298.450756
301.3057409
301.0555218
300.3074905
301.2098637
301.4209496
300.9190206
300.7409403
301.4224913
300.459849
300.6524632
301.7592815
301.3520416
304.1147502
309.0366737
294.8655933
304.5910769
299.27923
300.4776713
300.5983141
300.3138141
299.6460336
299.8731867
300.5735187
300.1604579
299.8694752
300.2647809
299.5510924
300.6247598
300.8591729
301.3280349
300.82749
303.4159747
302.6843264
308.6311287
296.554385
303.0233614
300.6166961
299.4024402
300.8228408
302.4516614
301.1423331
299.9426783
299.5003508
297.5246317
298.9373731
297.7209011
298.6911484
299.7877428
300.0581155
299.0439671
298.0030649
298.8043177
298.7166851
300.6826773
289.8064224
299.6737845
295.8839027
296.8870872
297.4080283
298.5154645
300.26961
299.4641684
300.741568
301.9710426
301.3339797
301.3360935
299.4568697
296.5828424
298.2473375
300.7835013
301.5393118
299.8327252
300.5691089
298.7591307
294.0293295
304.8220006
301.2375674
299.9408479
299.3111544
298.0829845
298.410492
298.0613733
296.9746785
294.5693903
296.1396694
298.0868727
300.8279688
301.2308398
302.2097569
302.1629415
300.0673162
300.8978875
302.3748116
302.7175573
295.5932682
304.9300033
299.4394066
299.0904674
300.619142
299.7108902
298.8482883
299.0260111
300.4300677
302.6380473
302.1902806
303.6972176
300.8754826
299.8303696
299.5514436
301.4875889
303.7152074
303.7376197
301.7667357
303.0947864
295.6241552
304.6239125
299.7253227
299.6678347
297.5985264
298.8439203
298.041294
299.4837107
299.2890335
298.6326743
298.5779087
297.7008945
298.5361284
300.9890431
303.398149
299.7400912
298.160521
299.9900736
300.0770259
301.5384368
1056.444105
988.8958117
960.9325117
929.2291989
917.0584937
899.4171029
890.0926049
868.2514121
866.590897
852.3643855
1004.249056
1008.143483
989.4155106
977.4505406
968.5938773
959.4535782
957.5733338
947.5955578
940.6968513
932.7262191
860.9725571
908.6266262
927.0099554
939.6424038
940.8201334
950.0780806
944.9389356
943.1122309
937.6324061
924.7735478
716.5675829
800.4648363
838.9401498
884.0911336
893.4347134
891.7538394
906.9182116
897.6667552
900.3979648
907.3692046
609.9514228
693.728288
747.9503013
801.3099482
819.2816317
836.0169602
865.7531996
860.8511239
869.2121717
867.9807378
527.5317793
604.5246564
669.483899
706.1969152
745.3382779
770.8364284
808.3239202
823.9137341
839.3562496
841.9802078
459.974504
523.9289581
559.993193
628.727075
657.2978289
699.8457316
720.8061241
757.0703978
774.5114626
792.537779
411.0161336
468.3343819
488.3990384
556.0880591
583.9318298
626.1169496
658.9537415
699.1956957
728.0301808
735.2176907
396.3991685
421.5556211
443.8940824
484.2896089
519.3826133
566.5031781
598.1351829
631.8167385
668.6647685
684.8856493
366.369417
386.9990887
413.0143969
441.386475
457.0878059
505.5787556
535.3062766
565.6799611
604.4877648
626.9669832
345.0195474
375.4750835
390.0824014
404.696257
424.4133134
465.2349477
490.8578121
516.7880322
544.1231959
561.7836692
328.9095021
354.3196412
362.9945889
384.7626143
397.368017
417.3484251
438.0867392
461.2199044
487.8950801
508.9970626
325.743835
335.7801428
350.9728677
353.1602105
366.7560663
392.0793778
405.9930942
418.9746982
440.2664522
466.2128249
320.4023038
330.0427759
336.9766079
341.3644783
353.1652172
364.0177248
382.8210794
396.4615448
422.8806546
427.0626561
317.1747178
316.7837624
321.5747745
326.5474459
342.6159121
347.9205689
358.7906672
373.6612245
390.6332565
398.1480926
306.4656592
314.7312598
318.7713914
321.23187
331.5618566
338.206814
342.676096
353.6080962
372.3578445
380.1070639
309.3596708
311.6827543
315.4875812
314.923519
311.8618024
324.6934064
330.6259405
333.7499249
347.9694321
360.1188424
307.2847393
306.8926011
307.8549203
308.1109385
311.5635479
315.8268597
321.8852487
321.6839666
331.0533755
341.5605362
300.9176374
304.6862863
307.5086574
310.0123616
308.8538768
311.3570695
315.3752434
321.9916994
323.7385498
334.2486109
304.2775261
304.1456553
304.1026767
304.6806642
307.0051875
310.3447224
314.6699725
316.0971889
323.236118
324.3699534
302.8576223
301.5921928
304.6998716
302.7806027
305.9297628
306.3802693
311.4780122
312.9065884
320.032573
322.017672
299.3945007
298.1345438
301.2139157
302.8323689
)
;

boundaryField
{
    flow
    {
        type            calculated;
        value           nonuniform List<scalar> 
42
(
291.7955992
293.4696157
295.1874038
291.6419259
290.3326294
292.1491389
293.4992036
292.6268398
298.4436437
295.9297028
293.5078264
295.4812901
294.3790914
293.0930684
296.1732823
294.4791543
294.8655933
296.554385
289.8064224
294.0293295
295.5932682
295.6241552
291.7955992
299.9411769
295.3675806
299.029027
298.6196572
299.4613616
298.9608239
300.4878335
299.3920251
298.1153322
296.1063198
299.2200632
296.3299012
300.5269262
307.9681598
319.764806
347.7091076
404.6572541
556.3635089
965.7768984
)
;
    }
    obstacle
    {
        type            calculated;
        value           nonuniform List<scalar> 10(924.5572235 881.9476099 816.6872414 808.0729623 780.1112295 755.8610258 782.5679054 752.3541747 733.8525443 742.7052574);
    }
    frontAndBack
    {
        type            empty;
    }
    procBoundary0to1
    {
        type            processor;
        value           nonuniform List<scalar> 
21
(
841.3813833
918.4099216
920.1155551
904.366606
874.730586
840.5751938
808.5412241
760.391495
709.6028938
655.8034787
592.3779103
545.5076455
486.7687389
447.9865548
410.4782262
393.4518772
369.6881371
354.1868632
341.8244953
331.937455
327.5327122
)
;
    }
    procBoundary0to2
    {
        type            processor;
        value           nonuniform List<scalar> 
31
(
290.0782902
301.2319252
298.8292695
299.7995691
299.465826
298.2413591
299.0086712
299.7789102
300.7294366
298.6016892
300.1337725
299.3950671
299.5884225
298.0235377
297.611616
297.6485161
297.1801983
297.4951419
298.0725439
299.7566235
305.1719441
307.5634453
303.8091954
306.9150231
307.3318915
311.7759386
299.7696303
303.2758827
301.2980238
305.1719441
300.7905611
)
;
    }
}


// ************************************************************************* //
