/*--------------------------------*- C++ -*----------------------------------*\
| =========                 |                                                 |
| \\      /  F ield         | OpenFOAM: The Open Source CFD Toolbox           |
|  \\    /   O peration     | Version:  2406                                  |
|   \\  /    A nd           | Website:  www.openfoam.com                      |
|    \\/     M anipulation  |                                                 |
\*---------------------------------------------------------------------------*/
FoamFile
{
    version     2.0;
    format      ascii;
    arch        "LSB;label=32;scalar=64";
    class       volScalarField;
    location    "0.004";
    object      p;
}
// * * * * * * * * * * * * * * * * * * * * * * * * * * * * * * * * * * * * * //

dimensions      [1 -1 -2 0 0 0 0];

internalField   nonuniform List<scalar> 
654
(
0.3008315506
0.4052820625
0.3971931321
0.4059269295
0.4069350192
0.4099102382
0.4081035829
0.412629791
0.4109645523
0.4067526599
0.4013797299
0.4067233457
0.3993628221
0.4086279432
0.4240241255
0.4544325172
0.513587521
0.6547398424
1.032149409
2.501982283
0.3056663628
0.4165822931
0.4148223813
0.4143651174
0.4135167358
0.4195261475
0.4201342957
0.4195141564
0.4198958678
0.4194816124
0.4163795608
0.4158013183
0.4282980903
0.4441580339
0.4564737934
0.4948577269
0.5681667417
0.7058445039
1.109347618
2.061400279
0.313403253
0.4301046564
0.4179899415
0.4191152012
0.4128167167
0.4142496193
0.4118991943
0.4130997399
0.4159291412
0.415512591
0.4141019144
0.4143014818
0.4237771946
0.440615909
0.4571535055
0.4879867956
0.5319940273
0.6644727181
0.9897766534
1.467442728
0.3097602413
0.4183971298
0.4081359148
0.4086861295
0.4024963394
0.4003546532
0.4027157347
0.4041811169
0.4063293081
0.4076610728
0.4148066104
0.4157532269
0.4238080147
0.4258137758
0.4518778711
0.4637697842
0.5197654146
0.6531098006
0.8342084001
1.175390928
0.3075644554
0.4175392873
0.4063296595
0.4062869399
0.4130443958
0.4159136439
0.4155072484
0.4134308583
0.4133882203
0.4099443901
0.4079602013
0.4092930941
0.4088973895
0.4166185268
0.4288164344
0.4655272499
0.5194682708
0.6213694026
0.7320765977
0.917466083
0.310345463
0.4191310664
0.4161620181
0.4150696886
0.4107641071
0.4091254521
0.4056173848
0.4094890759
0.4124987376
0.4228240148
0.4197836154
0.4127094071
0.4095904384
0.4116738991
0.4333540027
0.4377729345
0.4838595789
0.5900615499
0.6467797878
0.7941588497
0.3071406543
0.4168447371
0.4137468884
0.4136300633
0.421895699
0.4238248643
0.4210421884
0.414715185
0.4165947813
0.4149133998
0.4162875364
0.4192016873
0.420012036
0.4194182572
0.4208379148
0.4360677073
0.4965862069
0.5102100854
0.5912855681
0.680083531
0.3062578466
0.4156090917
0.4116600335
0.4210911027
0.4091441069
0.4129031774
0.4217063569
0.4263624583
0.4267593642
0.4194788804
0.4127714964
0.410437523
0.4114376046
0.4151420218
0.4355709381
0.4496398961
0.4584196301
0.4811206508
0.5245073948
0.5653913258
0.3124505893
0.430729896
0.4171574036
0.414950721
0.4170230481
0.4132853871
0.4156117368
0.416794862
0.4143844356
0.4188405554
0.4271579803
0.4275073609
0.4228151152
0.4310196758
0.4203582189
0.4305568301
0.4447553117
0.4686423017
0.4933770052
0.5288771729
0.311574695
0.4125463745
0.4089810514
0.4110397996
0.4129631538
0.4163062208
0.4129039016
0.4097604393
0.4142105103
0.4167631586
0.4180117847
0.4221486276
0.4339587001
0.4315951722
0.4341559596
0.4436904854
0.4453525136
0.4423341687
0.4751180687
0.516516758
0.3109698722
0.4181733116
0.4157050219
0.410412138
0.4114289329
0.4068554678
0.4027403405
0.4078636626
0.4070231006
0.4088905431
0.4128956864
0.4098307464
0.4171069147
0.4163502139
0.4233766766
0.417144497
0.4286933624
0.428389013
0.4539478829
0.4838443184
0.3153540229
0.4244327211
0.4135072798
0.4104785622
0.4127353713
0.4146264342
0.4178986396
0.4173048218
0.4263370108
0.4193429424
0.4165147214
0.410588411
0.4083148631
0.4162502409
0.4184696841
0.4288507626
0.4370414919
0.4332084225
0.4368520514
0.4767274679
0.3134322916
0.4275938244
0.4173577955
0.4147698128
0.4119135858
0.413031129
0.4137345088
0.4110833961
0.4041943731
0.4085896479
0.4155058784
0.4181121912
0.4207013798
0.422108093
0.4201071752
0.4212156928
0.4250550132
0.4382956859
0.4459835636
0.4432514926
0.3111450921
0.4219508727
0.4192117839
0.4230769474
0.4196036033
0.4234014565
0.4157713705
0.41758408
0.4149367076
0.411614749
0.4156400665
0.4119835564
0.4107069687
0.4084160032
0.4130734309
0.4068695254
0.4063076703
0.4160079334
0.4237988219
0.4388923952
0.3119435899
0.4306864711
0.4224588034
0.4150775659
0.4207175204
0.416597334
0.4191473142
0.4173530903
0.4207696545
0.4213815394
0.414351331
0.4139900001
0.4128469012
0.4107798094
0.413274396
0.412126861
0.4207069689
0.4243829532
0.4236854484
0.4252039784
0.3146442062
0.4235124493
0.4146535965
0.4168661139
0.414883359
0.4182707189
0.4229877423
0.4168600972
0.4171341843
0.4151352137
0.4173834714
0.4116509531
0.4063314995
0.4100532788
0.4113277626
0.4139623527
0.4124047798
0.412476447
0.4211294781
0.4252242517
0.3152244866
0.4234563923
0.4141937906
0.4200114965
0.4157627091
0.4176453291
0.4124046182
0.4165765348
0.4183692789
0.4180974521
0.4187296651
0.420563847
0.4206894784
0.4230507616
0.4181164972
0.4234932067
0.4232838727
0.4274372188
0.4226944581
0.4338343985
0.310591835
0.4151945824
0.4126826317
0.4118077565
0.4173309386
0.4182186576
0.4186872904
0.414649243
0.4105228226
0.4074885899
0.411408116
0.4108964664
0.4147441964
0.4162176527
0.4176183836
0.4170630111
0.4197633284
0.4194942515
0.4168250401
0.4243196915
0.3081990833
0.4170970083
0.4095395488
0.4082378699
0.4132140305
0.4172779356
0.4235240364
0.424647233
0.4280334996
0.4310664116
0.4257110907
0.4249697141
0.4156332981
0.41225654
0.4128573265
0.4190222677
0.4168617696
0.4104223638
0.4174111196
0.4110757949
0.3138147957
0.4306268289
0.4269374909
0.4239957893
0.4173987754
0.415334213
0.4163198983
0.4158641397
0.4124712493
0.4101803214
0.4131348308
0.4145817151
0.4245456308
0.4252774227
0.428321198
0.4239428389
0.4188867531
0.423287561
0.4277372183
0.4315592545
0.3111643322
0.4211219377
0.4079354568
0.4106322099
0.4146039319
0.4141131198
0.4094073469
0.4005750542
0.4061971939
0.4118836255
0.4135056626
0.4206785296
0.4141642384
0.4105418085
0.4124892149
0.4204027392
0.4238710315
0.4203966229
0.4155788449
0.4149250153
0.3111659377
0.419969756
0.4096905542
0.4051151231
0.4031529209
0.4014439383
0.4046145946
0.4130148389
0.4169532857
0.4142173416
0.4103277147
0.4077875064
0.4100933984
0.4148455327
0.4209268927
0.4157331429
0.4131287113
0.4171364721
0.4204566165
0.4221438557
4.637208379
4.773268791
4.706464236
4.664193874
4.560675199
4.492200617
4.397483596
4.258044009
4.125955892
4.067374496
3.054283298
3.563369635
3.739934656
3.909715924
4.062563171
4.074846485
4.048801158
4.039019137
4.051609049
3.979525455
2.129754588
2.558528537
2.882825298
3.154767209
3.361453438
3.51486103
3.620901306
3.714424248
3.720294386
3.69455532
1.593604689
1.971965556
2.228979338
2.553761577
2.743714656
2.923464312
3.16015936
3.188254555
3.278346271
3.381967468
1.209905855
1.508098903
1.76983595
2.09225278
2.255100642
2.399228208
2.645589341
2.723732008
2.904454404
3.032277129
0.9730513818
1.208405074
1.459606128
1.604637191
1.796641716
1.973167538
2.220398982
2.405151043
2.569435373
2.685074972
0.7967636414
0.9728002374
1.100334094
1.324437959
1.448015152
1.650730593
1.79090364
2.018104909
2.19198936
2.354750126
0.6813856639
0.8246061835
0.8795547302
1.081818668
1.174936165
1.334079509
1.492549692
1.666519597
1.847790038
1.959968507
0.6367346768
0.7079296642
0.7705351994
0.8763312897
0.9821660224
1.122673946
1.225198128
1.381300262
1.555375813
1.65771427
0.5655893417
0.6149094264
0.6738413687
0.7443130824
0.7927353859
0.9404728421
1.038260121
1.143788928
1.277344841
1.378519122
0.5191512327
0.5879919914
0.6359355544
0.6778088856
0.7297104521
0.8254507146
0.9000808619
0.9945462304
1.08286386
1.15835449
0.4823184514
0.5366713712
0.5507295878
0.6057961257
0.6399839897
0.7005165755
0.7567080202
0.8241531656
0.9075977948
0.9766988984
0.4744804886
0.5026239684
0.5391040593
0.53807349
0.5700478463
0.6333279268
0.6741816008
0.7116703625
0.7713991545
0.8545731593
0.4559206733
0.4787233432
0.4928254522
0.5031715025
0.5301291958
0.5608481883
0.5987300454
0.6400960745
0.7094970577
0.726895834
0.4439427623
0.4445912086
0.4580583204
0.4756943814
0.5095025098
0.5293559625
0.5549769227
0.5937087548
0.6338851769
0.6554211229
0.4295682772
0.4506760457
0.4590180881
0.466153338
0.4897729972
0.4984384151
0.5152211378
0.5383871706
0.5892452702
0.6053793258
0.4329960906
0.4420792829
0.4450572892
0.4451168318
0.4367646229
0.4650693755
0.4855930293
0.4896285963
0.5181669058
0.5596736271
0.4333403805
0.4279006833
0.4281027767
0.4332527385
0.447252988
0.4543485224
0.4663706607
0.4655251502
0.4856287419
0.5107878817
0.4183367317
0.4340519748
0.439056223
0.4457056834
0.4387120225
0.4436365518
0.4540603034
0.4666819306
0.4677692628
0.4971899755
0.4280576018
0.4272546854
0.4274716892
0.4251482974
0.4312357349
0.4380105318
0.4496421166
0.4591174512
0.4709072276
0.4699906363
0.4152297798
0.41408897
0.4188278232
0.4166135409
0.4248068102
0.4270423985
0.4326695933
0.4362416736
0.4557361626
0.4593454978
0.415442084
0.4123307684
0.4152181226
0.4189609923
)
;

boundaryField
{
    flow
    {
        type            calculated;
        value           nonuniform List<scalar> 
42
(
0.3008315506
0.3056663628
0.313403253
0.3097602413
0.3075644554
0.310345463
0.3071406543
0.3062578466
0.3124505893
0.311574695
0.3109698722
0.3153540229
0.3134322916
0.3111450921
0.3119435899
0.3146442062
0.3152244866
0.310591835
0.3081990833
0.3138147957
0.3111643322
0.3111659377
0.3008315506
0.4052820625
0.3971931321
0.4059269295
0.4069350192
0.4099102382
0.4081035829
0.412629791
0.4109645523
0.4067526599
0.4013797299
0.4067233457
0.3993628221
0.4086279432
0.4240241255
0.4544325172
0.513587521
0.6547398424
1.032149409
2.501982283
)
;
    }
    obstacle
    {
        type            calculated;
        value           nonuniform List<scalar> 10(3.664026784 3.702943915 3.636289789 3.463200831 3.559642971 3.49255955 3.392297394 3.469192665 3.313886017 3.381970696);
    }
    frontAndBack
    {
        type            empty;
    }
    procBoundary0to1
    {
        type            processor;
        value           nonuniform List<scalar> 
21
(
3.939557826
3.877191761
3.622785729
3.384350966
3.1017923
2.790524537
2.487052332
2.15409793
1.819574196
1.521631017
1.276278022
1.100916552
0.9102277758
0.7843704472
0.6981135461
0.6305570142
0.5831025926
0.5441510299
0.51140056
0.4898077169
0.4715302829
)
;
    }
    procBoundary0to2
    {
        type            processor;
        value           nonuniform List<scalar> 
31
(
0.3014905833
0.4112598712
0.4130732308
0.4123192857
0.4117617742
0.406987155
0.4096509736
0.409251687
0.4088494986
0.408640456
0.4154012688
0.4196752525
0.4182581204
0.4132915157
0.4120548593
0.408498498
0.4107923892
0.4084529463
0.4057712736
0.4088548076
0.4228478887
0.4285774395
0.4197783506
0.4304122801
0.4359654476
0.4497943486
0.4125682002
0.4218178413
0.4225782479
0.4228478887
0.4179446991
)
;
    }
}


// ************************************************************************* //
