/*--------------------------------*- C++ -*----------------------------------*\
| =========                 |                                                 |
| \\      /  F ield         | OpenFOAM: The Open Source CFD Toolbox           |
|  \\    /   O peration     | Version:  2406                                  |
|   \\  /    A nd           | Website:  www.openfoam.com                      |
|    \\/     M anipulation  |                                                 |
\*---------------------------------------------------------------------------*/
FoamFile
{
    version     2.0;
    format      ascii;
    arch        "LSB;label=32;scalar=64";
    class       volScalarField;
    location    "0.004";
    object      rhoMMean;
}
// * * * * * * * * * * * * * * * * * * * * * * * * * * * * * * * * * * * * * //

dimensions      [1 -3 0 0 0 0 0];

internalField   nonuniform List<scalar> 
654
(
3.645610812e-06
4.70127207e-06
4.733959006e-06
4.743599557e-06
4.74999823e-06
4.769224553e-06
4.751106279e-06
4.759304074e-06
4.752632971e-06
4.720152024e-06
4.714131691e-06
4.731707604e-06
4.702241405e-06
4.715008446e-06
4.733646274e-06
4.768821739e-06
4.780683387e-06
4.861884663e-06
5.094291775e-06
6.553004959e-06
3.686209784e-06
4.760648417e-06
4.811417491e-06
4.784896266e-06
4.780016787e-06
4.825320387e-06
4.806548843e-06
4.796588062e-06
4.81667781e-06
4.827677699e-06
4.815851355e-06
4.811321578e-06
4.839683894e-06
4.856769724e-06
4.847945631e-06
4.885220454e-06
4.954808039e-06
5.08319514e-06
5.397301108e-06
6.270928491e-06
3.73760099e-06
4.83524753e-06
4.863393026e-06
4.868310308e-06
4.841369607e-06
4.848905801e-06
4.869035851e-06
4.852675564e-06
4.85973084e-06
4.830927908e-06
4.829474322e-06
4.83193088e-06
4.835142453e-06
4.858204148e-06
4.88687503e-06
4.891087076e-06
4.887597241e-06
4.992215745e-06
5.184867003e-06
5.673842328e-06
3.751955332e-06
4.763559754e-06
4.786003482e-06
4.780601117e-06
4.730560086e-06
4.713818959e-06
4.734916678e-06
4.736058364e-06
4.734950315e-06
4.770981707e-06
4.794811746e-06
4.814763613e-06
4.847999575e-06
4.800790943e-06
4.809190562e-06
4.791351383e-06
4.818260946e-06
4.931970974e-06
5.116553987e-06
5.466153152e-06
3.722209205e-06
4.777314771e-06
4.755487344e-06
4.762749441e-06
4.793985291e-06
4.799802134e-06
4.797613008e-06
4.768594089e-06
4.755040063e-06
4.744284798e-06
4.71852442e-06
4.720046946e-06
4.759060282e-06
4.769955928e-06
4.810110951e-06
4.894540462e-06
4.947111157e-06
5.008974367e-06
5.084403267e-06
5.237686489e-06
3.725292061e-06
4.766082754e-06
4.809940265e-06
4.782235386e-06
4.757266992e-06
4.787118197e-06
4.735964951e-06
4.775252383e-06
4.795029399e-06
4.819002318e-06
4.827791941e-06
4.802187252e-06
4.75650198e-06
4.761237745e-06
4.784102615e-06
4.742800074e-06
4.769048869e-06
4.857237312e-06
4.948105798e-06
5.076901544e-06
3.729923582e-06
4.780950819e-06
4.820376133e-06
4.808789414e-06
4.846450076e-06
4.847657371e-06
4.846483714e-06
4.820476211e-06
4.844716562e-06
4.825417133e-06
4.808612064e-06
4.833413105e-06
4.847117509e-06
4.822662005e-06
4.828569762e-06
4.81321578e-06
4.884047629e-06
4.868481827e-06
4.954452505e-06
5.060562398e-06
3.718619291e-06
4.782331298e-06
4.814698004e-06
4.847379109e-06
4.82088319e-06
4.821543125e-06
4.885969637e-06
4.899777453e-06
4.903717068e-06
4.859863722e-06
4.816667812e-06
4.769980401e-06
4.800518513e-06
4.810099287e-06
4.837424993e-06
4.886920331e-06
4.88332042e-06
4.887643375e-06
4.918019966e-06
4.94077226e-06
3.715916442e-06
4.825978655e-06
4.834934798e-06
4.793372323e-06
4.770853823e-06
4.746433622e-06
4.782580089e-06
4.791115922e-06
4.760276742e-06
4.78293479e-06
4.871607484e-06
4.86344166e-06
4.819584148e-06
4.807862881e-06
4.745330572e-06
4.753123054e-06
4.797536256e-06
4.858195504e-06
4.848745946e-06
4.90584142e-06
3.713462384e-06
4.711097469e-06
4.766819128e-06
4.803233026e-06
4.823262164e-06
4.835164114e-06
4.809253358e-06
4.794803103e-06
4.803988874e-06
4.806621116e-06
4.797939903e-06
4.808220081e-06
4.841316496e-06
4.852345024e-06
4.868253864e-06
4.904112071e-06
4.893634235e-06
4.811249305e-06
4.861162452e-06
4.881082348e-06
3.739956636e-06
4.784440654e-06
4.803189391e-06
4.761444567e-06
4.755046728e-06
4.726415314e-06
4.692314261e-06
4.700852594e-06
4.730916453e-06
4.738720078e-06
4.756021061e-06
4.774138502e-06
4.795340465e-06
4.7725537e-06
4.754317019e-06
4.70486115e-06
4.744119111e-06
4.801355798e-06
4.857513075e-06
4.856790031e-06
3.726710343e-06
4.779951179e-06
4.804355551e-06
4.79442924e-06
4.833130677e-06
4.851040463e-06
4.874660347e-06
4.857094432e-06
4.87584067e-06
4.80997057e-06
4.789002401e-06
4.734292879e-06
4.706066779e-06
4.770602533e-06
4.804848133e-06
4.840615426e-06
4.856279641e-06
4.815050206e-06
4.814227083e-06
4.873572293e-06
3.727604905e-06
4.79116039e-06
4.821903658e-06
4.79855787e-06
4.770297299e-06
4.757017368e-06
4.741074891e-06
4.731906928e-06
4.706872093e-06
4.751203858e-06
4.80446646e-06
4.824759697e-06
4.841228394e-06
4.826467905e-06
4.787003122e-06
4.821590093e-06
4.81468103e-06
4.859743337e-06
4.876200369e-06
4.850263474e-06
3.724565684e-06
4.809101314e-06
4.826981628e-06
4.84182522e-06
4.835594733e-06
4.836564068e-06
4.809799885e-06
4.822280332e-06
4.808377437e-06
4.780706194e-06
4.750827184e-06
4.763837183e-06
4.76148237e-06
4.772409153e-06
4.778636308e-06
4.738896595e-06
4.713713049e-06
4.73146048e-06
4.701538668e-06
4.78274161e-06
3.680392108e-06
4.778047813e-06
4.8099336e-06
4.787450403e-06
4.807553481e-06
4.813292219e-06
4.83325075e-06
4.841509155e-06
4.855936604e-06
4.860779113e-06
4.827441406e-06
4.815679003e-06
4.840443074e-06
4.810812854e-06
4.806999456e-06
4.761102363e-06
4.79800801e-06
4.788952623e-06
4.774188802e-06
4.750088831e-06
3.751089408e-06
4.809451016e-06
4.806681725e-06
4.815782414e-06
4.788250719e-06
4.819484903e-06
4.824252639e-06
4.77815289e-06
4.782889489e-06
4.745605501e-06
4.755567115e-06
4.718870789e-06
4.664985223e-06
4.686701741e-06
4.727299046e-06
4.770671474e-06
4.760224776e-06
4.732718387e-06
4.776011043e-06
4.757095786e-06
3.743828977e-06
4.771922403e-06
4.786512206e-06
4.82158676e-06
4.786658419e-06
4.804995178e-06
4.765261298e-06
4.807036426e-06
4.815573926e-06
4.840473379e-06
4.868553267e-06
4.867098014e-06
4.885633265e-06
4.900958609e-06
4.837800834e-06
4.832516043e-06
4.842586066e-06
4.853245418e-06
4.82924386e-06
4.833780302e-06
3.711560683e-06
4.764106281e-06
4.799660087e-06
4.800690865e-06
4.813969962e-06
4.80632036e-06
4.835994214e-06
4.824893413e-06
4.801202088e-06
4.774404267e-06
4.783118284e-06
4.806918019e-06
4.828812721e-06
4.837047486e-06
4.829680311e-06
4.837152563e-06
4.891280255e-06
4.862185732e-06
4.843025017e-06
4.858657261e-06
3.745114377e-06
4.794412265e-06
4.826293054e-06
4.798624311e-06
4.825354857e-06
4.852675564e-06
4.841919466e-06
4.857974519e-06
4.867487186e-06
4.873565628e-06
4.854161954e-06
4.839191311e-06
4.771713082e-06
4.780189972e-06
4.755077865e-06
4.777419849e-06
4.755040896e-06
4.754455733e-06
4.788515651e-06
4.786917519e-06
3.713147985e-06
4.816123785e-06
4.882832003e-06
4.864340388e-06
4.830723585e-06
4.830550401e-06
4.823565732e-06
4.84299971e-06
4.840088373e-06
4.832412632e-06
4.851262281e-06
4.846282723e-06
4.896397694e-06
4.9034135e-06
4.938825259e-06
4.884149374e-06
4.879574297e-06
4.904990804e-06
4.900608073e-06
4.909466637e-06
3.711841445e-06
4.764551896e-06
4.750414373e-06
4.754084891e-06
4.767327851e-06
4.783277827e-06
4.766154194e-06
4.682973946e-06
4.71783418e-06
4.741702022e-06
4.769925623e-06
4.778005011e-06
4.775336632e-06
4.751234996e-06
4.771331409e-06
4.824974017e-06
4.815122479e-06
4.775354128e-06
4.767360655e-06
4.743046365e-06
3.69654474e-06
4.735920483e-06
4.756424708e-06
4.710632692e-06
4.718901927e-06
4.692405175e-06
4.748612751e-06
4.807861215e-06
4.825228639e-06
4.824498097e-06
4.785208165e-06
4.772896737e-06
4.764257492e-06
4.774867378e-06
4.780886044e-06
4.792962012e-06
4.779682081e-06
4.780129363e-06
4.813619114e-06
4.817597366e-06
1.154642409e-05
1.33039377e-05
1.380757398e-05
1.449054878e-05
1.465416297e-05
1.493013074e-05
1.496662956e-05
1.502266177e-05
1.462853896e-05
1.484626493e-05
7.928045419e-06
9.502236388e-06
1.045833268e-05
1.132964609e-05
1.208855908e-05
1.2424541e-05
1.271228528e-05
1.296738978e-05
1.317700766e-05
1.31348865e-05
6.55095872e-06
7.554427459e-06
8.493926793e-06
9.356701078e-06
1.015692127e-05
1.076604645e-05
1.13304287e-05
1.186665997e-05
1.206097676e-05
1.229397727e-05
5.995273013e-06
6.62287597e-06
7.219193505e-06
7.960695207e-06
8.6547671e-06
9.417706309e-06
1.018206081e-05
1.056230213e-05
1.088699965e-05
1.131266531e-05
5.542543376e-06
5.981941636e-06
6.49563646e-06
7.173235455e-06
7.679382059e-06
8.130504572e-06
8.783047839e-06
9.250670536e-06
9.904833448e-06
1.047539344e-05
5.295164353e-06
5.599191548e-06
6.000825767e-06
6.297138218e-06
6.704497472e-06
7.203672109e-06
7.849706243e-06
8.421580402e-06
8.900763616e-06
9.465392958e-06
5.164771145e-06
5.362410242e-06
5.545321966e-06
5.886242635e-06
6.186633682e-06
6.615396653e-06
7.015938599e-06
7.57883115e-06
8.144498734e-06
8.659573268e-06
5.057908622e-06
5.177649722e-06
5.274172783e-06
5.54094079e-06
5.740240211e-06
6.024816005e-06
6.440925461e-06
6.802415382e-06
7.237224894e-06
7.694516772e-06
4.988281817e-06
5.103276319e-06
5.218019133e-06
5.347204396e-06
5.507974115e-06
5.710465658e-06
5.857499161e-06
6.23504476e-06
6.632314534e-06
6.975885738e-06
4.942577923e-06
4.972990707e-06
5.027558668e-06
5.087731806e-06
5.190999565e-06
5.453080605e-06
5.674824219e-06
5.858085446e-06
6.055978087e-06
6.322579018e-06
4.92035172e-06
4.991833339e-06
5.111363666e-06
5.182937747e-06
5.260527953e-06
5.308839268e-06
5.407728135e-06
5.608379184e-06
5.80988976e-06
6.036362226e-06
4.859344842e-06
4.891811903e-06
4.882932109e-06
4.915032604e-06
4.998138872e-06
5.102630051e-06
5.200096196e-06
5.332082031e-06
5.472845672e-06
5.634889868e-06
4.86219063e-06
4.906870132e-06
4.946798132e-06
4.957435734e-06
4.958354269e-06
5.042856748e-06
5.167508867e-06
5.210628958e-06
5.283176162e-06
5.472313546e-06
4.80561242e-06
4.819929111e-06
4.834586889e-06
4.854972903e-06
4.890585197e-06
4.918402567e-06
4.943141129e-06
5.032033805e-06
5.144352467e-06
5.204042641e-06
4.740786187e-06
4.752163119e-06
4.781687835e-06
4.86157961e-06
4.88918362e-06
4.968531456e-06
5.004744235e-06
5.061887602e-06
5.099405077e-06
5.142435116e-06
4.845509269e-06
4.900956008e-06
4.868981062e-06
4.864164514e-06
4.896530412e-06
4.879415512e-06
4.922950149e-06
4.954399569e-06
5.045661459e-06
5.058696526e-06
4.807945182e-06
4.830688042e-06
4.811345549e-06
4.814775913e-06
4.74680678e-06
4.802277501e-06
4.859599128e-06
4.866742732e-06
4.868792605e-06
4.989314051e-06
4.835000964e-06
4.793042686e-06
4.783326908e-06
4.811493542e-06
4.891843121e-06
4.877359278e-06
4.869649921e-06
4.868370161e-06
4.882751397e-06
4.94180549e-06
4.79361699e-06
4.876131272e-06
4.893642504e-06
4.915298082e-06
4.873414416e-06
4.8540345e-06
4.874512507e-06
4.866405747e-06
4.851958954e-06
4.922749408e-06
4.858861375e-06
4.844511759e-06
4.827437721e-06
4.793590301e-06
4.810400268e-06
4.830508713e-06
4.875628624e-06
4.936984169e-06
4.901382098e-06
4.887008297e-06
4.755070066e-06
4.755505967e-06
4.770676521e-06
4.780629641e-06
4.79132364e-06
4.779386513e-06
4.760724487e-06
4.757896208e-06
4.819773441e-06
4.808319803e-06
4.805807967e-06
4.777761668e-06
4.762447729e-06
4.782398861e-06
)
;

boundaryField
{
    flow
    {
        type            calculated;
        value           nonuniform List<scalar> 
42
(
3.645610812e-06
3.686209784e-06
3.73760099e-06
3.751955332e-06
3.722209205e-06
3.725292061e-06
3.729923582e-06
3.718619291e-06
3.715916442e-06
3.713462384e-06
3.739956636e-06
3.726710343e-06
3.727604905e-06
3.724565684e-06
3.680392108e-06
3.751089408e-06
3.743828977e-06
3.711560683e-06
3.745114377e-06
3.713147985e-06
3.711841445e-06
3.69654474e-06
3.645610812e-06
4.70127207e-06
4.733959006e-06
4.743599557e-06
4.74999823e-06
4.769224553e-06
4.751106279e-06
4.759304074e-06
4.752632971e-06
4.720152024e-06
4.714131691e-06
4.731707604e-06
4.702241405e-06
4.715008446e-06
4.733646274e-06
4.768821739e-06
4.780683387e-06
4.861884663e-06
5.094291775e-06
6.553004959e-06
)
;
    }
    obstacle
    {
        type            calculated;
        value           nonuniform List<scalar> 10(6.650572606e-24 6.870991583e-24 7.214863916e-24 6.648239702e-24 7.304341257e-24 7.251546502e-24 6.796959198e-24 6.816535063e-24 6.991295434e-24 6.688449796e-24);
    }
    frontAndBack
    {
        type            empty;
    }
    procBoundary0to1
    {
        type            processor;
        value           nonuniform List<scalar> 
21
(
1.465867541e-05
1.310644995e-05
1.23199954e-05
1.149390588e-05
1.073681003e-05
9.969694087e-06
9.084573439e-06
8.263501259e-06
7.423898905e-06
6.689245139e-06
6.285974436e-06
5.897413328e-06
5.561865267e-06
5.312397584e-06
5.261936485e-06
5.058624835e-06
5.030176404e-06
5.009351834e-06
4.93357e-06
4.90781663e-06
4.806754291e-06
)
;
    }
    procBoundary0to2
    {
        type            processor;
        value           nonuniform List<scalar> 
31
(
3.705336028e-06
4.759861431e-06
4.83812773e-06
4.802677335e-06
4.806346186e-06
4.773178331e-06
4.766055782e-06
4.727140025e-06
4.705663965e-06
4.71765683e-06
4.746641277e-06
4.813256915e-06
4.799323715e-06
4.774107364e-06
4.790507953e-06
4.748931316e-06
4.769475843e-06
4.73696709e-06
4.701855566e-06
4.69636062e-06
4.797774488e-06
4.80313242e-06
4.797952652e-06
4.827153573e-06
4.833938518e-06
4.866227317e-06
4.747998968e-06
4.781237168e-06
4.82336094e-06
4.797774488e-06
4.77627207e-06
)
;
    }
}


// ************************************************************************* //
