/*--------------------------------*- C++ -*----------------------------------*\
| =========                 |                                                 |
| \\      /  F ield         | OpenFOAM: The Open Source CFD Toolbox           |
|  \\    /   O peration     | Version:  2406                                  |
|   \\  /    A nd           | Website:  www.openfoam.com                      |
|    \\/     M anipulation  |                                                 |
\*---------------------------------------------------------------------------*/
FoamFile
{
    version     2.0;
    format      ascii;
    arch        "LSB;label=32;scalar=64";
    class       volScalarField;
    location    "0.004";
    object      rhoM;
}
// * * * * * * * * * * * * * * * * * * * * * * * * * * * * * * * * * * * * * //

dimensions      [1 -3 0 0 0 0 0];

internalField   nonuniform List<scalar> 
654
(
4.01188862e-06
3.458697042e-06
4.565080198e-06
5.602522687e-06
6.364202506e-06
7.53952633e-06
4.911449774e-06
4.496139531e-06
4.01188862e-06
4.080829287e-06
3.52763771e-06
8.370146817e-06
5.118271776e-06
3.942947953e-06
6.639965176e-06
3.112327466e-06
4.634020865e-06
5.395700685e-06
4.911449774e-06
3.942947953e-06
3.52763771e-06
5.53358202e-06
5.602522687e-06
4.980390442e-06
2.421254554e-06
4.565080198e-06
7.263763661e-06
3.596578377e-06
3.596578377e-06
6.571024508e-06
4.358258196e-06
4.565080198e-06
3.52763771e-06
4.427198864e-06
6.364202506e-06
5.395700685e-06
4.911449774e-06
6.502083841e-06
4.911449774e-06
7.885895906e-06
2.974446132e-06
5.948892263e-06
4.980390442e-06
2.974446132e-06
2.559135888e-06
5.464641352e-06
4.080829287e-06
4.702961533e-06
3.52763771e-06
4.842509107e-06
5.049331109e-06
2.421254554e-06
3.043386799e-06
2.490195221e-06
5.811010928e-06
8.092717908e-06
6.01783293e-06
5.326760018e-06
7.746348332e-06
6.848453417e-06
4.496139531e-06
4.980390442e-06
3.52763771e-06
6.01783293e-06
7.124216086e-06
2.00594431e-06
5.948892263e-06
4.911449774e-06
4.842509107e-06
6.364202506e-06
5.53358202e-06
3.942947953e-06
6.433143174e-06
6.433143174e-06
2.074884977e-06
3.389756375e-06
6.01783293e-06
4.565080198e-06
5.118271776e-06
5.53358202e-06
2.074884977e-06
4.427198864e-06
3.942947953e-06
5.049331109e-06
6.917394084e-06
2.974446132e-06
6.086773598e-06
1.521693399e-06
5.256153111e-06
2.421254554e-06
4.01188862e-06
6.433143174e-06
5.53358202e-06
4.911449774e-06
4.634020865e-06
9.061219729e-06
1.521693399e-06
5.53358202e-06
5.395700685e-06
1.590634067e-06
4.565080198e-06
5.879951596e-06
4.01188862e-06
4.980390442e-06
5.049331109e-06
3.458697042e-06
5.53358202e-06
7.746348332e-06
6.01783293e-06
5.187212443e-06
1.521693399e-06
4.980390442e-06
3.52763771e-06
2.974446132e-06
6.364202506e-06
3.52763771e-06
7.055275419e-06
5.464641352e-06
6.01783293e-06
4.080829287e-06
3.942947953e-06
3.52763771e-06
5.049331109e-06
2.490195221e-06
6.433143174e-06
6.086773598e-06
1.452752732e-06
4.911449774e-06
6.917394084e-06
6.01783293e-06
4.980390442e-06
2.974446132e-06
2.559135888e-06
4.358258196e-06
4.565080198e-06
5.049331109e-06
4.080829287e-06
6.571024508e-06
4.427198864e-06
3.458697042e-06
2.974446132e-06
4.565080198e-06
4.427198864e-06
3.52763771e-06
5.118271776e-06
6.01783293e-06
3.942947953e-06
8.161658575e-06
3.458697042e-06
3.458697042e-06
6.433143174e-06
5.326760018e-06
6.086773598e-06
3.874007286e-06
4.634020865e-06
5.395700685e-06
3.181268133e-06
2.421254554e-06
5.464641352e-06
7.401644995e-06
4.427198864e-06
4.980390442e-06
6.986334752e-06
4.980390442e-06
3.942947953e-06
5.53358202e-06
4.427198864e-06
4.496139531e-06
6.433143174e-06
2.421254554e-06
2.905505464e-06
5.464641352e-06
5.049331109e-06
3.52763771e-06
6.155714265e-06
5.118271776e-06
6.502083841e-06
4.842509107e-07
2.421254554e-06
4.911449774e-06
3.458697042e-06
6.502083841e-06
2.00594431e-06
4.496139531e-06
5.602522687e-06
3.389756375e-06
6.433143174e-06
4.01188862e-06
4.980390442e-06
6.639965176e-06
2.905505464e-06
4.149769955e-06
2.074884977e-06
6.01783293e-06
2.974446132e-06
4.358258196e-06
5.049331109e-06
3.942947953e-06
7.470585662e-06
5.602522687e-06
2.00594431e-06
5.464641352e-06
9.199101064e-06
4.565080198e-06
3.458697042e-06
4.427198864e-06
6.639965176e-06
4.980390442e-06
5.464641352e-06
2.974446132e-06
5.948892263e-06
5.53358202e-06
3.942947953e-06
4.496139531e-06
6.433143174e-06
3.52763771e-06
6.295261839e-06
9.683351974e-06
1.521693399e-06
4.358258196e-06
5.948892263e-06
3.458697042e-06
4.427198864e-06
4.496139531e-06
3.942947953e-06
3.389756375e-06
4.496139531e-06
5.53358202e-06
5.049331109e-06
5.187212443e-06
4.842509107e-06
3.458697042e-06
6.086773598e-06
3.52763771e-06
5.53358202e-06
5.118271776e-06
4.911449774e-06
2.905505464e-06
2.974446132e-06
4.980390442e-06
3.458697042e-06
4.427198864e-06
5.53358202e-06
4.980390442e-06
5.879951596e-06
6.086773598e-06
3.458697042e-06
3.942947953e-06
4.911449774e-06
4.842509107e-06
2.974446132e-06
4.496139531e-06
2.074884977e-06
2.905505464e-06
7.055275419e-06
8.02377724e-06
5.53358202e-06
3.665519044e-06
1.452752732e-06
7.401644995e-06
4.980390442e-06
4.496139531e-06
4.702961533e-06
6.364202506e-06
4.01188862e-06
2.00594431e-06
3.942947953e-06
5.395700685e-06
5.464641352e-06
5.395700685e-06
5.671463354e-06
3.458697042e-06
6.571024508e-06
4.01188862e-06
5.049331109e-06
4.980390442e-06
3.043386799e-06
3.458697042e-06
6.986334752e-06
1.452752732e-06
5.395700685e-06
4.080829287e-06
5.464641352e-06
4.496139531e-06
7.401644995e-06
3.874007286e-06
6.086773598e-06
7.124216086e-06
5.049331109e-06
5.602522687e-06
4.01188862e-06
5.049331109e-06
3.942947953e-06
5.464641352e-06
4.01188862e-06
5.53358202e-06
4.427198864e-06
2.905505464e-06
4.980390442e-06
3.596578377e-06
3.112327466e-06
4.565080198e-06
7.470585662e-06
2.905505464e-06
5.395700685e-06
6.571024508e-06
3.389756375e-06
6.01783293e-06
4.358258196e-06
2.490195221e-06
4.911449774e-06
4.080829287e-06
2.974446132e-06
3.942947953e-06
2.974446132e-06
5.464641352e-06
6.986334752e-06
5.049331109e-06
5.464641352e-06
3.665519044e-06
2.490195221e-06
5.464641352e-06
3.389756375e-06
2.974446132e-06
3.596578377e-06
4.01188862e-06
4.01188862e-06
4.496139531e-06
2.421254554e-06
6.086773598e-06
6.639965176e-06
4.496139531e-06
5.395700685e-06
3.52763771e-06
5.118271776e-06
4.080829287e-06
3.389756375e-06
3.181268133e-06
6.639965176e-06
4.496139531e-06
4.01188862e-06
4.634020865e-06
5.53358202e-06
4.080829287e-06
4.01188862e-06
2.421254554e-06
5.53358202e-06
4.980390442e-06
3.458697042e-06
5.602522687e-06
3.52763771e-06
5.53358202e-06
6.571024508e-06
8.092717908e-06
3.458697042e-06
6.364202506e-06
5.602522687e-06
4.01188862e-06
5.948892263e-06
2.490195221e-06
3.942947953e-06
5.049331109e-06
4.565080198e-06
4.980390442e-06
6.917394084e-06
7.124216086e-06
5.671463354e-06
3.458697042e-06
2.490195221e-06
5.948892263e-06
5.879951596e-06
5.395700685e-06
6.433143174e-06
4.496139531e-06
3.596578377e-06
4.427198864e-06
5.948892263e-06
3.389756375e-06
5.53358202e-06
3.043386799e-06
3.458697042e-06
4.911449774e-06
6.364202506e-06
6.086773598e-06
5.602522687e-06
3.52763771e-06
4.01188862e-06
8.301206149e-06
3.942947953e-06
4.01188862e-06
3.043386799e-06
4.911449774e-06
3.043386799e-06
3.52763771e-06
4.980390442e-06
3.874007286e-06
3.942947953e-06
6.01783293e-06
3.043386799e-06
7.262097421e-06
4.01188862e-06
4.080829287e-06
8.02377724e-06
9.685018214e-07
5.049331109e-06
5.464641352e-06
2.974446132e-06
4.218710622e-06
5.049331109e-06
4.911449774e-06
5.948892263e-06
5.671463354e-06
2.421254554e-06
4.080829287e-06
7.124216086e-06
5.602522687e-06
5.602522687e-06
3.458697042e-06
3.942947953e-06
4.080829287e-06
4.01188862e-06
1.937003643e-06
4.496139531e-06
5.53358202e-06
5.326760018e-06
4.01188862e-06
3.874007286e-06
4.01188862e-06
3.942947953e-06
3.389756375e-06
4.496139531e-06
7.470585662e-06
5.049331109e-06
3.458697042e-06
1.037442489e-06
5.948892263e-06
5.53358202e-06
6.433143174e-06
6.917394084e-06
5.395700685e-06
1.159237923e-05
1.42579602e-05
1.252786952e-05
9.354181574e-06
1.562863302e-05
1.523598794e-05
1.114634842e-05
1.654792291e-05
5.727761082e-06
1.849133291e-05
5.900803411e-06
1.174175054e-05
1.259801271e-05
1.034644694e-05
1.177568042e-05
1.042112664e-05
1.556264928e-05
9.842265969e-06
1.160188895e-05
1.020664564e-05
6.386771598e-06
6.080699709e-06
4.714851128e-06
1.119744785e-05
1.277491242e-05
1.523598794e-05
6.876073411e-06
1.173665577e-05
6.682682726e-06
8.579550872e-06
7.14948038e-06
9.786195156e-06
8.163734324e-06
5.243855688e-06
8.920240692e-06
8.193639217e-06
6.369341961e-06
1.115363151e-05
1.06469673e-05
9.985497935e-06
5.900803409e-06
1.223106029e-05
7.60089354e-06
7.087121972e-06
7.350264587e-06
8.840049881e-06
1.143665652e-05
7.728144517e-06
8.517573847e-06
8.505834978e-06
4.095300953e-06
6.98965835e-06
6.615498338e-06
9.779682028e-06
8.991368818e-06
9.774715965e-06
8.324126648e-06
6.707413041e-06
1.18946225e-05
9.171059733e-06
8.954982837e-06
6.500348593e-06
6.685641527e-06
7.299018639e-06
6.137648213e-06
5.677896368e-06
6.876073416e-06
7.800803036e-06
9.472495485e-06
3.771982481e-06
7.011110083e-06
3.425168305e-06
4.714851131e-06
9.142284904e-06
6.779520454e-06
6.395938066e-06
7.238522625e-06
6.342364356e-06
8.003521324e-06
6.878740208e-06
4.928867033e-06
6.570009466e-06
6.263087109e-06
5.314487914e-06
7.778752457e-06
7.833752734e-06
4.632724221e-06
3.645218652e-06
6.534547162e-06
7.914326117e-06
4.928867036e-06
7.548628986e-06
7.108195941e-06
6.590989287e-06
8.136112194e-06
8.553525706e-06
6.587508923e-06
4.155584385e-06
6.829049507e-06
6.287231354e-06
4.442898844e-06
7.478968108e-06
5.137405542e-06
3.118060526e-06
5.209544343e-06
4.599968179e-06
2.6057984e-06
4.738608634e-06
7.416285416e-06
5.472793145e-06
5.969988558e-06
2.935858547e-06
4.292296717e-06
6.236121047e-06
5.638032213e-06
6.827455597e-06
5.355879068e-06
7.290437349e-06
4.185603551e-06
8.579550909e-06
4.788824587e-06
3.425168311e-06
6.052657579e-06
6.165488829e-06
4.781056454e-06
6.181044926e-06
7.961677434e-06
5.614023018e-06
6.975416259e-06
4.955000191e-06
7.566263395e-06
7.128980053e-06
6.192943882e-06
4.03969365e-06
8.278368454e-06
4.240081687e-06
3.184670963e-06
3.207511433e-06
5.800944448e-06
9.244775561e-06
3.054179444e-06
7.478968128e-06
5.207548727e-06
4.606458582e-06
3.639568255e-06
5.82115848e-06
4.704865354e-06
5.759340136e-06
5.800944489e-06
3.106757727e-06
4.026115799e-06
5.032419334e-06
6.825927939e-06
3.614193218e-06
5.209544347e-06
4.168450672e-06
4.125992774e-06
3.645218621e-06
4.185603512e-06
7.988042017e-06
7.011110074e-06
4.473448672e-06
1.478092786e-06
3.684825416e-06
4.996159966e-06
5.677896352e-06
3.547120194e-06
4.811267184e-06
4.185603542e-06
7.322817262e-06
4.998052174e-06
5.521729093e-06
3.65931277e-06
6.661621487e-06
5.138416185e-06
3.162153504e-06
6.369341925e-06
4.08292586e-06
5.213708579e-06
6.287231354e-06
5.484020399e-06
3.634150931e-06
3.941580789e-06
4.961326819e-06
5.56690409e-06
4.599968169e-06
7.382804882e-06
5.321632883e-06
4.626472637e-06
5.843154341e-06
2.637396384e-06
7.548629001e-06
1.055538382e-06
6.945857498e-06
5.638032217e-06
4.168450672e-06
7.166381512e-06
7.435754332e-06
3.671551023e-06
5.546509045e-06
5.900803402e-06
4.473448672e-06
3.096471962e-06
5.031959041e-06
2.56920811e-06
6.899086622e-06
4.05385165e-06
6.269705872e-06
5.213708579e-06
4.363491336e-06
3.956930651e-06
6.080699684e-06
4.152010344e-06
4.535826359e-06
)
;

boundaryField
{
    flow
    {
        type            zeroGradient;
    }
    obstacle
    {
        type            calculated;
        value           nonuniform List<scalar> 10(9.763735988e-24 4.646334718e-24 9.854221212e-24 1e-300 4.506670837e-24 1e-300 4.622183616e-24 2.358877074e-23 1e-300 7.380632884e-24);
    }
    frontAndBack
    {
        type            empty;
    }
    procBoundary0to1
    {
        type            processor;
        value           nonuniform List<scalar> 
21
(
1.311216711e-05
1.296365468e-05
1.192047823e-05
1.229355402e-05
1.020720112e-05
1.080304558e-05
1.035571355e-05
7.151927993e-06
7.003415566e-06
8.493924017e-06
7.151927993e-06
5.364394692e-06
5.587163305e-06
2.83070976e-06
5.73747049e-06
5.88598288e-06
5.438650873e-06
4.246962027e-06
4.917062686e-06
5.811726664e-06
4.768550253e-06
)
;
    }
    procBoundary0to2
    {
        type            processor;
        value           nonuniform List<scalar> 
31
(
4.01188862e-06
3.942947953e-06
7.608466997e-06
4.01188862e-06
4.427198864e-06
7.954836573e-06
5.948892263e-06
5.811010928e-06
4.01188862e-06
6.502083841e-06
6.917394084e-06
3.942947953e-06
3.942947953e-06
5.602522687e-06
5.53358202e-06
4.496139531e-06
4.496139531e-06
5.464641352e-06
6.364202506e-06
3.043386799e-06
1.49884799e-06
5.103116739e-06
3.256812085e-06
3.280169953e-06
2.129393466e-06
5.325361345e-06
3.054179423e-06
4.473448702e-06
3.236758332e-06
1.49884799e-06
4.606458551e-06
)
;
    }
}


// ************************************************************************* //
