/*--------------------------------*- C++ -*----------------------------------*\
| =========                 |                                                 |
| \\      /  F ield         | OpenFOAM: The Open Source CFD Toolbox           |
|  \\    /   O peration     | Version:  2406                                  |
|   \\  /    A nd           | Website:  www.openfoam.com                      |
|    \\/     M anipulation  |                                                 |
\*---------------------------------------------------------------------------*/
FoamFile
{
    version     2.0;
    format      ascii;
    arch        "LSB;label=32;scalar=64";
    class       volScalarField;
    location    "0.004";
    object      rhoN;
}
// * * * * * * * * * * * * * * * * * * * * * * * * * * * * * * * * * * * * * //

dimensions      [0 -3 0 0 0 0 0];

internalField   nonuniform List<scalar> 
654
(
8.331198464e+19
7.289798656e+19
9.372598272e+19
1.145539789e+20
1.35381975e+20
1.562099712e+20
1.041399808e+20
9.372598272e+19
8.331198464e+19
8.331198464e+19
7.289798656e+19
1.770379674e+20
1.041399808e+20
8.331198464e+19
1.35381975e+20
6.248398848e+19
9.372598272e+19
1.145539789e+20
1.041399808e+20
8.331198464e+19
7.289798656e+19
1.145539789e+20
1.145539789e+20
1.041399808e+20
5.20699904e+19
9.372598272e+19
1.562099712e+20
7.289798656e+19
7.289798656e+19
1.35381975e+20
9.372598272e+19
9.372598272e+19
7.289798656e+19
9.372598272e+19
1.35381975e+20
1.145539789e+20
1.041399808e+20
1.35381975e+20
1.041399808e+20
1.666239693e+20
6.248398848e+19
1.24967977e+20
1.041399808e+20
6.248398848e+19
5.20699904e+19
1.145539789e+20
8.331198464e+19
9.372598272e+19
7.289798656e+19
1.041399808e+20
1.041399808e+20
5.20699904e+19
6.248398848e+19
5.20699904e+19
1.24967977e+20
1.666239693e+20
1.24967977e+20
1.145539789e+20
1.562099712e+20
1.457959731e+20
9.372598272e+19
1.041399808e+20
7.289798656e+19
1.24967977e+20
1.457959731e+20
4.165599232e+19
1.24967977e+20
1.041399808e+20
1.041399808e+20
1.35381975e+20
1.145539789e+20
8.331198464e+19
1.35381975e+20
1.35381975e+20
4.165599232e+19
7.289798656e+19
1.24967977e+20
9.372598272e+19
1.041399808e+20
1.145539789e+20
4.165599232e+19
9.372598272e+19
8.331198464e+19
1.041399808e+20
1.457959731e+20
6.248398848e+19
1.24967977e+20
3.124199424e+19
1.041399808e+20
5.20699904e+19
8.331198464e+19
1.35381975e+20
1.145539789e+20
1.041399808e+20
9.372598272e+19
1.874519654e+20
3.124199424e+19
1.145539789e+20
1.145539789e+20
3.124199424e+19
9.372598272e+19
1.24967977e+20
8.331198464e+19
1.041399808e+20
1.041399808e+20
7.289798656e+19
1.145539789e+20
1.562099712e+20
1.24967977e+20
1.041399808e+20
3.124199424e+19
1.041399808e+20
7.289798656e+19
6.248398848e+19
1.35381975e+20
7.289798656e+19
1.457959731e+20
1.145539789e+20
1.24967977e+20
8.331198464e+19
8.331198464e+19
7.289798656e+19
1.041399808e+20
5.20699904e+19
1.35381975e+20
1.24967977e+20
3.124199424e+19
1.041399808e+20
1.457959731e+20
1.24967977e+20
1.041399808e+20
6.248398848e+19
5.20699904e+19
9.372598272e+19
9.372598272e+19
1.041399808e+20
8.331198464e+19
1.35381975e+20
9.372598272e+19
7.289798656e+19
6.248398848e+19
9.372598272e+19
9.372598272e+19
7.289798656e+19
1.041399808e+20
1.24967977e+20
8.331198464e+19
1.666239693e+20
7.289798656e+19
7.289798656e+19
1.35381975e+20
1.145539789e+20
1.24967977e+20
8.331198464e+19
9.372598272e+19
1.145539789e+20
6.248398848e+19
5.20699904e+19
1.145539789e+20
1.562099712e+20
9.372598272e+19
1.041399808e+20
1.457959731e+20
1.041399808e+20
8.331198464e+19
1.145539789e+20
9.372598272e+19
9.372598272e+19
1.35381975e+20
5.20699904e+19
6.248398848e+19
1.145539789e+20
1.041399808e+20
7.289798656e+19
1.24967977e+20
1.041399808e+20
1.35381975e+20
1.041399808e+19
5.20699904e+19
1.041399808e+20
7.289798656e+19
1.35381975e+20
4.165599232e+19
9.372598272e+19
1.145539789e+20
7.289798656e+19
1.35381975e+20
8.331198464e+19
1.041399808e+20
1.35381975e+20
6.248398848e+19
8.331198464e+19
4.165599232e+19
1.24967977e+20
6.248398848e+19
9.372598272e+19
1.041399808e+20
8.331198464e+19
1.562099712e+20
1.145539789e+20
4.165599232e+19
1.145539789e+20
1.874519654e+20
9.372598272e+19
7.289798656e+19
9.372598272e+19
1.35381975e+20
1.041399808e+20
1.145539789e+20
6.248398848e+19
1.24967977e+20
1.145539789e+20
8.331198464e+19
9.372598272e+19
1.35381975e+20
7.289798656e+19
1.35381975e+20
1.978659635e+20
3.124199424e+19
9.372598272e+19
1.24967977e+20
7.289798656e+19
9.372598272e+19
9.372598272e+19
8.331198464e+19
7.289798656e+19
9.372598272e+19
1.145539789e+20
1.041399808e+20
1.041399808e+20
1.041399808e+20
7.289798656e+19
1.24967977e+20
7.289798656e+19
1.145539789e+20
1.041399808e+20
1.041399808e+20
6.248398848e+19
6.248398848e+19
1.041399808e+20
7.289798656e+19
9.372598272e+19
1.145539789e+20
1.041399808e+20
1.24967977e+20
1.24967977e+20
7.289798656e+19
8.331198464e+19
1.041399808e+20
1.041399808e+20
6.248398848e+19
9.372598272e+19
4.165599232e+19
6.248398848e+19
1.457959731e+20
1.666239693e+20
1.145539789e+20
7.289798656e+19
3.124199424e+19
1.562099712e+20
1.041399808e+20
9.372598272e+19
9.372598272e+19
1.35381975e+20
8.331198464e+19
4.165599232e+19
8.331198464e+19
1.145539789e+20
1.145539789e+20
1.145539789e+20
1.145539789e+20
7.289798656e+19
1.35381975e+20
8.331198464e+19
1.041399808e+20
1.041399808e+20
6.248398848e+19
7.289798656e+19
1.457959731e+20
3.124199424e+19
1.145539789e+20
8.331198464e+19
1.145539789e+20
9.372598272e+19
1.562099712e+20
8.331198464e+19
1.24967977e+20
1.457959731e+20
1.041399808e+20
1.145539789e+20
8.331198464e+19
1.041399808e+20
8.331198464e+19
1.145539789e+20
8.331198464e+19
1.145539789e+20
9.372598272e+19
6.248398848e+19
1.041399808e+20
7.289798656e+19
6.248398848e+19
9.372598272e+19
1.562099712e+20
6.248398848e+19
1.145539789e+20
1.35381975e+20
7.289798656e+19
1.24967977e+20
9.372598272e+19
5.20699904e+19
1.041399808e+20
8.331198464e+19
6.248398848e+19
8.331198464e+19
6.248398848e+19
1.145539789e+20
1.457959731e+20
1.041399808e+20
1.145539789e+20
7.289798656e+19
5.20699904e+19
1.145539789e+20
7.289798656e+19
6.248398848e+19
7.289798656e+19
8.331198464e+19
8.331198464e+19
9.372598272e+19
5.20699904e+19
1.24967977e+20
1.35381975e+20
9.372598272e+19
1.145539789e+20
7.289798656e+19
1.041399808e+20
8.331198464e+19
7.289798656e+19
6.248398848e+19
1.35381975e+20
9.372598272e+19
8.331198464e+19
9.372598272e+19
1.145539789e+20
8.331198464e+19
8.331198464e+19
5.20699904e+19
1.145539789e+20
1.041399808e+20
7.289798656e+19
1.145539789e+20
7.289798656e+19
1.145539789e+20
1.35381975e+20
1.666239693e+20
7.289798656e+19
1.35381975e+20
1.145539789e+20
8.331198464e+19
1.24967977e+20
5.20699904e+19
8.331198464e+19
1.041399808e+20
9.372598272e+19
1.041399808e+20
1.457959731e+20
1.457959731e+20
1.145539789e+20
7.289798656e+19
5.20699904e+19
1.24967977e+20
1.24967977e+20
1.145539789e+20
1.35381975e+20
9.372598272e+19
7.289798656e+19
9.372598272e+19
1.24967977e+20
7.289798656e+19
1.145539789e+20
6.248398848e+19
7.289798656e+19
1.041399808e+20
1.35381975e+20
1.24967977e+20
1.145539789e+20
7.289798656e+19
8.331198464e+19
1.770379674e+20
8.331198464e+19
8.331198464e+19
6.248398848e+19
1.041399808e+20
6.248398848e+19
7.289798656e+19
1.041399808e+20
8.331198464e+19
8.331198464e+19
1.24967977e+20
6.248398848e+19
1.457959731e+20
8.331198464e+19
8.331198464e+19
1.666239693e+20
2.082799616e+19
1.041399808e+20
1.145539789e+20
6.248398848e+19
8.331198464e+19
1.041399808e+20
1.041399808e+20
1.24967977e+20
1.145539789e+20
5.20699904e+19
8.331198464e+19
1.457959731e+20
1.145539789e+20
1.145539789e+20
7.289798656e+19
8.331198464e+19
8.331198464e+19
8.331198464e+19
4.165599232e+19
9.372598272e+19
1.145539789e+20
1.145539789e+20
8.331198464e+19
8.331198464e+19
8.331198464e+19
8.331198464e+19
7.289798656e+19
9.372598272e+19
1.562099712e+20
1.041399808e+20
7.289798656e+19
2.082799616e+19
1.24967977e+20
1.145539789e+20
1.35381975e+20
1.457959731e+20
1.145539789e+20
2.40371362e+20
2.946381336e+20
2.648911821e+20
1.9205136e+20
3.223329007e+20
3.137915816e+20
2.288464637e+20
3.402438219e+20
1.216038213e+20
3.897366324e+20
1.254111454e+20
2.420241812e+20
2.648911823e+20
2.133904001e+20
2.471218906e+20
2.164079875e+20
3.269235197e+20
2.085365361e+20
2.432076426e+20
2.115713147e+20
1.358620742e+20
1.262734858e+20
9.536082555e+19
2.347294401e+20
2.686107509e+20
3.137915816e+20
1.416668585e+20
2.414633576e+20
1.43713607e+20
1.781653177e+20
1.46313003e+20
2.104558098e+20
1.695303566e+20
1.066952e+20
1.826553103e+20
1.731263899e+20
1.307694079e+20
2.304877505e+20
2.210978569e+20
2.115713147e+20
1.254111454e+20
2.525469716e+20
1.589347094e+20
1.493732801e+20
1.504220205e+20
1.839467894e+20
2.397439145e+20
1.646341075e+20
1.768782857e+20
1.781653178e+20
8.360743026e+19
1.473190668e+20
1.377434147e+20
2.027208799e+20
1.826553103e+20
2.055875878e+20
1.743592103e+20
1.426828929e+20
2.432076425e+20
1.893006501e+20
1.881167181e+20
1.367962763e+20
1.377434148e+20
1.493732801e+20
1.289331604e+20
1.190243931e+20
1.416668586e+20
1.646341075e+20
1.989880713e+20
7.794732648e+19
1.46313003e+20
7.365953343e+19
9.536082561e+19
1.920513599e+20
1.396775903e+20
1.298447924e+20
1.525643092e+20
1.31707286e+20
1.658233927e+20
1.447593206e+20
1.045092878e+20
1.367962763e+20
1.271477674e+20
1.066952e+20
1.611664505e+20
1.623059905e+20
9.807705585e+19
7.682925016e+19
1.326587142e+20
1.670299853e+20
1.045092879e+20
1.578418574e+20
1.483390621e+20
1.3870376e+20
1.719108804e+20
1.839467894e+20
1.416668586e+20
8.780485732e+19
1.43713607e+20
1.336239882e+20
9.405835905e+19
1.578418572e+20
1.059564728e+20
6.401712002e+19
1.074443003e+20
9.73835943e+19
5.448725325e+19
9.878046442e+19
1.547684999e+20
1.113533235e+20
1.254111454e+20
6.313674294e+19
8.476517832e+19
1.2803424e+20
1.181887303e+20
1.406651919e+20
1.08974507e+20
1.536585013e+20
8.843914322e+19
1.781653184e+20
9.405835905e+19
7.365953358e+19
1.271477679e+20
1.2803424e+20
9.669986985e+19
1.298447922e+20
1.634617595e+20
1.207316778e+20
1.437136064e+20
1.002179912e+20
1.567639312e+20
1.473190659e+20
1.271477665e+20
8.535615974e+19
1.719108806e+20
8.656319476e+19
6.538470358e+19
6.58536429e+19
1.216038208e+20
1.893006487e+20
6.270557303e+19
1.578418577e+20
1.059564728e+20
9.602568036e+19
7.521101076e+19
1.190243936e+20
9.807705606e+19
1.207316795e+20
1.216038217e+20
6.681199412e+19
8.360743015e+19
1.052279051e+20
1.377434156e+20
7.468664028e+19
1.074443004e+20
8.656319536e+19
8.717960539e+19
7.682924951e+19
8.84391424e+19
1.670299853e+20
1.463130028e+20
9.470511396e+19
3.178694163e+19
7.468663977e+19
1.074443004e+20
1.190243928e+20
7.628215471e+19
9.878046504e+19
8.843914303e+19
1.55894653e+20
1.045092877e+20
1.157506956e+20
7.416953148e+19
1.387037596e+20
1.074442996e+20
6.492239607e+19
1.307694072e+20
8.78048572e+19
1.105489288e+20
1.336239882e+20
1.149602172e+20
7.365953358e+19
8.476517826e+19
1.066952004e+20
1.181887304e+20
9.73835941e+19
1.525643094e+20
1.097560715e+20
9.94940352e+19
1.224886568e+20
5.225464384e+19
1.578418577e+20
2.119129457e+19
1.493732795e+20
1.181887304e+20
8.656319536e+19
1.525643094e+20
1.536585001e+20
7.738425015e+19
1.113533235e+20
1.254111452e+20
9.470511396e+19
6.35738837e+19
1.066952004e+20
5.372215018e+19
1.406651915e+20
8.717960539e+19
1.317072867e+20
1.105489288e+20
8.908265883e+19
8.360743015e+19
1.262734853e+20
8.476517826e+19
9.602568036e+19
)
;

boundaryField
{
    flow
    {
        type            zeroGradient;
    }
    obstacle
    {
        type            calculated;
        value           nonuniform List<scalar> 10(201.7641926 93.78898207 203.7369815 1e-300 84.83943595 1e-300 99.40179819 507.2853923 1e-300 158.7232878);
    }
    frontAndBack
    {
        type            empty;
    }
    procBoundary0to1
    {
        type            processor;
        value           nonuniform List<scalar> 
21
(
2.692068253e+20
2.692068255e+20
2.467729232e+20
2.579898743e+20
2.131220701e+20
2.243390214e+20
2.131220701e+20
1.458203637e+20
1.458203638e+20
1.794712169e+20
1.458203637e+20
1.12169511e+20
1.121695102e+20
5.608475512e+19
1.233864621e+20
1.233864613e+20
1.121695102e+20
8.973560883e+19
1.009525599e+20
1.233864613e+20
1.009525599e+20
)
;
    }
    procBoundary0to2
    {
        type            processor;
        value           nonuniform List<scalar> 
31
(
8.331198464e+19
8.331198464e+19
1.562099712e+20
8.331198464e+19
9.372598272e+19
1.666239693e+20
1.24967977e+20
1.24967977e+20
8.331198464e+19
1.35381975e+20
1.457959731e+20
8.331198464e+19
8.331198464e+19
1.145539789e+20
1.145539789e+20
9.372598272e+19
9.372598272e+19
1.145539789e+20
1.35381975e+20
6.248398848e+19
3.223329011e+19
1.082039934e+20
6.538470358e+19
6.58536429e+19
4.421957151e+19
1.113533235e+20
6.270557261e+19
9.47051146e+19
6.35738837e+19
3.223329011e+19
9.60256797e+19
)
;
    }
}


// ************************************************************************* //
