/*--------------------------------*- C++ -*----------------------------------*\
| =========                 |                                                 |
| \\      /  F ield         | OpenFOAM: The Open Source CFD Toolbox           |
|  \\    /   O peration     | Version:  2406                                  |
|   \\  /    A nd           | Website:  www.openfoam.com                      |
|    \\/     M anipulation  |                                                 |
\*---------------------------------------------------------------------------*/
FoamFile
{
    version     2.0;
    format      ascii;
    arch        "LSB;label=32;scalar=64";
    class       volScalarField;
    location    "0.004";
    object      rhoNMean;
}
// * * * * * * * * * * * * * * * * * * * * * * * * * * * * * * * * * * * * * //

dimensions      [0 -3 0 0 0 0 0];

internalField   nonuniform List<scalar> 
654
(
7.601177198e+19
9.803217092e+19
9.873511579e+19
9.888091177e+19
9.901629374e+19
9.939640467e+19
9.904753574e+19
9.92245737e+19
9.911001972e+19
9.840186785e+19
9.826127888e+19
9.866742481e+19
9.805820592e+19
9.835500486e+19
9.87194948e+19
9.946409566e+19
9.970361761e+19
1.013594433e+20
1.061498824e+20
1.365118938e+20
7.682927083e+19
9.92245737e+19
1.002659735e+20
9.975048061e+19
9.963071963e+19
1.005523585e+20
1.002139035e+20
1.000056236e+20
1.003961485e+20
1.006356704e+20
1.004013555e+20
1.003128365e+20
1.009168484e+20
1.012761313e+20
1.010626444e+20
1.017864172e+20
1.03244377e+20
1.059520165e+20
1.124920073e+20
1.306592269e+20
7.788108464e+19
1.007658454e+20
1.013073733e+20
1.014479623e+20
1.008960204e+20
1.010314024e+20
1.014583763e+20
1.011095074e+20
1.012553033e+20
1.006981544e+20
1.006617054e+20
1.007189824e+20
1.007554314e+20
1.011928193e+20
1.017864172e+20
1.018280732e+20
1.017760032e+20
1.039369078e+20
1.080087811e+20
1.182197062e+20
7.818829758e+19
9.932350668e+19
9.97765156e+19
9.962030563e+19
9.860494082e+19
9.824565788e+19
9.86882528e+19
9.87142878e+19
9.86830458e+19
9.939119767e+19
9.989106958e+19
1.002815945e+20
1.009689184e+20
9.999000256e+19
1.001357985e+20
9.98077576e+19
1.003805275e+20
1.027028491e+20
1.065456144e+20
1.13877069e+20
7.75530437e+19
9.954740764e+19
9.906836373e+19
9.92141597e+19
9.989627658e+19
1.000576935e+20
9.994834657e+19
9.933392068e+19
9.907357073e+19
9.885487677e+19
9.835500486e+19
9.839145386e+19
9.920895271e+19
9.944326766e+19
1.002868015e+20
1.020832162e+20
1.03181893e+20
1.044055377e+20
1.059624305e+20
1.091543209e+20
7.764676968e+19
9.936516268e+19
1.002972155e+20
9.970882461e+19
9.920374571e+19
9.984941359e+19
9.877677179e+19
9.958385664e+19
9.995876057e+19
1.004898745e+20
1.007033614e+20
1.000993495e+20
9.916208971e+19
9.92454017e+19
9.974527361e+19
9.883925577e+19
9.937557668e+19
1.011824053e+20
1.03150651e+20
1.058270485e+20
7.772487467e+19
9.965154762e+19
1.004586325e+20
1.002139035e+20
1.009793324e+20
1.009845394e+20
1.009741254e+20
1.004378045e+20
1.009168484e+20
1.005107025e+20
1.001826615e+20
1.007189824e+20
1.010574374e+20
1.005263235e+20
1.006096354e+20
1.003024225e+20
1.017812102e+20
1.014427553e+20
1.03176686e+20
1.053948676e+20
7.75218017e+19
9.966196162e+19
1.003024225e+20
1.009689184e+20
1.003961485e+20
1.004273905e+20
1.017291402e+20
1.020675952e+20
1.021300792e+20
1.012240613e+20
1.003336645e+20
9.938078367e+19
1.000108306e+20
1.002139035e+20
1.008022944e+20
1.018541082e+20
1.017603822e+20
1.018489012e+20
1.025466391e+20
1.02989234e+20
7.743328272e+19
1.005731865e+20
1.007502244e+20
9.994313957e+19
9.945368166e+19
9.892777476e+19
9.970882461e+19
9.984420659e+19
9.927143669e+19
9.97713086e+19
1.015885513e+20
1.013958923e+20
1.004638395e+20
1.002399385e+20
9.892777476e+19
9.915688272e+19
1.001149705e+20
1.013542363e+20
1.011095074e+20
1.022654611e+20
7.739162673e+19
9.825607188e+19
9.944326766e+19
1.001722475e+20
1.006148424e+20
1.008908134e+20
1.003128365e+20
1.000524866e+20
1.001566265e+20
1.002347315e+20
1.000524866e+20
1.003180435e+20
1.009949534e+20
1.011980263e+20
1.015260673e+20
1.022290121e+20
1.020207322e+20
1.002920085e+20
1.013698573e+20
1.017760032e+20
7.795398263e+19
9.970361761e+19
1.001149705e+20
9.92454017e+19
9.911522672e+19
9.855287083e+19
9.784471896e+19
9.799572193e+19
9.86778388e+19
9.876115079e+19
9.917250371e+19
9.951616565e+19
9.996396757e+19
9.952137265e+19
9.907877773e+19
9.805820592e+19
9.889653276e+19
1.000733145e+20
1.011824053e+20
1.011876123e+20
7.767801168e+19
9.965154762e+19
1.000785215e+20
9.987024158e+19
1.006773264e+20
1.010157814e+20
1.014948253e+20
1.011511633e+20
1.015468953e+20
1.002711805e+20
9.97765156e+19
9.866742481e+19
9.805299892e+19
9.939119767e+19
1.001410055e+20
1.009220554e+20
1.012292683e+20
1.003492855e+20
1.003753205e+20
1.015885513e+20
7.766759768e+19
9.990669058e+19
1.005263235e+20
1.000368656e+20
9.942243967e+19
9.915167572e+19
9.882884178e+19
9.862056181e+19
9.81311039e+19
9.901108674e+19
1.001253845e+20
1.004950815e+20
1.008751924e+20
1.006148424e+20
9.97765156e+19
1.005054955e+20
1.004117695e+20
1.013334083e+20
1.016406213e+20
1.011147144e+20
7.763114868e+19
1.002243175e+20
1.005940145e+20
1.009428834e+20
1.007814664e+20
1.008075014e+20
1.002815945e+20
1.005107025e+20
1.002243175e+20
9.963071963e+19
9.902670774e+19
9.933392068e+19
9.92662297e+19
9.947971666e+19
9.962030563e+19
9.878718578e+19
9.823003689e+19
9.863097581e+19
9.797489393e+19
9.964113363e+19
7.666264686e+19
9.960468463e+19
1.002555595e+20
9.97713086e+19
1.002451455e+20
1.003492855e+20
1.007814664e+20
1.009064344e+20
1.012396823e+20
1.013438223e+20
1.006669124e+20
1.004013555e+20
1.009220554e+20
1.003649065e+20
1.002295245e+20
9.92610227e+19
1.000472796e+20
9.989627658e+19
9.961509863e+19
9.915167572e+19
7.816226259e+19
1.002555595e+20
1.001826615e+20
1.004013555e+20
9.981817159e+19
1.004898745e+20
1.005575655e+20
9.961509863e+19
9.970361761e+19
9.892256776e+19
9.913605472e+19
9.836541886e+19
9.723550007e+19
9.766768099e+19
9.847476584e+19
9.939119767e+19
9.916208971e+19
9.852162883e+19
9.937036968e+19
9.899546575e+19
7.802688061e+19
9.945368166e+19
9.972444561e+19
1.004846675e+20
9.97765156e+19
1.001982825e+20
9.940161167e+19
1.002451455e+20
1.003909415e+20
1.008960204e+20
1.014583763e+20
1.014115133e+20
1.017812102e+20
1.021248722e+20
1.007814664e+20
1.007137754e+20
1.009585044e+20
1.012240613e+20
1.007293964e+20
1.008595714e+20
7.735517774e+19
9.929226469e+19
1.000316586e+20
1.000108306e+20
1.002763875e+20
1.000785215e+20
1.006929474e+20
1.004690465e+20
9.997438156e+19
9.945368166e+19
9.962551263e+19
1.001514195e+20
1.006200494e+20
1.008127084e+20
1.006564984e+20
1.008231224e+20
1.019582482e+20
1.013021663e+20
1.009012274e+20
1.012240613e+20
7.80893646e+19
9.997958856e+19
1.005992214e+20
1.000212446e+20
1.005523585e+20
1.011095074e+20
1.008856064e+20
1.012657173e+20
1.014739973e+20
1.015468953e+20
1.011355424e+20
1.008543644e+20
9.943806066e+19
9.963592663e+19
9.909439873e+19
9.955782164e+19
9.907877773e+19
9.908398473e+19
9.975048061e+19
9.967237562e+19
7.736559173e+19
1.003805275e+20
1.017239332e+20
1.014115133e+20
1.007137754e+20
1.007085684e+20
1.005731865e+20
1.009585044e+20
1.008595714e+20
1.007137754e+20
1.011095074e+20
1.010105744e+20
1.020571812e+20
1.021717352e+20
1.02885094e+20
1.017707962e+20
1.016145863e+20
1.021196652e+20
1.020884232e+20
1.023019101e+20
7.738641973e+19
9.927664369e+19
9.903191474e+19
9.913605472e+19
9.939119767e+19
9.97608946e+19
9.938078367e+19
9.7636439e+19
9.834979786e+19
9.887049777e+19
9.946930266e+19
9.955261464e+19
9.946409566e+19
9.899025875e+19
9.942243967e+19
1.005419445e+20
1.003701135e+20
9.957344264e+19
9.938078367e+19
9.887049777e+19
7.70063088e+19
9.87142878e+19
9.911001972e+19
9.81519319e+19
9.834459087e+19
9.776661397e+19
9.897463775e+19
1.002295245e+20
1.006252564e+20
1.005836005e+20
9.97608946e+19
9.951095865e+19
9.937557668e+19
9.954740764e+19
9.967758262e+19
9.996396757e+19
9.969320362e+19
9.968799662e+19
1.004534255e+20
1.005419445e+20
2.404863222e+20
2.771176874e+20
2.87544676e+20
3.01702017e+20
3.05125696e+20
3.111514042e+20
3.121084354e+20
3.1313956e+20
3.047557586e+20
3.093339651e+20
1.652762133e+20
1.981336221e+20
2.180001452e+20
2.361164777e+20
2.519246509e+20
2.589483876e+20
2.647263201e+20
2.701206679e+20
2.744929894e+20
2.736897663e+20
1.365779628e+20
1.575103893e+20
1.769420118e+20
1.949961476e+20
2.11622294e+20
2.243447503e+20
2.361368581e+20
2.472529904e+20
2.514932848e+20
2.562128621e+20
1.249617555e+20
1.380642726e+20
1.505058719e+20
1.658896969e+20
1.802861635e+20
1.964064791e+20
2.12080736e+20
2.200554359e+20
2.267579621e+20
2.356737416e+20
1.15561145e+20
1.246634989e+20
1.354123724e+20
1.494533015e+20
1.600275409e+20
1.693717114e+20
1.828973631e+20
1.928084911e+20
2.0635063e+20
2.18124458e+20
1.103252297e+20
1.166188255e+20
1.249809575e+20
1.312884436e+20
1.397850346e+20
1.503548593e+20
1.636361189e+20
1.756536168e+20
1.855784861e+20
1.972735481e+20
1.076445665e+20
1.118046489e+20
1.155932141e+20
1.227261539e+20
1.290191159e+20
1.380087838e+20
1.462982751e+20
1.580487432e+20
1.698750109e+20
1.804926021e+20
1.05444646e+20
1.079796146e+20
1.100463928e+20
1.155615711e+20
1.197251837e+20
1.255815551e+20
1.342729383e+20
1.417828934e+20
1.507721561e+20
1.604211656e+20
1.039815159e+20
1.063906732e+20
1.087060433e+20
1.114164626e+20
1.148525849e+20
1.19105546e+20
1.221931141e+20
1.300993595e+20
1.383409291e+20
1.456056059e+20
1.030722852e+20
1.036547477e+20
1.048439299e+20
1.060870374e+20
1.082340159e+20
1.136412444e+20
1.182754807e+20
1.221091175e+20
1.263408429e+20
1.317866584e+20
1.025288368e+20
1.040861821e+20
1.064968508e+20
1.080342248e+20
1.095716974e+20
1.106548141e+20
1.126796397e+20
1.167914358e+20
1.210234394e+20
1.259350413e+20
1.013217546e+20
1.01981624e+20
1.018294683e+20
1.025340872e+20
1.042532046e+20
1.06505191e+20
1.085604038e+20
1.112597305e+20
1.141749339e+20
1.175445688e+20
1.013792347e+20
1.02271001e+20
1.031486267e+20
1.033449708e+20
1.034366275e+20
1.051796919e+20
1.077866842e+20
1.087353393e+20
1.101951714e+20
1.14114886e+20
1.001773775e+20
1.005031713e+20
1.008493702e+20
1.012910878e+20
1.019807577e+20
1.025232838e+20
1.029972543e+20
1.048719263e+20
1.072545699e+20
1.084692717e+20
9.888146321e+19
9.906681127e+19
9.968384964e+19
1.013070928e+20
1.018894307e+20
1.035620428e+20
1.043158466e+20
1.054975367e+20
1.062596303e+20
1.072054122e+20
1.008984918e+20
1.020973749e+20
1.0143743e+20
1.013497709e+20
1.020183632e+20
1.017279851e+20
1.025994981e+20
1.032914382e+20
1.051762501e+20
1.053792177e+20
1.002714361e+20
1.006978431e+20
1.002613117e+20
1.003628396e+20
9.891322291e+19
9.999131034e+19
1.011773808e+20
1.012829035e+20
1.013844226e+20
1.038982185e+20
1.007312769e+20
9.986654335e+19
9.962557425e+19
1.001547839e+20
1.018410794e+20
1.01636011e+20
1.015478934e+20
1.014640003e+20
1.017215968e+20
1.029851213e+20
9.979591948e+19
1.015028373e+20
1.019142334e+20
1.024273924e+20
1.015778416e+20
1.011328625e+20
1.015043043e+20
1.014475369e+20
1.011467417e+20
1.0275128e+20
1.013269799e+20
1.011082326e+20
1.00663947e+20
9.994672829e+19
1.002777655e+20
1.007162778e+20
1.017168046e+20
1.029786341e+20
1.022135396e+20
1.018994264e+20
9.908003019e+19
9.906154921e+19
9.947193669e+19
9.972800381e+19
9.996617705e+19
9.973703096e+19
9.934116034e+19
9.921400153e+19
1.005553056e+20
1.003070738e+20
1.003184653e+20
9.970870082e+19
9.933419328e+19
9.974934285e+19
)
;

boundaryField
{
    flow
    {
        type            calculated;
        value           nonuniform List<scalar> 
42
(
7.601177198e+19
7.682927083e+19
7.788108464e+19
7.818829758e+19
7.75530437e+19
7.764676968e+19
7.772487467e+19
7.75218017e+19
7.743328272e+19
7.739162673e+19
7.795398263e+19
7.767801168e+19
7.766759768e+19
7.763114868e+19
7.666264686e+19
7.816226259e+19
7.802688061e+19
7.735517774e+19
7.80893646e+19
7.736559173e+19
7.738641973e+19
7.70063088e+19
7.601177198e+19
9.803217092e+19
9.873511579e+19
9.888091177e+19
9.901629374e+19
9.939640467e+19
9.904753574e+19
9.92245737e+19
9.911001972e+19
9.840186785e+19
9.826127888e+19
9.866742481e+19
9.805820592e+19
9.835500486e+19
9.87194948e+19
9.946409566e+19
9.970361761e+19
1.013594433e+20
1.061498824e+20
1.365118938e+20
)
;
    }
    obstacle
    {
        type            calculated;
        value           nonuniform List<scalar> 10(138.3787169 143.0776349 150.6541439 138.1752241 151.834166 151.2303037 141.7471297 142.04964 145.7937565 139.3863595);
    }
    frontAndBack
    {
        type            empty;
    }
    procBoundary0to1
    {
        type            processor;
        value           nonuniform List<scalar> 
21
(
3.054768366e+20
2.731551923e+20
2.568681792e+20
2.395323813e+20
2.236491786e+20
2.077940186e+20
1.893140914e+20
1.722418919e+20
1.549173111e+20
1.393706169e+20
1.311093324e+20
1.231228637e+20
1.160281414e+20
1.106664388e+20
1.097129987e+20
1.053159532e+20
1.047999734e+20
1.043625131e+20
1.029491772e+20
1.023378527e+20
1.002515005e+20
)
;
    }
    procBoundary0to2
    {
        type            processor;
        value           nonuniform List<scalar> 
31
(
7.723020976e+19
9.92610227e+19
1.008856064e+20
1.001462125e+20
1.002399385e+20
9.954740764e+19
9.941202567e+19
9.855807783e+19
9.812068991e+19
9.831855587e+19
9.893298176e+19
1.003440785e+20
1.000837285e+20
9.953699365e+19
9.992231157e+19
9.902670774e+19
9.945888866e+19
9.879239278e+19
9.801654993e+19
9.792803094e+19
1.000521325e+20
1.001860775e+20
1.000385965e+20
1.00662781e+20
1.008095682e+20
1.014818514e+20
9.89911973e+19
9.966134893e+19
1.006109688e+20
1.000521325e+20
9.964264697e+19
)
;
    }
}


// ************************************************************************* //
