/*--------------------------------*- C++ -*----------------------------------*\
| =========                 |                                                 |
| \\      /  F ield         | OpenFOAM: The Open Source CFD Toolbox           |
|  \\    /   O peration     | Version:  2406                                  |
|   \\  /    A nd           | Website:  www.openfoam.com                      |
|    \\/     M anipulation  |                                                 |
\*---------------------------------------------------------------------------*/
FoamFile
{
    version     2.0;
    format      ascii;
    arch        "LSB;label=32;scalar=64";
    class       volScalarField;
    location    "0.004";
    object      translationalT;
}
// * * * * * * * * * * * * * * * * * * * * * * * * * * * * * * * * * * * * * //

dimensions      [1 2 -2 0 0 0 0];

internalField   nonuniform List<scalar> 
654
(
286.6546084
299.4367946
291.3711133
297.3389505
297.6698177
298.6994981
298.4304511
301.2019235
300.3331033
299.3942547
295.8621623
298.5669356
294.9851084
300.9178846
311.1028901
330.9172941
373.0954469
467.8654287
704.2704291
1327.486585
288.1624185
304.0870793
299.6574008
300.8739543
300.618862
302.1921477
303.6522883
303.8355601
302.9290698
301.9099229
300.3766915
300.2242398
307.3964599
317.6485093
327.1459848
352.1331654
398.5894534
482.5209938
714.2699707
1142.716897
291.4660071
309.1556545
298.8416865
299.2309336
296.3463901
296.9765375
294.0488176
295.9234148
297.5212384
298.867768
297.9609546
297.9350239
304.6390115
315.3747219
325.30342
347.101865
378.5975222
463.0456034
663.734731
899.0579539
286.9460954
305.1076207
296.2735508
297.1381611
295.6512101
295.1534868
295.5626427
296.5598859
298.2304653
297.0761055
300.7706179
300.2830378
304.0169966
308.4462757
326.8497156
336.5538432
375.0371651
460.5959471
567.0944324
747.5882322
287.2458078
303.7972187
297.0707804
296.6030458
299.4772494
301.0711092
301.1059885
301.4544607
302.2154648
300.3607993
300.4261526
301.2960526
298.5244285
303.444727
309.7020241
330.2989296
364.6464061
431.0649703
500.40428
608.7871669
289.4932293
305.5146971
300.5314782
301.5114611
299.9030067
296.775047
297.4254552
297.8309191
298.8946655
304.7570385
301.9241964
298.6273053
299.1717227
300.4410988
314.678368
320.8010963
352.6599032
422.3852259
454.1516215
543.5344791
286.2158481
302.9749187
298.3073002
298.9513509
302.6139927
303.9820542
302.0173669
299.0674376
298.9968059
298.993368
300.965868
301.4588898
301.0300547
302.1926761
302.9644614
314.8900276
353.3812029
364.2876141
415.0802862
467.3682419
286.1407885
302.0452505
297.2649365
302.0680305
295.1723349
297.7916044
300.2487282
302.5571899
302.6535648
300.1530389
297.9747254
299.1307389
297.9705562
300.0441196
312.9715644
319.7442115
326.2878329
342.1480372
370.4644909
397.625031
292.2604709
310.1981539
299.8957674
300.7183559
303.7075555
302.5855694
301.9052112
302.3541188
302.3399455
304.0601189
304.5510914
305.3793302
304.8295995
311.4387926
307.7639205
314.5024411
321.7647929
334.9006454
353.4299204
374.5779809
291.5980436
304.1093549
297.8819604
297.2027748
297.2799746
298.8668044
298.1321956
296.632371
299.5420717
301.1532068
302.6056566
304.7914155
311.2183023
308.9021551
309.730951
314.3564345
316.1781649
319.448286
339.4760298
367.5830079
288.9325098
303.7818331
300.7479321
299.520261
300.6566772
299.0110789
298.1289466
301.4562559
298.7554468
299.8729743
301.554262
298.2821779
302.2179862
303.0113089
309.5014528
308.1193538
313.9656213
310.0533601
324.9506413
346.3336581
294.0469492
308.4900869
299.2668977
297.6944807
296.9315998
297.292643
298.2245966
298.8126118
304.0904554
302.9072115
302.3558844
301.4041977
301.6134544
303.3353163
302.6693583
307.7772413
312.7036676
312.6792128
315.2273109
339.8926798
292.2942476
309.9939755
300.7081045
300.3056256
300.0807268
301.716547
303.217626
301.910951
298.3320976
298.895884
300.5725931
301.3453033
302.0688645
303.8631462
304.9637143
303.5506288
306.6033708
313.2787581
317.8102832
317.5062292
290.2975332
304.9335323
301.840662
303.5708446
301.5608359
304.2116907
300.2961423
300.9179038
299.8645675
299.2361536
304.0055188
300.3991557
299.6725391
297.3614146
300.3279799
298.3121564
299.5898646
305.4954074
313.3006861
319.0331402
294.7193555
313.1827749
305.2054625
301.3283514
303.9790479
300.6897365
301.2329099
299.5719705
301.0301814
301.158155
298.1249973
298.6528597
296.291604
296.4446435
298.64774
300.7243387
304.5725959
307.6982543
308.0596245
310.6087341
291.5674371
305.9666692
299.7845688
300.7276915
301.0459631
301.4751791
304.6698191
303.0969449
303.0269595
303.9559125
304.9439476
303.1119667
302.6718572
304.0925746
302.5376779
301.6680565
301.2273648
303.2382448
306.955302
311.1136923
292.6119807
308.3928007
300.828069
302.7455589
301.8099845
301.9004456
300.501398
300.9870811
301.8433847
300.1372416
298.924991
300.3731271
299.3714925
300.0387573
300.4920821
304.5607788
303.6723264
305.8475317
303.9392063
311.5467811
290.8151645
302.8674943
298.8099979
298.2386269
301.4382118
302.6766548
301.1668226
298.9269005
297.4164481
296.7638458
299.1015672
297.1609239
298.5466442
299.03472
300.5067229
299.6111242
298.1937473
299.9326081
299.208381
303.6168228
285.8616238
302.1635905
294.8612013
295.6224676
297.6454175
298.9164595
304.0641768
303.7262009
305.5198233
307.4637624
304.879034
305.1965969
302.7429862
299.687061
301.7639055
304.8443289
304.7388542
300.0156822
303.0856818
298.7194483
293.7933538
310.7191449
303.9887783
302.8242728
300.1778874
298.7085734
299.8205258
298.3492614
296.2053965
294.98664
295.9485521
297.2759023
301.2986665
301.4796213
301.5320724
301.7175233
298.5774303
300.222009
303.4708266
305.5435317
291.2335858
307.2395939
298.3545611
300.011418
302.1355965
300.6595878
298.3799368
297.1586465
299.1436924
301.7339714
301.0986378
306.0652892
301.5939747
300.387139
300.500075
302.8549384
305.8762268
305.7962102
302.8777827
303.9620052
292.6726543
308.144487
299.4020649
298.9482439
296.9174592
297.4066898
296.0970127
298.4601742
300.1212891
298.2754451
297.9112606
296.8106012
298.895598
301.837271
305.8620388
301.2226094
300.1485357
303.0761057
303.1606594
304.1092255
1396.634076
1247.578976
1185.511674
1119.733788
1082.596861
1045.691988
1020.50497
984.8920038
980.5936195
952.363967
1338.490725
1302.62407
1242.577926
1199.320646
1168.008127
1139.762709
1107.760126
1083.015067
1069.086088
1053.14733
1129.445644
1176.514985
1180.059122
1171.811321
1150.487978
1134.772101
1110.629768
1088.09385
1071.438669
1044.425937
923.6764781
1034.509346
1072.677081
1115.006342
1102.282592
1078.098369
1079.255237
1049.390892
1047.149479
1039.38066
758.3263461
876.2073966
946.6535512
1013.969853
1020.675287
1025.99935
1047.686603
1023.186076
1019.471681
1006.88745
638.8182815
750.5165605
845.8789807
885.2516742
930.9303812
950.5235827
982.8070246
991.7487489
1002.828052
985.8343886
536.1098635
630.2026261
689.4592981
781.6474186
812.8968628
866.3350276
886.6442794
924.8453023
934.5990749
944.9347607
468.042038
553.122362
578.8998807
678.0433124
710.7963063
769.435571
805.112759
851.3399096
887.6625114
884.9196287
443.5256699
481.9510788
513.3992112
569.685749
619.3847878
682.7128266
726.2330246
769.0053094
814.3311651
824.6088339
397.4437892
429.6732873
465.5118931
508.170832
530.4944865
599.4137222
635.810732
678.4443005
732.2861007
757.6310264
366.7450509
409.1614745
432.5066045
454.4250887
482.3569942
540.3028241
578.5654302
616.7801397
648.0682888
666.210235
344.7843761
381.1561289
391.7250424
427.9318635
444.6272736
476.3915428
504.8627047
536.5205117
575.7567868
601.8309711
338.9891147
355.9648299
378.5520082
377.1105234
399.1658327
436.1271739
453.031277
474.0504562
507.0292294
542.404583
329.6370583
345.0017053
353.9454564
359.8000373
376.5129267
396.2225749
421.0384979
442.0814798
479.1276074
485.379979
325.183498
325.0491907
332.8222694
340.0983869
362.1876143
370.223177
385.3372914
407.6125403
432.0745617
442.8127584
308.3641844
319.7174216
327.7539733
333.1366622
347.7225764
354.8848554
363.7180373
377.5259255
405.7839126
416.0916665
312.7685978
317.9775051
321.5132969
321.2310221
319.8228611
336.877407
347.6205274
350.1442786
370.1816124
390.1603609
311.5883588
310.3411497
311.2387122
313.3184872
318.0875418
323.785884
332.6417108
332.3131835
345.7861675
359.2381931
303.6194701
309.7276355
312.0338415
315.1726028
312.8217625
317.7250261
324.0003496
333.1930099
334.9624979
350.4705464
305.9803368
306.0671487
307.5741306
308.0975641
311.4773684
314.9932801
320.1774031
322.9186115
333.690107
334.0672246
303.541982
302.7644987
304.965951
302.5747325
307.790201
310.120848
315.4594558
318.4715104
328.2652444
331.6838345
299.9480284
299.5222494
302.7568194
304.2145272
)
;

boundaryField
{
    flow
    {
        type            calculated;
        value           nonuniform List<scalar> 
42
(
286.6546084
288.1624185
291.4660071
286.9460954
287.2458078
289.4932293
286.2158481
286.1407885
292.2604709
291.5980436
288.9325098
294.0469492
292.2942476
290.2975332
294.7193555
291.5674371
292.6119807
290.8151645
285.8616238
293.7933538
291.2335858
292.6726543
286.6546084
299.4367946
291.3711133
297.3389505
297.6698177
298.6994981
298.4304511
301.2019235
300.3331033
299.3942547
295.8621623
298.5669356
294.9851084
300.9178846
311.1028901
330.9172941
373.0954469
467.8654287
704.2704291
1327.486585
)
;
    }
    obstacle
    {
        type            calculated;
        value           nonuniform List<scalar> 10(1202.1947 1092.368375 978.6991506 954.1845892 895.359954 851.9964903 895.4869717 832.1682376 799.4086995 832.5112897);
    }
    frontAndBack
    {
        type            empty;
    }
    procBoundary0to1
    {
        type            processor;
        value           nonuniform List<scalar> 
21
(
934.0832789
1028.073639
1021.524398
1023.357943
1004.52745
972.6782535
951.5210161
905.8224059
850.7191747
790.7779169
705.0632642
647.6376615
568.2025144
513.3596029
460.876307
433.6572397
402.9955055
377.6516007
359.7946671
346.661591
340.6709571
)
;
    }
    procBoundary0to2
    {
        type            processor;
        value           nonuniform List<scalar> 
31
(
282.7502128
300.091706
296.561142
298.205413
297.523749
296.1195976
298.4636672
300.7562466
301.8000303
301.0386599
304.1186983
302.9270211
302.6894665
300.7380457
298.6819448
298.7820661
299.1542584
299.4573186
299.8460203
302.397704
306.1076757
309.8406072
303.9266964
309.6935299
313.2324296
321.0273364
301.8669565
306.5593641
304.213309
306.1076757
303.8015381
)
;
    }
}


// ************************************************************************* //
