/*--------------------------------*- C++ -*----------------------------------*\
| =========                 |                                                 |
| \\      /  F ield         | OpenFOAM: The Open Source CFD Toolbox           |
|  \\    /   O peration     | Version:  2406                                  |
|   \\  /    A nd           | Website:  www.openfoam.com                      |
|    \\/     M anipulation  |                                                 |
\*---------------------------------------------------------------------------*/
FoamFile
{
    version     2.0;
    format      ascii;
    arch        "LSB;label=32;scalar=64";
    class       volVectorField;
    location    "0.004";
    object      UMean;
}
// * * * * * * * * * * * * * * * * * * * * * * * * * * * * * * * * * * * * * //

dimensions      [0 1 -1 0 0 0 0];

internalField   nonuniform List<vector> 
654
(
(1709.850597 -5.751649186 -4.442864146)
(1748.423075 -6.239838643 -5.483800936)
(1739.768078 -6.765371643 -3.778817933)
(1739.860584 -5.818183199 -3.486990996)
(1737.518992 -6.100828354 -5.695494981)
(1738.369317 -6.877637231 -3.267277698)
(1737.955026 -6.68991186 0.6282912983)
(1737.345274 -8.724660628 -1.360272951)
(1733.300896 -8.937471699 0.5488323482)
(1733.040127 -9.486310418 -0.1798991039)
(1732.855752 -7.630847683 0.01729677962)
(1729.050804 -4.046832211 -1.833069838)
(1731.110526 -2.715286125 -2.276449826)
(1731.092423 -1.952215771 -2.108666853)
(1725.074781 -2.984099924 -1.742744465)
(1718.20449 -5.743275936 -1.743533982)
(1701.995914 -11.42666767 1.264284119)
(1664.571959 -17.6257447 0.8634327273)
(1567.481428 -21.1376056 -2.30848213)
(1179.442262 11.02610037 3.201948587)
(1711.287605 1.951598209 -2.682564832)
(1746.947664 -1.793382895 -2.459055534)
(1735.032257 -0.9949638163 -2.078774906)
(1734.411034 -1.984653626 -4.762578421)
(1735.103509 -1.227313999 -3.122038612)
(1734.08759 -4.229039152 -5.988765607)
(1734.473885 -6.807262117 -9.323655112)
(1736.03789 -2.161655087 -5.597596176)
(1738.383724 -2.473021162 -3.52811636)
(1739.257078 -2.71883188 -1.232568056)
(1741.747196 -1.167540691 -0.3288304427)
(1741.358905 -2.993766034 1.064949016)
(1737.310602 -2.510165079 2.717277928)
(1731.122313 -4.519159463 2.329312227)
(1729.307335 -2.463847872 -0.2013746242)
(1717.56898 -3.084937989 -0.1346328956)
(1699.287774 2.34673942 5.370190138)
(1663.422504 3.829970445 -0.09767174724)
(1559.421758 18.78161982 3.266324029)
(1311.730057 70.18840235 -0.6902949346)
(1708.220672 -1.236488694 5.72763825)
(1744.134246 -2.711819436 4.86746994)
(1736.410737 -5.472523367 1.295692414)
(1738.459416 -7.049970489 1.211355101)
(1738.954929 -8.87330553 1.988747184)
(1736.33745 -5.004426493 2.851559281)
(1736.951771 -1.452284145 4.518761053)
(1736.125879 -1.292474682 3.666415117)
(1732.47155 1.60908134 0.4449450226)
(1730.537061 0.05955005091 -0.8133052003)
(1728.030939 0.7095024234 -2.919020027)
(1727.266849 -3.264137289 -2.959088562)
(1727.518159 -2.600971048 -3.401362015)
(1721.087547 -1.572891366 -3.043640517)
(1719.348016 -2.7280017 -4.467550928)
(1712.090044 -1.010935053 -1.179259147)
(1702.58325 2.02841364 0.4589374834)
(1672.648602 9.755223543 -0.7358897558)
(1580.553537 27.64833223 -0.665843541)
(1452.474642 62.62036606 1.113836616)
(1708.375313 -8.130626636 -0.6970987219)
(1741.114231 -3.011884567 0.2675987863)
(1731.335505 -1.302599359 2.216042465)
(1730.622714 -1.585991323 4.368877407)
(1731.981718 2.631595218 3.155279453)
(1735.343529 0.5268330789 1.116948827)
(1735.671583 -3.494020015 -1.331510815)
(1735.341226 -5.702304053 -3.19127218)
(1736.375858 -5.822122158 -1.971622073)
(1735.905571 -1.468107039 -0.09467545688)
(1736.51843 -1.612228737 0.1693455955)
(1735.877982 3.381251715 -2.812302212)
(1734.043864 4.508772309 -4.267747617)
(1729.761367 3.049162877 0.1475494372)
(1720.936778 1.873281142 0.5416557658)
(1714.32574 -0.6969415844 1.781485558)
(1697.294969 3.731047045 -0.1362537949)
(1666.355474 10.36575312 2.254682479)
(1620.387659 20.26833585 0.1525241638)
(1530.787986 56.77974266 -5.221409076)
(1708.856945 -2.194448133 0.2386479773)
(1746.873909 -4.7719268 2.26289239)
(1741.745317 -3.349301276 3.211941794)
(1740.448398 -0.6524925922 2.41493223)
(1741.582544 -1.516072334 3.517619312)
(1738.797486 -2.368419749 3.465389652)
(1736.748444 3.270729357 7.608025876)
(1736.03428 1.921289252 6.568523511)
(1734.826543 -0.8098669762 3.610160179)
(1735.254954 -1.481986594 4.160964616)
(1734.992017 -6.148946212 4.455858181)
(1732.258962 -5.461009752 4.100847374)
(1733.47995 -4.561496443 4.346487193)
(1730.600924 -2.942398508 0.8181166957)
(1727.810786 2.862906606 0.993423293)
(1722.391904 4.585961165 -2.046491185)
(1706.172354 7.051039453 -1.912610763)
(1679.053686 15.05491504 -4.636910156)
(1647.82221 21.74110843 -4.263297694)
(1595.897352 42.62634298 -4.877527709)
(1708.300785 4.100589681 0.08801162294)
(1743.531598 3.785301985 -1.247788493)
(1732.174243 2.559606315 -0.3998411588)
(1730.451909 -0.3836836885 -1.352351812)
(1730.58775 1.332288747 -1.839961566)
(1731.170071 -1.910059335 0.3913324329)
(1733.836066 -2.919443683 -2.351723864)
(1735.090084 -2.942415895 -2.441389352)
(1734.152553 0.1500138605 0.2595931714)
(1734.016152 0.8064345289 1.69183621)
(1734.3438 3.34229075 1.726736973)
(1736.853401 0.3562897378 1.993510653)
(1737.512244 -1.915271157 0.6627663206)
(1737.181016 -4.089085793 0.5802044655)
(1731.787211 -5.657217859 2.980637887)
(1727.429455 -4.387985204 3.382100111)
(1716.747382 4.227691603 -0.3185942639)
(1687.180336 14.76021571 -3.091195271)
(1670.982119 17.16416925 -2.666984334)
(1633.67762 37.73768349 -5.407148305)
(1708.382246 2.363987645 -4.4060082)
(1745.900459 3.166424251 -3.087978918)
(1737.176294 1.843311499 -3.821199643)
(1735.287496 4.393960185 -4.870502767)
(1734.122708 1.276513311 -7.503172101)
(1733.029414 2.673380019 -7.681071515)
(1734.507364 -1.108873273 -5.383615087)
(1732.09894 -3.438053379 -3.939498051)
(1732.057157 -5.317325323 -4.493160298)
(1731.66536 -4.846313384 -1.628172121)
(1731.604895 -3.231841227 -5.333965762)
(1728.121236 -2.832199527 -3.836757513)
(1729.305744 -0.4384928264 -2.170457241)
(1729.760375 2.632116008 -4.95329281)
(1728.672382 2.783988647 -4.554883314)
(1723.865845 4.446337884 -4.564664109)
(1709.451996 4.720003723 -5.058642363)
(1705.322693 5.243226987 -7.013996544)
(1686.942821 12.65040557 -4.416023292)
(1661.527722 24.61505271 0.3945154527)
(1709.109119 -5.412711493 -4.933739052)
(1743.030045 -3.397529993 -6.155086132)
(1732.415638 -4.337042964 -6.757525311)
(1731.721857 -3.506301767 -5.892682374)
(1732.593846 -2.422361145 -2.537980176)
(1734.34709 -2.341436071 -3.472466135)
(1734.731603 3.867551704 -4.743478659)
(1733.763948 3.899263813 -2.82542875)
(1732.587378 3.680250774 -3.62301504)
(1734.079211 0.9127515969 -5.759134305)
(1734.117139 -1.653217974 -3.681689629)
(1736.974952 -0.2420423704 -5.260750632)
(1736.175997 1.001168751 -4.485054963)
(1736.505374 0.6646129586 -3.724180482)
(1729.348881 2.153614814 -3.209639981)
(1729.49756 0.3671324332 -2.752067002)
(1728.148957 0.5963972311 -2.034438303)
(1720.075976 3.241774344 -4.26227228)
(1708.523655 10.89836795 -2.762045493)
(1696.602175 16.66960077 -2.810704165)
(1706.930814 -4.75506404 -4.262880787)
(1744.697072 -2.158187906 -2.987659891)
(1738.237234 -0.3810038727 -2.826979402)
(1738.558764 -0.6807378609 -1.925658055)
(1738.206486 -3.602243172 -2.071162374)
(1737.697429 -0.1984070858 -0.4834848211)
(1735.474719 -1.859838181 0.2190642595)
(1736.541524 -0.68756504 -1.830043038)
(1737.740086 1.067805218 -1.615769982)
(1735.394044 4.792528186 -1.280696825)
(1734.671399 5.850114843 0.1823245998)
(1735.263236 2.737599974 -2.762316407)
(1733.520363 -2.792170308 -0.5465909691)
(1735.241995 -4.038078387 0.01042208183)
(1736.182212 -5.773188121 0.6490213616)
(1732.03709 -2.379566916 -0.8525684773)
(1730.139783 2.578743266 -1.223783167)
(1723.723764 6.365997897 -1.322993725)
(1715.549126 11.85226912 -0.9358299026)
(1708.729315 19.2351811 0.4246453244)
(1710.835651 -0.6724320101 6.125129949)
(1748.354642 -4.816956195 5.091636864)
(1735.83081 -5.940228682 3.588628804)
(1737.529741 -4.847998661 3.820983125)
(1734.281943 -0.7397747567 2.789552571)
(1734.016256 -1.147157585 1.306858218)
(1735.953795 -3.755944383 2.544242419)
(1733.278834 -2.754519981 1.15674562)
(1735.607679 -0.8620524901 2.250959514)
(1737.774683 -1.164941947 1.346997914)
(1735.182909 -0.09906062161 3.947482195)
(1737.126698 3.594377801 3.825562053)
(1735.960872 2.682428213 5.730906918)
(1734.300945 5.442412649 3.057510097)
(1735.671325 5.092275067 1.987794984)
(1734.778598 5.484647234 2.458516673)
(1730.742887 4.465090138 3.990618684)
(1732.697654 6.029970839 4.98782506)
(1721.287816 8.159142669 6.02996574)
(1710.342659 10.088006 2.697339522)
(1699.899493 2.781369643 -3.124792116)
(1736.25922 2.786062044 -4.358407623)
(1730.122353 0.7316737685 -5.049113749)
(1732.443121 -1.116956287 -2.919486303)
(1732.512744 -1.216960601 -1.7432435)
(1736.096339 -4.927112347 0.4208969187)
(1733.493962 -1.924436845 0.6217506001)
(1736.296865 -0.8579962047 -2.267676165)
(1736.018468 -1.773657663 -3.286525553)
(1731.927622 -1.475661496 -3.465851204)
(1733.169415 -4.88256424 -5.430689277)
(1731.265471 -2.709044077 -2.766521494)
(1731.521223 1.246934365 -2.797920565)
(1730.634116 2.32881479 -4.160158859)
(1731.928572 4.857393994 -5.746088066)
(1730.672944 3.221240462 -2.778079304)
(1730.110731 4.969163072 -1.829648275)
(1733.07013 -1.305982216 -3.235174555)
(1726.575934 3.422918086 -1.067576389)
(1720.453641 13.46459188 2.978437058)
(1708.316833 -0.6037917316 -2.15030183)
(1744.454934 -0.8198643168 -1.195781805)
(1732.434664 2.543778701 1.372773631)
(1728.422449 -0.2555226929 -1.248048869)
(1731.873074 -2.069317154 -3.327588258)
(1731.844408 -0.5140236402 -3.967679051)
(1729.104627 0.6136851319 -3.99610674)
(1729.436416 -2.611079951 -2.650026082)
(1726.139896 -1.591948792 -0.7027859479)
(1729.530144 -0.4290990951 -0.1591868697)
(1730.454207 3.819929557 -0.5372866974)
(1732.377216 3.678382638 -3.544905953)
(1732.735481 0.4314185697 -2.94676253)
(1731.755883 -1.579463612 -2.344850586)
(1730.421514 -3.872155524 -0.2420912223)
(1729.151725 -2.481049113 -1.906601992)
(1728.010807 -3.997989744 -2.854313689)
(1725.332579 -0.2090524053 -1.367301985)
(1725.053212 -0.701173189 -4.094029202)
(1716.783182 3.714985524 -0.7223404334)
(1703.121587 4.167968606 -0.9029435777)
(1739.912517 1.556158775 -3.835699123)
(1734.654597 0.6111833666 -4.711779267)
(1734.701214 1.089616288 -4.726652684)
(1732.527137 0.8297344508 -5.996851359)
(1733.508465 1.461356773 -4.953022927)
(1734.470496 -2.434419976 -4.419536284)
(1734.964907 -0.04563713135 -6.413911086)
(1736.214209 0.1971265417 -5.302036995)
(1736.938251 -0.6570784789 -5.302184852)
(1737.578401 -3.410266882 -3.712819386)
(1735.297567 -5.715622278 -1.8760286)
(1736.520326 -6.069415458 -2.768218653)
(1734.862419 -4.210325695 -4.20231876)
(1736.080735 -2.6410664 -3.17252352)
(1735.585677 -3.864135781 -3.690421184)
(1736.133844 1.160085348 -2.518966422)
(1735.450688 0.9388631335 -2.036115615)
(1733.176791 1.684683969 2.442696372)
(1730.834873 4.869283513 0.2495017682)
(1704.952927 2.746986307 -5.476899925)
(1743.861927 2.05922066 -3.818743584)
(1737.267471 4.085401271 -0.9588648664)
(1735.964969 5.65861377 -1.602935611)
(1737.516534 4.102499624 -1.066862686)
(1736.037017 4.111828621 -2.49439871)
(1739.013416 3.940040777 0.3580269487)
(1741.034126 2.608821186 2.050075838)
(1741.891806 -0.5830143824 1.713476119)
(1739.656128 -3.897878592 3.479466223)
(1738.602178 -3.095833032 0.02837990013)
(1737.626354 -3.300163073 -0.07054826388)
(1737.384161 -2.863301394 -0.3548613135)
(1738.566358 -3.05940837 3.603788123)
(1737.612352 -1.091251098 2.357842036)
(1735.319713 -1.207376434 -0.1433405976)
(1733.76963 -1.93396735 -2.666575088)
(1728.864547 -3.137546237 -0.4298154761)
(1726.657063 1.840231707 -4.846238241)
(1725.28582 2.397187504 -2.678928562)
(1709.818429 4.897815316 5.396462366)
(1745.266091 4.254383936 4.378256117)
(1733.930501 0.8057653476 3.233655637)
(1736.484353 -2.407395841 3.115672224)
(1735.358105 0.9082932166 1.827455509)
(1734.908425 2.820431974 0.230261788)
(1733.456979 1.967780041 0.5446915786)
(1732.916625 -0.8536589814 -1.68778583)
(1733.611473 0.06177959712 -0.3440291329)
(1732.413149 1.671539422 -0.5952774889)
(1734.072334 0.2251864836 -0.1556994213)
(1736.722472 -3.329629893 2.222039242)
(1738.415428 0.3749441026 -0.645858428)
(1737.741482 0.2451354802 -3.129399008)
(1737.240426 -0.0760032471 -2.733366105)
(1737.534456 3.4309669 -0.05199704034)
(1735.30282 3.531814882 -0.400221534)
(1733.58777 4.056820402 -2.076297652)
(1733.462861 1.936220957 0.3797695098)
(1731.055648 -1.740477303 -1.785667307)
(1706.455035 -5.532025951 -1.11877175)
(1744.411745 -6.315914117 -2.283200435)
(1736.420874 -1.486829501 -1.501051258)
(1734.952535 3.495176931 -0.4145775066)
(1734.290498 2.386355774 0.0172902134)
(1734.841394 0.1683347932 1.056972483)
(1734.12714 3.856157088 0.5152785354)
(1735.589077 2.958591085 1.065005627)
(1733.675913 0.820454553 -1.55938929)
(1733.429642 1.98526344 -1.789207907)
(1734.047475 2.72348756 -1.279849947)
(1735.499274 6.250084518 -1.066568736)
(1737.741048 6.786202463 4.102504356)
(1737.394993 4.852501334 6.204815314)
(1735.491412 1.152664961 5.139059423)
(1736.886576 -2.861049082 2.089159743)
(1736.25787 -3.328927159 -0.7963587498)
(1738.711829 0.8048087071 -0.9677511519)
(1734.496826 2.898260304 -2.578503211)
(1734.440834 4.14469124 -3.673060255)
(1706.088659 8.036902895 0.1478771669)
(1743.245604 4.961624562 0.7813198092)
(1733.728048 -0.3912226725 -1.276066394)
(1733.435142 -0.9575144197 -2.872448496)
(1733.478328 1.069516462 -1.105693519)
(1733.47518 1.827637949 -1.648835411)
(1733.132572 3.081569543 -0.4111359805)
(1734.886073 5.211843254 1.098377561)
(1732.865413 5.649286341 0.2963975873)
(1736.474084 4.472946251 -0.6301620767)
(1735.217827 3.661824917 -0.8227164762)
(1737.251376 2.114501326 -2.922602158)
(1733.269378 0.6127997127 -5.832275703)
(1735.432858 1.171250873 -8.50356916)
(1735.051588 2.406654346 -7.03720046)
(1730.861237 1.459103134 -4.52608305)
(1730.33993 2.550006748 -3.087031979)
(1732.402653 -1.727940628 -0.7545539642)
(1731.03192 2.471553658 0.9412028341)
(1729.287673 -1.312397457 1.919526489)
(1713.181616 -3.745399283 2.516974142)
(1746.800699 -2.145177037 2.372926978)
(1737.62061 4.215447343 2.79077879)
(1735.18627 7.357646578 2.018053497)
(1735.834165 5.292689683 2.238979524)
(1735.452419 1.628385817 0.8544731994)
(1735.546936 0.1372607257 1.449525317)
(1736.824708 0.640248312 0.7437022306)
(1737.817795 -3.123082017 3.192884816)
(1734.450873 -4.477792184 1.25418737)
(1733.144644 -0.8870880256 1.380666359)
(1734.95814 -0.9847566858 1.435804125)
(1729.455171 1.035114743 -0.05045895671)
(1731.49276 1.743939081 1.169237216)
(1733.472139 1.769765516 3.066514817)
(1736.502571 3.103664518 3.019968714)
(1738.946408 1.042056592 2.556565694)
(1736.373308 0.6216011056 0.4280364981)
(1736.940936 1.927068928 1.313054448)
(1735.648709 3.911530969 -1.450110718)
(1703.84462 4.847449387 -2.982355328)
(1739.385358 1.085456621 -2.789643287)
(1733.438307 -0.4969768439 -1.28132276)
(1733.434802 -5.666922076 0.01076382787)
(1733.361012 -4.026418489 -4.469130633)
(1731.295304 -0.3719047817 -4.922428396)
(1730.893573 1.982263274 -4.009581971)
(1731.519958 -0.231845803 -1.019665592)
(1731.888048 4.545318525 -2.439762334)
(1735.242584 6.413255557 -1.621483488)
(1732.586793 2.601426946 -0.04080357146)
(1731.456791 1.319897082 -0.3989865985)
(1734.325686 2.104558398 0.8919322126)
(1734.986697 -2.286178405 0.1394631292)
(1733.188348 -0.4720642785 -2.109326354)
(1729.59495 -0.4448421068 -2.920154186)
(1729.061466 2.866626861 -1.574502597)
(1730.289196 1.613840024 0.9909633431)
(1729.812801 0.9381908634 0.3645975345)
(1731.818335 0.3524987311 2.034783447)
(1712.112621 -4.247920999 -4.711462533)
(1747.589028 -2.11427413 -7.285769639)
(1737.007952 -1.595242256 -8.93533941)
(1736.881958 -0.3927681487 -6.262588559)
(1737.706893 -1.038663396 -3.462846055)
(1735.731175 -2.161834483 -0.2617699204)
(1736.693629 -4.209868644 -0.7239896199)
(1734.793767 0.9859993457 -4.148930915)
(1733.523166 0.8346738226 -5.43881096)
(1731.032708 3.253141377 -9.583887081)
(1731.770881 1.66324654 -8.747236025)
(1734.644691 2.239144717 -6.262912376)
(1733.759957 5.953042566 -6.834636272)
(1733.426207 8.156249957 -5.656666539)
(1733.02897 3.220885761 -3.732503561)
(1736.978325 3.681348539 -4.72122354)
(1736.386375 2.783469895 -0.6710618157)
(1738.039822 0.4094121084 -1.386440408)
(1733.665701 2.844569604 -5.550970169)
(1732.93707 0.303461641 -5.133061675)
(1709.81557 -7.277849548 -0.0260662059)
(1746.347352 -5.112663283 0.8260456681)
(1736.935651 -0.4538235202 0.4980340257)
(1738.524592 -2.220051671 -0.6458930977)
(1736.460383 0.03134274854 -2.24458581)
(1736.781839 1.89193587 -2.616153731)
(1739.908544 2.658542611 -2.040962922)
(1739.822855 -0.8931785189 -4.357271637)
(1742.917706 -0.5050838578 0.4021252866)
(1743.210807 -3.123008799 0.03687946436)
(1742.071168 -0.6808953517 0.5576388272)
(1739.470149 0.575969767 -4.481228581)
(1736.666414 -2.163770092 -2.313879276)
(1736.947582 -1.368254056 -0.7007775688)
(1736.75014 5.285069592 0.2979391133)
(1734.994547 3.683999224 1.554762319)
(1735.291644 2.786347404 -0.9152560372)
(1734.014056 2.361924687 -0.7686096358)
(1735.691055 3.395023325 0.482712107)
(1733.733439 0.4633025313 -1.659464986)
(1710.956918 2.194390582 1.533609065)
(1750.686166 1.346230901 0.2440548979)
(1741.539415 -6.115467839 -1.46364116)
(1744.50304 -3.214334194 0.5334181036)
(1744.218933 -1.970196202 -0.05956738865)
(1743.252848 -0.8205101087 0.2108338543)
(1737.90971 0.262398734 -0.09586590152)
(1741.227818 2.976038178 2.339672797)
(1736.650138 3.088412651 3.928766771)
(1734.843798 2.378365523 2.61070123)
(1735.261544 4.241232569 5.90528354)
(1733.295131 -0.1232452798 2.770818292)
(1734.421625 0.1873735893 2.16284392)
(1732.059999 -0.4678099661 -0.8693192595)
(1732.145509 -3.67802967 -4.839068936)
(1734.537512 -2.880366868 -4.264496617)
(1732.70897 -0.6602806011 -3.685832972)
(1732.46457 2.752573884 -5.354208083)
(1734.017628 2.508055324 -4.487364392)
(1734.804985 7.52772843 -3.101962077)
(673.4829806 151.0706075 -7.926958052)
(606.9568301 174.1367646 -4.006250261)
(578.7394626 164.7301697 -6.269900888)
(531.415788 151.4493303 1.114487218)
(503.1254818 147.9653432 3.775259859)
(474.1589358 139.0062795 1.335966373)
(446.2252254 124.0884471 -1.920087485)
(420.3809647 124.8405495 -8.728704895)
(412.010627 114.5181193 -6.139355901)
(394.2253347 116.6219944 1.032920785)
(1063.709527 161.6734654 -11.58834134)
(946.235559 218.028965 -7.820998185)
(906.1793659 242.7675789 3.774538258)
(867.1291 250.470604 -3.213613514)
(822.7832236 244.9009107 -4.010941387)
(787.488243 242.9713051 -6.849670366)
(753.7315538 236.4958196 -5.267877997)
(718.6446444 223.4213564 -11.62685946)
(691.4257757 209.2510263 -4.138626463)
(662.9094404 202.8526474 -1.338876245)
(1281.488867 140.034474 -0.7416269409)
(1176.16211 199.7947064 -13.35093434)
(1112.727346 236.9044329 -1.904440747)
(1059.581621 266.2617647 -10.71845848)
(1009.131263 285.3772436 -8.865855194)
(986.9160626 297.8201368 -6.069287414)
(946.4114922 296.4450621 -5.978974122)
(915.0990987 287.6279363 -6.250356353)
(890.2612313 280.732134 -5.408336275)
(853.6369962 276.3896194 0.3489193497)
(1423.105824 105.1177615 4.627109351)
(1325.505106 162.0882414 2.789767668)
(1254.963181 210.5642884 1.592829648)
(1187.265025 247.513799 3.109185456)
(1141.841075 275.6711509 7.086323043)
(1115.033554 293.3773408 -5.079701599)
(1081.816573 314.740075 1.330965802)
(1070.38378 321.0517746 -7.589059233)
(1049.066638 328.7144336 -6.043617306)
(1013.762343 322.2855074 -3.899620012)
(1514.565733 84.85621021 -4.077068898)
(1439.900913 128.7623601 2.260690578)
(1381.472969 169.5670222 2.471155789)
(1317.207634 209.2724483 -0.05324229017)
(1284.031539 237.8705471 2.726302544)
(1250.607845 274.2508221 6.885406852)
(1198.81231 305.3946162 3.336657286)
(1179.403694 325.5283958 3.914068587)
(1145.081148 344.6259512 -0.3029114647)
(1121.438233 340.095582 4.262975169)
(1587.631386 61.70479769 -3.520226062)
(1528.847701 91.71509819 -2.901912918)
(1474.193967 134.5692934 6.475880083)
(1434.718563 172.8115555 0.7079868645)
(1385.782956 216.0222918 0.2311567187)
(1345.533479 240.8142881 -0.7046671275)
(1295.377661 277.475061 -3.583027313)
(1260.286546 301.1746436 2.979905167)
(1233.683398 322.3101085 9.122761361)
(1211.390347 332.4578791 0.6636233784)
(1634.10424 43.92862332 -1.016387822)
(1593.349395 69.33806225 -1.281758596)
(1556.651058 97.11612686 -5.984400323)
(1504.364805 140.6748571 -3.852842022)
(1473.010796 168.625227 -4.502885488)
(1434.1491 203.693272 -8.441862163)
(1401.663054 233.1806949 -9.510709906)
(1356.515053 272.5676631 -6.088887773)
(1327.248964 294.1637487 0.03655555936)
(1293.955719 315.2883436 0.725538394)
(1667.607764 35.21787785 -3.596381045)
(1626.53309 56.2975662 -6.165137556)
(1618.059411 71.82719667 0.6204670163)
(1566.757754 101.9696863 -1.894433277)
(1549.66687 129.5157768 2.797805582)
(1511.598658 165.5223663 3.019847812)
(1476.913178 189.3876939 -0.92476283)
(1432.784018 222.4012486 -3.843375961)
(1388.058471 255.3376956 -5.352678218)
(1367.132573 283.4273521 4.892230372)
(1677.701161 30.49167145 -1.965543544)
(1665.056455 38.87286378 1.609835372)
(1644.293405 54.71235806 -0.5770819409)
(1617.180259 72.88681593 0.800477613)
(1593.325284 100.8735308 6.294740335)
(1563.186863 125.9517417 9.42781514)
(1536.613039 155.6908691 3.079795908)
(1503.763498 185.7127539 -3.407280914)
(1473.747188 209.0887267 -3.359732785)
(1447.08855 236.0853366 -6.57396832)
(1699.223211 15.61942165 4.555333351)
(1687.453464 31.52750675 0.3035295874)
(1674.234826 42.66172935 1.495908014)
(1655.197515 53.36783534 -1.04500392)
(1640.943004 71.88097227 -0.2503127589)
(1607.987589 96.18578623 -1.921690246)
(1585.596992 115.9884577 -5.34789354)
(1567.056166 137.7984693 -1.532372428)
(1537.370286 175.4218752 -0.585806642)
(1516.747218 198.9836956 -2.4176312)
(1712.007978 14.51316983 0.3868944149)
(1692.849085 26.83446792 2.887095905)
(1686.31191 32.79353566 -4.796670591)
(1676.610133 46.14828785 -3.256522341)
(1665.179402 54.94383532 -3.6095943)
(1639.976736 72.8188738 -2.964617508)
(1622.664382 96.87474552 3.59121646)
(1591.258418 114.8096507 3.495381398)
(1570.486163 139.9301073 8.132617942)
(1554.276318 161.7406171 6.119242943)
(1720.040958 8.091551847 -0.9774162383)
(1705.094631 13.16467318 2.971944542)
(1702.699479 18.26262694 1.946974201)
(1685.64771 31.31980063 5.208379145)
(1678.568032 39.69456128 4.225938362)
(1665.062001 52.79893184 2.754804371)
(1646.85676 70.99810184 2.867349802)
(1625.441606 88.88409696 -1.861886821)
(1605.989046 104.5648644 -1.841697095)
(1598.178263 123.6933926 -1.81412514)
(1720.452141 10.48666528 0.2951298057)
(1708.269618 16.72817253 2.042247974)
(1698.653092 22.29575342 3.204738856)
(1699.947105 23.81272934 0.003987082321)
(1689.909329 34.64867429 -2.958123848)
(1673.244489 45.55398412 -5.161076618)
(1666.005508 47.21736224 -3.850370989)
(1664.876972 61.32491708 -4.604300501)
(1648.362766 80.1364881 -4.944031853)
(1630.593204 97.49465113 -4.848422326)
(1723.508544 2.864059504 -2.786010847)
(1716.050221 4.213632515 -4.443640741)
(1710.473454 13.88495327 -5.843413149)
(1708.826323 18.76835998 -1.78129794)
(1703.104414 21.98121897 -6.903949412)
(1696.762644 28.98301246 -6.407420164)
(1687.081661 33.8411274 -4.272538221)
(1683.346669 45.7737937 -4.849762214)
(1664.71706 56.60056082 -7.036931705)
(1659.733119 70.08851214 -1.849407742)
(1726.953045 5.264062883 -2.494555595)
(1722.090476 8.415574866 -4.977586516)
(1727.447357 8.316878793 -3.773344766)
(1720.465793 8.030166083 -3.838576403)
(1716.725144 14.38457718 -0.7331019561)
(1716.17603 18.39002131 0.02442125958)
(1706.796144 29.71481264 -0.2501918443)
(1697.205816 38.6100569 0.3075326421)
(1688.302421 52.39826666 0.4848860874)
(1679.685966 59.91318883 2.996239664)
(1736.551702 2.510235208 -3.800376927)
(1733.026906 1.85845436 -2.182938904)
(1730.408819 4.700810855 -5.694842412)
(1729.1245 5.817175495 -1.051665713)
(1722.876065 9.662335744 -0.43259452)
(1716.41572 15.74941554 -0.6375752109)
(1710.989158 21.8235018 -2.197862173)
(1701.444718 29.76221022 -0.3757909242)
(1686.413985 34.56465482 2.175438714)
(1680.854309 38.43227463 -2.662025553)
(1727.518731 0.0275728295 1.927537177)
(1726.971051 -1.495136541 4.005312952)
(1725.863522 -2.249788806 2.740221042)
(1723.992103 2.452415194 4.333820619)
(1724.791286 6.60264025 2.319974974)
(1719.753238 13.4345188 4.848541402)
(1712.918677 9.666123183 6.961007618)
(1714.527337 17.16582273 4.273456647)
(1709.566436 31.30661529 3.21596218)
(1705.272794 39.82583586 3.568555453)
(1731.021588 5.811106055 0.1852329198)
(1729.855302 10.01288538 -1.578369248)
(1729.587127 10.35681638 0.2169386679)
(1727.317291 7.886041756 0.006403594541)
(1723.256573 6.351690318 -1.176196078)
(1723.224391 6.29311947 -6.812535679)
(1723.491772 13.15420246 -7.760180995)
(1725.896017 16.01903751 -2.713509387)
(1719.229486 15.37226146 -5.221467388)
(1711.151712 24.38290667 -4.099853035)
(1729.846987 3.50366362 -0.3159512783)
(1729.753617 3.839460582 -2.84428086)
(1729.51927 6.341330281 -4.976670455)
(1727.67382 4.896070018 -4.352592412)
(1736.224656 8.40966 -5.195774582)
(1734.273525 13.11916084 -0.6397071975)
(1728.141946 14.68607164 -3.819234595)
(1725.294058 15.58501446 -3.496024454)
(1719.044675 19.33896814 0.2101767105)
(1715.921864 19.80882979 0.1148155733)
(1735.486248 -0.9815758632 -3.510761406)
(1737.577676 -3.110483322 -2.612775974)
(1736.037588 -0.07273266159 1.831490152)
(1734.890795 6.920527372 0.2152728225)
(1731.333707 10.10995094 -1.04476975)
(1729.275611 9.131697207 -0.6072722553)
(1726.736984 11.0134393 0.7976227445)
(1726.195158 13.87706735 0.9436648171)
(1723.582423 15.50417279 -0.2083646078)
(1721.750246 16.72056413 0.4596081234)
(1733.78995 1.739319536 -2.028913829)
(1733.329864 6.504592519 -2.404992482)
(1734.103144 5.804316456 -3.412338342)
(1734.42454 4.510179389 -1.579265542)
(1734.401126 3.388946606 2.646161743)
(1732.345152 4.165626038 0.8200745718)
(1729.836676 3.965678052 1.251606346)
(1726.833324 8.527316448 -0.6713682553)
(1725.86985 12.26681815 4.26966488)
(1724.635612 13.11736722 9.219681404)
(1737.269765 4.792582391 -2.137106804)
(1736.873223 5.652820122 -1.621771342)
(1732.525256 6.688901125 -3.125046447)
(1733.803049 5.178825401 -5.072326682)
)
;

boundaryField
{
    flow
    {
        type            calculated;
        value           nonuniform List<vector> 
42
(
(1709.850597 -5.751649186 -4.442864146)
(1711.287605 1.951598209 -2.682564832)
(1708.220672 -1.236488694 5.72763825)
(1708.375313 -8.130626636 -0.6970987219)
(1708.856945 -2.194448133 0.2386479773)
(1708.300785 4.100589681 0.08801162294)
(1708.382246 2.363987645 -4.4060082)
(1709.109119 -5.412711493 -4.933739052)
(1706.930814 -4.75506404 -4.262880787)
(1710.835651 -0.6724320101 6.125129949)
(1699.899493 2.781369643 -3.124792116)
(1708.316833 -0.6037917316 -2.15030183)
(1703.121587 4.167968606 -0.9029435777)
(1704.952927 2.746986307 -5.476899925)
(1709.818429 4.897815316 5.396462366)
(1706.455035 -5.532025951 -1.11877175)
(1706.088659 8.036902895 0.1478771669)
(1713.181616 -3.745399283 2.516974142)
(1703.84462 4.847449387 -2.982355328)
(1712.112621 -4.247920999 -4.711462533)
(1709.81557 -7.277849548 -0.0260662059)
(1710.956918 2.194390582 1.533609065)
(1709.850597 -5.751649186 -4.442864146)
(1748.423075 -6.239838643 -5.483800936)
(1739.768078 -6.765371643 -3.778817933)
(1739.860584 -5.818183199 -3.486990996)
(1737.518992 -6.100828354 -5.695494981)
(1738.369317 -6.877637231 -3.267277698)
(1737.955026 -6.68991186 0.6282912983)
(1737.345274 -8.724660628 -1.360272951)
(1733.300896 -8.937471699 0.5488323482)
(1733.040127 -9.486310418 -0.1798991039)
(1732.855752 -7.630847683 0.01729677962)
(1729.050804 -4.046832211 -1.833069838)
(1731.110526 -2.715286125 -2.276449826)
(1731.092423 -1.952215771 -2.108666853)
(1725.074781 -2.984099924 -1.742744465)
(1718.20449 -5.743275936 -1.743533982)
(1701.995914 -11.42666767 1.264284119)
(1664.571959 -17.6257447 0.8634327273)
(1567.481428 -21.1376056 -2.30848213)
(1179.442262 11.02610037 3.201948587)
)
;
    }
    obstacle
    {
        type            calculated;
        value           nonuniform List<vector> 10((428.503488 114.8171635 1.335076413) (354.1624948 94.89755451 1.26119384) (308.6803944 82.71066239 -12.12542053) (281.3515363 75.38791693 -3.50370419) (271.777217 72.82248577 11.09866225) (243.607761 65.27450294 23.6599003) (209.9180703 56.24737723 10.0642143) (214.0496306 57.35442575 0.4696545985) (212.9114462 57.04945016 -32.37050185) (212.2000631 56.85883536 -3.73290269));
    }
    frontAndBack
    {
        type            empty;
    }
    procBoundary0to1
    {
        type            processor;
        value           nonuniform List<vector> 
21
(
(379.3751801 105.9997775 2.403795129)
(644.2655549 200.8885323 -7.949358084)
(838.1849713 268.5751501 -10.51297016)
(997.0923444 314.7392107 -0.02866088127)
(1110.117996 341.2339963 -1.713801727)
(1187.113569 347.0567304 -0.9021677478)
(1270.665598 337.4029712 -2.241929894)
(1335.688702 309.2875125 -2.826246193)
(1420.455581 273.4536629 -0.2128169868)
(1477.46677 227.6189711 2.299491438)
(1528.615884 185.832637 -2.884672175)
(1568.767782 148.9588557 0.6101335009)
(1618.606734 109.2662318 -5.775163729)
(1642.672633 91.64498259 0.2277612943)
(1672.517541 65.19462722 0.6312944973)
(1676.551399 51.84060564 0.08817551445)
(1697.885916 47.30173914 2.724329084)
(1705.521371 32.17545233 -1.710845762)
(1706.654615 25.65925588 1.297711997)
(1719.706293 17.93813748 -1.336915917)
(1720.286266 16.83150792 7.485808197)
)
;
    }
    procBoundary0to2
    {
        type            processor;
        value           nonuniform List<vector> 
31
(
(1710.03135 -3.559383824 1.768101893)
(1744.911196 -0.3163786548 0.6041489286)
(1733.97473 3.595031912 0.7268622304)
(1730.857049 4.186571371 -1.007234925)