/*--------------------------------*- C++ -*----------------------------------*\
| =========                 |                                                 |
| \\      /  F ield         | OpenFOAM: The Open Source CFD Toolbox           |
|  \\    /   O peration     | Version:  2406                                  |
|   \\  /    A nd           | Website:  www.openfoam.com                      |
|    \\/     M anipulation  |                                                 |
\*---------------------------------------------------------------------------*/
FoamFile
{
    version     2.0;
    format      ascii;
    arch        "LSB;label=32;scalar=64";
    class       Cloud<dsmcParcel>;
    location    "0.009/lagrangian/dsmc";
    object      coordinates;
}
// * * * * * * * * * * * * * * * * * * * * * * * * * * * * * * * * * * * * * //

5115
(
(0.03066517981 0.4846674101 0.2554543711 0.229213039) 441 855 1
(0.3373662 0.3313169 0.2451710563 0.08614584365) 413 783 1
(0.3074882896 0.3462558552 0.1643354342 0.181920421) 475 917 2
(0.03138675537 0.4843066223 0.02424339362 0.4600632287) 524 1013 1
(0.00251209283 0.2220511756 0.4987439536 0.276692778) 423 818 1
(0.1803856607 0.09735138317 0.3124557865 0.4098071697) 532 1027 1
(0.5502745322 0.1783014117 0.2248627339 0.04656132218) 485 936 1
(0.2071693392 0.3964153304 0.3606043159 0.03581101452) 444 861 1
(0.007872830142 0.2120260292 0.4960635849 0.2840375557) 385 748 2
(0.3398927408 0.04857708373 0.3300536296 0.2814765459) 455 879 1
(0.3426397561 0.328680122 0.1205842436 0.2080958784) 434 841 2
(0.007782021716 0.2813225919 0.2147863973 0.4961089891) 414 785 2
(0.2185800937 0.3907099531 0.3690435697 0.02166638343) 505 974 2
(0.04329001336 0.02308430358 0.4783549933 0.4552706897) 455 879 1
(0.1417530652 0.4291234674 0.1352314406 0.2938920268) 455 881 1
(0.154363888 0.422818056 0.2366433019 0.1861747541) 504 974 2
(0.7930074318 0.06193969604 0.1034962841 0.04155658804) 475 919 2
(0.333677483 0.3331612585 0.2505004313 0.0826608272) 483 916 1
(0.4445060338 0.1655289575 0.1122180256 0.2777469831) 464 880 2
(0.7716465547 0.0002113466219 0.1141767226 0.113965376) 484 934 1
(0.6671068278 0.1664465861 0.009858545249 0.1565880409) 483 934 2
(0.8893425263 0.02147668736 0.03385204949 0.05532873685) 394 747 2
(0.1509259795 0.3902049266 0.03433208359 0.4245370102) 394 765 1
(0.1638370749 0.1958089126 0.4180814626 0.22227255) 414 801 1
(0.1666377396 0.2438828138 0.4166811302 0.1727983164) 431 833 1
(0.4110778896 0.2944610552 0.08733791658 0.2071231386) 492 951 2
(0.1532208773 0.4233895614 0.07186794589 0.3515216155) 445 860 2
(0.07726980481 0.4600826545 0.4613650976 0.001282443104) 365 710 2
(0.08885431898 0.07055174575 0.3850210948 0.4555728405) 405 767 2
(0.7846829812 0.04407545012 0.1076585094 0.06358305928) 415 805 2
(0.1766035223 0.4116982388 0.1485952499 0.2631029889) 474 915 2
(0.7245714989 0.04557481209 0.09213943846 0.1377142505) 392 743 2
(0.3171300005 0.05966025041 0.2817747493 0.3414349998) 395 2217 1
(0.1648715678 0.2332426496 0.4175642161 0.1843215665) 464 896 1
(0.1559432422 0.3251595114 0.09686886745 0.4220283789) 473 915 1
(0.3854679701 0.2960245748 0.01124144012 0.3072660149) 468 887 2
(0.0004006624052 0.2943780674 0.4997996688 0.2054216014) 445 862 2
(0.3555919649 0.007687646631 0.3145163709 0.3222040176) 452 857 2
(0.5272638449 0.2363680775 0.08818095112 0.1481871264) 454 861 1
(0.06686596513 0.05549521433 0.4110718031 0.4665670174) 385 729 2
(0.4214837166 0.2892581417 0.2354773757 0.05378076604) 394 765 2
(0.5063554675 0.2137917592 0.03303050704 0.2468222662) 391 759 1
(0.2268613048 0.08816777497 0.3865693476 0.2984015727) 412 800 2
(0.2792312756 0.3603843622 0.3562407578 0.004143604375) 507 979 2
(0.266711762 0.366644119 0.05936454902 0.30727957) 492 949 2
(0.4667306979 0.06345599411 0.2031786569 0.266634651) 491 949 1
(0.01982572096 0.4900871395 0.07826357007 0.4118235695) 489 946 1
(0.04235639953 0.2684277284 0.4788218002 0.2103940719) 484 937 2
(0.2465896126 0.2112107713 0.1654944224 0.3767051937) 545 2232 1
(0.2872775696 0.2195360964 0.3563612152 0.1368251187) 501 969 2
(0.08933241131 0.3747623094 0.4553337943 0.08057148494) 465 898 1
(0.5348602848 0.2325698576 0.1963637273 0.03620613028) 380 739 1
(0.4593181068 0.1945059463 0.2703409466 0.07583500035) 394 766 2
(0.004797913614 0.4976010432 0.4336009248 0.06400011835) 472 913 2
(0.1249116969 0.4375441516 0.2246463698 0.2128977818) 414 803 2
(0.2777198635 0.1414738636 0.2196662047 0.3611400682) 463 896 1
(0.5120026658 0.2439986671 0.1942873525 0.04971131461) 504 974 2
(0.3661511782 0.1098829236 0.2070414872 0.3169244109) 445 843 2
(0.3182282683 0.1619008211 0.1789850448 0.3408858659) 434 823 2
(0.2514683867 0.3742658067 0.1053708448 0.2688949619) 532 1027 2
(0.3133483823 0.3433258089 0.2738151391 0.06951066976) 525 2230 2
(0.12856988 0.43571506 0.00732043012 0.4283946299) 435 824 1
(0.3706737918 0.3146631041 0.1635980675 0.1510650366) 444 858 2
(0.4548511356 0.1955980085 0.07697642371 0.2725744322) 450 871 1
(0.2212408111 0.02684837546 0.3893795944 0.362531219) 423 821 2
(0.5541066169 0.1669902748 0.2229466915 0.05595641675) 413 802 2
(0.2667220683 0.3666389659 0.3046195524 0.06201941343) 470 910 1
(0.3061363145 0.3469318428 0.2006250314 0.1463068114) 513 989 2
(0.6723999288 0.1638000356 0.1155770397 0.04822299591) 479 924 2
(0.7206816881 0.1267406888 0.139659156 0.01291846714) 520 1002 1
(0.6959061732 0.1520469134 0.002960385939 0.1490865275) 404 766 1
(0.1301398924 0.4349300538 0.3397533394 0.09517671442) 464 898 2
(0.1140418426 0.2090594052 0.4429790787 0.2339196735) 412 797 1
(0.02217417549 0.1075702536 0.4889129123 0.3813426587) 383 742 1
(0.4216141746 0.2891929127 0.07504285956 0.2141500531) 503 954 1
(0.6390488155 0.01058645056 0.1804755922 0.1698891417) 399 772 1
(0.1715316757 0.4011744928 0.4142341621 0.01305966933) 392 759 1
(0.04536773731 0.0839688657 0.3933472656 0.4773161313) 404 784 1
(0.2399474113 0.1776046782 0.2024216161 0.3800262943) 501 950 2
(0.2016948323 0.2123708748 0.3991525838 0.186781709) 474 918 2
(0.1812030973 0.4093984513 0.1758403627 0.2335580887) 455 862 1
(0.07883562176 0.3728289928 0.4605821891 0.08775319634) 445 862 2
(0.06481501638 0.4675924918 0.4356487274 0.03194376438) 503 954 1
(0.4723183731 0.2638408135 0.03692390467 0.2269169088) 453 859 1
(0.01553940063 0.3996863136 0.09254398606 0.4922302997) 474 899 2
(0.2137722199 0.39311389 0.0763888061 0.3167250839) 465 881 1
(0.6593393065 0.1199361086 0.0503942381 0.1703303467) 464 898 1
(0.2224816369 0.3887591815 0.02735641512 0.3614027664) 435 2221 2
(0.7495532215 0.07008137422 0.1252233892 0.055142015) 533 1027 1
(0.215664839 0.3921675805 0.1923549334 0.1998126471) 435 824 1
(0.04432153686 0.4778392316 0.4287830533 0.04905617829) 402 780 2
(0.1823621577 0.04933364405 0.3594852771 0.4088189211) 395 2217 1
(0.5377289742 0.163222843 0.2311355129 0.06791266986) 411 798 2
(0.1844524074 0.07416505842 0.3336087379 0.4077737963) 421 798 2
(0.1440071533 0.4279964234 0.4018912773 0.02610514605) 424 804 1
(0.3862668969 0.3068665515 0.2284867203 0.0783798312) 424 822 2
(0.5718806845 0.2140596578 0.1805935746 0.03346608312) 415 786 1
(0.1996685684 0.4001657158 0.3219267911 0.07823892472) 542 1087 1
(0.05045807121 0.1723271691 0.3024437953 0.4747709644) 455 2223 1
(0.4456566821 0.277171659 0.2571899166 0.01998174239) 424 822 2
(0.2632533295 0.3683733352 0.2251308349 0.1432425003) 483 932 2
(0.2927897109 0.3536051445 0.252177063 0.1014280815) 472 914 1
(0.2182679709 0.08469391355 0.306172101 0.3908660146) 485 919 2
(0.02014401736 0.4899279913 0.2752245604 0.2147034309) 501 950 1
(0.5716296991 0.2141851505 0.09007674601 0.1241084045) 524 994 1
(0.4935771476 0.2532114262 0.2248132453 0.0283981809) 489 943 2
(0.1258717947 0.4370641026 0.3781653856 0.05889871704) 524 1010 2
(0.1226858249 0.4386570876 0.1667098197 0.2719472679) 524 1010 2
(0.4185217396 0.2907391302 0.1175976174 0.1731415128) 471 912 1
(0.4398064623 0.1617554241 0.2800967688 0.1183413448) 364 709 2
(0.3950247927 0.1941972111 0.1082903926 0.3024876037) 453 859 2
(0.6570400533 0.1714799734 0.03085992146 0.1406200519) 423 802 1
(0.4952501563 0.2523749218 0.1762871285 0.0760877933) 434 839 2
(0.5032261341 0.2314819825 0.2483869329 0.01690495045) 425 824 2
(0.7099688965 0.1450155517 0.041070323 0.1039452287) 425 805 1
(0.07147327821 0.4442735036 0.01998985731 0.4642633609) 421 816 1
(0.2209162315 0.2729892796 0.3895418843 0.1165526047) 434 842 2
(0.4105491835 0.1687448673 0.2947254082 0.1259805409) 465 898 1
(0.7156334836 0.1421832582 0.0169341833 0.1252490749) 452 873 2
(0.4606126956 0.2696936522 0.2632635007 0.00643015147) 534 1013 1
(0.2970361323 0.3514819338 0.1148343051 0.2366476288) 491 949 2
(0.4414590132 0.2792704934 0.1133821728 0.1658883206) 514 993 2
(0.4651247571 0.2674376214 0.187805401 0.07963222048) 534 1031 2
(0.04654527715 0.3198895163 0.1568378451 0.4767273614) 375 710 2
(0.637224714 0.1090389791 0.181387643 0.07234866388) 385 746 1
(0.479546859 0.1478870597 0.1123395108 0.2602265705) 432 819 2
(0.2007776727 0.1966768016 0.3996111636 0.202934362) 464 896 1
(0.4541648058 0.1469959786 0.1259216185 0.2729175971) 465 2224 1
(0.05338274286 0.3614008502 0.4733086286 0.1119077783) 455 879 1
(0.2977047284 0.0155276222 0.3356200136 0.3511476358) 472 913 1
(0.1154595052 0.4422702474 0.3228064179 0.1194638295) 448 849 1
(0.4852409691 0.2573795155 0.1569166067 0.1004629088) 440 852 2
(0.04531638821 0.4773418059 0.1136845984 0.3636572075) 465 900 1
(0.02407152169 0.4879642392 0.1417626597 0.3462015795) 481 930 2
(0.4381503479 0.280924826 0.05276109014 0.2281637359) 525 995 1
(0.2509403263 0.2288341553 0.1456956815 0.3745298368) 515 2229 1
(0.07679517155 0.2543351966 0.2072672176 0.4616024142) 543 1030 2
(0.4104561497 0.1542328626 0.1405390626 0.2947719252) 513 991 1
(0.2853084705 0.2543607596 0.1029850052 0.3573457647) 528 1019 1
(0.102287601 0.3300558942 0.1188003053 0.4488561995) 535 1014 2
(0.1212840062 0.4393579969 0.2058488217 0.2335091752) 465 2224 2
(0.4714734408 0.2642632796 0.1565014602 0.1077618194) 424 820 2
(0.05825027165 0.007138454104 0.4708748642 0.4637364101) 409 791 1
(0.07147440422 0.3154928789 0.148769919 0.4642627979) 382 742 1
(0.05504649425 0.4724767529 0.3598729788 0.1126037741) 415 2219 2
(0.6534556354 0.1113484619 0.06192372041 0.1732721823) 375 710 2
(0.2008783431 0.2985424502 0.1010183782 0.3995608284) 405 2218 1
(0.3776511385 0.3111744307 0.08635273266 0.2248216981) 444 858 2
(0.4344576142 0.2827711929 0.04492660351 0.2378445894) 424 823 1
(0.36981939 0.3022004579 0.315090305 0.01288984709) 413 802 2
(0.5206114269 0.2075243208 0.2396942866 0.03216996581) 465 898 1
(0.6974499636 0.1512750182 0.07587672045 0.07539829777) 415 803 2
(0.02603935966 0.4869803202 0.04580513715 0.441175183) 445 862 1
(0.1068075896 0.2924619976 0.1541342076 0.4465962052) 463 896 1
(0.2406221118 0.3796889441 0.1000336345 0.2796553097) 435 824 1
(0.7135763282 0.03430082417 0.1432118359 0.1089110117) 474 918 2
(0.007648658915 0.4961756705 0.02624982049 0.46992585) 512 987 2
(0.03582306102 0.4820884695 0.3679029424 0.1141855271) 510 986 1
(0.662878498 0.1433295377 0.168560751 0.02523121331) 470 907 1
(0.234029933 0.3829850335 0.2550701981 0.1279148354) 483 932 2
(0.2608920459 0.3695539771 0.001487556427 0.3680664206) 484 936 2
(0.1993511553 0.2711027895 0.1292216329 0.4003244224) 484 936 1
(0.0478662768 0.4611635788 0.0149032828 0.4760668616) 518 982 2
(0.6494862854 0.1752568573 0.06128824087 0.1139686164) 512 989 2
(0.2731784172 0.3634107914 0.176608772 0.1868020194) 515 993 2
(0.2056159376 0.3971920312 0.2086952318 0.1884967994) 383 745 1
(0.01849485921 0.2226328021 0.4907525704 0.2681197683) 119 238 2
(0.3920537048 0.1161221903 0.3039731476 0.1878509573) 372 721 1
(0.05842112598 0.07119048564 0.3995989514 0.470789437) 371 721 1
(0.5546823141 0.222658843 0.03966689565 0.1829919473) 452 857 1
(0.3873652845 0.1422228556 0.1640945022 0.3063173578) 423 802 2
(0.5606532223 0.0993080719 0.2196733889 0.120365317) 414 801 1
(0.1438074949 0.4280962525 0.3221006766 0.1059955759) 451 873 2
(0.9469179917 0.02654100414 0.005862496589 0.02067850755) 421 816 2
(0.4208714066 0.131134102 0.1584301948 0.2895642967) 495 938 2
(0.02731105563 0.3693346123 0.1170098599 0.4863444722) 473 897 2
(0.1168163862 0.4415918069 0.1009802009 0.3406116061) 503 970 2
(0.5352946706 0.09754369501 0.1348089697 0.2323526647) 472 913 1
(0.2815556748 0.1109516158 0.2482705468 0.3592221626) 483 916 2
(0.1848267388 0.4075866306 0.1895078782 0.2180787524) 473 915 2
(0.6536553396 0.1641798979 0.1731723302 0.008992432296) 418 808 1
(0.257117408 0.04214984387 0.3292914521 0.371441296) 524 994 2
(0.441271135 0.2793644325 0.2553553323 0.02400910023) 505 957 1
(0.2638402984 0.2185726396 0.3680798508 0.1495072112) 510 983 1
(0.03571881166 0.4821405942 0.03419810484 0.4479424893) 464 898 2
(0.2301848621 0.148809658 0.3849075689 0.2360979109) 522 1009 2
(0.3124921808 0.1750853379 0.3437539096 0.1686685717) 487 942 2
(0.7260112902 0.1369943549 0.1257320799 0.01126227499) 541 1039 2
(0.5999571824 0.09420008377 0.2000214088 0.105821325) 523 1008 1
(0.7321064708 0.1339467646 0.1300178418 0.00392892283) 524 1013 1
(0.1030264202 0.3690788576 0.4484867899 0.07940793226) 504 972 1
(0.04926391931 0.3575889229 0.1177791174 0.4753680403) 514 993 1
(0.2364726692 0.3817636654 0.05942700089 0.3223366645) 530 1021 2
(0.1616417711 0.1505514687 0.4191791144 0.2686276457) 524 1010 1
(0.4512191678 0.009965957895 0.2743904161 0.2644244582) 364 709 2
(0.7303203975 0.05798722516 0.07685257607 0.1348398012) 405 767 2
(0.03154644498 0.4842267775 0.4072454657 0.07698131179) 375 727 2
(0.4426726952 0.2502883669 0.2786636524 0.0283752855) 401 776 1
(0.5587721016 0.0396330868 0.1809808624 0.2206139492) 452 857 2
(0.2487257786 0.3756371107 0.3211872323 0.05444987843) 414 801 2
(0.2040287705 0.3979856148 0.369544414 0.02844120078) 424 823 1
(0.2378815753 0.3810592124 0.2052276708 0.1758315416) 424 822 2
(0.03710346794 0.1376767523 0.3437715137 0.481448266) 434 823 2
(0.3914440562 0.3042779719 0.1568129419 0.14746503) 382 740 2
(0.6424370483 0.1787814759 0.07838208399 0.1003993919) 402 778 2
(0.07209212344 0.4639539383 0.1096989364 0.3542550019) 362 705 1
(0.4999687612 0.2500156194 0.1359684334 0.114047186) 434 841 2
(0.3229525312 0.2295570368 0.1089666976 0.3385237344) 498 962 1
(0.4529107892 0.2735446054 0.006101524319 0.2674430811) 503 954 1
(0.1015384786 0.06238772803 0.3868430327 0.4492307607) 417 790 2
(0.2608462049 0.3695768976 0.301543559 0.06803333857) 474 918 1
(0.2118795687 0.3940602156 0.1227100958 0.2713501198) 465 2224 2
(0.1912043777 0.3491408664 0.4043978112 0.05525694477) 461 893 2
(0.1877533351 0.4061233325 0.1566695141 0.2494538183) 278 517 1
(0.5605584268 0.2061381337 0.2197207866 0.01358265284) 490 948 2
(0.3860717975 0.08238194438 0.2245821569 0.3069641013) 460 890 1
(0.5336547862 0.1464132343 0.08675937256 0.2331726069) 535 2231 1
(0.6749633934 0.1265780158 0.1625183033 0.03594028743) 468 906 2
(0.05440190272 0.203505826 0.2692932226 0.4727990486) 540 1024 2
(0.154545884 0.422727058 0.1157704826 0.3069565754) 523 1010 2
(0.1536499858 0.3875578935 0.4231750071 0.03561711363) 533 1027 1
(0.285938187 0.3570309065 0.1461478906 0.2108830159) 515 2229 2
(0.006947359461 0.4965263203 0.01205637854 0.4844699417) 473 915 2
(0.2513544182 0.3743227909 0.08551079927 0.2888119916) 405 767 1
(0.4409110544 0.1181208631 0.2795444728 0.1614236097) 422 819 2
(0.524690677 0.1398169235 0.09783773801 0.2376546615) 400 758 2
(0.5681573284 0.2159213358 0.07665224212 0.1392690937) 423 821 1
(0.03409848037 0.4647162941 0.01823446568 0.4829507598) 421 798 2
(0.2331425887 0.3306336834 0.3834287056 0.05279502224) 365 708 1
(0.5102747161 0.244862642 0.005090892119 0.2397717498) 442 856 2
(0.5345611282 0.05145731968 0.1812621162 0.2327194359) 383 726 2
(0.06006144644 0.4699692768 0.1491552788 0.320813998) 455 2223 2
(0.2262719384 0.2597580702 0.1271059606 0.3868640308) 400 776 1
(0.3269943506 0.07072693323 0.3365028247 0.2657758915) 475 919 2
(0.5447452964 0.1120103692 0.1156169826 0.2276273518) 412 799 1
(0.08738491174 0.4563075441 0.05301973561 0.4032878085) 433 839 2
(0.1522264551 0.4238867724 0.371659053 0.05222771945) 463 896 2
(0.04447720574 0.09595296783 0.4777613971 0.3818084293) 431 836 2
(0.3158638432 0.3420680784 0.01808713078 0.3239809476) 464 898 2
(0.4700886103 0.1837155931 0.2649556948 0.08124010175) 459 889 2
(0.3707405892 0.3146297054 0.0893081724 0.225321533) 464 898 2
(0.4710171564 0.2644914218 0.1218200486 0.1426713732) 442 838 1
(0.1235618378 0.2287898989 0.2094291822 0.4382190811) 412 799 1
(0.08408459868 0.1789249743 0.2790327264 0.4579577007) 443 840 2
(0.5783192476 0.2108403762 0.07345255027 0.1373878259) 474 915 2
(0.6703518879 0.164824056 0.1090700627 0.0557539933) 493 935 1
(0.269010664 0.2030461101 0.365494668 0.1624485579) 457 885 2
(0.3457972876 0.2308167218 0.3271013562 0.09628463434) 448 868 2
(0.954138779 0.01667255278 0.006258057696 0.02293061048) 523 992 2
(0.4577176344 0.2711411828 0.01042757602 0.2607136068) 524 1012 2
(0.008076118462 0.4959619408 0.3648890919 0.1310728489) 455 862 1
(0.3099048123 0.3450475939 0.03211413334 0.3129334605) 494 955 2
(0.05006297244 0.4749685138 0.2925377793 0.1824307345) 505 976 1
(0.5394293715 0.1034842918 0.2302853143 0.1268010224) 509 984 2
(0.1760617193 0.4119691403 0.09684813166 0.3151210087) 541 1038 2
(0.229950068 0.385024966 0.1063281391 0.2786968269) 475 2225 2
(0.2742585742 0.3526491674 0.01022154551 0.3628707129) 473 915 1
(0.2186197952 0.3906901024 0.04024868382 0.3504414186) 502 970 2
(0.0487249865 0.4756375067 0.2312130945 0.2444244122) 498 962 2
(0.1532388222 0.4233805889 0.2162889916 0.2070915973) 543 1030 1
(0.3630435777 0.3184782111 0.006745891129 0.31173232) 465 898 2
(0.277140168 0.1667743643 0.1946555517 0.361429916) 522 1008 1
(0.8412880908 0.03443462608 0.07935595459 0.04492132851) 513 989 1
(0.483785117 0.01347372671 0.2446337148 0.2581074415) 538 1036 1
(0.002040469378 0.2997790282 0.1992007372 0.4989797653) 515 2229 1
(0.4160829929 0.2919585036 0.08217955048 0.2097789531) 365 708 2
(0.1693227682 0.2809318082 0.4153386159 0.1344068077) 413 802 2
(0.3859221022 0.3070389489 0.09529215616 0.2117467927) 381 740 2
(0.0466808313 0.4766595843 0.4422097178 0.03444986652) 380 738 2
(0.5602512352 0.1090351205 0.1108392619 0.2198743824) 435 2221 1
(0.7033811466 0.1055380821 0.1483094267 0.04277134458) 374 728 2
(0.2929311559 0.004237013205 0.3535344221 0.3492974089) 394 766 2
(0.0146499791 0.1203424913 0.3723325192 0.4926750105) 432 819 2
(0.2883848993 0.3558075504 0.08859720785 0.2672103425) 390 758 1
(0.193033345 0.1581570095 0.4034833275 0.245326318) 440 853 2
(0.2479894727 0.3760052637 0.3611840269 0.01482123677) 406 769 1
(0.3141458824 0.3006387311 0.3429270588 0.04228832774) 473 913 1
(0.6084865013 0.1957567493 0.1838335318 0.01192321757) 403 782 2
(0.3434250076 0.1502385545 0.1780489417 0.3282874962) 421 798 2
(0.09547163341 0.4522641833 0.3343924995 0.1178716838) 425 2220 2
(0.3874909633 0.164569942 0.3062545183 0.1416845763) 495 957 2
(0.105563545 0.2904066053 0.4472182275 0.1568116222) 445 860 1
(0.3924896656 0.3037551672 0.09820542732 0.2055497399) 472 895 1
(0.2348364007 0.3825817996 0.3629695415 0.01961225817) 443 858 2
(0.04303426949 0.4784828653 0.3141502046 0.1643326607) 494 937 1
(0.2391698468 0.3804150766 0.3526883056 0.02772677103) 441 855 1
(0.2691972666 0.2619268667 0.3654013667 0.1034745) 425 824 2
(0.7859922945 0.1070038528 0.08070761946 0.02629623331) 491 949 2
(0.2848884987 0.3575557507 0.007235826461 0.3503199242) 493 954 1
(0.3807332473 0.2495147517 0.3096333764 0.06011862464) 454 880 2
(0.253821986 0.373089007 0.36304317 0.01004583697) 504 975 1
(0.352354964 0.323822518 0.0435297275 0.2802927905) 445 843 1
(0.1202003519 0.0676975611 0.372202263 0.4398998241) 475 900 2
(0.2919869426 0.3540065287 0.03358138177 0.3204251469) 424 823 1
(0.5344494719 0.2231993568 0.2327752641 0.009575907219) 475 919 2
(0.4615936592 0.04490075184 0.2243024186 0.2692031704) 482 914 2
(0.2774865057 0.3416113769 0.3612567472 0.01964537024) 468 906 2
(0.5098169788 0.2450915106 0.2344443736 0.01064713697) 435 824 1
(0.008075906151 0.4959620469 0.2416726883 0.2542893586) 525 995 1
(0.395073235 0.3024633825 0.1861927812 0.1162706014) 480 928 2
(0.6202797541 0.1898601229 0.1568710533 0.03298906964) 532 1009 1
(0.691507937 0.1542460315 0.03332736087 0.1209186706) 513 989 2
(0.6733530035 0.1633234982 0.02961403226 0.133709466) 477 904 1
(0.2347716704 0.3826141648 0.02316955449 0.3594446103) 505 957 1
(0.09563912386 0.07594439909 0.4521804381 0.376236039) 545 1042 1
(0.002984248695 0.4985078757 0.28866352 0.2098443557) 494 937 1
(0.0250953371 0.4404964235 0.4874523315 0.04695590794) 375 729 2
(0.6637405324 0.06644398438 0.1016857494 0.1681297338) 364 2207 1
(0.1535229331 0.3483669992 0.4232385334 0.07487153421) 382 743 2
(0.526135388 0.09574703703 0.141185269 0.236932306) 417 808 1
(0.3993190735 0.2051144728 0.3003404632 0.09522599046) 435 843 2
(0.03394463117 0.4830276844 0.2218296017 0.2611980827) 364 706 2
(0.2860268165 0.3569865918 0.2713943108 0.08559228097) 414 803 2
(0.366868336 0.1881575675 0.316565832 0.1284082645) 441 855 2
(0.4137817966 0.2931091017 0.001806803244 0.2913022985) 412 800 1
(0.3994673983 0.1634057366 0.3002663008 0.1368605642) 375 727 1
(0.2303580453 0.01543130372 0.3848209774 0.3693896736) 420 815 2
(0.4927156703 0.2536421648 0.1690199186 0.08462224624) 462 876 1
(0.8043822435 0.09780887827 0.003654650461 0.09415422781) 423 821 1
(0.2318689365 0.2840818005 0.09998373128 0.3840655317) 450 871 1
(0.2684211339 0.04872121679 0.3170682162 0.365789433) 423 820 1
(0.06727758094 0.1624878383 0.4663612095 0.3038733712) 375 727 1
(0.2896650696 0.3551674652 0.2875494306 0.0676180346) 444 861 1
(0.1782191227 0.3202853865 0.4108904387 0.09060505214) 383 742 1
(0.4596469992 0.07607171727 0.2701765004 0.1941047831) 398 770 1
(0.1912668579 0.00803136902 0.396335202 0.404366571) 465 881 2
(0.0635027033 0.4560152918 0.4682486484 0.01223335655) 504 975 2
(0.7031896243 0.1484051879 0.003700240542 0.1447049473) 473 916 1
(0.07930057176 0.2307446944 0.4603497141 0.2296050197) 463 894 1
(0.003004364648 0.4984978177 0.1262064268 0.3722913909) 422 819 1
(0.6113709631 0.05189809607 0.1424164224 0.1943145185) 425 2220 1
(0.3714399981 0.314280001 0.07703665321 0.2372433477) 499 946 1
(0.5383006701 0.095969383 0.134880282 0.230849665) 434 841 1
(0.5163669467 0.2005156391 0.2418165266 0.04130088756) 493 954 2
(0.5745433756 0.2127283122 0.04746238388 0.1652659283) 504 972 2
(0.07490232205 0.1806385322 0.462548839 0.2819103068) 475 917 1
(0.6846199075 0.1576900463 0.01877790786 0.1389121384) 451 874 1
(0.04961493362 0.4751925332 0.2151301034 0.2600624298) 525 995 1
(0.6480398373 0.1085074497 0.1759800814 0.0674726317) 495 957 2
(0.3204652701 0.3397673649 0.3174354138 0.02233195114) 540 1024 1
(0.03706152951 0.086055935 0.3954133002 0.4814692352) 512 989 1
(0.1216927977 0.003687195695 0.4354664055 0.4391536012) 531 1025 1
(0.9249313046 0.03753434771 0.007662291462 0.02987205625) 538 1083 1
(0.5161591644 0.1334885471 0.2419204178 0.1084318707) 492 949 1
(0.7914958999 0.10425205 0.0917433117 0.01250873835) 502 971 1
(0.3254066242 0.3372966879 0.2317226735 0.1055740144) 534 1031 2
(0.663311792 0.168344104 0.02265081739 0.1456932866) 502 968 2
(0.03104280515 0.05291277189 0.4315658255 0.4844785974) 515 976 2
(0.5082772791 0.2458613604 0.1870695677 0.05879179273) 430 833 2
(0.4582551272 0.2448878795 0.02598455695 0.2708724364) 404 784 1
(0.1266373813 0.4366813094 0.1282902114 0.308391098) 381 722 1
(0.05630263722 0.001795182833 0.4718486814 0.4700534986) 368 716 2
(0.3130267493 0.3434866253 0.3161477505 0.0273388748) 381 740 2
(0.1549608944 0.4225195528 0.06457927466 0.3579402781) 434 842 1
(0.1831953893 0.1920139047 0.2163884007 0.4084023054) 394 747 2
(0.1175787068 0.4184362848 0.02277436181 0.4412106466) 405 767 2
(0.6198422916 0.10109164 0.08898721417 0.1900788542) 385 2216 1
(0.2221647913 0.3889176043 0.3054964149 0.08342118938) 424 823 1
(0.447399064 0.276300468 0.2212572544 0.05504321355) 400 776 2
(0.8781564068 0.0125884676 0.06092179662 0.04833332902) 442 854 1
(0.1930181581 0.4034909209 0.2471284847 0.1563624362) 429 829 2
(0.1288214435 0.4355892782 0.19290271 0.2426865682) 453 875 2
(0.1262426412 0.4368786794 0.1632439195 0.2736347599) 412 799 2
(0.09916062823 0.4504196859 0.266860423 0.1835592629) 381 741 1
(0.2748472381 0.3625763809 0.2834615312 0.07911484968) 384 746 2
(0.2477730955 0.2571972188 0.3761134522 0.1189162334) 395 765 1
(0.007122194188 0.4964389029 0.4857737387 0.01066516416) 469 905 2
(0.5417046611 0.1478260173 0.2291476694 0.08132165209) 434 839 1
(0.7234875158 0.1382562421 0.05362161245 0.08463462967) 495 2227 2
(0.1827736042 0.4086131979 0.04471673609 0.3638964618) 418 811 1
(0.0256582845 0.4695216763 0.0176491815 0.4871708578) 461 892 1
(0.05862316494 0.3332448288 0.4706884175 0.1374435887) 485 936 1
(0.427594304 0.1132551968 0.286202848 0.1729476512) 471 912 2
(0.6139533104 0.1930233448 0.001018583946 0.1920047609) 403 782 2
(0.1069373588 0.2473129772 0.4465313206 0.1992183435) 432 838 2
(0.3789463639 0.09083758911 0.2196892289 0.310526818) 465 2224 1
(0.6362078754 0.1811861119 0.1818960623 0.0007099503992) 462 895 2
(0.4488412931 0.1856656123 0.08991374109 0.2755793534) 533 1029 1
(0.169567963 0.4152160185 0.1524387246 0.262777294) 509 984 1
(0.6082525601 0.04789559393 0.1958737199 0.147978126) 444 861 2
(0.2910958827 0.1907953705 0.3544520586 0.1636566881) 518 1001 2
(0.4288558458 0.2855720771 0.1259498287 0.1596222484) 502 970 2
(0.3413364098 0.2718389837 0.3293317951 0.05749281137) 450 869 1
(0.8588458892 0.0705770554 0.0277946909 0.0427823645) 472 911 2
(0.4311697173 0.1655217077 0.1188934337 0.2844151413) 544 1032 2
(0.004115075659 0.4979424622 0.155069177 0.3428732852) 538 1083 1
(0.7593603128 0.1044473623 0.1203198436 0.01587248131) 461 890 1
(0.3847162807 0.3076418596 0.04016642798 0.2674754317) 514 993 2
(0.1532231116 0.4233884442 0.1654754501 0.2579129941) 479 927 1
(0.1181754131 0.2975660083 0.1433462852 0.4409122935) 482 932 1
(0.6147081326 0.1926459337 0.167761317 0.02488461671) 515 993 2
(0.145685416 0.427157292 0.3910450468 0.03611224521) 540 1038 2
(0.2618555996 0.1904859382 0.3690722002 0.178586262) 525 1014 2
(0.08183692398 0.459081538 0.09217042183 0.3669111162) 492 933 1
(0.517089225 0.1158224522 0.1256329353 0.2414553875) 277 515 2
(0.3678849694 0.3160575153 0.1719251314 0.1441323839) 464 880 1
(0.02082396816 0.2244645371 0.2651234788 0.4895880159) 493 953 1
(0.1247214834 0.4376392583 0.02397068827 0.41366857) 482 930 2
(0.1147503076 0.4426248462 0.2766945938 0.1659302524) 420 796 1
(0.2484966471 0.3757516764 0.317226935 0.05852474146) 495 957 1
(0.01975951768 0.4404949933 0.04962524781 0.4901202412) 471 911 1
(0.4297245635 0.2851377182 0.1348872046 0.1502505136) 502 968 2
(0.3242150268 0.3378924866 0.3331953171 0.004697169511) 501 968 2
(0.7578252342 0.1210873829 0.08449087474 0.03659650816) 365 2208 2
(0.5952669154 0.2023665423 0.1159325337 0.0864340086) 372 721 2
(0.04171908801 0.479140456 0.4313245919 0.04781586405) 392 759 2
(0.04772732831 0.1576638459 0.3184724899 0.4761363358) 372 705 2
(0.2497088401 0.307500809 0.06764477093 0.37514558) 385 2216 1
(0.3575531883 0.1615731275 0.3212234058 0.1596502784) 440 850 1
(0.5539457767 0.09097559197 0.2230271117 0.1320515197) 405 786 2
(0.1517983591 0.2882200894 0.4241008204 0.135880731) 379 734 1
(0.378372838 0.143960407 0.166853174 0.310813581) 410 777 2
(0.155921439 0.07463476864 0.4220392805 0.3474045119) 363 707 2
(0.4243361455 0.07905306859 0.2087788587 0.2878319273) 415 786 2
(0.008681756546 0.3639683195 0.4956591217 0.1316908022) 364 709 2
(0.5410970812 0.2294514594 0.1250012105 0.1044502489) 415 2219 2
(0.02771650516 0.4861417474 0.4067468306 0.07939491678) 445 843 1
(0.3817450804 0.3091274598 0.1791258555 0.1300016043) 423 821 1
(0.4036217302 0.2695023818 0.2981891349 0.02868675309) 439 848 1
(0.6442646382 0.1141161943 0.1778676809 0.0637514866) 409 794 2
(0.2086336219 0.3956831891 0.1882115179 0.2074716711) 383 744 2
(0.2983276302 0.3508361849 0.301865803 0.04897038187) 469 907 2
(0.3009594911 0.3495202545 0.3421517836 0.007368470906) 430 833 2
(0.4519231354 0.1563371049 0.1177013274 0.2740384323) 395 748 2
(0.4411271393 0.2794364304 0.1213595836 0.1580768468) 380 720 1
(0.03153810644 0.2930392015 0.4842309468 0.1911917453) 462 895 2
(0.07932934189 0.4603353291 0.4423584681 0.01797686098) 380 738 2
(0.07907258251 0.4604637087 0.1234214353 0.3370422734) 439 850 2
(0.4693140645 0.2269992846 0.2653429677 0.03834368314) 504 972 1
(0.09855136674 0.06535183472 0.3853724819 0.4507243166) 438 830 2
(0.3401412755 0.1869281474 0.1430012148 0.3299293622) 473 915 1
(0.1663418565 0.1183884254 0.4168290718 0.2984406464) 454 880 2
(0.6874000443 0.1562999778 0.1353465635 0.02095341431) 454 877 2
(0.001956203365 0.4990218983 0.458019691 0.04100220727) 528 1019 2
(0.2409244273 0.3795377864 0.1350293623 0.2445084241) 493 935 1
(0.4452479573 0.2773760214 0.1782849803 0.09909104102) 491 949 2
(0.5695241192 0.2152379404 0.09747869749 0.1177592429) 513 992 1
(0.5127941127 0.2436029437 0.2010003551 0.04260258858) 460 890 2
(0.5928517888 0.2035741056 0.1917622621 0.01181184345) 451 855 1
(0.5946700879 0.202664956 0.0593070149 0.1433579411) 493 953 2
(0.2054904551 0.3972547725 0.2470096847 0.1502450878) 485 938 1
(0.2512005588 0.2873907673 0.08700895332 0.3743997206) 509 983 1
(0.7366307377 0.0290370364 0.1026475947 0.1316846311) 507 979 1
(0.1014204316 0.09729334279 0.4492897842 0.3519964414) 513 992 2
(0.4163553649 0.2671873147 0.2918223175 0.02463500283) 489 946 2
(0.1243560654 0.4378219673 0.2752902086 0.1625317587) 493 954 1
(0.3828559691 0.2999521667 0.008619848794 0.3085720155) 436 844 1
(0.4043325941 0.2905554917 0.007278211289 0.297833703) 489 945 1
(0.5318239999 0.1963237974 0.03776420263 0.234088) 483 934 1
(0.1551119863 0.07169260876 0.4224440068 0.3507513981) 540 1085 2