/*--------------------------------*- C++ -*----------------------------------*\
| =========                 |                                                 |
| \\      /  F ield         | OpenFOAM: The Open Source CFD Toolbox           |
|  \\    /   O peration     | Version:  2406                                  |
|   \\  /    A nd           | Website:  www.openfoam.com                      |
|    \\/     M anipulation  |                                                 |
\*---------------------------------------------------------------------------*/
FoamFile
{
    version     2.0;
    format      ascii;
    arch        "LSB;label=32;scalar=64";
    class       scalarField;
    location    "0.009/lagrangian/dsmc";
    object      Ei;
}
// * * * * * * * * * * * * * * * * * * * * * * * * * * * * * * * * * * * * * //


5115
(
3.843985692e-21
9.276942305e-21
1.137395822e-20
3.827063861e-21
1.153993085e-21
6.955094296e-21
7.122223432e-22
3.468928383e-22
6.581336824e-21
1.820238427e-21
1.983211046e-21
1.313577432e-20
1.246874671e-21
8.831280304e-23
9.841190524e-22
3.65692474e-21
1.335121413e-21
3.852397564e-21
1.003679064e-20
2.229324255e-21
4.260332836e-21
3.510340301e-22
3.360970965e-21
9.424523362e-21
5.662651441e-23
1.343031981e-21
7.782909643e-21
6.860468849e-21
1.242997157e-21
1.739432875e-21
9.470448395e-21
1.045086768e-20
4.976804607e-21
1.017915954e-21
2.022619961e-21
4.519942122e-22
5.377996298e-21
3.079631068e-22
1.510910009e-22
4.712838344e-22
1.782259915e-21
8.67492522e-21
4.753266476e-21
3.485107767e-21
7.882553735e-22
9.3011693e-21
5.898068584e-21
1.718084867e-20
7.835525548e-21
2.625627139e-21
2.230845086e-22
2.987699168e-21
2.761160221e-22
5.170824642e-21
4.529514431e-21
3.117098243e-21
2.416133799e-21
1.00890864e-20
1.20357469e-20
1.454646993e-21
7.333485749e-21
2.447497236e-22
1.425396385e-21
3.780855565e-21
1.306481529e-21
9.477269543e-21
1.021940088e-21
4.76808119e-22
5.804105118e-21
1.659163804e-20
8.45753668e-22
5.177789171e-21
1.017323307e-20
9.435357189e-21
3.674300848e-21
1.122650354e-21
8.119421338e-21
3.200793175e-21
4.58737341e-21
4.02717352e-21
1.669570306e-21
6.53577441e-23
2.428808506e-21
5.476906144e-22
9.515494797e-21
5.595063367e-22
6.130922006e-21
9.666479133e-21
2.918615795e-21
8.143643847e-21
9.026635093e-21
3.271544335e-21
7.057495037e-21
5.605639655e-22
1.309397057e-20
4.563186566e-21
1.227640732e-20
1.104686733e-20
2.87948255e-22
1.7811342e-21
3.769135228e-21
1.162989712e-21
8.294038427e-21
2.01742801e-21
9.198686326e-21
2.134682349e-21
1.249027985e-20
7.298003505e-23
6.486698873e-21
3.843445451e-21
9.430423094e-21
2.97998644e-21
8.329192061e-22
9.818129304e-22
5.289020921e-21
2.333715642e-22
1.554705187e-21
1.037131043e-20
1.50337716e-21
1.386946291e-20
3.260615612e-21
3.171514464e-22
2.189286272e-21
2.835300618e-22
6.395758508e-21
1.057861479e-20
4.110140184e-21
5.077461139e-21
4.400767843e-21
7.482376536e-22
2.30202e-21
8.443178433e-24
7.84191981e-21
1.061969433e-20
5.439952956e-21
8.331526908e-21
1.654623711e-21
2.884776761e-21
2.557896544e-21
3.053011872e-21
4.166895202e-21
1.626018153e-21
2.104714011e-22
5.870747384e-21
5.528177784e-21
7.566867437e-21
4.922732763e-21
5.8864524e-21
1.362667401e-21
7.345292503e-21
3.99774279e-21
2.782705435e-21
3.217912832e-22
1.668337443e-21
8.809513515e-22
4.603842463e-21
1.619410004e-21
6.452310513e-21
1.278991033e-21
7.813986722e-21
2.737203553e-21
8.003528811e-21
2.036809399e-21
3.11457228e-21
3.219069658e-22
6.268733054e-21
3.994536636e-21
2.45646171e-21
4.660579925e-21
8.691645781e-21
3.210037969e-21
2.213167505e-21
2.771905101e-22
7.137688897e-21
3.784020423e-21
3.168013341e-21
1.09990647e-21
3.868990944e-23
1.089476797e-21
6.841875711e-21
3.915841793e-21
3.137821626e-21
3.91625725e-21
9.32025888e-22
2.845512573e-21
2.150141715e-21
4.940246248e-21
8.855952221e-21
8.187406621e-21
8.126551805e-22
1.385427818e-21
3.953194684e-22
2.31283485e-21
1.025252931e-21
5.462274876e-21
2.294552139e-22
6.282289329e-22
6.451645505e-22
1.613288829e-20
1.291760487e-20
9.863605848e-21
1.612552788e-22
2.497013189e-21
3.788067253e-21
5.71117043e-21
1.793391696e-21
6.820605525e-21
9.765865492e-21
1.489495861e-20
6.357330424e-21
1.473807932e-21
1.328722933e-21
2.67449852e-21
3.519641136e-22
1.29692047e-21
7.100322018e-21
6.270419441e-21
5.744495658e-22
7.275518108e-21
2.664120003e-21
3.432106386e-21
4.31604208e-22
2.116506157e-21
5.862902141e-21
2.946608795e-21
4.379377079e-21
4.20693784e-21
1.108017033e-20
1.389252519e-21
4.074971007e-22
5.174792974e-21
9.644591282e-21
3.916275507e-21
4.977884249e-21
2.569673926e-22
1.442959633e-20
2.002347338e-21
4.483854461e-21
2.612957499e-21
3.915458847e-22
9.366000991e-21
9.501326646e-21
2.288395872e-21
2.480515714e-22
2.23448995e-21
1.600885649e-20
8.851983354e-21
1.904627422e-21
5.715623071e-21
2.333690828e-21
7.254172138e-21
1.183948839e-21
1.399727206e-21
1.015191507e-21
4.663937191e-21
4.327543182e-21
2.059802898e-21
2.72313641e-21
2.383183236e-23
1.111425379e-22
8.991187594e-21
2.55040801e-21
8.243861301e-22
8.159003673e-21
1.652209269e-22
3.788439199e-21
3.484492607e-22
3.436510347e-21
6.395639381e-21
3.56649479e-21
1.622245337e-21
1.266805287e-21
6.760205617e-22
4.917245973e-21
5.104121008e-21
1.817315227e-21
5.835015602e-21
5.892423972e-22
2.012265923e-21
1.537825603e-21
9.781924857e-22
1.120083568e-20
4.915449439e-21
1.622596711e-21
1.092878454e-21
1.387938429e-20
1.265720052e-21
1.11424645e-20
9.169548517e-21
3.400898438e-21
6.478447372e-21
2.1671973e-21
1.331762654e-21
7.539637191e-21
7.904565749e-21
4.579353316e-21
8.702026681e-21
1.574894284e-20
7.750905577e-21
1.091769436e-20
6.900554842e-21
1.071625897e-20
7.732196007e-22
1.108529863e-21
3.382620534e-20
4.404227905e-21
2.646496416e-21
3.469524046e-21
3.273406395e-21
7.024206551e-22
2.565273057e-21
2.362758877e-21
4.329055318e-22
9.155764407e-22
1.53636297e-22
2.614936164e-21
5.964109541e-22
3.976666036e-21
2.257815273e-21
3.959932321e-23
3.227399109e-21
1.537399164e-21
2.184586957e-21
1.371922678e-20
5.192790925e-21
1.430293892e-21
1.852191452e-21
7.863027764e-21
4.34377268e-21
1.721384823e-20
1.885540076e-21
5.370600585e-22
9.158555562e-22
1.072215407e-21
1.128280073e-20
7.670354149e-21
9.251215667e-22
1.635481574e-21
6.878265102e-23
4.597644135e-21
2.384521994e-21
5.57405646e-22
6.701285733e-22
2.399322683e-21
8.920288497e-21
2.15618264e-21
4.041398595e-21
6.213891588e-22
1.744981138e-22
1.053047414e-20
5.248163127e-21
6.467623724e-21
3.700230848e-21
3.940145743e-21
3.659411724e-21
7.436602732e-21
2.831759258e-21
7.743577567e-22
3.516186459e-21
2.442529744e-21
7.081370428e-21
3.808340642e-21
2.108101518e-21
5.201728571e-22
1.809311275e-22
2.063658147e-20
5.179196892e-21
3.352295477e-21
2.058732252e-21
1.732657568e-21
5.881122469e-21
3.106096818e-22
3.535431309e-22
6.845729968e-21
2.644431352e-21
3.460723871e-22
1.850936617e-22
7.838253245e-22
5.048801802e-22
6.042528438e-21
1.463521603e-21
1.422518632e-20
2.024400361e-22
1.902288162e-21
1.631933607e-21
7.838762025e-21
9.579243267e-22
5.966074988e-21
3.3882672e-21
1.991555522e-21
1.951878049e-21
1.470439386e-21
6.085976198e-21
5.611953193e-24
6.691191873e-22
4.467583894e-21
2.338972274e-21
4.892867915e-21
1.836617874e-21
2.477307963e-21
1.671245703e-22
6.721889614e-22
5.660919771e-21
4.49378315e-21
1.03544232e-20
7.614887385e-22
2.810019338e-21
4.122330526e-21
3.12427201e-21
1.062499826e-20
6.075683702e-21
4.257738872e-21
6.389866781e-22
3.409454164e-21
1.24878004e-21
7.046446241e-22
8.915822123e-24
7.177932627e-22
1.426120081e-22
6.492203454e-21
2.170412732e-22
5.98871477e-22
3.795672561e-22
4.727178016e-21
4.839883837e-21
8.060626332e-22
9.343846389e-22
1.172529066e-22
1.400637329e-21
1.792628138e-22
5.271170542e-22
9.054884072e-22
3.275141887e-21
4.876742421e-22
5.308407112e-21
1.567974815e-21
9.202167271e-22
1.783402921e-21
1.570829394e-21
1.225798272e-21
1.181387658e-21
2.593683491e-21
1.118730569e-20
2.743744825e-21
5.708821416e-21
1.069039421e-20
1.87879201e-21
5.555500604e-21
4.369859889e-21
2.266503384e-20
7.525856229e-21
7.083372251e-22
8.390262636e-21
1.533998325e-21
3.760103037e-21
4.312683354e-22
5.076496735e-21
2.090755488e-21
2.548657201e-21
1.45182463e-21
6.800765358e-21
3.848147084e-21
2.441640916e-23
8.818400463e-21
9.213417627e-21
7.667437674e-22
1.37578646e-22
4.965563929e-22
2.898610774e-21
5.775399451e-21
1.056297515e-20
1.541574737e-20
6.185234875e-21
2.192892598e-21
1.460351434e-21
8.959086284e-21
2.470013833e-21
3.892961497e-23
1.404189336e-21
8.300021148e-22
2.522521754e-21
5.052493479e-21
1.892046824e-21
4.810260736e-21
7.013065439e-21
3.282206959e-22
1.122783431e-21
6.077895116e-21
1.892138949e-21
5.683228139e-21
3.636499417e-21
3.354693462e-22
6.575719747e-22
1.288687754e-20
1.454809924e-22
6.367838375e-21
7.056605035e-21
6.281234396e-21
4.745583183e-21
1.299481711e-20
4.175669396e-22
1.679506935e-21
2.044005054e-21
1.169085305e-20
1.902240152e-22
2.832555264e-21
1.141683718e-21
4.332859913e-22
8.413352023e-21
1.082181982e-22
2.024087957e-21
2.431288629e-21
1.55078762e-21
1.059222049e-20
1.037730036e-20
1.257754904e-21
1.283945192e-21
1.046206006e-21
1.42542828e-21
8.493151681e-22
8.294888148e-21
3.037822416e-21
1.26336256e-22
4.228778421e-21
4.964432708e-21
6.427240465e-21
1.537474794e-21
1.730992692e-21
1.196075581e-20
9.214833445e-21
4.923381134e-21
1.416075918e-21
2.543981688e-21
7.79444288e-21
4.411530651e-21
4.483104794e-22
7.251304097e-21
2.740453857e-21
3.044628239e-21
1.50902318e-21
5.284437582e-22
1.191486562e-20
2.281322578e-21
3.709597093e-21
6.989463562e-21
4.388058707e-21
5.864111631e-21
2.158706617e-21
5.891849437e-22
1.402341349e-21
8.433125779e-22
6.709917203e-21
1.722114583e-21
4.003307539e-22
5.748795028e-21
8.807092511e-21
4.499585775e-21
3.561668111e-21
2.458673926e-21
4.685007773e-21
7.581542453e-21
1.035510812e-21
1.106393293e-22
4.628514474e-21
1.372317936e-22
7.944353833e-22
1.03412105e-21
3.10020083e-22
3.267222425e-21
1.366522123e-21
6.347763721e-21
4.987590415e-22
1.02233847e-21
5.141776942e-21
1.76780475e-21
6.581868091e-22
6.50098497e-21
3.815879825e-22
3.609526124e-21
6.040200443e-22
5.446979937e-22
1.084712192e-21
1.438921524e-21
4.338946895e-21
1.04017517e-21
6.100289131e-21
6.037908203e-21
1.739872737e-21
3.266776693e-21
5.996811752e-22
3.084469543e-21
1.75785904e-21
2.687278472e-21
4.243100595e-21
1.546455635e-22
5.809767495e-22
7.24174322e-21
3.39015257e-21
2.564847247e-21
3.596022033e-21
2.183660631e-22
2.442157629e-21
2.747464493e-21
3.236354523e-21
8.93112344e-22
1.646102822e-20
1.547263237e-21
2.832467078e-21
5.486391376e-22
8.935829798e-22
3.195154546e-22
6.909408984e-21
2.458646106e-21
5.890359664e-22
1.329349444e-21
5.131590572e-21
7.764086869e-21
6.79348831e-22
9.211999622e-21
7.315161255e-21
1.471088597e-20
4.887966765e-21
6.439775404e-21
1.547631352e-23
5.604747882e-21
1.630366258e-22
5.117437709e-21
1.637691885e-20
1.503707532e-21
6.121529894e-21
6.618837497e-21
4.723809629e-21
1.983698687e-21
2.490182101e-21
1.86007073e-21
5.042054283e-22
4.918619399e-22
6.807949909e-22
7.529012945e-21
1.385759956e-22
2.744612815e-21
4.859885266e-21
6.053516669e-21
6.794766545e-23
5.777325858e-22
3.721361183e-21
5.496364561e-21
3.825874571e-21
2.025508693e-21
4.160599497e-22
9.752017417e-22
4.466677478e-22
1.312954453e-21
3.265698455e-21
3.802837808e-22
4.954472562e-21
3.565436608e-21
8.456742614e-21
7.709894088e-21
1.055505803e-20
6.002769838e-22
7.114724561e-21
6.128377601e-21
7.200381689e-21
5.151854313e-21
1.471723178e-21
7.207339642e-21
2.512961805e-21
3.978145788e-21
4.784484861e-21
1.454115628e-21
9.711456672e-21
2.300717077e-21
3.553900732e-21
4.897079473e-21
1.221377866e-21
4.453771004e-21
1.157908948e-20
1.695647465e-21
8.249369184e-22
4.373620227e-21
1.127248113e-21
5.112126005e-21
8.133895115e-21
5.622987264e-21
4.016143347e-21
3.243624515e-22
1.6619738e-21
4.241638775e-21
1.24065098e-21
3.46381454e-21
6.206203196e-21
1.026064661e-20
1.351109549e-21
1.181250911e-23
4.875539431e-22
1.483505269e-23
4.451375341e-22
3.896826256e-21
1.303380662e-21
6.290181564e-22
1.065924705e-21
9.473596833e-22
2.246774951e-21
1.816743662e-21
9.649085497e-22
4.087845989e-21
3.594559003e-21
2.88502207e-21
1.043049089e-21
1.712232522e-21
3.429938908e-21
7.960042448e-21
7.513442902e-22
2.914040903e-22
2.135348106e-21
1.444680052e-21
6.779531601e-21
2.172255787e-21
4.129878651e-22
3.68755546e-21
3.134815534e-22
1.284522386e-21
2.382204688e-22
1.367699758e-20
1.677923224e-20
9.107186768e-22
4.259605802e-21
1.068420947e-21
5.695541058e-21
3.150607037e-21
5.703997238e-23
1.364652591e-22
8.107710612e-22
3.907399093e-22
2.067403972e-21
5.119473675e-22
4.765130883e-21
3.208343609e-21
2.255309933e-21
8.057871585e-21
3.854711525e-21
5.439508888e-21
3.241780895e-24
5.499989421e-22
1.879566809e-20
5.071135734e-21
9.20695037e-21
1.25826382e-21
2.539810339e-21
1.843807094e-21
5.158363152e-21
3.539604817e-21
4.393172089e-21
7.149236841e-21
6.835358891e-21
4.748172365e-21
1.047257929e-21
1.2335295e-21
2.702728755e-21
5.79635106e-21
2.852958398e-21
4.397264026e-22
1.080859619e-22
3.080436519e-21
2.642593226e-21
4.845884575e-21
2.062949448e-22
7.963728916e-23
2.028759795e-22
2.354714132e-21
1.156767041e-21
3.694364511e-21
2.330656299e-21
9.373791523e-21
5.779860905e-21
1.084728351e-21
6.283807965e-23
1.783527383e-21
5.001877729e-22
2.868955537e-21
4.148765142e-21
8.508313895e-21
7.7580846e-21
6.697778959e-22
2.477946333e-21
1.873597737e-21
1.331750543e-20
2.656687034e-22
1.480129624e-21
1.432108399e-21
3.201966307e-22
8.859127098e-21
2.154417639e-21
5.177241226e-21
1.212199497e-22
4.157555038e-21
2.343559324e-21
6.787624836e-21
9.925847085e-23
7.125351636e-22
1.268816886e-21
9.703537011e-23
5.416934404e-21
4.179676203e-21
6.22394101e-21
1.098259162e-21
3.31684555e-21
1.090439565e-20
1.353746394e-20
2.990563904e-21
5.611893295e-21
2.135873676e-21
6.26387589e-21
1.315061702e-21
1.176102407e-20
3.7967552e-22
4.741911655e-23
1.205466618e-20
2.002435765e-22
6.823683824e-21
1.328149957e-21
1.729682106e-21
1.167615778e-21
1.418655101e-20
2.410587362e-21
1.010171172e-22
9.994597107e-22
1.347392986e-21
3.132602511e-21
1.633343106e-21
3.196261923e-21
4.839844576e-21
6.802323487e-22
4.75428887e-21
7.092055058e-22
1.438647393e-21
2.346682011e-21
4.991381858e-21
2.454393457e-22
1.408343147e-20
1.641431003e-21
4.222797382e-23
1.10534598e-20
2.37923654e-22
2.063534623e-21
1.957864717e-21
1.6500004e-20
4.535734587e-21
3.304030869e-21
1.087179713e-20
5.283407614e-22
1.291226741e-21
7.375896434e-21
6.610698379e-22
2.506531698e-22
3.082187165e-22
3.339665326e-20
1.945831561e-21
5.649830237e-21
4.292370496e-22
2.38979754e-21
6.919081683e-21
2.418524433e-21
3.540993781e-21
2.131770916e-21
3.40018827e-21
2.910742603e-21
6.47953784e-21
7.096791074e-21
5.934825568e-22
8.267086219e-21
4.431516231e-23
8.631115015e-21
1.153759651e-20
9.353006045e-21
1.535033777e-21
9.358096301e-22
1.607008267e-21
2.636461529e-21
1.477995884e-21
2.664062965e-21
1.581923984e-22
4.501349116e-21
2.233151156e-21
2.424949842e-20
7.311834135e-22
2.51973167e-21
1.648844155e-22
4.144714712e-21
1.458027081e-20
1.587224528e-21
2.699089225e-21
4.736852424e-21
2.287892454e-21
5.236042312e-21
3.466914213e-21
1.150700336e-20
1.077821408e-20
3.5826652e-21
7.522200427e-22
1.678327577e-21
1.697321452e-21
9.316044923e-21
2.396531192e-21
2.885783155e-21
3.055348634e-21
8.456212609e-21
2.760607526e-21
1.405358061e-20
3.48613041e-21
6.856675581e-21
6.473371654e-22
2.511876874e-21
1.850517221e-22
1.357661074e-21
4.716202462e-21
7.128275675e-21
5.050660508e-21
1.488981913e-21
2.560963792e-21
2.357376164e-22
8.591196796e-22
1.738652051e-21
8.552155195e-22
7.124350862e-21
1.027255597e-20
6.596152359e-22
9.425783698e-21
1.317688704e-21
7.895458502e-22
1.712521042e-21
8.983898703e-22
2.998494291e-21
1.004075499e-20
1.397709781e-20
2.762646494e-21
3.414211091e-22
1.015699069e-21
6.265912585e-21
4.144747288e-21
2.367112029e-21
2.638155232e-21
6.394949119e-21
8.461515383e-21
9.216962776e-22
5.918973022e-21
1.805604371e-20
4.145466738e-22
8.452725907e-22
1.259699692e-21
1.240264005e-20
7.879482709e-21
3.258204269e-21
9.467855602e-22
8.588655774e-21
5.147921673e-22
4.838671709e-21
4.149538567e-21
3.743537538e-21
2.549689933e-21
8.821681358e-21
2.139936036e-21
5.303311654e-23
6.532403355e-21
4.618295092e-21
1.654575531e-20
3.626068216e-22
2.06712531e-21
7.060206334e-22
8.860688027e-21
1.921247698e-20
2.784676561e-21
6.418699847e-21
3.550030496e-21
1.79280416e-21
2.587438029e-21
3.022067476e-21
6.396855496e-21
4.871629774e-21
9.361283431e-21
5.387548647e-23
8.149626972e-21
8.192524184e-21
1.162361831e-20
4.481715786e-22
4.89302501e-23
3.843297649e-21
4.904013233e-21
3.835807535e-21
5.03909166e-22
3.167261972e-21
1.144577112e-20
7.450084022e-21
1.200832494e-21
5.51502252e-22
1.359677141e-20
1.081474609e-20
3.490093771e-21
1.989714309e-21
4.903788554e-21
5.532815318e-21
2.081568677e-21
1.182122317e-20
1.632818465e-21
4.247565972e-21
2.800081292e-21
3.119115636e-21
6.307506695e-21
1.485563096e-21
1.139289466e-21
1.048126383e-20
1.680996044e-20
2.129200285e-20
5.462068893e-21
7.07225689e-22
5.898799657e-21
8.448758205e-21
1.574530092e-21
2.864717514e-21
2.525425551e-22
3.65279494e-21
7.374760081e-21
1.220553346e-21
1.359987627e-21
5.849462986e-21
4.252007678e-21
1.149205e-20
4.013033565e-21
3.499938696e-21
4.328255035e-21
6.271061024e-21
1.190062938e-21
1.287744315e-22
5.572957713e-21
6.746625707e-22
4.611837702e-22
4.620062564e-22
1.152296183e-21
1.211557659e-21
4.009490249e-21
3.007588424e-21
1.543815512e-21
4.981168949e-23
1.086443014e-20
5.080517219e-21
1.259591927e-21
5.247738904e-22
2.040037597e-21
1.062096126e-21
8.891330392e-22
3.484872252e-21
3.399143958e-21
3.467760842e-21
4.710414193e-21
5.093238859e-21
1.88749254e-21
1.142109119e-21
4.192977006e-21
9.17646378e-21
3.79146846e-21
2.241275852e-21
7.844205795e-22
1.969915739e-21
7.284934738e-22
2.427632713e-21
1.134534975e-21
1.447966876e-20
2.066500931e-21
7.274349105e-21
1.220112746e-21
4.420131577e-21
6.537473025e-21
1.609127445e-21
8.050600404e-22
1.59485516e-22
2.430171322e-21
3.497868537e-21
6.806895091e-21
2.302441849e-21
3.47972241e-21
7.981239876e-22
2.465030422e-21
2.313395166e-21
6.230637201e-21
8.30670037e-22
7.701812404e-21
2.191405009e-21
2.5573354e-21
7.596760366e-21
4.320821426e-22
5.342582277e-22
2.425737014e-21
2.938757857e-22
8.478851669e-22
5.775124412e-21
1.887657752e-21
7.406960784e-21
3.813165208e-21
2.85791112e-21
2.143794667e-21
2.543370524e-22
1.45063698e-20
1.730776927e-20
9.378509176e-22
1.509964208e-22
1.992416378e-21
7.255117687e-21
3.788953198e-21
5.119592557e-23
1.052478555e-20
3.01791549e-21
1.812021959e-21
3.079583745e-21
9.89469811e-22
1.323885765e-21
1.11344204e-20
4.598674718e-22
7.101714064e-21
1.435709169e-21
1.759818653e-20
3.221005429e-21
6.647481283e-21
4.682033914e-21
6.502793191e-22
3.901966104e-21
1.579501697e-21
7.458932103e-22
5.31025966e-21
4.543933922e-21
9.746538743e-22
1.229762788e-21
9.27032521e-21
6.051664255e-22
8.953888804e-22
8.531815183e-21
2.05037731e-21
2.958760004e-21
7.937940366e-22
1.153944665e-21
3.572682847e-21
7.319035654e-21
6.937763083e-21
1.139418181e-21
1.961831224e-21
6.837636469e-21
1.403230347e-21
2.616706776e-21
1.222206162e-20
1.533879368e-20
8.787516611e-22
7.068329603e-22
2.595864026e-21
4.359137221e-23
3.838916214e-21
3.374124426e-22
1.337037548e-21
7.593148766e-21
7.737204342e-22
8.001588475e-21
1.13203135e-21
2.258648776e-21
1.570384683e-20
5.32711655e-21
2.437562588e-21
2.22029898e-21
5.759416265e-22
1.081968208e-20
1.346340816e-21
1.159226474e-20
7.34849369e-21
8.53603068e-22
4.149795101e-21
1.439748158e-21
3.107185564e-21
1.803257857e-21
3.611328749e-21
1.838454713e-21
6.001907011e-22
5.036683853e-21
4.828455e-21
7.423848814e-22
8.192494105e-21
4.044680357e-21
2.428931818e-21
1.510167364e-20
9.13076305e-22
1.320907699e-21
5.128509216e-21
1.635897321e-20
2.555595304e-21
2.047798158e-21
4.956470154e-22
7.280305206e-22
4.337545201e-21
5.787646593e-22
8.05691997e-22
6.319912403e-22
1.186989486e-21
6.519296848e-21
5.65723433e-21
8.341772174e-21
3.301513554e-21
3.299078561e-21
1.052770228e-21
7.861559662e-21
1.181552017e-21
3.681726347e-22
5.468502907e-22
3.53779131e-21
1.565694533e-21
4.611067593e-21
2.514317896e-22
7.635098457e-21
4.883871922e-21
2.737212303e-21
6.575637222e-21
5.78758099e-22
9.852617111e-22
2.491066001e-21
5.517002314e-22
5.586153799e-21
8.045620068e-22
1.300043482e-20
6.664350037e-21
7.685435258e-21
8.288066712e-21
9.748263593e-21
9.518000036e-22
2.5792305e-21
1.159114029e-20
3.970789456e-21
2.493025143e-21
1.102135062e-20
5.729192466e-22
8.953232348e-22
8.546284865e-21
5.280462764e-21
4.333531659e-21
5.481149295e-21
3.489078043e-22
6.139124446e-21
3.658913436e-21
1.311409671e-20
9.071972354e-21
1.315988547e-20
8.074417128e-21
2.10299873e-21
7.55812332e-21
3.341006599e-21
6.989591445e-21
7.603968748e-24
7.498508438e-21
1.294231249e-21
3.384749555e-23
1.024235683e-20
2.656357244e-21
2.016110657e-22
7.842050315e-21
5.54049739e-21
5.166210721e-21
8.66939487e-22
1.869545034e-22
1.550418357e-23
1.620313395e-21
8.061323729e-21
1.82760544e-21
6.712256017e-21
7.504111284e-21
2.567482489e-21
1.702472708e-20
9.974720367e-21
2.503941834e-21
2.016991438e-21
1.947805552e-21
1.426230758e-20
1.467838292e-21
4.686128385e-21
2.9694802e-22
1.850163367e-22
9.436924115e-22
9.710689634e-22
1.655000695e-21
1.196225447e-21
1.600758151e-21
7.792510373e-21
9.613143437e-21
6.21501304e-21
4.886769013e-21
1.472146561e-21
3.461611066e-21
1.289787803e-21
1.032034428e-21
2.31316109e-22
8.494757735e-21
2.069323988e-21
1.610160871e-20
6.722306257e-21
3.556570622e-21
4.365577445e-21
1.8547208e-21
4.62831858e-22
1.177917333e-21
1.675774029e-21
6.828181701e-22
7.163332275e-21
1.740581968e-20
8.068870039e-21
4.221853521e-21
6.658071209e-21
4.522302276e-21
3.15470532e-21
3.17366569e-21
3.063394768e-21
4.313397399e-21
8.064707417e-21
1.326090625e-20
2.300580486e-22
2.523852026e-22
1.125451625e-20
1.825046935e-21
9.333255162e-21
7.54161212e-23
5.976055157e-21
6.341027307e-21
8.380236855e-21
4.629515352e-22
1.627935188e-20
5.543605159e-21
9.922396527e-22
3.969575905e-21
4.836464019e-21
5.141031952e-21
5.540913569e-22
1.252511793e-20
6.348820889e-21
4.868367677e-23
1.435075702e-20
4.017398462e-21
4.012936246e-21
5.924286382e-21
1.156603245e-22
3.82955975e-21
1.171978423e-20
5.162036716e-21
7.186323314e-22
5.389523738e-22
3.542904853e-21
7.741574395e-21
1.224905852e-21
2.589141056e-21
3.691317569e-21
1.255179741e-20
7.379016357e-21
1.965067653e-21
2.198743034e-21
3.186156436e-21
8.773529079e-21
2.164218629e-21
7.47083974e-21
2.99117358e-21
6.845434519e-21
4.368087344e-21
4.641342796e-21
2.110310327e-21
1.442966828e-21
2.390664002e-22
2.433904448e-22
1.608171366e-21
3.097323345e-21
6.034252673e-22
3.185710159e-21
1.453410756e-21
5.082906179e-21
2.064656093e-21
4.632499386e-21
1.493858403e-21
1.4098777e-20
8.240493257e-24
1.520475508e-21
1.600800464e-21
3.096273228e-22
1.760066774e-21
6.965026226e-21
1.313171245e-20
3.4869194e-21
3.749594387e-21
5.11262216e-21
2.514563982e-23
2.828900365e-21
5.448767123e-22
4.881598116e-22
1.565940353e-22
8.20716424e-22
2.811588858e-21
6.096885023e-22
5.59002327e-21
9.17409788e-21
2.812807209e-21
2.075280845e-21
1.943151627e-21
6.706182585e-21
2.711539491e-21
8.01109629e-22
2.083503823e-21
6.02728655e-21
3.08918934e-21
2.893688619e-23
5.303948795e-22
5.780078703e-21
1.623422229e-21
3.715061382e-21
2.260581728e-21
1.133362708e-21
9.365990638e-22
1.718871138e-21
5.082863373e-22
1.694642711e-21
1.017508103e-20
8.669269597e-21
1.241423564e-20
2.281328101e-21
3.481778165e-21
4.222575034e-21
2.122674772e-21
8.31199675e-21
6.910829325e-21
5.197958277e-22
7.122468109e-21
1.008665149e-20
3.374518374e-22
4.456013615e-21
9.659486621e-21
3.470824786e-21
1.324502827e-20
5.429018317e-21
5.780872735e-21
1.624827385e-22
8.674421684e-21
2.120427504e-21
1.375512093e-21
3.896611642e-21
9.340133083e-21
4.861008822e-21
6.245420289e-21
6.678287724e-23
2.884154681e-21
5.527635774e-21
2.423219128e-21
3.42020819e-24
1.287459859e-21
1.023180628e-21
5.331908653e-21
6.981386104e-21
6.250950678e-21
6.96320743e-21
2.021526243e-21
1.107719599e-20
4.93915961e-21
1.835506028e-21
1.304104461e-21
7.181514873e-21
5.758234101e-21
1.918736964e-21
1.529612018e-21
7.558140469e-21
6.284403419e-22
2.748396107e-20
1.930205635e-21
1.192916285e-21
7.672200774e-21
1.873223738e-21
1.575112179e-21
9.295451161e-22
1.908878593e-21
1.433422588e-21
2.31730206e-21
9.229475864e-22
7.282445895e-22
6.200247199e-21
1.599514199e-21
7.809423246e-23
2.448771287e-21
1.343651646e-21
5.647533116e-22
1.767738077e-21
2.395537289e-22
4.264599182e-22
1.41402124e-21
1.194800181e-21
2.851401722e-21
5.875305849e-21
4.37250961e-21
5.139365633e-21
1.178299051e-22
2.644617106e-23
3.084184605e-23
3.792436932e-22
6.552552752e-21
1.395169774e-21
1.649761009e-22
8.087044333e-22
7.813109588e-23
1.362463497e-20
2.173993121e-21
1.423009182e-21
5.108037582e-21
1.497994941e-21
1.083662789e-20
2.016018195e-20
1.199724051e-22
5.687379352e-21
8.080040961e-22
3.627590736e-21
8.640264893e-22
8.694604038e-21
7.981273825e-22
9.553647279e-23
7.835482779e-24
2.560303716e-21
6.252024425e-21
1.236529286e-21
8.737513267e-21
2.959339292e-21
2.056427672e-21
2.027836398e-21
1.205584784e-21
4.027979516e-21
4.003603398e-21
3.210249629e-21
1.049040058e-22
1.065523574e-21
4.448142333e-21
8.17505975e-22
4.391509813e-21
1.760200374e-21
6.218581112e-21
5.868330859e-21
4.679704352e-22
7.337663248e-21
8.835312689e-21
1.654527226e-21
4.683861906e-22
8.003228678e-23
7.038692026e-22
2.089124514e-21
9.603672387e-21
2.210929803e-21
5.878009927e-21
3.026774271e-23
6.648073868e-22
2.422150906e-22
3.381393381e-21
1.770264596e-21
1.104503369e-20
1.067466252e-21
1.893471001e-21
4.373328504e-21
2.786526736e-21
1.038910279e-21
2.170622977e-21
7.639146214e-21
3.881400947e-21
6.435574822e-21
1.51307629e-21
1.629339603e-21
3.014853702e-21
1.190528308e-21
2.43534966e-21
1.309753976e-21
3.838080871e-21
1.420392818e-20
7.698247001e-22
1.468083698e-21
7.121151348e-21
5.580561285e-22
5.766583635e-21
6.341396134e-21
7.92733784e-22
5.129321618e-21
1.158235177e-21
2.158159204e-22
3.448587978e-21
3.457955325e-23
3.501808489e-21
9.404933309e-21
3.299646656e-21
1.127416941e-20
1.066429747e-21
3.329621371e-22
5.128481592e-21
1.489403771e-20
6.87679337e-21
9.333951973e-22
9.4538201e-22
1.758039866e-21
5.32710607e-22
1.013107985e-20
1.429466297e-21
1.524977114e-21
4.883420387e-22
2.28390842e-21
5.543290012e-22
3.030730554e-21
1.551158395e-21
4.863797704e-21
5.492876114e-21
1.666343361e-20
9.519505552e-22
4.296795178e-22
1.265833475e-20
4.777159329e-21
6.586910683e-21
9.895748442e-21
4.792171631e-21
1.049513829e-20
4.844499907e-21
1.023630014e-20
7.68277017e-21
1.65451001e-21
3.332429976e-21
3.542721452e-21
9.228176916e-21
7.676659621e-22
6.695529003e-21
6.616014888e-21
8.45053449e-23
7.075369251e-21
3.048018929e-21
1.04351025e-21
9.8375678e-21
3.748596805e-21
5.691112267e-21
3.522122392e-22
1.012153835e-20
9.992285177e-21
7.18076282e-21
4.649559607e-21
1.344055549e-20
1.131226703e-21
8.290324231e-23
2.21620424e-21
6.718281932e-21
4.068350082e-21
1.006098563e-21
1.797621019e-21
1.292082356e-20
1.076928918e-21
8.535868121e-22
1.033548045e-21
9.869286183e-21
9.736093588e-21
2.773901457e-21
1.799673173e-20
1.201023609e-21
2.432411626e-21
3.434123898e-21
2.366681094e-21
6.904060672e-21
9.460811341e-22
1.046014014e-20
7.855513622e-22
1.347133612e-20
9.802511091e-21
3.046797015e-22
9.080664877e-21
1.454699966e-21
2.965917126e-21
3.720478656e-21
6.337529853e-21
8.673141113e-21
4.115148868e-21
3.368554742e-21
5.025061203e-21
1.714343934e-21
1.422405451e-21
2.939429616e-21
2.245950906e-22
1.054138369e-21
3.885033276e-21
9.203405947e-22
3.281416338e-21
1.4804292e-21
7.150403401e-22
9.618902275e-22
9.069885401e-21
9.474092892e-21
8.298814457e-21
1.035227261e-21
6.254480853e-21
8.799963274e-21
1.747741957e-21
2.925135775e-21
3.053670793e-21
4.423517049e-22
1.769064266e-22
1.996772815e-21
3.170468907e-21
3.311304681e-21
1.538676172e-21
1.06545668e-20
8.456277271e-21
1.250010078e-20
1.391434232e-20
1.049690689e-21
2.383251015e-21
5.375713049e-21
4.048656822e-21
1.21986853e-20
8.294695933e-21
1.402978646e-21
4.800011806e-22
1.218100116e-22
8.80587118e-22
4.806001812e-21
4.170453318e-21
6.141286852e-21
1.642456442e-20
5.430812494e-22
3.118033715e-21
4.607786149e-22
4.822359944e-21
6.709100468e-21
1.017611311e-20
9.140477095e-21
5.650122905e-21
6.86649722e-21
3.224434025e-21
2.923252466e-21
5.425482757e-22
5.210577404e-23
6.575418586e-21
1.061014561e-20
1.486245662e-22
1.209984871e-20
4.654920028e-21
7.305516542e-21
1.203302637e-20
5.848018993e-21
6.901196301e-21
3.665466353e-21
5.406073758e-21
3.506337207e-21
1.944251332e-22
1.797037346e-21
1.23296647e-20
1.288334108e-20
7.183895264e-21
1.688357043e-21
2.832541435e-21
4.29657304e-22
2.869894051e-22
3.938353005e-22
1.328838665e-22
1.820459841e-21
6.840342172e-21
7.348141754e-21
2.770344903e-21
3.901309462e-21
4.728671072e-22
9.076407024e-21
1.801938994e-21
7.270940652e-21
1.594060425e-21
3.46722411e-21
5.823612471e-21
1.91716448e-21
3.048286919e-22
1.502438281e-21
4.234198211e-21
2.877536468e-21
2.005627872e-21
9.474458706e-22
1.290305255e-21
9.314080747e-21
2.628436681e-21
4.051615506e-22
1.16689002e-22
8.09357889e-21
1.893592912e-21
7.396097692e-21
1.888622076e-21
1.437644927e-21
4.514739743e-22
5.195868572e-21
3.235295837e-21
4.370721808e-23
5.234404034e-21
8.765674273e-22
7.975349254e-21
3.26655156e-21
9.38783947e-21
5.782600234e-21
1.098342104e-22
1.096511268e-20
6.259945772e-22
1.933386184e-22
1.137329809e-20
8.824349918e-21
2.972291646e-21
2.799114842e-21
1.467487764e-21
2.557708998e-21
2.972671058e-21
1.68559907e-22
1.192881123e-20
4.420501163e-21
5.767328622e-21
3.884691047e-21
1.659369087e-21
7.16222055e-21
1.803106817e-21
4.672296289e-21
1.458027648e-20
2.100221031e-21
1.065754221e-21
3.161827408e-22
1.304428229e-21
1.298773254e-20
8.309763127e-21
5.244307616e-22
2.333318754e-21
1.63118037e-21
1.146822816e-21
1.697886758e-21
4.541630051e-21
7.331343869e-21
6.393562066e-22
2.715310108e-21
7.588312778e-21
7.878587622e-21
2.279023168e-21
5.881899304e-21
3.319470855e-21
1.791122914e-21
1.760908597e-20