/*--------------------------------*- C++ -*----------------------------------*\
| =========                 |                                                 |
| \\      /  F ield         | OpenFOAM: The Open Source CFD Toolbox           |
|  \\    /   O peration     | Version:  2406                                  |
|   \\  /    A nd           | Website:  www.openfoam.com                      |
|    \\/     M anipulation  |                                                 |
\*---------------------------------------------------------------------------*/
FoamFile
{
    version     2.0;
    format      ascii;
    arch        "LSB;label=32;scalar=64";
    class       labelField;
    location    "0.009/lagrangian/dsmc";
    object      origId;
}
// * * * * * * * * * * * * * * * * * * * * * * * * * * * * * * * * * * * * * //


5115
(
391172
392304
392406
392423
392426
392545
392621
392684
392799
393040
393114
393131
393148
393151
393238
393239
393245
393306
393329
393344
393355
393373
393383
393400
393402
393430
393431
393455
393457
393473
393475
393477
393478
393481
393494
393501
393509
393511
458449
393545
393551
393572
393575
393576
393585
393587
393590
393596
393611
393620
393631
393634
393636
393644
393648
393668
393678
393684
393687
393696
393701
393718
393721
393735
393736
393739
393744
393752
393754
393758
393759
393767
393800
393804
393816
393817
393818
393819
393833
393834
393835
393841
393846
393850
393852
393855
393857
393864
393869
393894
393902
393907
393908
393912
393913
393917
393921
393923
393925
393927
393928
393931
393943
393947
393952
393954
393960
393963
393966
393986
393990
393991
394007
394009
394010
394016
394020
394022
394023
394030
394039
394044
394055
394078
394080
394088
394097
394100
394102
394104
394105
394106
394110
394115
394117
394118
394123
394125
394129
394132
394133
394144
394146
394147
394148
394154
394157
394158
394163
394171
394176
394182
394186
394187
394189
394192
394194
394195
394197
394198
394203
394205
394210
394211
394216
394242
394247
394250
394254
394261
394263
394266
394273
394275
394276
394279
394280
394283
394286
394287
394288
394290
394291
394292
394294
394295
394296
394297
394300
394301
394305
394310
394313
394314
394319
394322
394328
394329
394330
394331
394334
394339
394340
394341
394342
394343
394344
394349
394353
394356
394357
394360
394362
394364
394367
394368
394373
394374
394377
394378
394382
394383
394399
459467
394412
394414
394416
394417
394422
394424
394426
394428
394429
394432
394435
394436
394437
394438
394440
394441
394442
394444
394445
394446
394447
394450
394454
394455
394456
394457
394460
394461
394462
394464
394466
394468
394469
394472
394473
394475
394477
394482
394483
394485
394486
394499
394500
394503
394507
394509
394511
394512
394513
394514
394515
394517
394518
394519
394520
394523
394524
394529
394531
394532
394533
394534
394536
394540
394541
394542
394543
394544
394546
394547
394548
394550
394551
394552
394553
394556
394561
394563
394566
394567
394568
394576
459570
394590
394593
394596
394598
394601
394602
394604
394605
394607
394608
394609
394611
394612
394617
394618
394619
394621
394622
394626
394627
394632
394633
394634
394635
394637
394639
394640
394641
394642
394643
394646
394647
394650
394651
394652
394654
394655
394656
394657
394660
394661
394681
394683
394685
394686
394687
394689
394690
394692
394695
394696
394701
394702
394703
394704
394706
394707
394708
394709
394711
394712
394713
394714
394716
394718
394719
394720
394721
394722
394723
394724
394726
394727
394728
394730
394731
394734
394735
394736
394737
394738
394740
394742
394743
394744
394745
394746
394748
394750
394751
394752
394753
394754
394756
394757
394759
459883
394771
394772
394777
394778
394779
394781
394782
394783
394787
394788
394789
394790
394791
394792
394793
394796
394797
394799
394800
394801
394803
394805
394807
394808
394810
394812
394814
394815
394818
394819
394820
394822
394823
394824
394825
394826
394827
394828
394829
394830
394831
394832
394834
394837
394839
394841
394857
394858
394862
394863
394865
394866
394867
394868
394870
394871
394872
394873
394875
394876
394877
394878
394880
394881
394882
394884
394885
394886
394887
394889
394890
394891
394892
394895
394899
394900
394902
394903
394904
394906
394907
394908
394909
394910
394911
394912
394913
394915
394917
394918
394919
394920
394921
394923
394925
460182
394939
394941
394942
394943
394944
394945
394947
394949
394952
394953
394954
394956
394958
394959
394961
394962
394963
394964
394965
394966
394967
394968
394969
394972
394974
394975
394976
394977
394978
394980
394981
394982
394983
394985
394986
394987
394990
394991
394993
394994
394995
394996
394997
394998
394999
395000
395001
395002
395003
395004
395005
395006
395010
395012
395013
395016
395018
460595
395032
395035
395037
395040
395042
395043
395044
395045
395046
395047
395048
395050
395053
395054
395056
395057
395058
395059
395060
395061
395062
395063
395065
395066
395067
395068
395069
395070
395071
395074
395075
395076
395077
395078
395079
395080
395081
395082
395084
395085
395087
395088
395089
395090
395095
395096
395097
395098
395101
395102
395107
395127
395128
395129
395131
395132
395133
395134
395136
395137
395138
395140
395141
395142
395143
395145
395146
395147
395149
395150
395152
395153
395154
395155
395156
395157
395158
395159
395160
395161
395162
395164
395165
395166
395168
395169
395170
395171
395172
395173
395174
395176
395177
395178
395179
395181
395182
395183
395184
395185
395186
395187
395188
395189
395196
395197
395198
457914
460594
395202
395204
395205
395206
395207
395209
395211
395212
395214
395215
395217
395218
395219
395220
395221
395222
395223
395224
395225
395226
395227
395228
395229
395230
395231
395232
395234
395236
395237
395238
395239
395240
395241
395242
395243
395244
395245
395247
395248
395249
395250
395251
395252
395255
395256
395257
395258
395259
395260
395261
395262
395263
395264
395265
395266
395268
395270
395272
395273
395275
395276
395277
395280
395281
395285
395287
395289
395291
395292
395293
395296
395298
395299
395300
395301
395302
395303
395304
395305
395306
395307
395308
395309
395310
395312
395313
395314
395315
395316
395317
395318
395319
395320
395321
395322
395323
395324
395325
395326
395328
395329
395330
395331
395332
395333
395334
395335
395336
395337
395340
395341
395342
395343
395344
395345
395346
395347
395348
395349
395352
395353
395354
395356
395357
395360
395366
460386
460697
395033
395378
395379
395383
395385
395386
395387
395388
395390
395391
395392
395394
395396
395397
395398
395399
395400
395402
395403
395404
395405
395406
395407
395408
395409
395410
395411
395412
395413
395414
395415
395416
395417
395418
395419
395420
395421
395422
395423
395424
395425
395426
395427
395428
395429
395430
395431
395432
395433
395434
395435
395436
395437
395438
395439
395440
395441
395442
395444
395445
395446
395447
395449
395450
395452
395454
395456
395457
460081
395464
395468
395471
395473
395475
395476
395478
395479
395480
395482
395483
395484
395485
395486
395487
395488
395490
395491
395492
395493
395494
395495
395496
395497
395498
395499
395500
395501
395502
395503
395504
395505
395506
395507
395508
395509
395510
395511
395512
395513
395514
395516
395517
395518
395519
395520
395521
395522
395523
395524
395525
395526
395527
395528
395529
395530
395531
395532
395533
395534
395536
395537
395538
395539
459464
460385
460488
395546
395549
395550
395551
395554
395556
395557
395558
395559
395560
395561
395562
395564
395565
395566
395567
395568
395569
395570
395572
395573
395574
395575
395576
395577
395578
395579
395580
395581
395582
395583
395584
395585
395586
395587
395588
395589
395590
395591
395592
395593
395594
395595
395596
395597
395598
395599
395600
395601
395602
395603
395604
395605
395606
395607
395608
395609
395610
395611
395612
395613
395614
395616
395617
395618
395619
395620
395621
395622
395623
395624
395625
395626
395627
395629
395630
459974
395638
395639
395640
395641
395642
395643
395644
395645
395646
395647
395648
395649
395650
395651
395652
395653
395654
395655
395656
395658
395659
395660
395661
395662
395663
395664
395665
395666
395667
395668
395669
395670
395671
395672
395673
395674
395675
395676
395677
395678
395679
395680
395681
395682
395683
395684
395685
395686
395687
395688
395690
395692
395693
395695
395696
395697
395698
395699
395702
395705
395708
395710
458129
395719
395721
395722
395723
395724
395726
395727
395729
395730
395731
395732
395733
395734
395736
395737
395738
395739
395740
395741
395742
395743
395744
395745
395746
395747
395748
395749
395750
395751
395752
395753
395754
395755
395756
395757
395758
395759
395760
395761
395762
395763
395764
395765
395766
395767
395768
395769
395770
395771
395772
395773
395774
395775
395776
395777
395778
395780
395781
395782
395784
395786
395788
395789
395794
395795
395796
395798
395804
395805
460799
395821
395824
395825
395826
395830
395831
395832
395834
395835
395836
395837
395838
395839
395840
395841
395842
395843
395844
395845
395846
395847
395848
395849
395850
395851
395852
395853
395854
395855
395856
395857
395858
395859
395860
395861
395862
395863
395864
395865
395866
395867
395868
395869
395870
395871
395872
395873
395874
395875
395876
395877
395878
395879
395880
395881
395882
395883
395885
395886
395887
395888
395889
395890
395891
395892
395897
395899
460899
461205
395912
395915
395916
395918
395919
395920
395921
395922
395923
395924
395925
395926
395927
395928
395929
395931
395932
395933
395934
395935
395936
395937
395938
395939
395940
395941
395942
395943
395944
395945
395946
395947
395948
395949
395950
395951
395952
395953
395954
395955
395956
395957
395958
395959
395960
395961
395962
395963
395964
395965
395966
395967
395968
395969
395970
395971
395972
395973
395974
395976
395977
395978
395979
395980
395981
395982
395985
395986
395987
395988
395989
393979
394595
461409
395998
395999
396001
396002
396004
396005
396006
396007
396009
396010
396011
396012
396015
396016
396017
396018
396019
396021
396022
396023
396024
396025
396026
396027
396028
396029
396030
396031
396032
396033
396034
396035
396036
396037
396038
396039
396040
396041
396042
396043
396044
396045
396046
396047
396048
396049
396050
396051
396052
396053
396054
396055
396056
396057
396058
396059
396060
396061
396062
396063
396064
396065
396066
396067
396068
396070
396071
396072
396075
396076
396079
459971
460486
461717
396089
396092
396093
396095
396096
396097
396098
396099
396100
396101
396102
396103
396104
396105
396106
396107
396108
396109
396110
396111
396112
396113
396114
396115
396116
396117
396118
396119
396120
396121
396122
396123
396124
396125
396126
396127
396128
396129
396130
396131
396132
396133
396134
396135
396136
396137
396138
396139
396140
396141
396142
396143
396144
396145
396146
396147
396148
396149
396150
396151
396152
396153
396154
396155
396156
396157
396158
396163
396164
396165
396166
396167
396170
461098
461618
396182
396184
396186
396187
396188
396191
396192
396193
396195
396196
396197
396198
396199
396200
396201
396202
396203
396204
396205
396206
396207
396208
396209
396210
396211
396212
396213
396214
396215
396216
396217
396218
396219
396220
396221
396222
396223
396224
396225
396226
396227
396228
396229
396230
396231
396232
396233
396234
396236
396237
396238
396239
396240
396241
396242
396243
396244
396245
396246
396248
396249
396250
396251
396253
396254
396257
396258
396259
396260
461093
462026
396268
396270
396271
396274
396275
396276
396277
396278
396279
396281
396282
396283
396285
396286
396287
396288
396289
396290
396291
396292
396293
396294
396295
396296
396297
396298
396299
396300
396301
396302
396303
396304
396305
396306
396307
396308
396309
396310
396311
396312
396313
396314
396315
396316
396317
396318
396319
396320
396321
396322
396323
396324
396325
396326
396327
396328
396329
396332
396333
396334
396335
396336
396337
396339
396340
396341
396344
459158
460290
460588
461100
461718
461923
396346
396347
396348
396349
396351
396353
396354
396355
396356
396357
396358
396359
396360
396361
396362
396364
396365
396366
396367
396368
396369
396370
396371
396372
396373
396374
396375
396376
396377
396378
396379
396380
396381
396382
396383
396384
396385
396386
396387
396388
396389
396390
396391
396392
396393
396394
396395
396396
396397
396398
396399
396400
396401
396402
396404
396405
396406
396407
396408
396409
396410
396411
396413
396414
396415
396417
396418
396419
396421
396423
396424
396425
396426
396427
396428
396429
396430
396433
396434
396436
396437
396438
396439
396441
396442
396443
396444
396445
396446
396447
396448
396449
396450
396451
396452
396453
396455
396456
396457
396458
396459
396460
396461
396462
396463
396464
396465
396466
396467
396468
396469
396470
396471
396472
396473
396474
396475
396476
396477
396478
396479
396480
396481
396482
396483
396484
396485
396486
396487
396488
396489
396490
396491
396492
396493
396494
396495
396496
396497
396498
396499
396501
396502
396503
396505
396506
396509
396512
396514
396515
396516
396517
460689
396530
396531
396533
396534
396536
396537
396538
396539
396540
396541
396542
396543
396544
396545
396546
396547
396548
396549
396550
396551
396552
396553
396554
396555
396556
396557
396558
396559
396560
396561
396562
396563
396564
396565
396566
396567
396568
396569
396570
396571
396572
396573
396574
396575
396576
396577
396578
396579
396580
396581
396582
396583
396584
396585
396586
396589
396591
396594
396595
396596
396599
394937
461617
462436
396606
396608
396609
396611
396613
396614
396615
396616
396617
396618
396620
396621
396623
396624
396625
396626
396627
396628
396629
396630
396631
396632
396633
396634
396635
396636
396637
396638
396639
396640
396641
396642
396643
396644
396645
396646
396647
396648
396649
396650
396651
396652
396653
396654
396655
396656
396657
396658
396659
396660
396661
396662
396663
396664
396665
396666
396667
396668
396669
396671
396672
396673
396674
396675
396676
396678
396679
396681
396682
396685
396686
460076
396692
396695
396696
396697
396698
396700
396701
396702
396703
396704
396705
396707
396708
396709
396710
396711
396712
396713
396714
396715
396716
396717
396718
396719
396720
396721
396722
396723
396724
396725
396726
396727
396728
396729
396730
396731
396732
396733
396734
396735
396736
396737
396738
396739
396740
396741
396742
396743
396744
396745
396746
396747
396748
396749
396750
396751
396752
396753
396754
396755
396758
396759
396760
396761
396763
396766
396768
396770
461719
396779
396783
396784
396785
396787
396788
396789
396790
396791
396792
396793
396795
396796
396797
396798
396799
396800
396801
396802
396803
396804
396805
396806
396807
396808
396809
396810
396811
396812
396813
396814
396815
396816
396817
396818
396819
396820
396821
396822
396823
396824
396825
396826
396827
396828
396829
396830
396831
396832
396833
396834
396835
396836
396837
396838
396839
396840
396841
396842
396843
396844
396845
396847
396848
396849
396850
396851
396853
396854
396856
396857
396858
460898
461819
462233
396868
396869
396872
396873
396874
396875
396876
396877
396878
396880
396881
396882
396883
396884
396885
396886
396887
396888
396889
396890
396891
396892
396893
396894
396895
396896
396897
396898
396899
396900
396901
396902
396903
396904
396905
396906
396907
396908
396909
396910
396911
396912
396913
396914
396915
396916
396917
396918
396919
396920
396921
396922
396923
396924
396925
396926
396927
396928
396929
396930
396931
396932
396934
396935
396936
396937
396938
396939
396940
396941
396942
396943
396944
396945
396947
396948
396949
396950
396951
459567
462024
395635
462537
462636
396954
396955
396957
396958
396960
396961
396962
396964
396965
396966
396967
396968
396969
396970
396971
396972
396973
396974
396975
396976
396977
396978
396979
396980
396981
396982
396983
396984
396985
396986
396987
396988
396989
396990
396991
396992
396993
396994
396995
396996
396997
396998
396999
397000
397001
397002
397003
397004
397005
397006
397007
397008
397009
397010
397011
397012
397013
397014
397015
397016
397017
397018
397019
397020
397021
397022
397023
397024
397025
397026
397029
397030
397031
397032
397035
458020
461512
462942
397043
397045
397046
397048
397051
397052
397053
397054
397055
397056
397057
397058
397059
397060
397061
397062
397063
397064
397065
397066
397067
397068
397069
397070
397071
397072
397073
397074
397075
397076
397077
397078
397079
397080
397081
397082
397083
397084
397085
397086
397087
397088
397089
397090
397091
397092
397093
397094
397095
397096
397097
397098
397099
397100
397101
397102
397103
397104
397105
397106
397107
397108
397110
397112
397114
397115
397116
397118
397119
397120
397121
397122
397123
397124
397126
460696
462635
462943
397129
397130
397131
397132
397133
397134
397135
397136
397137
397138
397139
397140
397141
397143
397144
397145
397146
397147
397148
397149
397150
397151
397152
397153
397154
397155
397156
397157
397158
397159
397160
397161
397162
397163
397164
397165
397166
397167
397168
397169
397170
397171
397172
397173
397174
397175
397176
397177
397178
397179
397180
397181
397182
397183
397184
397185
397186
397187
397188
397189
397190
397191
397192
397193
397194
397195
397196
397197
397199
397201
397203
397204
397206
462530
397214
397215
397219
397220
397221
397223
397224
397225
397226
397227
397229
397230
397231
397232
397233
397234
397235
397236
397237
397238
397239
397240
397241
397242
397243
397244
397245
397246
397247
397248
397249
397250
397251
397252
397253
397254
397255
397256
397257
397258
397259
397260
397261
397262
397263
397264
397265
397266
397267
397268
397269
397270
397271
397272
397273
397274
397275
397276
397277
397278
397279
397280
397281
397282
397283
397285
397286
397287
397288
397289
397290
397291
397294
397295
397296
397297
397298
397300
397301
397302
397303
397304
397305
397306
458846
460170
460281
393014
462334
462632
397314
397318
397321
397322
397323
397325
397326
397327
397328
397329
397330
397331
397332
397333
397334
397335
397336
397337
397338
397339
397340
397341
397342
397343
397344
397345
397346
397347
397348
397349
397350
397351
397352
397353
397354
397355
397356
397357
397358
397359
397360
397361
397362
397363
397364
397365
397366
397367
397368
397369
397370
397371
397372
397373
397374
397375
397376
397377
397378
397379
397380
397382
397383
397384
397385
397386
397387
397389
397391
397393
397394
397395
459370
461198
462438
395995
463146
397404
397405
397406
397407
397408
397409
397410
397411
397412
397413
397414
397415
397416
397417
397418
397419
397420
397421
397422
397423
397424
397425
397426
397427
397428
397429
397430
397431
397432
397433
397434
397435
397436
397437
397438
397439
397440
397441
397442
397443
397444
397445
397446
397447
397448
397449
397450
397451
397452
397453
397454
397455
397456
397457
397458
397459
397460
397461
397462
397463
397465
397468
397469
397471
397473
460491
460894
461193
461400
461506
462332
397477
397478
397479
397481
397482
397483
397484
397486
397487
397488
397489
397491
397492
397493
397494
397495
397496
397497
397498
397499
397500
397501
397502
397503
397504
397505
397506
397507
397508
397509
397510
397511
397512
397513
397514
397515
397516
397517
397518
397519
397520
397521
397522
397523
397524
397525
397526
397527
397528
397529
397530
397531
397532
397533
397534
397535
397536
397537
397538
397539
397540
397541
397542
397543
397544
397545
397546
397547
397548
397549
397550
397552
397556
397557
397558
397559
397560
397561
397562
397563
461200
462130
397576
397578
397579
397580
397583
397584
397585
397586
397587
397588
397589
397590
397591
397592
397593
397594
397595
397596
397597
397598
397599
397600
397601
397602
397603
397604
397605
397606
397607
397608
397609
397610
397611
397612
397613
397614
397615
397616
397617
397618
397619
397620
397621
397622
397623
397624
397625
397626
397627
397628
397629
397630
397631
397632
397633
397634
397635
397636
397637
397638
397639
397640
397641
397642
397643
397645
397646
397647
397648
397649
397650
397651
397654
397656
397657
397658
397659
397660
397661
397663
397664
460998
461303
395124
462437
397668
397671
397672
397673
397674
397675
397677
397679
397680
397681
397682
397683
397684
397685
397686
397687
397688
397689
397690
397691
397692
397693
397694
397695
397696
397697
397698
397699
397700
397701
397702
397703
397704
397705
397706
397707
397708
397709
397710
397711
397712
397713
397714
397715
397716
397717
397718
397719
397720
397721
397722
397723
397724
397725
397726
397727
397728
397729
397730
397731
397732
397733
397734
397735
397736
397737
397739
397740
397741
397744
397745
397748
397749
397751
397752
397753
461619
463671
397758
397760
397762
397763
397764
397765
397766
397767
397768
397769
397770
397771
397773
397774
397775
397776
397777
397778
397779
397780
397781
397782
397783
397784
397785
397786
397787
397788
397789
397790
397791
397792
397793
397794
397795
397796
397797
397798
397799
397800
397801
397802
397803
397804
397805
397806
397807
397808
397809
397810
397811
397812
397813
397814
397815
397816
397817
397818
397819
397820
397821
397822
397823
397824
397825
397826
397827
397829
460779
461919
463362
463461
463561
463873
397836
397838
397840
397841
397842
397843
397844
397845
397846
397847
397848
397849
397850
397851
397852
397853
397854
397855
397856
397857
397858
397859
397860
397861
397862
397863
397864
397865
397866
397867
397868
397869
397870
397871
397872
397873
397874
397875
397876
397877
397878
397879
397880
397881
397882
397883
397884
397885
397886
397887
397888
397889
397890
397891
397892
397893
397894
397895
397896
397897
397898
397899
397901
397902
397903
397904
397906
397907
397909
397910
397911
397912
397913
397914
397915
397916
396000
463047
463258
397927
397928
397929
397930
397931
397932
397933
397934
397935
397937
397938
397939
397940
397941
397942
397943
397944
397945
397946
397947
397948
397949
397950
397951
397952
397953
397954
397955
397956
397957
397958
397959
397960
397961
397962
397963
397964
397965
397966
397967
397968
397969
397970
397971
397972
397973
397974
397975
397976
397977
397978
397979
397980
397981
397982
397983
397984
397985
397986
397987
397988
397989
397990
397991
397992
397993
397994
397995
397996
397997
397998
397999
398002
398003
398005
398006
398007
398008
398009
461611
462731
398016
398017
398018
398021
398022
398023
398025
398026
398027
398028
398030
398031
398033
398034
398035
398036
398037
398038
398039
398040
398041
398042
398043
398044
398045
398046
398047
398048
398049
398050
398051
398052
398053
398054
398055
398056
398057
398058
398059
398060
398061
398062
398063
398064
398065
398066
398067
398068
398069
398070
398071
398072
398073
398074
398075
398076
398077
398078
398079
398080
398081
398082
398083
398084
398085
398086
398087
398089
398090
398091
398093
398094
398095
462531
462630
463149
463872
464177
398097
398098
398100
398101
398103
398104
398106
398107
398108
398109
398110
398111
398112
398113
398114
398115
398116
398117
398118
398119
398120
398121
398122
398123
398124
398125
398126
398127
398128
398129
398130
398131
398132
398133
398134
398135
398136
398137
398138
398139
398140
398141
398142
398143
398144
398145
398146
398147
398148
398149
398150
398151
398152
398153
398154
398155
398156
398157
398158
398159
398160
398161
398162
398163
398164
398165
398166
398167
398168
398169
398170
398171
398172
398173
398174
398175
398177
398179
398181
398182
398183
398184
398185
398186
461201
461606
461705
461916
462025
464065
398188
398189
398190
398191
398192
398193
398194
398195
398196
398197
398198
398199
398200
398201
398202
398203
398204
398205
398206
398207
398208
398209
398210
398211
398212
398213
398214
398215
398216
398217
398218
398219
398220
398221
398222
398223
398224
398225
398226
398227
398228
398229
398230
398231
398232
398233
398234
398235
398236
398237
398238
398239
398240
398241
398242
398243
398244
398245
398246
398247
398248
398249
398250
398251
398252
398253
398255
398256
398257
398258
398260
398261
398262
398263
398264
398265
460587
460683
460796
460994
394938
463970
464175
464271
464371
398272
398274
398275
398276
398277
398278
398279
398280
398281
398282
398283
398284
398285
398286
398287
398288
398289
398290
398291
398292
398293
398294
398295
398296
398297
398298
398299
398300
398301
398302
398303
398304
398305
398306
398307
398308
398309
398310
398311
398312
398313
398314
398315
398316
398317
398318
398319
398320
398321
398322
398323
398324
398325
398326
398327
398328
398329
398330
398331
398332
398333
398334
398335
398336
398337
398338
398339
398340
398341
398342
398343
398344
398345
398347
398348
398350
398351
398352
398353
398354
398355
398356
459755
460695
462840
463869
398360
398363
398364
398365
398366
398367
398368
398370
398371
398372
398373
398374
398375
398376
398377
398378
398379
398380
398381
398382
398383
398384
398385
398386
398387
398388
398389
398390
398391
398392
398393
398394
398395
398396
398397
398398
398399
398400
398401
398402
398403
398404
398405
398406
398407
398408
398409
398410
398411
398412
398413
398414
398415
398416
398417
398418
398419
398420
398421
398422
398423
398424
398425
398426
398427
398430
398434
398435
398436
398437
398438
398439
398440
398441
398443
398444
459044
461191
462234
462327
464067
394860
398446
398447
398449
398450
398451
398452
398453
398454
398455
398456
398457
398458
398459
398460
398461
398462
398463
398464
398465
398466
398467
398468
398469
398470
398471
398472
398473
398474
398475
398476
398477
398478
398479
398480
398481
398482
398483
398484
398485
398486
398487
398488
398489
398490
398491
398492
398493
398494
398495
398496
398497
398498
398499
398500
398501
398502
398503
398504
398505
398506
398507
398508
398509
398510
398511
398512
398513
398514
398515
398516
398517
398519
398521
398522
398523
456759
459542
460999
461509
462631
462944
463772
462836
398530
398531
398534
398535
398536
398537
398538
398539
398540
398541
398542
398543
398544
398545
398546
398547
398548
398549
398550
398551
398552
398553
398554
398555
398556
398557
398558
398559
398560
398561
398562
398563
398564
398565
398566
398567
398568
398569
398570
398571
398572
398573
398574
398575
398576
398577
398578
398579
398580
398581
398582
398583
398584
398585
398586
398587
398588
398589
398590
398591
398592
398593
398594
398595
398596
398597
398598
398599
398600
398601
398602
398604
398608
398609
398610
398611
398612
398613
398614
398615
398616
398617
398618
398619
459969
460079
462231
462324
462427
462732
463145
464367
464370
464372
464688
398622
398623
398624
398626
398627
398628
398629
398630
398631
398632
398633
398634
398635
398636
398637
398638
398639
398640
398641
398642
398643
398644
398645
398646
398647
398648
398649
398650
398651
398652
398653
398654
398655
398656
398657
398658
398659
398660
398661
398662
398663
398664
398665
398666
398667
398668
398669
398670
398671
398672
398673
398674
398675
398676
398677
398678
398679
398680
398681
398682
398683
398684
398685
398686
398687
398688
398689
398690
398691
398692
398693
398694
398695
398696
398697
398698
398699
398701
398702
398704
398705
398706
398707
398708
398709
398710
398711
398712
398713
398714
398715
398716
459042
460970
461299
461907
395382
462329
462730
462939
463039
463558
395036
464176
464576
398720
398721
398722
398723
398724
398725
398726
398727
398728
398729
398730
398731
398732
398733
398734
398735
398736
398737
398738
398739
398740
398741
398742
398743
398744
398745
398746
398747
398748
398749
398750
398751
398752
398753
398754
398755
398756
398757
398758
398759
398760
398761
398762
398763
398764
398765
398766
398767
398768
398769
398770
398771
398772
398773
398774
398775
398776
398777
398778
398779
398780
398781
398782
398783
398784
398785
398786
398787
398788
398789
398790
398791
398794
398795
398796
398797
398798
398799
398800
398801
398802
398803
398804
398805
461911
462633
462833
463046
463255
463766
464781
398811
398812
398813
398814
398815
398816
398817
398818
398819
398820
398821
398822
398823
398824
398825
398826
398827
398828
398829
398830
398831
398832
398833
398834
398835
398836
398837
398838
398839
398840
398841
398842
398843
398844
398845
398846
398847
398848
398849
398850
398851
398852
398853
398854
398855
398856
398857
398858
398859
398860
398861
398862
398863
398864
398865
398866
398867
398868
398869
398870
398871
398872
398873
398874
398875
398876
398877
398878
398879
398880
398881
398882
398883
398884
398885
398886
398888
398889
398890
398891
398892
398893
398894
398895
398896
461505
462121
463972
464170
394241
464892
398898
398900
398901
398902
398903
398904
398905
398906
398907
398908
398909
398910
398911
398912
398913
398914
398915
398916
398917
398918
398919
398920
398921
398922
398923
398924
398925
398926
398927
398928
398929
398930
398931
398932
398933
398934
398935
398936
398937
398938
398939
398940
398941
398942
398943
398944
398945
398946
398947
398948
398949
398950
398951
398952
398953
398954
398955
398956
398957
398958
398959
398960
398961
398962
398963
398964
398965
398966
398967
398968
398970
398973
398974
398975
458936
460059
461087
461815
394693
462435
398977
398978
398979
398980
398981
398982
398983
398984
398985
398986
398987
398988
398989
398990
398991
398992
398993
398994
398995
398996
398997
398998
398999
399000
399001
399002
399003
399004
399005
399006
399007
399008
399009
399010
399011
399012
399013
399014
399015
399016
399017
399018
399019
399020
399021
399022
399023
399024
399025
399026
399027
399028
399029
399030
399031
399032
399033
399034
399035
399036
399037
399038
399039
399040
399041
399042
399043
399044
399045
399046
399047
399048
399050
399053
399054
399056
399057
399058
399059
399060
399061
399062
399063
459039
461271
462331
462637
462728
463252
463971
464063
464575
458750
396871
399065
399066
399067
399068
399070
399071
399072
399073
399074
399075
399076
399077
399078
399079
399080
399081
399082
399083
399084
399085
399086
399087
399088
399089
399090
399091
399092
399093
399094
399095
399096
399097
399098
399099
399100
399101
399102
399103
399104
399105
399106
399107
399108
399109
399110
399111
399112
399113
399114
399115
399116
399117
399118
399119
399120
399121
399122
399123
399124
399125
399126
399127
399128
399129