/*--------------------------------*- C++ -*----------------------------------*\
| =========                 |                                                 |
| \\      /  F ield         | OpenFOAM: The Open Source CFD Toolbox           |
|  \\    /   O peration     | Version:  2406                                  |
|   \\  /    A nd           | Website:  www.openfoam.com                      |
|    \\/     M anipulation  |                                                 |
\*---------------------------------------------------------------------------*/
FoamFile
{
    version     2.0;
    format      ascii;
    arch        "LSB;label=32;scalar=64";
    class       Cloud<dsmcParcel>;
    location    "0.009/lagrangian/dsmc";
    object      positions;
}
// * * * * * * * * * * * * * * * * * * * * * * * * * * * * * * * * * * * * * //

5115
(
(0.03996330001 0.2275663432 -1.084202172e-19) 441
(0.05649203223 0.2014984991 2.168404345e-19) 413
(0.06975010964 0.2460972583 1.084202172e-19) 475
(0.06458512137 0.2857543847 0) 524
(0.05334955963 0.2126935093 2.168404345e-19) 423
(0.05265191497 0.2915108261 0) 532
(0.07067400343 0.254655089 -8.131516294e-20) 485
(0.0620212448 0.2284226904 -2.710505431e-20) 444
(0.0745543298 0.1879630946 0) 385
(0.06987342087 0.2351783642 -2.168404345e-19) 455
(0.0672729708 0.2174672797 -1.084202172e-19) 434
(0.06640663665 0.2012552561 0) 414
(0.06941178021 0.2657440799 2.168404345e-19) 505
(0.06874473493 0.2363301522 2.168404345e-19) 455
(0.07135888145 0.2363049181 -2.168404345e-19) 455
(0.0679911655 0.2669887629 -1.084202172e-19) 504
(0.07270299711 0.248127607 2.710505431e-20) 475
(0.05651860485 0.2513376444 5.421010862e-20) 483
(0.06562306235 0.2380267945 0) 464
(0.06389643374 0.2548403642 1.626303259e-19) 484
(0.05841528483 0.2526830365 1.084202172e-19) 483
(0.06502387311 0.1901113533 3.252606517e-19) 394
(0.0680042797 0.1910526241 0) 394
(0.06158346772 0.2058954468 -1.084202172e-19) 414
(0.03873414162 0.2179857854 0) 431
(0.05177193443 0.2591780178 0) 492
(0.06916306359 0.2256087056 -2.168404345e-19) 445
(0.07239941519 0.1734586861 5.336307568e-20) 365
(0.07532345019 0.1953802331 -2.168404345e-19) 405
(0.07287087729 0.2060935315 1.084202172e-19) 415
(0.06163204932 0.2457926386 -2.168404345e-19) 474
(0.05022882616 0.1879804614 -1.084202172e-19) 392
(0.0749902694 0.1935057437 -2.168404345e-19) 395
(0.06158740439 0.241063881 1.084202172e-19) 464
(0.06036514605 0.2474697332 0) 473
(0.01913396504 0.2424463017 0) 468
(0.07395531075 0.2299526611 4.33680869e-19) 445
(0.05192500684 0.2297528006 -2.168404345e-19) 452
(0.06363839548 0.2311258279 2.168404345e-19) 454
(0.07552205819 0.1813348677 0) 385
(0.06697221365 0.1903250969 -8.131516294e-20) 394
(0.04378851223 0.1885341876 0) 391
(0.05180279416 0.2061980696 -2.168404345e-19) 412
(0.01417490962 0.2740516846 -5.082197684e-20) 507
(0.0467349658 0.2600448042 0) 492
(0.0439396605 0.2618304827 -2.168404345e-19) 491
(0.02607354382 0.2633007223 0) 489
(0.06637300853 0.2575180407 -1.084202172e-19) 484
(0.07525935421 0.2976588037 2.168404345e-19) 545
(0.04295131758 0.2701139076 -3.252606517e-19) 501
(0.06891994373 0.2407415184 0) 465
(0.03279132383 0.181570258 -3.523657061e-19) 380
(0.06534575576 0.1924431972 -1.084202172e-19) 394
(0.05332169825 0.2459717744 -1.084202172e-19) 472
(0.06810351345 0.2034098667 0) 414
(0.05990062252 0.2412184886 -2.168404345e-19) 463
(0.06662692122 0.2679084233 8.131516294e-20) 504
(0.07396596433 0.2242345535 0) 445
(0.06613240629 0.2164403624 2.168404345e-19) 434
(0.05238076836 0.2873556936 4.33680869e-19) 532
(0.07500469484 0.2820202417 0) 525
(0.06912503886 0.2160075654 0) 435
(0.06237056682 0.2244767581 -1.084202172e-19) 444
(0.03636498931 0.2316218699 2.168404345e-19) 450
(0.05991148031 0.2140286625 -4.33680869e-19) 423
(0.05757386437 0.2055418896 -2.710505431e-20) 413
(0.03196760989 0.2480294179 -5.421010862e-20) 470
(0.05450498515 0.2735948972 0) 513
(0.02541886687 0.2515076526 -5.421010862e-20) 479
(0.03322258422 0.2819006237 -7.453889936e-20) 520
(0.06363076845 0.19635237 -1.084202172e-19) 404
(0.06808357004 0.2394565229 1.084202172e-19) 464
(0.04615398375 0.2046065924 2.168404345e-19) 412
(0.05342438262 0.1848787581 0) 383
(0.05551625647 0.2658597978 -3.252606517e-19) 503
(0.02529194678 0.1949547998 -6.505213035e-19) 399
(0.04637276005 0.1886588459 2.778268067e-19) 392
(0.06840694081 0.2006638756 4.33680869e-19) 404
(0.04345137539 0.2648214696 2.168404345e-19) 501
(0.06619235143 0.2498912294 0) 474
(0.07060945012 0.2303655161 0) 455
(0.0730583151 0.2296174588 0) 445
(0.05690629333 0.26463665 -7.589415207e-19) 503
(0.05541874211 0.2303931435 -3.252606517e-19) 453
(0.06547511389 0.2435637027 4.33680869e-19) 474
(0.06997556713 0.2374685446 0) 465
(0.06606489277 0.2403664881 -2.168404345e-19) 464
(0.07535131699 0.2170286731 -6.505213035e-19) 435
(0.05619238415 0.2897084887 2.168404345e-19) 533
(0.07086643115 0.2164530372 -2.168404345e-19) 435
(0.05317093453 0.1960641839 1.084202172e-19) 402
(0.07550435757 0.1941022838 2.168404345e-19) 395
(0.04242508024 0.2042535143 -1.084202172e-19) 411
(0.04445127042 0.2070367791 0) 421
(0.06457041821 0.2086318056 1.355252716e-20) 424
(0.06710655127 0.2113172671 0) 424
(0.07213234608 0.2037706343 -2.439454888e-19) 415
(0.04707601499 0.2992843637 1.084202172e-19) 542
(0.07600752161 0.2357009097 0) 455
(0.06688000376 0.211709455 2.57498016e-19) 424
(0.05434179627 0.2520080968 1.084202172e-19) 483
(0.04760708684 0.2486829553 4.33680869e-19) 472
(0.0747220229 0.2517693854 2.168404345e-19) 485
(0.04027386941 0.2639216315 0) 501
(0.06382167183 0.2808021841 1.084202172e-19) 524
(0.02473834376 0.2580097621 3.794707604e-19) 489
(0.06143899415 0.2795970932 -1.626303259e-19) 524
(0.06142687022 0.2810964581 -4.33680869e-19) 524
(0.04101202707 0.2479123853 2.168404345e-19) 471
(0.0656697436 0.1713643995 -2.168404345e-19) 364
(0.05797337376 0.2302892145 -2.168404345e-19) 453
(0.0560754829 0.2097213907 -3.252606517e-19) 423
(0.06284463132 0.217341095 2.710505431e-19) 434
(0.07251649056 0.2140641272 5.421010862e-20) 425
(0.07159465694 0.2112249674 -1.626303259e-19) 425
(0.04544736591 0.210199297 0) 421
(0.06565711748 0.2215574982 0) 434
(0.07014229545 0.2411308251 0) 465
(0.04844332763 0.2317110132 0) 452
(0.06471888936 0.2874944488 1.558540623e-19) 534
(0.0445869587 0.2586903378 -2.168404345e-19) 491
(0.06689601614 0.2741504607 0) 514
(0.06680574109 0.2888606117 1.084202172e-19) 534
(0.07358488932 0.1740359154 -4.33680869e-19) 375
(0.07100488187 0.1846074796 0) 385
(0.05038385866 0.2157688483 0) 432
(0.06172404194 0.2412036563 0) 464
(0.07446753362 0.2413702583 0) 465
(0.0687831416 0.233915115 -1.084202172e-19) 455
(0.05220439882 0.2487700033 4.33680869e-19) 472
(0.018139178 0.2266407024 -2.168404345e-19) 448
(0.03624906856 0.223071807 5.421010862e-20) 440
(0.07152351398 0.2436739838 2.168404345e-19) 465
(0.04562817943 0.2507462484 0) 481
(0.07064936786 0.2804566195 -5.421010862e-19) 525
(0.07524275789 0.2765324564 4.33680869e-19) 515
(0.05872902646 0.2931666931 0) 543
(0.05939429276 0.2761391853 0) 513
(0.02177172035 0.2897253815 0) 528
(0.07329478571 0.2863407433 0) 535
(0.07573734754 0.2389302986 0) 465
(0.06275415111 0.2103948109 -5.421010862e-20) 424
(0.02308167565 0.2042443515 -2.168404345e-19) 409
(0.05306735933 0.1831781018 -2.168404345e-19) 382
(0.07599001851 0.2048349437 1.626303259e-19) 415
(0.07285883946 0.1760771418 1.084202172e-19) 375
(0.07543372536 0.1992830708 0) 405
(0.06239711851 0.2250264222 -2.168404345e-19) 444
(0.06442566637 0.2136438694 0) 424
(0.0572465364 0.2061691891 1.355252716e-19) 413
(0.07056112405 0.2404941901 -2.710505431e-20) 465
(0.0712340618 0.2046576817 -5.421010862e-20) 415
(0.07204084454 0.229734487 -2.168404345e-19) 445
(0.06055257666 0.2407908806 2.168404345e-19) 463
(0.07025791475 0.2164916607 0) 435
(0.06559662865 0.2480547785 4.33680869e-19) 474
(0.0457491068 0.2746337789 0) 512
(0.03148641987 0.2780025344 -3.794707604e-19) 510
(0.03300261177 0.2455921493 2.57498016e-19) 470
(0.05423058822 0.2517894071 -1.084202172e-19) 483
(0.06758480456 0.2516013514 2.168404345e-19) 484
(0.06781955765 0.2551127797 -2.168404345e-19) 484
(0.01916335257 0.2780615555 4.33680869e-19) 518
(0.05086252041 0.2741284575 0) 512
(0.06961954755 0.274138837 4.33680869e-19) 515
(0.05555880591 0.1852230702 3.252606517e-19) 383
(-0.001767159246 0.2099306443 2.168404345e-19) 119
(0.04721195183 0.1756359018 0) 372
(0.04549715321 0.1769581385 4.33680869e-19) 371
(0.04813309321 0.2302123545 0) 452
(0.05839863596 0.2089640346 0) 423
(0.063093517 0.2053093149 1.084202172e-19) 414
(0.04517144777 0.2308621136 -5.421010862e-20) 451
(0.04210799096 0.20962712 1.355252716e-20) 421
(0.07359529345 0.2594341995 -4.33680869e-19) 495
(0.05804149075 0.2432076232 0) 473
(0.05378453842 0.2671500261 -2.168404345e-19) 503
(0.05129810681 0.2472901398 0) 472
(0.0590405393 0.2512704201 -2.168404345e-19) 483
(0.06025496838 0.245230701 1.084202172e-19) 473
(0.01772755302 0.2078009263 -2.778268067e-19) 418
(0.06727802144 0.2797604475 -2.168404345e-19) 524
(0.07220501176 0.2664661921 -2.981555974e-19) 505
(0.03148405526 0.2755789392 0) 510
(0.06844374748 0.2369933481 0) 464
(0.05132802523 0.2848626547 -2.168404345e-19) 522
(0.01271389007 0.2617659475 1.084202172e-19) 487
(0.04295063733 0.2963128395 2.168404345e-19) 541
(0.05562310452 0.2829373592 1.084202172e-19) 523
(0.06377590579 0.2832678466 -1.660184577e-19) 524
(0.06135205807 0.2686625468 -5.421010862e-20) 504
(0.06839207849 0.276182726 0) 514
(0.03137990661 0.2886317394 0) 530
(0.06157511368 0.2841861996 0) 524
(0.06678284458 0.1714582921 2.168404345e-19) 364
(0.07297224219 0.197393959 2.168404345e-19) 405
(0.0687000462 0.1739363004 1.084202172e-19) 375
(0.03978459545 0.1953199134 1.355252716e-19) 401
(0.05090654752 0.230412799 -1.084202172e-19) 452
(0.06190650428 0.2020706358 -6.776263578e-19) 414
(0.06195313566 0.2142592384 5.421010862e-20) 424
(0.06767258001 0.2106785444 -1.084202172e-19) 424
(0.06738936874 0.2155481675 0) 434
(0.04720963183 0.1803399648 2.168404345e-19) 382
(0.04816478019 0.1953644614 -5.421010862e-20) 402
(0.04869376812 0.1706129682 2.168404345e-19) 362
(0.0666728256 0.2180832066 2.710505431e-19) 434
(0.02162813098 0.2677025284 4.33680869e-19) 498
(0.05511002107 0.2659575636 0) 503
(0.01437730056 0.2041289091 -2.168404345e-19) 417
(0.06247104155 0.2495077467 2.710505431e-19) 474
(0.07539175985 0.2386461297 -2.168404345e-19) 465
(0.04233019945 0.241578289 1.355252716e-19) 461
(-0.01333258755 0.263204075 -4.33680869e-19) 278
(0.03439100068 0.2616141576 -1.151964808e-19) 490
(0.03662734523 0.2399625798 -2.168404345e-19) 460
(0.07416430952 0.2901016196 0) 535
(0.01932089747 0.2459179219 5.421010862e-20) 468
(0.03634177182 0.2929412036 0) 540
(0.06037047634 0.2800841866 0) 523
(0.05392470669 0.2895462425 -2.710505431e-19) 533
(0.07510925433 0.2740369993 1.084202172e-19) 515
(0.06093349892 0.2433756388 0) 473
(0.07018809124 0.1954342054 0) 405
(0.0507580542 0.2124998953 1.084202172e-19) 422
(0.03503318434 0.1929275049 0) 400
(0.0565633224 0.2125249848 0) 423
(0.04204879353 0.206284839 0) 421
(0.06946719603 0.1702305352 -1.897353802e-19) 365
(0.05139354598 0.2231522353 0) 442
(0.05852878281 0.1810674533 -4.33680869e-19) 383
(0.07597088838 0.2313422826 0) 455
(0.03723689513 0.1957877331 -4.33680869e-19) 400
(0.07441370142 0.2498423903 0) 475
(0.05126205719 0.2042115903 -1.084202172e-19) 412
(0.06062666552 0.2155604248 2.168404345e-19) 433
(0.06037932393 0.2393175701 5.421010862e-20) 463
(0.04481918054 0.2206420006 2.168404345e-19) 431
(0.06737510985 0.2378052645 0) 464
(0.02728696839 0.2397414569 -5.421010862e-20) 459
(0.06716577772 0.2384879668 3.252606517e-19) 464
(0.0484407143 0.2227575864 1.084202172e-19) 442
(0.05286867068 0.2050269524 2.168404345e-19) 412
(0.05927584643 0.2221670251 4.33680869e-19) 443
(0.06316074352 0.2464023262 -2.168404345e-19) 474
(0.05672210164 0.2596653098 8.131516294e-20) 493
(0.01266668342 0.2396803102 2.168404345e-19) 457
(0.0197821686 0.2324179575 0) 448
(0.05719334104 0.2820447655 6.776263578e-20) 523
(0.06683399621 0.2805336767 -2.168404345e-19) 524
(0.07139118758 0.2298106302 2.168404345e-19) 455
(0.0673978411 0.2590298999 0) 494
(0.07016063081 0.2717043498 2.168404345e-19) 505
(0.02763383563 0.2760806526 -1.084202172e-19) 509
(0.03877000467 0.2956782116 -2.168404345e-19) 541
(0.07532282776 0.2455862872 0) 475
(0.0599138258 0.2468325866 0) 473
(0.05250607003 0.2653296635 -4.33680869e-19) 502
(0.02267414358 0.2651377422 0) 498
(0.05557126414 0.2934175724 0) 543
(0.06996151859 0.240186058 4.33680869e-19) 465
(0.05228284279 0.2835159358 2.168404345e-19) 522
(0.05654147622 0.2753965054 3.523657061e-19) 513
(0.02101465171 0.2981176771 -2.168404345e-19) 538
(0.07619221638 0.2769286936 4.33680869e-19) 515
(0.07016335369 0.1693665055 -3.252606517e-19) 365
(0.05817340874 0.2069633915 1.084202172e-19) 413
(0.04424790407 0.1796174283 -2.168404345e-19) 381
(0.03792193792 0.1801918938 -4.607859233e-19) 380
(0.07406285416 0.2202301784 1.084202172e-19) 435
(0.06509269115 0.1774275522 1.355252716e-19) 374
(0.06743030255 0.1932405124 -2.168404345e-19) 394
(0.05236710755 0.2142620246 0) 432
(0.03361360357 0.1898292 -4.33680869e-19) 390
(0.03615852594 0.2267204539 -2.168404345e-19) 440
(0.003695986768 0.1962734173 3.117081246e-19) 406
(0.05453546512 0.24679194 -1.897353802e-19) 473
(0.05863889525 0.1968611334 -3.388131789e-20) 403
(0.04326519102 0.2075073255 -2.168404345e-19) 421
(0.07583581195 0.2117761744 4.33680869e-19) 425
(0.07346784607 0.2636015604 2.168404345e-19) 495
(0.06898170935 0.2272059913 -1.084202172e-19) 445
(0.04796193622 0.2439770029 2.168404345e-19) 472
(0.06006420382 0.2253356325 -9.486769009e-20) 443
(0.06351758772 0.2577049663 2.168404345e-19) 494
(0.03922144128 0.2267640206 3.794707604e-19) 441
(0.07317723186 0.2149381098 -5.421010862e-20) 425
(0.04272184039 0.2601348332 5.421010862e-20) 491
(0.05709356556 0.2633984679 0) 493
(0.06522635745 0.2350872438 1.626303259e-19) 454
(0.06200244673 0.270764578 3.726944968e-19) 504
(0.07025254088 0.2239125351 0) 445
(0.07522562586 0.2444529385 -4.33680869e-19) 475
(0.06451277049 0.2141542311 0) 424
(0.07246049899 0.2490231422 -7.453889936e-20) 475
(0.0512370972 0.2515569719 2.168404345e-19) 482
(0.01919847773 0.2473773645 0) 468
(0.07230651321 0.2176005526 -1.219727444e-19) 435
(0.07045227777 0.278944149 2.168404345e-19) 525
(0.03659300962 0.2520009687 -4.33680869e-19) 480
(0.04927581852 0.2878833286 3.523657061e-19) 532
(0.05597149596 0.2748242357 3.252606517e-19) 513
(0.01040819379 0.2504873572 2.168404345e-19) 477
(0.06964994731 0.2656563055 2.168404345e-19) 505
(0.06894394316 0.2991298463 2.168404345e-19) 545
(0.06317097232 0.2575495352 1.084202172e-19) 494
(0.07274768807 0.1806963675 -3.252606517e-19) 375
(0.06554180076 0.1681869359 0) 364
(0.05009982689 0.1848194385 5.421010862e-20) 382
(0.01323312689 0.2084025404 4.33680869e-19) 417
(0.073113777 0.2214868302 -5.421010862e-20) 435
(0.06108917334 0.1672474306 4.33680869e-19) 364
(0.06748892579 0.204250595 0) 414
(0.0428868238 0.2265486087 3.252606517e-19) 441
(0.04951436112 0.2053288392 2.168404345e-19) 412
(0.07010012505 0.1779312621 1.084202172e-19) 375
(0.03710372231 0.2121451842 -2.168404345e-19) 420
(0.04888295053 0.2372130357 2.168404345e-19) 462
(0.05711848822 0.2117289819 -5.421010862e-20) 423
(0.03721554561 0.2318426804 -2.168404345e-19) 450
(0.05993609303 0.2135172315 0) 423
(0.06883601673 0.178958944 0) 375
(0.06257754461 0.2281684916 -2.168404345e-19) 444
(0.05401820321 0.182867744 1.084202172e-19) 383
(0.0169892342 0.1943361612 -2.168404345e-19) 398
(0.07540919049 0.2377171911 4.33680869e-19) 465
(0.06486292688 0.271513637 -1.151964808e-19) 504
(0.05711860169 0.2476759846 1.084202172e-19) 473
(0.05364177403 0.2409443173 1.084202172e-19) 463
(0.04856829344 0.2138933825 -2.168404345e-19) 422
(0.07386785179 0.2134306874 -1.084202172e-19) 425
(0.02486056124 0.2646923966 0) 499
(0.06652660519 0.2198245414 1.084202172e-19) 434
(0.05746236112 0.2625870812 -1.355252716e-19) 493
(0.06314637476 0.2678169159 -2.168404345e-19) 504
(0.06886503176 0.2491946298 -2.168404345e-19) 475
(0.04176383852 0.2325466485 1.084202172e-19) 451
(0.07040809504 0.2790889615 -2.168404345e-19) 525
(0.07290114718 0.2626686901 -1.084202172e-19) 495
(0.0341184018 0.2938934942 2.57498016e-19) 540
(0.05319862799 0.2778215858 0) 512
(0.04525580406 0.2923373641 -8.67361738e-19) 531
(0.01898754682 0.2965905096 -2.710505431e-20) 538
(0.04768423245 0.2612868609 -1.084202172e-19) 492
(0.04882733699 0.2684715074 -3.388131789e-20) 502
(0.06733870808 0.2886833212 -5.421010862e-20) 534
(0.04824421857 0.2675413435 0) 502
(0.07567838816 0.2721366806 4.33680869e-19) 515
(0.03616119752 0.2161097586 0) 430
(0.06683194589 0.1979244396 0) 404
(0.03955949125 0.1774620876 -2.168404345e-19) 381
(0.02263156012 0.1748697027 0) 368
(0.04452596265 0.1809747434 -1.76182853e-19) 381
(0.0642771951 0.2216888424 0) 434
(0.06641803928 0.1877659074 0) 394
(0.07256299737 0.1952036125 -4.33680869e-19) 405
(0.07383553689 0.1850329523 0) 385
(0.06244109822 0.2142343872 1.084202172e-19) 424
(0.03639341493 0.1943861741 8.131516294e-20) 400
(0.04906180507 0.2250485408 -1.626303259e-19) 442
(0.02359454465 0.2137519949 1.084202172e-19) 429
(0.05383022302 0.2307977999 -2.168404345e-19) 453
(0.05285844469 0.2015756518 2.168404345e-19) 412
(0.03987607836 0.1839159707 1.084202172e-19) 381
(0.06753157127 0.1831571837 2.710505431e-19) 384
(0.06952287066 0.1918058231 0) 395
(0.02288710403 0.2413309439 -3.455894425e-19) 469
(0.06302140989 0.2191815834 0) 434
(0.07344016969 0.2608641987 -1.084202172e-19) 495
(0.0187084549 0.2108301329 -4.33680869e-19) 418
(0.04562212674 0.238974651 0) 461
(0.06880308339 0.2552134917 1.084202172e-19) 485
(0.04322594128 0.2479834494 2.168404345e-19) 471
(0.05861804181 0.1955820334 0) 403
(0.05104756023 0.2208782155 -1.084202172e-19) 432
(0.07475446343 0.2420419899 -2.168404345e-19) 465
(0.04953253303 0.2403741944 -1.164670302e-19) 462
(0.05924787056 0.2899829646 0) 533
(0.02550766621 0.2773918716 0) 509
(0.06589480319 0.2272651117 1.084202172e-19) 444
(0.02029578414 0.2841988716 -2.168404345e-19) 518
(0.05170412003 0.2666684515 1.084202172e-19) 502
(0.03177896994 0.2311918053 1.897353802e-19) 450
(0.04898831931 0.2460112487 -2.710505431e-20) 472
(0.06567399014 0.2944632881 0) 544
(0.01786835478 0.299984831 0) 538
(0.04098975341 0.2386989165 1.355252716e-20) 461
(0.06711246623 0.2734403012 -2.168404345e-19) 514
(0.02540839872 0.2554603221 2.168404345e-19) 479
(0.05288921731 0.2545767668 2.168404345e-19) 482
(0.07091919773 0.2742315994 -2.439454888e-19) 515
(0.03754428906 0.2961141243 8.131516294e-20) 540
(0.07374961741 0.2850695846 1.084202172e-19) 525
(0.04673376725 0.2571716548 0) 492
(-0.0180950514 0.2644390846 0) 277
(0.0636700237 0.2376383405 -1.084202172e-19) 464
(0.06088056584 0.2628731852 0) 493
(0.04619462489 0.2530889558 -2.168404345e-19) 482
(0.03302509989 0.2057930772 1.084202172e-19) 420
(0.06997158258 0.263971988 3.252606517e-19) 495
(0.04564462752 0.2464001985 0) 471
(0.04735530746 0.2667071491 -3.252606517e-19) 502
(0.04448328508 0.2675571266 -1.863472484e-19) 501
(0.07210763308 0.1693356751 -2.168404345e-19) 365
(0.04798527527 0.1735412191 1.084202172e-19) 372
(0.04587876108 0.1854107716 -1.084202172e-19) 392
(0.05195654456 0.1714358319 4.33680869e-19) 372
(0.07524745554 0.1850398361 0) 385
(0.03184068357 0.2246543475 1.084202172e-19) 440
(0.07339367308 0.1999400262 1.084202172e-19) 405
(0.02343767971 0.1798388419 0) 379
(0.03555973429 0.1997103185 0) 410
(0.05979651228 0.1716552303 0) 363
(0.07397893426 0.2034262909 4.33680869e-19) 415
(0.06577344409 0.1729001002 -1.084202172e-19) 364
(0.07413591998 0.2047242618 2.710505431e-19) 415
(0.07178488267 0.22288676 2.710505431e-19) 445
(0.05578332243 0.2131256512 -1.084202172e-19) 423
(0.02439601187 0.2231766918 -2.710505431e-20) 439
(0.02715293403 0.2025061208 2.710505431e-19) 409
(0.06016415574 0.181428571 3.252606517e-19) 383
(0.02934205097 0.2448668793 3.523657061e-19) 469
(0.03695200257 0.2165432291 -2.032879073e-19) 430
(0.073284796 0.189439786 0) 395
(0.03308348775 0.1778710649 4.33680869e-19) 380
(0.05098673849 0.2426193347 -4.33680869e-19) 462
(0.03779740153 0.1802974722 -1.355252716e-20) 380
(0.03017838339 0.2209136461 0) 439
(0.06274593378 0.2684133511 -2.710505431e-19) 504
(0.02198610503 0.2194833497 0) 438
(0.05966251266 0.2477615868 -4.33680869e-19) 473
(0.0670433547 0.2359542493 2.168404345e-19) 454
(0.06357584098 0.2318360053 -2.846030703e-19) 454
(0.02285253826 0.2886783867 2.981555974e-19) 528
(0.05528574859 0.2580794192 2.168404345e-19) 493
(0.0440216062 0.2596590541 -1.084202172e-19) 491
(0.05640461859 0.2766068099 0) 513
(0.03614396824 0.2379993625 -1.355252716e-19) 460
(0.04181733195 0.2299412135 3.659182332e-19) 451
(0.05869159871 0.2598957317 2.168404345e-19) 493
(0.07050683674 0.2571130684 -2.168404345e-19) 485
(0.02952181376 0.2750769572 2.168404345e-19) 509
(0.01243022051 0.2748008112 -1.084202172e-19) 507
(0.05983175099 0.2783414755 0) 513
(0.02685587543 0.2618753545 8.131516294e-20) 489
(0.05505172227 0.2639013496 -1.084202172e-19) 493
(0.0061596585 0.2217474587 0) 436
(0.02893770275 0.2598692527 -2.168404345e-19) 489
(0.05893132851 0.2540837831 0) 483
(0.03696203412 0.2994361423 0) 540
(0.07615015735 0.2005461322 0) 405
(0.03786323057 0.1729912165 4.607859233e-19) 370
(0.06373381334 0.2000356369 0) 404
(0.06290806946 0.2056630921 0) 414
(0.0523945226 0.1961962582 5.421010862e-20) 402
(0.05877541754 0.1827535385 -4.33680869e-19) 383
(0.03840429033 0.1804208221 0) 381
(0.02511684287 0.1942941848 -2.168404345e-19) 399
(0.06408755077 0.182273305 -1.626303259e-19) 384
(0.05690215379 0.2372853237 5.421010862e-19) 463
(-0.001214584241 0.2154054934 -2.168404345e-19) 139
(0.05196244181 0.224690379 -2.168404345e-19) 442
(0.05831755216 0.185355837 0) 383
(0.04997366552 0.236699184 0) 462
(0.06986702982 0.2232003392 4.33680869e-19) 445
(0.03834999453 0.2083938583 0) 421
(0.01331842381 0.2089035906 0) 417
(0.04202485484 0.218957415 1.897353802e-19) 431
(0.04796931334 0.1705425022 2.168404345e-19) 362
(0.044433547 0.2411824505 2.168404345e-19) 461
(0.06804750384 0.2595721105 -4.33680869e-19) 494
(0.05171013886 0.236837601 2.168404345e-19) 462
(0.01943322956 0.213585604 2.168404345e-19) 428
(0.04629719872 0.2151783307 0) 432
(0.04438099024 0.2604232815 -2.168404345e-19) 491
(0.05992649342 0.2073449727 0) 413
(0.02378042193 0.2174525089 -2.168404345e-19) 429
(0.05897545294 0.2229503205 0) 443
(0.0585401203 0.2366220716 -2.168404345e-19) 463
(0.04441696023 0.2890920983 1.490777987e-19) 531
(0.04792067684 0.2556940757 -2.168404345e-19) 482
(0.01965372396 0.2016514216 5.421010862e-20) 408
(-0.002535232517 0.2493357214 -4.33680869e-19) 239
(0.05619753942 0.2852541829 2.168404345e-19) 523
(0.07406726162 0.2670757764 -2.168404345e-19) 505
(0.05083319282 0.2531687635 -5.421010862e-20) 482
(0.05781428904 0.2678570722 -5.149960319e-19) 503
(0.05045769501 0.2705646667 -1.084202172e-19) 502
(0.02199403102 0.2512820576 0) 478
(0.03723126743 0.2928813792 0) 540
(0.06113605168 0.2422840389 -2.168404345e-19) 464
(0.06592700233 0.2551561509 3.252606517e-19) 484
(0.07524297775 0.2621989877 0) 495
(0.05244289522 0.2825773698 -2.168404345e-19) 522
(0.03535725096 0.2691707116 1.084202172e-19) 500
(0.03777942145 0.2821510164 0) 520
(0.02872519893 0.2879036393 -3.252606517e-19) 529
(-0.03400478498 0.2728649419 0) 295
(0.05343300314 0.287386839 4.33680869e-19) 533
(0.0507423287 0.1850602773 1.084202172e-19) 382
(0.03957549723 0.2010698842 -1.084202172e-19) 411
(0.03895421254 0.1802710327 4.33680869e-19) 381
(0.02766956079 0.1951933694 -3.252606517e-19) 399
(0.05921135904 0.178166903 -2.168404345e-19) 373
(0.02680443609 0.1919843777 -6.505213035e-19) 399
(0.03897220266 0.1725997976 2.168404345e-19) 371
(0.05337600188 0.1756012119 -5.421010862e-20) 373
(0.04195740675 0.1860637978 -4.33680869e-19) 391
(0.0392343595 0.1740366098 0) 371
(0.06342107222 0.176740163 -1.626303259e-19) 374
(0.02242140271 0.2591234019 5.421010862e-20) 488
(0.03953473359 0.1792456302 0) 381
(0.02391216804 0.1960574838 2.168404345e-19) 399
(0.05722612823 0.2046841827 2.913793339e-19) 413
(0.03409903287 0.2003795031 2.168404345e-19) 410
(0.04038141949 0.1668192981 3.794707604e-19) 361
(0.05478348636 0.1900397775 2.168404345e-19) 393
(-0.01339871464 0.2360928797 -2.168404345e-19) 198
(0.0591925502 0.1929494362 4.33680869e-19) 393
(0.0673734802 0.2528147235 0) 484
(0.06651810531 0.2016651712 -4.33680869e-19) 414
(0.05135142096 0.2274573945 0) 442
(0.01169248058 0.2234314622 1.897353802e-19) 437
(0.07169329626 0.2727757565 0) 515
(0.05830692024 0.2430922927 0) 463
(0.06363469323 0.2002179507 -2.168404345e-19) 404
(0.03780958414 0.2366068286 -2.168404345e-19) 460
(0.0350955639 0.2210773124 0) 440
(0.05540739293 0.25349379 -1.084202172e-19) 483
(0.008765445245 0.2259069886 2.168404345e-19) 447
(0.04825294334 0.2290180372 1.084202172e-19) 452
(0.03534038027 0.2299972323 0) 450
(0.07278822284 0.2611945335 1.897353802e-19) 495
(0.06929458757 0.2195894621 0) 435
(0.04844355902 0.2545400874 1.490777987e-19) 482
(0.0421142702 0.2465100472 2.303929617e-19) 471
(0.03540614841 0.240963517 -1.084202172e-19) 460
(0.02911442076 0.2157703603 -5.421010862e-20) 429
(0.04377899009 0.2388207505 -2.168404345e-19) 461
(0.0469972666 0.2455829257 -4.33680869e-19) 472
(0.03704004273 0.2078587888 1.084202172e-19) 420
(0.04156112245 0.2286854576 3.794707604e-19) 451
(0.03413704529 0.2767123021 -2.168404345e-19) 510
(0.025990835 0.2574211052 1.084202172e-19) 489
(0.04891493484 0.2826983935 -6.776263578e-21) 522
(0.03699006791 0.2793911835 4.33680869e-19) 520
(0.02617761063 0.243760559 -4.878909776e-19) 469
(0.01950684996 0.270557086 0) 508
(0.06428565134 0.2286338453 2.168404345e-19) 444
(0.04936736858 0.2710970481 -2.168404345e-19) 502
(0.06024619923 0.2842965933 2.168404345e-19) 523
(0.04672150699 0.2680424962 -8.131516294e-20) 502
(0.01216041899 0.2821200144 0) 517
(0.02761211743 0.2407384044 -3.252606517e-19) 459
(0.06495252923 0.2801952734 0) 524
(0.004953295002 0.2909607906 2.168404345e-19) 526
(0.02338075351 0.2601796387 0) 489
(0.05674138008 0.1754489621 3.726944968e-20) 373
(0.03495748286 0.197488909 -2.168404345e-19) 400
(0.06921969288 0.1891363845 -1.084202172e-19) 395
(0.03780247787 0.1676857329 2.168404345e-19) 360
(0.0170293955 0.2130918694 0) 428
(-0.003981896813 0.2146775867 3.794707604e-19) 139
(0.06341229706 0.197413631 -6.09863722e-20) 404
(0.04545236378 0.2037188335 -4.33680869e-19) 411
(0.03596772212 0.1957394692 -2.168404345e-19) 400
(0.06288735439 0.2213539505 2.168404345e-19) 434
(0.04686535668 0.2328544267 -2.168404345e-19) 452
(0.02527434581 0.190402476 3.252606517e-19) 399
(-0.0001105691522 0.2006974676 -4.33680869e-19) 99
(0.05026492319 0.1763713486 5.421010862e-20) 372
(0.0165537087 0.2405369097 0) 458
(0.05476345681 0.2196415711 -2.168404345e-19) 433
(0.01473690122 0.2852903092 0) 527
(0.04059915454 0.168677153 -1.084202172e-19) 361
(0.01466942185 0.2020985267 -2.168404345e-19) 407
(0.01243322114 0.2661256649 1.084202172e-19) 497
(0.0374936635 0.2321780853 -2.168404345e-19) 450
(0.05941972967 0.237185071 2.168404345e-19) 463
(0.02974268215 0.2132208702 2.168404345e-19) 429
(0.05588211229 0.2195395225 -5.421010862e-20) 433
(0.01722640776 0.2054025031 0) 418
(0.07256914213 0.1920238248 2.710505431e-20) 395
(0.04226051588 0.2579168862 4.33680869e-19) 491
(0.01891058021 0.2460624018 1.084202172e-19) 468
(0.05988270729 0.2364162737 -4.33680869e-19) 463
(0.0483618119 0.2668421213 -2.710505431e-20) 502
(0.06547528774 0.2363054489 3.794707604e-19) 454
(0.02431888402 0.2559116124 0) 479
(0.01091182769 0.2154949032 -4.065758147e-19) 427
(0.06309602701 0.2239715614 1.084202172e-19) 444
(0.04884807616 0.2436087052 -1.084202172e-19) 472
(0.05988241332 0.1999035566 2.168404345e-19) 403
(0.007972249905 0.2497403456 0) 477
(0.03243658883 0.209543755 0) 420
(0.03084876247 0.2308202779 1.897353802e-19) 450
(0.03502382077 0.2307089167 -1.897353802e-19) 450
(0.05451075475 0.2371633053 2.710505431e-20) 463
(0.05690556002 0.271133002 0) 503
(0.01723131088 0.2456148157 -1.084202172e-19) 468
(0.04716448426 0.2937091778 -2.168404345e-19) 542
(0.04332856883 0.2848958002 3.252606517e-19) 521
(0.05391782852 0.2687754766 -1.084202172e-19) 503
(0.07114302667 0.2877907961 0) 535
(0.06379323462 0.2789869602 -1.084202172e-19) 524
(0.04312368707 0.2594892412 2.168404345e-19) 491
(0.06174611543 0.2808276465 -2.168404345e-19) 524
(0.03374393954 0.2767423341 -3.252606517e-19) 510
(0.027983261 0.2873576145 -1.084202172e-19) 529
(0.01984492838 0.1891220129 -2.168404345e-19) 388
(0.0749115855 0.2106686724 2.168404345e-19) 425
(0.0430582591 0.1813230764 3.252606517e-19) 381
(0.01219277034 0.174828092 2.168404345e-19) 377
(0.03650240274 0.1730327914 -2.168404345e-19) 370
(0.07243517684 0.186478984 1.626303259e-19) 385
(0.01865029175 0.2338164943 -2.439454888e-19) 458
(0.04778027901 0.20837389 0) 422
(0.03026069448 0.1976538268 0) 399
(0.03345944811 0.238599243 3.252606517e-19) 460
(0.01730260102 0.2418811071 0) 468
(0.05614123719 0.1800027059 -4.33680869e-19) 383
(0.04065517997 0.2169182519 6.437450399e-20) 431
(0.03360122708 0.216537149 2.57498016e-19) 430
(0.06784200849 0.19084562 -4.33680869e-19) 394
(0.07394569852 0.1968152873 0) 405
(0.05086301707 0.2442924139 0) 472
(0.02177560709 0.2126158154 -2.168404345e-19) 428
(0.03665633871 0.2075121256 0) 420
(0.03435196333 0.1959023272 5.421010862e-20) 400
(0.04085758338 0.2180683775 -2.846030703e-19) 431
(0.03769776749 0.2346108878 -2.168404345e-19) 450
(0.03334488396 0.19636497 -5.421010862e-19) 400
(0.0633379877 0.2051654362 0) 414
(0.04692559211 0.2571590063 6.505213035e-19) 492
(0.03650734984 0.239465365 4.33680869e-19) 460
(0.05174172947 0.2479552287 4.33680869e-19) 472
(0.05021172372 0.2424377849 -1.084202172e-19) 462
(0.07307506464 0.2344434191 -2.710505431e-19) 455
(0.03806098034 0.2068780457 2.168404345e-19) 420
(0.01698818569 0.2146269415 -2.168404345e-19) 428
(0.009127790763 0.255736416 4.33680869e-19) 487