/*--------------------------------*- C++ -*----------------------------------*\
| =========                 |                                                 |
| \\      /  F ield         | OpenFOAM: The Open Source CFD Toolbox           |
|  \\    /   O peration     | Version:  2406                                  |
|   \\  /    A nd           | Website:  www.openfoam.com                      |
|    \\/     M anipulation  |                                                 |
\*---------------------------------------------------------------------------*/
FoamFile
{
    version     2.0;
    format      ascii;
    arch        "LSB;label=32;scalar=64";
    class       vectorField;
    location    "0.009/lagrangian/dsmc";
    object      U;
}
// * * * * * * * * * * * * * * * * * * * * * * * * * * * * * * * * * * * * * //


5115
(
(1207.307452 255.6354657 -169.4732368)
(1543.513667 439.3997229 -366.8130943)
(1762.525438 699.4909965 -54.28409807)
(876.891338 481.2287435 -51.18294474)
(867.2817815 121.1202212 618.5806349)
(1287.708423 195.8369315 -535.8883972)
(1606.734267 -40.46853665 -129.099573)
(1662.899743 -406.0978489 -307.8958145)
(1885.494177 -296.0355264 206.5980629)
(1788.326099 266.8205855 556.1571154)
(1309.375876 46.25333854 -301.8441367)
(1344.184949 -156.098976 -24.60371296)
(1485.815647 115.7511853 38.92443112)
(1402.919371 -176.4030006 -145.1939581)
(1309.92921 1.41262472 120.2494635)
(929.0339062 -98.88075194 227.799357)
(1860.918521 -145.8397767 -523.1843381)
(1317.927617 158.6446621 65.05956679)
(1024.337883 -40.33404212 246.9031366)
(1532.914599 -55.50226105 655.1532515)
(1846.81804 -39.78253152 -115.8404607)
(1630.280409 106.7759165 533.0627122)
(1460.810969 -466.3136311 -148.8327487)
(2119.373148 -630.0422543 -15.3877344)
(1234.711238 -93.08051294 -439.8638847)
(1338.292144 -32.38308105 -370.2247311)
(1597.556458 -835.4292957 -410.6656219)
(1816.678094 123.4227826 -362.9214149)
(2093.947392 -355.2527005 253.9889914)
(1487.197461 9.102758507 -55.73965344)
(2142.458027 444.2002821 -36.33084711)
(2022.838811 -13.23886628 298.82339)
(1870.748944 -13.85905254 172.3387745)
(1735.243798 476.0141065 414.202436)
(1703.950934 -106.769724 -64.36264113)
(1188.718203 -238.4591888 110.0497698)
(1210.418551 -39.77665538 -558.0681789)
(1296.891136 -91.0496583 246.2290725)
(1233.464822 170.1754071 -482.8638298)
(1376.567394 -183.016188 -251.8394546)
(1050.530038 -160.916774 -226.4326948)
(1900.048742 75.48418798 -233.5345925)
(1430.023077 127.0270886 -163.338415)
(1531.930578 120.7737936 67.63549427)
(940.9464685 69.97515181 269.7479382)
(1509.736578 550.3288681 -25.48175569)
(1589.341001 -49.81051628 217.7337873)
(1842.683057 331.2292325 -43.57975313)
(1709.370151 150.0050981 -138.5547885)
(1631.387999 -289.1464381 -347.7777244)
(1281.507162 -125.1280774 -115.7430758)
(1633.854794 -478.2045768 352.546978)
(1735.64311 94.91625306 355.0115553)
(1769.956713 596.5862774 50.53503838)
(1720.914155 362.7376819 245.6113056)
(1804.490867 360.9563229 -53.7929674)
(1354.202546 154.0271761 281.2482463)
(1222.808912 -324.316597 -344.5446524)
(1539.158595 -297.5371032 3.095710907)
(1739.014704 -156.0983924 35.67944155)
(1656.682793 172.6253201 -223.7792099)
(1440.099295 377.2497032 297.2491265)
(1889.262605 26.35684514 -453.805304)
(820.548818 621.4955133 -349.2221922)
(1624.984339 311.2280857 -505.1697477)
(1369.255464 -202.817637 269.7152567)
(1410.828594 -44.98964961 647.3585916)
(1053.837277 200.6281812 84.53765927)
(1428.290517 248.2111467 72.36975161)
(1443.175186 -32.21269417 -5.328114694)
(1245.452463 -171.7503604 -257.4172823)
(1671.957005 -271.7167759 -425.2463978)
(2009.571375 51.05939533 -413.6992233)
(1840.738328 54.46536513 333.9947903)
(1375.194108 529.2330149 -117.3795247)
(1137.560719 221.2885929 194.0893392)
(1440.456012 -534.7347837 421.1752409)
(1766.374806 -180.1556926 -109.6523442)
(1166.776023 25.6341047 -142.9969868)
(1602.713182 177.3026336 -179.0638312)
(1680.834978 -272.6392842 -531.0796063)
(1602.661468 -96.93907325 48.90296993)
(1821.86042 286.3592869 -385.2154116)
(1462.659794 -239.5706212 57.81406761)
(1677.519657 482.7697856 216.1228443)
(2075.614579 222.951945 -49.2804305)
(1337.35398 -347.0950785 -148.5375821)
(1624.245941 -490.7361398 -122.3752041)
(1546.788826 108.3789803 113.1040706)
(1539.642069 414.310985 166.3562251)
(1716.986395 -109.8007091 -960.5464944)
(1389.377075 -193.2004191 340.5403384)
(1571.925275 -2.736220336 -26.63923171)
(1442.037666 557.0969018 -163.1262551)
(1531.551121 -94.15672185 255.822402)
(1466.478868 45.77012958 -258.1067942)
(1609.986394 16.56865767 181.351073)
(2133.468948 633.709932 79.26795112)
(1359.369842 177.939524 -323.6568575)
(1454.399283 -60.90198409 143.8951933)
(1543.89889 385.6574438 255.6882839)
(1464.735179 152.2210196 282.7392074)
(1526.734068 409.8452861 -287.0795271)
(872.0683235 230.1681766 87.54409474)
(1644.044239 -342.2750039 -351.1053063)
(1791.921053 325.6618915 47.43743013)
(1569.629982 198.2050331 -104.0131879)
(1428.330543 -184.9393192 172.5558427)
(1246.497037 -48.27832866 292.4860176)
(1708.214184 86.35788276 -273.8833322)
(1628.843222 497.0098423 121.4848578)
(1702.386349 613.1205581 -280.4473807)
(1620.221847 -67.95050302 111.5189665)
(1283.220011 -812.7504012 -538.2419116)
(1401.523684 -118.0169986 -18.69434462)
(1428.469549 -65.60780254 -338.1775391)
(1958.419609 -444.4385171 212.8798673)
(2245.327311 15.20036462 185.114475)
(1390.122534 262.1427903 -306.6972262)
(1448.269462 423.9015762 -201.1024456)
(1327.218686 -9.423377607 -331.8013044)
(1689.156999 627.499613 -87.0900551)
(1582.857413 -66.09265033 -205.954216)
(1482.220354 -252.4992047 -350.3579177)
(1202.495146 -165.9037739 -245.5496607)
(1829.687928 -618.1582574 594.4530877)
(1718.113466 -28.46456539 105.1198638)
(1756.036521 557.5049965 597.9432407)
(1127.234108 -127.2203672 69.06949407)
(1648.308471 8.160889008 -150.1319346)
(1164.286899 182.2052236 -212.0748771)
(1231.552278 -18.04741916 -67.12714948)
(1571.072439 1.590707409 61.20953404)
(1425.864503 -380.3161026 -218.8520005)
(2074.899817 -309.4734146 -331.1880142)
(1855.712526 96.18539775 289.8210669)
(1581.454193 209.3945464 -52.87452889)
(1760.24089 -327.3319938 -207.2550149)
(1805.822845 109.3026974 -370.3674582)
(1245.440721 26.68077819 -359.7526061)
(1535.494349 125.0185957 64.72346309)
(1572.130234 538.0213607 277.2261487)
(1140.387018 -177.8000869 -62.73584598)
(1690.419625 85.06224346 533.6980294)
(1707.618829 128.2249233 392.0662156)
(1398.283733 -151.8259949 54.82357547)
(1622.156947 -55.09640514 -274.7296807)
(2304.242745 -1.049456466 239.1391398)
(2100.038933 174.1170548 -232.3398484)
(1100.131861 -33.49888641 -200.1898551)
(1606.542481 -278.3840322 42.98886039)
(1846.317313 -120.0654733 -83.0018914)
(1590.477019 336.0846859 51.12027809)
(1660.450512 -248.8135618 -146.1036062)
(1659.591512 -320.3105511 -9.619703966)
(1541.850288 138.0173592 -520.8145643)
(1287.315288 -76.54607694 -271.4033564)
(1806.285662 234.0527338 166.4260783)
(1465.272326 -289.5098855 -229.6840912)
(1686.373084 161.8774548 588.5067751)
(1293.738941 115.7381898 533.5797857)
(1383.114835 -246.5778139 -202.8044287)
(1064.496671 -40.63094775 54.02172543)
(1026.727521 -228.5642932 -277.336524)
(1579.044555 -141.0093618 -143.0638734)
(1330.179957 -151.8727678 236.7766904)
(1692.121387 -250.8400823 83.73479774)
(1715.206963 -394.6137092 -43.8634994)
(1281.048679 -18.4987035 -192.6291523)
(1802.960161 168.3813832 91.99929743)
(1083.923114 162.9475176 -110.8648513)
(1715.283775 339.7939005 -1.084601415)
(1859.542117 -29.56724912 525.835241)
(1538.446812 -84.75224018 27.10209239)
(1731.05824 78.81239557 -133.7795937)
(1611.675923 7.014088416 -130.2313298)
(1621.813171 -141.2847762 -124.8156797)
(1539.738375 290.9014244 -237.7587496)
(1217.078133 -157.7764692 -353.0289571)
(1625.961351 -144.0879495 23.25253098)
(1625.993668 -497.6863434 -59.49957838)
(1745.029685 176.9101261 -78.63006656)
(1804.828946 198.6033542 -86.29265663)
(1526.257141 701.5382218 -22.85633427)
(1756.757004 242.0799116 152.3634782)
(1308.685395 -49.43800936 -551.8643256)
(1238.370152 -108.2344774 82.88006446)
(1375.617345 236.9816614 -47.25185245)
(1280.086517 619.3220767 -201.7539272)
(1799.344794 -353.6716494 79.37870318)
(1681.857151 -130.8016795 213.4449328)
(2109.201128 59.95338868 170.6531913)
(1341.757887 -82.04607411 391.1422474)
(1436.61902 378.1272861 238.2198894)
(1667.526005 -6.557436926 241.825658)
(2076.939736 189.6169459 -12.20126481)
(2036.619366 56.05025667 -17.30742192)
(1772.761003 253.2468464 13.03228929)
(1382.707226 211.6805627 140.1927657)
(1435.842228 -176.4410861 -377.9862635)
(1969.538751 333.8583992 -32.05141001)
(1817.2053 218.5123987 -113.2208833)
(1954.678194 -43.38871853 385.5268146)
(1822.471549 22.82388631 -412.3482226)
(2003.671694 -382.9350745 -39.01490593)
(1446.231544 -164.6651371 -34.86204911)
(1763.082834 -257.0850865 156.2622342)
(1253.354721 -158.3483646 329.3362993)
(1672.613083 9.197569152 -150.2018702)
(1101.612542 -180.7429029 314.6793762)
(1490.722554 274.4041327 -29.22042279)
(1830.709555 -132.483807 -130.9470225)
(1741.216322 317.1646683 482.557885)
(1061.559785 -372.3145363 367.8978997)
(1353.489932 106.5375682 -530.7989239)
(1523.935892 -543.2631764 219.0995136)
(2431.368914 630.7114985 -450.4683065)
(1856.882215 -658.9908965 -322.3511607)
(1443.677241 340.90357 -272.2629841)
(1422.783141 -25.39637689 172.1058812)
(1479.391684 340.7836232 -140.4940544)
(1671.978112 202.4903356 218.9414032)
(1102.736531 -553.2232669 -161.5375683)
(1519.575349 294.6394774 -240.9203232)
(1518.575506 279.8302959 84.0176973)
(1441.180008 98.41734372 180.1281234)
(1990.541586 458.4029583 -119.0015985)
(1687.345217 540.7444771 417.7154554)
(1749.713363 -467.7348729 167.2941619)
(1868.685725 306.7588804 129.0266497)
(1780.569989 -249.7128165 295.959192)
(2112.796587 612.1375485 -223.3957226)
(1421.608354 -109.1779474 -115.413103)
(1627.879447 558.7779581 -458.1136425)
(1511.999035 -63.52829097 -119.9575653)
(1516.662246 -54.76253003 -175.7175455)
(1530.818986 468.6262901 -0.4143611932)
(1997.6793 226.7812683 184.5462972)
(1915.351331 -491.8955316 278.91847)
(1403.960691 147.6191992 -31.47872699)
(1573.029478 -492.7394913 342.4638386)
(1726.363577 -462.9732447 -446.5954621)
(1854.936686 -309.0250028 -250.3089568)
(1472.452017 -256.8955229 -140.5226993)
(916.6750557 442.214189 433.5529531)
(2071.659154 -41.22228638 82.04088524)
(1101.041381 174.6266011 -18.13484903)
(1054.944573 -287.281181 524.4147025)
(1924.311214 456.2756258 -249.1961938)
(2089.192694 251.7865206 407.1002133)
(1697.708451 -380.9193073 189.2135479)
(1862.539075 114.3721772 135.5421877)
(1872.18127 -33.65561439 35.16831962)
(1592.094679 124.0866065 127.472538)
(1335.527177 109.1204775 -175.5756544)
(1540.640534 -407.6759648 -372.2937728)
(1399.250819 -229.9874111 547.7953525)
(1426.930978 -109.2281117 31.49543366)
(1380.957282 -37.982523 38.00269207)
(1779.093697 -217.2584638 204.4651204)
(1872.571423 105.1266042 -554.5716093)
(1655.323928 -246.8860002 228.8246896)
(1423.494098 -291.0895742 -544.0076575)
(1266.398971 265.6034553 196.1796622)
(1548.861532 -181.1509009 -216.3295762)
(1709.883906 -215.4199263 347.2421936)
(1926.040095 345.2626395 -272.7255383)
(1885.511416 199.1438436 -204.8060966)
(1592.17832 -119.7603644 516.3278128)
(1924.477761 3.147130062 220.7111837)
(1732.362184 -204.7015986 539.3955349)
(1674.619378 -195.5921418 12.23429564)
(1703.756846 -185.76945 195.1224054)
(1313.222053 -195.1936425 -91.42293762)
(1528.871044 -380.9369654 519.2528816)
(1107.480423 155.7338189 124.3939252)
(1974.995929 -719.2135767 239.8021643)
(1961.312976 -110.1261755 -168.0934987)
(2130.418439 284.9150699 430.0808792)
(1876.30037 114.3526809 243.4694041)
(2338.986552 476.4696908 21.20469246)
(1641.532912 30.05463381 475.1974775)
(1442.582129 -456.1107791 205.9920348)
(1943.905944 -259.5876805 -37.07907205)
(1670.852017 102.411381 -392.3128975)
(1520.96382 -44.11902646 28.35350168)
(1832.042727 -161.753188 238.5532922)
(1600.595896 -303.9909343 679.394867)
(1590.949933 465.8126772 15.21214987)
(1903.530302 8.506364129 152.4707938)
(1334.578283 293.104662 368.7564284)
(1904.350879 -528.327726 -46.57196035)
(1721.403298 -747.2740451 406.4106303)
(2011.635569 305.2998394 526.1701313)
(1092.104342 -126.144644 15.93139025)
(1640.871593 -12.76440519 -164.7352139)
(2005.317966 -226.4403303 90.23547027)
(1788.065701 -526.1602463 -371.3589506)
(1909.561818 227.4936242 79.1411126)
(1550.43836 -11.46625928 596.473004)
(1443.725352 -297.9034412 206.6738795)
(1652.845294 -272.7361847 -276.8642154)
(1270.92759 -310.9956726 397.5570268)
(1689.13743 -189.067035 -221.0199732)
(1756.856692 76.03192178 -245.4348331)
(1547.247308 -336.9084507 19.41477863)
(1363.554995 139.7005693 -133.5275409)
(1209.966679 -420.1254502 -383.5318884)
(1606.739668 -26.0551044 299.0316551)
(1661.097351 270.6037061 -56.79538023)
(1737.313836 152.6127836 426.535033)
(1676.450714 -138.627942 72.1642937)
(1500.86559 -310.4992544 349.1163957)
(1343.96711 150.5701722 58.08653409)
(1691.983818 -76.9364969 -154.4332627)
(1975.8779 14.16971116 365.6153465)
(1232.911948 210.5914764 -273.9095595)
(2049.533765 248.8034571 201.1780048)
(1760.646363 -355.189388 -65.62182573)
(1880.890333 240.8993813 -52.68868245)
(1727.910553 19.685505 277.6116105)
(1806.61077 -458.3479981 -241.1952296)
(1797.813783 -216.7174741 398.2319071)
(1686.321403 -559.8878644 338.3873045)
(1167.223762 -255.1055972 -124.147761)
(1650.45776 -152.6152562 -370.6387888)
(1342.143979 -114.145006 -12.07537987)
(1579.058314 -244.2948308 -303.2606142)
(1669.816651 212.7346138 45.83453114)
(1880.845317 -280.6014211 153.2639795)
(2005.667766 -214.239402 85.46250444)
(1386.18238 175.5947336 287.1616095)
(1606.546715 -465.5947902 396.7660898)
(1501.538127 360.7780214 -243.9032424)
(1647.719542 38.20996016 145.9151653)
(1665.941693 -270.1795034 -757.0364904)
(1913.239412 78.44076742 -405.8616364)
(1797.000766 73.90749571 -95.5061493)
(1275.239552 -75.40659947 -33.03835488)
(1423.752031 352.2093422 -36.16090453)
(1479.884301 -252.8079283 462.432036)
(1482.548482 156.5226567 458.9848937)
(1378.406686 -224.1662485 -363.7439584)
(1497.942777 -506.6457757 -47.33795318)
(1687.611954 -115.9123004 372.1424443)
(1832.982214 -98.71291346 -95.9421187)
(1945.491012 -321.5484056 -228.4836627)
(1241.056716 -175.7093743 -281.3204158)
(1447.179501 276.9124637 666.0019837)
(1576.034417 -353.2284521 243.7002999)
(1804.590181 -164.4630712 37.25196227)
(1891.401356 501.3578827 14.92653694)
(1222.863254 -675.1929425 513.3177003)
(2379.715916 313.8118428 -240.6088706)
(1673.328022 239.2469223 32.10824622)
(1344.234428 271.9756771 -218.6335394)
(2209.509603 602.5992328 -19.20033685)
(1788.162357 -38.3197507 12.97408669)
(1139.30311 3.636751846 251.495278)
(1964.044549 189.0440897 110.59413)
(1817.550416 -298.7705977 285.7172271)
(1771.829798 56.54721602 2.612059641)
(1675.488187 -255.2466555 -90.85112556)
(1523.495586 -230.3432573 -106.9806395)
(2156.159357 639.369738 27.35746807)
(1287.706038 320.5842441 -495.5996511)
(1413.521112 167.1555745 170.4979485)
(1496.450661 -103.3595191 -276.4540991)
(1696.940106 122.6868849 192.2372429)
(1359.191827 247.7430807 -46.88451296)
(1803.768142 -41.14374392 -456.3709118)
(2187.729043 -223.5622517 -265.5891606)
(1230.738992 124.5160101 -228.8081967)
(1602.364316 -111.2310177 542.5983319)
(2173.21619 -198.6701095 -103.5593981)
(1832.707528 377.1470254 -171.4402706)
(1827.47833 -177.4493437 -598.3821387)
(1646.284281 89.41895008 123.4331103)
(1366.22991 142.8891646 -287.5249229)
(1951.366926 243.5136846 83.64101981)
(1415.703149 294.137451 -11.98406747)
(1597.593334 280.6366032 172.3548283)
(1514.344926 -427.4376025 388.2506549)
(1591.997934 -150.4961083 -631.7462587)
(1415.901365 430.5080259 290.0512074)
(1678.717093 280.3380154 -111.6994833)
(1474.489942 -5.277873479 457.5775828)
(1601.462682 268.0753575 -116.6443842)
(1873.273434 22.52491654 224.9928668)
(1944.494402 -230.756237 66.98228964)
(1670.258524 138.531856 -344.8284636)
(1580.443799 276.4349623 392.2257582)
(2231.226385 321.6703804 -193.8502167)
(1882.228415 -42.21236998 -372.2222426)
(1346.259606 -91.98221316 149.8273563)
(1611.409656 -257.1236094 131.5828024)
(2090.830477 91.18242702 -85.65234939)
(1746.0768 -601.1320507 -171.9513368)
(1301.189738 -441.97688 223.7719593)
(2097.026491 -445.6603359 207.9985549)
(1356.03665 347.5291649 -141.7051246)
(1604.698956 45.13222066 412.5782274)
(1437.145099 -251.6133321 16.97078864)
(1671.749503 -64.97755931 -564.9758811)
(1837.8074 -386.661568 -332.9002904)
(1943.962911 694.7762453 -54.42068549)
(2045.810191 -160.2373346 131.4642105)
(1791.497235 -115.5640647 31.60831187)
(1882.272364 49.32512381 37.89790887)
(1513.923668 167.0435663 505.6860123)
(1576.633587 -168.4507257 138.4493772)
(1688.893124 247.4604793 -595.7313111)
(1287.218346 -31.2195883 -118.7604078)
(1683.128838 -56.7772142 460.4544762)
(1827.123569 -228.334367 293.2556243)
(2258.994283 -32.23634459 42.42825264)
(2016.78381 360.5791881 164.1168932)
(1865.376269 -533.1383639 382.7590762)
(1340.783213 -21.71556184 170.0560389)
(1016.969505 -71.17004005 -589.2857206)
(1614.520848 -480.5290595 131.6229595)
(1560.013035 169.1361191 218.0571599)
(1626.399936 70.84266217 -211.2629388)
(1872.827798 131.51971 536.516926)
(1231.169752 -597.7805348 -314.8042864)
(1320.011636 -81.30665741 150.1137017)
(1731.359373 -44.20363175 -202.1844231)
(1175.326163 41.31075124 409.1810215)
(1796.750125 -67.84015213 -244.3770893)
(1323.427012 -113.0973926 -143.3295067)
(1994.452234 72.50463469 -83.67826078)
(1717.742535 -40.85212123 123.1590591)
(1981.819139 159.9428754 46.11771823)
(1228.514638 395.7407382 -465.2534244)
(1663.359202 651.3879295 -76.01564595)
(1159.320653 -430.2106424 328.8155135)
(2160.387071 -114.6835294 683.4434285)
(1511.250434 -97.67209663 -25.13083225)
(1439.901035 48.12511439 -197.4663962)
(1721.311244 -127.3754759 -30.46545422)
(1664.511831 -764.6482361 -104.7557852)
(1516.181781 11.98602693 -46.79925224)
(693.2684369 -99.71764365 456.2285864)
(1542.151059 48.16238912 8.620982549)
(1470.898876 -123.4408462 108.560001)
(1404.988594 -231.96135 -64.86250196)
(1653.527545 -778.6942844 274.0943348)
(1242.074423 -423.7139943 117.4063641)
(1979.924316 -53.15768863 -213.4732515)
(1004.938606 219.0674559 321.6137163)
(1443.302436 222.0981796 -55.86648072)
(1844.045545 35.13514854 236.1769481)
(1343.745807 146.7348766 471.0924435)
(1904.115354 187.8580998 -148.6740219)
(1662.434248 286.2817837 381.0858799)
(1735.181394 54.36539097 75.16918649)
(1647.144405 16.53431822 -118.6938941)
(1504.549516 23.21162506 -297.1326516)
(1894.455516 -134.246705 511.7856535)
(1703.392685 -221.1834128 159.9886782)
(902.3757145 755.4935736 -603.9991021)
(1768.068864 290.1354308 330.1443161)
(1862.581679 -311.383046 222.1604961)
(1947.083414 414.13969 223.081255)
(1901.314051 270.7605998 284.2398921)
(1769.317445 -52.20670565 -256.0723852)
(1404.562914 3.781644448 -154.5641282)
(1572.84243 151.0023845 -97.28652337)
(1975.432946 -36.32046076 -499.8204199)
(1346.202188 299.7783913 -35.28006192)
(1419.634859 360.9494301 216.6991636)
(2009.803555 -294.5068594 31.61624596)
(1483.418216 -358.7947803 28.52891907)
(1566.686009 192.3457797 708.3920975)
(1702.064924 358.0838566 297.2882458)
(2205.702008 -101.752219 194.3043191)
(1266.734656 -353.5216162 -52.02515162)
(1453.290544 59.30107915 127.2963096)
(1761.61025 -146.6608012 -246.1457377)
(1601.138191 461.5950163 -59.70043839)
(1732.067421 -52.67141999 -104.7587398)
(1531.126134 -481.8120475 353.9993604)
(1270.714486 119.4417713 686.5005246)
(1980.479373 68.86586096 -134.6066315)
(1676.430445 -405.4266523 254.3338567)
(1514.222758 -488.8476801 123.9036513)
(2241.416948 -577.8508211 -221.3365431)
(1643.088655 34.47269219 314.6856972)
(2194.130304 -347.877736 272.6546454)
(1579.148847 478.5497438 148.5075394)
(1781.14121 -380.7032338 -185.3489732)
(1951.610797 261.2186937 177.0737343)
(1511.115979 -97.50571342 535.9892879)
(2028.347294 159.9448712 -2.852401221)
(1138.969395 175.4517058 -300.7218718)
(1880.034966 563.3838498 2.673287267)
(1970.198715 -324.0322581 153.0471274)
(1456.497696 377.9717603 438.1740305)
(1564.798539 246.6360962 -224.4215238)
(1351.17267 168.1672752 -207.059668)
(1463.758154 65.74157183 135.4054243)
(1780.822462 333.2345876 305.3360755)
(1381.087516 -182.5370439 228.3804926)
(1939.219941 9.80197809 -59.4202925)
(1819.48979 166.7940721 -30.14045833)
(1840.056416 211.9218209 -169.2184169)
(1571.157478 350.4241806 193.8189298)
(1758.053177 196.910803 -403.6764034)
(1923.993737 -243.218455 219.7225071)
(1773.172657 -335.6599908 -251.4907248)
(1526.477 -87.49321858 -840.939747)
(1541.341369 265.3150107 -412.3122897)
(1532.652221 -239.4508325 238.4385629)
(1219.720675 107.2673033 236.7062938)
(1872.701438 -294.438692 -136.6342182)
(1807.677089 -362.9636843 -444.6795458)
(2169.673621 -55.72305092 212.054019)
(980.8671149 240.8872923 -286.8803637)
(1824.246122 -189.7667594 -184.5937681)
(1971.573135 77.26529513 -48.50924531)
(1805.844607 -264.0979574 -118.0577631)
(1718.733795 -164.3042892 -9.733462245)
(1635.621943 141.4253202 303.8802502)
(1932.011175 361.7575731 -386.8632379)
(2042.939591 -296.8396037 -499.6651318)
(2041.663803 -233.1263662 -731.820669)
(1769.966116 306.3197555 -254.1517967)
(1438.973689 168.4479517 -552.0967591)
(2009.136715 83.69835757 202.7371568)
(1761.079543 -338.4395384 283.2256974)
(1535.133735 385.1736405 159.6950183)
(1223.327085 -67.33453729 -228.9242044)
(1427.36416 -28.59880668 500.4472143)
(1750.338806 -196.9311465 -276.6937081)
(1710.309372 132.1132888 384.5034538)
(1563.570755 -43.04887598 79.05918812)
(1870.736613 -294.1322939 144.5851492)
(1766.558025 -266.8632057 -44.18043707)
(1877.795968 -10.77479754 -19.97194793)
(1203.082405 120.9356194 64.2877048)
(1767.365676 -690.0295815 -4.207909253)
(1715.713595 -119.3455706 -60.78234929)
(1561.660545 203.1845109 -97.3668524)
(1413.008296 187.4643167 -278.813825)
(1817.995257 125.1662153 277.6626076)
(1591.757447 83.12121008 -134.1346206)
(1293.549391 236.5716307 508.4148873)
(1598.561877 164.4981124 603.9603759)
(1678.647454 -170.952752 -245.5513223)
(1398.205119 194.185267 184.4110414)
(1261.082324 -487.7734543 232.4563374)
(1780.485875 -438.069024 260.4835284)
(1342.406692 -488.0577145 291.9942003)
(1549.029096 -420.1681886 524.4172724)
(1837.196303 -186.7242246 -220.5228977)
(1367.359856 -75.08967093 -505.9038232)
(1802.247839 125.2231446 -145.3930316)
(1807.555002 -19.30299155 388.9964717)
(1630.459146 14.64189565 81.63742295)
(1759.51077 73.50247014 80.31563891)
(1431.253787 -310.8246462 221.8850348)
(1607.892616 -516.4692629 -42.48711987)
(1552.331985 273.0596233 45.64891324)
(1951.989047 10.77908414 -540.2755417)
(1434.837944 114.9142997 141.1807506)
(1276.800702 314.9048502 574.4755043)
(2139.263037 772.9075913 -35.26373861)
(1954.970475 675.4215026 311.1885474)
(1368.351201 379.6521614 -61.18289488)
(1586.249468 -231.2713656 -54.25438467)
(1765.056809 -216.9492012 235.5454921)
(1477.941654 -219.6620856 -156.4641178)
(1905.682971 105.4071393 -914.9146772)
(1701.050445 803.7174213 -3.476911587)
(1417.597611 -240.2179964 -33.76913844)
(1410.971052 -123.8455718 88.55062539)
(1602.715365 201.9432806 317.7651327)
(1718.957466 268.8846682 -441.5659913)
(1755.585016 2.86251523 -359.4993887)
(1646.724718 217.768897 -43.09565122)
(1851.484199 404.0789502 -225.7833597)
(1349.092798 -390.0369722 185.0233538)
(2096.481498 -252.3199782 -286.3272324)
(1824.136631 405.6313376 378.772993)
(1124.388503 -66.55647677 441.5571601)
(1820.949068 218.0783754 326.2665319)
(1628.910636 519.8824355 178.3422744)
(1597.311072 -241.5956844 90.02229565)
(1534.784415 389.6135334 -168.8633161)
(1590.909385 -153.0246487 262.2309374)
(1840.866372 -408.4315531 324.8944146)
(2056.148489 108.2849527 -199.3687013)
(1779.881441 -685.9554695 -176.14597)
(1600.2871 19.80152853 68.77117996)
(1796.990567 -31.28372488 137.794751)
(1641.272276 -133.7618046 -320.1984803)
(1522.195493 251.268591 -57.52021583)
(1712.182581 -749.7408759 123.491482)
(1870.395328 92.02987855 148.1904264)
(1388.371015 -144.3860342 56.01654795)
(1142.0892 626.4954329 2.256044817)
(1668.904343 25.53018558 -256.2389074)
(1611.928696 -22.13085067 145.7964928)
(1475.735161 40.59879178 136.1734642)
(1572.832929 -8.106811269 641.674895)
(1613.99806 -34.50375097 -60.69725314)
(2174.978374 501.4638962 -417.1319085)
(1771.767831 -49.22537432 11.1044187)
(1408.104253 -45.11008227 -71.27747424)
(1535.93699 155.4771447 -409.4442972)
(1961.901205 178.1177311 -223.9063711)
(1863.429352 -93.59986949 56.80727712)
(2101.258802 -307.3778118 56.3984152)
(1864.41595 -456.7389526 -141.9649912)
(2030.939139 9.181365204 -292.6421216)
(1318.022988 523.2886878 295.0816139)
(2285.891698 90.97739291 -203.7646377)
(1260.359637 -117.0035755 -278.0189825)
(1273.950464 362.0439822 237.0770978)
(2189.491748 292.5595228 23.68752849)
(1970.79494 -132.5195607 129.8418986)
(1913.349973 -158.9949756 61.38446555)
(1421.03327 26.66785154 299.0468411)
(1901.246002 -27.68534749 349.9716519)
(1842.221265 -61.70270507 130.674634)
(1768.919557 85.54408998 293.9157573)
(1345.714246 445.4220644 -38.07304486)
(1520.667423 -423.0850901 351.4423472)
(1570.312036 -272.2213604 -276.1750007)
(1838.536416 66.11969852 -102.8405731)
(1431.946458 34.14684034 -33.29890505)
(1734.617483 -252.5643823 118.5913791)
(2409.960841 -627.7863487 -195.0634481)
(1509.293546 428.9897211 32.7864809)
(2143.613202 -310.9709634 351.8811514)
(1499.730145 172.8754982 -83.69067379)
(1824.702339 103.2980911 190.5715845)
(1658.949554 -182.891489 -3.310178158)
(1445.368436 -44.65017946 800.8353808)
(1512.573087 -175.2299787 43.6073973)
(1784.868909 133.3813989 -375.4805471)
(1169.29244 851.5428223 -106.7913913)
(1554.908118 434.1988943 -78.92449382)
(2062.619668 -295.1812802 2.076002648)
(1893.609439 -83.93407561 -557.4591449)
(1599.893509 -382.7564979 94.13167486)
(1573.328305 -16.12306964 237.6698212)
(1128.348471 114.4043566 266.1714485)
(1599.753595 -309.0100274 322.3985257)
(1383.119643 298.5336276 188.9138798)
(1571.19517 -532.1172414 421.4474444)
(1869.70201 -408.3018309 -103.7038296)
(1592.343406 -220.6748463 19.04011583)
(1916.255017 -353.9546756 247.543755)
(1769.618417 39.73919825 76.86618824)
(1696.608 280.7503754 460.1385226)
(2051.500414 266.0928892 330.4229671)
(1836.061184 141.1594084 -298.4115904)
(1591.190315 -414.7557751 -217.4033669)
(2025.500591 -178.5728529 -406.6837221)
(1562.604083 -361.979039 262.9578846)
(1512.729229 195.2602186 -42.57784627)
(1472.052343 -512.077378 -103.1454402)
(2148.594781 143.9484041 -187.7274787)
(2000.709853 12.70911503 -76.91220242)
(1815.141281 -88.44226696 -137.9599792)
(1331.896399 -113.1750298 245.2520954)
(1486.540562 -151.4100268 -13.32626651)
(1822.801306 -399.7969522 322.4268726)
(2026.38294 206.8849825 -1.614100436)
(1695.015829 906.7571716 -236.3614548)
(1320.17311 253.6199776 317.5066833)
(1960.854626 33.84128881 12.74213553)
(1962.011969 -446.4137332 -94.55076661)
(1538.036638 551.9920114 -90.19926333)
(1163.97344 -174.7485156 55.6766739)
(1885.610357 -313.9240755 285.442535)
(1618.181667 -20.79042088 -897.9373074)
(1555.160116 -182.2882854 558.7935444)
(1668.369871 485.1864699 135.9840003)
(1888.252002 838.9249117 -270.4972669)
(1390.85799 -224.5477518 -165.4107706)
(1933.176933 -179.8745828 26.36336122)
(2057.189386 -168.6405614 35.68694601)
(1750.979081 178.8428243 -61.87290649)
(1054.820886 381.0008596 -399.6540494)
(2239.173796 234.6626218 538.3156552)
(1941.725235 205.3564676 -43.47199289)
(1955.541851 149.7542023 -628.8494588)
(1459.134543 -351.3184356 -270.7068017)
(1745.152038 -245.4389032 255.0602878)
(1032.190456 -388.7328909 -30.52818363)
(1911.216769 -15.1514714 309.7068983)
(1216.071857 141.6429124 -232.7427839)
(2098.907025 3.891208663 -426.2424378)
(1952.117734 46.31829716 -314.0220031)
(1721.097806 -369.6624703 -139.5156632)
(1344.601924 -95.01151789 271.7471948)
(1690.851507 82.60640142 -234.1909204)
(1555.479137 -426.6410878 -48.43866266)
(1912.109022 177.9572934 -145.2094443)
(1628.28776 -181.4890042 218.2626158)
(1816.1187 -10.05600292 275.1988054)
(1326.740037 70.53124819 -390.6877061)
(1607.752372 309.0729763 536.2893674)
(1725.89902 722.4871292 -135.5233816)
(1420.02506 21.8019993 83.61468036)
(2061.483668 -306.686141 -106.4108286)
(1764.73027 318.2153703 -77.62557303)
(1577.784656 487.6226169 -307.6994132)
(1958.400544 55.43184853 -563.8121708)
(1338.144975 228.1743973 -346.3704099)
(1459.455988 -237.3797643 256.0296935)
(2004.414926 232.9344001 -11.46548514)
(1341.303791 287.0684996 -143.3519159)
(1670.953112 268.4166591 86.52707983)
(1589.42108 -90.78510943 -279.820421)
(1541.727717 -37.15999612 -652.7657076)
(1750.417508 -113.9144549 75.07889359)
(2043.333017 274.1151693 289.1274159)
(1990.368372 -472.1604552 -209.0135255)
(2334.05078 -55.96914524 95.79129758)
(1637.487222 -179.559408 145.5795189)
(1971.365276 -149.0209378 264.0748182)
(1212.668217 -385.5373867 -31.38377825)
(1355.400353 -253.2643426 6.939672939)
(1309.781481 -86.83083531 378.212894)
(2035.078391 -339.1855043 29.59521085)
(1826.396152 294.794711 -417.9417937)
(1612.372997 -31.0296854 106.6561078)
(1678.01244 -304.8496234 -234.5196987)
(1674.686057 440.2334884 353.8698777)
(1709.814369 49.75463029 129.8279356)
(2108.422798 87.82188701 124.5724195)
(2155.948994 -161.2125212 -519.8863056)
(1245.304756 -377.407942 538.1559291)
(1444.964801 20.70643881 465.9246121)
(1831.15628 -287.3562803 330.5792379)
(1810.446685 108.339994 59.00340529)
(2035.827252 66.00248388 392.0049789)
(1832.697086 68.08746694 -242.3856929)
(2375.231658 -337.1595262 -367.312213)
(1896.5742 44.96327063 -532.418132)
(1012.205802 51.28246036 -180.2496632)
(1718.612147 228.2853848 -142.3172695)
(1428.125221 -187.4344052 41.52054892)
(1522.399871 -108.1522185 -5.352884131)
(1237.989004 -352.2149963 336.0571637)
(2007.999007 346.9518669 66.83446489)
(1775.64687 48.81763554 92.61004549)
(1807.432199 73.55204376 -441.9255939)
(1680.683203 142.7325412 -380.5306917)
(2018.58858 271.6404022 -118.9385057)