/*--------------------------------*- C++ -*----------------------------------*\
| =========                 |                                                 |
| \\      /  F ield         | OpenFOAM: The Open Source CFD Toolbox           |
|  \\    /   O peration     | Version:  2406                                  |
|   \\  /    A nd           | Website:  www.openfoam.com                      |
|    \\/     M anipulation  |                                                 |
\*---------------------------------------------------------------------------*/
FoamFile
{
    version     2.0;
    format      ascii;
    arch        "LSB;label=32;scalar=64";
    class       Cloud<dsmcParcel>;
    location    "0.007/lagrangian/dsmc";
    object      coordinates;
}
// * * * * * * * * * * * * * * * * * * * * * * * * * * * * * * * * * * * * * //

9334
(
(0.06588748061 0.4670562597 0.3419249037 0.125131356) 111 219 2
(0.1187622079 0.3436458988 0.09697299727 0.4406188961) 171 279 2
(0.5288194925 0.2030865361 0.03250371764 0.2355902538) 86 112 2
(0.2629393355 0.3685303322 0.01396455737 0.3545657749) 294 579 2
(0.08999736875 0.3977073922 0.05729392346 0.4550013156) 179 1046 1
(0.6251960328 0.03571530462 0.1874019836 0.151686679) 58 116 2
(0.5711513922 0.2144243039 0.08833370078 0.1260906031) 22 44 2
(0.4876860082 0.2561569959 0.09110640287 0.165050593) 87 114 1
(0.003850567922 0.498074716 0.3366461518 0.1614285643) 24 49 1
(0.09396990868 0.1526546181 0.4530150457 0.3003604276) 388 765 2
(0.1049292444 0.0515865102 0.3959488676 0.4475353778) 54 49 2
(0.7291648414 0.1354175793 0.009961564896 0.1254560144) 51 99 2
(0.1189152964 0.3761618875 0.4405423518 0.06438046424) 58 113 1
(0.3744570412 0.173242904 0.1395285754 0.3127714794) 50 99 1
(0.2979576875 0.3510211562 0.2650437736 0.08597738267) 52 45 1
(0.1444922801 0.05854824287 0.3692056171 0.4277538599) 171 279 2
(0.2049864638 0.0559239749 0.3415827932 0.3975067681) 294 579 1
(0.04786745001 0.05941648913 0.476066275 0.4166497859) 198 391 2
(0.4578465389 0.05611343881 0.2149632917 0.2710767306) 116 171 2
(0.1803180658 0.3959313351 0.01390963201 0.4098409671) 233 459 1
(0.2303599566 0.3848200217 0.2536188935 0.1312011282) 298 588 1
(0.2368428568 0.3457791054 0.3815785716 0.03579946622) 27 52 1
(0.2202394129 0.3898802935 0.08145309331 0.3084272002) 23 46 2
(0.08702524326 0.4564873784 0.3407644503 0.1157229281) 55 109 2
(0.05223687173 0.4738815641 0.3722618685 0.1016196956) 86 112 1
(0.1039551918 0.341167511 0.1068548931 0.4480224041) 83 106 2
(0.347106738 0.02704141236 0.2994052186 0.326446631) 51 101 1
(0.02944542586 0.393634801 0.09164248606 0.4852772871) 172 281 2
(0.129207197 0.4353964015 0.4071581437 0.02823825778) 207 408 2
(0.03833911238 0.4808304438 0.4564477458 0.02438269805) 29 1041 2
(0.4338768731 0.1302437409 0.2830615634 0.1528178225) 57 111 1
(0.4040940073 0.2202847929 0.2979529963 0.07766820349) 27 55 2
(0.09203288597 0.004928092237 0.4490554648 0.453983557) 266 466 2
(0.2647739712 0.3676130144 0.167121072 0.2004919424) 26 1082 2
(0.1284708183 0.4357645908 0.3153905723 0.1203740185) 147 290 2
(0.2760826601 0.3619586699 0.3254230663 0.03653560368) 56 112 1
(0.7019040922 0.04293007317 0.1490479539 0.1061178807) 234 462 2
(0.01236513917 0.4938174304 0.006580969447 0.487236461) 23 44 2
(0.8799083239 0.03621296704 0.06004583806 0.02383287102) 355 697 1
(0.1718457534 0.1086696996 0.4140771233 0.3054074237) 207 406 1
(0.8197245459 0.06075515356 0.09013772707 0.02938257351) 111 220 2
(0.2659207142 0.03956051722 0.3670396429 0.3274791257) 174 344 2
(0.5086791663 0.2456604168 0.1981556218 0.04750479508) 235 463 2
(0.5212474836 0.2393762582 0.02252228016 0.216853978) 269 1049 2
(0.5154364663 0.2422817669 0.2401468972 0.002134869619) 20 1076 2
(0.4205423005 0.1461989337 0.1435299161 0.2897288497) 114 225 1
(0.0655681279 0.3307154072 0.4672159361 0.1365005289) 28 54 1
(0.3172613421 0.2824311049 0.05893822408 0.341369329) 266 466 2
(0.1610526245 0.3142967393 0.4194736878 0.1051769485) 205 405 2
(0.4539236488 0.02894220516 0.2730381756 0.2440959704) 25 48 1
(0.1783521571 0.3859373464 0.4108239214 0.02488657501) 147 291 2
(0.1296748662 0.4351625669 0.3735411718 0.06162139506) 55 51 1
(0.1589466387 0.002807884114 0.4177187965 0.4205266806) 19 1075 1
(0.1200494123 0.4399752939 0.1472125409 0.292762753) 115 169 1
(0.242377081 0.3788114595 0.3393912844 0.03942017509) 84 164 2
(0.2685329927 0.3657335037 0.217862542 0.1478709616) 146 230 1
(0.6313391704 0.1592438321 0.02508658267 0.1843304148) 146 230 2
(0.3091807689 0.3345149022 0.01089471331 0.3454096155) 208 352 2
(0.3447222304 0.1920463828 0.135592502 0.3276388848) 18 1074 1
(0.005508414784 0.3508465359 0.1463992567 0.4972457926) 207 408 1
(0.1965363062 0.4017318469 0.01345392223 0.3882779247) 148 293 1
(0.5089494662 0.2455252669 0.1371689476 0.1083563193) 73 86 1
(0.2159227478 0.07354486398 0.3184937621 0.3920386261) 237 409 2
(0.25035383 0.374823085 0.2839009396 0.09092214544) 24 49 1
(0.1474389828 0.3415096766 0.08477083203 0.4262805086) 440 808 2
(0.4715941998 0.2642029001 0.1577293675 0.1064735326) 206 406 2
(0.2043517764 0.3978241118 0.1338717678 0.263952344) 236 463 2
(0.4830951152 0.2304773192 0.02797512323 0.2584524424) 327 586 2
(0.3831049416 0.3084475292 0.02539800738 0.2830495218) 145 287 1
(0.5071456082 0.05541984948 0.1910073464 0.2464271959) 50 41 2
(0.08725807943 0.07494852033 0.38142244 0.4563709603) 111 161 2
(0.385077723 0.3074611385 0.1388320089 0.1686291297) 233 457 2
(0.09157540268 0.4542122987 0.2697629009 0.1844493978) 119 233 2
(0.2032018982 0.2357872403 0.3983990509 0.1626118106) 294 580 2
(0.1143459181 0.4019091534 0.4428270409 0.04091788758) 233 457 1
(0.1931363215 0.344350656 0.05908118326 0.4034318392) 27 54 1
(0.08223298175 0.1375071121 0.3213763971 0.4588835091) 326 584 2
(0.1608274634 0.03912843288 0.4195862683 0.3804578354) 23 47 2
(0.5156258503 0.2421870749 0.0007450922881 0.2414419826) 149 1045 2
(0.02699455785 0.4865027211 0.2792921051 0.207210616) 234 403 1
(0.8614841602 0.06925791988 0.06560399448 0.003653925396) 112 222 1
(0.02803620375 0.4859818981 0.03236383358 0.4536180645) 176 345 2
(0.6317751205 0.1841124398 0.06353937187 0.1205730679) 199 390 2
(0.03592524158 0.4820373792 0.1342988065 0.3477385727) 56 109 2
(0.04944631348 0.02760793164 0.4476689116 0.4752768433) 23 46 1
(0.4239140602 0.2880429699 0.259195157 0.02884781291) 144 285 1
(0.03699382693 0.4295328603 0.05197022619 0.4815030865) 15 30 1
(0.07268209581 0.2070850105 0.2565739416 0.4636589521) 296 583 1
(0.8058964271 0.00120569671 0.09584608973 0.09705178644) 57 113 1
(0.3908929489 0.09751408495 0.3045535256 0.2070394406) 28 57 2
(0.1184991688 0.2399689332 0.4407504156 0.2007814824) 24 49 2
(0.08804144621 0.4559792769 0.08787263013 0.3681066468) 82 163 1
(0.2314390752 0.02546165352 0.3588188089 0.3842804624) 87 114 2
(0.2294198413 0.3852900794 0.01234939963 0.3729406797) 22 45 1
(0.2744562163 0.3627718918 0.26710025 0.09567164187) 146 230 1
(0.2634359897 0.09515753998 0.3682820051 0.2731244652) 116 230 2
(0.08695644832 0.4565217758 0.02519034903 0.4313314268) 83 165 1
(0.4746383816 0.07702329146 0.2626808092 0.1856575178) 101 200 2
(0.5063712638 0.2215497746 0.02526459354 0.2468143681) 25 50 1
(0.0866236802 0.4566881599 0.4010676259 0.05562053399) 114 223 2
(0.409266177 0.2300589869 0.06530792459 0.2953669115) 84 108 2
(0.2717158537 0.3115055016 0.3641420732 0.0526365716) 54 108 2
(0.4975428634 0.2512285683 0.1685333412 0.08269522715) 48 96 1
(0.4665074968 0.2667462516 0.1561773164 0.1105689352) 299 589 1
(0.1979585374 0.3576068779 0.4010207313 0.04341385336) 72 140 1
(0.132787705 0.4336061475 0.2648361324 0.1687700151) 258 508 2
(0.686297927 0.1568510365 0.05368498398 0.1031660525) 21 40 2
(0.7019364762 0.1490317619 0.0913393565 0.0576924054) 179 294 1
(0.7496665725 0.1251667138 0.05629576224 0.06887095152) 171 338 1
(0.539524211 0.1002647666 0.2302378945 0.1299731279) 141 279 2
(0.7039896666 0.1480051667 0.004625301454 0.1433798653) 236 407 1
(0.05468971704 0.3560140725 0.116641069 0.4726551415) 83 164 1
(0.4374903516 0.2812548242 0.2619346418 0.0193201824) 111 220 1
(0.4150396047 0.2581990582 0.2924801977 0.03428113951) 116 227 1
(0.214286289 0.1226389024 0.3928568555 0.2702179532) 208 411 2
(0.3956955249 0.2850102781 0.01714195948 0.3021522375) 298 587 1
(0.04200639294 0.2892368715 0.4789968035 0.189759932) 51 99 1
(0.4165797145 0.1363686787 0.155341464 0.2917101427) 86 112 2
(0.2518080227 0.2373865105 0.3740959886 0.1367094781) 55 110 2
(0.1038596287 0.1864165841 0.2616536015 0.4480701856) 142 280 1
(0.1482261762 0.4258869119 0.236606714 0.1892801979) 175 287 1
(0.5958278677 0.2020860662 0.1589028094 0.04318325682) 208 352 1
(0.6301352241 0.1849323879 0.1693234145 0.01560897346) 117 173 1
(0.1991059992 0.4004470004 0.1982972804 0.20214972) 24 48 2
(0.143083386 0.428458307 0.3011639279 0.1272943791) 207 409 1
(0.159151284 0.420424358 0.2354211152 0.1850032428) 57 111 2
(0.1905892946 0.4047053527 0.3408882032 0.06381714945) 266 522 2
(0.2482668371 0.1177863566 0.3758665814 0.2580802248) 83 165 2
(0.4295349364 0.2852325318 0.1175995826 0.1676329492) 118 233 2
(0.006457996238 0.3773439215 0.1194270804 0.4967710019) 113 223 1
(0.05082180383 0.4745890981 0.3222747491 0.152314349) 112 163 1
(0.316167796 0.3074659166 0.341916102 0.03445018535) 148 293 2
(0.01860563437 0.4906971828 0.374076034 0.1166211488) 20 38 2
(0.6594733544 0.1702633228 0.0007608476673 0.1695024751) 173 341 2
(0.7316524104 0.09994012979 0.1341737948 0.03423366499) 85 169 2
(0.6207705183 0.1896147408 0.01413577838 0.1754789625) 26 1082 2
(0.6492528805 0.06684526934 0.1085282904 0.1753735598) 84 108 2
(0.3420885401 0.2096179353 0.32895573 0.1193377947) 99 193 1
(0.4077735589 0.1129207226 0.2961132205 0.183192498) 109 213 1
(0.1445975321 0.1104777553 0.3172234787 0.427701234) 299 530 2
(0.1335908038 0.4332045981 0.05003618291 0.3831684152) 89 174 2
(0.03926845902 0.4803657705 0.2417701441 0.2385956264) 81 102 1
(0.08425917111 0.2336184049 0.4578704144 0.2242520096) 40 80 2
(0.2490998167 0.01590091141 0.3595491803 0.3754500917) 116 229 1
(0.09956064481 0.4502196776 0.05882461906 0.3913950585) 208 352 1
(0.4177324769 0.1282610644 0.2911337615 0.1628726972) 293 575 1
(0.1613378411 0.06153081286 0.4193310794 0.3578002666) 178 352 2
(0.1354371674 0.4322814163 0.2941799054 0.1381015109) 146 289 1
(0.4223332493 0.2888333753 0.1585984229 0.1302349525) 89 176 1
(0.4170939351 0.0328554307 0.2585976017 0.2914530325) 55 109 1
(0.3993525371 0.3003237314 0.01157388912 0.2887498423) 55 51 1
(0.811516794 0.09424160299 0.06071521669 0.03352638629) 144 282 2
(0.6850997299 0.1574501351 0.04378595601 0.113664179) 12 25 1
(0.4314532333 0.2842733834 0.1623167758 0.1219566075) 24 49 1
(0.2829610841 0.3585194579 0.03513560926 0.3233838487) 166 325 2
(0.02004828886 0.4371385449 0.4899758556 0.05283731072) 166 325 1
(0.6275064925 0.1862467537 0.058895387 0.1273513667) 232 455 2
(0.8349864088 0.08250679561 0.03049059382 0.05201620179) 256 505 1
(0.08221393523 0.4588930324 0.3354949747 0.1233980577) 53 106 1
(0.1360443312 0.1584365908 0.2735412435 0.4319778344) 141 220 2
(0.4684429336 0.07841649377 0.1873620394 0.2657785332) 297 585 1
(0.8398781405 0.08006092975 0.05627245831 0.02378847144) 49 98 1
(0.7420591459 0.1005937249 0.02837670218 0.1289704271) 25 1081 1
(0.1485488441 0.425725578 0.1560614852 0.2696640928) 239 471 1
(0.04213558596 0.1752982376 0.3036339694 0.478932207) 14 28 1
(0.01702071131 0.3552138932 0.1362757512 0.4914896443) 17 1073 1
(0.6053202281 0.197339886 0.1638273302 0.03351255575) 87 173 1
(0.5918448954 0.2040775523 0.1191236675 0.08495388479) 204 344 1
(0.3613226388 0.1288217064 0.3193386806 0.1905169742) 144 285 2
(0.7665125503 0.1167437249 0.08784073423 0.02890299062) 58 113 2
(0.750934306 0.124532847 0.01884553461 0.1056873124) 57 113 2
(0.2992613525 0.3503693237 0.3298230435 0.02054628028) 295 523 1
(0.2338963691 0.1707213179 0.3830518154 0.2123304976) 168 332 2
(0.09573101923 0.2572524305 0.1948820599 0.4521344904) 118 175 2
(0.05186454551 0.4740677272 0.3326221662 0.1414455611) 413 755 1
(0.2134737379 0.2403240792 0.1529390518 0.393263131) 173 341 1
(0.1068632908 0.1661987925 0.2803695621 0.4465683546) 119 176 2
(0.3152400384 0.1908996366 0.1514803442 0.3423799808) 55 109 1
(0.08524018061 0.4573799097 0.157917472 0.2994624377) 83 165 1
(0.0852706139 0.4076056773 0.4573646931 0.04975901571) 149 294 2
(0.7053019333 0.06780430463 0.07954472872 0.1473490334) 298 529 2
(0.1845310668 0.4077344666 0.0001015876544 0.4076328789) 207 350 1
(0.6393376183 0.1803311909 0.1048470627 0.07548412811) 48 93 2
(0.02459472947 0.4877026353 0.2697789448 0.2179236905) 209 353 1
(0.2434391955 0.3084670984 0.3782804023 0.06981330384) 355 697 1
(0.0458473338 0.1337031412 0.3433731919 0.4770763331) 206 348 2
(0.09233830544 0.05501375609 0.4538308473 0.3988170912) 23 44 1
(0.6834365036 0.02521914483 0.1330626034 0.1582817482) 57 55 2
(0.06831876274 0.4658406186 0.1511634546 0.314677164) 139 274 2
(0.03081599342 0.4845920033 0.1271079432 0.3574840601) 234 403 1
(0.3770163214 0.3114918393 0.07990748303 0.2315843563) 77 94 1
(0.001061438003 0.499469281 0.371077434 0.128391847) 292 576 1
(0.0556557772 0.4721721114 0.1138676062 0.3583045052) 359 1052 2
(0.1328442651 0.4335778675 0.2473142232 0.1862636443) 54 105 2
(0.1795978094 0.4102010953 0.1997683639 0.2104327314) 178 293 1
(0.8297907209 0.06901820931 0.01608643025 0.08510463956) 149 1045 1
(0.1403741062 0.1681883331 0.2616246138 0.4298129469) 78 154 1
(0.1612425914 0.1429184705 0.4193787043 0.2764602338) 21 43 2
(0.0859675081 0.457016246 0.4538486876 0.003167558333) 143 224 1
(0.3054063595 0.3472968203 0.1565836602 0.1907131601) 84 108 1
(0.8274865752 0.07474501187 0.0862567124 0.01151170052) 17 35 2
(0.4863765342 0.007933804884 0.248877928 0.2568117329) 83 106 2
(0.5876594885 0.1407053992 0.2061702558 0.06546485657) 87 173 2
(0.2707820402 0.2772819015 0.3646089799 0.08732707839) 205 405 2
(0.8384467651 0.08077661743 0.03503747959 0.04573913784) 20 41 1
(0.7397194079 0.008512057101 0.130140296 0.1216282389) 176 348 2
(0.6799039536 0.1600480232 0.1306709334 0.02937708984) 25 50 2
(0.08376339873 0.4581183006 0.4145768945 0.04354140615) 23 47 1
(0.7725153433 0.05132965027 0.1137423283 0.06241267807) 25 48 1
(0.009710242142 0.002735380035 0.4951448789 0.4924094989) 89 176 2
(0.1057218005 0.06601887618 0.4471390997 0.3811202235) 89 174 1
(0.8382328525 0.05916472039 0.02171885334 0.08088357373) 59 58 2
(0.05127528367 0.1700859313 0.4743623582 0.3042764269) 176 345 1
(0.7483798387 0.1014684061 0.02434167452 0.1258100807) 17 34 1
(0.435059081 0.2484058678 0.2824704595 0.03406459173) 28 54 1
(0.5157397912 0.1725989706 0.06953113378 0.2421301044) 238 469 1
(0.2879152046 0.3560423977 0.29073658 0.06530581765) 115 225 2
(0.1052318502 0.4473840749 0.0003029302951 0.4470811446) 23 46 2
(0.2144972169 0.3927513916 0.1201305049 0.2726208867) 381 750 2
(0.245153833 0.3774230835 0.3498747966 0.02754828688) 57 114 1
(0.3372103891 0.1537480113 0.1776467942 0.3313948054) 50 41 2
(0.01645166608 0.491774167 0.1359765026 0.3557976644) 295 582 1
(0.1500723604 0.2660246754 0.4249638198 0.1589391444) 145 287 2
(0.007156187998 0.496421906 0.0104233283 0.4859985777) 268 470 1
(0.32476008 0.33761996 0.02480368402 0.312816276) 29 58 1
(0.1216495937 0.4391752031 0.2218308654 0.2173443378) 80 100 1
(0.3782575677 0.3108712161 0.2129461627 0.09792505348) 83 106 1
(0.3384148484 0.2823656719 0.04842690393 0.3307925758) 119 1044 1
(0.6489654101 0.03343434388 0.1755172949 0.142082951) 89 176 2
(0.4787969846 0.2011868044 0.05941470327 0.2606015077) 143 224 2
(0.3690676168 0.3154661916 0.1378375032 0.1776286884) 296 525 1
(0.0427784792 0.1618458329 0.3167649275 0.4786107604) 22 44 1
(0.205530474 0.397234763 0.2405872718 0.1566474912) 116 227 2
(0.09408739328 0.4529563034 0.07472525744 0.3782310459) 54 105 2
(0.1265543186 0.4367228407 0.04391121717 0.3928116235) 264 521 1
(0.1114991908 0.4442504046 0.1751259699 0.2691244347) 88 174 2
(0.2198024485 0.3900987758 0.2791743439 0.1109244319) 328 644 2
(0.6465378181 0.176731091 0.09942962655 0.07730146441) 26 52 2
(0.04484997905 0.05160640802 0.4259686025 0.4775750105) 108 213 1
(0.1980412932 0.4009793534 0.003986688491 0.3969926649) 25 51 1
(0.8551963221 0.07240183897 0.02205986345 0.05034197551) 87 170 2
(0.07607937589 0.4619603121 0.3745910082 0.08736930382) 22 44 2
(0.09329248346 0.2957043983 0.4533537583 0.15764936) 26 50 1
(0.01923301496 0.4272650726 0.0631184199 0.4903834925) 22 1078 1
(0.2938250578 0.3530874711 0.304749826 0.04833764508) 239 412 1
(0.1008437037 0.4495781481 0.2705657777 0.1790123704) 146 289 1
(0.04698602658 0.07962053347 0.4765069867 0.3968864532) 57 111 1
(0.0959793801 0.45201031 0.3309302567 0.1210800533) 329 589 1
(0.1604627502 0.006838737152 0.4129298877 0.4197686249) 208 352 2
(0.3804237861 0.05187875841 0.2579093485 0.3097881069) 23 1079 1
(0.463679859 0.1724025113 0.09575755918 0.2681600705) 141 278 1
(0.2427018054 0.3786490973 0.1017474495 0.2769016478) 236 465 2
(0.04570351912 0.09169141318 0.3854568273 0.4771482404) 42 83 1
(0.04428794659 0.06004159037 0.4778560267 0.4178144363) 10 18 1
(0.575792824 0.1109745304 0.212103588 0.1011290576) 146 286 1
(0.3890474248 0.3054762876 0.2945924114 0.01088387622) 82 162 2
(0.2474949812 0.2164971295 0.3762525094 0.1597553799) 238 470 2
(0.07437158723 0.0160238975 0.4467903089 0.4628142064) 55 51 2
(0.2994623765 0.3502688118 0.1992515709 0.1510172409) 177 347 2
(0.5694884078 0.2152557961 0.07767962988 0.1375761662) 50 41 1
(0.05607184084 0.1399077151 0.4719640796 0.3320563645) 14 29 2
(0.1924992331 0.4037503835 0.080172266 0.3235781175) 86 170 2
(0.5105467845 0.2447266078 0.1059039954 0.1388226124) 58 57 1
(0.05790344911 0.363290767 0.4710482754 0.1077575085) 119 235 2
(0.6050936811 0.05799008633 0.1394630731 0.1974531595) 329 1051 1
(0.1892189442 0.4053905279 0.4024743562 0.002916171678) 28 54 2
(0.3561151249 0.1331565353 0.3219424375 0.1887859023) 56 112 2
(0.1123256857 0.4438371572 0.133907343 0.3099298142) 173 339 2
(0.2714336455 0.2169167912 0.1473663861 0.3642831773) 114 225 1
(0.4021868035 0.2989065982 0.2426589383 0.05624765995) 82 163 1
(0.0853957697 0.4573021152 0.2193109624 0.2379911527) 384 754 2
(0.3045150028 0.3477424986 0.2143810633 0.1333614354) 57 111 2
(0.006070907747 0.433590597 0.06337394911 0.4969645461) 50 99 1
(0.1899208941 0.07447039983 0.3305691531 0.4050395529) 24 1080 1
(0.3558975185 0.3220512407 0.05165377928 0.2703974615) 85 110 1
(0.9431208382 0.01228446545 0.02843958092 0.01615511547) 198 388 1
(0.142518181 0.4287409095 0.09161261406 0.3371282954) 299 587 2
(0.3505070336 0.3247464832 0.2526735394 0.07207294381) 85 168 2
(0.1973781648 0.189756106 0.2115548116 0.4013109176) 76 92 2
(0.7759802176 0.1120098912 0.01783245376 0.09417743746) 83 106 1
(0.0665291708 0.3878126176 0.078922797 0.4667354146) 56 53 2
(0.4008321358 0.1958080453 0.2995839321 0.1037758868) 15 31 2
(0.07186888819 0.4640655559 0.1770945664 0.2869709895) 298 587 2
(0.6823762889 0.03878014839 0.1200317072 0.1588118556) 108 155 2
(0.1350474427 0.3255956336 0.1068806451 0.4324762787) 51 43 2
(0.1223681218 0.4388159391 0.06214659022 0.3766693489) 24 48 2
(0.3016992074 0.3491503963 0.1534384378 0.1957119586) 208 410 2
(0.1089295392 0.2946562246 0.1508790058 0.4455352304) 202 398 1
(0.4694265098 0.2135372722 0.05174947289 0.2652867451) 21 1077 1
(0.160684233 0.4196578835 0.4175534464 0.002104437108) 203 398 2
(0.07263644533 0.4636817773 0.1742542296 0.2894275477) 25 50 2
(0.3946448931 0.3026775535 0.2321928004 0.07048475302) 17 1073 2
(0.215351853 0.3923240735 0.1940623339 0.1982617396) 89 174 2
(0.8267942554 0.08660287229 0.05333847461 0.03326439768) 76 92 1
(0.3047488103 0.2389924603 0.1086331345 0.3476255949) 233 401 2
(0.5673685187 0.03287481659 0.1834409241 0.2163157407) 83 106 2
(0.1268709444 0.2007585606 0.4365645278 0.2358059672) 198 388 1
(0.1384623872 0.1170098009 0.3137590055 0.4307688064) 299 530 2
(0.08692559819 0.2803606078 0.4565372009 0.1761765931) 23 44 1
(0.05507072771 0.4724646361 0.006085335446 0.4663793007) 145 228 1
(0.1060224444 0.4311553159 0.4469887778 0.01583346197) 29 56 1
(0.2654128005 0.1369934696 0.2303001301 0.3672935997) 329 589 2
(0.003588161593 0.4982059192 0.4626412131 0.03556470609) 173 339 2
(0.3938637431 0.3030681285 0.04806767413 0.2550004543) 89 176 1
(0.561558445 0.2192207775 0.0169050123 0.2023157652) 17 32 2
(0.5363212275 0.2318393862 0.1072414505 0.1245979358) 28 1084 2
(0.630774669 0.1846126655 0.03236376259 0.1522489029) 118 233 2
(0.3374521582 0.3312739209 0.1690246714 0.1622492496) 53 106 1
(0.3553114648 0.08287528821 0.3223442676 0.2394689794) 173 342 2
(0.4916952632 0.1224485244 0.1317038441 0.2541523684) 166 327 1
(0.6223324032 0.184538443 0.004295355394 0.1888337984) 204 344 2
(0.2545160355 0.3727419823 0.1746969318 0.1980450505) 53 106 1
(0.07954330196 0.1242923363 0.3359360128 0.460228349) 291 573 1
(0.4381873713 0.05076599462 0.2809063144 0.2301403198) 56 109 1
(0.1670617658 0.2818063237 0.4164691171 0.1346627935) 105 205 1
(0.9302883384 0.002729828986 0.03485583082 0.03212600183) 88 175 2
(0.012212331 0.42926478 0.4938938345 0.06462905455) 26 53 2
(0.2751447998 0.2519019732 0.1105256268 0.3624276001) 105 207 1
(0.52385897 0.1614725232 0.07659799178 0.238070515) 141 220 2
(0.6807151998 0.1596424001 0.1366156641 0.02302673595) 88 174 2
(0.1316406397 0.02665864154 0.4075210386 0.4341796802) 169 275 2
(0.1291480364 0.2063059163 0.4354259818 0.2291200655) 116 227 1
(0.5471142541 0.05793463788 0.226442873 0.1685082351) 207 406 1
(0.0482997844 0.4758501078 0.1638989159 0.3119511919) 324 580 1
(0.3504740566 0.3247629717 0.2550477153 0.0697152564) 113 221 2
(0.4006137031 0.2996931485 0.2398347795 0.05985836894) 359 707 1
(0.528124399 0.0750343081 0.1609034924 0.2359378005) 24 1080 1
(0.5372849806 0.1050150698 0.2313575097 0.1263424399) 18 37 2
(0.6464250154 0.1767874923 0.09910572514 0.07768176715) 293 575 2
(0.1571089772 0.4214455114 0.05917226414 0.3622732472) 80 158 2
(0.5104368217 0.2447815892 0.007389157457 0.2373924317) 55 51 1
(0.1177242701 0.01759698539 0.4235408796 0.441137865) 419 766 2
(0.5901356307 0.2049321847 0.08722274266 0.117709442) 134 206 1
(0.0854822162 0.05037435783 0.4068845341 0.4572588919) 228 449 1
(0.1307780652 0.1345225682 0.3000883993 0.4346109674) 59 58 2
(0.07534837153 0.2050073905 0.4623258142 0.2573184237) 88 172 1
(0.01901100484 0.4904944976 0.2313475442 0.2591469534) 116 230 1
(0.3797367227 0.2395259729 0.3101316386 0.0706056657) 70 139 2
(0.2647162405 0.1859184338 0.181723446 0.3676418797) 82 162 1
(0.02444095527 0.4877795224 0.3695248396 0.1182546828) 28 57 1
(0.2785805826 0.1057605654 0.2549491433 0.3607097087) 145 286 1
(0.1971074568 0.4014462716 0.2406916153 0.1607546563) 28 56 2
(0.2521396064 0.3739301968 0.2727059504 0.1012242464) 118 175 1
(0.7230607182 0.1224973579 0.1384696409 0.01597228302) 201 397 2
(0.9110542806 0.04447285971 0.03069157684 0.01378128287) 16 30 2
(0.5585232153 0.09806384686 0.1226745455 0.2207383923) 18 36 1
(0.6727281525 0.1529786304 0.01065729336 0.1636359238) 23 1079 1
(0.1391413995 0.04920516943 0.4304293002 0.3812241308) 147 288 1
(0.7604780071 0.05833985512 0.1197609965 0.06142114134) 112 222 2
(0.8450819659 0.07745901703 0.07177183863 0.005687178401) 118 231 2
(0.1095017635 0.4452491183 0.008348908656 0.4369002096) 20 1076 2
(0.5498345914 0.1632466437 0.0618360606 0.2250827043) 81 160 1
(0.7776375294 0.002097054128 0.1111812353 0.1090841812) 207 406 1
(0.6003351965 0.01980636808 0.1800260337 0.1998324018) 83 106 2
(0.3686496451 0.05303075178 0.2626444257 0.3156751775) 20 40 1
(0.3366015806 0.01247115847 0.3316992097 0.3192280512) 233 457 1
(0.6188037396 0.1905981302 0.1033979553 0.08720017486) 45 90 1
(0.1757596731 0.4121201635 0.3538987936 0.05822136986) 25 1081 2
(0.2746793509 0.3626603245 0.1860246374 0.1766356871) 146 286 2
(0.3762371138 0.2807905059 0.03109093723 0.3118814431) 174 285 2
(0.1894122321 0.405293884 0.2869075893 0.1183862946) 23 44 2
(0.002373488615 0.2048549713 0.4988132557 0.2939582843) 177 347 1
(0.00910801583 0.4954459921 0.2898127559 0.2056332362) 83 106 1
(0.3374109331 0.2564063821 0.3312945335 0.07488815136) 177 347 1
(0.7701959141 0.06376901995 0.05113302301 0.114902043) 50 41 2
(0.1194177573 0.4402911214 0.3269710506 0.1133200708) 15 30 2
(0.2646667974 0.3676666013 0.2157757605 0.1518908408) 265 523 1
(0.4121162729 0.003153400225 0.2939418636 0.2907884633) 52 101 1
(0.5157262126 0.2421368937 0.1114880713 0.1306488223) 113 165 1
(0.8260952 0.08695240002 0.06888118182 0.0180712182) 38 73 2
(0.4814125094 0.2470399967 0.2592937453 0.01225374857) 265 520 1
(0.0418131727 0.2198971309 0.4790934137 0.2591962827) 24 46 1
(0.3829696343 0.3085151829 0.1955007575 0.1130144254) 133 262 2
(0.1076467632 0.1195119477 0.3266646707 0.4461766184) 111 161 2
(0.03460760684 0.4826961966 0.03332077141 0.4493754252) 57 113 2
(0.4642133873 0.2678933064 0.149831518 0.1180617884) 208 408 2
(0.0495487168 0.327528346 0.4752256416 0.1476972956) 139 275 2
(0.2833381732 0.3583309134 0.1712248395 0.1871060739) 25 48 2
(0.2491134813 0.1768057374 0.1986375219 0.3754432593) 326 642 1
(0.9492514825 0.02537425874 0.0174491085 0.007925150247) 78 155 1
(0.01794813546 0.4910259323 0.3500788149 0.1409471173) 68 135 1
(0.2708585352 0.1076180532 0.2569526792 0.3645707324) 25 50 1
(0.5062403835 0.2468798083 0.07494194504 0.1719378632) 173 283 1
(0.7867604122 0.1066197939 0.0001422716291 0.1064775223) 323 636 2
(0.2654737993 0.3672631003 0.1945744618 0.1726886385) 56 53 1
(0.4421061288 0.2789469356 0.1941458841 0.08480105154) 238 467 2
(0.2638529262 0.3680735369 0.04147916598 0.3265943709) 26 53 1
(0.06860332635 0.4656983368 0.3463016347 0.1193967022) 119 1044 2
(0.4854896565 0.1423055526 0.1149496191 0.2572551717) 27 54 1
(0.2557933379 0.372103331 0.215875488 0.1562278431) 57 114 1
(0.4952315265 0.2334293312 0.2523842367 0.01895490558) 83 162 1
(0.1069639874 0.4465180063 0.2699978641 0.1765201422) 171 338 1
(0.4663238109 0.1847607301 0.08207736446 0.2668380945) 86 170 1
(0.3491700276 0.2364089882 0.08900599802 0.3254149862) 58 57 2
(0.5603798815 0.03164817081 0.2198100592 0.1881618884) 89 174 1
(0.7595122706 0.09025931795 0.1202438647 0.02998454674) 48 93 1
(0.1962283169 0.09554564202 0.3063401995 0.4018858415) 177 349 1
(0.5446699077 0.2276650461 0.2076242204 0.02004082574) 86 170 2
(0.5004324857 0.2497837571 0.0342906924 0.2154930648) 11 22 2
(0.2078390289 0.0536414701 0.3424390154 0.3960804855) 323 578 2
(0.1504950736 0.4247524632 0.3300585036 0.0946939596) 84 164 2
(0.09824962222 0.02778885375 0.4230863351 0.4508751889) 379 746 1
(0.5130667535 0.2434666233 0.1463214701 0.09714515315) 176 347 2
(0.1577348134 0.2450856765 0.1760469169 0.4211325933) 175 345 1
(0.5073270549 0.2463364726 0.2272372835 0.01909918902) 200 395 1
(0.257353716 0.1486474204 0.371323142 0.2226757215) 236 466 2
(0.962694953 0.01284028887 0.0186525235 0.00581223463) 133 263 2
(0.1072108779 0.4463945611 0.282963092 0.163431469) 116 227 2
(0.3501937644 0.3249031178 0.1238509156 0.2010522022) 257 507 1
(0.2452368356 0.353866582 0.02351500025 0.3773815822) 57 55 2
(0.326827212 0.2900949535 0.04649144053 0.336586394) 141 278 1
(0.2013635087 0.3993182457 0.2677949744 0.1315232712) 203 401 1
(0.1001330325 0.0215715 0.4499334837 0.4283619837) 321 633 2
(0.1136614123 0.4431692938 0.1932103736 0.2499589202) 146 230 1
(0.6289954024 0.1855022988 0.1182568816 0.06724541721) 47 35 1
(0.01673907934 0.4916304603 0.0559818092 0.4356486511) 143 283 1
(0.403305459 0.2983472705 0.1614865945 0.1368606761) 144 226 1
(0.4532959526 0.2733520237 0.04619388918 0.2271581345) 42 83 2
(0.1205783891 0.1650282436 0.2746825619 0.4397108054) 292 575 1
(0.6364655039 0.181767248 0.07966083365 0.1021064144) 84 108 1
(0.306721867 0.3466390665 0.16469867 0.1819403965) 352 693 2
(0.2177373038 0.3911313481 0.3335598529 0.05757149523) 136 266 2
(0.09796633264 0.4510168337 0.1495027747 0.3015140589) 85 110 1
(0.3801874473 0.3099062763 0.2308456873 0.07906058902) 82 163 1
(0.4018234904 0.2990882548 0.2925889413 0.006499313472) 52 101 2
(0.4694923871 0.2652538065 0.02442575498 0.2408280515) 105 207 2
(0.07106886893 0.4141942983 0.4644655655 0.05027126724) 119 235 2
(0.03139024247 0.4843048788 0.006065135043 0.4782397437) 116 229 2
(0.1675972014 0.4162013993 0.3021205994 0.1140807999) 53 106 1
(0.1704613222 0.4147693389 0.3404061922 0.07436314675) 89 174 2
(0.2658333745 0.3670833128 0.2338530517 0.133230261) 72 143 1
(0.1189516175 0.3752867016 0.06523748964 0.4405241913) 81 160 1
(0.2160416395 0.3919791803 0.05249577298 0.3394834073) 20 40 2
(0.3282032368 0.3358983816 0.1026554653 0.2332429163) 85 166 2
(0.2720847814 0.3639576093 0.1677426509 0.1962149584) 417 821 2
(0.2461286531 0.2650930741 0.3769356735 0.1118425994) 58 113 1
(0.06844020141 0.4657798993 0.1839010406 0.2818788587) 236 466 1
(0.2724334519 0.2841897783 0.363783274 0.07959349579) 266 522 1
(0.3125172879 0.3437413561 0.2845838842 0.05915747188) 417 821 2
(0.06445159493 0.1627370729 0.4677742025 0.3050371297) 43 83 1
(0.4396262157 0.2801868922 0.09261348719 0.187573405) 21 40 2
(0.5366087996 0.2316956002 0.2155235133 0.01617208686) 321 630 2
(0.5481650912 0.2259174544 0.1634350031 0.06248245129) 57 113 2
(0.3721653367 0.3139173317 0.03142424711 0.2824930846) 24 48 2
(0.00531457561 0.0840732629 0.4132694493 0.4973427122) 179 1046 1
(0.5390590153 0.1605516467 0.2304704923 0.06991884559) 55 107 1
(0.318552567 0.08093047079 0.3407237165 0.2597932457) 58 113 1
(0.2434006959 0.378299652 0.2217982187 0.1565014333) 209 410 2
(0.1128374693 0.0110338164 0.4435812654 0.432547449) 143 280 1
(0.1513638755 0.4243180623 0.2264089 0.1979091622) 238 469 2
(0.3585859742 0.3207070129 0.1631472487 0.1575597642) 112 219 2
(0.222497671 0.3887511645 0.3745721385 0.014179026) 25 1081 2
(0.3151110694 0.001199716366 0.3412447489 0.3424444653) 56 53 2
(0.3221158092 0.01816423874 0.3207778567 0.3389420954) 119 1044 1
(0.7721880443 0.06226233656 0.1139059779 0.05164364131) 23 47 2