/*--------------------------------*- C++ -*----------------------------------*\
| =========                 |                                                 |
| \\      /  F ield         | OpenFOAM: The Open Source CFD Toolbox           |
|  \\    /   O peration     | Version:  2406                                  |
|   \\  /    A nd           | Website:  www.openfoam.com                      |
|    \\/     M anipulation  |                                                 |
\*---------------------------------------------------------------------------*/
FoamFile
{
    version     2.0;
    format      ascii;
    arch        "LSB;label=32;scalar=64";
    class       scalarField;
    location    "0.007/lagrangian/dsmc";
    object      Ei;
}
// * * * * * * * * * * * * * * * * * * * * * * * * * * * * * * * * * * * * * //


9334
(
1.136361031e-20
3.655373987e-21
9.735515641e-22
4.674424768e-21
7.475821942e-21
3.793410163e-21
2.870547289e-20
4.476167896e-21
5.338839031e-21
1.987555718e-20
7.586578753e-21
4.581640586e-21
1.313884616e-20
7.360993189e-21
9.253230971e-21
4.932416886e-21
1.709834258e-20
7.879320022e-21
7.093219814e-21
1.720595239e-21
1.174425171e-20
8.731321973e-22
3.635610995e-21
1.873629749e-20
2.288794185e-21
3.129638667e-20
7.273395456e-21
3.349474883e-21
9.502326996e-21
2.472125271e-21
9.426763899e-21
5.267106854e-21
1.67308394e-21
3.482719966e-21
1.282703554e-20
9.483221191e-22
6.259446064e-21
2.408145205e-20
6.138061769e-20
1.044355651e-20
2.686607855e-21
3.049196365e-21
1.595028964e-20
3.41356083e-20
1.034321541e-21
2.906645351e-20
4.504600218e-20
9.088235971e-21
5.956442878e-21
2.796920848e-20
8.012363475e-21
1.197347154e-20
1.522150093e-20
2.345684468e-20
7.628172417e-21
1.505857527e-20
2.45405738e-20
7.59966894e-21
4.579581316e-21
9.044565383e-21
1.748144928e-20
1.277040316e-20
3.159123188e-20
2.215023514e-21
3.529943401e-20
1.334332145e-20
9.695421339e-21
2.326894089e-21
4.294013211e-21
8.692745801e-21
9.416414487e-21
1.938893793e-21
1.266542616e-21
9.465173734e-21
1.316436762e-20
1.984912988e-20
5.556209876e-20
9.483935835e-21
6.934288738e-21
2.055013124e-21
2.715838306e-22
7.231578769e-21
3.912395274e-21
1.769125515e-20
1.399887435e-20
3.465073556e-20
6.049662561e-21
7.583240791e-21
6.557017333e-22
4.231368781e-20
4.901353428e-21
3.129089591e-21
5.528504339e-21
2.79517573e-20
8.187905785e-22
6.808376414e-21
8.516209628e-21
7.604444879e-21
3.246673972e-21
5.50419167e-21
2.837714657e-21
2.055464625e-20
3.536131689e-21
1.288043142e-20
6.927026981e-21
1.006761702e-20
4.195481881e-21
3.371507911e-21
1.013258445e-20
3.476162276e-21
1.514579175e-21
1.335762443e-20
1.807557856e-20
4.586359689e-20
7.164909638e-21
4.233229007e-21
8.200756784e-21
1.128453092e-20
1.536523246e-20
6.575765739e-21
1.488600906e-21
1.128684683e-20
5.469972017e-21
2.040299567e-20
5.779469546e-21
3.443409161e-21
3.025027758e-20
1.633102763e-20
1.588865064e-20
1.607697496e-20
1.199498812e-20
5.181983647e-21
1.982077324e-20
1.613400334e-20
5.713554571e-21
3.625744661e-21
1.573188718e-20
7.382848553e-21
3.69166558e-21
2.009116515e-21
1.797138316e-20
6.353492277e-21
8.312891598e-21
1.753813161e-20
1.181799495e-20
6.439702687e-20
2.686101704e-21
2.296095087e-20
2.319907621e-21
6.592733652e-21
2.883174715e-21
4.834335109e-21
1.075349975e-20
9.263200174e-21
2.990377284e-20
5.480415044e-21
5.444122027e-21
1.163442625e-20
6.220859127e-21
5.157626921e-20
2.827972747e-20
9.852429736e-21
5.296686689e-22
2.961403874e-20
1.547304424e-20
3.245520907e-21
5.918360754e-21
1.799196471e-20
5.874075154e-20
1.699347185e-21
6.600415644e-21
4.715097342e-21
1.579262228e-20
6.242134748e-21
3.103959669e-21
9.771938245e-21
1.591113559e-20
7.394615107e-22
1.794874123e-20
2.464549539e-21
1.488928635e-20
4.788378176e-21
8.845373603e-21
1.154018834e-20
1.220693183e-20
6.325485346e-21
1.303333014e-20
5.639585546e-21
7.148328269e-21
2.165707962e-20
2.869850786e-21
2.974763462e-20
6.510191479e-20
4.278323019e-20
3.953143586e-21
3.973421913e-21
3.767117671e-21
1.585791337e-20
1.389077966e-20
3.111632672e-21
1.000006656e-20
2.052791714e-21
7.606005894e-21
2.416567052e-21
2.213773002e-21
2.240380511e-22
4.686572153e-21
3.934110191e-21
7.222283282e-21
1.40458751e-20
2.615148657e-21
5.207333009e-22
1.156250957e-20
7.528070692e-22
5.284090743e-21
2.14015155e-20
2.876630006e-21
3.027471083e-21
9.41355127e-22
5.099221849e-21
2.252731254e-20
3.575355092e-20
9.863605989e-21
1.459059978e-20
2.604077082e-21
1.793489727e-21
6.760467455e-21
2.799917718e-21
1.874509795e-20
2.873033834e-21
4.862145126e-21
8.040116335e-21
2.806232027e-21
1.787663065e-20
1.075103481e-20
3.666731802e-21
4.808877399e-21
2.047942654e-20
1.140111721e-20
1.77105833e-21
1.458252801e-20
5.47190207e-21
1.798843549e-21
1.674381269e-20
2.659456305e-20
9.491045439e-22
2.718684764e-20
2.724154111e-21
2.440366748e-21
1.817417371e-21
8.146225578e-21
2.239717941e-20
9.492605246e-21
1.39466992e-21
3.66168185e-21
1.715126173e-21
1.342320447e-20
5.453249793e-21
2.431608876e-20
1.303214576e-20
2.569799969e-21
6.585514251e-21
1.499693935e-20
1.464444315e-20
8.868729123e-21
4.796636043e-21
6.798643063e-22
1.21728019e-20
2.334248603e-20
8.610213856e-21
7.868648264e-21
8.542441441e-21
3.608121022e-21
1.03503278e-21
8.914345815e-22
1.152783563e-20
5.366365069e-21
6.228897966e-21
9.335388649e-21
2.581423695e-20
7.862450074e-22
1.622404951e-20
2.778304726e-20
2.578554198e-20
3.935890431e-20
2.271818159e-20
7.556170246e-21
1.308372875e-20
5.359788009e-21
1.405296594e-21
9.957676062e-22
3.653710127e-21
2.970324268e-21
8.339372059e-21
1.220617374e-20
4.991275152e-21
1.375967524e-22
1.674444618e-20
4.379147255e-22
5.417327922e-21
1.990828944e-21
3.432240571e-20
1.737869133e-20
1.222395303e-20
1.213544314e-20
1.025101144e-20
1.062042533e-20
8.893386028e-21
1.052946752e-20
1.09230855e-20
4.641102356e-21
6.038686165e-21
1.237548419e-20
9.796495472e-21
1.407627142e-20
1.00019695e-20
2.085593681e-20
5.478228495e-21
1.591623597e-20
9.898884801e-21
1.17557934e-20
2.918920913e-20
8.209607487e-21
6.999106889e-22
4.312446634e-20
5.123657956e-21
1.681753042e-21
5.200402162e-22
3.059198509e-21
1.077210035e-20
2.228720875e-21
2.708051597e-20
3.188827855e-20
1.069949736e-20
4.997171158e-21
2.862220279e-21
9.864534323e-21
4.955841499e-21
3.700128156e-21
2.088117409e-21
3.610404063e-21
6.48300895e-21
9.825537801e-22
7.202166254e-22
5.653740737e-21
3.422940115e-21
8.48852005e-21
1.565670528e-20
2.629549778e-20
3.537774234e-22
1.537287009e-22
3.656088603e-21
8.650128264e-21
5.535260991e-20
2.13213585e-20
1.417568567e-20
8.381731749e-22
3.415770496e-21
4.028405257e-21
4.25246273e-21
1.457892493e-20
3.438373082e-20
1.336259279e-20
3.450763688e-21
1.559626554e-20
6.999885428e-21
1.274659901e-20
1.115556424e-20
3.808657188e-21
2.758799381e-22
7.650140495e-21
8.829739937e-21
4.538742081e-23
3.814650451e-21
3.921121171e-21
3.823371973e-21
1.752523187e-20
2.633081939e-20
2.750918296e-22
1.027516754e-20
1.734342536e-20
1.159378818e-20
2.017967607e-20
9.33675988e-21
3.084952667e-20
1.038190908e-20
2.661128313e-20
3.704007035e-21
2.10567733e-21
9.14456761e-21
5.870034731e-21
5.852874638e-21
4.207222451e-21
1.871540775e-20
4.242071235e-21
9.610131268e-21
1.048940132e-21
7.251024077e-21
1.198639516e-21
7.921448214e-21
1.642501489e-20
1.708758353e-21
5.832334048e-21
5.833878802e-21
3.130675033e-20
9.574460934e-21
1.028148154e-20
3.894955006e-20
3.439248139e-20
1.669925646e-20
9.449252955e-21
4.018791451e-21
3.173000019e-20
9.177925393e-21
3.8677984e-20
7.330535817e-21
6.128551892e-21
1.085622689e-20
5.28004463e-21
2.699198442e-21
1.904866773e-20
9.932700458e-21
7.988057286e-21
5.114011835e-21
2.850677748e-20
1.438225499e-20
1.398683675e-20
2.53656499e-20
2.684273537e-20
1.641469902e-20
1.012177063e-20
5.726602832e-21
3.867761224e-21
1.093634572e-21
4.313452692e-21
7.142550133e-21
2.10183125e-21
4.286493514e-20
1.124742034e-21
6.975344573e-21
8.473257902e-21
4.060140922e-21
2.247479571e-21
9.331767831e-21
1.480428657e-20
2.967779551e-21
1.246622065e-22
1.501235462e-20
5.415945516e-21
2.591234235e-20
1.346424203e-20
7.461025994e-22
6.09058661e-22
8.431697776e-22
1.171146917e-20
1.586886037e-20
2.006580307e-20
1.039260544e-20
2.036675175e-22
2.291165096e-22
2.392101993e-20
7.659488272e-21
5.216215318e-22
2.655406831e-20
1.396937504e-20
2.185083979e-20
4.898692475e-21
2.528879878e-21
2.443925715e-21
1.049327542e-20
1.485119902e-21
1.602818593e-21
4.687067575e-22
1.07551822e-20
4.931819622e-20
2.837242185e-20
4.940274281e-21
6.105498687e-22
2.403052536e-21
1.283683022e-20
4.306620636e-21
1.51200968e-21
6.238330565e-21
2.125089425e-21
2.436268055e-20
4.486376234e-21
4.681724799e-23
7.547772162e-21
3.541963806e-21
3.501551456e-21
3.68404396e-21
7.87416987e-21
7.302845707e-22
5.329990278e-21
1.244620892e-20
4.082125972e-22
4.072146323e-20
1.521458174e-20
2.483486888e-21
1.499670748e-22
1.271802935e-22
2.10995296e-21
3.545880336e-20
8.145759366e-21
1.295430724e-20
4.240318271e-21
3.018348202e-21
1.40736653e-20
3.046437299e-22
9.468788991e-21
9.29782068e-21
5.828550205e-21
2.869866095e-21
5.513174634e-21
2.781457063e-21
2.632767356e-21
7.597436085e-21
3.027474868e-21
9.271226737e-21
5.361545828e-21
1.066336153e-20
1.258801316e-20
6.00028923e-22
2.274398441e-20
1.086811474e-20
1.504503041e-20
4.767806496e-21
8.717148397e-21
3.798458596e-21
5.606036832e-23
2.257693351e-21
7.297897165e-21
1.788009769e-21
3.575721377e-22
9.623414913e-21
1.704271471e-20
7.769046677e-22
4.866642332e-21
6.827812156e-22
1.73628363e-20
5.364464707e-21
2.82284449e-20
4.304800663e-21
3.800618218e-21
1.523708049e-20
2.521169221e-20
4.70912219e-21
3.738852797e-20
1.43235183e-20
3.09298293e-20
4.116600861e-21
4.246200399e-21
6.922669616e-21
1.422981185e-20
4.636326518e-20
9.788023285e-21
4.789410555e-21
1.733239362e-21
1.917554644e-20
1.674920207e-20
1.178044104e-20
1.739774233e-22
1.288464767e-20
8.79637915e-21
5.133837743e-22
1.290225689e-20
4.25896709e-21
5.193711148e-22
2.360116125e-20
2.313879736e-20
6.819707983e-21
1.084784662e-20
1.943500898e-21
8.149364183e-21
1.526861234e-20
7.597950955e-22
1.801211492e-20
4.278044411e-21
1.126153441e-20
1.163294041e-20
3.764242296e-21
7.370634681e-21
6.315547405e-21
3.681971141e-21
2.333859202e-23
3.169975208e-21
1.71870405e-20
2.10847724e-21
1.221756599e-21
1.737154173e-20
4.107810996e-21
7.42641381e-22
7.241405638e-21
9.798907328e-21
9.572317855e-21
8.381786633e-21
4.329333834e-21
8.419677811e-21
2.138080876e-21
5.154095832e-21
2.493877845e-20
5.675443971e-21
2.797236896e-21
4.713848718e-21
5.946701922e-21
3.915606765e-21
5.826565958e-22
4.865174168e-21
3.314715132e-20
1.122311097e-20
5.315750117e-21
8.83066455e-21
6.527303476e-21
1.798330693e-20
2.155233476e-20
7.512002437e-21
4.596789386e-21
3.821599153e-21
2.890454351e-20
1.783267482e-20
7.552153815e-22
7.568169062e-21
3.00063393e-21
7.769185148e-22
3.390439777e-20
1.054597748e-20
1.314912743e-20
8.741021918e-21
1.659028854e-22
4.811213285e-21
1.370316258e-20
5.801420103e-21
1.493257671e-21
1.453675809e-20
8.217723307e-21
1.201335922e-20
4.779093922e-21
2.252347417e-21
2.366487867e-20
1.507790383e-20
2.915616335e-20
3.607130575e-21
1.230661771e-21
5.425345031e-21
1.190010758e-20
7.947450101e-21
4.194081039e-21
2.334469082e-21
5.768929961e-21
5.34801266e-21
9.981140537e-22
5.339147095e-21
3.029404751e-21
2.079558208e-21
3.252622577e-21
7.1835761e-21
4.057652097e-21
7.873629278e-21
2.132042529e-20
1.351965195e-20
7.917341672e-23
1.611044434e-21
2.209090675e-21
2.292402254e-21
3.202389872e-20
1.192898424e-21
2.714823575e-20
1.233524761e-20
9.338921884e-21
1.150821455e-20
4.901122114e-21
7.231282547e-21
5.775118276e-23
3.215652076e-21
8.304994948e-21
4.925103195e-21
4.984740732e-21
4.131557151e-21
1.057636594e-20
2.681594666e-20
1.018382861e-21
5.343860479e-21
1.041012577e-20
6.460620596e-21
2.25306698e-20
2.92414587e-21
3.237141179e-21
3.964478936e-21
2.630107849e-20
2.925553523e-20
2.260621403e-21
1.568702142e-21
1.267461757e-20
8.186768355e-22
1.975298532e-21
2.128365945e-20
3.265119615e-20
3.815310472e-20
4.689019064e-21
1.365067275e-20
1.869960676e-20
4.726422187e-20
7.857900717e-22
1.059006034e-20
8.055178736e-21
1.126937123e-20
1.552610582e-20
3.252775206e-20
4.787407795e-22
8.868891503e-21
1.241150641e-21
1.534564362e-20
5.686002727e-21
5.714446692e-21
8.853751353e-21
7.328663584e-21
2.095498834e-20
2.317132438e-21
1.19134747e-20
1.084505159e-20
1.137448724e-20
1.78286956e-20
7.635101928e-21
3.525561939e-21
7.193952435e-21
2.902165555e-20
2.553141631e-21
1.061219348e-20
4.846257771e-21
4.263663536e-20
1.850256626e-20
9.37141667e-21
1.940221313e-20
6.324132681e-21
1.164705961e-21
9.135671732e-21
3.686035891e-21
1.64601312e-20
3.508443439e-21
5.249781955e-21
1.153399608e-20
6.638450256e-21
7.671393645e-22
1.401284106e-20
5.670679113e-21
1.781851426e-20
3.342890998e-21
1.926685921e-20
3.536018495e-21
1.995346843e-20
1.12734352e-20
1.206286602e-21
2.230557882e-21
3.189424177e-20
9.086282373e-21
2.212761018e-20
5.631487373e-21
2.255560768e-21
2.879274178e-21
2.103144183e-20
1.902243798e-20
2.01693069e-21
1.31992757e-20
3.042208341e-22
2.969917538e-21
1.899439299e-20
5.689052187e-21
5.990359845e-22
1.27178125e-20
5.56430529e-21
3.782714898e-21
1.10628753e-20
2.70350152e-21
3.777255763e-21
9.88916451e-21
1.756996205e-20
1.043175764e-20
1.097209762e-22
3.872510955e-20
2.242435455e-20
3.160081471e-21
2.260198473e-21
9.708419028e-21
1.109452117e-20
7.775429797e-21
7.590042259e-21
4.013891415e-21
6.544456263e-21
2.320257571e-21
1.11141011e-20
1.389730237e-20
1.283947127e-21
3.911380581e-22
2.990726419e-22
5.58238123e-21
1.42046479e-20
1.033719426e-20
6.106143496e-21
2.742868549e-21
1.462363265e-20
1.306052186e-20
3.138428196e-22
2.624199753e-21
1.077490667e-21
2.695284893e-22
8.642102767e-21
3.870625623e-21
6.931122253e-21
6.301258621e-21
4.57667398e-21
2.395655845e-21
4.96216336e-21
1.939013594e-21
2.032052623e-20
8.90992024e-21
9.680211808e-21
5.320540211e-21
1.661550407e-20
2.734687805e-20
1.256082043e-20
4.864362428e-21
1.952820095e-20
4.058268724e-21
1.135560554e-20
4.923498954e-21
5.74732456e-21
5.954049304e-21
3.025032983e-21
4.376562265e-21
1.273592854e-21
1.000194261e-21
3.445875113e-20
2.073181461e-20
3.759319384e-21
1.563892578e-21
1.019439786e-20
9.611031745e-21
1.758737615e-21
5.071747684e-21
1.344906366e-20
4.947149405e-22
5.302540752e-21
2.699273017e-20
4.956288965e-21
3.105353798e-20
3.124940927e-21
1.637992623e-20
1.453970598e-20
1.010742848e-20
8.343710277e-21
4.152041475e-21
8.74107634e-21
2.708239995e-21
5.533902275e-21
2.629713065e-21
8.149393721e-21
2.371312562e-21
4.22904687e-20
4.092945372e-21
3.38752923e-20
1.856772124e-21
3.556262683e-21
6.672429513e-21
2.06480822e-21
4.083646757e-21
1.257138883e-20
1.84003704e-20
3.717051315e-21
2.838371527e-21
3.69012024e-21
1.978730302e-20
5.859898304e-21
6.365576242e-21
2.942781746e-21
1.28186273e-20
2.021919154e-21
4.851076323e-21
2.077505636e-20
2.72144383e-20
2.892233858e-21
1.075385969e-20
5.279237231e-21
4.680754652e-21
2.236806913e-20
2.033654273e-20
1.026385912e-20
7.214730676e-21
3.931248696e-21
7.953951315e-21
2.005903846e-21
6.754378835e-21
2.91742364e-20
2.683090228e-21
1.734668637e-20
1.324728425e-20
2.28972567e-21
3.443071321e-21
9.233048927e-21
2.366741593e-20
5.447438801e-21
9.827931105e-21
7.231320379e-20
4.934858301e-21
4.309525053e-21
4.82764682e-21
4.393330633e-21
8.420122097e-21
2.219836878e-20
3.116408414e-21
1.872112271e-20
4.296601728e-21
4.108359414e-21
3.26027987e-21
5.753658308e-22
5.298052677e-21
7.161546154e-21
9.290630807e-21
2.441281841e-20
6.351655404e-21
1.082407318e-21
2.770745227e-20
9.556080803e-21
3.175070781e-21
8.142030948e-21
8.64325393e-21
2.216353738e-20
1.565626573e-20
1.138149905e-20
1.646803576e-20
3.752974952e-20
6.308062736e-21
8.21523773e-21
2.595641647e-20
1.442770236e-20
1.181025484e-20
1.060656858e-20
1.805348988e-20
1.144312923e-20
6.577235738e-20
5.367916806e-20
6.628875112e-22
3.459387369e-21
1.590582315e-20
1.811092936e-20
5.04764313e-21
4.255934407e-21
8.992541209e-22
8.17757668e-21
7.78363299e-21
1.023787322e-21
7.818248575e-21
7.975233553e-21
2.453785746e-21
1.056343281e-20
2.656865487e-20
1.846583234e-20
1.398815451e-20
3.139870613e-21
1.4921707e-20
3.053978664e-20
3.668409956e-21
1.221484827e-20
1.573698863e-20
1.541691047e-20
5.458594628e-21
2.004882263e-20
1.539715413e-20
1.723423735e-20
1.291856233e-21
3.573008429e-22
1.066627778e-21
1.944299855e-20
1.02362187e-21
1.271314554e-20
2.020156164e-21
3.432240516e-21
6.738324192e-21
1.931036803e-20
1.007069394e-20
1.233790818e-20
9.092002162e-21
4.37331667e-21
7.882497525e-21
2.449275395e-22
1.034942841e-20
1.9673641e-20
5.123444352e-21
1.340145579e-20
3.196319589e-20
5.81461881e-21
4.326930364e-20
1.597924571e-20
3.579116342e-21
1.485851399e-20
2.796886744e-20
2.674555548e-21
1.650187797e-22
5.572625198e-21
2.242548181e-21
1.264180469e-20
3.045799175e-22
2.083684448e-20
3.065626434e-21
2.707375541e-21
9.857373671e-21
9.085763322e-21
2.100639669e-20
5.775422066e-21
3.207547677e-23
2.800197376e-20
2.562372248e-21
2.329492862e-21
1.35635326e-20
5.51660447e-21
7.264698168e-21
1.491611251e-20
1.051620459e-20
1.850395332e-21
1.287502243e-20
6.484556311e-22
3.275920494e-22
1.380555477e-21
1.680489638e-21
1.30469885e-20
2.132273341e-20
8.168374831e-20
1.356099842e-20
1.138339508e-20
8.117389959e-21
3.353181422e-21
2.030960379e-21
1.469423297e-20
5.968279005e-21
1.54156281e-22
2.2291551e-21
1.709598819e-21
1.108869159e-20
3.3954821e-21
1.967739285e-20
2.177487759e-20
3.062729035e-20
1.807891349e-20
4.630580643e-21
9.826557215e-21
1.16462939e-20
8.809005612e-21
7.304177522e-21
6.122189395e-21
2.576504651e-21
5.038315479e-21
2.349381663e-21
1.566276755e-20
2.099589651e-21
3.869519852e-21
3.297848505e-21
3.741359557e-21
2.027889862e-21
2.33395427e-20
3.021083648e-22
4.169288298e-20
1.921334848e-20
2.825299456e-20
1.76580312e-20
2.518241125e-22
8.553124802e-21
1.463023338e-20
5.581093254e-21
1.499795693e-21
1.325650757e-20
4.098970718e-21
8.906131504e-21
1.536418002e-20
1.744496481e-20
3.933518642e-20
1.446678808e-20
4.274574528e-21
2.161751058e-21
1.034103669e-20
2.054931205e-20
3.399111566e-20
4.232877457e-21
1.982299465e-20
2.354140145e-21
1.832690359e-20
1.721372635e-20
4.160963735e-22
1.868842943e-20
1.341303445e-20
8.861966175e-21
8.08079437e-21
2.383789615e-20
1.409582514e-20
2.758163474e-20
1.193266569e-21
6.555265016e-21
2.032116895e-20
1.647801001e-20
1.68018856e-20
2.682632879e-21
2.01282527e-23
2.544142831e-20
1.597838778e-20
5.379152235e-21
2.223548495e-23
5.88271196e-21
6.86563161e-21
1.645240886e-21
2.100780898e-21
2.879663883e-21
1.403283659e-21
3.139340584e-21
1.731340278e-21
1.7988441e-20
6.941730387e-21
1.057808106e-20
3.579427894e-20
1.987277287e-20
1.122752862e-20
8.050011088e-21
2.741387572e-21
3.764609576e-21
3.718369217e-21
7.595716906e-21
2.008603518e-20
5.470640314e-21
2.275570129e-20
2.594318272e-20
6.03757562e-21
1.224458043e-21
2.496243782e-21
6.73111662e-24
5.227799009e-23
8.06530293e-21
1.768690857e-20
3.588695643e-21
2.120998061e-21
1.241572311e-20
1.412063457e-20
1.661472873e-20
8.30234997e-21
4.110460594e-21
5.358640115e-21
8.506583469e-21
5.232984602e-22
1.600058224e-21
5.07593216e-21
6.774068676e-21
1.741748487e-20
2.674888459e-20
1.346013034e-20
2.871004605e-22
3.304485306e-20
1.706291471e-20
4.453508209e-21
1.058783608e-20
2.831842457e-20
2.548323017e-20
1.149526269e-20
1.588839882e-20
2.949816666e-20
3.507744249e-21
2.184262663e-21
3.870547663e-21
2.784758716e-21
2.48387372e-20
4.913940057e-21
5.807198323e-21
2.266300679e-20
2.757676006e-22
1.092445176e-20
1.570945417e-20
4.840328039e-21
5.011589395e-22
9.941874364e-21
2.730128653e-20
9.82599257e-21
1.126452399e-20
2.002424604e-20
5.150443448e-21
3.089720399e-20
3.301764241e-20
4.742803078e-21
1.818279205e-20
3.701657586e-20
1.101872489e-20
1.502048797e-21
1.837659161e-20
2.581204079e-20
2.265616557e-20
3.165863794e-21
2.810755652e-21
3.803293189e-21
6.122749882e-22
1.431165087e-20
1.12987448e-20
1.053035901e-20
1.987184901e-21
3.190304106e-21
1.051009716e-20
1.352354109e-20
8.178727963e-21
1.633491272e-20
7.379350945e-21
2.519911717e-22
8.442060694e-21
7.393845111e-22
4.18368274e-20
7.095313527e-21
2.493144038e-20
1.009720898e-20
4.212999367e-21
5.656412364e-21
8.083140564e-21
2.617168065e-20
6.123875368e-21
5.242949266e-22
1.379524894e-20
5.5232949e-21
2.001019075e-20
8.053356493e-21
4.318780757e-21
6.390323397e-20
1.545013531e-21
1.225306262e-21
5.5103966e-21
5.616740222e-21
1.815864358e-20
1.288902609e-20
3.71143035e-20
6.408072698e-21
4.643027647e-21
4.495753789e-23
6.058709384e-21
7.626414596e-21
7.319002221e-22
3.987880179e-21
2.106075311e-20
2.72969115e-20
8.090139543e-21
1.051799188e-20
1.25915052e-20
1.756941385e-21
2.561868992e-22
3.721432515e-22
1.571800267e-20
5.972716377e-21
4.308392667e-20
2.704989579e-20
3.080349824e-21
3.565312388e-21
1.775059128e-21
1.134242897e-20
3.191348215e-21
7.070670686e-22
9.11960029e-21
4.584414672e-21
9.942858444e-21
4.579795285e-20
1.587290453e-20
1.159099298e-20
6.186531885e-21
1.47923421e-20
1.282270751e-20
9.445108746e-21
5.055069309e-21
3.632907868e-21
2.615068814e-21
4.562689542e-20
5.971260273e-21
1.38333064e-20
8.32462797e-22
7.901583997e-21
1.290022697e-20
8.764021492e-22
1.818143023e-20
2.45954246e-20
1.864835917e-20
1.736524312e-20
2.178913929e-20
1.434660293e-21
4.480144481e-20
3.394662389e-21
7.223734845e-21
2.27548067e-20
3.377020768e-20
4.932516441e-21
3.391747983e-21
1.677409647e-20
9.042135669e-21
1.952092534e-20
1.045409536e-20
5.903087917e-21
7.799317587e-21
1.165578993e-20
4.243062443e-21
2.401310119e-20
1.186749997e-21
2.268194694e-20
1.956760395e-20
4.104861904e-20
9.089557269e-21
9.286842004e-21
3.642735462e-21
2.039854872e-20
1.035423524e-21
7.108532777e-21
4.485293148e-21
8.3783383e-22
6.468414101e-21
4.077535684e-20
1.278193128e-20
1.095189422e-20
2.921587237e-21
3.106799424e-21
5.890632163e-21
1.484648076e-21
5.814623118e-21
3.723022554e-20
1.934973936e-21
2.331241905e-22
1.260331478e-20
2.147425545e-21
1.658726398e-20
1.974511173e-21
7.736034965e-21
9.559225181e-21
9.001349187e-21
3.258249444e-21
2.356006887e-21
1.407131736e-20
6.257649211e-22
6.741905746e-21
1.372010666e-20
2.042105233e-21
3.119264431e-21
1.082017598e-20
2.90690823e-20
1.170919868e-20
1.892629354e-20
2.385397134e-20
9.381175061e-21
5.528614427e-22
3.58725601e-21
7.998381089e-21
3.602119708e-20
1.921489166e-21
8.039309362e-21
5.390351033e-21
1.884722538e-20
9.301466822e-21
2.615411815e-20
3.601162039e-21
1.721873291e-20
6.423784416e-21
5.311083811e-21
3.391137806e-21
4.33824132e-21
4.994278069e-21
2.579928421e-20
4.48169153e-21
4.594414346e-21
4.484914052e-21
1.451051934e-20
1.263030619e-21
2.370207781e-21
2.377558396e-21
1.181624332e-20
2.042164451e-22
1.327313364e-20
2.016914893e-20
1.3748781e-21
4.992762086e-23
2.612835164e-21
3.76800297e-20
5.893377304e-21
1.281285855e-19
5.411765618e-21
3.73235347e-22
1.198853002e-20
1.376349436e-20
3.819408377e-20
1.702335927e-21
4.807304119e-20
8.921049389e-21
3.698221201e-20
7.625925409e-22
5.49612772e-21
3.667010329e-20
5.471827362e-21
4.208923741e-21
2.437242506e-20
9.758463195e-21
7.39496242e-21
4.317422059e-20
1.922116867e-21
8.554882456e-21
1.959437704e-21
2.247720648e-20
3.163951295e-20
3.430696778e-20
9.975794818e-21
2.262954501e-21
8.576972172e-22
2.681043747e-20
7.624217768e-21
1.172619124e-20
7.724276342e-21
2.677897568e-20
1.175891711e-21
2.466125453e-21
6.433444348e-21
5.942769755e-21
2.847115361e-22
4.918307631e-21
1.301626907e-21
1.625980422e-21
2.476764757e-21
1.218165618e-21
5.200296174e-21
2.018787146e-21
9.294474336e-21
1.574837848e-20
4.583192259e-21
3.514834131e-20
8.330960239e-22
1.019593061e-21
1.9488756e-20
7.857518562e-21
3.796289343e-20
2.795889913e-20
8.743011257e-22
1.529981128e-20
8.563488011e-21
1.102508341e-22
3.785367213e-21
3.180729338e-20
1.538818961e-21
2.973990967e-20
7.802630231e-21
1.062100339e-20
6.717502937e-21
2.139477356e-20
7.014928676e-22
6.378984651e-21
4.620509473e-20
1.764832459e-21
6.069119465e-21
1.826727493e-21
4.933071505e-21
2.141216577e-20
3.111043308e-21
1.118350417e-20
7.087426912e-21
4.010764541e-21
6.433212473e-22
5.798947412e-21
4.489437977e-21
1.356616222e-21
3.048707327e-21
8.992903124e-21
2.125723724e-20
1.513816275e-20
2.928363088e-21
6.611411053e-21
8.196856384e-22
1.652002896e-20
1.393971588e-20
3.968142575e-21
4.7391714e-21
1.289635088e-20
3.6320069e-20
2.212760572e-20
4.327138955e-21
4.043149701e-21
1.145241609e-20
6.74915478e-21
3.727604387e-21
1.230385591e-20
7.302454022e-21
2.023737929e-21
1.96971748e-20
1.697275146e-21
1.535670132e-20
4.390811163e-21
6.772054731e-21
2.500074071e-20
4.89162181e-21
2.032255516e-20
1.158175944e-22
5.556465471e-21
1.234998176e-20
3.156447323e-20
2.448114669e-20
1.130177116e-20
1.119895315e-20
9.691435127e-21
1.041919943e-20
2.377293301e-20
1.165316678e-20
1.29305263e-21
2.259782156e-22
2.257352414e-21
2.929345596e-21
6.847217593e-21
7.982370537e-21
2.34678404e-20
7.076816786e-21
5.510886309e-21
3.454162293e-20
1.369857353e-20
1.683129238e-20
2.403177914e-20
2.082838294e-20
1.639574057e-22
2.630354624e-21
4.063973358e-21
8.706645469e-22
1.076793871e-20
9.89769219e-22
6.722405468e-21
7.166490076e-21
2.267391703e-23
3.477599597e-20
1.859298449e-20
5.74324198e-21
6.627011096e-21
2.226863544e-20
2.4450757e-21
3.682800218e-21
2.919137885e-21
1.247627259e-21
1.500276675e-20
6.525864388e-22
2.139626962e-20
4.089899908e-20
2.816190608e-20
1.920006353e-21
1.494349557e-20
3.398163117e-21
5.254377213e-21
1.084959295e-20
1.913631144e-21
4.795031808e-22
1.60658e-20
8.718158012e-21
5.872169099e-22
1.950008989e-20
1.654889056e-21
3.053320447e-21
4.543628402e-20
1.87888996e-21
7.124427001e-21
7.352543224e-22
4.416669152e-21
7.991483637e-21
9.384794133e-21
8.920640101e-21
2.149931639e-20
1.747736363e-21
1.141971305e-20
1.735936093e-20
1.661591728e-20
6.633554488e-21
4.897230968e-22
1.225146882e-20
2.953291931e-22
2.278574276e-21
4.209946278e-20
8.566446784e-21
1.589285974e-20
1.126741322e-20
3.351103686e-20
1.474651382e-21
3.325684203e-20
3.609443063e-21
4.061844641e-21
1.369023053e-21
2.392762228e-20
2.969249021e-20
1.224261955e-20
8.74958267e-21
1.051633589e-20
8.335265469e-21
9.031998805e-22
1.373624258e-20
9.446082013e-21
1.712419477e-20
5.671721747e-22
4.852379436e-21
5.444980822e-21
5.607165557e-23
1.626274012e-20
1.803877652e-20
4.574178168e-21
4.308755663e-21
1.100482036e-21
1.728909862e-21
1.550066355e-20
3.681128756e-21
2.930213136e-20
1.198319948e-20
4.566316493e-20
1.042970455e-20
9.260953082e-21
9.244570553e-21
2.086595195e-20
2.145903468e-20
3.744074584e-22
1.214035064e-20
7.897175588e-21
1.081488757e-21
3.092132012e-21
2.738583232e-21
9.603930839e-21
7.140777141e-21
1.352613911e-20
1.333530626e-20
4.852359247e-21
6.39555393e-21
7.658639025e-21
1.504303436e-20
1.227499972e-21
9.973683284e-21
2.472232855e-20
1.561998749e-20
3.145136402e-21
4.986457613e-20
1.045743008e-20
2.216950838e-21
7.369849112e-21
2.939525348e-20
1.066624543e-20
4.817416919e-21
1.689828502e-20
1.57263476e-20
7.059331198e-21
7.196055029e-21
5.209158521e-21
5.674961335e-21
3.556985617e-20
3.385283208e-21
3.187483438e-21
5.235572465e-21
1.630471751e-21
1.06781585e-20
1.234126216e-20
1.827233731e-21
3.228098857e-21
1.173618103e-20
1.175832203e-21
3.256506027e-21
9.480352922e-21
1.799868857e-20
9.046058299e-21
3.127227827e-23
4.26617518e-21
8.740688927e-21
1.554146405e-20
1.061135506e-20
2.252241554e-22
1.958390447e-21
1.467796565e-20
1.017600475e-21
1.025483159e-20
6.78446001e-21
4.828311019e-21
5.708724122e-21
3.703553634e-21
2.70170315e-20
1.923975867e-21
2.672304086e-20
1.28934631e-20
7.436194825e-22
5.813384524e-20
1.351396978e-20
3.851623966e-21
3.178053166e-21
5.270574004e-20
2.380270549e-20
7.144165429e-21
2.629777504e-20
1.369453574e-21
4.574952794e-20
6.775859668e-21
7.970387626e-21
2.972726163e-20
1.02599659e-20
8.475734686e-21
8.286654496e-21
1.339390451e-20
4.204391255e-21
1.205054155e-23
2.207448712e-20
1.047951715e-20
3.114582034e-20
1.372973281e-20
2.400932077e-20
1.20345011e-21
1.542553811e-20
1.23300483e-20
7.48859575e-21
2.620518145e-20
1.170347732e-21
1.917758472e-20
3.036494405e-21
1.6142844e-20
3.781830308e-21
4.816666828e-21
3.792082099e-21
5.030511943e-21
1.032927814e-20
9.28236371e-22
3.157738982e-22
3.285206671e-20
3.072301787e-21
7.84266051e-21
1.258951879e-21
9.934733496e-22
1.253567432e-20
4.275001771e-21
1.346793032e-20
1.430270321e-20
1.015372488e-22
1.851170183e-20
5.827989522e-21
3.561161195e-20
7.756699755e-21
1.425925771e-20
9.606038885e-21
1.631836386e-20
4.319011223e-21
7.346310781e-21
4.243782064e-21
1.945736806e-20
4.358847836e-21
4.498390719e-21
1.169458069e-20
2.821116075e-21
1.025291736e-20
1.735638327e-20
9.354299829e-21
1.50262357e-20
2.620944205e-20
2.711989664e-21
1.497984628e-20
1.895435505e-21
3.944541688e-21
8.11988768e-21
6.125578465e-22
1.477016422e-20
8.655301356e-21
2.884310269e-20
6.057590571e-22
1.258621091e-21
1.855722183e-20
2.373260736e-21
3.255131377e-21
1.080705863e-20
2.148263551e-20
2.43790646e-21
1.48594355e-20
2.378223481e-22
1.345149208e-20
1.241622059e-20
1.518473429e-20
2.26326766e-20
9.424848648e-21
3.22713799e-20
1.036472575e-20
2.987590813e-21
1.740059816e-20
6.847235276e-21
1.038792673e-21
3.381434598e-21
4.125048911e-21
1.340410974e-20
2.798950178e-22
4.854138455e-22
5.376012715e-21
3.239501027e-21
1.296467645e-20
8.004210495e-21
3.002753989e-21
7.812803682e-21
7.341747172e-21
4.095297668e-21
3.234675475e-21
3.167689001e-21
1.490767106e-20
1.016591563e-20
5.643299808e-21
8.89049582e-21
8.946908966e-22
1.189086316e-20
2.793436551e-21
4.086038024e-21
9.599634884e-22
7.751768428e-21
2.993957713e-20
8.233223099e-21
1.878337161e-20
2.922351097e-21
3.112591834e-20
4.057074936e-21
2.441040252e-21
6.626484578e-22
9.778785367e-21
3.20757161e-21
2.265930179e-22
1.169001427e-20
1.012709568e-20
2.363316413e-21
7.009482962e-22
6.530225324e-21
1.671413671e-21
3.831910772e-21
2.550979607e-20
9.951014303e-21
2.151498043e-22
6.950992237e-21
1.088127252e-20
1.026148218e-20
8.858479072e-21
2.000694948e-20
1.528688385e-20
2.795573739e-20
1.733646314e-22
1.120211052e-21
1.605265894e-21
4.704357105e-21
1.817405997e-20
5.301373566e-21
3.970351261e-21
1.167601132e-20