/*--------------------------------*- C++ -*----------------------------------*\
| =========                 |                                                 |
| \\      /  F ield         | OpenFOAM: The Open Source CFD Toolbox           |
|  \\    /   O peration     | Version:  2406                                  |
|   \\  /    A nd           | Website:  www.openfoam.com                      |
|    \\/     M anipulation  |                                                 |
\*---------------------------------------------------------------------------*/
FoamFile
{
    version     2.0;
    format      ascii;
    arch        "LSB;label=32;scalar=64";
    class       labelField;
    location    "0.007/lagrangian/dsmc";
    object      origId;
}
// * * * * * * * * * * * * * * * * * * * * * * * * * * * * * * * * * * * * * //


9334
(
320045
319633
319111
319288
321356
314923
323403
320040
318826
321298
325936
325765
326041
327092
325862
325962
327387
327512
328207
325153
327504
329508
328824
315833
325531
327574
330218
328489
327585
328016
328310
322769
326752
330220
328203
328107
328309
330151
326546
328924
329324
330376
325037
330077
329923
330165
331961
330239
330445
327793
331707
326974
330876
331050
331423
330286
330367
324013
331482
331544
332185
327403
331160
324105
331494
332297
329516
335445
329940
331137
332887
322256
333397
331166
331256
331285
332053
329233
332883
333194
331790
332269
327701
330037
330546
331863
332827
329024
332822
332808
332804
334541
329300
332623
332813
325438
331997
330238
332497
327158
331995
333018
334488
332811
333922
333953
334852
329628
330946
331873
332000
332287
332805
333101
334117
335242
335349
334078
334460
335072
334051
334535
334906
335844
332116
334567
334740
334779
334445
335192
336108
336365
332500
332389
332906
333726
334747
334840
331665
333645
331691
331181
331349
331911
334237
334657
335188
335407
330665
333893
335283
332885
335168
335170
331447
333220
331365
333502
333526
333705
335203
335206
335367
335681
333134
333804
334448
335511
334408
334988
336055
336202
331960
333517
334239
335376
336125
336212
326880
335672
335673
336399
329950
332035
335872
334028
336710
332212
333917
334533
334861
335701
335758
326664
330246
326769
329625
334319
336374
333113
334772
336709
337024
337582
332375
336286
336642
336702
337091
335854
336562
332710
335905
337218
326339
329924
335769
336057
336435
337329
337503
335252
336821
337424
337670
330040
332583
335352
336919
337388
337417
337421
337844
334641
335262
337088
337435
330226
331486
334692
336989
337481
338961
331490
333097
336379
336704
337279
337338
337495
333325
334026
334329
335457
335837
336915
337493
338225
338415
332678
333668
337083
337289
337311
337819
334527
334725
335559
336087
336697
336701
337516
337521
337915
338132
338341
329421
335857
336289
337204
338253
334317
333913
336181
337624
338942
339073
339489
328094
335865
336400
336492
337927
338722
330262
333520
335455
335494
335980
337640
338041
338351
334017
335585
337727
337999
338156
338309
339839
335578
335794
336182
336596
337616
337631
337743
338055
337710
337931
338074
338213
338373
338491
338550
337620
338033
338239
338733
338815
340956
335479
337928
338517
339145
339438
339765
339859
335384
337201
332285
332806
336388
337215
338127
338627
339112
339321
339322
334121
337097
337199
337816
338059
338140
338443
338839
339339
339458
336575
337613
338229
338537
338648
339052
340082
340999
332812
336222
336267
337683
337901
338519
338837
339630
340254
336255
337692
338332
339130
339329
339660
339894
341374
336165
337610
337830
338201
338966
339471
339912
340547
340876
338022
338674
338745
338824
339600
340270
334118
338936
338977
339450
340271
338917
336287
336362
336606
336689
338919
339353
339540
340076
341474
342391
330655
333703
335079
337588
338117
338881
338959
339034
339137
339854
340073
337813
337991
339155
339210
339448
339473
333302
333399
335040
335546
336073
336898
336981
338540
338851
339869
339877
339899
339975
340012
340776
334137
337805
339472
339761
341165
341612
338893
339674
340071
340089
340148
341373
333805
336276
338442
339557
339634
339772
339785
340178
340188
340224
341058
339430
337397
338629
338831
339151
339436
339562
339648
339978
340650
340955
341005
341332
335969
339043
339534
339884
340066
340190
340313
340562
340646
340884
341174
338520
334835
338149
338923
339456
339664
339757
340047
340317
341187
337395
337679
338355
338825
339546
339564
340564
340673
341131
334757
335944
336498
336687
337002
337188
338133
339016
339591
339734
339767
340283
342390
339127
338202
340167
340282
340615
342203
335863
336393
337185
338344
338823
339243
339845
340756
340883
341701
341982
333818
336152
338248
339041
339153
339653
340053
340367
340753
340763
342018
334955
330127
334863
336882
338334
338435
338622
339022
339354
339752
339991
340639
341466
342015
343007
343109
334729
337302
340462
340542
340685
340788
341070
341192
341284
338011
339881
340204
340303
340558
340751
341116
341310
341317
341522
342201
342338
342443
337416
339840
336169
339234
340393
340655
340681
340683
340882
341074
338360
339224
339537
339850
340062
340262
340267
340571
340892
341271
341402
341699
341903
342116
342143
342861
335647
338112
338227
338743
339584
340359
340445
340868
341016
341198
341301
341415
342219
342235
338115
338315
338463
339141
339777
340186
340661
340670
341126
341168
341892
344131
338539
338570
339356
339838
340306
340310
340392
340579
340849
340953
341088
341094
341920
342650
342706
342716
342874
343107
343215
337903
340063
340451
341081
341091
341296
341406
341417
341528
341720
342108
342188
342285
342286
342428
342536
342725
342936
342940
343050
334031
337802
337806
338621
338840
340079
340171
340591
340952
341604
341605
341709
342003
342597
342627
343136
332987
338125
338716
341482
341521
341554
341713
342312
342429
342430
342909
342962
343046
343167
343262
344954
338736
339226
340976
341479
341879
342151
342174
342437
343154
343924
339786
340056
341280
341438
341496
341515
341563
342326
342636
343017
343059
333428
338633
340792
341514
342223
342513
342560
342634
342707
342885
343263
343657
343958
345664
333211
336791
337296
338426
338844
339451
339544
339771
340160
341161
341288
341594
341598
341635
341844
342212
342606
342640
342811
343462
343635
343770
338029
339018
339542
339853
340276
341085
342192
342522
343019
343020
343214
343271
343745
343767
336264
337497
338306
340979
341889
342123
342459
342618
342641
342823
342857
343032
343457
343553
343840
345360
339361
340375
341404
341647
342299
342605
342762
342837
342942
343441
343467
343634
338211
341167
342724
343142
343574
343651
343691
343853
344002
338928
329808
339538
340848
340984
341344
341760
342113
342819
342840
342935
343317
343359
344065
344092
339766
332271
339654
340595
340775
341384
341781
341887
341901
341933
341989
342646
342743
343031
343045
343110
343164
343366
343443
343679
344171
337381
329921
339044
339678
340890
341414
341703
341794
341907
342002
342031
342408
342527
342714
342920
342927
343336
343649
344886
338618
340152
340964
341221
341714
342250
342611
343226
343232
343233
343325
343621
343920
343939
344052
344374
344470
344544
344621
346074
341877
337326
338728
338739
340085
340970
342551
342632
342826
342930
343072
343259
343354
343420
343442
343532
344025
344291
334109
340288
340566
341613
342119
343130
343265
343338
343677
343839
344168
344952
339745
341900
342014
342103
342419
342621
342645
343054
343733
343805
344294
344550
338631
339441
340185
341893
342396
342934
343230
343458
343592
343739
343877
344132
344295
345658
341476
342414
338235
335569
336359
339952
340065
341684
341698
342939
343026
343132
343171
343339
343642
343743
343782
343968
344796
344863
338811
338130
339888
341618
341691
342291
342615
343028
343047
343119
343255
343333
343549
344575
344577
344614
344790
344988
345055
335750
339327
339643
341999
342773
342820
342965
343446
343833
344043
344276
344356
344367
344549
344705
340569
343239
343455
343993
344077
344310
344314
344442
344497
344676
344771
345303
345764
338637
339963
339964
340182
341176
341902
342320
342407
343042
343218
343280
343340
343444
343655
343671
343934
343953
344169
344281
344361
344519
344672
344781
344979
345286
345308
345873
347505
337703
337700
340353
343025
340177
341485
343008
343133
343440
343468
344057
344145
344253
344256
344378
344468
344566
344595
344857
344887
345073
345414
346990
339342
339852
341186
341272
341507
341998
342406
342718
343831
343963
344266
344398
344477
344702
344763
345361
338233
337489
340064
341282
342019
342214
342393
342501
342503
343040
343252
343356
343447
343563
343941
344275
344357
344417
344608
344879
345499
346699
348730
339862
338556
342425
342622
342644
343022
343534
343858
343867
344680
344910
344990
345012
345062
345191
345307
345380
345488
345677
345684
345733
345798
346114
343834
336668
338828
341067
342700
342807
343619
343842
343881
344251
344363
344380
344583
344690
344803
345501
345794
346586
339661
341184
341193
341782
342179
342712
343438
344372
344501
344547
344670
344673
344856
344997
345294
345910
346173
336170
341994
342110
342815
343570
343865
344250
344682
345182
345190
345390
345416
346453
347196
341302
341694
342304
342400
343368
343643
343721
343734
344681
345026
345081
345174
345362
345397
345619
346115
346448
337487
339027
338634
341942
343353
343755
343772
343849
343919
344346
344359
345057
345063
345101
346023
346236
347302
347610
339962
340869
342825
343115
343240
343526
343585
343851
343862
344032
344051
344446
344454
344494
344664
344783
344864
345104
345396
345402
345461
345571
345992
346304
338533
343250
341789
344143
344161
344167
344170
345527
345657
345905
346007
346024
346262
341688
342208
342491
343453
344930
345097
345383
345460
345597
345690
345894
346025
346069
346110
346210
346221
346528
346890
346996
347096
340771
340782
340872
340959
342434
342943
343346
343937
343966
344059
344142
344584
344674
344770
344895
345500
345559
345844
345934
346013
346102
346215
346250
346282
346339
337693
340373
340878
340989
342601
343211
343971
344127
344241
344588
344795
344987
345066
345227
346021
346068
346119
346122
346233
346319
346414
346553
346634
346831
339972
340758
341483
342719
343140
343520
343688
343735
344259
344447
344896
345014
345271
345317
345334
345772
346005
346180
346238
346417
347019
348939
339867
341378
342189
342215
342499
343207
343931
344196
344866
344876
344878
345188
345409
345485
345574
345583
345585
345685
345705
346204
346212
339571
340048
340455
343622
343656
344764
344775
344957
345252
345272
345581
345871
346060
346100
346118
346334
346394
346421
346730
346837
348016
334826
338123
341628
342194
342818
344027
344262
344586
344871
345162
345163
345599
345602
345670
345703
345928
346193
346525
346753
346835
347155
348323
342389
343235
343536
343929
344135
344453
344768
344769
345069
345672
345781
345912
346015
346099
346108
346140
346179
346295
346303
346312
346431
346611
346919
346936
347134
295526
347401
347433
341290
341812
343229
343925
344746
345105
345177
345417
345592
345665
345683
345700
345766
345812
345822
345893
345897
346308
346336
346340
346411
346612
346633
346827
346945
347251
347402
348014
348020
349661
343940
338625
342193
342313
342612
342730
343331
343921
344543
344973
345296
345484
346184
346198
346539
346689
346693
346709
347014
347132
347172
347342
347715
348241
349455
340806
341166
342000
343757
344128
344245
344471
344650
344868
345094
345180
345774
345791
346203
346395
346407
346506
346516
346625
346725
346833
347326
347928
349148
339429
340173
342398
343530
343636
343764
344147
344449
344909
345570
345783
345904
345913
346089
346201
346217
346243
346562
346583
346609
346726
346846
346931
346989
347088
347332
348942
339954
342091
343120
343437
343537
344462
345056
345268
345680
345771
345920
346016
346112
346313
346430
346637
346815
346954
347231
347321
347341
347362
347503
347646
347734
347856
348237
342433
344130
337597
340357
343210
344503
344579
344767
345331
345579
345801
345983
345989
346011
346039
346139
346189
346205
346226
346346
346543
346743
346821
346836
347043
347139
347314
347337
347647
347882
347959
349039
338438
338718
341076
341090
343228
343727
343932
344658
344747
344949
345175
345269
296120
345896
346294
346318
346322
346383
346479
346507
346523
346813
346824
346939
347138
347150
347216
347236
347279
347351
347567
347605
347806
348236
340187
341996
338433
340349
343328
343722
343836
344875
345273
345285
345293
345468
346174
346291
346415
346592
346614
346618
346805
346963
346998
347013
347067
347069
347112
347151
347325
347443
347550
347612
347663
347666
347858
347920
347948
348837
348984
344328
341400
342038
342290
342928
343425
344205
344243
344967
345108
345292
345382
345769
345856
345887
346091
346412
346518
346704
346713
346828
346902
346912
346934
347022
347333
347418
347449
347736
347742
348259
345093
341811
344156
342300
342739
343208
343323
344344
345291
345603
345635
346006
346093
346175
346299
346320
346517
346659
346946
347089
347243
347409
347526
347528
347661
347757
347835
347859
347954
348563
340083
341381
342726
343766
343843
344475
345265
345780
345868
346325
346388
346392
346455
346490
346509
346603
346626
346851
347004
347038
347109
347226
347347
347653
347961
347978
348231
348251
348458
348943
349293
339961
341197
297617
343343
343742
343955
344036
344869
345001
345478
345899
346001
346344
346423
346485
346584
346738
347053
347217
347238
347324
347344
347422
347649
347761
347899
347964
348071
348247
348355
348402
348425
348746
298594
349454
341894
337079
342105
343427
343521
343527
343852
343974
345179
345688
345790
345838
346002
346136
346218
346425
346505
346979
347246
347340
347398
347446
347729
347773
347872
348276
298236
348371
348540
348575
348638
348834
348870
349209
341981
341416
337180
344472
337794
340548
344688
344890
345159
345389
345714
345813
345991
346208
346390
346405
346502
346524
346601
346914
347032
347445
347555
347611
347633
347719
347752
347754
347776
347831
347848
347975
348151
348347
348550
348561
348567
348672
348982
340768
343538
343835
344978
345365
345473
345476
345610
345773
346513
346595
346642
346650
346859
346861
347020
347129
347372
347498
347522
347706
347774
347832
347943
348015
348070
348262
348392
348471
348576
348684
338610
349153
349234
346307
345805
338864
342701
343741
343754
344254
344758
345607
345719
345767
345888
345900
346207
346323
346594
346695
346696
346745
346817
346825
346906
346970
346991
347213
347387
347431
347438
347635
347636
347638
347756
347844
348029
348034
348163
348177
348362
348375
348456
348573
348857
348899
348969
349076
350160
297434
350467
350573
343006
347095
345695
340261
343519
344345
344362
344439
345782
345889
345895
345967
345969
346073
346103
346357
346468
346623
347008
347093
347211
347304
347313
347441
347521
347627
347643
347764
347825
347829
347840
347873
347955
347992
348041
348119
348154
348155
348171
348254
348268
348320
348363
348379
348468
349107
349190
349274
351093
344044
340987
338327
339848
341800
342699
343730
344460
344854
345394
345605
345985
346387
346607
346816
346823
347222
347260
347348
347417
347665
347763
347813
347833
347953
347973
348019
348039
348081
348172
348337
348377
348447
348681
348759
348777
348797
348801
348871
348948
348963
348983
349348
349378
349603
349904
338206
343943
344048
344341
344655
345589
346109
346409
346627
346916
347023
347210
347327
347350
347354
347429
347529
347543
347614
347733
347768
347939
348062
348120
348143
348159
348178
296841
348243
348305
348364
348378
348469
348470
348476
348498
348541
348565
348572
348657
348756
348772
349106
349149
349618
298714
344965
338319
342505
343424
343650
343731
344846
345161
345808
345898
346000
346183
346402
346587
346812
346842
347148
347451
347457
347531
347534
347745
347809
348037
348157
348248
348264
348287
348353
348389
348546
348554
348566
348651
348668
348765
348862
348913
348998
349056
349061
349079
349112
349193
349303
349316
349349
349412
349527
349698
350677
344326
344358
344858
345482
345797
346211
346311
346398
346458
346529
346602
346757
346910
347003
347030
347359
347430
347469
347716
347717
347950
348056
348075
348275
348319
348544
348553
348587
348671
348682
348775
348872
348877
348944
349001
349317
349912
350313
342830
343219
345283
345375
345457
345470
345762
346710
346962
347097
347242
347363
347559
347579
347654
347751
347944
347968
347979
348187
348250
348290
348350
348427
348649
348680
348754
348769
349078
349083
349094
349110
349113
298588
349191
349270
349422
349426
340967
342089
342816
343547
344153
345696
345906
345998
346172
346510
346597
346632
347105
347234
347444
347541
347577
347624
347724
347747
347820
347956
348069
348252
348335
348452
348473
348552
348737
348745
348767
348867
348882
348972
349101
349102
349170
349761
349792
350021
343771
346631
346992
340279
341917
344560
344765
345796
346081
346793
347163
347552
347682
347842
347850
347921
347997
348156
348233
348557
348559
348596
348626
348709
348715
348753
348854
348855
348898
348970
349074
349105
349207
349281
349299
349344
299366
349482
349512
349521
349524
349581
349779
347852
299287
340067
344034
345357
346333
346508
346604
346622
346651
347230
347312
347317
347403
347437
347511
347523
347546
347818
347847
347988
348013
348030
348043
348044
348046
348048
348050
348130
348165
348249
348263
348332
348359
348408
348475
348632
348674
348710
348727
348911
348954
348979
349067
349068
349179
349182
349278
349309
349318
349585
349775
349798
349915
350039
350162
351292
347746
344351
341398
343752
344956
345388
345479
345788
346732
346952
347218
347319
347504
347765
347893
348067
348072
348238
348331
348349
348426
348474
348644
348716
348750
348764
348864
348890
349086
349144
349187
349289
349301
349308
349364
349398
349434
349514
349589
350115
350225
298933
344246
342205
345089
345171
345891
345977
346187
346504
346635
346917
347016
347123
347303
347339
347743
347870
347927
347951
347972
347976
347995
348042
348049
348242
348366
348372
348383
348502
348504
348533
348556
348707
348804
348853
348874
348953
349069
349089
349090
349116
349143
349180
349246
349290
349319
349320
349384
349387
349396
349429
349567
349584
349785
349817
349884
350005
350070
350083
350093
350492
350753
350881
344968
345560
345687
345694
345778
345886
346403
346428
346803
346888
346993
347373
347427
347618
347735
347828
347845
347933
348058
348167
348181
348232
348302
348307
348316
348662
348689
348697
348761
348825
348889
348908
348923
348957
348962
349292
349362
349390
349487
349579
349591
349616
349713
349880
350197
350208
350388
350485
352109
300075
347912
343927
344548
345580
345779
346171
346181
346285
346499
346533
346700
346810
347144
347741
347886
348152
348645
348646
348770
348802
348859
348892
348959
349081
349088
349263
349355
349407
349419
349477
349513
349529
349642
349648
349674
349690
349737
349825
349989
349992
350116
350193
350196
350213
350421
350570
341884
344239
344349
344368
344882
344960
345982
346397
347601
348145
348226
348272
348564
348735
348780
348915
349013
349032
349162
349178
349185
349253
349296
349389
349483
349486
349525
299276
349627
349630
299367
349786
349788
349942
350107
350113
350155
350236
350297
350411
350705
350809
352110
342202
340957
342740
342827
344049
345165
345575
346908
347197
347200
347415
347440
347500
347644
347648
347732
347841
348205
348428
348466
348548
348647
348652
348670
348783
348831
348869
348932
348960
348986
349096
349152
349173
349198
349204
349269
349297
349393
349586
349599
349620
349631
349656
349678
349680
349710
349790
349804
349815
349826
349838
349891
349898
350114
350192
350220
350224
350394
350599
350765
300686
300261
341385
345074
345890
347130
347320
347499
347630
347664
347749
347868
347940
347952
348173
348536
348545
348574
348747
348752
348760
348897
349008
349072
349084
349154
349195
349219
349223
349237
349280
349392
349443
349485
349490
349506
349600
349673
349695
349712
349871
349981
350022
350029
350284
350292
299274
350494
350523
350540
351321
351803
344662
348712
341727
342919
344255
344963
345356
346408
347215
347408
347915
348253
348266
348313
348348
348479
348763
348782
348790
348961
348968
349212
349235
349332
349468
349479
349608
349703
349719
349777
349778
349796
349889
349918
349976
349990
350009
350015
350206
350221
350309
350335
350406
350498
350725
350735
350793
350987
351159
351346
352425
299565
346512
343122
343845
344844
345183
345276
345712
346802
347017
347098
347195
347412
347545
348744
348771
348895
348991
349073
349077
349087
349221
349273
349288
349330
349386
349413
349451
349492
349499
349501
349507
349598
349601
349701
349733
349999
350234
350278
350302
350592
350928
351154
300422
300512
344029
345974
346326
347410
347581
347772
347949
348148
348277
348340
348560
348878
348884
348976
348992
349017
349155
349203
349211
349261
349272
349375
349383
349391
349418
349459
349466
349470
349495
349593
349602
349640
349728
349748
349783
349795
349858
349977
350001
350100
350182
350235
350295
350402
350432
350547
350567
350658
350697
350925
351013
351430
341478
338836
339843
342098
342426
343330
344654
345879
346721
346806
347221
347328
347602
347604
347766
347836
348027
348045
348385
348636
348773
348973
348995
349037
349214
349377
349475
349583
349587
349592
349607
349635
349684
349687
349736
349803
349828
349840
349847
349883
349951
349982
350089
350152
350212
350277
350280
350299
350312
350333
350419
350524
350585
350638
350693
350698
350717
351019
351141
351195
351242
351394
351494
300868
340546
342619
345663
345988
346498
346711
347400
347629
347634
347883
347935
348144
348318
348432
348571
348619
348658
348938
348955
348971
349003
349065
349264
349291
349313
349385
349408
349469
349604
349731
349842
349860
349919
349968
350077
350084
350094
350179
350189
350200
350227
350300
350336
350385
350414
350420
350521
350528
350545
350654
350737
351001
351074
351363
351495
351660
351729
351859
351942
298926
342626
345374
346441
346497
346807
346921
347209
347485
347506
347524
347720
348141
348235
348344
348446
348460
348738
348742
348786
348814
348827
349022
349145
349205
349373
349401
349432
349433
349491
349596
349696
349717
349766
349972
350064
350066
350087
350096
350127
350159
350187
350194
350215
350247
350306
350320
350337
350374
350377
350452
350495
350529
350537
350625
350627
350825
351112
351149
351155
299815
351229
351343
351584
352318
300884
349371
298773
349943
341784
343431
345555
345593
346297
346324
346744
346907
347018
348134
348245
348336
348774
348958
349046
349098
349184
349186
349192
349194
349262
349444
349474
349476
349484
349659
349681
349692
349699
349721
349869
349909
349983
349996
350018
350023
350033
350106
350382
350416
350424
350488
350542
350543
350557
350565
350624
350632
350712
350713
350716
350732
350877
300076
350942
350985
351010
351161
351226
351421
351596
301126
351937
353133
345775
346424
345474
345572
345972
346385
346491
346599
347865
347967
348239
348329
348357
348367
348462
348549
348581
348622
348667
349197
349199
349271
349381
349405
349460
349504
349508
349565
349594
349720
349793
349827
349896
349938
349964
349984
349986
349987
349997
349998
350051
350073
350097
350104
350175
350207
350229
350243
350289
350307
350345
350379
350386
350412
350433
350472
350503
350522
350551
350552
350614
350622
350628
350637
350659
350675
299560
350785
350930
351113
351129
351247
351288
351758
352317
353130
341614
342308
343747
344150
346315
346384
346718
347985
348022
348025
348534
348663
348887
349038
349044
349217
349229
349277
349402
349457
349576
349625
349694
349837
349899
349930
349931
350004
350014
350017
350020
350037
350074
350181
350204
350209
350276
350426
350463
350473
350513
350590
350597
350608
350609
350651
350684
350700
350738
350792
350798
350829
350907
350924
350935
350938
351040
351105
351109
351152
351197
351223
351243
351418
351429
351547
351553
351661
351805
352522
347034
299663
344352
344444
346692
346719
347120
347301
347512
347637
347911
348741
348776
348789
348843
348977
349117
349361
349488
349564
349657
349683
349723
349773
349819
349886
349893
350065
350121
350174
350177
350199
350223
350270
350294
350346
350395
350404
350476
350479
350507
350607
350611
350620
350629
350646
350723
350729
350745
350807
350813
350901
350934
350949
351047
351068
351191
351270
351271
351340
351452
351712
351728
351762
351798
351858
352145
353436
350256
344336
345166
345379
347821
347934
347938
348453
348625
348666
348978
349080
349188
349208
349268
349478
349685
349691
349702
349876
349882
349975
350105
350134
350205
350248
350291
350303
350329
350354
350369
350396
350398
350509
350510
350514
350525
350539
350606
350636
350704
350722
350740
350777
350841
350855
350957
351012
351024
351029
351180
351231
351258
351261
351273
351290
351359
349450
351423
351440
351652
351733
351799
351856
349945
352248
352725
301131
344751
351587
344463
344553
346296
347323
347530
347622
347910
348137
348423
348445
348793
348856
348917
348997
349064
349189
349295
349329
349374
349380
349688
349697
349725
349810
349920
349941
350028
350067
350079
350099
350120
350126
350133
350191
350264
350323
350352
350364
350393
350405
350434
300329
350511
350533
350621
350668
350695
350696
350708
350758
350845
350923
350943
351027
351055
351066
351099
351234
351371
351375
351464
351486
351575
351641
351744
352031
352108
352490
352564
300505
300958
349643
341792
342199
346077
346909
347609
347823
347913
348352
349093
349266
349276
349388
349447
349573
349606
349644
349708
349794
349818
349822
349878
349910
350010
350075
350154
350170
350268
350298
350357
350390
350461
350464
350504
350505
350566
350623
350639
350676
350728
350734
350759
350799
350815
350844
350903
350911
350953
351014
351041
351044
351048
351125
351136
351158
351190
351240
351296
351449
351451
351510
351530
351562
351566
351594
351647
351732
351757
351835
352172
352184
352253
352274
352624
352723
352829
301141
300010
345277
346494
346913
346994
347000
347140
347308
347713
347937
348059
348441
349129
349284
349358
349403
349578
349609
349855
349890
349991
350000
350030
350085
350086
350112
350117
350142
350164
350324
350327
350489
350500
350572
350648
350724
350766
350796
350804
350818
350820
350824
350834
350857
350919
350961
350968
351017
351033
351037
351063
351091
351097
351164
351219
351318
351338
351349
351356
351369
351453
351463
351521
351533
351548
351564
351635
351691
351747
351784
351787
351952
351966
351989
352220
352262
352875
347007
348369
346521
346900
347012
347924
348451
348530
349196
349279
349366
349735
349770
349780
349888
349897
349971
350007
350186
350195
350203
350418
350431
350634
350702
350736
350816
350918
350922
350939
350980
350997
351052
351069
351151
351246
351248
351281
351298
351317
351333
351352
351390
351485
300592
351513
351526
351539
351576
351623
351633
351646
351668
351670
351754
351847
351854
352042
352105
352171
352174
352231
352319
352332
352830
354256
347925
301048
345071
345172
347861
347930
347931
348028
348261
348429
348454
348551
349060
349228
349248
349400
349404
349570
349633
349667
349873
349908
350019
350172
350183
350214
350216
350376
350408
350687
350701
350707
350711
350714
350721
350727
350839
350920
350940
351045
351204
351255
351330
351336
351342
351377
351535
351536
351565
351616
351634
351637
351669
351751
351827
351832
351877
351912
351963
351967
352196
352493
352505
352583
301398
352971
301047
302011
302006
299008
341283
345186
347136
348459
348863
349040
349063
349174
349249
349286
349626
349637
349820
349892
350124
350218
350282
350283
350293
350317
350436
350481
350497
350534
350536
350699
350715
350787
350823
350840
350906
350917
350932
350933
351050
351053
351090
351092
351098
351132
351153
351212
351264
351322
351332
351341
351428
351443
351446
351468
351524
351570
351693
351715
351756
351824
351836
351839
351841
351878
351884
351895
301657
352050
352074
352087
352112
352140
301223
352270
352358
352453
352763
301910
300782
351792
301744
300717
344233
345053
345976
347322
347738
348153
348558
348740
348949
349781
349866
349994
350024
350122
350210
350305
350381
350383
350399
350429
350447
350499
350588
350617
350618
350709
350730
350806
350811
350827
350847
350861
350900
350921
350931
351004
351026
351032
351061
351079
351108
351128
351135
351157
351257
351323
351395
351416
351450
351480
351537
351563
351651
351671
351734
351738
351741
351782
351831
351865
351880
351974
351981
352028
352044
352062
352079
352092
352233
352261
352314
352965
353026
353331
351991
347228
300438
350401
301152
343552
344983
345692
346316
347206
297790
347625
347916
348317
348639
349057
349310
349473
349864
349924
349963
350003
350008
350095
350595
350596
350603
350703
350786
350803
350853
350909
351021
351022
351123
351133
351140
351163
351222
351228
351236
351409
351436
351466
351519
351540
351541
351549
351554
351557
351823
351826
351829
351849
351876
351953
352045
352047
352095
352120
352346
352349
352559
352690
352704
352857
353027
353125
301564
345278
301665
301143
300327
348026
348139
349163
349183
349497
349540
349577
349580
349582
349911
350222
350594
350610
350742
350835
350842
350851
350954
351067
351095
351120
351148
351174
351220
351245
351249
351280
351324
351362
351388
351420
351427
351431
351459
351477
351478
351489
351532
351569
351581
351663
351688
351719
351722
351723
351763
351797
351855
351864
351881
351910
351930
351959
351983
352012
352073
352100
352135
352141
352149
352168
352170
352234
352247
352250
301302
352554
352590
352637
351189
352611
299833
300700
343435
346399
347414
348351
348678
349142
349356
349693
349763
349812
349848
349967
350156
350176
350231
350279
350311
350387
350496
350591
350602
350616
350802
350876
350914
350927
351023
351025
351114
351115
351119
351144
351176
351239
351351
351367
351415
351441
351543
351577
351591
351597
351620
351642
351743
351755
351760
351766
351825
351943
351957
351972
351978
352014
352032
352089
352090
352147
352151
352167
352179
352418
352422
352494
352498
352557
352560
352670
352693
352747
352978
353176
353178
302458
350403
347240
301581
346098
348162
348538
348749
348850
349055
349159
349177
349556
349611
349759
349868
350184
350274
350286
350389
350491
350508
350719
350731
350782
350790