/*--------------------------------*- C++ -*----------------------------------*\
| =========                 |                                                 |
| \\      /  F ield         | OpenFOAM: The Open Source CFD Toolbox           |
|  \\    /   O peration     | Version:  2406                                  |
|   \\  /    A nd           | Website:  www.openfoam.com                      |
|    \\/     M anipulation  |                                                 |
\*---------------------------------------------------------------------------*/
FoamFile
{
    version     2.0;
    format      ascii;
    arch        "LSB;label=32;scalar=64";
    class       Cloud<dsmcParcel>;
    location    "0.007/lagrangian/dsmc";
    object      positions;
}
// * * * * * * * * * * * * * * * * * * * * * * * * * * * * * * * * * * * * * //

9334
(
(0.2435886062 0.0850742071 1.084202172e-19) 111
(0.2407682809 0.09429933995 0) 171
(0.2783746375 0.08735120315 -2.168404345e-19) 86
(0.2656967161 0.1235090373 -2.168404345e-19) 294
(0.3044565781 0.1119245195 -2.168404345e-19) 179
(0.2945221912 0.08824095635 1.084202172e-19) 58
(0.2492807438 0.06897635719 -2.168404345e-19) 22
(0.2844894846 0.08877936825 3.252606517e-19) 87
(0.2603247346 0.07549890812 -1.084202172e-19) 24
(0.2956581961 0.1507143742 0) 388
(0.2659065377 0.07726930092 0) 54
(0.2389941068 0.07282789368 2.168404345e-19) 51
(0.2900123709 0.08640248451 -2.168404345e-19) 58
(0.2347912764 0.07262860586 0) 50
(0.2469931989 0.07289728732 1.084202172e-19) 52
(0.2428425519 0.0948614669 -2.168404345e-19) 171
(0.2659178438 0.1275316253 0) 294
(0.2203446147 0.1010642724 4.33680869e-19) 198
(0.2797653876 0.09313111379 0) 116
(0.2583919787 0.1125843686 -2.168404345e-19) 233
(0.291436075 0.1329300438 3.252606517e-19) 298
(0.2828409969 0.0787905627 -2.710505431e-19) 27
(0.2582396549 0.07030224169 0) 23
(0.2739879379 0.08125651992 1.084202172e-19) 55
(0.2773553575 0.08574851442 -2.710505431e-19) 86
(0.2560836523 0.08048749047 2.168404345e-19) 83
(0.2425156139 0.07555152821 -4.33680869e-19) 51
(0.2483481523 0.0958125978 0) 172
(0.2890669708 0.1134617678 4.065758147e-20) 207
(0.3046537014 0.08422823053 -6.776263578e-20) 29
(0.2835905532 0.08524583081 2.168404345e-19) 57
(0.2863394869 0.08117771373 2.168404345e-19) 27
(0.2815512734 0.1206125402 4.33680869e-19) 266
(0.2766007289 0.07486119689 4.33680869e-19) 26
(0.2890697807 0.1018228951 2.168404345e-19) 147
(0.2756486887 0.08438872331 4.065758147e-19) 56
(0.263694654 0.1145112988 0) 234
(0.251507042 0.07026044805 -8.67361738e-19) 23
(0.2700474365 0.1379419501 -1.219727444e-19) 355
(0.2825937351 0.1138798901 0) 207
(0.2402493858 0.08552219982 2.710505431e-20) 111
(0.265383889 0.1046799283 0) 174
(0.2723790336 0.1152802991 -1.897353802e-19) 235
(0.3028109661 0.1264625004 2.168404345e-19) 269
(0.2323909212 0.06380062673 -1.524659305e-19) 20
(0.2650953587 0.09188683045 2.168404345e-19) 114
(0.2898094306 0.0811925114 4.33680869e-19) 28
(0.278577285 0.1206098354 0) 266
(0.2713105306 0.1120173551 1.084202172e-19) 205
(0.2684268624 0.07617033131 2.168404345e-19) 25
(0.2859386008 0.1040417634 3.659182332e-19) 147
(0.270039706 0.07841679116 0) 55
(0.2279721577 0.06156133682 -2.168404345e-19) 19
(0.2682784637 0.08933504128 4.33680869e-19) 115
(0.2600020878 0.0821067214 8.67361738e-19) 84
(0.2770016792 0.09755698822 -2.168404345e-19) 146
(0.2783175294 0.09889686598 -1.084202172e-19) 146
(0.2934512071 0.1126911438 -4.33680869e-19) 208
(0.2182013665 0.05950884991 0) 18
(0.289538981 0.1145387301 4.33680869e-19) 207
(0.2932663301 0.105714019 0) 148
(0.1782417065 0.06197505151 -5.421010862e-20) 73
(0.2881756695 0.1168066202 -2.168404345e-19) 237
(0.2607252609 0.07489620361 -1.626303259e-19) 24
(0.2330551496 0.146028639 -2.168404345e-19) 440
(0.2801405143 0.1110181567 -1.084202172e-19) 206
(0.2750974052 0.1153830675 0) 236
(0.2859603672 0.133816392 -4.33680869e-19) 327
(0.270314284 0.09978713865 2.168404345e-19) 145
(0.2338627101 0.07010377122 -4.33680869e-19) 50
(0.242935959 0.08296947541 -2.168404345e-19) 111
(0.2529249904 0.1105065928 0) 233
(0.297528361 0.09751056965 -1.084202172e-19) 119
(0.2641279543 0.1274965653 4.33680869e-19) 294
(0.2518950178 0.1113277011 -2.710505431e-20) 233
(0.2888230299 0.08050103393 2.168404345e-19) 27
(0.2805784153 0.1316173403 0) 326
(0.2581681884 0.0744809589 0) 23
(0.3028324178 0.1044471902 0) 149
(0.2613109026 0.1103423484 3.252606517e-19) 234
(0.247145317 0.08708414314 3.04931861e-20) 112
(0.2744266567 0.1044884388 0) 176
(0.2233836469 0.09849646537 3.252606517e-19) 199
(0.2744566686 0.08127222195 -4.33680869e-19) 56
(0.2588913327 0.07483318634 0) 23
(0.2609125387 0.09745596778 1.897353802e-19) 144
(0.1979788601 0.05645597651 0) 15
(0.2816626633 0.1302365822 2.168404345e-19) 296
(0.2864848582 0.08566769394 5.421010862e-20) 57
(0.2949453514 0.08347284592 1.084202172e-19) 28
(0.2644192856 0.07623962681 -1.084202172e-19) 24
(0.246979922 0.08345758604 2.168404345e-19) 82
(0.2884828563 0.08908020605 2.168404345e-19) 87
(0.2475546245 0.07150372843 0) 22
(0.2773994039 0.09766959561 5.421010862e-20) 146
(0.2802096936 0.0968312811 -2.168404345e-19) 116
(0.2550775627 0.08546999871 0) 83
(0.1652423074 0.0683294332 -2.168404345e-19) 101
(0.2723878399 0.0759668338 0) 25
(0.259409547 0.08736462644 1.897353802e-19) 114
(0.2633853349 0.08321958448 0) 84
(0.2632895561 0.08124112289 -5.421010862e-20) 54
(0.2158831082 0.06844952812 -2.710505431e-19) 48
(0.2997971714 0.1339686932 -1.626303259e-19) 299
(0.1683932118 0.06132762477 -2.710505431e-20) 72
(0.2204733669 0.1092561354 -1.084202172e-19) 258
(0.2388310197 0.06662695896 2.168404345e-19) 21
(0.3005462349 0.1098893666 5.421010862e-20) 179
(0.2395969023 0.09736125653 -1.084202172e-19) 171
(0.2410174272 0.09241839558 0) 141
(0.2770333974 0.1157246389 0) 236
(0.258871326 0.08445146672 0) 83
(0.2380316513 0.08611347251 -9.486769009e-20) 111
(0.2758989143 0.09390240198 -2.710505431e-20) 116
(0.2954278059 0.1172136852 -6.505213035e-19) 208
(0.2956700828 0.1317531667 4.33680869e-19) 298
(0.2363798133 0.07333554163 1.084202172e-19) 51
(0.2793113065 0.0872732905 0) 86
(0.2715502913 0.0834074596 1.084202172e-19) 55
(0.2510637185 0.09497584085 0) 142
(0.2690668402 0.1010057649 2.168404345e-19) 175
(0.2930374543 0.1133901807 1.626303259e-19) 208
(0.2856274031 0.09505353847 1.355252716e-19) 117
(0.2659402816 0.07296278058 -2.168404345e-19) 24
(0.2834543006 0.1147602414 -2.168404345e-19) 207
(0.2825454429 0.08279774722 -1.084202172e-19) 57
(0.2750450493 0.119857006 2.168404345e-19) 266
(0.2572351815 0.08553777317 -2.168404345e-19) 83
(0.2955409564 0.09758730362 -1.084202172e-19) 118
(0.2590553589 0.0902784143 0) 113
(0.2464890826 0.08374148687 -2.168404345e-19) 112
(0.2936306589 0.1054683677 1.355252716e-19) 148
(0.228670786 0.062023514 0) 20
(0.2565637147 0.0995663638 -1.084202172e-19) 173
(0.2707666911 0.08752953094 5.421010862e-20) 85
(0.2767892808 0.07591508138 4.33680869e-19) 26
(0.2637133187 0.08399171621 1.084202172e-19) 84
(0.1460816527 0.06274679018 -3.252606517e-19) 99
(0.2225314123 0.08176250646 1.084202172e-19) 109
(0.3034063882 0.1309020311 2.168404345e-19) 299
(0.2976881913 0.09325431565 -2.168404345e-19) 89
(0.2382116853 0.07575288491 0) 81
(0.1579183771 0.05492650799 0) 40
(0.2809894973 0.09697051429 2.168404345e-19) 116
(0.2903869866 0.1114131405 0) 208
(0.2530492222 0.1238979975 0) 293
(0.2960954932 0.1119912771 0) 178
(0.2758875703 0.101801646 1.084202172e-19) 146
(0.2997789837 0.09564312815 0) 89
(0.2727284953 0.08305126251 2.168404345e-19) 55
(0.2683074505 0.07873119714 0) 55
(0.2621672956 0.09574467724 -1.355252716e-19) 144
(0.1711128548 0.05002759435 1.084202172e-19) 12
(0.2616507094 0.07461831193 -2.168404345e-19) 24
(0.1991965898 0.08706867586 2.168404345e-19) 166
(0.1981962783 0.08738054112 2.168404345e-19) 166
(0.2462273176 0.1095103192 -3.252606517e-19) 232
(0.201693259 0.1068172667 -2.710505431e-20) 256
(0.2527130681 0.07909053786 4.33680869e-19) 53
(0.2421136359 0.08878753406 0) 141
(0.2877725142 0.1310869568 0) 297
(0.2243566623 0.06959316631 1.626303259e-19) 49
(0.2707220018 0.07465014489 0) 25
(0.2997999334 0.1238576148 2.168404345e-19) 239
(0.1903392449 0.05600351639 0) 14
(0.2105883307 0.05647885498 0) 17
(0.2844981232 0.09132309208 1.897353802e-19) 87
(0.2622393087 0.1064250909 0) 204
(0.2643396986 0.09843909077 -1.084202172e-19) 144
(0.2924759239 0.08619143962 1.219727444e-19) 58
(0.2866945828 0.08460119279 -5.421010862e-20) 57
(0.270351732 0.1244925034 -1.490777987e-19) 295
(0.2187867043 0.09412317894 2.168404345e-19) 168
(0.2948544407 0.09584548616 2.168404345e-19) 118
(0.2541918945 0.1436247454 2.168404345e-19) 413
(0.25826547 0.1018183619 -2.168404345e-19) 173
(0.3031257844 0.09792364382 0) 119
(0.273117139 0.08254495293 0) 55
(0.2540661917 0.085224296 2.168404345e-19) 83
(0.3013686597 0.1079237498 2.710505431e-20) 149
(0.2939720004 0.1304982732 -3.252606517e-19) 298
(0.2826427667 0.1098891998 2.168404345e-19) 207
(0.2157924483 0.06626660805 -5.421010862e-20) 48
(0.2993292761 0.1132417183 1.084202172e-19) 209
(0.2676261161 0.1377423934 2.168404345e-19) 355
(0.2807462401 0.1090710879 -8.67361738e-19) 206
(0.251811292 0.07269856015 2.168404345e-19) 23
(0.2867599712 0.08432497121 2.168404345e-19) 57
(0.2283393361 0.08617201061 -2.168404345e-19) 139
(0.2601657974 0.1101001792 -4.33680869e-19) 234
(0.2077833227 0.0690408103 0) 77
(0.2448223841 0.1241968701 0) 292
(0.3045876225 0.1424442729 0) 359
(0.2595853864 0.07677171497 1.084202172e-19) 54
(0.2917654508 0.1064030492 1.084202172e-19) 178
(0.3016335926 0.1055677522 -5.421010862e-20) 149
(0.220444422 0.07570106633 -2.168404345e-19) 78
(0.24213574 0.07028304207 0) 21
(0.2552453819 0.09180239277 1.185846126e-19) 143
(0.2614350408 0.08242510754 1.084202172e-19) 84
(0.2096333195 0.05974449156 -4.065758147e-20) 17
(0.257163727 0.08186954522 2.168404345e-19) 83
(0.2862454322 0.0918054932 -2.168404345e-19) 87
(0.2711738893 0.1116750809 5.421010862e-20) 205
(0.2321384416 0.06565475326 8.131516294e-20) 20
(0.2790525537 0.1064712506 1.084202172e-19) 176
(0.2717256914 0.07548222613 2.710505431e-20) 25
(0.2521104551 0.07312147579 1.355252716e-19) 23
(0.2696388812 0.0754529931 1.626303259e-19) 25
(0.304742103 0.0980046209 0) 89
(0.2975821752 0.09560304182 -2.168404345e-19) 89
(0.3011505431 0.08847406471 -3.794707604e-19) 59
(0.274515064 0.1064150636 0) 176
(0.2105046938 0.05959727811 1.084202172e-19) 17
(0.2912150273 0.08099485588 -4.065758147e-19) 28
(0.2952120111 0.1209032946 2.168404345e-19) 238
(0.2677953162 0.09006582053 2.710505431e-19) 115
(0.2586784776 0.06961908438 0) 23
(0.2430215856 0.1369188857 4.33680869e-19) 381
(0.2830825315 0.08637444936 -2.032879073e-19) 57
(0.2337618295 0.06957243791 2.168404345e-19) 50
(0.2694737653 0.1291071701 -2.168404345e-19) 295
(0.2717202611 0.1007795183 1.084202172e-19) 145
(0.2896666489 0.1221125598 -4.33680869e-19) 268
(0.3007990763 0.08519343999 2.168404345e-19) 29
(0.2307531727 0.07410011296 1.084202172e-19) 80
(0.2545216936 0.08088400377 0) 83
(0.3035086391 0.1007232915 4.33680869e-19) 119
(0.3020688362 0.09558927351 0) 89
(0.2557200597 0.09305411503 4.33680869e-19) 143
(0.2767743472 0.1260153361 0) 296
(0.2512967766 0.07208524203 -4.33680869e-19) 22
(0.2751018893 0.09215111033 -1.084202172e-19) 116
(0.2594379416 0.07772857669 2.168404345e-19) 54
(0.2625546818 0.1216591209 0) 264
(0.2967545351 0.09181276234 2.168404345e-19) 88
(0.2903961601 0.1345836222 5.421010862e-20) 328
(0.2794729732 0.07726473415 5.421010862e-20) 26
(0.2208088811 0.08280278421 0) 108
(0.2704784929 0.07759940545 2.168404345e-19) 25
(0.2851933355 0.09026745535 -5.421010862e-20) 87
(0.2511697154 0.06970136392 -1.084202172e-19) 22
(0.2746749079 0.0773216077 2.168404345e-19) 26
(0.2481308556 0.06654263333 0) 22
(0.3006199304 0.119760103 1.084202172e-19) 239
(0.2760677089 0.1019413807 0) 146
(0.2821187441 0.08623580661 2.168404345e-19) 57
(0.3000668027 0.1355651584 0) 329
(0.296515586 0.1129775123 0) 208
(0.2572331396 0.07002674891 -2.168404345e-19) 23
(0.242070829 0.09187740083 -2.168404345e-19) 141
(0.2810139105 0.1158753836 -2.168404345e-19) 236
(0.1750856364 0.05884317023 4.33680869e-19) 42
(0.1525685146 0.04682666984 -2.168404345e-19) 10
(0.2765104597 0.1000781782 0) 146
(0.2499755704 0.08148115961 -4.33680869e-19) 82
(0.2945858866 0.1224623186 2.168404345e-19) 238
(0.2739141183 0.07927170162 0) 55
(0.283079214 0.105553283 1.084202172e-19) 177
(0.2313585637 0.06963481921 0) 50
(0.1892199787 0.05675859791 0) 14
(0.281205471 0.08757376684 2.168404345e-19) 86
(0.2923091818 0.08527880454 3.252606517e-19) 58
(0.30181077 0.1026241917 -2.710505431e-19) 119
(0.3024910165 0.139287236 1.084202172e-19) 329
(0.2902798161 0.07832010474 -5.251604273e-20) 28
(0.2795665008 0.08516044085 -1.084202172e-19) 56
(0.2518873321 0.09868397554 0) 173
(0.2656643048 0.09204785933 -2.168404345e-19) 114
(0.2457987071 0.08224734167 -1.355252716e-19) 82
(0.2594048756 0.1402720707 -2.168404345e-19) 384
(0.2830984351 0.08305842784 0) 57
(0.2361968367 0.0725404468 0) 50
(0.2654078643 0.07166080174 0) 24
(0.2684475432 0.08434595357 0) 85
(0.2169482336 0.09753287339 1.355252716e-19) 198
(0.2977221519 0.131573269 2.168404345e-19) 299
(0.2729825708 0.08691576202 3.252606517e-19) 85
(0.2035410069 0.06741839341 4.33680869e-19) 76
(0.2545480239 0.08204212376 3.794707604e-19) 83
(0.2787310092 0.08050611492 0) 56
(0.1950986762 0.05722735948 0) 15
(0.2969057587 0.1303301884 -4.33680869e-19) 298
(0.2180809829 0.0786146019 0) 108
(0.2408436876 0.07081838408 0) 51
(0.2662330863 0.0720431477 0) 24
(0.2960287592 0.1141028283 0) 208
(0.251044374 0.1059636699 -2.168404345e-19) 202
(0.2404217486 0.06580377691 0) 21
(0.2520713074 0.1028883813 2.303929617e-19) 203
(0.2740428412 0.07462283269 2.168404345e-19) 25
(0.2090108079 0.05720721733 -5.421010862e-20) 17
(0.2979992177 0.09253896703 1.084202172e-19) 89
(0.2016721658 0.06887730057 5.421010862e-20) 76
(0.2560960785 0.1099943642 -4.33680869e-19) 233
(0.2566646436 0.08197697662 4.33680869e-19) 83
(0.213842698 0.09816941548 0) 198
(0.3033800252 0.1308797346 -2.168404345e-19) 299
(0.2517906999 0.07139833734 0) 23
(0.2669558759 0.09453417041 0) 145
(0.2975833188 0.08257772568 3.523657061e-19) 29
(0.3027433182 0.1365676046 0) 329
(0.2514736508 0.09667660715 -2.168404345e-19) 173
(0.3006213963 0.09592998302 0) 89
(0.2078765519 0.05865061063 1.084202172e-19) 17
(0.2924174229 0.0798372365 0) 28
(0.2947730545 0.09748430371 1.084202172e-19) 118
(0.2539801429 0.07867415258 2.168404345e-19) 53
(0.2570927646 0.1025259928 0) 173
(0.2038640485 0.0891705062 -2.168404345e-19) 166
(0.2629192157 0.1066674284 0) 204
(0.2539373846 0.07890337063 -1.084202172e-19) 53
(0.2435365024 0.1229780455 0) 291
(0.2759869742 0.08373049117 -3.252606517e-19) 56
(0.1911356317 0.073821484 0) 105
(0.2936093521 0.0926974644 2.710505431e-20) 88
(0.2786224032 0.08025581175 1.084202172e-19) 26
(0.1970702595 0.07511665326 0) 105
(0.2406107949 0.08956764675 2.168404345e-19) 141
(0.2945824886 0.09262295815 -1.76182853e-19) 88
(0.2278945985 0.09132569398 -4.33680869e-19) 169
(0.2748113114 0.0947397359 0) 116
(0.2840213305 0.1134320625 3.252606517e-19) 207
(0.2605126591 0.1274917139 -4.33680869e-19) 324
(0.2527933442 0.0865756528 1.626303259e-19) 113
(0.299160091 0.1450133529 -2.168404345e-19) 359
(0.2641131018 0.07228434762 -2.168404345e-19) 24
(0.2181298486 0.06286250673 1.084202172e-19) 18
(0.2539192606 0.1225522108 -2.168404345e-19) 293
(0.2356205579 0.07579464448 4.33680869e-19) 80
(0.2686981609 0.07914919217 -2.168404345e-19) 55
(0.3042166857 0.1528451529 0) 419
(0.1857899933 0.07664806202 -1.084202172e-19) 134
(0.2206538544 0.1067375967 2.168404345e-19) 228
(0.3032759006 0.08708954899 0) 59
(0.289846636 0.092990933 0) 88
(0.2763670224 0.09659350665 -4.33680869e-19) 116
(0.1567461079 0.06012465435 4.878909776e-19) 70
(0.2504499622 0.08272044303 4.33680869e-19) 82
(0.2905540776 0.08333974889 2.168404345e-19) 28
(0.2732570205 0.1001754859 0) 145
(0.2964278663 0.08129912125 0) 28
(0.2925971946 0.09571886865 -2.168404345e-19) 118
(0.2401477312 0.1034564095 -2.710505431e-19) 201
(0.2015863131 0.05690024924 1.355252716e-20) 16
(0.2188490319 0.06239588185 1.084202172e-19) 18
(0.2553474426 0.07036770677 1.084202172e-19) 23
(0.2824693213 0.1030617769 2.168404345e-19) 147
(0.2481138091 0.08761269249 0) 112
(0.2927748133 0.0974354329 -6.132518538e-19) 118
(0.2290802232 0.06170725541 -2.168404345e-19) 20
(0.2417421055 0.07983895563 1.084202172e-19) 81
(0.2848982866 0.1132954082 -2.168404345e-19) 207
(0.2566384376 0.08206574523 1.084202172e-19) 83
(0.2348134343 0.06743582571 4.33680869e-19) 20
(0.2527405677 0.1131303078 0) 233
(0.1935188717 0.06234276607 2.710505431e-19) 45
(0.2700653516 0.07286365027 -1.084202172e-19) 25
(0.2753649489 0.09817978969 1.084202172e-19) 146
(0.263124788 0.1002706792 0) 174
(0.2521806003 0.06880842152 0) 23
(0.2819490292 0.1080596684 0) 177
(0.2537030238 0.07960691226 2.168404345e-19) 83
(0.2832235777 0.1071249431 -2.168404345e-19) 177
(0.2327954331 0.07060662289 0) 50
(0.1976643939 0.05535245699 1.626303259e-19) 15
(0.2688642805 0.1225798166 -1.084202172e-19) 265
(0.2454078761 0.07624689492 2.168404345e-19) 52
(0.2542715689 0.08701501291 -2.168404345e-19) 113
(0.1403033383 0.04698106396 1.490777987e-19) 38
(0.2685314383 0.120482827 3.930232875e-19) 265
(0.259239072 0.07383874893 0) 24
(0.1814189155 0.07618315024 -5.421010862e-20) 133
(0.2425185926 0.0829260964 -4.33680869e-19) 111
(0.2894279442 0.08339511525 0) 57
(0.2913259345 0.1132925991 -2.168404345e-19) 208
(0.2259151855 0.0903185644 0) 139
(0.2677779038 0.07362570282 -3.252606517e-19) 25
(0.2809894452 0.1353916617 0) 326
(0.2170319481 0.07342277802 6.776263578e-21) 78
(0.1383023107 0.05671981161 -1.084202172e-19) 68
(0.2732864855 0.07751652691 -2.168404345e-19) 25
(0.2539569995 0.09850720557 -1.084202172e-19) 173
(0.2560780385 0.12874044 -5.421010862e-20) 323
(0.2768125861 0.08056564356 0) 56
(0.2912418353 0.1185763744 -5.421010862e-20) 238
(0.2778124116 0.07933496202 2.168404345e-19) 26
(0.3045382158 0.1000590074 2.168404345e-19) 119
(0.2877074672 0.08051650239 2.168404345e-19) 27
(0.2841035445 0.08660463451 0) 57
(0.2533440598 0.08250086067 -2.710505431e-20) 83
(0.2379720279 0.09888462734 1.084202172e-19) 171
(0.2801606248 0.089587578 0) 86
(0.2940461809 0.08528599966 -2.168404345e-19) 58
(0.2993117351 0.09497445152 -2.168404345e-19) 89
(0.2162496694 0.06720305608 2.710505431e-20) 48
(0.2888112315 0.1096994082 2.168404345e-19) 177
(0.2798616757 0.08893945933 -2.710505431e-20) 86
(0.1657308188 0.04622814141 1.084202172e-19) 11
(0.2578782218 0.1274253954 2.168404345e-19) 323
(0.2596525362 0.08207271198 -2.710505431e-19) 84
(0.2282251377 0.1383177725 -2.168404345e-19) 379
(0.2799822654 0.105410515 1.084202172e-19) 176
(0.2737181315 0.1055048002 0) 175
(0.230675685 0.1019851557 9.486769009e-20) 200
(0.2798253092 0.1192578313 2.168404345e-19) 236
(0.1791093366 0.07646045046 -2.710505431e-20) 133
(0.274727857 0.09181970904 -1.084202172e-19) 116
(0.2086043941 0.1097514726 -1.084202172e-19) 257
(0.2859277613 0.08288369128 -2.168404345e-19) 57
(0.2425929904 0.09171254967 0) 141
(0.253228275 0.1078952045 1.084202172e-19) 203
(0.2432935675 0.1294679793 0) 321
(0.2762246595 0.09693310718 -2.168404345e-19) 146
(0.2090342456 0.06402757099 -1.626303259e-19) 47
(0.2548433249 0.09720097014 2.168404345e-19) 143
(0.2618448438 0.09430228978 -3.252606517e-19) 144
(0.1735306291 0.05456674179 2.168404345e-19) 42
(0.2509999272 0.1241295379 0) 292
(0.2621083544 0.08354647635 -5.421010862e-20) 84
(0.2502896876 0.1329756741 1.084202172e-19) 352
(0.1989484311 0.07900189924 -5.421010862e-20) 136
(0.2682119046 0.0835524196 6.505213035e-19) 85
(0.2458888461 0.08233393309 1.084202172e-19) 82
(0.2453687177 0.07281436471 -1.694065895e-20) 52
(0.1963287789 0.07276650583 -4.33680869e-19) 105
(0.301372647 0.1024824383 1.355252716e-19) 119
(0.2818202227 0.09247249431 0) 116
(0.2529669028 0.07890796513 -2.710505431e-19) 53
(0.2978284501 0.09168982177 2.168404345e-19) 89
(0.1696666831 0.06370817167 0) 72
(0.24338614 0.08027189574 0) 81
(0.2353957031 0.06402672659 -2.168404345e-19) 20
(0.267948584 0.08547280205 -2.168404345e-19) 85
(0.2885217781 0.1513763129 4.33680869e-19) 417
(0.2904963088 0.08679119709 0) 58
(0.2767282805 0.1191263995 0) 236
(0.2753564049 0.1223036426 -1.084202172e-19) 266
(0.2883674957 0.1521110082 5.421010862e-20) 417
(0.175505229 0.05844265018 -6.505213035e-19) 43
(0.2378925574 0.06614827769 0) 21
(0.2382615276 0.1245580756 2.57498016e-19) 321
(0.2874683101 0.08504097058 -5.421010862e-20) 57
(0.2652799481 0.07232901875 0) 24
(0.3047797201 0.1139421949 -4.33680869e-19) 179
(0.268750743 0.08096058937 5.421010862e-20) 55
(0.2907718198 0.08768490399 2.168404345e-19) 58
(0.298105918 0.1144252419 1.084202172e-19) 209
(0.2518892791 0.09616600278 4.33680869e-19) 143
(0.2966024172 0.1197325969 -2.168404345e-19) 238
(0.2452042227 0.08524620786 1.084202172e-19) 112
(0.2704006879 0.07308642541 6.776263578e-20) 25
(0.280728473 0.08172857152 0) 56
(0.3035708348 0.102225052 -2.168404345e-19) 119
(0.2556592018 0.07205557998 2.710505431e-20) 23
(0.2830884369 0.1358490395 -1.084202172e-19) 327
(0.2236085393 0.06948639815 -1.626303259e-19) 49
(0.2405654119 0.06843549485 -1.626303259e-19) 21
(0.2963479473 0.08624980398 2.168404345e-19) 58
(0.2686602613 0.07587953879 -2.168404345e-19) 25
(0.2886866575 0.1128533552 -1.084202172e-19) 207
(0.2793327442 0.07918396785 2.168404345e-19) 26
(0.2366134547 0.1333742733 0) 351
(0.2326275958 0.07539281574 -2.168404345e-19) 80
(0.2671705495 0.1259363003 1.219727444e-19) 295
(0.2579206135 0.09030710975 4.33680869e-19) 113
(0.2684435861 0.07863262711 0) 55
(0.2380772811 0.0892170487 -5.421010862e-20) 141
(0.2376174253 0.09169828358 0) 141
(0.2573948491 0.1225966708 -1.084202172e-19) 293
(0.2923449561 0.1257157784 -1.897353802e-19) 268
(0.2369347472 0.07599097052 8.131516294e-20) 81
(0.2915374418 0.1659956235 0) 478
(0.2580287952 0.1316727474 2.168404345e-19) 323
(0.2152040583 0.1109775313 5.421010862e-20) 258
(0.1865961279 0.05677433273 -3.862470239e-19) 44
(0.2913852632 0.1057667773 -2.168404345e-19) 148
(0.3044848685 0.09643320158 0) 89
(0.2704595053 0.1235128014 0) 265
(0.2453434886 0.08860140991 1.626303259e-19) 112
(0.2677097045 0.08787124181 0) 85
(0.2427099962 0.07075047041 -2.168404345e-19) 21
(0.2993135235 0.1197400031 0) 239
(0.2912306604 0.1270353495 -4.065758147e-19) 268
(0.2589128012 0.0741410462 0) 23
(0.2938985517 0.09408370217 -2.168404345e-19) 88
(0.2523451456 0.09296237761 0) 143
(0.2312437801 0.07435183475 -1.084202172e-19) 80
(0.2412198178 0.0816677448 0) 81
(0.286165865 0.1323709877 -2.710505431e-19) 297
(0.1802840434 0.05582496561 -2.168404345e-19) 43
(0.2511415757 0.09029894298 -4.33680869e-19) 112
(0.2258511694 0.08466133919 4.33680869e-19) 139
(0.2555837026 0.09076625392 -8.131516294e-20) 113
(0.2484440615 0.06682050423 0) 22
(0.2984216072 0.09659680558 0) 119
(0.269947926 0.09986703656 -2.168404345e-19) 145
(0.3016264631 0.09785811665 0) 119
(0.2871880375 0.1409435335 -2.710505431e-20) 357
(0.300005108 0.09114891458 -2.168404345e-19) 59
(0.2686886082 0.09371270884 2.168404345e-19) 115
(0.2854668843 0.1572805001 1.897353802e-19) 447
(0.240084196 0.06681920589 1.084202172e-19) 21
(0.2624530639 0.08865281148 -1.626303259e-19) 114
(0.2530025672 0.1427496646 -5.421010862e-20) 383
(0.2976241181 0.1224174172 0) 239
(0.2297374561 0.06434624065 2.168404345e-19) 20
(0.2438671668 0.1164916628 1.084202172e-19) 262
(0.2430346305 0.08075977229 0) 81
(0.2801628054 0.1319065697 6.505213035e-19) 326
(0.2830569244 0.09541273472 -4.33680869e-19) 117
(0.2570996552 0.1310761583 2.168404345e-19) 323
(0.2395816619 0.0699630753 -2.168404345e-19) 21
(0.2919153262 0.09977752571 -3.252606517e-19) 118
(0.2563013252 0.1177746212 -6.776263578e-21) 263
(0.2634891388 0.0895845839 0) 114
(0.1926311863 0.06156692024 -5.421010862e-20) 45
(0.1914354711 0.0773277117 5.421010862e-20) 135
(0.1988827551 0.05535653998 2.168404345e-19) 16
(0.2901608757 0.1462717096 0) 388
(0.238559548 0.06791234707 0) 21
(0.2722206649 0.1048791725 0) 175
(0.2161437428 0.06051512387 0) 18
(0.1965080818 0.06516286036 0) 75
(0.2579340858 0.08068880325 -4.33680869e-19) 83
(0.2909816158 0.1577235698 1.084202172e-19) 448
(0.239960091 0.1063137834 -4.065758147e-20) 231
(0.2579859548 0.08490434822 -2.168404345e-19) 83
(0.2374715789 0.06528301 -5.421010862e-20) 21
(0.2471542421 0.07422524229 -5.421010862e-20) 52
(0.2504721457 0.07817684447 0) 52
(0.2810455041 0.1172342695 -1.084202172e-19) 236
(0.279756361 0.09235234913 -2.168404345e-19) 116
(0.2209700759 0.06716141511 -3.252606517e-19) 48
(0.273110455 0.1530559132 -2.168404345e-19) 445
(0.2614393179 0.1205936687 0) 264
(0.2271928669 0.1432085263 2.168404345e-19) 409
(0.2717795549 0.07499934189 -2.168404345e-19) 25
(0.2748835435 0.1612758305 0) 476
(0.299231643 0.1470259652 0) 389
(0.2822539565 0.1417160711 -2.168404345e-19) 357
(0.2648294931 0.1011830952 -3.252606517e-19) 174
(0.2900742208 0.1204843362 -2.168404345e-19) 238
(0.1888030734 0.08592169292 2.168404345e-19) 164
(0.2422734283 0.08037858733 2.168404345e-19) 81
(0.288735555 0.1130932375 -1.084202172e-19) 207
(0.3016124743 0.1038431053 -2.168404345e-19) 149
(0.2729629477 0.08959331766 0) 85
(0.2259070942 0.06673437654 0) 49
(0.2959110514 0.11897427 2.168404345e-19) 238
(0.2709598267 0.08335582799 -4.33680869e-19) 55
(0.2444724934 0.09535808912 2.710505431e-20) 172
(0.288441295 0.08057334879 4.33680869e-19) 27
(0.262270974 0.07912991164 0) 54
(0.2087637622 0.1095436774 0) 257
(0.2571321308 0.1039057221 0) 203
(0.2357211537 0.09913337657 -2.168404345e-19) 200
(0.2548929452 0.0857029422 -2.981555974e-19) 113
(0.3022409237 0.1016849041 0) 119
(0.3010101799 0.1596963823 -5.421010862e-20) 449
(0.3015008969 0.08844972895 1.084202172e-19) 59
(0.2827289542 0.08780549283 -1.897353802e-19) 87
(0.1881623345 0.06688804612 -1.084202172e-19) 74
(0.284845195 0.1167002831 1.084202172e-19) 237
(0.2972463417 0.0917236892 2.168404345e-19) 89
(0.2452255755 0.08536175838 0) 112
(0.2609010032 0.08325499489 2.168404345e-19) 84
(0.2489561365 0.09883305623 1.084202172e-19) 172
(0.2957842623 0.08761643852 -4.33680869e-19) 58
(0.2625271805 0.1188295483 2.710505431e-20) 264
(0.2261394937 0.1120918929 1.084202172e-19) 259
(0.279604822 0.08111936507 -2.168404345e-19) 56
(0.2367067298 0.07095766239 0) 51
(0.196082303 0.07083335363 0) 75
(0.1952816018 0.07475344652 0) 105
(0.2142748283 0.06400297208 0) 48
(0.2633019137 0.113507526 -4.065758147e-20) 234
(0.1784383473 0.05911335239 -3.252606517e-19) 43
(0.1804490378 0.04837613104 0) 13
(0.2356490686 0.06694466252 -4.33680869e-19) 20
(0.2727450104 0.1090556127 0) 205
(0.2710288079 0.1225687219 -1.084202172e-19) 265
(0.2286346582 0.07471197813 0) 80
(0.2198730778 0.06844242811 0) 48
(0.2639917109 0.1404941138 0) 384
(0.2898139762 0.08539584976 2.168404345e-19) 58
(0.2336659886 0.07537063294 4.33680869e-19) 80
(0.2846036455 0.08760724947 0) 87
(0.2909044357 0.1023517694 2.168404345e-19) 148
(0.2849471758 0.151257364 -6.776263578e-21) 417
(0.289479795 0.08019976428 -2.57498016e-19) 27
(0.2390939084 0.06740657026 1.084202172e-19) 21
(0.2247455947 0.06905081046 -5.421010862e-20) 49
(0.2428099166 0.07335029701 -1.626303259e-19) 51
(0.2305066342 0.07141724235 -2.168404345e-19) 50
(0.2298420423 0.1515973737 0) 470
(0.212615984 0.06628379844 2.168404345e-19) 47
(0.2661420477 0.09050579052 -1.084202172e-19) 114
(0.2560078438 0.0827789014 2.710505431e-20) 83
(0.2927529242 0.08005402109 -1.626303259e-19) 28
(0.250931937 0.1003784121 2.168404345e-19) 172
(0.281642136 0.09682639594 -2.168404345e-19) 116
(0.2362709172 0.06810456114 -2.168404345e-19) 21
(0.2317162335 0.1016545269 -1.626303259e-19) 200
(0.2551563817 0.0707065231 -3.388131789e-20) 23
(0.2996460206 0.1402024533 -1.084202172e-19) 329
(0.255446806 0.1373123069 -1.897353802e-19) 353
(0.207675195 0.05993089269 1.084202172e-19) 17
(0.2293688656 0.09312231783 1.084202172e-19) 170
(0.2955245847 0.1057738929 2.168404345e-19) 148
(0.2064381378 0.09195990332 2.710505431e-19) 167
(0.2582408894 0.08996968912 -2.168404345e-19) 113
(0.1740242712 0.07558841962 2.168404345e-19) 132
(0.2226308973 0.07264787526 2.168404345e-19) 79
(0.2251606947 0.06662452189 2.168404345e-19) 49
(0.2830361847 0.0917454389 0) 87
(0.2726914874 0.1165117722 2.168404345e-19) 235
(0.2685930159 0.09295618976 -1.084202172e-19) 115
(0.2412469717 0.07500971573 2.168404345e-19) 51
(0.2621494076 0.1146206954 4.33680869e-19) 234
(0.300572513 0.1607023941 1.355252716e-19) 449
(0.2715909083 0.08522175743 -2.168404345e-19) 85
(0.1796742132 0.07767774541 5.421010862e-19) 133
(0.2447566821 0.06765744771 0) 22
(0.2818422536 0.1063272066 -1.084202172e-19) 176
(0.288594568 0.1254090358 -2.168404345e-19) 267
(0.2261862119 0.1017069728 -3.252606517e-19) 199
(0.2422804139 0.07465720694 0) 51
(0.2329625214 0.09434074308 -2.168404345e-19) 170
(0.203015816 0.06665776867 4.33680869e-19) 46
(0.209926035 0.06257348139 0) 47
(0.248418589 0.08575231619 -2.168404345e-19) 112
(0.2698147147 0.1260971489 0) 295
(0.2397532687 0.07568508769 0) 51
(0.1383476133 0.05520340494 0) 68
(0.1900077714 0.05948568689 1.084202172e-19) 44
(0.2744289599 0.08708618716 0) 86
(0.281627604 0.08764390551 2.168404345e-19) 86
(0.2340235438 0.1020312032 1.084202172e-19) 200
(0.2973710423 0.1298283661 1.084202172e-19) 299
(0.2837109668 0.1068800651 2.710505431e-19) 177
(0.2851280922 0.09919295213 5.421010862e-20) 147
(0.2476318356 0.1267477359 3.235665859e-19) 322
(0.2874769965 0.1338573519 0) 327
(0.295434119 0.08340286782 -4.33680869e-19) 28
(0.2763347231 0.08826723598 -1.355252716e-19) 86
(0.2829684424 0.1428565516 -1.084202172e-19) 357
(0.2115967855 0.07089808299 -1.084202172e-19) 77
(0.2215846355 0.06906200246 -2.168404345e-19) 49
(0.2362991179 0.0749435065 0) 51
(0.2042684584 0.08222049844 -2.846030703e-19) 136
(0.2009189696 0.08262652429 -1.084202172e-19) 136
(0.2317258713 0.08081985642 -1.084202172e-19) 110
(0.2984834595 0.1217332991 -1.626303259e-19) 239
(0.1962395093 0.05510342358 2.168404345e-19) 15