/*--------------------------------*- C++ -*----------------------------------*\
| =========                 |                                                 |
| \\      /  F ield         | OpenFOAM: The Open Source CFD Toolbox           |
|  \\    /   O peration     | Version:  2406                                  |
|   \\  /    A nd           | Website:  www.openfoam.com                      |
|    \\/     M anipulation  |                                                 |
\*---------------------------------------------------------------------------*/
FoamFile
{
    version     2.0;
    format      ascii;
    arch        "LSB;label=32;scalar=64";
    class       vectorField;
    location    "0.007/lagrangian/dsmc";
    object      U;
}
// * * * * * * * * * * * * * * * * * * * * * * * * * * * * * * * * * * * * * //


9334
(
(601.3462948 750.2296296 408.7727303)
(531.8160281 -680.9879832 481.3735418)
(744.699521 392.4893493 -791.093401)
(98.87063932 166.530087 -538.2987855)
(627.5270203 451.7595836 -176.585761)
(527.4198412 265.4144654 29.40530162)
(1632.982227 -255.6761561 -29.76023288)
(-522.1315022 820.4501955 9.623348768)
(272.4568376 643.0003475 -12.37166225)
(526.2845198 -204.5326338 837.205999)
(462.4168925 -549.9048944 -346.9409839)
(-36.52466787 339.8931278 -472.6022036)
(983.3971265 -347.2332249 681.4004385)
(493.9620171 354.2873243 499.410661)
(-50.82667181 326.8639202 190.9170133)
(270.1787281 -428.2489565 -273.4805277)
(-83.29518832 688.1498228 -452.1625019)
(1143.747935 622.5237805 820.2139335)
(775.6718334 -631.3238737 -322.6178036)
(120.9520111 614.74901 299.5239734)
(1672.501576 463.2625791 278.4894532)
(228.8336535 278.3054412 52.28317844)
(39.27837098 273.1541214 -308.3465307)
(522.9303451 575.8940617 -18.14815208)
(991.7102898 316.982899 -23.53389886)
(500.903448 424.956597 668.6399051)
(76.28433846 565.8408886 -497.8751628)
(391.8487144 131.0551396 78.68338845)
(63.61621131 402.7158511 -246.994289)
(114.2777758 -22.28514472 356.862168)
(1241.412973 93.98428555 521.7086342)
(-469.8869808 138.2451933 -202.6722108)
(964.8100333 285.6615346 60.8039026)
(-4.863398802 -262.5382738 -51.91716797)
(1028.573684 -676.3616796 174.7858535)
(395.9125411 527.2042684 444.4665151)
(412.6968778 273.6692127 58.19448155)
(-367.3489808 -573.8997008 -147.8767402)
(2140.330214 67.2610891 559.7514452)
(-12.89388176 709.6346707 -455.0787123)
(715.5056172 167.7371685 777.3834231)
(759.6597522 833.3407214 81.069844)
(1243.704973 240.0193859 -246.6812547)
(1360.601848 -91.33219262 -318.4080091)
(-103.4796566 202.9395236 -1022.860906)
(-225.0252135 1162.428504 220.9437508)
(567.1891251 -548.0065973 -11.77593652)
(506.9708055 393.3596408 -120.6484061)
(-29.79426783 839.8942895 -865.4531987)
(377.4232099 712.1532257 -313.2161969)
(500.2506181 -295.1506443 -573.1246133)
(-324.4500329 -495.5338505 130.621259)
(1145.552012 50.42192806 -373.1101086)
(662.0404154 466.216691 -818.4508451)
(368.2831753 521.4598773 -152.9528954)
(484.6374955 1650.774662 -444.6035027)
(1253.300642 -611.8708975 95.69267121)
(2155.958661 1509.066837 505.4462958)
(1125.470731 234.2881052 -420.276015)
(905.0559255 -607.4476139 307.8839618)
(497.2983108 -569.4670546 396.8628426)
(-164.03155 457.2442407 -225.3658844)
(358.0626357 166.139699 691.3618706)
(611.3082125 57.78177276 -260.4398137)
(1334.396413 461.8180314 -391.1567521)
(1361.801014 -277.896721 -1017.55246)
(984.6756331 673.0915896 -70.4790021)
(1030.491044 574.8177597 206.3257289)
(-447.108307 -101.2866559 -186.3491262)
(844.9489428 27.37551603 -3.288366932)
(568.1065055 583.547704 -219.2236451)
(1042.232017 368.8585437 365.7038002)
(399.772484 213.761484 262.139828)
(212.4667984 599.9536676 162.3828968)
(421.5135878 822.1238985 424.2690443)
(443.750537 -42.57297481 -208.3101203)
(653.6570017 608.2644281 -382.4901029)
(-647.3462286 -614.4679973 -182.6969117)
(1419.784499 133.5341689 138.9328467)
(895.9909876 250.7463758 125.9626854)
(891.9547665 699.9766735 -287.2271511)
(222.636866 219.0132705 -840.3737617)
(1785.3127 80.35071703 -383.5038598)
(538.9979847 -105.9263078 527.4796019)
(-311.4075525 -314.5045152 437.7356824)
(1560.10364 -181.293093 218.5339241)
(-499.3715312 -52.72506233 497.0603789)
(1053.347627 1294.51196 184.021731)
(1079.256186 486.9227847 -128.2100226)
(448.9929216 245.1765834 -513.9076998)
(706.232799 -1182.777773 427.8147661)
(775.7041886 363.289295 -11.62651706)
(5.191240871 580.7580839 350.4243627)
(675.3648815 -9.033882943 -21.68440592)
(889.1579003 18.7168677 190.7409875)
(716.8418004 87.76100617 -298.2069042)
(-232.5285576 -40.34619798 -10.2328357)
(1393.278561 320.1642166 20.46915429)
(367.5619314 -175.8250474 274.5146156)
(594.446483 -200.6740205 33.06239486)
(304.0051321 -393.7517958 301.687965)
(788.5865691 226.6573199 172.4632812)
(763.8162163 -471.2449545 115.1250799)
(1142.299807 -422.7123046 -160.9171206)
(1682.697807 406.2788923 189.3593332)
(772.8650888 -373.5982121 -106.3888858)
(-5.502287725 325.6078707 -131.0057742)
(590.469215 226.2862997 459.5145647)
(414.8417268 355.6801048 906.7383774)
(1107.04461 328.4137479 127.2920855)
(932.403062 568.6052009 354.4477649)
(157.7971202 828.1271507 -148.2605462)
(462.1001882 131.3583683 -722.103831)
(733.2271171 -961.7214442 60.59843659)
(1049.641914 374.2505703 608.0070347)
(955.8517702 1115.12148 -77.27800559)
(-522.0557875 -220.3714801 558.9137699)
(673.2521136 -107.681511 -201.4672718)
(818.4379242 202.4297692 51.14559499)
(465.8802672 436.8272859 -511.1701793)
(356.7050717 427.4770992 357.2158769)
(602.6724521 224.3059167 410.6331464)
(741.6938165 -349.4751568 272.473097)
(408.7336819 -359.0081311 213.2991625)
(848.951498 97.18762258 166.4559606)
(392.3358188 473.8549227 216.5675634)
(959.8399597 678.9904016 -71.00462535)
(221.0092656 477.3603701 -48.36419247)
(517.5822907 -199.920241 -903.5783258)
(639.5810761 -405.1858087 844.564938)
(-168.3571599 358.184674 -594.8961519)
(428.6217409 293.3637006 421.5320962)
(643.7328694 36.96955691 -80.88237877)
(731.652864 -10.37746213 631.2792941)
(403.3690302 335.4695118 321.799537)
(761.1010582 258.9621279 347.1119119)
(268.0611744 -208.0593182 199.3758465)
(436.02174 396.8312908 545.2339663)
(566.0144448 512.5646448 16.39404706)
(585.7477864 642.01904 -588.9446628)
(525.84244 116.0919046 271.8539858)
(605.616656 328.9130161 476.7037144)
(671.8217513 -53.24934834 496.8667279)
(682.190303 1118.873041 -518.7007122)
(72.19092554 41.18246518 449.8184905)
(1270.696818 419.0275562 -439.2138079)
(49.23252501 730.5463942 56.61902421)
(843.3070622 994.2825492 -55.73924546)
(1002.667289 111.4389448 37.32654631)
(392.383347 -150.1467197 -327.923475)
(149.813373 199.887112 -566.7501845)
(956.5135584 -38.73543509 -486.2981777)
(-476.7962222 -874.7559614 78.72607432)
(753.6198039 -262.5838454 571.7820975)
(383.4519107 632.6971659 -263.568477)
(715.1716169 1059.534919 384.5282727)
(1385.010894 747.3945314 376.1976664)
(617.5633993 461.3935164 -627.6696576)
(758.02443 360.8342302 -195.8682837)
(496.0591198 -261.1439658 -104.9708855)
(1573.073459 653.54215 23.92231669)
(-165.0653852 466.1756777 -455.0455584)
(-109.4044161 -381.950661 -198.8700663)
(1311.382548 -44.81585618 719.0096587)
(-75.50657824 -421.4222235 -333.8156503)
(-387.5351637 564.1755493 -30.71325549)
(-19.42421974 -841.3508906 85.29138376)
(618.63472 691.31009 -253.3068095)
(706.7107549 -16.2384063 -3.391926006)
(981.923644 -1006.449399 -1009.391822)
(129.9280637 26.70655054 452.0396873)
(392.6032789 747.3185019 -761.6847927)
(1043.182981 599.9214256 36.99670115)
(536.7053215 168.5842653 784.4450741)
(253.0725009 644.9081771 -866.2955232)
(451.0825473 25.85959514 527.9241161)
(19.46875055 -172.5212545 -339.1694406)
(473.0782729 -133.124527 -149.8039399)
(578.2848511 32.46421248 -183.8157015)
(80.27535165 -476.6618015 83.33079826)
(-121.5797204 715.170183 1026.190193)
(641.1463384 -27.94030421 712.8646379)
(-457.9196575 904.5385826 602.2364722)
(282.4349937 578.218487 -267.7014983)
(1009.838974 591.0057439 64.67377876)
(1301.011319 818.3711684 416.5773382)
(1076.840512 152.962345 918.3008995)
(176.2003101 356.2328038 -382.3694025)
(867.0808582 678.4312283 -40.51091332)
(472.0694598 206.6735174 384.4662857)
(-149.7845012 480.1913403 -550.6764549)
(558.9441306 186.8813679 243.4492511)
(999.909808 453.0562671 558.2479485)
(267.8343909 -28.98349556 844.9479908)
(786.2068248 259.0044415 384.0301877)
(-127.0744743 582.8481513 124.9180506)
(1371.572229 245.9747902 -318.3476602)
(890.4565562 -136.0360017 -437.9730781)
(438.6743359 1281.603406 187.9164065)
(-142.0074934 39.37286777 54.45771768)
(99.24829112 363.9544426 809.1434077)
(1093.436205 347.4135932 -198.5463196)
(-164.0196845 573.3498362 86.53485848)
(1535.750072 1107.335669 376.2815809)
(-494.7317293 174.2113463 -233.6000573)
(682.0550088 -41.93894142 658.7655471)
(110.4501907 -388.8751252 -791.5569623)
(-402.7548181 -108.6970437 127.9319253)
(536.3718467 -528.0255472 275.1438996)
(1348.153283 290.3191501 -63.27416153)
(1509.843676 195.2670493 -323.75877)
(3.934296678 847.4951294 -225.7452626)
(530.2714937 178.1345431 -572.1221168)
(481.5200991 -541.7424744 196.9365674)
(326.2816922 -803.94802 245.2736307)
(2128.729374 872.5510596 152.3787396)
(948.3117945 -284.8495614 299.5355513)
(109.993332 -127.3611142 -526.8368136)
(235.3034824 895.9649717 146.9651133)
(-145.666675 708.9863828 -18.37215568)
(87.35283137 451.8298051 -129.7977591)
(384.2864766 870.0275691 487.1131781)
(246.585396 731.9497104 -52.9190193)
(748.9414968 514.743137 -274.4917769)
(89.49773058 708.2796428 93.08949024)
(154.255425 -203.2984568 567.6198273)
(65.49934622 -262.2026699 -331.7304399)
(863.083719 -158.2324785 202.8523093)
(677.6220695 670.4728171 31.26059576)
(-362.7589808 519.1560211 298.7490636)
(414.5486549 849.0858195 -203.2767196)
(-443.524892 -816.9506013 70.00945829)
(-413.5072648 432.6040399 189.4750732)
(331.2537021 548.2598161 -290.8083804)
(533.4316289 248.115531 90.62234311)
(852.4115244 -483.9691917 228.5441587)
(-45.79793435 668.3813407 -149.3890831)
(325.3811927 -442.7652723 -428.2184214)
(1545.639192 278.2613121 820.5990932)
(-371.8313547 -309.6475508 505.9278811)
(465.2064504 -348.8648475 316.9564192)
(-188.3222909 -127.4820402 993.4921257)
(-583.8411926 87.86505022 254.2265404)
(-93.69174893 -513.6159616 -143.5161572)
(530.8333139 420.7289456 -46.05340079)
(1112.46249 677.8667574 636.5347625)
(1197.451782 915.3222893 70.80128502)
(750.5132773 1002.783552 575.5428328)
(1517.746278 326.1989179 567.3583088)
(123.4806531 -100.2274024 345.9018703)
(-312.0941146 781.6536916 -441.2417596)
(1213.680949 348.4263808 7.884728088)
(1219.127457 -85.73450485 -788.9875135)
(-6.892628695 351.1657372 -667.8499153)
(467.939922 -18.90596121 -708.689178)
(-925.5022531 -382.5617805 -712.6164672)
(1160.675311 256.8576433 -334.3348666)
(-931.2527314 1000.467628 143.6936791)
(1208.014439 437.4705387 -47.09749195)
(1.789119708 464.6454652 378.1152138)
(-294.4315046 643.6815618 147.1119303)
(-10.87642355 745.450426 -163.5393337)
(1130.950329 -871.9679567 283.7418488)
(1173.857835 -936.5174312 126.7877153)
(721.4301036 700.4789198 -161.5982216)
(-17.87314857 587.1365377 456.5420106)
(877.7890023 87.83985632 -858.8070673)
(1345.335671 -146.3547839 513.8182748)
(738.2297488 298.136988 -344.4958721)
(624.1872789 420.6138453 -509.2636005)
(1167.88595 501.8207462 61.19354972)
(-1.902200727 -126.7423862 -818.5055549)
(-1204.358424 469.6887148 -9.440308671)
(504.9238029 249.1192504 71.54653467)
(658.8628735 -471.9338816 -815.8846572)
(854.5627833 294.4133363 -211.5060578)
(743.190975 444.8098256 -41.28214125)
(494.526334 285.9135503 -703.4241653)
(380.3891248 -75.887453 -141.7654386)
(1845.573659 226.2589423 -178.094303)
(1105.097075 -211.0262365 200.1553785)
(237.9146746 140.7574375 176.5862897)
(1005.016733 1302.028106 -204.2784886)
(-483.7270526 78.94035725 327.7504737)
(-294.8139979 207.0499943 -273.056442)
(15.43099095 -91.56367116 -306.6065469)
(1137.905453 22.4843293 801.6737917)
(1549.656602 -199.4329617 23.1811029)
(18.46582665 524.0429334 126.9113453)
(402.2727154 551.0105242 357.3275755)
(-626.7354517 281.585651 -218.334391)
(190.5521353 270.97253 8.225648185)
(-327.8357589 766.704825 233.4801954)
(542.3829621 384.226184 -291.0440934)
(1261.441617 -707.2152243 -1412.48388)
(285.8245271 712.42886 -31.60807321)
(386.360868 338.6411217 -141.1647516)
(1409.046189 -216.5273517 -577.5222132)
(-341.7368346 -108.2172258 378.7316243)
(969.4182749 248.129999 -580.6716847)
(643.9500103 -87.27821714 1244.898638)
(1863.751545 -163.3726107 -619.5067846)
(855.9889856 1580.520871 386.2720774)
(651.0340154 -263.2469328 441.3497904)
(447.5270393 -208.9160511 53.29000525)
(829.1797623 -418.0471936 -181.8879095)
(4.385538409 327.9305836 200.1319902)
(393.2693996 21.20038775 -198.5502936)
(517.5282633 574.27134 454.168749)
(359.8388341 868.9954127 -654.3656721)
(-261.376258 -320.7357378 587.5832595)
(1216.651446 426.4901243 1039.745267)
(1143.776917 692.3492625 -251.8989389)
(1120.039924 -521.6384671 366.2233159)
(389.8034184 116.6371536 362.4759638)
(1533.907353 39.47506199 130.5362633)
(-103.3101982 -344.6614995 864.5059349)
(604.8949739 -207.4075777 427.7968045)
(-233.6277794 74.95408527 202.9893513)
(219.8935618 442.345133 -137.0838417)
(-104.8518158 340.6671043 206.1532229)
(499.2221595 660.1012057 986.9875043)
(768.1476608 863.722635 114.9292004)
(1506.715932 319.7048206 282.0268794)
(224.8836371 -382.4799196 727.5364626)
(179.8684679 614.9688952 -61.48174821)
(-356.5625187 176.3093662 77.21416068)
(133.1946829 167.7396476 -594.1618576)
(151.9595012 500.0210413 113.1399908)
(183.7275864 264.6496227 -76.0241714)
(588.5639517 308.4628045 169.7962243)
(1336.540482 503.033482 -283.3148736)
(627.9834944 -17.97458073 -856.5814033)
(785.0136051 158.6986794 -203.5550949)
(1439.730119 97.12184189 604.0154524)
(-217.7173149 122.9427726 406.9590574)
(625.1844931 151.2870598 248.9441693)
(758.9533501 327.3488419 3.899193003)
(527.9269827 -380.7744622 186.7795619)
(110.6887094 416.993224 -194.3033673)
(779.7731045 -279.129252 -21.88861185)
(559.9391229 -1138.927163 -880.3121881)
(1529.08145 -382.6517321 995.578787)
(1406.018231 -566.442365 -481.6547388)
(-446.6134891 114.1362958 -238.5294979)
(10.29491971 189.5056069 551.8842275)
(906.8882991 -631.3400279 -466.2619602)
(612.9912191 498.6805103 -272.9513838)
(372.4048505 746.2884324 -189.6848922)
(1281.956069 700.377946 232.6990604)
(-20.86525417 217.5049689 -709.847956)
(1328.919784 -237.5642072 479.1659121)
(1382.53081 371.12317 221.6713383)
(-121.6024531 323.3013403 -626.0081339)
(-566.111885 249.952274 138.763562)
(708.8973438 232.693945 309.5989844)
(351.775545 -722.4794605 -1129.126936)
(-0.4044253106 -564.9846995 -184.1450186)
(269.1781971 -525.9307884 -958.1593321)
(543.1784874 221.0139701 87.12109565)
(-357.4060546 463.674721 -19.66634674)
(1931.382933 222.7936189 -939.1137303)
(964.8977283 303.5349509 368.7648905)
(899.6514159 -3.261157085 267.455775)
(143.2701362 -303.448754 -929.1422117)
(345.8851575 332.4788619 632.1025024)
(1064.2646 493.0405177 817.5385185)
(924.0647842 612.9603058 146.767332)
(-33.89708126 808.8716763 334.2285852)
(-70.16175867 641.4758706 7.006467548)
(2171.607986 1102.727551 591.7993351)
(-624.0230039 -96.45871429 -287.1936344)
(470.9468495 74.87135191 782.719533)
(456.7848972 192.3803382 428.3136884)
(135.0458313 -494.0606917 493.2879988)
(364.1865003 780.7581202 -33.29630258)
(1328.778834 726.5626995 -1205.003565)
(811.8427608 -132.4889279 29.7049145)
(384.5579386 63.57593252 583.4927747)
(45.74243718 -59.52527271 682.4752119)
(-229.5113687 696.5736821 49.95169926)
(234.5757389 30.32690098 246.5582037)
(519.5010887 -460.9329121 235.0625678)
(1203.503351 449.1677975 -258.6350768)
(614.9225737 61.38335359 348.0633937)
(-310.2767205 535.6246266 17.77911417)
(914.4781385 57.63829775 804.2530109)
(956.9374334 456.0775583 -155.4411189)
(-261.8641964 -752.8633079 -683.6077613)
(1803.555566 -213.1522027 325.9344106)
(692.6584283 441.4416633 -250.9056657)
(256.1693117 868.0113464 217.5462478)
(488.4008111 858.139172 134.3565989)
(1579.898669 728.3173191 643.8755996)
(486.8594101 -529.2460846 -290.5647563)
(-158.846317 400.6805225 197.3009661)
(1090.801518 -928.057761 985.166786)
(544.9848185 535.9730866 -56.34129065)
(678.8434574 -832.3122175 -506.3821598)
(388.9705718 508.8572813 163.3393109)
(353.799173 562.5649783 1003.825384)
(1100.916984 778.6059127 537.7685763)
(180.35296 221.5390941 790.4790241)
(1170.043521 499.6688919 -173.6056134)
(662.9680184 651.6146957 -390.8635574)
(1704.539999 1520.708828 -4.736066351)
(697.934567 617.838387 -232.3216903)
(664.7783957 470.1928472 129.8929422)
(2161.378812 179.188954 -34.8903313)
(479.3174096 -81.22211419 57.0709374)
(578.3138959 203.6390847 449.5416279)
(1264.134292 345.6869625 -835.6626944)
(760.4424465 17.97008266 529.6234164)
(541.1215773 47.85647273 -527.8209043)
(47.01205985 311.8003966 -325.0480796)
(715.2617901 326.9781905 920.9343715)
(2104.610639 -212.0483045 -894.9590758)
(547.8990707 488.6676923 816.2472937)
(196.1612967 1181.580613 352.8078401)
(578.9331692 421.5434798 -56.32857712)
(1261.195619 401.8980713 -418.5809586)
(784.7205089 -267.3963818 486.3701751)
(73.14009595 -161.4862324 -349.2108515)
(122.5276233 -76.81588862 -172.4082904)
(-23.2069373 501.5106079 774.5336866)
(-385.4747639 521.6194278 -88.11497801)
(955.4224601 -21.03058014 -61.10491342)
(405.1732803 -183.9323726 -590.845447)
(-271.6938396 320.1388497 -195.2931571)
(-478.2451452 182.3184904 268.3765431)
(869.2284913 -241.8885898 -811.905649)
(52.00431267 -137.8435268 508.4398474)
(-898.3726327 370.7454371 -546.5363494)
(-63.40101661 368.3799601 60.72231138)
(1405.426825 660.3253434 405.74408)
(584.2252577 -397.4980115 236.0053878)
(740.0784313 602.5072766 172.38174)
(1450.187531 1134.358245 241.2542327)
(1872.600655 1355.844443 -71.24563715)
(79.00900954 306.3849749 191.8426621)
(-405.004549 -181.1201342 -98.05459678)
(972.4139792 682.5719295 -287.5975772)
(-76.94143671 440.257374 297.5861955)
(-433.8589613 262.147599 50.62292546)
(799.3073666 509.0935616 -102.8066445)
(12.46093065 897.6695637 -222.2854382)
(1245.356604 311.1484249 -654.6721643)
(1849.064419 -87.46529921 -649.5308148)
(268.1036498 1006.638348 344.9418775)
(736.4111863 1092.761922 689.9210141)
(1051.192412 -260.6621692 692.5181784)
(-65.87554526 -279.3063283 -294.0531004)
(35.12940055 314.5110776 650.8845461)
(708.4843505 1179.735734 522.7831849)
(273.2351242 -429.219258 541.5636879)
(853.4654751 273.4485445 1290.53869)
(930.6473618 254.1521161 -566.1305806)
(12.0249361 379.4342513 306.8561189)
(-169.7941085 76.29978308 171.2139419)
(-194.7480619 -152.2520137 -101.334549)
(1622.747494 7.220295465 -53.27448028)
(259.2582048 542.7435548 -80.87266428)
(853.8412864 904.9334643 -301.8691793)
(301.7544418 229.6582603 -144.7184777)
(539.3106038 376.199716 1382.134946)
(1149.116743 752.5615996 40.90968921)
(-446.6784146 135.3735499 73.77982902)
(126.2792769 161.7071348 -284.4641312)
(97.45569893 359.1411505 -158.12065)
(960.6866299 -102.5649957 -27.64108724)
(505.4123272 -528.5039884 537.37468)
(1237.512584 -371.8677381 -387.8113941)
(1043.36035 -612.4444166 416.9360847)
(164.2684606 1069.53637 -1367.394557)
(826.4276699 622.7095293 -1388.442823)
(494.4583418 621.3045133 94.12422244)
(1223.725723 223.4008283 -54.10574842)
(268.887081 654.2773172 -46.25363825)
(658.7106644 781.8874456 -971.6215341)
(932.7189614 632.9737458 1443.285384)
(122.7513332 -467.4488603 287.0637076)
(763.2048629 371.6529573 -503.1578933)
(-119.5777351 465.7081913 244.1081294)
(328.8274051 535.4671686 222.1934164)
(370.9703912 985.5927757 107.4554591)
(402.4441473 365.5160633 -73.65668549)
(1646.574202 279.9921389 -179.9469901)
(360.7638279 532.7808405 200.7279547)
(265.428262 -460.7302237 94.11674912)
(1139.657792 1245.141122 59.27538073)
(-620.1693204 482.1828786 -175.6001243)
(125.8667641 -149.7578712 -297.6795007)
(782.6818795 867.1827116 376.5560901)
(-108.1032401 548.0206044 -339.3786789)
(598.0957964 390.2490958 -141.3668656)
(310.5558887 16.28750719 73.42096752)
(-89.70663204 9.062395137 247.8276526)
(432.8875865 75.45526119 -427.1681053)
(628.2863664 524.4933956 304.0404444)
(745.3870192 155.4736188 1356.712933)
(165.9429642 223.8954438 454.2086101)
(1358.491691 1162.157648 312.1060781)
(1028.338643 247.156151 263.8725993)
(986.8300403 170.8501934 -555.4851824)
(1648.949112 -95.00470321 -736.3888473)
(869.4289225 4.76324329 145.3788073)
(584.9429272 231.0034995 -218.1821925)
(1178.401671 504.5807309 685.3374999)
(348.7759496 -104.6581077 -421.3478479)
(1464.876079 518.4185872 -818.2280806)
(799.4506846 353.2053312 -160.0264137)
(513.5860731 1062.097112 571.9956432)
(254.4762928 154.8097819 -142.5702407)
(1051.912874 524.9786923 -23.01976933)
(490.1384914 -317.6745734 29.05782963)
(1018.859264 -631.3418013 707.0690938)
(715.4002783 482.017962 -36.01012125)
(130.5768334 692.0639581 -560.6716335)
(303.5943144 623.8876482 248.0636934)
(1069.077546 -319.9244041 960.0352037)
(479.6792381 387.8810664 118.3691852)
(931.0852432 837.8515221 269.8428161)
(692.1970975 28.06389991 -625.7419401)
(847.6880622 540.9849585 -221.9930847)
(1568.131296 275.4347664 -164.0069096)
(1172.028434 62.26083294 267.7718936)
(473.9074081 -103.7593643 -891.3506943)
(-220.3495249 232.1884869 773.2390008)
(182.4239321 -457.5585674 315.1495724)
(793.3892137 -354.769495 -581.7970979)
(106.6357268 -358.7089558 -423.0364362)
(1214.270143 1622.213733 23.40362398)
(698.6758481 678.764235 -763.9113762)
(375.4086966 1024.492488 -573.6380303)
(1052.888111 729.5390836 675.9060022)
(218.3778108 240.2648819 -894.4991075)
(705.9170574 1544.233958 351.2820655)
(581.0499588 309.4762445 627.440421)
(1810.812726 159.6047496 161.9358748)
(819.6018052 1011.392924 -20.84557961)
(1368.702027 353.8870523 629.8615356)
(-230.3165647 296.1093994 347.2745233)
(1453.197907 -361.3986043 297.4614909)
(-127.4818252 422.0484946 -4.137528947)
(683.9883751 218.5590174 903.3586348)
(1278.281458 1357.508782 8.632796636)
(1589.187307 -68.24522828 447.4673295)
(239.5723004 395.2021175 14.48840789)
(423.4142431 -328.5390066 -198.6393607)
(311.1854619 652.1247888 -756.5302316)
(598.2772694 131.5758694 469.9530913)
(377.5356672 323.3317323 -1148.05779)
(-244.1122254 717.6204126 -18.31786818)
(-898.4353209 457.5394757 493.8444806)
(785.707449 1245.211564 -187.06281)
(1492.504672 632.9782507 -653.6446288)
(1484.125953 579.4868077 206.7348664)
(746.1525362 -110.0303602 -91.51249895)
(437.8313384 236.9360461 -274.2193535)
(1306.418402 690.3258413 317.7222313)
(505.6559732 -216.6798032 399.463253)
(890.9235407 547.8456625 757.9488732)
(-42.25509468 502.0634194 165.2742778)
(681.8739497 339.3109557 316.9452186)
(274.1416747 467.3134002 112.9383132)
(944.6523431 -29.4231843 -114.4988784)
(561.3647962 605.8322381 96.50978623)
(768.9865341 370.7744488 165.1378912)
(619.6780621 467.0314539 -357.8596905)
(661.918139 72.86350074 -188.0032747)
(2024.871902 12.94034617 -61.57807857)
(70.89942369 -88.44795299 117.1903688)
(1289.269225 376.996453 -357.8555463)
(1234.54728 171.4154819 -649.9741038)
(791.8152409 284.6360853 -346.883091)
(-302.9766167 584.0352209 144.675804)
(420.9610933 -90.71982042 272.1778316)
(701.8003433 1057.026781 654.5320547)
(902.007739 4.043649552 683.3902465)
(392.9055236 59.50943055 -301.3341043)
(173.2654369 648.3761868 162.4482372)
(995.7581441 733.1738775 -201.0910902)
(104.0265725 975.1714835 174.0213781)
(625.8647624 383.6272819 593.7025489)
(343.9621346 1042.967878 219.4410031)
(724.1419741 356.3695646 -423.0922231)
(871.6213914 -389.4058594 17.25470333)
(232.3624971 120.6504067 -3.575779498)
(588.3423405 1020.397485 -506.3421108)
(1066.774775 1401.056371 768.9773033)
(-156.6886365 280.5474354 -62.07782198)
(-161.2280783 356.4913184 1002.674325)
(318.6007156 -330.6253417 -175.7489454)
(198.7234803 200.8294385 -609.9930883)
(-313.569457 294.5291795 -99.36620581)
(1567.913636 485.651386 -375.4725967)
(850.7435512 212.6995426 361.5288956)
(-273.9139736 745.7481754 908.1821094)
(253.5382484 -5.336398207 755.7692147)
(1367.075154 -616.8593338 -254.2039697)
(266.8085377 -222.0447569 312.6691235)
(755.1487533 91.4983377 -363.2539814)
(-232.4262031 140.8284966 730.0575429)
(412.5554249 1045.832438 363.2395203)
(-567.9576554 329.009315 129.6878368)
(1124.189905 -386.4978693 -521.0011327)
(1128.376414 595.8840878 155.5554476)
(693.6072621 -550.6811509 159.4444346)
(292.3528807 -768.695683 372.2914149)
(863.1559768 -327.9078801 -476.2678376)
(44.68787874 325.1165822 357.6747918)
(489.8053533 -59.15703731 -271.1361461)
(-212.3797441 446.4407584 482.1889741)
(1197.151959 398.3596284 866.4339091)
(205.037756 705.7636392 122.5000379)
(1324.868744 -964.2761885 -11.10759804)
(125.0002461 967.2079655 -271.3306849)
(516.912499 795.9179999 -689.4608125)
(1103.589657 308.196332 455.5469508)
(1043.769851 557.3053435 -260.716003)
(-22.51353913 210.990614 -804.8732111)
(429.2526136 808.896574 -407.5202193)
(1406.020944 -687.6436836 758.8697833)
(1084.38091 -555.3370846 -756.661302)
(570.256161 -181.1822121 -326.8558763)
(765.5631188 168.7110845 1.386163878)
(786.5740271 -220.916051 -63.22704662)
(619.8818619 -199.8933736 842.825218)
(1195.648581 238.316228 223.5904671)
(818.2586743 509.4512616 83.65042885)
(893.8906714 386.7524244 725.8056472)
(636.1767347 166.1694427 -239.1113364)
(-59.71040089 214.8480264 549.5858369)
(530.8920031 480.6757212 652.4602056)
(686.5422228 1057.36999 -62.42337366)
(105.985761 21.41824553 610.9154477)
(1011.371562 568.518744 -750.6349999)
(724.0309008 -580.4445956 -222.6368133)
(1223.59207 -426.8576721 529.5867096)
(774.9721279 244.6311664 -129.0713379)
(739.2679795 175.957733 481.3382248)
(67.65105887 569.0457627 -85.46880111)
(1407.100804 1036.431148 -557.6953207)
(673.276484 -331.6834259 -93.93390594)
(-197.8908212 98.56089563 -325.287006)
(105.5739418 307.4415772 88.13484757)
(736.9446113 -193.7888585 -24.84965952)
(680.7309591 187.5816963 -954.6961062)
(1041.150963 648.2761776 -365.7400881)
(914.3838473 129.1928363 -391.2435032)
(-176.1282576 166.0594571 -717.7566196)
(250.4665869 152.5297161 248.4316228)
(-84.63884243 520.1658079 -236.5384009)
(812.6589595 201.1517964 -764.776707)
(-971.8249649 73.13281241 49.94469697)
(236.476857 57.72521009 91.43118504)
(174.2652992 605.239863 636.4997268)
(821.9060809 133.503197 -146.1065419)
(663.785773 -730.6615175 99.94420128)
(-111.1692691 1014.147295 -1152.903976)
(1313.869004 166.5177778 -168.2549897)
(-223.0119703 324.0561827 -465.9937242)
(540.1017361 639.5162332 -364.260391)
(4.437249496 314.7811521 -717.5121598)
(-252.1248534 830.7017329 150.2155238)
(501.2909987 21.94278821 -318.1072855)
(1373.25475 256.29671 316.0024428)
(585.2093624 705.4315439 -368.7237326)
(-211.4309813 77.24760524 -270.8541629)
(898.0771499 681.0429104 -469.7994342)
(978.1455824 764.1147093 -422.7106483)
(327.1870181 418.7278357 365.208449)
(654.048156 42.90304616 317.8853834)
(940.5732167 -515.200169 -272.696365)
(629.1488364 -689.437936 -731.2184298)
(51.16965076 -187.625495 518.071015)
(230.5979226 334.3342293 -209.0023373)
(273.7267871 807.7703324 -679.2006548)
(861.7795016 333.5386992 100.9368352)
(1615.232579 -226.8732109 -26.05331144)
(-331.0876036 151.85297 17.72100015)
(-495.9679787 699.3994791 -253.0558259)
(-166.5042704 -288.9615525 361.258562)
(998.8573067 -1.076757091 892.7948186)
(220.583354 290.4483326 -360.6222909)
(1121.258596 1054.695733 313.5943764)
(1015.183865 209.7618482 -516.5070909)
(750.4490969 -283.5800469 -311.0429505)
(1031.063274 437.6882785 -79.94115271)
(978.3299106 408.6247226 -175.1777514)
(256.4422335 43.72691976 284.3087902)
(1268.190867 93.99742024 -375.1162047)
(639.7317505 1014.268947 -161.4828226)
(698.519299 420.4654556 -514.7052998)
(2002.214669 -35.88902829 478.6357132)
(227.3633352 30.83214211 -170.3343883)
(1130.402792 4.730886986 536.7776511)
(-201.1391867 702.3210154 240.111131)
(1810.252387 845.6365342 -1083.918001)
(499.6440095 1195.505516 134.9658367)
(143.0414003 332.7672449 -236.9798566)
(268.8902815 83.54954969 -472.1481432)
(832.254697 516.1531302 -147.2895125)
(260.5618846 903.6329828 238.4626384)
(64.997246 341.4047587 -524.6539368)
(1465.254343 -52.71540334 -300.855228)
(308.0550395 185.1292138 246.0748157)
(781.2731482 32.12743477 471.0369347)
(694.3594276 456.8663523 494.4033161)
(650.8154073 877.8252919 -807.5605311)
(1023.815682 309.6061139 -534.4171129)
(-537.1456062 1216.868588 -239.7110836)
(-35.43883749 -69.76982928 -338.7967836)
(793.0544611 -677.5327082 243.7768326)
(1041.576557 -724.4291836 -50.40301833)
(1363.706953 420.161748 -203.6688718)
(1029.814169 512.6667529 -51.65180958)
(134.911111 55.93890413 135.9216588)
(389.0753163 25.42105534 -130.6867034)
(1176.826762 169.0153349 -173.6259194)
(830.1284503 455.5005894 9.501038026)
(464.6056863 888.0264489 -574.0959502)
(-143.784601 -92.43819722 -638.8767959)
(1943.088562 -474.4873047 320.4090477)
(1958.355316 300.4272596 132.3423167)
(902.7160262 498.2200526 -747.4942062)
(-214.5129449 275.4461846 -338.9736683)
(450.4655657 976.2428267 -481.7089536)
(-394.5127685 417.4915822 -475.2780441)
(981.8211499 -101.5764711 -165.5882885)
(540.0453381 519.9207798 68.76644087)
(-833.9969935 1123.209507 -28.30053337)
(969.7392709 344.6466505 -604.5113971)
(-29.83835591 -203.986296 248.0151321)
(905.0882106 366.7955474 -303.5773162)
(1118.898032 -510.5434289 853.2666583)
(-183.5254925 -107.7799849 137.7086505)
(-257.1884197 367.5840189 -802.704915)
(340.9680791 565.5629914 1515.330787)
(1470.155555 27.19702646 504.4359603)
(574.951788 119.3437541 -479.8256056)
(1282.711672 1040.170697 -551.4964374)
(781.22603 553.1685691 -212.6485333)
(639.6405633 -13.28368172 -74.46521992)
(1332.624493 -503.5646661 -121.1824542)
(1321.416282 633.0626158 -69.22833948)
(1366.309842 255.0149778 440.7380735)
(-41.9234468 395.751636 -139.7993004)
(352.7182934 756.4001843 -638.8404961)
(533.6350918 -6.149371225 -23.14303171)
(1679.854666 521.6169034 0.2368956729)
(-88.45367438 -226.1734291 -152.454104)
(372.6806864 327.3885649 -136.1494581)
(1487.864326 29.17367059 -254.2783737)
(28.82657966 755.5080885 704.8948349)