/*--------------------------------*- C++ -*----------------------------------*\
| =========                 |                                                 |
| \\      /  F ield         | OpenFOAM: The Open Source CFD Toolbox           |
|  \\    /   O peration     | Version:  2406                                  |
|   \\  /    A nd           | Website:  www.openfoam.com                      |
|    \\/     M anipulation  |                                                 |
\*---------------------------------------------------------------------------*/
FoamFile
{
    version     2.0;
    format      ascii;
    arch        "LSB;label=32;scalar=64";
    class       volScalarField;
    location    "0.012";
    object      dsmcRhoNMean;
}
// * * * * * * * * * * * * * * * * * * * * * * * * * * * * * * * * * * * * * //

dimensions      [0 -3 0 0 0 0 0];

internalField   nonuniform List<scalar> 
546
(
27.24666667
27.0645
26.61783333
26.5635
26.05866667
25.70333333
25.968
25.591
25.54733333
25.05083333
24.64716667
24.6765
24.282
24.39083333
24.30466667
23.5455
22.645
22.98216667
22.6585
22.12983333
21.76016667
21.8725
21.30583333
20.8205
20.034
19.31333333
18.34116667
17.56366667
16.01116667
13.25016667
24.59316667
24.32183333
23.91216667
23.8955
23.6175
23.66416667
23.42166667
23.20416667
22.94783333
22.56333333
22.57583333
22.61133333
22.45733333
22.23066667
22.00583333
21.543
21.136
21.18883333
20.81783333
20.35416667
20.1595
19.89216667
19.73883333
19.11416667
18.53533333
18.037
17.09433333
15.9965
14.535
12.2055
23.00216667
22.95833333
22.76966667
22.69116667
22.385
22.16883333
22.10183333
21.80533333
21.954
21.5635
21.53133333
21.486
21.194
20.96233333
20.73766667
20.22916667
20.24466667
20.13966667
19.63333333
19.34133333
18.94483333
18.76366667
18.9835
18.0495
17.519
16.925
16.33783333
15.44716667
14.18966667
12.30083333
21.50716667
21.68716667
22.04183333
21.93116667
21.876
21.69783333
21.73016667
21.42516667
21.193
21.02533333
20.872
20.62966667
20.58466667
20.35233333
19.9545
19.819
19.61166667
19.383
19.192
18.857
18.50116667
18.333
17.98133333
17.6245
17.18833333
16.67883333
16.01483333
15.0025
14.2
12.90116667
20.20033333
20.43966667
20.96783333
21.39183333
21.47766667
21.229
21.203
21.05683333
21.034
20.7515
20.48916667
20.54933333
20.4575
20.18066667
19.90783333
19.6445
19.23683333
19.08483333
18.888
18.60133333
18.25483333
17.92583333
17.56666667
17.26766667
16.828
16.45633333
16.09166667
15.0005
14.12966667
12.87133333
18.78033333
19.4075
19.97533333
20.28566667
20.44083333
20.50366667
20.6645
20.74966667
20.74816667
20.622
20.61066667
20.36816667
20.0035
19.9665
19.6805
19.50983333
19.13166667
19.147
18.94966667
18.59266667
18.25683333
17.76566667
17.475
17.2405
16.85633333
16.38016667
15.72983333
15.13383333
14.3775
13.19316667
16.99833333
17.86833333
18.47766667
18.982
19.6055
19.857
20.02433333
20.22933333
20.18933333
20.30566667
20.29783333
20.3
20.13066667
19.8535
19.71283333
19.47483333
19.19616667
19.1175
18.81483333
18.56366667
18.35366667
18.00116667
17.53483333
17.19683333
16.995
16.33716667
15.8665
15.24783333
14.48283333
13.61916667
15.36383333
16.2095
16.99033333
17.7535
18.21266667
18.7785
19.31016667
19.644
19.70783333
19.90083333
20.00566667
20.093
19.8715
19.81783333
19.7765
19.6755
19.54183333
19.16066667
18.87833333
18.73566667
18.549
18.1225
17.782
17.36366667
17.036
16.60866667
16.20833333
15.48483333
14.94233333
14.152
14.01333333
14.73066667
15.4835
16.24633333
16.92466667
17.51066667
18.15133333
18.53833333
18.88333333
19.12816667
19.38066667
19.743
19.83133333
19.757
19.5955
19.634
19.45966667
19.29983333
19.08983333
18.8805
18.5835
18.308
17.96583333
17.59316667
17.21866667
16.9555
16.42333333
15.81716667
15.17116667
14.51533333
12.63733333
13.2175
13.8945
14.64133333
15.5175
16.105
16.77983333
17.42383333
17.95066667
18.388
18.80266667
19.18633333
19.22066667
19.37283333
19.46633333
19.44733333
19.37933333
19.37833333
18.983
18.8535
18.768
18.5615
18.28166667
17.8335
17.56783333
17.18083333
16.649
16.14766667
15.46816667
14.74116667
11.7955
12.3205
12.85783333
13.49766667
14.09016667
14.78083333
15.50083333
16.16433333
16.897
17.517
17.95616667
18.33383333
18.72433333
19.05516667
19.15283333
19.14733333
19.24383333
19.25566667
19.1525
18.96116667
18.86133333
18.63166667
18.34183333
18.1685
17.60066667
17.2795
16.9275
16.52283333
15.99916667
15.271
11.07666667
11.5395
11.943
12.44383333
13.04233333
13.65616667
14.27283333
14.94783333
15.64466667
16.23433333
16.85616667
17.36933333
17.85066667
18.326
18.59283333
18.78416667
18.86233333
18.96633333
19.08333333
18.94466667
18.82983333
18.68916667
18.43416667
18.208
17.9015
17.55733333
17.16883333
16.701
16.3455
15.91383333
10.47833333
10.74666667
11.18066667
11.50916667
11.91266667
12.44833333
13.05033333
13.55433333
14.18166667
14.8005
15.40333333
16.23433333
16.90366667
17.42116667
17.88183333
18.1305
18.39166667
18.67
18.7455
18.81383333
18.68316667
18.771
18.57283333
18.42816667
18.11666667
17.8585
17.5295
17.15433333
16.6485
16.11433333
9.977666667
10.18316667
10.41933333
10.85133333
11.22983333
11.6245
12.058
12.56333333
13.1285
13.80416667
14.46133333
14.93316667
15.50366667
16.2065
16.76366667
17.25483333
17.73766667
18.0855
18.30833333
18.50533333
18.563
18.4695
18.59333333
18.48433333
18.25016667
18.04816667
17.89433333
17.44866667
16.93166667
16.36633333
9.762333333
9.923166667
10.099
10.2195
10.57566667
10.90066667
11.2365
11.646
12.16733333
12.6735
13.26116667
13.8185
14.48716667
15.094
15.72366667
16.34233333
16.81966667
17.18783333
17.67633333
18.0265
18.25833333
18.501
18.53616667
18.49566667
18.373
18.1
18.02033333
17.76416667
17.30383333
16.767
9.5115
9.542333333
9.692
9.8
9.9675
10.20533333
10.57116667
10.9295
11.30716667
11.668
12.1625
12.75883333
13.26966667
13.944
14.582
15.18033333
15.73983333
16.23066667
16.63466667
17.11833333
17.49583333
17.7885
17.9755
18.13183333
18.19016667
18.098
17.89783333
17.70666667
17.45916667
9.418333333
9.411
9.440166667
9.5985
9.674166667
9.881666667
10.06933333
10.326
10.58716667
10.98016667
11.35883333
11.73266667
12.18966667
12.62483333
13.27033333
13.8765
14.61416667
15.3215
15.98966667
16.246
16.76183333
17.30083333
17.56616667
17.81883333
17.80583333
9.244
9.286166667
9.336333333
9.377
9.444166667
9.506333333
9.579666667
9.733
9.978
10.2615
10.499
10.85966667
11.25433333
11.7775
12.321
12.86433333
13.395
13.98716667
14.54916667
9.180333333
9.180833333
9.182666667
9.204
9.230166667
9.309833333
9.437166667
9.494333333
9.634833333
9.7515
10.09983333
10.33633333
10.62633333
10.94766667
9.08
9.077666667
9.063
9.039
9.097833333
9.067166667
9.121333333
9.203666667
9.034833333
)
;

boundaryField
{
    flow
    {
        type            calculated;
        value           nonuniform List<scalar> 
15
(
13.25016667
12.2055
12.30083333
12.90116667
12.87133333
13.19316667
13.61916667
14.152
14.51533333
14.74116667
15.271
15.91383333
16.11433333
16.36633333
16.767
)
;
    }
    obstacle
    {
        type            calculated;
        value           nonuniform List<scalar> 
30
(
27.24666667
27.0645
26.61783333
26.5635
26.05866667
25.70333333
25.968
25.591
25.54733333
25.05083333
24.64716667
24.6765
24.282
24.39083333
24.30466667
23.5455
22.645
22.98216667
22.6585
22.12983333
21.76016667
21.8725
21.30583333
20.8205
20.034
19.31333333
18.34116667
17.56366667
16.01116667
13.25016667
)
;
    }
    frontAndBack
    {
        type            empty;
    }
    procBoundary1to0
    {
        type            processor;
        value           nonuniform List<scalar> 
21
(
27.502
24.4445
22.927
21.377
19.7115
17.851
16.193
14.61583333
13.27783333
12.0515
11.3345
10.754
10.28683333
9.905666667
9.589166667
9.4635
9.384333333
9.224666667
9.201166667
9.103166667
9.155
)
;
    }
    procBoundary1to3
    {
        type            processor;
        value           nonuniform List<scalar> 
36
(
17.1135
17.812
17.93316667
17.76416667
17.1135
17.533
15.177
15.70983333
16.31116667
16.73933333
17.151
17.812
17.54166667
11.358
11.92283333
12.35766667
12.91833333
15.177
13.52833333
9.301666667
9.430666667
9.481666667
9.713333333
9.928333333
11.358
10.21483333
9.033
8.998333333
8.955
8.983
9.011166667
8.993666667
9.301666667
9.038333333
9.033
9.046833333
)
;
    }
}


// ************************************************************************* //
