/*--------------------------------*- C++ -*----------------------------------*\
| =========                 |                                                 |
| \\      /  F ield         | OpenFOAM: The Open Source CFD Toolbox           |
|  \\    /   O peration     | Version:  2406                                  |
|   \\  /    A nd           | Website:  www.openfoam.com                      |
|    \\/     M anipulation  |                                                 |
\*---------------------------------------------------------------------------*/
FoamFile
{
    version     2.0;
    format      ascii;
    arch        "LSB;label=32;scalar=64";
    class       volScalarField;
    location    "0.012";
    object      dsmcSigmaTcRMax;
}
// * * * * * * * * * * * * * * * * * * * * * * * * * * * * * * * * * * * * * //

dimensions      [0 3 -1 0 0 0 0];

internalField   nonuniform List<scalar> 
546
(
8.923705598e-16
8.694954387e-16
8.69907857e-16
8.675052169e-16
9.090373661e-16
8.694017718e-16
8.711357901e-16
9.040511319e-16
9.103820647e-16
8.522840267e-16
8.6136956e-16
8.919834911e-16
8.862332587e-16
8.297707216e-16
8.9963911e-16
8.575550077e-16
8.525204679e-16
8.380980671e-16
8.53214718e-16
8.993105536e-16
8.929461441e-16
8.758080906e-16
8.993734936e-16
8.775648242e-16
8.408681077e-16
8.520406946e-16
8.178409736e-16
8.455648935e-16
8.236872525e-16
8.47652801e-16
8.810476263e-16
8.710947734e-16
9.017231607e-16
8.847446614e-16
9.201673474e-16
8.691964899e-16
8.949216749e-16
8.703982853e-16
8.870292414e-16
8.791976136e-16
8.978588353e-16
8.605209979e-16
8.718784131e-16
9.39492112e-16
8.882556467e-16
8.536820477e-16
8.785320991e-16
9.003521608e-16
8.644710519e-16
8.80277852e-16
8.532494333e-16
8.609353969e-16
8.223662686e-16
8.971484183e-16
8.484247327e-16
8.460711868e-16
8.16663652e-16
8.181681405e-16
8.315965199e-16
7.981653486e-16
8.969227752e-16
8.800857809e-16
9.557350156e-16
8.919386604e-16
8.673063792e-16
8.856114435e-16
8.879130044e-16
9.195298302e-16
9.152232031e-16
8.522106939e-16
9.152744549e-16
8.771631714e-16
9.00127621e-16
8.43170837e-16
8.638174022e-16
9.528494011e-16
8.521753959e-16
8.949886319e-16
8.646036218e-16
8.288932752e-16
9.016080689e-16
8.960449653e-16
8.770404641e-16
8.693647643e-16
8.371505554e-16
8.770900596e-16
8.315810341e-16
8.558780009e-16
8.093575123e-16
8.038169428e-16
8.832673113e-16
9.007098158e-16
8.766887428e-16
8.711249869e-16
9.218517618e-16
8.999787222e-16
8.891388793e-16
8.767044812e-16
8.615784103e-16
9.043598206e-16
8.732982416e-16
8.477460413e-16
8.550315742e-16
8.914152019e-16
8.528753787e-16
9.010037876e-16
9.083332514e-16
8.292480475e-16
8.364669175e-16
8.936650407e-16
8.579658847e-16
8.591014135e-16
8.689303407e-16
8.629514406e-16
8.823547252e-16
9.015681504e-16
8.216245879e-16
8.354710246e-16
8.045489454e-16
8.466337357e-16
9.38730981e-16
8.728732961e-16
8.682219913e-16
8.932193119e-16
8.721581665e-16
8.678826941e-16
9.190038718e-16
8.951586329e-16
8.396713459e-16
8.628966258e-16
8.887166845e-16
8.458667937e-16
9.12142075e-16
8.562465891e-16
9.746973825e-16
8.739242283e-16
8.817677479e-16
9.455115988e-16
9.042062841e-16
9.07175732e-16
9.048149322e-16
8.786183051e-16
8.652005127e-16
8.543205221e-16
8.668012029e-16
9.016023559e-16
8.278915209e-16
8.226794728e-16
8.349764657e-16
7.758930906e-16
8.912783478e-16
8.566716111e-16
8.919309635e-16
8.97822285e-16
8.760873289e-16
8.884431652e-16
8.687308081e-16
8.560267845e-16
8.925465201e-16
8.969567486e-16
8.625225153e-16
8.307762925e-16
9.126689138e-16
8.809339585e-16
9.417609195e-16
8.522158365e-16
8.741980953e-16
8.746142107e-16
8.817403177e-16
8.66307674e-16
9.18474334e-16
8.524211778e-16
8.5925252e-16
8.3720888e-16
8.47741527e-16
8.421952315e-16
8.571506473e-16
8.206028784e-16
7.941406258e-16
8.064400602e-16
8.823362653e-16
8.713557228e-16
8.672829389e-16
8.67338268e-16
8.725009907e-16
8.607546083e-16
8.876004155e-16
8.747764851e-16
8.538788715e-16
9.041220008e-16
8.602061571e-16
8.567849992e-16
8.52339521e-16
8.806286929e-16
8.581090252e-16
9.036212813e-16
8.933592332e-16
8.50845719e-16
8.711434598e-16
8.909666058e-16
8.412415569e-16
8.900818446e-16
8.394375924e-16
8.612433594e-16
8.884322559e-16
8.603914702e-16
8.362054318e-16
8.580100654e-16
8.629389866e-16
7.936715251e-16
9.174333777e-16
8.540857128e-16
8.56484224e-16
9.186612149e-16
9.045207823e-16
8.513035842e-16
9.377969468e-16
8.470637872e-16
8.452312934e-16
9.162058912e-16
8.805227817e-16
8.693275937e-16
8.73150637e-16
8.312787213e-16
8.296366025e-16
8.913155547e-16
8.456494513e-16
8.465302887e-16
8.690517471e-16
8.551664253e-16
8.33636635e-16
9.139512733e-16
8.346779235e-16
8.386532705e-16
8.196104988e-16
8.491539559e-16
8.760972705e-16
8.494809046e-16
8.256216214e-16
7.91093814e-16
8.651429247e-16
8.345380392e-16
8.618153414e-16
9.213773323e-16
8.520398049e-16
8.747909076e-16
8.214307582e-16
8.543939449e-16
8.57948673e-16
8.673751019e-16
8.271105055e-16
8.688713148e-16
8.472649742e-16
9.410189378e-16
8.376292274e-16
8.514473024e-16
8.598998721e-16
8.445622788e-16
8.789984187e-16
8.447776694e-16
8.500262241e-16
8.608888127e-16
8.443704453e-16
8.320421381e-16
8.536880336e-16
8.595086183e-16
8.659939366e-16
8.056841471e-16
8.288697255e-16
8.405998735e-16
8.121631546e-16
8.57460449e-16
8.285758861e-16
8.512795711e-16
8.228496651e-16
8.616133971e-16
8.283853094e-16
8.77881876e-16
8.390837843e-16
8.463125865e-16
8.601041661e-16
8.934736941e-16
8.993199373e-16
8.296794438e-16
8.99991334e-16
8.439391829e-16
9.003287693e-16
8.666162947e-16
8.618691583e-16
8.904908409e-16
8.484552272e-16
8.229418795e-16
8.549024441e-16
9.00023708e-16
8.254365541e-16
8.412712587e-16
8.524439365e-16
8.295457003e-16
8.324987649e-16
8.3023498e-16
8.694473823e-16
8.496108306e-16
8.521287876e-16
8.115006762e-16
9.07517276e-16
8.113184531e-16
8.465746241e-16
8.125390772e-16
8.611656156e-16
8.879881674e-16
8.257556599e-16
8.929178533e-16
8.506900662e-16
8.601146304e-16
8.261769505e-16
8.699497658e-16
8.801417831e-16
8.726244761e-16
8.442101153e-16
8.369626001e-16
8.739932508e-16
8.405277199e-16
8.504271285e-16
8.588963728e-16
8.207636898e-16
8.77959226e-16
8.17097942e-16
8.243898434e-16
8.115271439e-16
8.109484752e-16
8.037174383e-16
8.017091759e-16
8.159520759e-16
8.790748473e-16
8.423973016e-16
8.370199595e-16
8.40116558e-16
8.085731391e-16
8.591449829e-16
8.58700141e-16
8.186059388e-16
8.616423595e-16
8.425149635e-16
8.166314121e-16
8.310815468e-16
9.162565733e-16
8.305318634e-16
8.57775334e-16
8.334982085e-16
8.547177957e-16
8.75497428e-16
8.386110045e-16
8.655708508e-16
8.327721374e-16
8.44596412e-16
8.363925668e-16
8.821807962e-16
8.166006802e-16
8.608881321e-16
8.338194362e-16
7.905916423e-16
8.476529733e-16
8.054615412e-16
8.241982797e-16
8.212647611e-16
8.143804079e-16
8.146588537e-16
7.914429447e-16
8.201198505e-16
8.524356202e-16
8.525619467e-16
8.286850565e-16
8.105247168e-16
8.594676974e-16
8.43147891e-16
8.8435659e-16
8.44751288e-16
8.611715229e-16
8.732722692e-16
8.516826859e-16
8.573312025e-16
8.686611822e-16
8.503926914e-16
8.332936578e-16
8.31331889e-16
8.308598001e-16
8.381506577e-16
8.178476814e-16
8.121845688e-16
8.268594704e-16
7.918230202e-16
8.117806132e-16
7.920607954e-16
8.201792783e-16
8.505907055e-16
8.115283998e-16
8.257356876e-16
7.842167125e-16
8.778808701e-16
7.932450986e-16
8.122874647e-16
8.197648417e-16
8.345578031e-16
9.082270056e-16
8.372810913e-16
8.740894621e-16
8.457681228e-16
8.873566507e-16
8.777176301e-16
8.321033067e-16
8.050943555e-16
8.492386334e-16
8.883572264e-16
8.441118383e-16
8.341117767e-16
8.172308267e-16
8.249079902e-16
8.598965839e-16
8.271525627e-16
8.04620013e-16
8.333555169e-16
8.222959586e-16
8.253023749e-16
7.93387036e-16
8.641706571e-16
8.228392727e-16
7.869813371e-16
7.901712375e-16
8.264269399e-16
8.265936576e-16
7.716601772e-16
8.245505585e-16
8.632052164e-16
7.92511229e-16
8.188021881e-16
8.041931065e-16
8.917997802e-16
8.797540021e-16
7.990742258e-16
8.376314258e-16
8.910583674e-16
7.944553789e-16
8.361032161e-16
8.099000155e-16
8.546998529e-16
8.387544681e-16
8.170764586e-16
8.659459654e-16
8.360534905e-16
8.304869851e-16
7.627291618e-16
8.456534985e-16
8.586790424e-16
8.480490361e-16
8.037970627e-16
7.446044308e-16
7.912382923e-16
7.731041246e-16
8.113471806e-16
8.280076096e-16
8.373881141e-16
8.624486318e-16
8.045401222e-16
8.128213711e-16
8.429725716e-16
8.272758746e-16
8.08123553e-16
8.201942776e-16
8.267450336e-16
7.993990827e-16
8.068797145e-16
7.985206062e-16
8.346507904e-16
8.035923917e-16
8.582239411e-16
8.379821386e-16
8.443678858e-16
8.550175374e-16
8.243590926e-16
8.153641825e-16
7.552139568e-16
8.357913819e-16
8.169938761e-16
8.240305891e-16
7.957710533e-16
7.961292446e-16
7.732698484e-16
7.672811531e-16
8.014557113e-16
8.04003342e-16
7.968822813e-16
8.692496864e-16
8.293263934e-16
8.468561853e-16
8.025957042e-16
8.152872574e-16
8.986898597e-16
8.00797763e-16
8.255629763e-16
8.278778412e-16
8.479082261e-16
8.310782531e-16
8.305865764e-16
8.353340971e-16
8.065126568e-16
7.709189973e-16
7.964010723e-16
7.936320941e-16
8.198368015e-16
7.689625617e-16
8.249936521e-16
8.073939397e-16
7.789827486e-16
8.107689069e-16
8.078410809e-16
7.751835416e-16
7.843445572e-16
7.847080872e-16
8.657158626e-16
8.281277951e-16
7.994717007e-16
8.214704785e-16
8.270868592e-16
7.607753432e-16
8.46721931e-16
7.67209009e-16
7.532814135e-16
7.930761111e-16
7.324435863e-16
8.211014496e-16
7.596632378e-16
8.182816647e-16
8.242071759e-16
7.736324327e-16
8.104432876e-16
8.00664566e-16
8.10557908e-16
7.82592707e-16
7.866401713e-16
8.005984507e-16
8.510694662e-16
7.618253115e-16
7.884482978e-16
7.669466364e-16
7.533588695e-16
7.716533731e-16
)
;

boundaryField
{
    flow
    {
        type            zeroGradient;
    }
    obstacle
    {
        type            zeroGradient;
    }
    frontAndBack
    {
        type            empty;
    }
    procBoundary1to0
    {
        type            processor;
        value           nonuniform List<scalar> 
21
(
8.88300475e-16
8.649956698e-16
8.517140774e-16
8.873199309e-16
8.476834918e-16
8.485398465e-16
8.838940869e-16
8.409236378e-16
8.125545807e-16
8.181151707e-16
8.29859217e-16
8.748419703e-16
7.665814998e-16
8.249979413e-16
8.634928143e-16
8.122536288e-16
7.636429468e-16
8.102469599e-16
8.085872074e-16
8.252359413e-16
7.5292836e-16
)
;
    }
    procBoundary1to3
    {
        type            processor;
        value           nonuniform List<scalar> 
36
(
8.124279642e-16
8.510499318e-16
8.513747686e-16
8.315308506e-16
8.124279642e-16
8.402283938e-16
8.176338437e-16
7.986518121e-16
8.40417898e-16
8.568965137e-16
8.055575481e-16
8.510499318e-16
8.230871767e-16
8.21614888e-16
8.211519486e-16
8.184417067e-16
7.809011999e-16
8.176338437e-16
7.940586292e-16
7.922852644e-16
7.811862649e-16
7.806318211e-16
7.731761726e-16
7.682004693e-16
8.21614888e-16
7.803754902e-16
7.189008835e-16
7.479743664e-16
7.473423118e-16
8.151752588e-16
8.236928249e-16
7.008734348e-16
7.922852644e-16
8.225295936e-16
7.189008835e-16
7.179725086e-16
)
;
    }
}


// ************************************************************************* //
