/*--------------------------------*- C++ -*----------------------------------*\
| =========                 |                                                 |
| \\      /  F ield         | OpenFOAM: The Open Source CFD Toolbox           |
|  \\    /   O peration     | Version:  2406                                  |
|   \\  /    A nd           | Website:  www.openfoam.com                      |
|    \\/     M anipulation  |                                                 |
\*---------------------------------------------------------------------------*/
FoamFile
{
    version     2.0;
    format      ascii;
    arch        "LSB;label=32;scalar=64";
    class       volVectorField;
    location    "0.012";
    object      fD;
}
// * * * * * * * * * * * * * * * * * * * * * * * * * * * * * * * * * * * * * //

dimensions      [1 -1 -2 0 0 0 0];

internalField   uniform (0 0 0);

boundaryField
{
    flow
    {
        type            zeroGradient;
    }
    obstacle
    {
        type            calculated;
        value           nonuniform List<vector> 
30
(
(0 0 0)
(0 0 0)
(4.856275673 -5.005497674 -2.207155523)
(0 0 0)
(3.741320726 -2.863359112 -0.7416671505)
(2.467998912 -2.084595127 2.945957019)
(0 0 0)
(0 0 0)
(2.619545112 -0.8231270208 -1.770802785)
(0 0 0)
(0 0 0)
(0.3616149038 -1.031924381 -1.778940505)
(3.528854846 -5.829896367 3.779763157)
(0 0 0)
(3.216799853 -2.335162234 -0.5972334055)
(-0.5932322681 -5.879486387 0.3214854355)
(0.03452372277 -2.245093955 1.23738374)
(0 0 0)
(3.961457137 -2.208783649 1.965318388)
(0 0 0)
(0 0 0)
(2.810344971 -3.699283352 0.5271406292)
(0.1895896865 -2.459624258 0.6225342959)
(1.100450395 -3.945156204 -0.1443982505)
(3.730151121 -1.000913556 0.4271598931)
(2.830684053 -1.630724942 -0.09794696543)
(2.625123376 -3.219013016 -1.488953018)
(0 0 0)
(0.684058485 -1.101320104 0.4776129849)
(1.23721673 -2.093964523 0.3369243054)
)
;
    }
    frontAndBack
    {
        type            empty;
    }
    procBoundary1to0
    {
        type            processor;
        value           uniform (0 0 0);
    }
    procBoundary1to3
    {
        type            processor;
        value           uniform (0 0 0);
    }
}


// ************************************************************************* //
