/*--------------------------------*- C++ -*----------------------------------*\
| =========                 |                                                 |
| \\      /  F ield         | OpenFOAM: The Open Source CFD Toolbox           |
|  \\    /   O peration     | Version:  2406                                  |
|   \\  /    A nd           | Website:  www.openfoam.com                      |
|    \\/     M anipulation  |                                                 |
\*---------------------------------------------------------------------------*/
FoamFile
{
    version     2.0;
    format      ascii;
    arch        "LSB;label=32;scalar=64";
    class       volVectorField;
    location    "0.012";
    object      fDMean;
}
// * * * * * * * * * * * * * * * * * * * * * * * * * * * * * * * * * * * * * //

dimensions      [1 -1 -2 0 0 0 0];

internalField   uniform (0 0 0);

boundaryField
{
    flow
    {
        type            calculated;
        value           uniform (0 0 0);
    }
    obstacle
    {
        type            calculated;
        value           nonuniform List<vector> 
30
(
(2.348439276 -2.740191404 0.007981410791)
(2.352949758 -2.771530756 -0.0148327542)
(2.214689793 -2.697250761 0.002519659457)
(2.197056776 -2.710294544 0.01546771261)
(2.093920835 -2.628015111 -0.007145281825)
(2.07582251 -2.633717349 -0.01496487488)
(2.034683617 -2.664589712 -0.006444374005)
(2.029641666 -2.685996366 0.01240404079)
(1.98043817 -2.670202072 0.006319241814)
(1.880703901 -2.588570947 0.04120735569)
(1.843694196 -2.564254972 -0.00951527475)
(1.895994879 -2.618599769 -0.02991270389)
(1.813112321 -2.599240191 -0.03939106296)
(1.804705745 -2.619117535 -0.01121232738)
(1.853701677 -2.655504124 -0.02934678236)
(1.783904825 -2.557709948 0.007620016044)
(1.711532534 -2.491914318 -0.01556244368)
(1.66180936 -2.513810858 0.03200293461)
(1.683398672 -2.529831313 -0.02082458988)
(1.664467764 -2.467293956 0.01879548991)
(1.634745478 -2.448289461 0.00624895409)
(1.600233152 -2.43668863 0.008445544852)
(1.57802699 -2.377489896 -0.01302171188)
(1.621736334 -2.417110008 -0.01102430266)
(1.590141017 -2.327345409 0.01204677478)
(1.555712334 -2.255879492 -0.00327640406)
(1.533501821 -2.140296752 0.01697297353)
(1.535021804 -2.039524665 -0.001004355017)
(1.507736757 -1.888893612 -0.001558754026)
(1.500404676 -1.657923299 0.01432629994)
)
;
    }
    frontAndBack
    {
        type            empty;
    }
    procBoundary1to0
    {
        type            processor;
        value           uniform (0 0 0);
    }
    procBoundary1to3
    {
        type            processor;
        value           uniform (0 0 0);
    }
}


// ************************************************************************* //
