/*--------------------------------*- C++ -*----------------------------------*\
| =========                 |                                                 |
| \\      /  F ield         | OpenFOAM: The Open Source CFD Toolbox           |
|  \\    /   O peration     | Version:  2406                                  |
|   \\  /    A nd           | Website:  www.openfoam.com                      |
|    \\/     M anipulation  |                                                 |
\*---------------------------------------------------------------------------*/
FoamFile
{
    version     2.0;
    format      ascii;
    arch        "LSB;label=32;scalar=64";
    class       volScalarField;
    location    "0.012";
    object      iDof;
}
// * * * * * * * * * * * * * * * * * * * * * * * * * * * * * * * * * * * * * //

dimensions      [0 -3 0 0 0 0 0];

internalField   nonuniform List<scalar> 
546
(
4.711119443e+20
4.06791903e+20
5.464239032e+20
7.56963733e+20
4.391185792e+20
7.684825214e+20
6.101131526e+20
6.384741484e+20
5.24288912e+20
6.484948418e+20
5.083742809e+20
4.148220967e+20
8.117142881e+20
4.711369778e+20
4.749851571e+20
6.553323496e+20
7.116026637e+20
6.919337557e+20
5.685584294e+20
6.2552734e+20
6.046123559e+20
5.833349909e+20
6.686735063e+20
5.666375232e+20
4.627864555e+20
4.120055044e+20
5.820309405e+20
3.915664243e+20
3.951776238e+20
3.418766152e+20
4.935458468e+20
5.197896538e+20
4.3258559e+20
5.734573735e+20
6.471221167e+20
5.356090305e+20
4.458519192e+20
3.783550509e+20
6.434454829e+20
5.524215315e+20
5.809991782e+20
5.368285957e+20
6.641298716e+20
6.447137585e+20
5.749820319e+20
4.536916266e+20
7.370170446e+20
3.844076417e+20
5.42714864e+20
4.17018227e+20
6.834748376e+20
5.037893108e+20
5.349388055e+20
3.237928704e+20
6.261228516e+20
4.394725384e+20
3.048733501e+20
6.432876976e+20
3.104967044e+20
3.703663331e+20
6.730170633e+20
4.971901036e+20
5.008885779e+20
5.275807836e+20
4.622300837e+20
5.821837284e+20
6.570449331e+20
7.094157204e+20
6.196141692e+20
6.965314968e+20
6.052074768e+20
4.392233965e+20
4.181558451e+20
7.191038076e+20
3.499890632e+20
6.049221688e+20
6.861882829e+20
4.869163462e+20
6.719326893e+20
3.909545878e+20
6.571873428e+20
6.098502178e+20
4.279510444e+20
4.856893056e+20
4.627864555e+20
5.218736389e+20
2.217260726e+20
6.432876971e+20
4.5163157e+20
3.418766155e+20
6.281492591e+20
4.51991003e+20
4.553532527e+20
4.128893092e+20
5.315645958e+20
5.588963792e+20
4.693178097e+20
3.547078602e+20
7.626020538e+20
5.284032045e+20
3.873327855e+20
3.660194968e+20
4.91948053e+20
5.455270269e+20
6.249804699e+20
5.797170784e+20
5.337019978e+20
4.869163462e+20
3.876534743e+20
4.952091446e+20
5.783248626e+20
4.50758857e+20
6.151796258e+20
5.126720444e+20
6.261228516e+20
5.768077062e+20
5.543151819e+20
3.076593339e+20
2.258157852e+20
4.273457678e+20
5.384136507e+20
4.51991003e+20
3.415149392e+20
3.899510137e+20
5.084530917e+20
5.123216813e+20
3.989201383e+20
2.601190975e+20
5.24288912e+20
5.043848766e+20
5.083742809e+20
5.856311958e+20
6.149350667e+20
3.719502456e+20
5.249835947e+20
3.780763555e+20
3.558013321e+20
4.612891708e+20
4.134970396e+20
4.952091441e+20
5.257498742e+20
5.303045367e+20
7.756612673e+20
4.317238272e+20
4.627864563e+20
3.845384701e+20
4.711679026e+20
3.635973953e+20
3.66950651e+20
3.988560521e+20
4.038102386e+20
6.327874051e+20
4.55353253e+20
5.04642489e+20
6.008991088e+20
5.123216813e+20
5.397154812e+20
5.675325763e+20
7.626020538e+20
6.484948413e+20
7.262489722e+20
2.928155975e+20
4.919480526e+20
4.9593366e+20
4.749851568e+20
5.545119881e+20
4.066300935e+20
6.66306579e+20
3.618099096e+20
3.909545881e+20
5.520373688e+20
3.446979501e+20
5.616857486e+20
4.856893056e+20
4.900091848e+20
3.845384708e+20
6.097467028e+20
3.635973946e+20
4.798585418e+20
4.55835484e+20
2.916407275e+20
3.615928024e+20
5.008885776e+20
5.73457373e+20
3.928955708e+20
4.191722847e+20
4.927837002e+20
4.492966229e+20
4.051323411e+20
5.284032045e+20
6.052074778e+20
5.124272963e+20
5.411428587e+20
6.19917076e+20
6.74978907e+20
4.032814456e+20
5.337019978e+20
4.612891701e+20
4.910277361e+20
3.648909514e+20
6.046123604e+20
7.424263565e+20
5.349388064e+20
5.666375271e+20
4.355637281e+20
5.768077112e+20
4.98883666e+20
5.593806071e+20
3.951776263e+20
4.843252106e+20
3.140746296e+20
2.937941522e+20
3.415149397e+20
4.587658991e+20
4.391185792e+20
4.191722844e+20
4.693178097e+20
5.438853857e+20
7.14939426e+20
3.602749121e+20
6.77832374e+20
5.124272955e+20
4.91948053e+20
2.975601965e+20
4.249867206e+20
4.284865373e+20
4.066300929e+20
3.075261119e+20
5.168712969e+20
3.909545862e+20
5.257498707e+20
3.712131719e+20
4.012041014e+20
3.50775609e+20
6.261228483e+20
5.768077011e+20
3.880206222e+20
4.195354516e+20
3.387236766e+20
5.982840727e+20
2.916407277e+20
4.519910033e+20
3.642826019e+20
5.734573735e+20
3.928955711e+20
4.191722847e+20
5.866472621e+20
4.729438136e+20
4.527949695e+20
5.043848766e+20
5.083742797e+20
4.14822097e+20
5.165454565e+20
4.463402954e+20
4.249867199e+20
4.536916237e+20
5.591163777e+20
2.050174096e+20
3.876534743e+20
3.909545862e+20
4.205999001e+20
4.242436323e+20
3.744571645e+20
4.317238265e+20
4.08340988e+20
3.570714372e+20
4.434521475e+20
3.91566425e+20
3.951776227e+20
2.564074621e+20
1.794712169e+20
2.259955015e+20
2.732119516e+20
4.587658988e+20
3.466725625e+20
4.890343318e+20
3.050565759e+20
3.783550515e+20
4.766262833e+20
4.563482203e+20
5.083742829e+20
7.320389936e+20
6.395324664e+20
7.191038082e+20
5.249835931e+20
7.057425314e+20
6.099451443e+20
3.84407643e+20
6.719326888e+20
5.212727859e+20
4.205999001e+20
6.36365443e+20
3.744571645e+20
5.396547831e+20
7.622365176e+20
4.120055044e+20
5.265994205e+20
3.356283643e+20
1.975888113e+20
6.267737905e+20
2.01905119e+20
2.033959509e+20
2.732119504e+20
2.752595387e+20
3.697840667e+20
3.260228886e+20
3.285224683e+20
3.783550526e+20
4.289636559e+20
5.043848758e+20
4.599576803e+20
7.076376938e+20
4.427532494e+20
3.967469286e+20
5.249835973e+20
3.024610849e+20
4.574588508e+20
5.637978718e+20
3.876534743e+20
4.691455034e+20
7.623373189e+20
3.181827242e+20
6.419265677e+20
3.50775609e+20
7.350137784e+20
3.021373699e+20
5.543151844e+20
5.873496375e+20
4.234045996e+20
3.703663375e+20
1.794712175e+20
3.615928042e+20
2.73211953e+20
1.376297699e+20
2.080035373e+20
4.424596319e+20
4.927836965e+20
5.911797608e+20
4.051323386e+20
4.563482245e+20
4.115410887e+20
4.392233996e+20
5.411428604e+20
6.44713759e+20
2.999906246e+20
5.797170794e+20
5.591163823e+20
3.587804668e+20
4.651841692e+20
5.734000597e+20
5.257498707e+20
5.568197579e+20
5.616857371e+20
4.587065656e+20
5.989001262e+20
4.669395758e+20
5.265994252e+20
5.314115768e+20
4.798585418e+20
3.988560485e+20
2.916407266e+20
2.711946002e+20
2.504442884e+20
3.211361299e+20
3.466725622e+20
3.958849368e+20
3.519883599e+20
2.837662895e+20
5.004575986e+20
3.602749113e+20
3.631244844e+20
5.124272915e+20
3.689610383e+20
4.959336608e+20
4.999843743e+20
3.528712629e+20
3.303869505e+20
5.894250526e+20
6.202455589e+20
4.952091466e+20
6.308998554e+20
6.098502214e+20
4.546979854e+20
6.206030006e+20
5.716773832e+20
5.493406677e+20
4.434521436e+20
3.91566425e+20
6.774473532e+20
4.55835484e+20
2.243390205e+20
2.937941524e+20
2.276766258e+20
2.981978327e+20
2.542265456e+20
3.027355376e+20
3.05056574e+20
3.074134779e+20
2.14481828e+20
3.122382565e+20
3.147078865e+20
5.368285953e+20
4.42753246e+20
2.231701456e+20
5.249835931e+20
4.788967178e+20
5.337019969e+20
4.356619918e+20
4.651841692e+20
4.952091425e+20
6.046123513e+20
3.446979483e+20
5.88432687e+20
4.587065656e+20
4.627864531e+20
3.845384708e+20
4.711679026e+20
4.754735118e+20
4.234045957e+20
1.709383081e+20
1.12169511e+20
1.807964028e+20
2.276766275e+20
2.752595399e+20
2.542265475e+20
3.493102383e+20
2.581247953e+20
2.601190987e+20
3.098070848e+20
2.161649468e+20
2.178746923e+20
3.660194997e+20
3.197662357e+20
3.471535626e+20
2.499921892e+20
5.54511989e+20
2.795581889e+20
5.637978764e+20
4.65184173e+20
5.734000645e+20
4.468873938e+20
3.712131782e+20
6.151796274e+20
2.968101307e+20
5.98900121e+20
4.394725419e+20
4.98883666e+20
5.593806071e+20
5.080855195e+20
4.843252062e+20
2.467729225e+20
2.033959502e+20
2.959796136e+20
2.064446549e+20
2.311150415e+20
2.09586143e+20
2.815906879e+20
1.655303355e+20
2.621444584e+20
2.642016037e+20
2.662912886e+20
2.196116964e+20
3.689610383e+20
4.959336608e+20
2.499921872e+20
3.276661753e+20
4.574588582e+20
2.818989382e+20
2.842792145e+20
2.867000323e+20
4.205999036e+20
3.712131782e+20
5.88432687e+20
4.856893048e+20
5.989001157e+20
6.317417679e+20
6.097466974e+20
6.153186678e+20
3.669506496e+20
1.346034123e+20
1.807964015e+20
2.959796157e+20
2.293829499e+20
1.848920332e+20
1.630114433e+20
2.346589031e+20
1.891775234e+20
2.144818263e+20
3.362565865e+20
3.147078914e+20
2.440129998e+20
3.443636385e+20
1.487800982e+20
5.249835931e+20
3.528712629e+20
4.828732353e+20
4.612891716e+20
6.719326888e+20
2.867000299e+20
5.520373642e+20
6.09850211e+20
3.209632811e+20
3.777583514e+20
3.538955291e+20
1.794712177e+20
2.259955018e+20
2.959796114e+20
1.376297689e+20
3.004495539e+20
6.986204766e+19
1.877271253e+20
1.891775263e+20
3.336383991e+20
9.607330968e+19
2.178746906e+20
1.708090985e+20
2.459740275e+20
2.727635134e+20
3.249898459e+20
2.772559967e+20
3.303869505e+20
3.331532879e+20
4.651841692e+20
2.692068265e+20
1.807964015e+20
2.959796157e+20
2.293829499e+20
1.386690249e+20
2.328734905e+20
2.815906837e+20
1.418831437e+20
2.14481828e+20
2.161649468e+20
2.662912906e+20
2.928155975e+20
2.705714281e+20
2.479668304e+20
1.794712164e+20
1.581968501e+20
2.049089632e+20
1.605680649e+20
2.311150432e+20
2.328734922e+20
1.407953429e+20
1.182359539e+20
2.243390221e+20
)
;

boundaryField
{
    flow
    {
        type            zeroGradient;
    }
    obstacle
    {
        type            calculated;
        value           nonuniform List<scalar> 
30
(
1e-300
1e-300
279.652627
1e-300
249.5438626
359.8098918
1e-300
1e-300
169.170294
1e-300
1e-300
293.5353948
648.867779
1e-300
504.2467908
404.5631475
482.198477
1e-300
510.0823865
1e-300
1e-300
738.011537
92.39300475
268.1108052
243.3370684
115.9615745
272.4091049
1e-300
244.7204098
99.46000693
)
;
    }
    frontAndBack
    {
        type            empty;
    }
    procBoundary1to0
    {
        type            processor;
        value           nonuniform List<scalar> 
21
(
5.790372824e+20
4.231426294e+20
5.790372824e+20
5.567666177e+20
5.122252886e+20
4.676839592e+20
3.563306353e+20
4.008719647e+20
2.672479765e+20
2.227066471e+20
1.781653177e+20
2.449773128e+20
1.781653177e+20
2.4497731e+20
1.336239882e+20
1.55894653e+20
3.117893059e+20
2.004359824e+20
1.113533243e+20
1.336239882e+20
2.895186412e+20
)
;
    }
    procBoundary1to3
    {
        type            processor;
        value           nonuniform List<scalar> 
36
(
7.122429502e+20
6.31741779e+20
3.880206291e+20
4.754735161e+20
7.122429502e+20
5.92766434e+20
3.127636689e+20
2.1029995e+20
3.977284053e+20
5.616857467e+20
5.396547831e+20
6.31741779e+20
4.355637205e+20
1.499953123e+20
3.276661727e+20
2.541438081e+20
2.818989382e+20
3.127636689e+20
4.651841692e+20
1.191565711e+20
1.681282919e+20
2.662912886e+20
3.660194968e+20
3.197662357e+20
1.499953123e+20
9.918673216e+19
1.355973021e+20
2.276766275e+20
3.211361299e+20
1.155575207e+20
2.328734922e+20
1.642612346e+20
1.191565711e+20
3.31060671e+20
1.355973021e+20
3.140746287e+20
)
;
    }
}


// ************************************************************************* //
