/*--------------------------------*- C++ -*----------------------------------*\
| =========                 |                                                 |
| \\      /  F ield         | OpenFOAM: The Open Source CFD Toolbox           |
|  \\    /   O peration     | Version:  2406                                  |
|   \\  /    A nd           | Website:  www.openfoam.com                      |
|    \\/     M anipulation  |                                                 |
\*---------------------------------------------------------------------------*/
FoamFile
{
    version     2.0;
    format      ascii;
    arch        "LSB;label=32;scalar=64";
    class       volScalarField;
    location    "0.012";
    object      iDofMean;
}
// * * * * * * * * * * * * * * * * * * * * * * * * * * * * * * * * * * * * * //

dimensions      [0 -3 0 0 0 0 0];

internalField   nonuniform List<scalar> 
546
(
6.112490529e+20
6.116455255e+20
6.060258493e+20
6.093213976e+20
6.022549832e+20
5.985624973e+20
6.093622441e+20
6.051552567e+20
6.088265272e+20
6.016791185e+20
5.966659824e+20
6.021386747e+20
5.972741316e+20
6.048117632e+20
6.075976798e+20
5.934664552e+20
5.755086543e+20
5.889680332e+20
5.85576417e+20
5.767839908e+20
5.720202449e+20
5.799542995e+20
5.698658512e+20
5.617941215e+20
5.453802264e+20
5.304799761e+20
5.083393564e+20
4.912387253e+20
4.519467712e+20
3.774935109e+20
5.51720694e+20
5.496624925e+20
5.444241435e+20
5.481220267e+20
5.458359496e+20
5.510757116e+20
5.49610265e+20
5.487133538e+20
5.46877026e+20
5.419335285e+20
5.465225256e+20
5.517459237e+20
5.523920705e+20
5.512467947e+20
5.501286419e+20
5.429932618e+20
5.371583536e+20
5.430099635e+20
5.380070279e+20
5.30503656e+20
5.299427303e+20
5.274453123e+20
5.279533963e+20
5.157525742e+20
5.045824244e+20
4.95422886e+20
4.737824246e+20
4.474065937e+20
4.102790544e+20
3.477312522e+20
5.160283554e+20
5.188480059e+20
5.184120889e+20
5.204966735e+20
5.173510211e+20
5.162533617e+20
5.186392001e+20
5.156348752e+20
5.23192672e+20
5.179192045e+20
5.212369568e+20
5.242863276e+20
5.213173518e+20
5.19796335e+20
5.184254663e+20
5.098779739e+20
5.145056688e+20
5.161227846e+20
5.073953257e+20
5.041055334e+20
4.980121871e+20
4.975228784e+20
5.077505407e+20
4.870249512e+20
4.769150538e+20
4.648795441e+20
4.528154524e+20
4.320422727e+20
4.005313397e+20
3.504472723e+20
4.824896717e+20
4.901202107e+20
5.018410251e+20
5.030635697e+20
5.055872651e+20
5.052850203e+20
5.099177112e+20
5.066450015e+20
5.050570415e+20
5.049933413e+20
5.052756186e+20
5.033906809e+20
5.063293344e+20
5.046703588e+20
4.988469115e+20
4.99539686e+20
4.984183657e+20
4.967315546e+20
4.959896986e+20
4.914820442e+20
4.863493032e+20
4.861036544e+20
4.809456483e+20
4.755572866e+20
4.679134035e+20
4.58118076e+20
4.438632626e+20
4.196053779e+20
4.008230187e+20
3.675505983e+20
4.531723006e+20
4.619272719e+20
4.773885551e+20
4.906921819e+20
4.963811826e+20
4.943671351e+20
4.97547276e+20
4.97934953e+20
5.012678625e+20
4.984163222e+20
4.960078748e+20
5.014304439e+20
5.032013651e+20
5.004135949e+20
4.976802813e+20
4.951413977e+20
4.88892209e+20
4.890903858e+20
4.881332552e+20
4.8481844e+20
4.798738164e+20
4.753075371e+20
4.698545838e+20
4.659289463e+20
4.581041463e+20
4.520066603e+20
4.459927548e+20
4.195494406e+20
3.988377216e+20
3.667006571e+20
4.213161602e+20
4.386007702e+20
4.547916506e+20
4.653186054e+20
4.724184051e+20
4.774760446e+20
4.849108939e+20
4.906713242e+20
4.944560785e+20
4.953059488e+20
4.989491828e+20
4.97009741e+20
4.920341435e+20
4.951029711e+20
4.919971251e+20
4.917471122e+20
4.862194629e+20
4.906835411e+20
4.897269417e+20
4.845925559e+20
4.799263922e+20
4.710606832e+20
4.674027837e+20
4.651959152e+20
4.58875453e+20
4.499145887e+20
4.359642732e+20
4.232786439e+20
4.05833305e+20
3.758695946e+20
3.813389461e+20
4.038162952e+20
4.206932806e+20
4.354147142e+20
4.531125949e+20
4.624168921e+20
4.69888813e+20
4.783669027e+20
4.811383458e+20
4.877081516e+20
4.913760206e+20
4.953463865e+20
4.95162114e+20
4.923009467e+20
4.928054332e+20
4.908649337e+20
4.878586905e+20
4.899275394e+20
4.862423693e+20
4.838367136e+20
4.824719011e+20
4.773050207e+20
4.690031407e+20
4.640176721e+20
4.626503475e+20
4.487335102e+20
4.397520937e+20
4.264671134e+20
4.088065499e+20
3.880062214e+20
3.446707331e+20
3.663274084e+20
3.868301776e+20
4.072350195e+20
4.209221215e+20
4.373014857e+20
4.531302563e+20
4.645254137e+20
4.696635684e+20
4.77984732e+20
4.843031618e+20
4.902953166e+20
4.887872868e+20
4.914165317e+20
4.943970517e+20
4.959227567e+20
4.96643594e+20
4.910337767e+20
4.878834317e+20
4.883196539e+20
4.876067176e+20
4.805221935e+20
4.756140887e+20
4.685192884e+20
4.637664714e+20
4.561908018e+20
4.492262561e+20
4.330957697e+20
4.217768403e+20
4.031864856e+20
3.143737485e+20
3.329064403e+20
3.525231041e+20
3.726631857e+20
3.911545045e+20
4.077770085e+20
4.259372002e+20
4.383795032e+20
4.500146495e+20
4.594265706e+20
4.691729742e+20
4.817548625e+20
4.877992919e+20
4.899080676e+20
4.898721923e+20
4.948767411e+20
4.94555379e+20
4.946002294e+20
4.933493477e+20
4.920945376e+20
4.885136402e+20
4.854407762e+20
4.80531072e+20
4.747118271e+20
4.687391573e+20
4.657172887e+20
4.551851523e+20
4.423908147e+20
4.282361126e+20
4.135377535e+20
2.83504699e+20
2.987095541e+20
3.163452885e+20
3.358472223e+20
3.586327659e+20
3.750427578e+20
3.937537308e+20
4.120247099e+20
4.277879768e+20
4.416490039e+20
4.551805802e+20
4.681714715e+20
4.727784753e+20
4.803820078e+20
4.866431246e+20
4.901717949e+20
4.925137611e+20
4.966119628e+20
4.905883935e+20
4.913908235e+20
4.933636828e+20
4.921623821e+20
4.889786473e+20
4.811966787e+20
4.782444322e+20
4.719065269e+20
4.614396712e+20
4.516345792e+20
4.366195236e+20
4.199716776e+20
2.646190924e+20
2.78437757e+20
2.927428102e+20
3.096134583e+20
3.256449456e+20
3.442064271e+20
3.637408591e+20
3.822410743e+20
4.026777164e+20
4.207290414e+20
4.346882509e+20
4.473693634e+20
4.605699682e+20
4.725049281e+20
4.788058734e+20
4.826102677e+20
4.890701045e+20
4.934683585e+20
4.949688778e+20
4.941970045e+20
4.958171822e+20
4.940228714e+20
4.905879215e+20
4.902358963e+20
4.791382411e+20
4.746166076e+20
4.691585142e+20
4.621276271e+20
4.516080504e+20
4.350664877e+20
2.484928566e+20
2.607875103e+20
2.719141962e+20
2.854403198e+20
3.014279409e+20
3.180159198e+20
3.349247414e+20
3.534742614e+20
3.728329643e+20
3.899215364e+20
4.080591283e+20
4.238343131e+20
4.390800373e+20
4.544240134e+20
4.648063071e+20
4.734566191e+20
4.793745261e+20
4.860535662e+20
4.931813645e+20
4.937669545e+20
4.94989122e+20
4.955474885e+20
4.930575472e+20
4.913017145e+20
4.873277549e+20
4.822478693e+20
4.758472508e+20
4.67110776e+20
4.61383988e+20
4.5338062e+20
2.350699036e+20
2.428698309e+20
2.545576461e+20
2.640006601e+20
2.753196451e+20
2.898886856e+20
3.062376951e+20
3.205219063e+20
3.379677545e+20
3.55483255e+20
3.728884983e+20
3.961388314e+20
4.157862936e+20
4.31987148e+20
4.470318626e+20
4.56980888e+20
4.674128203e+20
4.784593796e+20
4.844505468e+20
4.903569658e+20
4.911336312e+20
4.977173263e+20
4.967664647e+20
4.972424143e+20
4.931851711e+20
4.905200157e+20
4.858433969e+20
4.797900697e+20
4.699367608e+20
4.590928084e+20
2.238379967e+20
2.301349861e+20
2.372238657e+20
2.489110832e+20
2.595383397e+20
2.70703789e+20
2.829517053e+20
2.97087538e+20
3.128694087e+20
3.315529948e+20
3.500842807e+20
3.643886766e+20
3.813499301e+20
4.018674405e+20
4.190785695e+20
4.349096341e+20
4.507918153e+20
4.634802913e+20
4.731526017e+20
4.82316329e+20
4.879747425e+20
4.897229812e+20
4.97314777e+20
4.987579448e+20
4.968194059e+20
4.957296007e+20
4.959550297e+20
4.880222833e+20
4.779296987e+20
4.662722215e+20
2.190072313e+20
2.242591047e+20
2.299306261e+20
2.344179056e+20
2.444195659e+20
2.538476314e+20
2.636744784e+20
2.753951839e+20
2.899635439e+20
3.043962726e+20
3.210302897e+20
3.371893637e+20
3.563466732e+20
3.742811338e+20
3.930793852e+20
4.119099891e+20
4.274614137e+20
4.404756333e+20
4.568194724e+20
4.698361938e+20
4.799658235e+20
4.90558215e+20
4.957857436e+20
4.990637492e+20
5.001632692e+20
4.97153313e+20
4.994472197e+20
4.968465168e+20
4.884348416e+20
4.776871019e+20
2.133800593e+20
2.156524395e+20
2.206641858e+20
2.247952909e+20
2.303639176e+20
2.376551613e+20
2.480618412e+20
2.584519717e+20
2.694646438e+20
2.802458465e+20
2.944334361e+20
3.113321147e+20
3.263993328e+20
3.457649483e+20
3.645386073e+20
3.826216741e+20
4.000181214e+20
4.159461545e+20
4.298990885e+20
4.461660653e+20
4.599216134e+20
4.716661158e+20
4.807896257e+20
4.892465292e+20
4.951860419e+20
4.970983702e+20
4.960520348e+20
4.952382975e+20
4.92819427e+20
2.112899674e+20
2.126843668e+20
2.14930531e+20
2.201732245e+20
2.235845431e+20
2.301178208e+20
2.362858715e+20
2.441808884e+20
2.523060936e+20
2.637252402e+20
2.749780374e+20
2.862923189e+20
2.998341404e+20
3.130539906e+20
3.317479655e+20
3.497584342e+20
3.714099968e+20
3.926467801e+20
4.132299891e+20
4.234298805e+20
4.406265854e+20
4.587355156e+20
4.698412075e+20
4.80800936e+20
4.847234468e+20
2.07378992e+20
2.098631896e+20
2.125664855e+20
2.150923905e+20
2.182688971e+20
2.213773041e+20
2.247954106e+20
2.301581079e+20
2.377888533e+20
2.464640668e+20
2.541629308e+20
2.649899819e+20
2.768273697e+20
2.920429345e+20
3.080153763e+20
3.242466873e+20
3.404256309e+20
3.584515818e+20
3.760023338e+20
2.059507002e+20
2.074827036e+20
2.090678578e+20
2.111240671e+20
2.133230352e+20
2.168013384e+20
2.214515178e+20
2.2451431e+20
2.296107406e+20
2.342147198e+20
2.444997867e+20
2.522199684e+20
2.613801987e+20
2.714658204e+20
2.036998306e+20
2.051511819e+20
2.06343326e+20
2.073392484e+20
2.102646144e+20
2.111502766e+20
2.140402091e+20
2.176408616e+20
2.026865675e+20
)
;

boundaryField
{
    flow
    {
        type            calculated;
        value           nonuniform List<scalar> 
15
(
3.774935109e+20
3.477312522e+20
3.504472723e+20
3.675505983e+20
3.667006571e+20
3.758695946e+20
3.880062214e+20
4.031864856e+20
4.135377535e+20
4.199716776e+20
4.350664877e+20
4.5338062e+20
4.590928084e+20
4.662722215e+20
4.776871019e+20
)
;
    }
    obstacle
    {
        type            calculated;
        value           nonuniform List<scalar> 
30
(
271.3318609
272.6959808
264.5625194
273.3765862
264.1096949
259.4134667
267.6762526
262.4623547
274.1692824
258.5437292
255.7274655
270.3696282
257.5516975
260.2833721
269.1266712
251.4236746
246.6817382
252.3096507
254.2911053
256.8155137
243.4769508
246.3338338
248.6038266
245.509455
242.1546086
221.2445476
218.2511751
217.1266632
197.3252493
174.1482504
)
;
    }
    frontAndBack
    {
        type            empty;
    }
    procBoundary1to0
    {
        type            processor;
        value           nonuniform List<scalar> 
21
(
6.124878208e+20
5.443952634e+20
5.105995297e+20
4.760799994e+20
4.389882077e+20
3.97553636e+20
3.606288736e+20
3.255043236e+20
2.957061742e+20
2.683949157e+20
2.524268491e+20
2.394987293e+20
2.290946161e+20
2.206057795e+20
2.135571157e+20
2.107584355e+20
2.089953412e+20
2.054394584e+20
2.049160992e+20
2.027335726e+20
2.038879354e+20
)
;
    }
    procBoundary1to3
    {
        type            processor;
        value           nonuniform List<scalar> 
36
(
4.875587892e+20
4.892428073e+20
4.970313294e+20
4.968465168e+20
4.875587892e+20
4.949035185e+20
3.955678503e+20
4.129721456e+20
4.324942871e+20
4.477259497e+20
4.627809592e+20
4.892428073e+20
4.775320999e+20
2.839411262e+20
3.005160897e+20
3.140624465e+20
3.310604045e+20
3.955678503e+20
3.496203612e+20
2.216709411e+20
2.265088398e+20
2.295350213e+20
2.370179586e+20
2.442112136e+20
2.839411262e+20
2.532939845e+20
2.041417383e+20
2.048710186e+20
2.054124316e+20
2.076106418e+20
2.098461851e+20
2.110443986e+20
2.216709411e+20
2.137311927e+20
2.041417383e+20
2.029557728e+20
)
;
    }
}


// ************************************************************************* //
