/*--------------------------------*- C++ -*----------------------------------*\
| =========                 |                                                 |
| \\      /  F ield         | OpenFOAM: The Open Source CFD Toolbox           |
|  \\    /   O peration     | Version:  2406                                  |
|   \\  /    A nd           | Website:  www.openfoam.com                      |
|    \\/     M anipulation  |                                                 |
\*---------------------------------------------------------------------------*/
FoamFile
{
    version     2.0;
    format      ascii;
    arch        "LSB;label=32;scalar=64";
    class       volScalarField;
    location    "0.012";
    object      internalE;
}
// * * * * * * * * * * * * * * * * * * * * * * * * * * * * * * * * * * * * * //

dimensions      [1 -1 -2 0 0 0 0];

internalField   nonuniform List<scalar> 
546
(
2.031718448
2.058433061
2.854279381
3.956855529
1.783867882
3.89078054
2.665200904
3.726130349
1.762608899
2.417369764
1.644201867
2.774952238
3.265242029
3.108528085
2.220406228
2.338845533
3.434448534
2.758164586
3.611055442
3.921299812
1.589809698
2.528149636
3.045950763
3.358683268
1.219928896
1.595350891
2.441558405
1.730436409
1.670854603
1.221809737
2.050864404
3.030028759
1.519766861
2.853634212
3.122269932
2.948497223
2.661653071
1.425251192
2.938999597
1.543361552
2.365002499
2.605027542
2.58896498
4.207371052
2.671553747
3.010415113
4.373880339
1.707790421
3.117520326
3.759790089
3.356757759
2.443014524
2.096843996
0.8540995747
3.104503176
2.175339987
2.020824694
3.591944502
0.9159842275
2.454235973
2.898371201
2.642849605
1.897044437
2.452539839
2.449970047
2.432695232
2.959184099
3.464428798
2.679523347
4.039381644
4.059072982
1.364536615
1.501046909
3.714919283
1.744688721
3.167046068
3.351146125
1.585817086
3.934093662
1.431485407
3.702693863
3.048455159
2.1624454
3.109356841
2.823059161
3.006646481
1.146059603
2.818659521
1.932285471
1.17803832
3.017819772
3.312779731
1.64867053
2.243381824
3.190784457
2.205810809
2.961420299
2.316704161
3.841486365
1.853216449
1.910659751
2.177338576
3.174238456
1.680221242
3.601265939
3.484024227
2.437237201
2.81569593
2.14127038
2.844941019
3.342914421
2.131661664
3.768795789
2.501789026
2.100791386
2.772698843
3.172898172
1.740445074
1.217049539
1.766211998
2.541449472
1.939976252
1.826652922
2.639342424
2.471550623
2.591956009
1.775932987
1.825161574
3.72233372
2.197574509
2.067538923
2.771136772
3.903379487
2.012259292
2.110913513
3.751699489
1.08072933
3.695820965
2.309485422
2.662799377
5.410728786
3.310517693
3.732433222
2.871898177
3.750634311
2.121739618
2.888317705
2.869627245
1.406832963
1.799260434
2.509791128
3.753016803
2.107696918
2.020909481
3.983327563
3.591056006
2.542692395
2.717750791
3.27452256
3.110561777
3.654234497
1.640946604
2.12339627
3.639879818
2.183797024
3.897378776
1.802752559
4.872421439
1.867602018
2.082575334
3.122476794
2.496805383
2.794527727
2.984533409
2.013765604
2.035874853
4.384793199
2.743711256
2.547846002
2.488721459
1.53473712
2.29774844
1.970742456
2.368345729
2.075841581
1.571428502
2.403724789
1.969218814
2.320595625
3.352303217
3.348846094
2.867877643
3.857766582
2.97945385
3.306785486
2.48807708
2.443283501
1.808669077
2.33272154
1.54594178
4.111603456
4.14767235
3.37365958
3.591953468
2.355565304
4.948523402
2.541792915
2.928873509
2.417792227
2.153562304
1.057545827
1.767703699
1.540613718
2.511972776
1.867446151
2.798093145
1.187867982
3.677169115
3.259980729
2.49419023
4.895692208
1.603456497
1.733490274
1.546317459
2.403254325
2.414627546
1.46889339
0.9854073717
3.513627399
1.688444976
3.942641422
1.583555788
1.378923094
1.860683893
3.18930655
3.684037437
3.039235864
2.975761296
1.817192844
2.896052435
0.8134171185
1.797043546
1.076861011
2.579611723
2.609238275
1.267634102
3.582236292
2.433444931
1.462616092
2.245044359
2.73920901
1.502749935
2.65903263
2.647046898
2.521643979
1.727296063
2.006481312
0.5796736926
1.970466685
3.850123858
2.764800649
2.792480688
1.427537041
3.452900584
1.726116511
1.500570083
3.287652922
1.341682975
2.550362889
0.8754698091
0.3810474961
0.3932496325
0.9728063166
1.90418542
1.965332915
2.325170938
1.300185967
1.800559718
1.243432767
2.591217285
2.305569535
3.682291034
4.146365148
3.167499593
2.265059765
3.444629134
2.946998392
2.349952726
4.878280637
1.701191796
2.341061087
2.929888452
2.884517001
2.796090444
3.228803167
4.296036015
2.599908147
1.704760297
1.450590907
3.052451717
0.5555032496
0.4576869823
1.007792383
0.7210296022
0.9149696313
1.17535455
1.416739122
1.266236867
1.925580779
2.17425288
1.346622815
3.413539763
1.912244275
2.318112624
2.394135562
0.5483170697
1.388603289
1.975715664
1.792822602
2.405064328
3.815283941
2.334983243
3.951756773
2.069046001
3.434109702
1.427722664
2.227103487
4.026297425
2.714952314
2.214595449
0.3566265714
0.5580938001
0.9724076956
0.3113421605
1.405261243
1.453781512
2.884251736
1.939221434
2.517333871
1.638156424
2.197630913
2.290986816
1.332860516
2.765315663
1.131559331
2.727323068
3.082977875
1.421773958
2.873322235
2.923508562
2.380850617
3.412403487
2.7323915
2.558613515
5.187472379
2.910307391
2.673310056
2.571171767
2.095724029
2.311272718
0.5646428261
1.078576002
0.5708828011
1.225698021
0.8934929053
0.6748370176
1.099318858
0.7033970832
1.206255032
1.193657523
1.784821023
1.323568909
1.142808173
2.215413781
1.820680002
1.534491397
2.040386418
3.848799185
1.722445073
1.953181961
3.26535041
4.041058233
2.447529635
3.697800631
2.041912983
3.666320259
4.193154743
1.950874452
4.905953195
2.104644697
0.5667666268
0.5818516479
0.4007173513
0.8408925598
0.6013232283
0.520122201
0.8815217003
0.7417032053
0.3497238401
1.023402305
0.6280403552
1.324549528
0.7903919026
0.5142155515
1.933831615
2.546894877
2.109874139
2.298139722
2.654282405
2.23344448
3.721908005
1.812418384
2.435704294
2.429955515
1.6440593
1.582034015
3.796924165
1.910595002
1.670095149
0.9690291628
0.1103350167
0.6142034099
0.8923352971
0.6354508888
0.5410207816
1.396968485
0.4936626918
0.7124753035
0.7738142943
0.5701614807
1.265811911
1.557204052
0.9402403455
1.144797583
0.7290612456
1.654910389
1.321538559
1.970464809
2.370279004
1.807256472
1.950912628
2.280882712
2.884655238
1.147985838
2.966987476
1.916838671
2.898743934
3.757606531
2.999312636
3.254557802
0.747122568
0.4289899128
0.7975118312
0.3829224139
0.9375578322
0.2727084016
0.9462719995
0.8111347882
0.7128083441
0.6162180813
0.7082774096
0.5731744092
1.130134515
1.24001895
1.009550194
1.11920557
1.245828221
1.463544279
0.7345471758
1.019404595
2.918327981
0.9965799337
3.585639954
2.539597956
1.937616034
3.963089398
4.078936923
2.698219431
2.197250346
0.4270598103
0.3864002939
0.4639057046
0.3275969256
0.1980554756
0.1972895702
0.2983814185
0.7915475443
0.5637544657
1.145873668
0.8024716303
0.3310368257
0.7663433852
0.4873253903
1.519014214
0.9157060666
1.744764803
1.22297494
2.439866685
1.141685174
2.108312616
2.232742719
1.295304712
1.478462624
1.645493804
0.2961387305
0.6322723217
0.3321272072
0.1467772746
0.5362614192
0.1536184412
0.2529431413
0.4128121932
0.9511590952
0.1265926262
0.5835265523
0.5089457854
0.6658773355
0.6879448634
1.474108101
0.7664668248
0.809343233
0.8848611615
1.758054412
0.4190090383
0.2887758746
0.5086650941
0.4449784862
0.2074508486
0.3883701326
0.6532018806
0.1306893161
0.7631235832
0.4297643269
0.6902653723
0.6505680531
0.8863205106
1.015130107
0.3635520146
0.7075390068
0.5522970011
0.1383105113
0.7235614019
0.3520483662
0.1700171141
0.2254611288
0.4819268085
)
;

boundaryField
{
    flow
    {
        type            zeroGradient;
    }
    obstacle
    {
        type            calculated;
        value           nonuniform List<scalar> 
30
(
0
0
1.937740594e-18
0
9.117199148e-19
2.050132444e-18
0
0
1.090990629e-18
0
0
1.315639414e-19
3.494985726e-18
0
2.81984172e-18
1.547754411e-18
1.641929736e-18
0
1.752391882e-18
0
0
4.410367398e-18
2.340935235e-19
5.571892056e-19
9.512331819e-20
3.841957563e-19
9.189264825e-19
0
4.628029587e-19
3.622861518e-19
)
;
    }
    frontAndBack
    {
        type            empty;
    }
    procBoundary1to0
    {
        type            processor;
        value           nonuniform List<scalar> 
21
(
3.162251181
2.133939767
2.663295001
3.535443807
2.964174479
2.363373285
1.493122451
2.118039031
0.6527583217
0.7488105517
0.6070412004
1.103785054
0.4155679952
0.5105551916
0.6838487127
0.3019791252
0.7006650185
0.3856004399
0.1997931093
0.2507585216
0.6086328602
)
;
    }
    procBoundary1to3
    {
        type            processor;
        value           nonuniform List<scalar> 
36
(
4.531670644
3.512803248
2.109348925
2.78226914
4.531670644
3.287145101
1.178157561
0.857915399
1.659114242
2.202410055
2.925504702
3.512803248
1.958263346
0.1652916452
0.7798739197
0.7549763806
0.7182374024
1.178157561
1.052141965
0.3334230097
0.1243437295
0.453922077
0.8919215335
0.9289331018
0.1652916452
0.2346506902
0.3740483127
0.6463974079
0.5334515861
0.2249363372
0.5479466725
0.328586549
0.3334230097
0.7062478665
0.3740483127
0.7266906872
)
;
    }
}


// ************************************************************************* //
