/*--------------------------------*- C++ -*----------------------------------*\
| =========                 |                                                 |
| \\      /  F ield         | OpenFOAM: The Open Source CFD Toolbox           |
|  \\    /   O peration     | Version:  2406                                  |
|   \\  /    A nd           | Website:  www.openfoam.com                      |
|    \\/     M anipulation  |                                                 |
\*---------------------------------------------------------------------------*/
FoamFile
{
    version     2.0;
    format      ascii;
    arch        "LSB;label=32;scalar=64";
    class       volScalarField;
    location    "0.012";
    object      internalEMean;
}
// * * * * * * * * * * * * * * * * * * * * * * * * * * * * * * * * * * * * * //

dimensions      [1 -1 -2 0 0 0 0];

internalField   nonuniform List<scalar> 
546
(
2.97842378
2.985326976
2.913717281
2.952545631
2.927326297
2.91315491
2.996953396
2.925493648
2.902468821
2.877202662
2.858801958
2.888089302
2.851556291
2.914684676
2.928790499
2.863278645
2.735121765
2.802905269
2.760827998
2.739688668
2.707398702
2.688919233
2.632425731
2.594039972
2.490388373
2.4278766
2.343524093
2.284755268
2.074797622
1.719320504
2.877248628
2.902057415
2.893880954
2.917207544
2.917802862
2.966050131
2.956618126
2.925794763
2.917310394
2.898501112
2.917430995
2.949699527
2.935042459
2.941391988
2.951280394
2.874672007
2.840785464
2.8320262
2.794329318
2.782189101
2.756894137
2.693568294
2.701036979
2.600153591
2.566318394
2.473921441
2.359604338
2.247058208
2.02974868
1.75724381
2.738216114
2.789267171
2.828084033
2.86625782
2.874241236
2.894446879
2.889206258
2.89074436
2.913484087
2.906916332
2.926711467
2.90247877
2.893050621
2.919611856
2.894062903
2.86186995
2.89967261
2.853884976
2.781122739
2.770824766
2.721046619
2.712245322
2.730937358
2.630901652
2.556868237
2.468448351
2.362322589
2.269395146
2.104278753
1.856321948
2.437527472
2.51742877
2.675914204
2.690848048
2.743867329
2.789334931
2.832817652
2.817835373
2.850800204
2.855992153
2.887649692
2.896727318
2.888568409
2.887163749
2.822468056
2.839170101
2.836049222
2.782828637
2.804697206
2.768698148
2.749935941
2.736056914
2.695667461
2.630629479
2.61551672
2.544408743
2.489570065
2.266673146
2.11607374
1.925227473
2.153745751
2.2692705
2.413172544
2.529665156
2.59569751
2.637287029
2.68562596
2.727130882
2.787487403
2.785667885
2.779529052
2.825545626
2.855154428
2.84535046
2.839777811
2.807090455
2.796489012
2.78753622
2.791042637
2.780107685
2.737401028
2.715110309
2.669368639
2.643554354
2.604933038
2.530348792
2.51067371
2.325187597
2.17538645
1.982711183
1.891344078
2.028852694
2.178805375
2.294439665
2.365295022
2.464969852
2.550257805
2.606271593
2.646052743
2.702816647
2.746436332
2.753586537
2.733262227
2.779735838
2.790016139
2.781277793
2.758326669
2.792876005
2.790735067
2.758796429
2.722841386
2.679648741
2.700723755
2.690593571
2.609753698
2.538732179
2.459464044
2.360567354
2.251933747
2.072820754
1.584462526
1.724662053
1.884824797
2.011920478
2.170298069
2.258926749
2.333750822
2.413777325
2.488324811
2.54621389
2.618372016
2.683340367
2.709609783
2.715948158
2.73235065
2.737568693
2.737623209
2.7871721
2.773092449
2.763804027
2.737414584
2.702035092
2.684152695
2.664063988
2.627936432
2.547387693
2.455407752
2.396897624
2.301595028
2.146547022
1.315713083
1.456669929
1.600905153
1.743961112
1.873958861
2.009029165
2.144141764
2.216021275
2.302662429
2.395272642
2.448046199
2.513091787
2.557232582
2.621706937
2.665746745
2.669375641
2.714526974
2.720356805
2.721719219
2.751694304
2.759357692
2.70926989
2.66852082
2.656603692
2.630191823
2.588087378
2.532164242
2.433627419
2.366484019
2.240606182
1.093785342
1.227810865
1.3463554
1.47708228
1.611713835
1.73226831
1.869015935
1.985656129
2.083401605
2.1969382
2.285634524
2.377049453
2.443605511
2.505559199
2.538197629
2.584601126
2.641519956
2.658911478
2.672575471
2.709990157
2.724543007
2.712013989
2.697908786
2.654351798
2.619950839
2.609588852
2.575951288
2.479854757
2.379027413
2.298080426
0.9017835775
0.9951481411
1.119858892
1.226965478
1.37862224
1.498797109
1.624361345
1.765305404
1.87780821
1.972804577
2.097415343
2.205204391
2.259841853
2.338021757
2.42629576
2.494962445
2.546239302
2.606148107
2.609024768
2.631498909
2.666066114
2.690804555
2.707974385
2.677113466
2.664779885
2.606418559
2.548907113
2.49176361
2.40262445
2.286343251
0.7926416061
0.8682865756
0.9470763046
1.047231279
1.133729017
1.247780626
1.37155808
1.505833466
1.638481312
1.777246802
1.892092628
2.00839701
2.115150074
2.210313307
2.288717436
2.347188219
2.41918911
2.485147653
2.526721336
2.551323832
2.59317957
2.625412797
2.621560704
2.666914436
2.609670533
2.582315037
2.536770883
2.500721987
2.460882183
2.353920374
0.6986433227
0.757977244
0.8163030454
0.8919866641
0.9713331212
1.064732026
1.179295984
1.285477972
1.404983348
1.528840492
1.66731756
1.794647488
1.913730153
2.029838838
2.118373083
2.203768798
2.266425585
2.35505272
2.435384183
2.4762368
2.521064822
2.543801111
2.551141411
2.557996644
2.575331182
2.557080244
2.523180439
2.499511869
2.466836232
2.429502185
0.6074356203
0.6517823414
0.7219222154
0.7754147537
0.8353557998
0.9125595414
0.9924990847
1.094003534
1.202192421
1.315759064
1.420626817
1.573064033
1.701492219
1.828241394
1.955414873
2.034000939
2.130563754
2.225075404
2.282734786
2.36231997
2.408342138
2.479727354
2.50948061
2.538240681
2.52123996
2.531214929
2.528657829
2.488329051
2.448920332
2.41358433
0.5519306434
0.5855482789
0.6258200791
0.6876354944
0.7452747062
0.8087289183
0.8670290129
0.9418798086
1.028479207
1.133309061
1.246299439
1.339329302
1.452722954
1.595483744
1.713932428
1.829544573
1.954010014
2.057264095
2.142088999
2.220559511
2.265444293
2.340956243
2.410859218
2.453428137
2.488074748
2.499920386
2.517586233
2.50180089
2.464394914
2.395018398
0.5170465984
0.5397055399
0.5727357912
0.5937138043
0.6434432902
0.6976939431
0.7501420239
0.8136407417
0.8919711876
0.9711971764
1.070331715
1.165955474
1.269974481
1.386677535
1.50024583
1.624183273
1.74826805
1.845188741
1.983714825
2.085439227
2.170428432
2.259094937
2.326996462
2.368104152
2.400461396
2.419073153
2.465275411
2.484362087
2.43913963
2.40755209
0.4926309924
0.5069558235
0.5334804023
0.5592240701
0.5888199574
0.625301578
0.6721746187
0.7270809683
0.7841855426
0.848824734
0.9133325681
1.001372128
1.094864178
1.191906289
1.318650055
1.422002657
1.551486228
1.653233491
1.756173388
1.858606694
1.97197661
2.07231442
2.141897077
2.22977882
2.303202656
2.343205774
2.353838823
2.392219923
2.400603331
0.4741417139
0.4807063416
0.4951310148
0.5207538939
0.5428795151
0.5759600214
0.6098302127
0.632666406
0.6732938299
0.7347141067
0.7907693573
0.8532509498
0.937790523
1.021313803
1.119567542
1.231644527
1.344593494
1.468223726
1.598030983
1.681879685
1.784596032
1.911468942
2.021133633
2.098104035
2.160212575
0.4614357894
0.4714387872
0.4823818442
0.4976919061
0.5107822046
0.5260248422
0.5508491188
0.5869325931
0.6134608406
0.6548143307
0.7072778259
0.7555381743
0.816114139
0.8940775655
0.9723284205
1.055326117
1.157274237
1.266208679
1.370170995
0.4462044191
0.4537822996
0.4664798397
0.4788114312
0.490271519
0.5043383477
0.5222774451
0.5384051956
0.5685724756
0.5921088217
0.6329720011
0.6779536854
0.7207900712
0.7820000982
0.4410407172
0.4480687664
0.4494330062
0.455696223
0.4692840762
0.479003138
0.4928540664
0.5090593559
0.4295999473
)
;

boundaryField
{
    flow
    {
        type            calculated;
        value           nonuniform List<scalar> 
15
(
1.719320504
1.75724381
1.856321948
1.925227473
1.982711183
2.072820754
2.146547022
2.240606182
2.298080426
2.286343251
2.353920374
2.429502185
2.41358433
2.395018398
2.40755209
)
;
    }
    obstacle
    {
        type            calculated;
        value           nonuniform List<scalar> 
30
(
1.192722364e-18
1.161789407e-18
1.148172522e-18
1.19106272e-18
1.156317147e-18
1.151963537e-18
1.162773712e-18
1.16967624e-18
1.219445168e-18
1.107307659e-18
1.130122432e-18
1.145136359e-18
1.110906281e-18
1.107181977e-18
1.181383436e-18
1.084123111e-18
1.065706717e-18
1.101452692e-18
1.083729338e-18
1.028165436e-18
1.060105233e-18
1.047490451e-18
1.045318746e-18
1.073455014e-18
1.013975168e-18
9.458303464e-19
9.336267849e-19
9.231837225e-19
8.489276329e-19
7.44843292e-19
)
;
    }
    frontAndBack
    {
        type            empty;
    }
    procBoundary1to0
    {
        type            processor;
        value           nonuniform List<scalar> 
21
(
2.975002783
2.834934055
2.648522971
2.355841632
2.042470988
1.728366029
1.422131086
1.168039403
0.9765598955
0.8200014597
0.7229352078
0.6379866302
0.5685998212
0.5256540698
0.5006421118
0.4768433265
0.4605468345
0.45303662
0.4434818217
0.4365415013
0.431576355
)
;
    }
    procBoundary1to3
    {
        type            processor;
        value           nonuniform List<scalar> 
36
(
2.379563573
2.219648001
2.279975681
2.327803695
2.379563573
2.339813164
1.473935511
1.592484505
1.71750051
1.829189609
1.948708374
2.219648001
2.059724419
0.8448910558
0.9190292973
1.006758457
1.093748295
1.473935511
1.208281951
0.5289945344
0.5491524039
0.5734059811
0.6025438129
0.6408391982
0.8448910558
0.682436097
0.4334008414
0.4400799165
0.4434255916
0.4527701143
0.4623514094
0.469828233
0.5289945344
0.4826177389
0.4334008414
0.4255912519
)
;
    }
}


// ************************************************************************* //
