/*--------------------------------*- C++ -*----------------------------------*\
| =========                 |                                                 |
| \\      /  F ield         | OpenFOAM: The Open Source CFD Toolbox           |
|  \\    /   O peration     | Version:  2406                                  |
|   \\  /    A nd           | Website:  www.openfoam.com                      |
|    \\/     M anipulation  |                                                 |
\*---------------------------------------------------------------------------*/
FoamFile
{
    version     2.0;
    format      ascii;
    arch        "LSB;label=32;scalar=64";
    class       volScalarField;
    location    "0.012";
    object      internalT;
}
// * * * * * * * * * * * * * * * * * * * * * * * * * * * * * * * * * * * * * //

dimensions      [1 2 -2 0 0 0 0];

internalField   nonuniform List<scalar> 
546
(
705.8536909
707.0310729
696.470393
701.934498
704.104517
705.0184379
712.4441848
700.291327
690.5901741
692.7107261
694.0634762
694.8010946
691.5994545
698.1001748
698.2623066
698.8980624
688.4480992
689.3870084
682.9708549
688.0728381
685.6259004
671.630459
669.159877
668.8763982
661.4759985
662.985473
667.8240982
673.7417962
665.0202226
659.771802
755.4478966
764.8148221
769.998153
770.9682114
774.3551816
779.6750116
779.2679201
772.4043787
772.7506134
774.7718783
773.2838221
774.4351273
769.6855816
772.9532478
777.1281031
766.9026847
766.0947769
755.5024324
752.3779114
759.7044358
753.5942034
739.7704046
741.1077254
730.3045334
736.7579251
723.3629123
721.4506653
727.5424542
716.6536552
732.0398041
768.6711014
778.7469557
790.248332
797.7075322
804.7932099
812.1740128
806.9741192
812.1080249
806.6727686
813.0493658
813.3755381
801.9493098
803.8967089
813.651265
808.6638661
813.0739398
816.404144
800.9950495
793.9992503
796.2216726
791.4844927
789.7003142
779.1260808
782.5278457
776.6292004
769.1835831
755.7259971
760.9047202
761.0499561
767.3208758
731.8261035
744.0480417
772.4180638
774.8411981
786.1644129
799.6697002
804.7572939
805.6719667
817.6599938
819.2524647
827.8707961
833.5829866
826.4107664
828.7241918
819.6116937
823.3183875
824.2636079
811.5422096
819.1429989
816.0454596
819.0693555
815.3473039
811.9264982
801.314941
809.7266128
804.5552063
812.4965969
782.5178482
764.7589031
758.7720325
688.4580393
711.6378884
732.2557167
746.7931036
757.5044168
772.7770316
781.9114484
793.3772933
805.5443391
809.6241974
811.7626115
816.2778743
821.9287863
823.6696515
826.5713082
821.2465679
828.6028052
825.6154126
828.2748478
830.6706903
826.3380871
827.4831825
822.984175
821.8923735
823.718348
810.9273617
815.4716545
802.8256687
790.1082397
783.2387514
650.2926193
670.0813404
693.9886272
714.286797
725.278673
747.8360948
761.8483703
769.4411188
775.2060882
790.4773667
797.369498
802.5650208
804.6971393
813.3067788
821.4678079
819.3113071
821.7879286
824.5112057
825.488469
824.6873163
821.8529304
824.038323
837.0189072
837.8352067
823.8555918
817.3973222
817.2143337
807.8606188
803.8116991
798.8605065
601.8901121
618.6806971
649.0106296
669.3512954
693.840503
707.6440446
719.4585476
730.9412603
749.1753813
756.2776515
771.9048866
784.7171845
792.6943116
799.1663763
803.1697512
807.8847605
812.8792298
824.0969979
826.1481748
827.4748906
821.8923719
820.0519785
829.0445442
831.6805201
822.826673
822.3428906
808.8390403
814.1610786
815.5629042
801.3977444
552.9720542
576.0207651
599.5034047
620.3518441
644.9182998
665.5055583
685.4516605
691.052186
710.2149336
725.9176034
732.2319982
742.5009342
757.8735078
772.8243178
781.0690225
779.7260681
791.7639465
802.5293084
808.1158941
816.2860584
819.7562178
816.7426183
812.759928
821.3829721
821.5508969
821.8239789
816.5318664
813.9852712
812.7692145
805.0186867
504.0019582
534.2637077
553.2463143
574.1621962
596.8785838
615.3735472
635.6438226
656.1455669
670.6450772
692.7046931
705.7001313
714.7571503
725.6652541
740.8605598
750.5662728
756.5591444
773.7227462
778.7462417
784.7328231
797.7477126
807.9107216
809.2860796
813.3026471
809.9809945
809.6704805
811.7010849
819.77743
812.0196569
804.7529117
805.0010706
460.7745238
482.5974479
512.8003709
529.2208931
556.8544738
578.9065478
597.5914328
620.6446084
635.8710571
647.0728976
667.4936122
682.3234559
692.4154507
705.031001
722.2366878
737.330321
748.9058901
760.2007863
770.384136
775.7513691
782.7987728
791.9908002
802.2339844
805.9174434
807.1566279
800.0821358
800.1759211
799.2194629
797.1299726
788.6200736
433.9124266
451.7325221
468.6462343
489.9696433
504.3259542
525.1285872
546.2211512
570.6712454
589.4273637
611.9157747
630.5374559
650.3239149
665.2608543
677.6319809
692.4351526
704.5271885
716.547691
729.5234977
739.479014
747.8454844
757.6304429
769.8337389
774.08645
788.0438287
788.9895405
788.1569179
783.2637734
783.8805316
789.3607816
783.7589886
407.2752345
421.0326521
434.8764934
452.6780543
466.8002601
484.9956625
510.0608466
526.8090677
545.8876531
567.977788
591.8908482
613.3797584
631.3692201
647.0631735
660.2019996
674.2675136
684.8775186
701.8800498
715.3312889
726.4681033
737.7933832
743.6083736
749.5201621
754.2200771
765.5231667
768.1047271
768.1165861
775.1427966
774.5049511
776.2484401
374.3256822
388.7544901
410.8191298
425.4763703
439.5220722
456.012076
469.4808324
494.4329511
515.2821735
536.1713705
551.8835119
575.2351071
592.797273
613.0686518
633.6461985
644.7621135
660.2985028
673.6682176
682.5781861
697.8671742
710.3377719
721.7180577
731.7756811
739.4537785
740.5434932
747.5128938
753.9458579
751.2819472
754.8864611
761.567472
357.1881933
368.5754974
382.1532109
400.1846716
415.9692799
432.7678966
443.8821827
459.2587617
476.1884014
495.1557245
515.6988788
532.4378194
551.8302785
575.1166768
592.4403659
609.3830426
627.9096553
642.9914139
655.8170098
666.9247733
672.5157229
692.4512598
702.242137
712.573904
725.4563237
730.5126226
735.3404465
742.6077694
746.9519814
744.0732806
341.9933244
348.620716
360.8310484
366.8873718
381.3473269
398.1422218
412.1182041
427.9792806
445.6088684
462.1835451
482.9684728
500.9039973
516.260246
536.6905419
552.8770449
571.1880434
592.4579092
606.8275726
629.0440074
642.9800042
655.0607142
667.0990585
679.9047684
687.3709484
695.2313213
704.8635652
715.0266726
724.3342845
723.3965361
730.0936578
334.4369835
340.5353014
350.2136074
360.3670256
370.2665371
381.1436359
392.5261052
407.5203735
421.5639254
438.7581936
449.3535896
465.927105
485.9117295
499.3528637
524.0013739
538.3655217
561.8425898
575.7626379
591.7622621
603.444537
621.1040179
636.4545119
645.3419669
660.2074655
673.7676525
682.8329788
687.3784059
699.7344878
705.6331631
325.0690989
327.4090513
333.709383
342.6213498
351.7289183
362.5671768
373.8673856
375.3267372
386.5656796
403.5646156
416.5798145
431.7312473
453.0761027
472.5919891
488.8644191
510.1097021
524.425517
541.6722609
560.1956885
575.3867033
586.6993736
603.6028471
623.1467347
632.1324906
645.5782059
322.3242011
325.4134057
328.7324373
335.1829585
338.9926662
344.2068895
354.9699726
369.4097441
373.7160512
384.8672561
403.110612
413.0221616
427.0593889
443.4808715
457.2850268
471.4737708
492.4480617
511.7067941
527.8744326
313.8462853
316.8196075
323.2153726
328.5285865
332.9241572
336.9817884
341.640232
347.3854413
358.7071479
366.2129891
375.0182594
389.3740079
399.4684738
417.2900695
313.6421457
316.3858462
315.5156717
318.3759893
323.3076831
328.6193272
333.5564753
338.8241718
307.0334199
)
;

boundaryField
{
    flow
    {
        type            calculated;
        value           nonuniform List<scalar> 
15
(
659.771802
732.0398041
767.3208758
758.7720325
783.2387514
798.8605065
801.3977444
805.0186867
805.0010706
788.6200736
783.7589886
776.2484401
761.567472
744.0732806
730.0936578
)
;
    }
    obstacle
    {
        type            calculated;
        value           nonuniform List<scalar> 
30
(
636.7734797
617.1561677
628.6736097
631.1312931
634.2186673
643.2689868
629.2623667
645.5725348
644.3025948
620.4127202
640.1688227
613.5439792
624.8264474
616.1961513
635.8878635
624.6242365
625.8166329
632.3803765
617.356549
579.9467826
630.7213364
615.9882172
609.0982168
633.3766157
606.5700728
619.2800162
619.6737657
615.9158474
623.2099931
619.5725865
)
;
    }
    frontAndBack
    {
        type            empty;
    }
    procBoundary1to0
    {
        type            processor;
        value           nonuniform List<scalar> 
21
(
703.6169897
754.3536941
751.397476
716.8240273
673.9837733
629.776412
571.2491052
519.8129926
478.3930823
442.5748586
414.8682773
385.8822148
359.5325659
345.1672192
339.593782
327.7458049
319.2152236
319.4448166
313.5062052
311.9221836
306.6284961
)
;
    }
    procBoundary1to3
    {
        type            processor;
        value           nonuniform List<scalar> 
36
(
706.9956156
657.2128662
664.4967309
678.6885183
706.9956156
684.8682562
539.7639725
558.5999
575.258306
591.824388
609.983051
657.2128662
624.8171564
431.0412272
443.0043855
464.3609334
478.5822045
539.7639725
500.6312663
345.6915933
351.1996965
361.8758988
368.2593451
380.1280038
431.0412272
390.2864855
307.5419333
311.169786
312.7090346
315.918123
319.1666505
322.4866044
345.6915933
327.1009231
307.5419333
303.7649645
)
;
    }
}


// ************************************************************************* //
