/*--------------------------------*- C++ -*----------------------------------*\
| =========                 |                                                 |
| \\      /  F ield         | OpenFOAM: The Open Source CFD Toolbox           |
|  \\    /   O peration     | Version:  2406                                  |
|   \\  /    A nd           | Website:  www.openfoam.com                      |
|    \\/     M anipulation  |                                                 |
\*---------------------------------------------------------------------------*/
FoamFile
{
    version     2.0;
    format      ascii;
    arch        "LSB;label=32;scalar=64";
    class       volScalarField;
    location    "0.012";
    object      linearKE;
}
// * * * * * * * * * * * * * * * * * * * * * * * * * * * * * * * * * * * * * //

dimensions      [1 -1 -2 0 0 0 0];

internalField   nonuniform List<scalar> 
546
(
5.759261023
6.595353569
4.912045656
9.41158072
4.579751041
8.006727452
4.185997813
7.003509825
4.396690232
6.434629197
4.512962548
4.675391938
6.359168293
4.847011027
4.991364292
6.764731835
4.843028251
5.371546379
6.753256499
5.720692796
5.545394755
3.154154637
5.9314859
4.597858951
2.772836236
2.757987159
7.100173869
4.956920217
4.381055248
3.484736986
8.794295899
6.992483138
4.388450884
8.55344542
8.42490606
8.294667
5.062247015
3.932451118
8.15977815
8.096503363
7.328504177
6.540780228
9.359919879
5.402711521
6.128149638
5.055521561
7.716803158
4.523841156
5.996055786
4.718626927
7.789284428
3.608386785
4.991738726
5.663121589
8.027053078
3.082950118
3.339214081
6.56927082
4.183679535
4.905813087
14.86880204
10.00443956
5.637010435
10.64441632
6.082521801
10.83670628
11.12544364
11.98670749
10.80684062
9.743428125
10.89769594
6.228295565
6.618149135
7.6901456
4.481088923
8.11209495
8.978517785
7.989356339
8.658137281
5.035717139
10.58241803
7.586415086
7.399645026
4.179337265
4.980102844
6.160485707
3.339136083
7.010465242
6.542475729
4.758538878
13.36292383
6.736312279
8.92595832
9.347755014
11.50515767
10.94664658
10.80234268
6.444949598
16.2796043
10.9036876
5.337343333
6.345759087
10.01080831
6.426856672
10.23689755
9.948616555
9.114132829
7.41173388
6.903283066
5.891028329
7.685638526
8.39589774
8.980389205
5.292442607
8.125655228
8.923479899
8.150583831
2.259733266
4.175490381
7.701439191
12.43176662
10.48287462
9.014989048
10.77810089
10.97349938
11.16746022
9.391959545
4.093698393
10.80439957
12.47146121
6.528968178
10.31349754
11.99032102
6.49445431
11.41496607
5.817337253
8.08273782
6.711210008
5.481835053
7.027157077
4.629812452
9.491558628
14.20926773
8.402761212
7.283602156
4.46050946
6.927999268
4.40510357
4.523562868
9.21729821
12.50658933
18.35600223
13.70438379
13.67377879
17.46014592
12.03328575
11.55066206
15.79183606
20.76202782
17.33443564
18.41907679
7.030173455
9.62919918
11.40455273
8.693565297
9.578214576
5.386507018
10.1251897
6.156318345
8.076066258
13.13182865
6.522454432
9.635053033
7.91364738
10.01104257
7.099281274
13.26310922
3.126052798
6.368364531
8.024424211
7.962689271
11.5202953
15.75802858
15.60839858
11.70910291
10.12952129
13.782819
12.32205318
10.10002824
16.15432191
13.30456586
10.27918617
13.44282773
16.02091848
15.1648942
9.12842681
12.34755732
8.304575244
8.686943644
8.971055948
12.02607674
17.52666994
8.05115966
10.38375593
7.722878459
10.16861708
10.99506281
13.85822565
8.217158553
11.97816555
9.86673231
10.86423344
12.91582804
13.19237201
9.8088623
12.49686807
11.66322657
17.32090824
18.83486482
10.16024558
15.09347861
8.553528389
12.72224846
9.294337165
8.356063343
8.91513868
8.771603543
6.168136715
10.62350185
9.215422202
15.6336074
6.870018805
5.080680873
7.660228138
13.1441872
11.91370831
9.881691135
11.20895942
8.179574519
14.13304523
8.981523489
12.88236558
10.74844129
19.96341399
11.54010044
12.2686559
16.67291927
13.02792332
10.66426133
13.18933553
14.24246528
9.334515912
14.1821248
9.342638959
9.778031581
11.97767065
17.83530975
5.810838119
11.45355779
8.136719044
11.80281401
11.62594252
9.509643485
10.42622423
14.86480084
6.8330062
13.24596444
10.28097462
8.706786246
4.760304354
7.664432611
7.641117781
8.249282827
13.49629801
11.96364571
13.05058627
8.887887523
11.56202787
15.77889851
17.58939403
13.51940701
24.07476669
17.16828971
20.40160313
14.13957635
16.0289992
13.96794568
11.2251372
16.9053033
13.49939302
10.43681452
17.77048305
8.90212199
13.16606353
15.99929512
11.9884807
14.13221341
8.994359664
5.27260512
14.73914634
9.1090727
7.213966679
9.073977929
8.147216431
10.90253701
9.283761624
9.913551591
12.8109139
17.59046856
18.96720247
18.62647227
20.77255112
14.63933726
11.7354196
16.39258576
7.511321914
14.5544505
14.6433615
8.394311282
11.05967323
19.29213486
7.174502829
15.64705868
11.21839218
18.9206015
7.266281215
14.88622014
15.16389435
9.69889448
9.728166479
6.755793238
12.6025547
11.12532231
3.927382674
5.337246341
17.38327363
18.48468279
22.87775979
11.17428424
14.8194565
13.41770649
12.88158625
15.85427581
16.84074915
9.66489189
16.54574312
16.13732536
9.298353043
12.65177167
14.65857687
16.21531055
18.24631014
13.92346471
12.94517461
14.02454922
15.83389848
11.40806301
12.85064143
15.31992153
11.04619248
10.33669592
10.98817294
8.876977298
13.89578459
12.87397931
12.34836175
13.22343131
12.39188951
19.24845905
11.88295755
13.65924427
16.0056271
14.26346322
18.93852872
17.09947661
11.63067569
11.21041903
20.84450559
19.53511141
18.90867834
18.96258863
18.9967914
12.89781957
14.64099126
15.64063972
16.51380455
8.391615069
9.786099492
21.21855609
13.06049597
7.755215268
9.651214111
7.462724057
11.35044867
9.890544722
10.79863472
10.62005625
10.9960234
8.608416393
12.69842317
11.33614888
19.52438763
15.80472655
5.819512228
18.97903445
18.17090016
15.28089919
11.62439274
13.74702425
17.48622988
19.35624096
12.96382009
22.74789658
14.00814782
17.84743157
8.823711537
11.1616319
12.70917279
10.48149008
4.063867414
5.781570484
6.499840959
6.393144465
11.30865119
10.1634252
11.68052274
8.406283918
10.68080185
11.75931965
6.398033725
7.43292447
12.90198074
12.88790396
12.85559054
9.620932924
18.9738379
7.072655033
16.87690788
16.06899211
18.37007756
13.47096161
12.17902461
17.01666764
8.09346691
19.46667232
10.25696375
11.00535866
14.38061828
9.269556145
14.2383068
8.579172178
7.547766625
11.07467468
9.46955061
9.365386503
7.539365278
11.03470122
6.43112745
8.894654265
9.165926686
8.479360478
6.360364172
15.23194164
13.19975592
8.512225612
13.94947299
16.11816455
11.01437543
11.6044147
8.646261033
11.67459283
12.45742353
14.68297985
16.19066054
15.2208518
20.04761419
19.48517717
19.7491564
9.82473374
5.92847527
6.529848829
11.66327912
7.740734068
7.702037646
5.111588726
9.561249737
7.848337965
8.710616707
13.32529923
10.79306053
10.43808847
11.52009809
5.240179954
17.31867733
13.65899908
18.47292324
14.7815585
23.33925652
11.24245601
18.97227431
19.09759525
9.836262045
10.60540003
10.52661039
6.408506793
8.778573111
12.28684121
4.704878413
11.48207684
2.332483218
5.33917894
6.997064484
11.9316935
3.34768215
7.279848312
4.781997776
8.970256697
11.87380054
10.98651914
8.607149038
11.95185161
11.11582331
17.36571325
12.02203435
6.594690398
9.330911199
8.972603398
5.208345662
9.181389143
11.08463816
6.765542478
8.221376774
8.83328912
9.988831238
10.97929004
11.90234092
11.22407463
6.681344615
6.258813456
7.509111026
5.723700638
8.519222121
9.183219763
6.388286409
4.699527118
6.206276291
)
;

boundaryField
{
    flow
    {
        type            zeroGradient;
    }
    obstacle
    {
        type            calculated;
        value           nonuniform List<scalar> 
30
(
0
0
3.542783331e-18
0
3.942346555e-18
3.359964899e-18
0
0
1.898475192e-18
0
0
1.443310473e-18
5.66707735e-18
0
1.776034698e-18
3.436254464e-18
3.217244915e-18
0
2.028297818e-18
0
0
4.262549791e-18
5.777943785e-19
2.746756505e-18
2.738399669e-18
1.09477947e-18
1.706997345e-18
0
5.873216667e-19
6.2179631e-19
)
;
    }
    frontAndBack
    {
        type            empty;
    }
    procBoundary1to0
    {
        type            processor;
        value           nonuniform List<scalar> 
21
(
5.466891392
6.284535302
11.85867681
14.85712327
14.84566095
13.61584902
11.17727331
13.66561637
10.09405144
6.922779616
6.610249031
8.056481955
6.843350642
8.518869709
6.106055159
6.059322563
12.49904269
7.160510455
4.564440755
5.48693394
11.32860584
)
;
    }
    procBoundary1to3
    {
        type            processor;
        value           nonuniform List<scalar> 
36
(
18.94156485
21.81974421
10.58933608
16.37160442
18.94156485
16.9438751
8.600607113
6.854441697
10.7628892
20.56027702
18.56659948
21.81974421
16.9300695
6.637930166
9.616963852
8.65197057
8.162749265
8.600607113
14.57665054
4.479862915
6.624312025
10.74879321
15.03431625
10.19061252
6.637930166
4.358831826
4.666087142
8.104612996
12.82031672
4.769331288
10.21407648
5.011069603
4.479862915
14.57129903
4.666087142
11.78408146
)
;
    }
}


// ************************************************************************* //
