/*--------------------------------*- C++ -*----------------------------------*\
| =========                 |                                                 |
| \\      /  F ield         | OpenFOAM: The Open Source CFD Toolbox           |
|  \\    /   O peration     | Version:  2406                                  |
|   \\  /    A nd           | Website:  www.openfoam.com                      |
|    \\/     M anipulation  |                                                 |
\*---------------------------------------------------------------------------*/
FoamFile
{
    version     2.0;
    format      ascii;
    arch        "LSB;label=32;scalar=64";
    class       volScalarField;
    location    "0.012";
    object      linearKEMean;
}
// * * * * * * * * * * * * * * * * * * * * * * * * * * * * * * * * * * * * * //

dimensions      [1 -1 -2 0 0 0 0];

internalField   nonuniform List<scalar> 
546
(
6.989065898
6.784539136
6.586457124
6.415735951
6.231894008
6.104122124
6.084102108
5.951827748
5.855509903
5.741180866
5.601953068
5.586365563
5.484031105
5.530688192
5.436786998
5.254326351
5.104442618
5.134042098
5.076404335
4.98214774
4.958335867
4.920191007
4.834878852
4.840980542
4.683260939
4.566592615
4.404429806
4.253020671
3.990337934
3.575077797
8.787884549
8.494920358
8.185360545
7.961081504
7.74091185
7.573222282
7.335136205
7.169659505
7.005249671
6.862679643
6.725510888
6.640608207
6.547071202
6.458258825
6.343360646
6.143720609
6.023782178
5.94830309
5.851195774
5.737912184
5.646198739
5.575277661
5.540159249
5.403451696
5.28929648
5.166248273
4.98904836
4.774151168
4.501530066
4.118561548
10.26413371
10.03784123
9.752325006
9.521143986
9.20685775
8.834664763
8.659427157
8.428646937
8.26791829
8.075313056
7.89030167
7.770732117
7.558686533
7.365625754
7.239267265
7.057491623
6.955075962
6.867585855
6.641870587
6.538473281
6.379679357
6.316795544
6.27623968
6.031001469
5.878474667
5.710667108
5.564070653
5.382815727
5.169732301
4.833038807
11.36446967
11.27294461
11.14464942
10.8539414
10.61554712
10.41113224
10.12596194
9.843968523
9.52478742
9.328868446
9.10729528
8.852802712
8.666406793
8.48426547
8.261659916
8.093099746
7.957232241
7.757232182
7.585559599
7.418196426
7.271638257
7.076164817
6.947311517
6.819993845
6.653422745
6.504197288
6.266563143
6.053622085
5.866257241
5.609355056
11.90371211
11.86752858
11.97805189
11.97876543
11.80248224
11.53927773
11.31905417
11.08073958
10.84778883
10.52273625
10.25145308
10.11869525
9.945087873
9.657442163
9.408489555
9.163343809
8.876813333
8.69221667
8.499952185
8.311267641
8.115822462
7.929320802
7.779660952
7.633072497
7.461627073
7.292931635
7.158851759
6.797557691
6.522016833
6.20841509
12.00758821
12.24502043
12.44442886
12.48988641
12.38311152
12.27164178
12.20836466
12.06017571
11.86725049
11.67556722
11.51865862
11.23400695
10.90437432
10.73170271
10.42923341
10.17833662
9.913503978
9.808722184
9.632070015
9.33594231
9.048577771
8.858026902
8.636147765
8.419705434
8.274545999
8.083816113
7.805566619
7.58943804
7.334421559
6.989335067
11.62698868
12.07111117
12.28545002
12.45237792
12.69649062
12.79684573
12.78864534
12.76694126
12.68860587
12.5730692
12.35371999
12.14109213
11.99293182
11.70153268
11.43418829
11.24267241
10.97386505
10.73587341
10.51198907
10.28491817
10.10095404
9.853982788
9.578385363
9.378871664
9.197195157
8.848376889
8.658498974
8.433833286
8.112389124
7.796128596
11.00912704
11.45668799
11.96414568
12.41215346
12.61528701
12.86198401
13.1102087
13.22251209
13.18625126
13.18820639
13.09290756
12.99829933
12.74500008
12.5896741
12.48093558
12.30156879
12.07623911
11.74502111
11.54380946
11.3343385
11.13300958
10.88817578
10.54754392
10.2634033
10.00908923
9.737448074
9.548199221
9.215857606
9.010576808
8.642133763
10.51700204
10.96393853
11.42043941
11.83330864
12.29798208
12.56114041
12.89103226
13.11909405
13.32109185
13.42544294
13.51663215
13.60512208
13.54850311
13.41971591
13.244805
13.11680731
12.94261305
12.73284885
12.47002739
12.25093089
11.91222613
11.72935959
11.41600738
11.18851345
10.92191117
10.73316794
10.41170429
10.14063519
9.780693983
9.509172777
9.844974639
10.19808683
10.67387772
11.14966063
11.69343198
12.09853646
12.51184343
12.9168392
13.2103581
13.48032707
13.7181778
13.90497079
13.89573465
13.86629323
13.83323577
13.77731106
13.68977227
13.4988917
13.21678506
13.04059406
12.83899034
12.63771837
12.44230141
12.14065412
11.88693816
11.57961041
11.22769772
10.94090456
10.54109168
10.17150888
9.448475042
9.799579277
10.17222616
10.65149079
11.03463516
11.5223555
12.03079341
12.43096983
12.91904152
13.30377969
13.59096795
13.82158682
14.07935223
14.20122013
14.21062187
14.19666875
14.21705805
14.14399305
13.99213967
13.82709676
13.63751945
13.42591063
13.18401896
12.93383704
12.56620538
12.39277772
12.06042932
11.7624909
11.46429094
11.06478599
9.06762383
9.38775091
9.696198832
10.06838527
10.5528911
10.96552621
11.39867384
11.87446004
12.39998666
12.80456722
13.26742304
13.56338606
13.90380554
14.22581203
14.42483573
14.5129485
14.55400585
14.55199352
14.57408465
14.39633793
14.26286771
14.10200572
13.91254539
13.67420503
13.3978085
13.16129594
12.87370856
12.53974691
12.2487639
11.98981632
8.771778891
9.007254357
9.337660613
9.540688919
9.874236308
10.25473625
10.65574186
11.07726088
11.56146599
12.00116567
12.47281233
13.06757921
13.53074562
13.9031284
14.2387835
14.46870448
14.59732043
14.77012591
14.86806835
14.8793176
14.8065002
14.78445273
14.60494967
14.48239702
14.20446065
13.94342619
13.69398097
13.40946317
13.08539938
12.76411765
8.453851005
8.636521646
8.820949303
9.191664284
9.514449804
9.824711202
10.14585067
10.53788553
10.93558666
11.45068175
11.954323
12.35745793
12.80884341
13.2909427
13.70008949
14.12164012
14.51674807
14.75310186
14.98406714
15.11229442
15.17192468
15.06857106
15.06165613
14.89766973
14.77886758
14.62886064
14.50238826
14.19405547
13.8201241
13.44502407
8.386352173
8.54758971
8.693098638
8.794246051
9.095706983
9.360858704
9.632132563
9.971291715
10.38571318
10.76225119
11.2287976
11.65798356
12.17474992
12.69606022
13.1948531
13.71471267
14.10211354
14.41601689
14.76455469
15.04771931
15.25232044
15.4480106
15.49764594
15.48348322
15.35711651
15.15570061
15.03493347
14.82185509
14.51762973
14.16538232
8.171946457
8.235588526
8.392423631
8.497999607
8.657719885
8.866705156
9.1698832
9.47264099
9.788768261
10.11051018
10.54400174
11.03992229
11.47680508
12.02826971
12.51446543
12.96367093
13.42896471
13.84693557
14.23501223
14.63826553
14.97366009
15.18733854
15.38158091
15.46188176
15.590424
15.52402399
15.34752686
15.24216837
15.0510474
8.176340817
8.207319257
8.271222556
8.408416206
8.508955517
8.695335503
8.89179053
9.138219122
9.365068087
9.706037929
10.02467039
10.35258186
10.74381017
11.1554988
11.66683618
12.20704095
12.82198354
13.36248464
13.94678996
14.2256415
14.67492501
15.07209528
15.33668035
15.58251129
15.66039048
8.024642355
8.093020833
8.178138109
8.265248632
8.352215124
8.463099375
8.568520579
8.722369747
8.961422822
9.229237725
9.442293693
9.762314603
10.12657833
10.58403944
11.04782914
11.51364902
12.01145684
12.51725192
12.98247311
7.993984578
8.034761721
8.099682604
8.166154915
8.232605222
8.3197366
8.462945979
8.555560468
8.694473947
8.829291502
9.169213629
9.408386381
9.672844382
9.939030949
7.960161651
8.013020273
8.039677396
8.040199094
8.149397542
8.151389784
8.226340388
8.334915235
7.927212152
)
;

boundaryField
{
    flow
    {
        type            calculated;
        value           nonuniform List<scalar> 
15
(
3.575077797
4.118561548
4.833038807
5.609355056
6.20841509
6.989335067
7.796128596
8.642133763
9.509172777
10.17150888
11.06478599
11.98981632
12.76411765
13.44502407
14.16538232
)
;
    }
    obstacle
    {
        type            calculated;
        value           nonuniform List<scalar> 
30
(
2.367462092e-18
2.379896497e-18
2.264015897e-18
2.314333918e-18
2.173766584e-18
2.159900221e-18
2.168640714e-18
2.131002437e-18
2.124137536e-18
2.027280691e-18
2.025014128e-18
2.064620815e-18
1.996742273e-18
2.001021912e-18
2.023379758e-18
1.925875943e-18
1.874320527e-18
1.871637305e-18
1.88526452e-18
1.922175758e-18
1.831996525e-18
1.833513759e-18
1.790348007e-18
1.853852138e-18
1.777944836e-18
1.692052431e-18
1.669088141e-18
1.646453532e-18
1.516649472e-18
1.400304372e-18
)
;
    }
    frontAndBack
    {
        type            empty;
    }
    procBoundary1to0
    {
        type            processor;
        value           nonuniform List<scalar> 
21
(
7.195876796
9.060309005
10.49581001
11.56562555
11.76057902
11.62160769
11.21255479
10.56450508
10.03444364
9.493514018
9.114239286
8.831603287
8.598001943
8.395873688
8.221896504
8.103014417
8.1296747
7.957690834
7.978251823
7.916947772
7.969891094
)
;
    }
    procBoundary1to3
    {
        type            processor;
        value           nonuniform List<scalar> 
36
(
14.80562182
15.67588721
15.77428996
15.62643053
14.80562182
15.52801668
13.50558076
14.00738694
14.56498564
14.96491984
15.33197814
15.67588721
15.61295874
10.33067401
10.83846403
11.25380239
11.76707626
13.50558076
12.25353376
8.47224778
8.630386865
8.703340433
8.951041478
9.210190703
10.33067401
9.483667444
7.975337065
7.984664817
7.998733516
8.078122804
8.163224942
8.201190084
8.47224778
8.260968313
7.975337065
7.948398882
)
;
    }
}


// ************************************************************************* //
