/*--------------------------------*- C++ -*----------------------------------*\
| =========                 |                                                 |
| \\      /  F ield         | OpenFOAM: The Open Source CFD Toolbox           |
|  \\    /   O peration     | Version:  2406                                  |
|   \\  /    A nd           | Website:  www.openfoam.com                      |
|    \\/     M anipulation  |                                                 |
\*---------------------------------------------------------------------------*/
FoamFile
{
    version     2.0;
    format      ascii;
    arch        "LSB;label=32;scalar=64";
    class       volVectorField;
    location    "0.012";
    object      momentum;
}
// * * * * * * * * * * * * * * * * * * * * * * * * * * * * * * * * * * * * * //

dimensions      [1 -2 -1 0 0 0 0];

internalField   nonuniform List<vector> 
546
(
(0.004595088027 0.001730344429 0.000368234948)
(0.006984610814 -6.744952313e-05 -0.001566602582)
(0.004157635703 0.0007048573247 -0.0003199744165)
(0.008659786871 0.002431731432 -0.0002749447934)
(0.003056925617 0.001966986122 0.001524300474)
(0.003118331397 0.001198617511 -0.0001675615303)
(0.002419112852 0.001913833991 -0.0008701730822)
(0.004302594952 0.0002846351561 -0.0004591544724)
(0.003550999868 4.206766402e-05 -0.0005220355645)
(0.004413267712 -0.0005824568066 -0.001126019509)
(0.004791806703 0.002067409032 -0.0003134928613)
(0.001216740926 -0.001338410209 0.0007052325193)
(0.001721228949 0.003447143936 -0.000258903697)
(0.004897441782 -0.0003405685153 -0.001463763553)
(0.004208160367 0.0006805761855 0.0002493874639)
(0.00294950696 0.0009928648818 -0.0008748703244)
(0.003097812169 0.00272768606 -0.0007215788721)
(0.0004868047917 0.001980249564 0.001661606422)
(0.005950919833 0.0002139992536 -0.0001136610042)
(0.003943848633 0.001262561597 0.001095355156)
(0.002977194737 -0.0008543698318 -0.0008120054653)
(0.001866247377 0.002453272469 -0.0007705378312)
(0.005475759758 -9.644024828e-05 -0.001360245742)
(0.002755637812 0.001000114913 0.001258424028)
(-0.0001581782138 0.001249658382 0.0003383611744)
(0.002758302151 0.0008451149052 -0.0004488531569)
(0.004674903289 0.002913055286 -0.001843875129)
(0.005438522696 -0.0005201445403 -0.0002558399401)
(0.004794188522 0.001005027 0.000564809453)
(0.002024287505 0.003095973184 -0.0002244692738)
(0.008197898099 0.002477066388 5.688400425e-05)
(0.007695748905 0.002374471234 0.001462393444)
(0.002007524911 0.0006499996864 0.0006055544786)
(0.007684244478 0.006109899287 -0.00289958213)
(0.007370220922 0.003156319147 -0.001534092682)
(0.00816679479 0.001653420654 -0.00135925366)
(0.005227546968 0.002463543908 -0.0004797852454)
(0.003822138794 0.000102266108 0.001318941072)
(0.00759767205 0.0006657624382 -0.0002786434481)
(0.008373455439 0.002602462909 -0.001534636717)
(0.007467083932 0.0005969504741 -0.0004151674743)
(0.006336706796 0.002306288504 0.001754487918)
(0.009504946101 0.002328856005 -0.0008549914844)
(0.004834491993 0.002522014116 0.0005877044169)
(0.004192032345 0.002133454799 0.0002297074819)
(0.002531360719 -0.0002594090108 -0.001631700934)
(0.006900322391 0.0009148390476 0.0004229770062)
(0.003044909916 0.001456479416 0.001108576455)
(0.005450224851 0.001189471381 -0.0009175941166)
(0.006069380528 0.001415605645 0.0009332636607)
(0.005896355951 0.0001874033164 0.0003679344293)
(0.003822381603 0.001815444329 0.002680609872)
(0.006363264726 -0.0001676019385 0.0001224383911)
(0.00600721819 0.0006646872932 0.0004601975316)
(0.007961557983 0.0005197882113 0.00226199419)
(0.001425460619 0.0007163324644 0.0002044744376)
(0.003996727956 -0.0005696782861 0.0009836179908)
(0.006792621549 0.0006064358651 -0.001229689765)
(0.003767074268 0.0009105443064 -0.0003072777056)
(0.006288118835 -0.0005080201483 0.001568313772)
(0.01427685822 0.004431939333 0.0006332343923)
(0.009072916875 0.002621200866 -0.0008865265869)
(0.005986292077 0.003075967635 0.0005899867627)
(0.01074280439 0.003102892157 0.002255204966)
(0.006500461821 0.001928063132 -0.001952413196)
(0.01027443883 0.004315410499 0.001264754729)
(0.009240130104 0.004040064872 -0.0002382372428)
(0.01057031728 0.004143519463 0.0005764974206)
(0.01138403883 0.004369564981 -0.0004675812966)
(0.01048406038 0.0002903962352 -0.002260204516)
(0.01048556401 0.001724181767 0.001320000754)
(0.004791370291 0.002051937161 -0.0001940665671)
(0.007820299242 -0.0001634352042 0.003988181784)
(0.005775436736 0.002022026324 -0.001031886458)
(0.004323847924 0.001704874899 -0.001291018943)
(0.007937608962 0.002746785141 0.0001860723172)
(0.009591457659 0.001790068048 0.002305117815)
(0.007346121319 0.00261235161 -0.0006034124426)
(0.01010665777 0.003764081092 -0.001953247093)
(0.004969443015 0.001517296289 -0.001187592305)
(0.00902676038 0.003439539892 0.003617264701)
(0.008828735939 0.001493069323 -0.001135089456)
(0.005715171586 0.00238141342 0.0008207751462)
(0.004453857366 0.002353793449 0.0002507757365)
(0.006864534408 -0.0001548922438 -0.0001625030514)
(0.008410348415 0.000392083573 0.002232581045)
(0.003287310633 -0.001959065741 0.0004734917727)
(0.007434137287 0.00111808523 0.0008114844499)
(0.007022710935 0.0002232711415 0.001614344774)
(0.005493314913 0.002413897386 -0.0004670923589)
(0.01152610384 0.006102154697 0.0003149354966)
(0.0069103102 0.003149765503 -0.0004257594441)
(0.01030560647 0.002627832002 0.001686896863)
(0.009298386664 0.002349704034 0.001868220527)
(0.01205057055 0.00441480558 -9.954222218e-05)
(0.01114812755 0.001749614117 -0.001835403674)
(0.01113727005 0.002855215059 -0.002072737533)
(0.006738185109 0.001779172977 -0.001181964011)
(0.01684125056 0.001910743373 0.001482545609)
(0.01075972181 0.003072873516 -0.0009433991075)
(0.007030717612 0.002036645474 0.0005486468097)
(0.007042946035 0.002509721469 -0.001846025645)
(0.01003443515 0.002599454562 -0.001982257652)
(0.007232789519 0.002415646046 -0.002616389564)
(0.009000528105 0.002938256026 0.00103623355)
(0.01067703158 0.002110367528 -0.001193715813)
(0.009617868394 0.003060867721 0.0006199552305)
(0.008458854918 0.003170464816 0.001553841293)
(0.006360919897 0.003950864948 -0.0005287291825)
(0.007179790691 0.001594672278 0.0006227579538)
(0.008317658209 0.001564318073 0.0005873541105)
(0.008662479485 0.001498318862 0.0002997259162)
(0.009937289952 3.326009888e-05 -0.002214303891)
(0.005763235032 0.001086454977 -0.0002432399855)
(0.009392790547 0.001102684453 0.0005746067027)
(0.01040187366 0.0008040285912 0.0009880074973)
(0.009969740849 0.002149995819 0.002353508998)
(0.001960177894 0.001429466214 0.000744217141)
(0.003559835755 0.001034162781 -0.001480824906)
(0.00835313703 0.002974904966 -0.0004828302516)
(0.0114282644 0.005579813156 -0.0009058830013)
(0.01186009416 0.004021765655 0.001326906352)
(0.008243211216 0.001303691174 -0.001299099785)
(0.01010655449 0.002763615093 0.001458013106)
(0.01154026998 0.004199317315 -0.0004010188938)
(0.01117584793 0.004759147426 -0.001710642132)
(0.01057899307 0.003413357757 0.001482640821)
(0.004412787249 0.0005944303731 -9.349241647e-05)
(0.01018781075 0.00571188151 0.0001607574897)
(0.01219829524 0.00333356626 0.0007106651448)
(0.007214314605 0.002268747099 -0.000512635613)
(0.01299092233 0.003011828746 -7.195986113e-05)
(0.0138992191 0.003312930756 4.783252719e-05)
(0.007503019494 0.001834115214 0.001391782972)
(0.01189070672 0.0009551369642 0.0002173800806)
(0.007623452767 0.0005985708984 -0.0009412138108)
(0.007940232441 0.004377466902 0.0005543801083)
(0.008172129618 0.0008789479832 -1.462845181e-05)
(0.006251073117 0.003076404927 -0.00136669158)
(0.007429102876 0.002503188823 0.000242132515)
(0.004510601608 0.001677791215 0.0002083277222)
(0.01045521397 0.0009975586615 -0.0008277725002)
(0.01489319079 0.004828386194 0.001419524078)
(0.009189400613 0.001304630337 -0.0003297678958)
(0.007150386054 0.002760934009 -0.002410330683)
(0.004812038391 0.003638923612 -0.002441887872)
(0.007723501185 0.002723199388 0.0005916211056)
(0.006190441836 0.001651656244 0.002040249212)
(0.005060052614 0.001729153573 5.790531088e-05)
(0.01094745162 0.0004615582218 -0.0006077815976)
(0.01331998285 0.00145899145 -0.0005364636084)
(0.01734985637 0.007097060792 0.001536590053)
(0.01341519411 0.005971068623 0.0008354348659)
(0.01420073241 0.005038859312 -0.0003772228707)
(0.01724982248 0.003766118514 -0.0005884057125)
(0.01325585097 0.004334964776 0.001222175097)
(0.01284038425 0.003346616939 -0.0009290655684)
(0.01399573231 0.006146704777 0.001383957444)
(0.02010473451 0.006955505141 0.0003859289914)
(0.01571211635 0.005061064546 0.001349714184)
(0.01618429177 0.007894699729 0.001440326404)
(0.008042688517 0.001527595304 0.001212790026)
(0.009823145492 0.005565274331 0.0007915754417)
(0.01207191508 0.003606575408 -0.0006494826455)
(0.01123159884 0.002516664665 -0.0008574739652)
(0.009461187012 0.004057793279 0.003245640143)
(0.006468007917 0.001094704718 0.0003847993739)
(0.01128124303 0.006092628294 0.0001916486058)
(0.007486083359 0.0024260968 -0.001150515375)
(0.007705901893 0.002405792001 -0.002383882373)
(0.01136781589 0.001991799191 -0.003178551039)
(0.006742568681 0.001753375667 -0.0003389345705)
(0.01030899466 0.003473082692 -0.000333473306)
(0.008752774312 0.002396772197 -0.00119669609)
(0.01084726803 0.002903372948 0.002910906826)
(0.006649597222 0.005404867775 -0.002367499816)
(0.01463255948 0.0006635939517 0.001085732673)
(0.00475084885 0.0009121463103 -0.0009492552325)
(0.00895434574 -9.26289435e-06 0.0001489174959)
(0.008987896936 0.002016407462 -0.00203475233)
(0.007381203779 0.002888841391 0.001210082708)
(0.01254209445 0.001372275677 -0.0009606548803)
(0.01359998703 0.004659564758 0.0009764861348)
(0.01622448384 0.004428388233 -0.001567023223)
(0.01139925565 0.00327960652 -6.191760056e-05)
(0.0110223791 0.004338680325 -0.0006003480166)
(0.0137282677 0.003476936899 8.330118519e-05)
(0.01220780956 0.002482642396 0.00125575672)
(0.01147913952 0.001375947788 0.002523553255)
(0.01490147182 0.003751348194 -0.001063675355)
(0.01333949298 0.004744647613 -0.001990488435)
(0.01019173093 0.004223098521 -0.001604488852)
(0.01383607546 0.004328292739 0.002174102632)
(0.01601822289 0.006352397388 0.000550411547)
(0.01696037681 0.00542042764 -0.002989560358)
(0.008356879049 0.005624284232 0.001512240182)
(0.01064996152 0.004749962611 0.0007123412991)
(0.007802018396 0.00526419004 0.001360708285)
(0.01039406846 0.002829742011 0.002308516094)
(0.008692111281 0.002884228815 0.0004741613412)
(0.01541825946 0.002586690805 -0.001312329025)
(0.01940341993 0.005700101266 0.0004186755932)
(0.008386659885 0.005353151003 -0.001346315019)
(0.01204335872 0.004067434854 -0.0009735239418)
(0.009360688767 -0.0001831854231 -0.0001077786408)
(0.01090854648 0.004557191523 -0.001019403908)
(0.01329166849 0.002352160586 0.0003355260375)
(0.01344685589 0.001735358984 0.0005509507053)
(0.008895715761 0.0001295423641 -0.002581354745)
(0.01314424949 0.0006326230582 0.002747926023)
(0.01029357746 0.002735046401 0.0001460296)
(0.008628021546 0.005311864912 0.0005423326862)
(0.01301100783 0.0007024744901 -0.0008910225771)
(0.01376521195 0.005237024468 0.0006577024724)
(0.01090631063 0.004143731065 -0.001069648823)
(0.01263836179 0.002969065546 -0.0008395529934)
(0.01374558401 0.003196288355 0.001293780895)
(0.01665373603 0.007276234688 -0.001390850961)
(0.01909636694 0.005591951809 -0.001528490117)
(0.0109851984 0.003850308126 -0.001336705475)
(0.01683224393 0.005898592979 -0.001289627183)
(0.009289537053 0.003903691848 0.0004638283231)
(0.01478686228 0.003197843008 -0.001961318226)
(0.009770984561 0.001339964552 -0.0006466038505)
(0.008438098712 0.004115029686 0.0003613465535)
(0.009566545546 0.003713242421 -0.001107324703)
(0.01053805285 0.003707412935 -0.001674078006)
(0.007157402626 0.00161591222 -0.0008333393728)
(0.01258319545 0.004905470459 -0.0002801506043)
(0.01006383428 0.002177594114 -0.00140561045)
(0.01571417337 0.00693546279 -0.0009551452264)
(0.008284967242 0.001584452064 -0.0008533633331)
(0.006442877471 0.003388323255 0.001357174266)
(0.007734514433 0.002387236069 0.0003374429913)
(0.01467647994 0.00467268861 0.0005864970575)
(0.0143676039 0.003712872487 -0.0004645204928)
(0.01009746668 0.00206612001 0.001017031635)
(0.01160896478 0.0004721485598 -0.002922966391)
(0.009071863356 0.002621485197 0.0005133668295)
(0.01574598063 0.005170684857 7.723264507e-05)
(0.008535140284 0.001612311737 -0.0006550136901)
(0.0118041205 0.005241900195 0.00186333867)
(0.01118575471 0.002756527881 0.0007657816137)
(0.02033114935 0.005285303477 1.656461574e-05)
(0.01250192575 0.00409861025 0.001212585623)
(0.01346869528 0.003048198285 4.849171792e-06)
(0.01731149438 0.00541575651 0.001303554653)
(0.01359481899 0.006309246087 0.000316213686)
(0.01254308047 0.003802104306 -7.760039165e-05)
(0.01373201565 0.005159498539 -0.0001847729686)
(0.0138069703 0.005959436431 0.0002505039362)
(0.0101023554 0.002474188243 -0.0009095557329)
(0.01204420076 0.007267832875 -0.0002699069574)
(0.01033776923 0.007008262257 0.0003915124979)
(0.01131322485 0.002659769719 -0.0003713250117)
(0.01354719879 0.001600164395 -5.32771221e-06)
(0.01706520133 0.004461307768 8.77933462e-05)
(0.005436266437 0.001743746472 0.0006945768577)
(0.01084636352 0.004324748583 0.001009315062)
(0.008487748014 0.004376288049 0.001942473552)
(0.01291287783 0.003382104184 -0.0002411234447)
(0.01205847163 0.002379775791 0.0007232026558)
(0.01087668725 0.0004953576496 0.0005124651612)
(0.01073135133 0.001680059936 -0.001867889521)
(0.01464770428 0.004631664515 -0.0008069023455)
(0.007359792683 0.004120604139 -0.0003934776478)
(0.01348203287 0.003324601968 0.001561116339)
(0.01007858003 0.002934997096 -0.001271663486)
(0.009540949025 0.004112715611 0.0001472562368)
(0.005794847975 0.001319866527 -9.688894962e-05)
(0.007174840145 0.001130773204 -0.0003212311831)
(0.007679963454 0.002453120666 -0.0005073992329)
(0.007980611172 0.001560565692 -0.0009664860157)
(0.01413804944 0.004056190995 -0.0009007882404)
(0.01131835128 0.001858190595 0.0005706955621)
(0.01334004537 0.005650494799 -0.001241803734)
(0.008249798829 0.00341524504 -0.0001497387518)
(0.01225127185 0.002772841691 0.0007173219212)
(0.01572330139 0.003945763534 -0.001018159964)
(0.01634518117 0.003411410058 -0.001130773663)
(0.01336365407 0.006438991627 0.001003768064)
(0.02339119569 0.006726861544 0.001540154119)
(0.01647051374 0.006746684154 -0.003197502297)
(0.02137675186 0.005378562949 -0.001624813417)
(0.01396138934 0.006765115113 0.001676893495)
(0.01669903023 0.005264721264 -0.005135112673)
(0.01547129514 0.005013218533 -0.0009263317041)
(0.01091179613 0.00365957549 -0.001366209166)
(0.01874868606 0.004832872383 -0.0003281261769)
(0.01574999788 0.003953624398 0.0005235111807)
(0.01220403611 0.003550569766 0.000104525005)
(0.01801126374 0.00564606925 -0.0002754341781)
(0.009323145384 0.005279144046 -0.001388559433)
(0.01462171697 0.003756768561 0.0006568583769)
(0.01853222871 0.005821991922 -6.226990918e-05)
(0.01226733562 0.003464698415 -0.0005286966803)
(0.01459768032 0.004814984685 0.002050275537)
(0.009867341472 0.001821107156 -0.0007822214434)
(0.005664804417 0.001466225806 0.001498581466)
(0.01654304854 0.003123432531 -0.0008279224671)
(0.008581442131 0.001006807171 0.0001885957121)
(0.00749835129 0.001756975776 0.0001931451448)
(0.009405191897 0.001371542687 0.001341788227)
(0.008749131628 0.000419044235 -0.0005488453785)
(0.01158628357 0.002508732055 0.0003906782539)
(0.009262615767 0.003623417451 -0.0002251418183)
(0.01073113259 0.001576536437 0.0007991462849)
(0.01336917273 0.00254648133 -0.001291208129)
(0.01577263421 0.006117452617 0.0005396363374)
(0.01790177588 0.005115454559 -0.001151613893)
(0.01818613046 0.003034531133 -0.0008362236406)
(0.02225782566 0.007140130389 -0.001634587652)
(0.01362716311 0.006781796974 0.0006919127431)
(0.01201695565 0.004844545686 -0.001140885782)
(0.01661148658 0.004538559998 -0.0001993090359)
(0.00868515662 0.001152503902 7.38501176e-05)
(0.0152409765 0.004104338268 -0.0001851746784)
(0.01600035948 0.005866378963 0.001230491407)
(0.009782315968 0.003358655672 -0.00193589174)
(0.01320050956 0.001525883124 0.001128348818)
(0.02159209479 0.006869510016 -0.003928578307)
(0.008723204234 0.001857393606 0.001922907514)
(0.01649897915 0.004951982035 0.003039997443)
(0.01123503863 0.003174042408 0.002072949901)
(0.01975188002 0.00804058104 0.002414789804)
(0.008173056572 0.002116916284 0.0009797682323)
(0.01601634335 0.007696441845 -0.001026482215)
(0.01712173395 0.005155879704 0.001030399975)
(0.009906955385 0.005944435328 0.0007403321222)
(0.01066365635 0.003050402212 0.000556476916)
(0.007157373305 0.0006065110706 0.0005800253238)
(0.01305960447 -0.0001493699495 -0.000315833187)
(0.01099517649 0.00111418398 -0.001060249168)
(0.004652118122 0.0005159465846 -2.669024625e-06)
(0.006525378213 0.0005212733653 -0.0002831037342)
(0.01604628679 0.0003363825128 0.0008676220805)
(0.01706002852 0.00535278199 -0.0002382183028)
(0.02158024199 0.006009842334 -0.0001443459927)
(0.009844632459 0.006812300706 -0.0004492720393)
(0.01504930669 0.002587428617 -0.002004473403)
(0.01198610954 0.003133528273 0.003210711894)
(0.01148890052 0.006092087303 -4.689687438e-05)
(0.01705806482 0.003947379472 0.0008327104736)
(0.01767341895 0.006144790785 0.0005438509269)
(0.009530682337 0.003194475309 0.001103589819)
(0.01497109598 0.004724774268 0.001599819492)
(0.01594815365 0.00651863107 -0.0009665481)
(0.01046410507 0.003939089706 -0.0005006249427)
(0.01318892223 0.006631336513 -0.001252467125)
(0.01624258682 0.002509493944 -0.0004721606766)
(0.01704301209 0.006716765057 -0.0005542016137)
(0.01818804879 0.005992175973 0.002708773084)
(0.01643609319 0.003599252276 0.002454845658)
(0.01277842649 0.003652718029 0.000646655741)
(0.01509408987 0.005760248068 0.001397404362)
(0.01541001559 0.005775456557 -0.0008636785462)
(0.0113563328 0.005626204391 0.0001763285264)
(0.01366576414 0.005000364224 -0.0008824760629)
(0.0155322412 0.003375383482 -0.003407294068)
(0.01158083627 0.003870366634 -0.0008553587266)
(0.0112746233 0.0005709196577 -0.0003933187973)
(0.01032907626 0.0007848110442 0.0006521513838)
(0.008886899263 0.0009286540272 3.293309118e-05)
(0.01261705586 0.003253663789 -7.552043661e-05)
(0.01224915211 0.002291821213 -0.0001536046285)
(0.0122049418 0.005073867081 -0.0009025490819)
(0.01318493999 0.001117436935 0.0002906536758)
(0.01114876682 0.003102108585 0.000738418598)
(0.0176745933 0.003407740503 -0.001688939929)
(0.01087891018 0.00532302051 -9.00598872e-05)
(0.01214404936 0.004519847698 0.001183105443)
(0.0156085164 0.005471703046 -0.002727149802)
(0.01332679591 0.003546787006 0.0008748636551)
(0.01804742301 0.003859190194 0.0003942593366)
(0.01596397084 0.004531226807 0.002555884366)
(0.01201732959 0.002448413628 8.553714576e-05)
(0.01120087091 0.002626822781 0.001062010053)
(0.01880854583 0.005242503986 -3.290164554e-05)
(0.01974253338 0.005187166289 -0.0009814056755)
(0.01879895469 0.003817361124 -0.002656797028)
(0.01985720924 0.004020130462 -4.966500775e-06)
(0.01985753367 0.006756040107 0.001118135968)
(0.01244652117 0.005989284906 -0.0004778735491)
(0.01736931009 0.005019270871 -0.0006301294693)
(0.01689388046 0.005615711141 -0.001791369211)
(0.01699101846 0.006143285816 0.003290369692)
(0.01052367142 0.0006088684567 0.0003109880084)
(0.01127398772 0.003571374663 -0.0001983940652)
(0.0189377018 0.01044020453 -0.001927742513)
(0.01390516384 0.003068322521 -0.002375577359)
(0.00860659498 0.0004883152932 0.0001792550927)
(0.01023359007 0.002620479044 -0.0005272589939)
(0.007487973228 -3.686505356e-05 -0.0004656164555)
(0.01084444236 0.003327551611 0.001848083483)
(0.009814758435 0.001784903465 0.0001931858582)
(0.01155973167 0.001441912606 -0.001637320058)
(0.01068525958 0.002824454426 -0.002138140938)
(0.01132038452 0.002851188518 0.0004005593294)
(0.00852029295 0.001850306725 -0.0005828254021)
(0.01125757653 0.004614443029 -0.0002852622688)
(0.01134314942 0.001992884195 0.0003249994899)
(0.01966487141 0.001895589479 -0.0002593964398)
(0.0165410838 0.002190029785 0.001370163168)
(0.007140089873 -6.182626808e-05 -0.0003191588516)
(0.01839262457 0.006505338365 -0.0009456609283)
(0.01748695724 0.004361376982 -0.00216747507)
(0.01670230605 0.003414840796 0.0007365781667)
(0.01295381457 0.003612924525 -0.002345614191)
(0.01373415536 0.007140872148 -0.0001569749376)
(0.01787264849 0.003184447347 -0.0003695576844)
(0.01887950746 0.006075095294 0.0007150333809)
(0.01194329267 0.004758344551 0.000351102402)
(0.02254506046 0.004387388977 0.0003487735949)
(0.01486850394 0.004470459109 -0.0002339277037)
(0.01588675281 0.007688889472 -0.002339537462)
(0.01096257175 0.002723440215 -0.0003540808226)
(0.01222819234 0.004637767557 -0.001333131152)
(0.01451213791 0.005867121251 0.0008350850666)
(0.01111032289 0.004934949608 0.0001767141763)
(0.004155856622 0.0004757757535 -0.0009100313702)
(0.005409550409 0.0002527233481 0.0003947837001)
(0.007419631664 -0.0001002161925 0.0002727004789)
(0.007022444134 0.001489346076 -0.0005287188965)
(0.01169084659 0.0005983608629 -0.0003170817415)
(0.01078090754 -8.949309534e-05 0.0001594273447)
(0.01260919963 0.001438762026 -0.0005898930173)
(0.008961507022 0.0009579601004 0.0006380157534)
(0.009636431312 0.002698550655 -0.0001278959632)
(0.01223212655 0.0009640495815 0.0005434691614)
(0.00702622348 0.001499574506 -0.0004118586415)
(0.006646146503 0.002615084269 0.001029247713)
(0.01338608152 0.003239351912 0.001940824847)
(0.01273164674 0.001434474669 -0.0002935184737)
(0.01291920087 0.002689374593 0.001553662716)
(0.009105435968 0.002820806655 0.0009937179231)
(0.01844830804 0.005436599587 0.000263411489)
(0.00643482825 0.004072558765 0.001127077571)
(0.01556270631 0.005809042534 -0.00200742449)
(0.01621351491 0.005579323155 0.0007523851065)
(0.0182209693 0.005886966564 -0.002318194788)
(0.01260517305 0.006539849919 -0.0006541467875)
(0.01060849951 0.006489515561 0.001905706088)
(0.01906894132 0.007263931296 0.000490586612)
(0.008850297844 0.002631498533 -0.0009723367812)
(0.01932455709 0.005582934441 -0.002302493166)
(0.01304390937 0.003302604157 0.0004028392041)
(0.01314290415 0.003654443853 -0.0006434269293)
(0.01489881327 0.006457204516 0.001705135322)
(0.01198426569 0.003779364433 -0.0003028039373)
(0.01285350744 0.007749174495 -0.001690319379)
(0.009523700347 -0.0006478698673 -0.0005392176916)
(0.008338570955 -0.0003846242987 0.0002259744531)
(0.01166462155 0.0004287909095 0.0004925200524)
(0.009086521485 9.908385821e-05 -0.0001513291806)
(0.009061287952 0.002281527043 -0.0009508981377)
(0.008190895132 0.0001290161853 0.000369937766)
(0.01100408752 0.002611609051 -7.838013824e-05)
(0.006591260172 -1.741809096e-05 -0.0002380327978)
(0.009780613527 0.001728454541 -0.0002823009849)
(0.009831618828 0.002140709751 -0.0001670574783)
(0.009019347037 0.001025785661 -8.283903532e-05)
(0.007187877063 0.001321475665 1.57507243e-05)
(0.01348977427 0.005959386858 -0.001970825245)
(0.01534669746 0.001305436042 -0.0001944059252)
(0.008369385515 0.002304162361 0.0002802963668)
(0.01243430954 0.003776765 -0.001606612254)
(0.01576614416 0.004819167896 0.0005423275522)
(0.009940683133 0.00365504696 0.002332775415)
(0.01124065921 0.001278753679 -6.636338975e-05)
(0.008940053891 0.002666086451 -0.0002881915505)
(0.01206346138 0.003772037945 -0.0008626137149)
(0.01148331914 0.003549771475 0.002984065656)
(0.01724966413 0.004033312748 -0.002396046982)
(0.01526479963 0.003208155699 -0.0005645098571)
(0.01670245198 0.006195714468 0.0004348455442)
(0.01939067994 0.008039803908 0.001259392795)
(0.01978584843 0.007170654238 -0.0006193617908)
(0.01929070719 0.008024596581 -0.002894008195)
(0.009623902801 0.003304581245 -0.001258501983)
(0.005846659718 0.000329458647 -0.0009136530521)
(0.007261422021 -0.0002226757509 -7.652925547e-05)
(0.01245775842 -0.0005455277917 -0.0005485520809)
(0.008494640596 -0.0003980688872 -0.0001320534293)
(0.007916142424 -0.0009416821253 -0.0004539333749)
(0.005848979072 0.0007416255987 -0.000213541116)
(0.01007191874 -0.0001255601212 0.0004011223608)
(0.007759716211 -0.0007837411643 0.0003042289303)
(0.008708659484 0.0008601828666 0.0004613689746)
(0.01330494362 -0.0003315289391 5.686692924e-05)
(0.01110452227 0.001173415381 -7.005919345e-05)
(0.009385606495 0.001663655416 0.000582745632)
(0.0121626751 0.002139576272 -5.141086665e-07)
(0.005399301429 0.001190730385 0.0009911170024)
(0.01700721742 0.003872127373 0.0006970899331)
(0.01339683047 0.0009388305724 0.0007580569664)
(0.01707317882 0.005745947024 0.001695114752)
(0.01493196419 0.003479673493 0.0006815797417)
(0.02249563232 0.007630062621 -0.0001885004571)
(0.01121645484 0.002614032586 -0.001233529272)
(0.01935203446 0.00480676672 -6.425082345e-05)
(0.01919665174 0.004166890349 -0.0007853009706)
(0.01030474113 0.003270311448 0.000804472881)
(0.01161357527 0.003337562134 0.001204845515)
(0.009722460394 0.003555447108 -0.002204760021)
(0.006844824755 0.0002258052973 0.0005185802659)
(0.009135856661 1.661848565e-05 -0.0005299008871)
(0.01269799036 0.000393698544 0.0005615615382)
(0.005326259699 1.755360411e-05 -0.0004746291509)
(0.01225310251 -0.000243105574 -0.0007568553181)
(0.00269464364 0.0004739836685 0.0004387106967)
(0.006500511681 0.0004411044581 -0.0002581246647)
(0.007186350826 -1.744489166e-05 0.0001655796699)
(0.01311244842 0.000727200634 -0.000706791753)
(0.003627768002 0.0008887938687 8.396690331e-05)
(0.007885423656 0.0005670002627 -0.000380892136)
(0.005433245525 0.0006519166033 -0.0002744952822)
(0.0077090896 0.002754312226 -0.001086470941)
(0.01044666728 0.003260697915 -0.0005669916117)
(0.01111703074 0.002138268379 -0.001493972503)
(0.009939427795 0.001029038521 0.0007548355712)
(0.01181894326 0.003689220425 -0.00104419902)
(0.01158125682 0.002276363714 -0.001245563916)
(0.01668375729 0.003277838507 0.001496379737)
(0.01207907692 8.306932746e-05 0.001842626167)
(0.007211023472 -0.000340915611 0.0002113207681)
(0.01087980724 0.0001891953765 -0.0003017172568)
(0.009380187838 0.0006861177346 -0.0002187013588)
(0.005609819047 -0.0006269451073 -0.0005225977148)
(0.009708848799 -0.00144689675 -0.0002622361825)
(0.01180814058 0.0004044222963 0.0005518049774)
(0.006790067877 -1.670318286e-05 3.512093525e-05)
(0.008790216198 0.0003058197351 0.0001993328646)
(0.00879483215 0.0007005789651 0.0004414444013)
(0.01080312131 0.0004126567435 4.647534165e-05)
(0.01046445242 0.002906322862 0.001203065623)
(0.01190187031 0.0004029480984 -0.001180436647)
(0.0106447707 0.0003997089101 0.001213318925)
(0.007458438903 -1.58545395e-06 -0.0004197602611)
(0.006643769362 0.0003176825021 -0.0008547678298)
(0.008241534922 0.0007037820256 0.0002030726526)
(0.00658811984 -0.0001924736315 0.0002694309666)
(0.0092658652 -0.0003688308859 0.000215606345)
(0.009771602573 0.0004253418898 -0.0002697146279)
(0.006488179608 0.00060418797 -0.0003591613808)
(0.004907608033 -0.0004477210591 -1.785753346e-06)
(0.007389432838 0.0008432450306 0.0005136525551)
)
;

boundaryField
{
    flow
    {
        type            zeroGradient;
    }
    obstacle
    {
        type            calculated;
        value           nonuniform List<vector> 
30
(
(0 0 0)
(0 0 0)
(-1.577325432e-21 -4.226430743e-22 3.670883369e-21)
(0 0 0)
(3.83850527e-21 1.028524384e-21 5.517023633e-23)
(-1.34955132e-22 -3.616111869e-23 1.971829004e-21)
(0 0 0)
(0 0 0)
(1.707119341e-21 4.574212496e-22 9.550268324e-22)
(0 0 0)
(0 0 0)
(2.374951553e-21 6.36366352e-22 -1.997207792e-21)
(4.035001885e-21 1.081175498e-21 -3.520986445e-21)
(0 0 0)
(3.881143565e-21 1.039949286e-21 9.813310224e-22)
(2.324156397e-21 6.227558279e-22 -1.592698995e-21)
(-1.699230162e-21 -4.553073506e-22 5.123765575e-21)
(0 0 0)
(1.408289223e-21 3.773499588e-22 -2.981963457e-21)
(0 0 0)
(0 0 0)
(7.090532126e-22 1.899902351e-22 1.158695575e-21)
(-2.982574188e-22 -7.991783465e-23 3.053391618e-22)
(-2.24029065e-22 -6.002840717e-23 4.480926785e-21)
(-3.375589271e-21 -9.044864165e-22 1.043874953e-21)
(3.308122754e-22 8.86408822e-23 -9.61359995e-22)
(2.216795734e-22 5.939886247e-23 -1.84233406e-22)
(0 0 0)
(1.235404695e-21 3.31025691e-22 1.243500705e-21)
(-2.858021859e-23 -7.658046467e-24 7.032609297e-22)
)
;
    }
    frontAndBack
    {
        type            empty;
    }
    procBoundary1to0
    {
        type            processor;
        value           nonuniform List<vector> 
21
(
(0.005483065593 0.001513670983 0.0002271279203)
(0.005220241112 0.001983109642 0.0001107359737)
(0.01360570587 0.002594766333 0.001961809752)
(0.01498089325 0.00481337217 -0.001898175157)
(0.01532267045 0.004195680643 0.001010485073)
(0.01474109549 0.00186187266 -0.001117656389)
(0.0117751744 0.001957864832 3.694583938e-05)
(0.01359843981 0.005092845836 -0.000627145482)
(0.01059300885 0.0002256018067 0.001393796684)
(0.008187867439 0.0005416729303 -0.000373818716)
(0.006165971131 0.001408256772 0.0003566984031)
(0.008424853184 0.002309702582 -0.0001840078355)
(0.007459293588 2.777053244e-05 1.692387987e-05)
(0.009348985182 -0.0001749026522 -0.001442515767)
(0.005556042603 0.0003520004815 0.0005227557547)
(0.006611491687 0.0001691994962 -0.000207446672)
(0.01240581693 0.0003429913766 -0.001069221732)
(0.007736981101 0.000980196323 -0.0009315133951)
(0.004734447858 7.858306681e-05 -0.0004943947669)
(0.005425891978 0.0005652487649 0.0003904131758)
(0.01197411509 0.0001561123437 -0.0008391683092)
)
;
    }
    procBoundary1to3
    {
        type            processor;
        value           nonuniform List<vector> 
36
(
(0.02123133771 0.005709546734 -0.001938781436)
(0.02016555228 0.007823902453 -5.257922541e-05)
(0.01210467137 0.003248434106 0.0001285198723)
(0.01658399567 0.005411997228 -0.0007961523119)
(0.02123133771 0.005709546734 -0.001938781436)
(0.01849375068 0.004314917259 0.000340159097)
(0.008795377731 0.002945579768 0.0007055748698)
(0.006737631111 0.00238629587 -0.0001631417583)
(0.01216121743 0.001806855508 -0.0008130692087)
(0.02027324468 0.005966136452 0.0001840002051)
(0.01876559925 0.006954446175 -0.0008495892614)