/*--------------------------------*- C++ -*----------------------------------*\
| =========                 |                                                 |
| \\      /  F ield         | OpenFOAM: The Open Source CFD Toolbox           |
|  \\    /   O peration     | Version:  2406                                  |
|   \\  /    A nd           | Website:  www.openfoam.com                      |
|    \\/     M anipulation  |                                                 |
\*---------------------------------------------------------------------------*/
FoamFile
{
    version     2.0;
    format      ascii;
    arch        "LSB;label=32;scalar=64";
    class       volVectorField;
    location    "0.012";
    object      momentumMean;
}
// * * * * * * * * * * * * * * * * * * * * * * * * * * * * * * * * * * * * * //

dimensions      [1 -2 -1 0 0 0 0];

internalField   nonuniform List<vector> 
546
(
(0.005457855827 0.001537283927 -3.128390581e-05)
(0.005184494072 0.001493276472 -1.754834937e-05)
(0.005013160192 0.001388204622 1.401214845e-05)
(0.004828974976 0.001340322604 -1.204798746e-05)
(0.004649455785 0.001318851871 -8.806251962e-05)
(0.004490972137 0.001252090155 -6.872658596e-05)
(0.004411627774 0.001203827456 -1.760040931e-05)
(0.004301702258 0.001194786526 -6.59884692e-05)
(0.004152496357 0.001196588124 4.355887526e-05)
(0.004001824697 0.001095338446 -6.911974439e-06)
(0.003891590241 0.001079135892 4.453403653e-05)
(0.003849317775 0.001044423588 -4.993756169e-05)
(0.003703398775 0.00104485463 -3.367176465e-05)
(0.003659407202 0.0009781591595 -1.446914164e-05)
(0.003538334444 0.001000221938 -3.26969805e-05)
(0.003434675404 0.0009690670672 -7.69970593e-05)
(0.003334122017 0.0009050030561 -9.40418845e-05)
(0.003319540509 0.0008973483369 2.944013267e-05)
(0.003221838813 0.0008982223978 2.150818786e-05)
(0.003153377954 0.0008429395299 6.116539708e-05)
(0.003156815716 0.0008226833049 -1.489454086e-05)
(0.003165796661 0.0008706208459 5.915988513e-05)
(0.003076255107 0.0008547697172 7.336429449e-05)
(0.003132197956 0.0007960014411 8.115995456e-05)
(0.003141216926 0.000818561602 2.847517832e-05)
(0.00311691894 0.0008577807019 2.989238559e-05)
(0.003091689495 0.0008166399636 2.867403692e-05)
(0.003158980516 0.0007990029026 8.131116658e-05)
(0.003257816499 0.0008140123115 5.072997293e-05)
(0.003581169632 0.0006798265469 8.499633084e-06)
(0.008429403414 0.002614021941 -5.993271872e-05)
(0.008151947851 0.002475726389 -4.85905934e-05)
(0.007838771163 0.002353737483 1.50015872e-05)
(0.007525820947 0.00231138046 1.177718057e-05)
(0.007324330607 0.002150461656 3.066664627e-05)
(0.007187505864 0.00205055748 5.951044659e-07)
(0.006903437382 0.001999550484 1.307658817e-05)
(0.006698134325 0.001949268605 -7.172897242e-05)
(0.00648952934 0.001937733624 -8.174575935e-05)
(0.006391303785 0.001817886875 -3.900588098e-05)
(0.006267222054 0.001802233792 -4.472676634e-05)
(0.006061825482 0.001761090625 -3.344301362e-05)
(0.005912445643 0.001717156992 -3.909271266e-05)
(0.005751499205 0.001626994775 5.217171599e-05)
(0.005583603458 0.001604708861 5.370760195e-05)
(0.005479846159 0.001595304899 2.950386945e-05)
(0.005327837668 0.001516629318 -1.545721731e-05)
(0.005169986271 0.001447871989 2.664479237e-06)
(0.005110883832 0.001449585534 2.746679097e-05)
(0.005020094678 0.0013789011 6.026267374e-05)
(0.004940333478 0.001328838874 7.581856905e-05)
(0.004811584477 0.00133053131 0.0001175981645)
(0.004805839672 0.001310646416 3.360344491e-05)
(0.004731021837 0.001217259753 5.615953725e-05)
(0.004673549287 0.001266950688 -1.303661675e-05)
(0.004619421428 0.001254006008 9.911807686e-06)
(0.004634959976 0.001233167625 8.619243272e-05)
(0.004629961186 0.001113829405 8.121214456e-05)
(0.004738919948 0.001109813669 2.226298396e-05)
(0.004990821736 0.0007416072009 2.680136572e-05)
(0.01030595255 0.003313251974 -6.455109626e-05)
(0.0101070946 0.003223379873 -6.673528196e-05)
(0.009835707102 0.003163865593 -7.383957351e-05)
(0.009589457483 0.002995816342 -6.549733662e-05)
(0.009298777492 0.002834298531 -1.597902109e-06)
(0.00897428923 0.002773218697 -2.763592498e-05)
(0.008751223046 0.002717402418 -7.364187669e-05)
(0.008522949505 0.002575912482 -8.282198401e-05)
(0.008403117 0.002519876366 -3.256416524e-05)
(0.008169717668 0.002422096486 -2.680072832e-05)
(0.007954563518 0.002385337191 -4.061270415e-05)
(0.007764864691 0.002346776016 4.483651588e-06)
(0.00754172186 0.002248042077 7.923465273e-05)
(0.007311505008 0.002196779683 7.75973363e-05)
(0.007171682693 0.002166834957 4.544259997e-05)
(0.007026871352 0.002062369756 6.895912584e-05)
(0.006913122787 0.002015870939 -1.623131865e-05)
(0.006783445798 0.001955246325 -3.905474458e-05)
(0.006578087376 0.001946622451 2.45676566e-05)
(0.006452196548 0.001797477309 4.944885208e-05)
(0.00628048155 0.001786949889 -1.178171756e-05)
(0.00622966255 0.001685433932 -1.628171126e-06)
(0.006160262967 0.00173556419 2.262838141e-05)
(0.005963160591 0.001635278577 3.22431445e-05)
(0.005859702957 0.001613594816 -1.836739257e-05)
(0.005770875127 0.001576373909 4.9691439e-05)
(0.005768673759 0.001509738313 2.248234908e-05)
(0.005856822694 0.00139382249 1.601448431e-05)
(0.005901008479 0.001293122228 -9.437119345e-06)
(0.005971375582 0.0008769455735 -5.253563311e-07)
(0.01143255528 0.003677959123 1.214830814e-06)
(0.0114203718 0.003688660759 2.734116235e-06)
(0.01132317509 0.003726762991 -2.046149017e-06)
(0.01109285393 0.003629583817 -2.580111982e-05)
(0.01089365091 0.003490293276 -4.709270811e-05)
(0.01074772866 0.003366087439 -1.566204176e-05)
(0.01050318678 0.0033195095 -3.043097014e-06)
(0.01023999037 0.003214746554 -4.517217637e-08)
(0.009900732565 0.003116128445 -1.671413386e-05)
(0.009686383575 0.00300617829 -3.875785685e-06)
(0.009462901772 0.002921430282 -1.970332919e-05)
(0.00915463476 0.002883844394 4.484415625e-06)
(0.00899370477 0.002793224002 -3.414203759e-05)
(0.008821012057 0.002730905077 -3.190507532e-05)
(0.008595980562 0.00260233563 2.405865888e-05)
(0.008459006866 0.002514989984 3.222887741e-05)
(0.00830897313 0.002491076867 6.071074729e-05)
(0.008071611443 0.002445998483 -6.652768443e-07)
(0.007899851337 0.00237158751 -2.667417371e-05)
(0.007712601662 0.002267511671 -1.59671113e-05)
(0.007601001846 0.002161930286 6.941676016e-05)
(0.007378347427 0.002087748184 4.682685125e-05)
(0.007224554027 0.002088494717 5.230029417e-06)
(0.007138061169 0.00203804893 6.009822228e-05)
(0.007042351027 0.00196912292 -1.760697704e-06)
(0.006976010397 0.001913447997 -1.310200785e-06)
(0.006867400895 0.001773476626 9.197498977e-06)
(0.006840760162 0.001601823988 7.494132708e-06)
(0.006889764575 0.001488934188 -5.357615716e-06)
(0.006898060426 0.001157813305 4.131857129e-06)
(0.01192512104 0.003768961092 2.526125814e-05)
(0.01196269405 0.003817353338 3.699637692e-05)
(0.01210430114 0.003932441748 3.358177893e-05)
(0.01218455962 0.003966202816 9.394879265e-06)
(0.01210118576 0.003883092512 3.266368217e-05)
(0.01189463235 0.003836219237 -7.457486202e-06)
(0.01169898756 0.003852976227 6.061669486e-05)
(0.01151615208 0.003750669216 -1.832370996e-06)
(0.01129549886 0.003651235752 -5.753691137e-05)
(0.01101522497 0.003510491579 -1.706088531e-05)
(0.01072221157 0.003473222735 -4.411976085e-05)
(0.01060855587 0.003370566971 3.337071686e-05)
(0.01045121454 0.003295898697 2.871727572e-05)
(0.01017079015 0.003197487148 1.449566106e-05)
(0.009981806248 0.003123313072 2.601820345e-07)
(0.009693432734 0.00301412684 -1.168251357e-05)
(0.009395220532 0.002905948837 3.285079426e-05)
(0.009182197646 0.002879325546 7.534871048e-05)
(0.009004850581 0.002749959668 2.284657612e-05)
(0.008842775664 0.002683835403 4.353117602e-05)
(0.008705173715 0.002548833853 3.434965073e-05)
(0.008449170949 0.00252841058 -5.443869938e-06)
(0.008323816042 0.002418753915 1.826992592e-05)
(0.008222021111 0.002383985075 3.504771968e-05)
(0.008070324109 0.002280408125 0.0001034262677)
(0.007985423156 0.002203537929 7.788848241e-06)
(0.007961533282 0.002088520551 7.528755252e-06)
(0.007780089894 0.001897735954 -3.875096666e-06)
(0.00765276118 0.001661328464 8.407265364e-06)
(0.007541393832 0.001423955164 -2.466948678e-05)
(0.01198641625 0.003555774049 -6.433623628e-06)
(0.01227294863 0.003766318017 -2.109299174e-06)
(0.01251784705 0.00388367952 3.185103284e-05)
(0.01258202823 0.004045815363 3.630823324e-05)
(0.01255688442 0.004093825334 8.103728616e-06)
(0.0125397151 0.004128808831 2.340018656e-05)
(0.01251153048 0.004097667982 1.673569752e-05)
(0.01242656395 0.004062249679 1.600680865e-05)
(0.0122898865 0.004018117855 -1.04178279e-06)
(0.01215786471 0.004003147523 3.188823008e-05)
(0.01202301703 0.003927517288 -1.95254181e-05)
(0.01172743023 0.003834477936 -6.98150456e-06)
(0.01143222873 0.003702451497 3.050704007e-05)
(0.01126691343 0.003660267536 2.432416267e-05)
(0.01103121988 0.003549850479 -1.909859779e-05)
(0.01078462185 0.003468477755 -5.718484351e-07)
(0.0105715162 0.003378695946 2.185114319e-05)
(0.01044331805 0.003303235235 3.010470525e-05)
(0.0102820146 0.003222222295 2.36232624e-05)
(0.009995621903 0.003085455688 6.996980812e-07)
(0.009714289238 0.003008250238 -5.76614336e-05)
(0.009538327638 0.002880561952 -4.30547678e-05)
(0.009354485917 0.002763444231 -4.792515775e-05)
(0.009183277554 0.002697680936 1.786307187e-05)
(0.009048364981 0.002617370472 2.582072886e-05)
(0.008934893495 0.002490719532 2.828711153e-05)
(0.008742349298 0.002381420459 -6.826603017e-05)
(0.008664521438 0.002182083055 -4.664179891e-05)
(0.008529332652 0.001966005992 4.687189963e-05)
(0.008312757918 0.001730012308 -2.758962995e-05)
(0.01158611905 0.003077560535 -2.245530015e-05)
(0.01202510001 0.003418671798 -2.116839338e-05)
(0.01228336808 0.003672755193 -3.9910066e-05)
(0.01250305694 0.003887493012 -2.757572273e-05)
(0.01279218146 0.004078383311 3.539614559e-06)
(0.01295302185 0.004173213712 -2.410091243e-05)
(0.01298323947 0.004246837126 6.856613931e-06)
(0.01300629241 0.004293219323 1.234080175e-05)
(0.01298991652 0.004242193224 2.773613988e-05)
(0.01291564451 0.004241697844 4.040300742e-05)
(0.0127523998 0.004261769071 4.87571548e-05)
(0.0125920527 0.00419337491 -1.2736086e-05)
(0.01248348716 0.004126895991 -8.076177923e-06)
(0.01224714674 0.004045212123 6.208418493e-05)
(0.01199684988 0.003987771378 8.711012046e-06)
(0.01183240268 0.003896823749 1.52624729e-05)
(0.01158263639 0.003738675714 5.327544391e-07)
(0.01138294249 0.003647591382 -4.643481214e-05)
(0.0111714451 0.003569100527 -7.537122227e-06)
(0.01096163406 0.003515872484 -4.940126082e-05)
(0.0108171455 0.003374356316 2.827153475e-06)
(0.0106199976 0.003297708831 -6.872510588e-06)
(0.01036346593 0.003144395734 1.277330881e-05)
(0.0102189107 0.003027800136 1.628377112e-05)
(0.01007670789 0.002983540667 1.019289159e-05)
(0.009818270307 0.002815769765 3.916362461e-05)
(0.009652142623 0.002700544094 4.839938093e-05)
(0.009484732473 0.00248238297 4.980492591e-05)
(0.009272374667 0.002296876401 2.25778367e-05)
(0.009114699934 0.002020436351 1.869533764e-05)
(0.01104169264 0.002567509447 -1.685690246e-05)
(0.01145189356 0.002924382526 -1.386131129e-05)
(0.01196601287 0.003274089192 -9.542548745e-06)
(0.01240690851 0.003574053422 -2.668794503e-05)
(0.01265652277 0.003761410778 -4.716314603e-05)
(0.01291691369 0.004028001438 -2.139771362e-07)
(0.01320720042 0.004193086573 -8.601860007e-06)
(0.01338250741 0.004307683509 3.073086406e-05)
(0.01339776108 0.004374568338 2.760467504e-05)
(0.01343193125 0.004424183626 -5.2849865e-06)
(0.01339871293 0.004455290377 -4.830629701e-07)
(0.01334615512 0.004498036047 3.228290574e-05)
(0.01316068508 0.004390869688 1.315336333e-05)
(0.0130429595 0.004375544437 3.545448939e-05)
(0.01298736157 0.004294511116 1.255114691e-05)
(0.01282785196 0.004261582763 1.722654763e-05)
(0.01263386436 0.004166737288 4.10273352e-05)
(0.01236041874 0.004047000088 2.60350253e-05)
(0.01216667567 0.003964088697 8.829444176e-06)
(0.01200378867 0.003853560384 -1.4446242e-05)
(0.01182725445 0.003781652064 4.854769492e-06)
(0.01160674275 0.003693247355 1.824799535e-05)
(0.0113291514 0.003517121518 -5.302768248e-06)
(0.01112197313 0.003350763274 -2.861541878e-05)
(0.0108842294 0.003293130436 -4.697671956e-06)
(0.01066580856 0.003157271133 3.490031778e-05)
(0.01053180285 0.003030256063 -2.890108025e-05)
(0.01031888065 0.002772846184 -5.42435233e-06)
(0.01018960271 0.002638792734 -1.617382264e-05)
(0.009937290491 0.0023230303 -5.547024646e-06)
(0.01058925928 0.002072403086 2.12926696e-05)
(0.01099811866 0.002432139796 2.236071477e-05)
(0.01144760832 0.002761964549 2.217021887e-05)
(0.01184615527 0.003105155532 2.015006467e-06)
(0.01229389654 0.003405152865 1.591633251e-05)
(0.01259089734 0.003631425751 -2.784983259e-05)
(0.01295086073 0.003920271897 -4.078545952e-05)
(0.01319362138 0.004112688599 -2.410438875e-05)
(0.01341177468 0.00429953827 -9.938748929e-06)
(0.01356176489 0.004391771292 2.092713693e-05)
(0.01369462131 0.004505159509 4.942002075e-06)
(0.01380514792 0.00459656681 6.809333167e-05)
(0.01383411781 0.004608963741 3.418073523e-05)
(0.01377090168 0.004600547495 -2.720882402e-05)
(0.01364962622 0.004543726094 -5.943417998e-06)
(0.01352554476 0.004524176675 1.533277196e-05)
(0.01339785246 0.00449135855 -2.331169524e-05)
(0.01325630892 0.00437343369 2.94592597e-07)
(0.01308914737 0.004264771176 2.601390797e-05)
(0.01285239009 0.004230141185 2.850463794e-05)
(0.01259700926 0.00411458475 -1.241401422e-05)
(0.0124265093 0.004025315132 1.826319503e-05)
(0.01216301434 0.003893908699 -2.733480935e-05)
(0.01198650279 0.003748613727 -1.063761667e-05)
(0.01175303892 0.003610466351 -1.384932313e-05)
(0.01161941655 0.003481227367 -2.297235118e-05)
(0.01137061415 0.003317199814 -1.858092569e-05)
(0.01115192588 0.003132379693 -4.472382213e-05)
(0.01087939965 0.002927896547 -1.874252498e-05)
(0.0107297492 0.002685516245 1.511035981e-05)
(0.00997542031 0.001617251239 1.84876345e-05)
(0.01030918665 0.001876579389 2.716921257e-05)
(0.01072267605 0.002226081977 2.495529131e-05)
(0.01117754377 0.002542321649 1.642257076e-05)
(0.01170255896 0.002929817173 1.752771373e-05)
(0.01211328328 0.003224703674 -1.096452457e-06)
(0.01255921043 0.003489422208 3.138851958e-06)
(0.01293992702 0.003804571963 -8.057880157e-06)
(0.01326753777 0.003997124286 -2.729457649e-05)
(0.01354793734 0.004208168377 -2.912254311e-05)
(0.01382292129 0.004369499783 1.842785425e-05)
(0.01401475437 0.004558935736 -5.331913228e-06)
(0.01406421225 0.004628889651 3.326569018e-05)
(0.01406653009 0.004710469232 2.741641093e-05)
(0.01410436612 0.004696062511 9.361854028e-06)
(0.0140865618 0.004719486789 4.538077898e-06)
(0.01404044252 0.004696128608 -1.355271291e-05)
(0.01393204367 0.004674511033 -3.759132928e-05)
(0.01371032678 0.004565750474 -8.735586134e-05)
(0.01358811096 0.004498602666 -5.283125856e-05)
(0.01343335829 0.004427895943 -7.420909226e-05)
(0.01327593573 0.004332725381 1.616071339e-05)
(0.01311871887 0.004258691226 7.949912458e-07)
(0.0128544855 0.004075890477 -1.352994497e-05)
(0.01265446697 0.003941291418 1.739216313e-05)
(0.01240020106 0.003828978658 -1.112691775e-05)
(0.01211583266 0.003676155815 2.457282636e-05)
(0.01189989415 0.003475495714 5.334510205e-05)
(0.01159067585 0.003221191317 2.731378044e-05)
(0.01126646254 0.002989126839 3.266750713e-05)
(0.009662786002 0.001244573024 -1.615832059e-05)
(0.009974358275 0.001516186477 2.755410506e-06)
(0.01030815162 0.001754442616 -1.720874117e-05)
(0.01073242192 0.002077488236 -1.060832269e-05)
(0.01110263924 0.002350120194 1.842057007e-05)
(0.0115467699 0.002700109153 5.443414461e-05)
(0.01206050698 0.003030997765 5.039905141e-05)
(0.01247545902 0.003322126279 5.096659299e-05)
(0.0129528808 0.003644334956 8.905022386e-06)
(0.01336727656 0.00389594686 -2.245858966e-05)
(0.01364214709 0.004154578279 -2.976703172e-05)
(0.01387823087 0.004379808799 -5.414591265e-05)
(0.01416690972 0.004556040113 -2.755596859e-05)
(0.01432194618 0.004684600483 5.126985229e-06)
(0.01439047474 0.004735919194 -3.76246901e-06)
(0.01444056674 0.004726321033 2.802737679e-05)
(0.01448183665 0.004835922199 5.000042796e-05)
(0.01444207266 0.004832109973 5.168442198e-05)
(0.01434379592 0.004827287162 -7.278174e-06)
(0.01426514235 0.004725186092 1.92285203e-05)
(0.01409272524 0.004691159858 3.673178226e-06)
(0.01393721569 0.004620578065 -3.606915952e-05)
(0.01371841078 0.004493883811 -1.037338758e-05)
(0.01356116428 0.004405241386 1.352917955e-05)
(0.01323511383 0.004256548063 1.341916006e-05)
(0.01309610685 0.004118063995 2.309010457e-05)
(0.01284286388 0.003980212551 2.158800268e-05)
(0.01266458612 0.003799589547 6.392812482e-05)
(0.01243792353 0.003618220673 -6.111098064e-06)
(0.01210852875 0.003354864402 -2.29925849e-05)
(0.009324801834 0.0009453376607 1.54168889e-05)
(0.009612492546 0.001158436916 9.864322661e-06)
(0.009899497524 0.001371799189 2.945129534e-05)
(0.01023848739 0.001610479849 2.321450762e-05)
(0.01067883133 0.001916539874 -1.068480399e-05)
(0.01105938693 0.002222522164 -1.3391559e-05)
(0.0114584295 0.002522351382 3.356054141e-05)
(0.01194081095 0.00279392582 4.047005192e-05)
(0.01242360925 0.003153649281 3.153489301e-05)
(0.01283040801 0.003465621278 4.763708568e-06)
(0.0132886683 0.003787875649 -4.574949579e-05)
(0.01359796386 0.004032814969 -4.976127179e-05)
(0.0139404123 0.004283262439 -4.283287662e-05)
(0.01426885931 0.004496416774 -4.215106116e-06)
(0.01447844903 0.004652822156 4.491969734e-05)
(0.01463791987 0.004739207352 2.054414758e-05)
(0.01470521592 0.004846939197 1.858493792e-05)
(0.01474432155 0.004895111194 4.76504193e-05)
(0.01480488237 0.004941257304 2.561470855e-05)
(0.01470884237 0.004907176122 -1.936932038e-05)
(0.01460415991 0.004889624665 2.605710281e-05)
(0.01448026104 0.004856015594 2.698970883e-05)
(0.01433322277 0.004769631808 2.683382384e-05)
(0.01416716733 0.004651015033 2.987742829e-05)
(0.01397425115 0.004530331582 6.766149605e-05)
(0.01377464301 0.004433752687 2.967575474e-05)
(0.01354372279 0.004273227146 -1.200643477e-05)
(0.01329710242 0.004071527342 -9.716811242e-06)
(0.01311642753 0.003907315489 2.922421658e-05)
(0.01296120488 0.003703517565 8.692979392e-06)
(0.009069370105 0.0006794405215 -1.141972172e-05)
(0.009266553936 0.0008436556979 -2.630682851e-05)
(0.009562213562 0.00106460696 -1.726978116e-05)
(0.009754506819 0.001249361646 4.130629675e-06)
(0.01005335387 0.001484066058 -6.715078222e-06)
(0.01039466556 0.001752769488 -2.474666557e-05)
(0.01079099506 0.002017054034 -4.05646621e-05)
(0.01118615109 0.00228688453 -3.374229149e-05)
(0.01162185387 0.002631019926 -1.809687157e-05)
(0.01204127185 0.002926647543 8.231702591e-06)
(0.01249833714 0.003231128036 2.967931225e-05)
(0.01309148692 0.003589372907 -9.681798143e-07)
(0.01357714812 0.003882350889 -1.276976608e-05)
(0.01394071718 0.00416469098 -5.458127854e-06)
(0.01427994032 0.004426123815 3.168891496e-05)
(0.0145252319 0.004591447991 3.790044043e-05)
(0.01469298696 0.004725356428 4.302643817e-07)
(0.01488147517 0.004868411605 1.014620277e-05)
(0.01500256479 0.004958057386 2.718998955e-05)
(0.01506414999 0.005007942886 3.978074944e-05)
(0.01502218992 0.004984932516 1.878637193e-05)
(0.01503528553 0.00502989021 2.062665691e-05)
(0.01491173877 0.004966205085 -1.756890477e-05)
(0.01482758193 0.004918669554 4.096198995e-05)
(0.0146474976 0.004801490368 1.54612058e-05)
(0.01446482627 0.004707546284 -5.476501372e-06)
(0.01426443263 0.00460051817 1.864926674e-05)
(0.01404476614 0.00439590577 3.451645481e-05)
(0.01380941356 0.004154618907 5.45360325e-05)
(0.01357126984 0.003983961256 5.750024938e-05)
(0.008791166453 0.0005208882914 -1.804867723e-05)
(0.008949616299 0.0006258303607 -1.776733469e-05)
(0.009119575297 0.0007597759393 3.969210683e-06)
(0.009457706421 0.0009441396545 -1.850564503e-05)
(0.009728769238 0.001158291529 -1.65147908e-05)
(0.01001859266 0.001349984417 -1.463814779e-05)
(0.01033007515 0.001591656954 -2.296080507e-05)
(0.01069087685 0.001882276021 -2.925131301e-05)
(0.01107690063 0.002144337202 -1.029309708e-05)
(0.01156127597 0.002455445278 -1.88322595e-06)
(0.01204131435 0.002757474137 -2.175045608e-05)
(0.01240523453 0.003038261417 3.102208023e-06)
(0.01283388499 0.003372146081 5.337025886e-06)
(0.01331835564 0.003709000453 -3.739878606e-05)
(0.01371227942 0.004038424508 -3.677452209e-05)
(0.01415492724 0.004269283417 -4.223049399e-06)
(0.01453841122 0.004497138761 -7.349405844e-06)
(0.01483487282 0.004665146082 -8.698191724e-07)
(0.01505575714 0.00486767472 -9.433100906e-06)
(0.01521827534 0.004989400309 2.059434471e-05)
(0.01531865178 0.005033003115 2.29407182e-05)
(0.01523172298 0.005065689169 2.594637446e-05)
(0.0153000346 0.005099680502 3.50573214e-05)
(0.01520618559 0.005065255854 -1.533815898e-05)
(0.01512932053 0.004994464151 3.894085751e-05)
(0.01505278557 0.004904873919 2.19430352e-05)
(0.01495633889 0.004839909921 -1.891607281e-06)
(0.01469206362 0.004693602449 -8.243435238e-06)
(0.01443206719 0.004471040412 1.583306911e-05)
(0.01414197935 0.00422720533 2.276683758e-05)
(0.008753624003 0.0003716806714 -8.957644545e-06)
(0.008900943623 0.0004630722449 -8.096499008e-06)
(0.009032207107 0.000561214267 -2.490409791e-05)
(0.009122329061 0.0006799212401 -1.173179303e-05)
(0.009389060383 0.0008705164851 7.068866963e-06)
(0.009632468505 0.00105558838 -7.039856644e-06)
(0.009882799535 0.001239853461 3.368620227e-06)
(0.01017701569 0.001473425574 -1.009295801e-05)
(0.01057472545 0.001704610497 -1.571988438e-05)
(0.01093848423 0.00195321982 -7.617915382e-06)
(0.01136843248 0.002285753751 1.107682314e-05)
(0.01176710557 0.002574993143 1.760166652e-05)
(0.01227234307 0.002897333742 2.770156177e-06)
(0.01276519188 0.003240581536 2.342382168e-06)
(0.01325578771 0.003525706063 -1.159583894e-05)
(0.01376570897 0.003849957452 -3.255726495e-05)
(0.01414384841 0.004142814993 -4.264102977e-06)
(0.01446185656 0.004380888541 1.003184333e-05)
(0.01483988223 0.004595250579 -7.888586109e-06)
(0.01513793689 0.004792838674 -4.069878045e-07)
(0.01536544296 0.004955454174 7.389615527e-06)
(0.01558940288 0.005080762015 2.64961313e-05)
(0.01565965815 0.005132554625 1.746082542e-05)
(0.01566183981 0.005172943705 3.132137989e-05)
(0.01559923432 0.00513612793 2.036930281e-05)
(0.01548420808 0.005050130432 3.786799212e-05)
(0.0154264944 0.005037004202 4.217804941e-05)
(0.01525429531 0.004942216186 4.376248444e-05)
(0.01500938183 0.004778623652 1.576135437e-05)
(0.01475705142 0.004568288205 -6.959871688e-06)
(0.008588991784 0.0002696397437 1.200720354e-05)
(0.008633396457 0.0003262826379 3.320653617e-06)
(0.008768438428 0.0004289160593 9.359291629e-06)
(0.008862261654 0.0005303393243 -1.63832077e-05)
(0.009005915113 0.0006209320322 -1.553771197e-05)
(0.009189942975 0.000775283512 5.32316386e-06)
(0.009476498885 0.0009302590368 2.52752496e-06)
(0.009757697536 0.001102887232 1.500950133e-05)
(0.01004181655 0.001326136284 -4.142990242e-06)
(0.01034381713 0.001527520269 7.170117229e-06)
(0.0107399751 0.001801864507 2.989182832e-05)
(0.01119579023 0.002103191226 -1.086440817e-05)
(0.01162506934 0.002372633382 -1.668170496e-06)
(0.01214999714 0.002696709769 3.268944608e-05)
(0.01260171017 0.003057384522 1.268221261e-05)
(0.01304772696 0.003381697693 1.527993819e-05)
(0.01349045124 0.003681486761 3.030606458e-05)
(0.01390590571 0.003979105846 1.465698345e-05)
(0.01426648443 0.004209201998 4.408815735e-06)
(0.0146972347 0.004466232039 -2.459437942e-05)
(0.01503948281 0.004722769412 -2.012318747e-05)
(0.01526627897 0.004909691313 -1.639830351e-05)
(0.01547411327 0.005036887157 9.789175067e-06)
(0.01560420916 0.005139682489 2.427712578e-07)
(0.01575161634 0.005161486978 4.621328575e-05)
(0.01574306095 0.005166850168 4.224286014e-05)
(0.01562898921 0.005123094858 4.102930059e-05)
(0.01556828962 0.00507531931 -1.998737304e-07)
(0.01544825447 0.005009725906 1.234401396e-05)
(0.008592459927 0.0002204328287 1.682640399e-05)
(0.008617807144 0.000270952671 4.505208554e-06)
(0.008668640376 0.0003137502066 -1.650080533e-06)
(0.008796277788 0.0003925975832 5.064021703e-06)
(0.008880489141 0.0004652707267 4.145898457e-07)
(0.009053575407 0.0005787289279 -8.009730949e-07)
(0.009223994136 0.0007067878098 -5.123599718e-06)
(0.009441228728 0.000839609145 -9.910901042e-06)
(0.009644535499 0.001021501124 -1.914656943e-05)
(0.00995894622 0.001225409038 -1.429739952e-05)
(0.01026285514 0.001412615829 -2.63629139e-05)
(0.01055394857 0.00163531087 -1.841091165e-05)
(0.01093313989 0.001917360386 -4.844727756e-05)
(0.01130721881 0.002176959845 -2.624116199e-05)
(0.01177505837 0.002537759041 -6.266540206e-06)
(0.01228662437 0.00283696783 -3.448427369e-05)
(0.01289097876 0.003189351437 -5.211932607e-05)
(0.01344201568 0.003524806376 -1.769461865e-05)
(0.01400308067 0.003869342532 8.248188102e-07)
(0.01428139073 0.004084698478 4.748420394e-06)
(0.01472986281 0.004376331818 -1.778430522e-05)
(0.01514264659 0.004642616915 -7.079024821e-06)
(0.01542403931 0.004835103868 -3.111200817e-06)
(0.01566513902 0.005022365046 2.099763693e-05)
(0.01575865065 0.005109016258 -2.313392169e-05)
(0.008467441252 0.0001607271474 -1.67065657e-05)
(0.008535083937 0.000192730671 -1.482238897e-05)
(0.008605308697 0.0002468810959 -6.385531698e-06)
(0.008671930246 0.0002994543338 -9.39623011e-06)
(0.008751513228 0.0003562432548 -3.057607472e-06)
(0.008838451868 0.0004200181057 -8.155371161e-06)
(0.008923292762 0.0005033827524 -1.178044322e-05)
(0.009049539275 0.0006350700017 -1.02881076e-05)
(0.009282946225 0.0007328712717 -1.333311868e-06)
(0.009508689138 0.0009322219668 -1.235834984e-05)
(0.009706141481 0.001094805336 -3.378446188e-06)
(0.01001102488 0.001288626656 -1.040958458e-06)
(0.01034952277 0.001507036325 -1.036030309e-05)
(0.0107818219 0.001759350178 -2.765497927e-05)
(0.01121123118 0.002044517517 -4.655563512e-05)
(0.01164682475 0.002350294335 -1.879107429e-05)
(0.01211113832 0.002637529716 -2.081290078e-05)
(0.01258774976 0.002985125229 -1.303978907e-05)
(0.01303612212 0.003317467513 4.370910544e-05)
(0.008444720661 0.0001205374166 3.433221853e-06)
(0.008479967842 0.0001404048752 6.460772671e-06)
(0.008534131283 0.0001711808507 1.021491447e-06)
(0.008585990916 0.0002136419105 1.682435361e-07)
(0.008636626689 0.0002780763034 -4.358686772e-06)
(0.008723659602 0.0003209529362 -8.106007942e-06)
(0.008864124529 0.0004028395029 -2.611471198e-07)
(0.008935126774 0.0004809114983 -5.464841581e-06)
(0.009059826458 0.0005828180669 2.260340656e-06)
(0.009179433085 0.000688465135 9.306545322e-06)
(0.00948204915 0.0008466514649 2.341852352e-06)
(0.009705546783 0.001009905887 3.37545653e-06)
(0.00995575002 0.001165911276 1.101864334e-05)
(0.01021598226 0.001360407129 4.114504431e-06)
(0.008405190824 7.944931242e-05 -1.694405914e-05)
(0.008454572159 9.30900514e-05 -1.986590666e-05)
(0.008478657306 0.0001345875836 -8.942842231e-06)
(0.008481044673 0.0001659591754 -1.374979869e-05)
(0.008574272717 0.0002111802417 2.72546803e-06)
(0.008563827701 0.0002583114425 1.208520794e-05)
(0.008645756651 0.0002982493374 3.808712927e-06)
(0.008747799699 0.0003545992345 3.628359125e-06)
(0.008382146066 6.612731696e-05 1.177826498e-05)
)
;

boundaryField
{
    flow
    {
        type            calculated;
        value           nonuniform List<vector> 
15
(
(0.003581169632 0.0006798265469 8.499633084e-06)
(0.004990821736 0.0007416072009 2.680136572e-05)
(0.005971375582 0.0008769455735 -5.253563311e-07)
(0.006898060426 0.001157813305 4.131857129e-06)
(0.007541393832 0.001423955164 -2.466948678e-05)
(0.008312757918 0.001730012308 -2.758962995e-05)
(0.009114699934 0.002020436351 1.869533764e-05)
(0.009937290491 0.0023230303 -5.547024646e-06)
(0.0107297492 0.002685516245 1.511035981e-05)
(0.01126646254 0.002989126839 3.266750713e-05)
(0.01210852875 0.003354864402 -2.29925849e-05)
(0.01296120488 0.003703517565 8.692979392e-06)
(0.01357126984 0.003983961256 5.750024938e-05)
(0.01414197935 0.00422720533 2.276683758e-05)
(0.01475705142 0.004568288205 -6.959871688e-06)
)
;
    }
    obstacle
    {
        type            calculated;
        value           nonuniform List<vector> 
30
(
(1.298032857e-21 3.478068564e-22 -1.919959371e-23)
(1.14173378e-21 3.059266449e-22 -2.471800069e-23)
(1.177762392e-21 3.15580481e-22 4.183303425e-23)
(1.180644018e-21 3.163526117e-22 -7.272339193e-24)
(1.038566066e-21 2.782829377e-22 -3.105964798e-23)
(1.047137245e-21 2.805795796e-22 1.575120518e-23)
(1.006752927e-21 2.697586343e-22 -2.690203193e-25)
(1.00022108e-21 2.680084298e-22 -4.377765182e-23)
(1.084725934e-21 2.906514385e-22 1.674916512e-23)
(9.369433086e-22 2.510532033e-22 -8.398434917e-23)
(9.953224131e-22 2.66695836e-22 -8.498529966e-24)
(9.021393688e-22 2.417275158e-22 7.040622681e-23)
(9.313799306e-22 2.495625007e-22 2.210674636e-23)
(8.963548983e-22 2.401775704e-22 -2.477368872e-24)
(7.657166432e-22 2.051731565e-22 6.49505951e-23)
(8.251593409e-22 2.211007783e-22 -6.927691393e-23)
(7.563847596e-22 2.026726859e-22 6.68613108e-24)
(8.134844991e-22 2.17972515e-22 -8.34571579e-24)
(8.05343677e-22 2.157911872e-22 -5.369763881e-23)
(8.861437377e-22 2.374414993e-22 1.020108526e-22)
(7.84369522e-22 2.101711804e-22 2.739903818e-23)
(8.402244351e-22 2.251374582e-22 3.599065425e-23)
(8.183467588e-22 2.192753535e-22 -2.912727754e-23)
(7.814698333e-22 2.093942111e-22 2.455906574e-23)
(8.496915369e-22 2.276741604e-22 1.270349508e-22)
(7.440346936e-22 1.993634957e-22 -5.666746495e-24)
(7.476796248e-22 2.003401511e-22 1.185659469e-23)
(8.568129505e-22 2.295823386e-22 -5.574638028e-24)
(8.3303839e-22 2.232119643e-22 7.421097883e-24)
(8.700393171e-22 2.331263317e-22 4.392290141e-23)
)
;
    }
    frontAndBack
    {
        type            empty;
    }
    procBoundary1to0
    {
        type            processor;
        value           nonuniform List<vector> 
21
(
(0.005699214467 0.001653951629 -7.149739433e-05)
(0.008725961347 0.002633969932 3.377077101e-05)
(0.0104888202 0.003380560165 -1.431600247e-05)
(0.01151898539 0.003709757713 -9.286661077e-06)
(0.01171731588 0.003638583573 2.840965308e-05)
(0.01156305021 0.003220512719 -1.908356474e-05)
(0.01118722226 0.002727212302 -1.065983405e-05)
(0.01060426921 0.002246922861 8.672423057e-06)