/*--------------------------------*- C++ -*----------------------------------*\
| =========                 |                                                 |
| \\      /  F ield         | OpenFOAM: The Open Source CFD Toolbox           |
|  \\    /   O peration     | Version:  2406                                  |
|   \\  /    A nd           | Website:  www.openfoam.com                      |
|    \\/     M anipulation  |                                                 |
\*---------------------------------------------------------------------------*/
FoamFile
{
    version     2.0;
    format      ascii;
    arch        "LSB;label=32;scalar=64";
    class       volScalarField;
    location    "0.012";
    object      overallT;
}
// * * * * * * * * * * * * * * * * * * * * * * * * * * * * * * * * * * * * * //

dimensions      [1 2 -2 0 0 0 0];

internalField   nonuniform List<scalar> 
546
(
841.0452924
831.5181783
819.3425671
809.1936173
803.4518419
799.6204555
795.5405413
784.2738541
772.6963358
772.6296542
766.3995295
762.5520402
758.546868
761.7485971
753.5695001
748.9379301
745.7694132
739.6789774
736.1498479
737.0807124
737.2381517
721.4816741
721.3424964
726.8959932
719.4107148
719.202014
721.439166
718.014957
711.0204401
700.2596354
916.2828978
911.6039244
906.4717538
900.8714548
895.324743
886.1111819
878.6201922
870.882193
866.3076689
862.1901588
850.5246591
849.2337435
844.7802161
846.0599433
844.3438732
828.9286798
827.8141811
818.9055393
813.36554
814.2982624
806.2302272
800.2260915
796.9868236
790.7642554
790.9338206
780.9129125
775.0314659
772.6005873
752.60893
724.9534591
928.9062138
928.3011935
926.7561619
929.245595
926.6859539
916.7629902
913.424684
912.2165676
899.267699
902.1975216
896.1455435
890.8368817
886.6720186
886.1329526
880.4658421
878.3210435
873.3635696
865.4597688
855.4191038
856.8206373
851.2275099
848.4501207
836.1139222
835.9084638
828.7861336
819.6577858
804.9307168
791.9005001
777.7329003
747.9473489
909.3567747
906.7676988
914.7405891
910.4496729
913.5467205
914.2505501
909.3449554
906.7280645
910.0536709
911.3670884
912.0021256
913.6615267
904.8879796
901.6308363
896.2447515
891.5275718
889.3454955
881.4298996
879.7577859
878.1770696
875.42321
869.291281
866.7357178
857.3569066
853.0002571
843.6511729
834.7955336
810.4670147
780.5639902
750.738164
877.7612533
881.4976596
889.1256296
890.137955
889.4251682
889.9694664
890.9948053
892.6115067
899.4740039
897.8827207
899.2765113
901.229957
901.7901269
900.0753695
893.0850121
893.6046721
895.3165122
892.7434645
891.2827557
887.0024876
879.2115191
882.1287713
877.753994
870.7177077
868.8606181
853.9623202
845.3141588
820.3550478
798.6372405
765.91695
847.6902603
851.0926693
860.318848
866.9584822
865.0702516
865.2383931
873.7203093
874.8851942
874.7970048
875.5451576
880.576732
886.9104104
886.2642536
890.5318459
887.6849632
886.7357122
881.3077153
886.6400666
885.4050527
883.8052086
879.0753042
879.4221549
880.3095594
873.4531932
866.0522242
855.3667042
843.4318691
824.8550453
807.5187363
781.2053054
813.6109694
821.6706423
829.737523
832.5103901
840.7631244
841.2280301
844.6630913
849.0864334
853.860606
857.7821147
861.4200056
867.2064552
869.0547724
868.2005535
871.1441673
872.9287026
877.2951437
880.6561633
881.0728284
879.603766
876.0450203
869.1344144
871.2904482
867.231364
858.5136242
846.3611998
837.3031982
833.8288764
817.1113924
785.9544165
764.8432084
784.1711271
789.1067156
800.0592512
805.951069
814.1188381
821.2721879
819.7484293
823.8752926
832.2495482
833.0078169
836.7907645
840.9516863
847.4191292
850.8845201
852.1014507
859.4855507
860.3290017
863.8803433
866.9256132
868.0036637
864.2604203
858.9303073
855.7366105
853.4070823
848.28597
840.2817512
823.9217555
811.8085903
791.2928759
716.450242
739.1646348
749.934322
764.5982921
775.6893113
783.0768403
789.089625
796.2421459
800.3170123
807.3941963
811.2541185
820.8243008
820.7531095
823.0602393
825.686258
835.6453355
840.4442327
841.7793705
838.442013
848.8703771
847.7147137
849.7299041
849.5632751
844.8439805
843.3191642
840.7921225
835.9150054
825.4524152
809.820643
791.3506406
661.8968817
683.8915939
712.1693016
727.1197066
744.5972274
750.8339136
755.8998067
770.6111211
776.4432104
781.275725
788.6274251
796.8917106
795.4743477
803.1930955
809.4627413
814.4089433
819.1010916
821.6878378
821.8784723
824.1227335
829.0270363
833.0571177
834.8832724
836.5949326
836.1021207
828.6725043
820.7184586
813.8030899
801.5624088
789.225202
604.2379675
633.5597262
658.6467747
682.4187273
697.2484869
715.8153
722.4807692
734.3489189
745.5918579
754.3009674
764.1109178
772.1133951
776.7805976
784.0559272
787.6125333
789.3230922
793.9140247
802.395313
804.6158017
803.4670317
813.2018268
816.2825075
821.3708827
822.5326898
818.5509471
818.3061511
811.3521647
800.7272752
793.7815106
780.8987011
557.3468827
588.4560229
607.4254445
631.4700992
649.4597782
670.8790453
692.7399289
702.4479286
717.441256
725.87976
735.1322819
746.5240952
754.0220312
763.4103155
768.9499627
769.8610074
772.8370498
781.8438026
789.0719641
788.7145783
795.5638396
799.3300001
801.4330155
802.4681988
802.3846077
801.9450033
799.6543483
795.6159351
786.3918388
776.080086
503.2542548
531.5708072
564.3946184
588.2270348
608.4207195
635.0808893
651.7946697
667.2130521
686.3725756
702.4026471
710.5750226
722.6062765
728.699633
739.1200704
747.9074018
749.963018
756.7237497
764.2802375
766.6234511
772.2474673
776.9140086
784.5130772
787.5270438
791.8819875
785.9468189
784.982404
785.3673526
783.5987341
777.9093298
769.4077222
460.6355909
485.4871938
508.4338197
536.4657489
567.7347052
590.5983911
606.6472063
625.6723649
644.0144594
663.5665582
680.1847376
693.1773912
703.6686463
716.5889462
725.2228723
728.6526842
739.8795433
741.8462961
746.5864669
750.7734466
752.3321471
762.8442439
765.2090224
768.6407949
771.785763
770.2807895
775.3464216
776.2128895
768.1744313
758.5836657
421.8240206
438.5835016
463.8244376
481.3114842
511.6857536
535.7408654
557.486121
584.516639
605.3411686
623.185644
643.3390481
661.1123248
672.7890899
683.4641888
694.4166829
702.9404429
712.3044393
717.0097472
727.1102003
733.0611872
736.4948111
741.8691254
748.793161
753.3592869
755.2786528
752.7885012
755.4094709
760.3209238
755.1384282
747.2666638
395.0282076
411.3781165
433.2352085
451.0261062
470.6675571
495.2854487
519.0681041
542.9053114
566.2912033
584.3599988
602.152671
623.6380013
635.5530003
650.0823377
670.0454398
678.9267479
693.0651922
698.2810285
708.4298138
709.9981249
715.536652
724.084427
728.2633675
732.9099665
739.8634374
740.6710052
740.254825
743.2823029
740.4553209
374.1516609
382.7475649
396.0478721
417.7499357
435.4495248
457.6112938
478.2984566
497.2199286
520.0069239
545.193505
564.4695964
586.8548316
601.9736192
619.6109666
641.061089
656.2992198
665.6885301
675.5516357
686.7184046
690.3867695
695.2382213
705.2915114
710.8230126
716.7968423
719.4011646
357.0531454
365.8974109
379.8990715
394.3352687
406.5256649
421.6354113
440.6944044
467.2116306
480.9258974
508.3418788
530.0755192
547.0898664
566.540035
586.9144268
607.4383543
623.6587487
639.8183436
654.5049824
665.5799408
342.3295699
351.2741834
359.5762401
373.0712709
387.0400498
400.3246403
412.182924
428.5695959
449.4062556
465.0432893
491.181401
508.9804472
527.070523
546.8193396
333.5612542
338.1343139
344.339818
353.6930065
366.6261807
379.8803051
387.2631389
400.9355194
322.9399318
)
;

boundaryField
{
    flow
    {
        type            calculated;
        value           nonuniform List<scalar> 
15
(
700.2596354
724.9534591
747.9473489
750.738164
765.91695
781.2053054
785.9544165
791.2928759
791.3506406
789.225202
780.8987011
776.080086
769.4077222
758.5836657
747.2666638
)
;
    }
    obstacle
    {
        type            calculated;
        value           nonuniform List<scalar> 
30
(
730.6524766
729.8584463
721.6032109
718.848117
710.5462541
718.6456732
702.8777303
709.8580892
686.3597944
685.4200596
695.3275552
673.4150796
682.2100442
676.5980187
679.4396315
679.6540709
678.4380869
669.3141049
663.5142737
650.0615082
674.8342526
662.5841107
646.8706095
677.7659375
651.814501
676.2500565
675.8284407
665.561573
671.6074861
681.4376253
)
;
    }
    frontAndBack
    {
        type            empty;
    }
    procBoundary1to0
    {
        type            processor;
        value           nonuniform List<scalar> 
21
(
848.9335039
927.7781307
929.3644234
914.2056981
878.3786296
844.2856618
798.3452023
748.5633833
692.8270774
636.7829342
576.9304293
521.2219533
478.5990266
437.8505056
407.4042746
380.0293139
359.4325018
347.052813
336.4288265
324.9853772
320.938034
)
;
    }
    procBoundary1to3
    {
        type            processor;
        value           nonuniform List<scalar> 
36
(
735.0054693
724.4163415
726.1054179
729.2683298
735.0054693
725.6094588
670.1966776
680.98246
690.7279394
695.0190227
703.2842828
724.4163415
708.8729948
567.3269052
591.2717276
609.483477
627.311478
670.1966776
642.1092555
418.9291544
434.7273801
454.0287559
476.7964238
494.0356419
567.3269052
512.3512821
325.651681
333.3201922
340.3802092
350.4752205
361.8678671
368.8967493
418.9291544
379.601336
325.651681
317.4306614
)
;
    }
}


// ************************************************************************* //
