/*--------------------------------*- C++ -*----------------------------------*\
| =========                 |                                                 |
| \\      /  F ield         | OpenFOAM: The Open Source CFD Toolbox           |
|  \\    /   O peration     | Version:  2406                                  |
|   \\  /    A nd           | Website:  www.openfoam.com                      |
|    \\/     M anipulation  |                                                 |
\*---------------------------------------------------------------------------*/
FoamFile
{
    version     2.0;
    format      ascii;
    arch        "LSB;label=32;scalar=64";
    class       volScalarField;
    location    "0.012";
    object      p;
}
// * * * * * * * * * * * * * * * * * * * * * * * * * * * * * * * * * * * * * //

dimensions      [1 -1 -2 0 0 0 0];

internalField   nonuniform List<scalar> 
546
(
3.929182382
3.861372193
3.770453334
3.704485319
3.615723237
3.564651659
3.579539169
3.510227315
3.477606299
3.430446953
3.35538106
3.357458121
3.311611402
3.35758931
3.315424532
3.204954807
3.114672946
3.143699877
3.119110863
3.06491179
3.047076025
3.021557242
2.974563374
2.969059804
2.85391868
2.770988252
2.657100187
2.534983021
2.313991205
1.895168077
3.898193264
3.830365791
3.748727927
3.73642576
3.677500179
3.640893308
3.584871732
3.547502514
3.505975882
3.443569044
3.403119012
3.424526135
3.412306479
3.405058342
3.376719871
3.262170959
3.222225619
3.228140654
3.171842435
3.115411563
3.077827129
3.060442305
3.040464715
2.958918453
2.88083282
2.801959132
2.651676722
2.478999422
2.199473091
1.728892811
3.689551403
3.682040541
3.642291412
3.653977601
3.599788177
3.515675077
3.524413821
3.484647709
3.470863872
3.438139161
3.423087193
3.438660395
3.389534722
3.353086662
3.322340221
3.244632853
3.236849745
3.236689868
3.13967923
3.12229538
3.063364413
3.048541435
3.063853576
2.930015941
2.84305888
2.73841633
2.618670835
2.423469786
2.18115843
1.778207075
3.423043671
3.435010975
3.497668824
3.47574393
3.484849213
3.455452386
3.44641419
3.406907722
3.387689856
3.391192745
3.376739312
3.360519762
3.345739765
3.310492007
3.262299013
3.231196401
3.20926202
3.182244019
3.150599619
3.120034118
3.065272465
3.037756142
2.998953186
2.937262238
2.848482057
2.750477302
2.603446984
2.401604307
2.188961046
1.891253667
3.14076062
3.172018405
3.274789049
3.338935431
3.349106463
3.303865865
3.310072407
3.29563864
3.329207548
3.29178528
3.278951386
3.315648309
3.317514964
3.285253854
3.220636543
3.219300689
3.171747514
3.165278434
3.144906168
3.0943286
3.029323083
3.013945791
2.965447312
2.905292649
2.842863457
2.754153168
2.663805521
2.409803507
2.214524279
1.909629743
2.84821295
2.942287377
3.049139473
3.111795691
3.125114058
3.10992652
3.174402751
3.20154326
3.21261782
3.187592579
3.224097297
3.235899129
3.195018379
3.219638082
3.164847082
3.162748587
3.09128973
3.143625643
3.128335808
3.088404647
3.038809206
2.979815233
2.933526327
2.881230753
2.832533067
2.735278968
2.590969907
2.443330162
2.269242947
1.996470196
2.513380053
2.667768508
2.759588411
2.8292868
2.936242308
2.969633496
3.010639962
3.064025974
3.06783051
3.115784412
3.124444475
3.153460461
3.144638875
3.106966541
3.117760956
3.104911224
3.099190862
3.105985961
3.080364088
3.053992079
3.038018115
2.97157586
2.912114827
2.853859871
2.817897538
2.671391006
2.599423043
2.493401251
2.308878326
2.077605331
2.155905179
2.333971557
2.444761683
2.585963739
2.653821946
2.75675248
2.852235619
2.903845868
2.916846075
2.980035975
3.009580112
3.044985614
3.02443945
3.043462417
3.062874336
3.082334951
3.101494416
3.046898959
3.034741923
3.036203582
3.030031578
2.971977193
2.92117152
2.841787311
2.800170901
2.726977511
2.654916359
2.483140397
2.36182238
2.176934499
1.862210989
2.012627991
2.144107247
2.293604698
2.416432838
2.519072525
2.620990126
2.692266687
2.7547918
2.80317477
2.855418172
2.964957439
2.977270325
2.968885621
2.961587664
3.034899163
3.021169597
3.017606649
2.977439028
2.999434041
2.948263453
2.937900773
2.898383291
2.844764969
2.801419513
2.765466528
2.660465301
2.548226028
2.403996302
2.233132716
1.557812467
1.68695141
1.84549887
1.991658809
2.153290033
2.240667681
2.341545888
2.476224052
2.569687328
2.654736894
2.731798237
2.822327194
2.820432099
2.880563178
2.914677217
2.929657413
2.944005748
2.957468367
2.89968063
2.904973972
2.928474137
2.923343945
2.891656115
2.846955344
2.824049607
2.761649427
2.657968588
2.567543695
2.424890747
2.289267201
1.311206728
1.450777735
1.587022446
1.732779535
1.856548163
2.002945461
2.109202844
2.225662148
2.361987496
2.466485526
2.560129502
2.635268282
2.706098701
2.788872838
2.813036404
2.818028686
2.854526014
2.89888169
2.897663824
2.86758475
2.910191158
2.889424763
2.888453828
2.861444313
2.772633258
2.746949804
2.688388205
2.590295632
2.48385202
2.339602858
1.127700244
1.260325873
1.356120045
1.479159373
1.604806204
1.744861788
1.883240457
1.99977815
2.140879443
2.237221858
2.339820377
2.44391125
2.533347474
2.638140978
2.699934378
2.724496735
2.751557905
2.802229921
2.853807732
2.829858685
2.850070811
2.861496868
2.845634334
2.830725469
2.782009922
2.744841754
2.695844038
2.609540742
2.529936765
2.428623995
0.9561328966
1.050856633
1.171712844
1.26975974
1.370370511
1.509805984
1.634862252
1.731171292
1.867470578
1.995642153
2.101451094
2.244743847
2.351621188
2.454741163
2.543093131
2.587121575
2.649117445
2.723883204
2.751186738
2.781955823
2.784544283
2.839319593
2.828127811
2.838181478
2.778872091
2.742679249
2.704298665
2.666723682
2.573400799
2.454996955
0.8183438384
0.8951069406
0.9704852481
1.077920749
1.198460948
1.300301445
1.396906847
1.510700793
1.632601478
1.775738349
1.908826358
2.013220883
2.118927434
2.249602334
2.354166328
2.42634798
2.534747175
2.584411102
2.636221387
2.685856789
2.713561852
2.737583185
2.771144007
2.775163392
2.752899117
2.726741133
2.745867098
2.690490269
2.581092504
2.472861625
0.7182015478
0.7718270193
0.8451994113
0.9023242951
1.00997436
1.099567674
1.191142455
1.30963505
1.424862323
1.535059685
1.662674426
1.787484342
1.911729741
2.018723078
2.140364803
2.248583725
2.337687867
2.403576102
2.499140768
2.57238758
2.620124355
2.681102926
2.719951116
2.747004993
2.746008978
2.693201679
2.697329038
2.690077054
2.617517838
2.501934745
0.6413840526
0.6827289741
0.7442584162
0.7937014057
0.8549261198
0.9374020083
1.033332423
1.129661298
1.232883957
1.31829522
1.430951583
1.566293458
1.656821069
1.79153373
1.931183486
2.04078435
2.155421874
2.239561644
2.333230715
2.405581049
2.471675373
2.547857012
2.600592142
2.63902012
2.679771609
2.67400018
2.655619635
2.640352019
2.598048199
0.5934603968
0.6161209161
0.6492857021
0.7110684771
0.7582451936
0.8275989598
0.8937331184
0.975113487
1.060658648
1.164454223
1.258653717
1.36421445
1.451444774
1.550849197
1.700486793
1.81992818
1.948242383
2.073032478
2.199568459
2.242129786
2.334843756
2.448175942
2.495086942
2.566451575
2.571919172
0.5442984151
0.5691899861
0.607518341
0.6440777591
0.6803761093
0.7232382391
0.7725637773
0.8459183389
0.906771953
1.004947834
1.078555009
1.164286495
1.260361982
1.376025161
1.504448576
1.623066367
1.734485127
1.855127657
1.96589377
0.5136969468
0.5360314005
0.5539427362
0.5870087454
0.6230919642
0.6623401073
0.7020126046
0.7481144765
0.8081784074
0.8584305816
0.959747273
1.025039112
1.104526194
1.186562413
0.4877241643
0.4994027584
0.5178634302
0.5399458308
0.5740794058
0.6035351177
0.6251132662
0.6645892011
0.4666938283
)
;

boundaryField
{
    flow
    {
        type            calculated;
        value           nonuniform List<scalar> 
15
(
1.895168077
1.728892811
1.778207075
1.891253667
1.909629743
1.996470196
2.077605331
2.176934499
2.233132716
2.289267201
2.339602858
2.428623995
2.454996955
2.472861625
2.501934745
)
;
    }
    obstacle
    {
        type            calculated;
        value           nonuniform List<scalar> 
30
(
3.254642458
3.286081346
3.178548066
3.186583634
3.080414258
3.081238008
3.10041089
3.119783176
3.091792259
2.987129519
2.954063274
3.02009273
2.979941229
2.996965486
3.044793314
2.932266637
2.849981613
2.858262742
2.879325037
2.814018911
2.787969285
2.767831294
2.704902331
2.754485231
2.659601816
2.581660244
2.464267384
2.367322425
2.214762111
1.989764237
)
;
    }
    frontAndBack
    {
        type            empty;
    }
    procBoundary1to0
    {
        type            processor;
        value           nonuniform List<scalar> 
21
(
3.999037735
3.921177031
3.694018338
3.43699949
3.074816723
2.709535677
2.364394909
2.024723997
1.706112111
1.419715091
1.193608439
1.010919701
0.882438653
0.7608992109
0.6672568047
0.6036237053
0.5572524364
0.5182927183
0.4975252276
0.4670118474
0.4651438927
)
;
    }
    procBoundary1to3
    {
        type            processor;
        value           nonuniform List<scalar> 
36
(
2.536686724
2.597932489
2.632288195
2.616939454
2.536686724
2.571796472
2.067557308
2.173975033
2.292080521
2.360773406
2.445489641
2.597932489
2.521544493
1.290117417
1.431672948
1.531147058
1.660256297
2.067557308
1.777381114
0.7157808216
0.7668321111
0.8167720984
0.8985233814
0.9608913857
1.290117417
1.038163776
0.4759358535
0.4922912244
0.5088224173
0.5353148195
0.5654478515
0.5825192
0.7157808216
0.6117197419
0.4759358535
0.4575018941
)
;
    }
}


// ************************************************************************* //
