/*--------------------------------*- C++ -*----------------------------------*\
| =========                 |                                                 |
| \\      /  F ield         | OpenFOAM: The Open Source CFD Toolbox           |
|  \\    /   O peration     | Version:  2406                                  |
|   \\  /    A nd           | Website:  www.openfoam.com                      |
|    \\/     M anipulation  |                                                 |
\*---------------------------------------------------------------------------*/
FoamFile
{
    version     2.0;
    format      ascii;
    arch        "LSB;label=32;scalar=64";
    class       volScalarField;
    location    "0.012";
    object      rhoMMean;
}
// * * * * * * * * * * * * * * * * * * * * * * * * * * * * * * * * * * * * * //

dimensions      [1 -3 0 0 0 0 0];

internalField   nonuniform List<scalar> 
546
(
1.467754774e-05
1.466484791e-05
1.453574805e-05
1.461896161e-05
1.445274019e-05
1.435741787e-05
1.462798292e-05
1.452068151e-05
1.461190207e-05
1.445349563e-05
1.433601972e-05
1.445945736e-05
1.433180035e-05
1.451359806e-05
1.458138447e-05
1.425618899e-05
1.381050769e-05
1.412863563e-05
1.406391933e-05
1.384957543e-05
1.372442087e-05
1.390177391e-05
1.367082464e-05
1.348879257e-05
1.309461363e-05
1.274275061e-05
1.220960713e-05
1.179032967e-05
1.08583166e-05
9.071791852e-06
1.324418252e-05
1.320044079e-05
1.307174375e-05
1.315130535e-05
1.309665369e-05
1.322635886e-05
1.319212025e-05
1.316534451e-05
1.313515914e-05
1.300722319e-05
1.311922201e-05
1.32490302e-05
1.326713747e-05
1.322659949e-05
1.32031247e-05
1.302499619e-05
1.288857942e-05
1.303015282e-05
1.290577881e-05
1.27284381e-05
1.271467846e-05
1.266256773e-05
1.266767558e-05
1.236560223e-05
1.21106676e-05
1.189217061e-05
1.137430969e-05
1.074395311e-05
9.851593509e-06
8.345996724e-06
1.238892764e-05
1.246439273e-05
1.244572425e-05
1.249164154e-05
1.241084289e-05
1.238775672e-05
1.244862486e-05
1.238146339e-05
1.256902396e-05
1.244156285e-05
1.25135705e-05
1.259223326e-05
1.251574708e-05
1.247647123e-05
1.244156021e-05
1.224241237e-05
1.234765991e-05
1.238220772e-05
1.21771764e-05
1.209258208e-05
1.19458128e-05
1.194087796e-05
1.21876009e-05
1.168550868e-05
1.144446894e-05
1.116327893e-05
1.0866752e-05
1.036997612e-05
9.613871963e-06
8.409725714e-06
1.157567607e-05
1.176642501e-05
1.204641731e-05
1.20760719e-05
1.214266499e-05
1.213136817e-05
1.224049087e-05
1.21674655e-05
1.212344311e-05
1.212414263e-05
1.213225288e-05
1.208333666e-05
1.215665071e-05
1.211715912e-05
1.197425011e-05
1.199533116e-05
1.19694661e-05
1.191974047e-05
1.189525781e-05
1.180107018e-05
1.167918985e-05
1.166901801e-05
1.154731516e-05
1.141401792e-05
1.123034482e-05
1.099987737e-05
1.065187076e-05
1.006886039e-05
9.618535726e-06
8.823126305e-06
1.087331733e-05
1.108935808e-05
1.14620967e-05
1.177803531e-05
1.191343851e-05
1.186294616e-05
1.19386772e-05
1.195067219e-05
1.203652793e-05
1.196576789e-05
1.190984664e-05
1.204061496e-05
1.208453605e-05
1.201687613e-05
1.194873953e-05
1.188721703e-05
1.173965492e-05
1.173959507e-05
1.171817001e-05
1.16355301e-05
1.151756981e-05
1.141024104e-05
1.127672876e-05
1.118828344e-05
1.099996683e-05
1.085216532e-05
1.070896522e-05
1.007448773e-05
9.581315828e-06
8.807027193e-06
1.010422194e-05
1.052215689e-05
1.091262829e-05
1.116549908e-05
1.133364745e-05
1.145640509e-05
1.163791672e-05
1.177493096e-05
1.186002432e-05
1.188248062e-05
1.1969952e-05
1.19304164e-05
1.181352685e-05
1.188882149e-05
1.181718538e-05
1.180836942e-05
1.167169516e-05
1.177778108e-05
1.175235755e-05
1.163349906e-05
1.15158048e-05
1.131179424e-05
1.123093851e-05
1.117783473e-05
1.101959673e-05
1.080620667e-05
1.047488563e-05
1.017183812e-05
9.746314494e-06
9.024071327e-06
9.145445252e-06
9.684094476e-06
1.008903111e-05
1.044288769e-05
1.087013779e-05
1.109975359e-05
1.127808993e-05
1.147948658e-05
1.154557525e-05
1.169757702e-05
1.178997635e-05
1.188413772e-05
1.187942668e-05
1.181353791e-05
1.182580061e-05
1.178314504e-05
1.171014368e-05
1.175587792e-05
1.167283824e-05
1.161665903e-05
1.157996205e-05
1.145710674e-05
1.125566374e-05
1.114085434e-05
1.111005123e-05
1.077486752e-05
1.05538397e-05
1.023970562e-05
9.81411883e-06
9.312550354e-06
8.264110264e-06
8.779713481e-06
9.274747301e-06
9.768070323e-06
1.009536811e-05
1.048897047e-05
1.087043356e-05
1.114550064e-05
1.127216062e-05
1.14697585e-05
1.162057771e-05
1.176357731e-05
1.172487496e-05
1.179300262e-05
1.186277816e-05
1.189851465e-05
1.19193138e-05
1.178861021e-05
1.170975257e-05
1.172126123e-05
1.170201488e-05
1.153592858e-05
1.14113455e-05
1.124253982e-05
1.113056464e-05
1.095532583e-05
1.078925093e-05
1.039564257e-05
1.013118767e-05
9.684901773e-06
7.537057227e-06
7.984548347e-06
8.451485114e-06
8.934537599e-06
9.381354023e-06
9.776151782e-06
1.021787081e-05
1.051607032e-05
1.079355192e-05
1.101922759e-05
1.125461793e-05
1.155942528e-05
1.170516077e-05
1.175520861e-05
1.175572715e-05
1.187516812e-05
1.187008983e-05
1.187218057e-05
1.183894516e-05
1.180882598e-05
1.172353589e-05
1.165049042e-05
1.153736639e-05
1.139431633e-05
1.124810187e-05
1.117167991e-05
1.092469143e-05
1.061830994e-05
1.027857839e-05
9.931022494e-06
6.800837276e-06
7.160047634e-06
7.585218019e-06
8.049398306e-06
8.597747682e-06
8.99168633e-06
9.439934401e-06
9.884079458e-06
1.026126839e-05
1.059441131e-05
1.092284435e-05
1.122875007e-05
1.134132593e-05
1.152677853e-05
1.167852748e-05
1.176110611e-05
1.1817631e-05
1.191447174e-05
1.177515217e-05
1.179741081e-05
1.184349234e-05
1.181571983e-05
1.173605961e-05
1.155309752e-05
1.148037794e-05
1.13233227e-05
1.106986436e-05
1.083909071e-05
1.04812942e-05
1.008289017e-05
6.343418013e-06
6.675924313e-06
7.016213421e-06
7.420279385e-06
7.805752912e-06
8.254430765e-06
8.720283385e-06
9.165610516e-06
9.655354823e-06
1.009277131e-05
1.042838191e-05
1.073045507e-05
1.105065265e-05
1.133288434e-05
1.148599554e-05
1.157861239e-05
1.173155129e-05
1.183815955e-05
1.1873092e-05
1.185327977e-05
1.189637415e-05
1.185670893e-05
1.177166032e-05
1.176343795e-05
1.149522694e-05
1.139137791e-05
1.125966341e-05
1.109760417e-05
1.084145637e-05
1.04476596e-05
5.954782761e-06
6.251754645e-06
6.518044049e-06
6.842398087e-06
7.225342262e-06
7.62136223e-06
8.027874355e-06
8.47290909e-06
8.93995594e-06
9.346750321e-06
9.784014034e-06
1.01626827e-05
1.052493105e-05
1.089818063e-05
1.11459145e-05
1.13526083e-05
1.149631491e-05
1.166139709e-05
1.183291525e-05
1.184207332e-05
1.187406184e-05
1.188915762e-05
1.183062843e-05
1.179140372e-05
1.169718188e-05
1.157668412e-05
1.142097139e-05
1.121046904e-05
1.107829247e-05
1.088484215e-05
5.636412076e-06
5.825718294e-06
6.10610151e-06
6.332549789e-06
6.604210303e-06
6.95378637e-06
7.34543084e-06
7.685920343e-06
8.104216007e-06
8.523680838e-06
8.939814093e-06
9.498032212e-06
9.967285138e-06
1.035553915e-05
1.072070166e-05
1.095885475e-05
1.121144748e-05
1.147290007e-05
1.162151209e-05
1.176913198e-05
1.17837981e-05
1.194055715e-05
1.191880848e-05
1.193394598e-05
1.183739159e-05
1.177040556e-05
1.165439091e-05
1.150876514e-05
1.127138285e-05
1.10142557e-05
5.366223357e-06
5.517489889e-06
5.685092405e-06
5.963203895e-06
6.219636415e-06
6.489173819e-06
6.784950129e-06
7.122886036e-06
7.499749537e-06
7.948738883e-06
8.39269536e-06
8.734601021e-06
9.141834516e-06
9.637267403e-06
1.004720459e-05
1.042674585e-05
1.080717533e-05
1.111742606e-05
1.134978165e-05
1.157081382e-05
1.170971584e-05
1.175253837e-05
1.192574311e-05
1.196492481e-05
1.191802796e-05
1.189157388e-05
1.18993942e-05
1.170895896e-05
1.147285282e-05
1.118895689e-05
5.251309097e-06
5.375028427e-06
5.514683055e-06
5.623035982e-06
5.86435097e-06
6.088223971e-06
6.322605338e-06
6.603275726e-06
6.954711732e-06
7.297310925e-06
7.697157704e-06
8.081742234e-06
8.542081323e-06
8.97041454e-06
9.422119446e-06
9.878224441e-06
1.025009232e-05
1.056076749e-05
1.095415406e-05
1.126666046e-05
1.151079028e-05
1.176421958e-05
1.18924064e-05
1.197105232e-05
1.200008291e-05
1.193182724e-05
1.198249886e-05
1.191838095e-05
1.171318885e-05
1.145931937e-05
5.121009516e-06
5.17521021e-06
5.296123396e-06
5.39321082e-06
5.524654303e-06
5.70035388e-06
5.949527096e-06
6.198727114e-06
6.46120534e-06
6.721198648e-06
7.061245857e-06
7.46617097e-06
7.827975245e-06
8.291203015e-06
8.741748634e-06
9.173410466e-06
9.589533245e-06
9.974057425e-06
1.030491637e-05
1.069622891e-05
1.10282157e-05
1.131333473e-05
1.15332113e-05
1.173169739e-05
1.18728737e-05
1.192310986e-05
1.190209298e-05
1.188348945e-05
1.182296312e-05
5.069840664e-06
5.103571895e-06
5.155593831e-06
5.279939455e-06
5.363808133e-06
5.52071709e-06
5.666764671e-06
5.852470157e-06
6.049647981e-06
6.324785198e-06
6.594965313e-06
6.865930544e-06
7.191391408e-06
7.508758684e-06
7.958017377e-06
8.38916426e-06
8.907009216e-06
9.417417604e-06
9.911215028e-06
1.015622489e-05
1.05669316e-05
1.100251748e-05
1.126781536e-05
1.153264308e-05
1.162623935e-05
4.975148172e-06
5.034027354e-06
5.099336076e-06
5.15760884e-06
5.231829966e-06
5.305783747e-06
5.390161352e-06
5.520739689e-06
5.703668661e-06
5.910809061e-06
6.09676439e-06
6.354955235e-06
6.640566887e-06
7.003740469e-06
7.386623544e-06
7.774644458e-06
8.163713592e-06
8.596309396e-06
9.017072433e-06
4.93724987e-06
4.973893567e-06
5.011901306e-06
5.062346254e-06
5.115716691e-06
5.200857084e-06
5.312804204e-06
5.385686049e-06
5.507742887e-06
5.617876175e-06
5.862280431e-06
6.048764065e-06
6.267199254e-06
6.509043956e-06
4.887120084e-06
4.92082022e-06
4.950226441e-06
4.976006932e-06
5.046648383e-06
5.06521759e-06
5.133863257e-06
5.222773577e-06
4.861160767e-06
)
;

boundaryField
{
    flow
    {
        type            calculated;
        value           nonuniform List<scalar> 
15
(
9.071791852e-06
8.345996724e-06
8.409725714e-06
8.823126305e-06
8.807027193e-06
9.024071327e-06
9.312550354e-06
9.684901773e-06
9.931022494e-06
1.008289017e-05
1.04476596e-05
1.088484215e-05
1.10142557e-05
1.118895689e-05
1.145931937e-05
)
;
    }
    obstacle
    {
        type            calculated;
        value           nonuniform List<scalar> 
30
(
6.50783415e-24
6.543166855e-24
6.336364059e-24
6.558916908e-24
6.330374879e-24
6.219793935e-24
6.434993378e-24
6.296546839e-24
6.571793589e-24
6.215393102e-24
6.145466475e-24
6.49297576e-24
6.175175514e-24
6.247089376e-24
6.452431459e-24
6.029860675e-24
5.926499836e-24
6.048831905e-24
6.111974488e-24
6.159144364e-24
5.844367152e-24
5.90432194e-24
5.95774491e-24
5.892580472e-24
5.817043797e-24
5.318788562e-24
5.244570949e-24
5.201018202e-24
4.741277335e-24
4.187420964e-24
)
;
    }
    frontAndBack
    {
        type            empty;
    }
    procBoundary1to0
    {
        type            processor;
        value           nonuniform List<scalar> 
21
(
1.470856066e-05
1.306908975e-05
1.225520404e-05
1.142328604e-05
1.052938833e-05
9.532248083e-06
8.648081939e-06
7.804750995e-06
7.085295724e-06
6.439239293e-06
6.051174519e-06
5.741282958e-06
5.492015735e-06
5.289256737e-06
5.120116903e-06
5.057418783e-06
5.017004282e-06
4.928125586e-06
4.913647721e-06
4.862670543e-06
4.889030325e-06
)
;
    }
    procBoundary1to3
    {
        type            processor;
        value           nonuniform List<scalar> 
36
(
1.169642733e-05
1.173292201e-05
1.192409709e-05
1.191787178e-05
1.169642733e-05
1.187534236e-05
9.484751392e-06
9.902387e-06
1.036891705e-05
1.073653412e-05
1.109922482e-05
1.173292201e-05
1.145635233e-05
6.808348015e-06
7.205888574e-06
7.530930878e-06
7.938088388e-06
9.484751392e-06
8.385713452e-06
5.319303641e-06
5.434818932e-06
5.508740572e-06
5.685248223e-06
5.85651336e-06
6.808348015e-06
6.074319296e-06
4.89632833e-06
4.914136393e-06
4.928500423e-06
4.981781557e-06
5.037877931e-06
5.065673491e-06
5.319303641e-06
5.128181936e-06
4.89632833e-06
4.871144977e-06
)
;
    }
}


// ************************************************************************* //
