/*--------------------------------*- C++ -*----------------------------------*\
| =========                 |                                                 |
| \\      /  F ield         | OpenFOAM: The Open Source CFD Toolbox           |
|  \\    /   O peration     | Version:  2406                                  |
|   \\  /    A nd           | Website:  www.openfoam.com                      |
|    \\/     M anipulation  |                                                 |
\*---------------------------------------------------------------------------*/
FoamFile
{
    version     2.0;
    format      ascii;
    arch        "LSB;label=32;scalar=64";
    class       volScalarField;
    location    "0.012";
    object      rhoM;
}
// * * * * * * * * * * * * * * * * * * * * * * * * * * * * * * * * * * * * * //

dimensions      [1 -3 0 0 0 0 0];

internalField   nonuniform List<scalar> 
546
(
1.125037757e-05
9.682325277e-06
1.308116057e-05
1.813088709e-05
1.036250512e-05
1.84067865e-05
1.503952387e-05
1.484452395e-05
1.26630071e-05
1.555450906e-05
1.246073779e-05
9.967686958e-06
1.919802681e-05
1.128224282e-05
1.170538422e-05
1.548676367e-05
1.704949153e-05
1.642676363e-05
1.381777889e-05
1.506113453e-05
1.45793069e-05
1.400136554e-05
1.581225614e-05
1.344226102e-05
1.103010683e-05
9.942791503e-06
1.408265434e-05
9.474229326e-06
9.561604877e-06
8.137233236e-06
1.214324688e-05
1.245913201e-05
1.035905882e-05
1.378843847e-05
1.565758184e-05
1.306955896e-05
1.052140132e-05
9.188115939e-06
1.535451573e-05
1.324130393e-05
1.390887824e-05
1.312741127e-05
1.601094133e-05
1.515374893e-05
1.386481673e-05
1.113233226e-05
1.772449749e-05
9.107129576e-06
1.321691599e-05
9.868215069e-06
1.615182479e-05
1.206416308e-05
1.287998909e-05
7.706809971e-06
1.464746354e-05
1.03086524e-05
7.363522877e-06
1.541932642e-05
7.592773501e-06
9.176823043e-06
1.639020888e-05
1.200849698e-05
1.232390811e-05
1.256995624e-05
1.120584392e-05
1.384409619e-05
1.558698308e-05
1.688527651e-05
1.511596428e-05
1.659186062e-05
1.463198013e-05
1.053501718e-05
1.012921041e-05
1.721162565e-05
8.302740547e-06
1.481530007e-05
1.637448558e-05
1.166010886e-05
1.613568823e-05
9.434776749e-06
1.571466374e-05
1.453007917e-05
1.039252364e-05
1.156021496e-05
1.112021407e-05
1.258814151e-05
5.430348675e-06
1.541932641e-05
1.059386528e-05
8.137233243e-06
1.497575135e-05
1.080800886e-05
1.088840698e-05
9.97930522e-06
1.243537593e-05
1.330266532e-05
1.129999956e-05
8.638318756e-06
1.8124906e-05
1.236487517e-05
9.646523022e-06
8.913794812e-06
1.184487925e-05
1.325804252e-05
1.502728041e-05
1.397899517e-05
1.299742265e-05
1.191458672e-05
9.440654277e-06
1.159988326e-05
1.43161691e-05
1.074343963e-05
1.492265291e-05
1.22768765e-05
1.53683215e-05
1.386535857e-05
1.343826296e-05
7.245657004e-06
5.343648287e-06
1.059589586e-05
1.296365467e-05
1.080800886e-05
8.392388117e-06
9.597841361e-06
1.220402977e-05
1.229688472e-05
9.585581604e-06
6.204313419e-06
1.26630071e-05
1.228345303e-05
1.197996097e-05
1.393899851e-05
1.478574472e-05
8.729920231e-06
1.253685823e-05
9.29084836e-06
8.608867375e-06
1.106427703e-05
9.870432771e-06
1.177242454e-05
1.248471939e-05
1.259287668e-05
1.838825395e-05
1.048414332e-05
1.121032134e-05
8.94051943e-06
1.122987122e-05
8.823949403e-06
8.811896478e-06
9.367704179e-06
9.611356695e-06
1.538554777e-05
1.081304602e-05
1.218849241e-05
1.473589507e-05
1.25281281e-05
1.278140123e-05
1.374303781e-05
1.79671427e-05
1.539550772e-05
1.760645383e-05
7.050267548e-06
1.184487924e-05
1.15304576e-05
1.129164714e-05
1.330954797e-05
9.706514477e-06
1.574610582e-05
8.668706999e-06
9.262235466e-06
1.300889203e-05
8.365288943e-06
1.332479077e-05
1.156021496e-05
1.184324977e-05
9.21326709e-06
1.454356749e-05
8.731371897e-06
1.171729878e-05
1.097537887e-05
6.929159345e-06
8.556641677e-06
1.202246424e-05
1.356066119e-05
9.440818337e-06
9.976998997e-06
1.184558152e-05
1.068096309e-05
9.81373518e-06
1.268287782e-05
1.447172121e-05
1.215623955e-05
1.307007588e-05
1.490553414e-05
1.63552389e-05
9.876866703e-06
1.274505785e-05
1.106427702e-05
1.175856367e-05
9.001338497e-06
1.484034182e-05
1.752470899e-05
1.279145674e-05
1.362088684e-05
1.039717842e-05
1.377444281e-05
1.178252356e-05
1.31907541e-05
9.374742374e-06
1.173206598e-05
7.673516217e-06
7.204736593e-06
8.090944276e-06
1.112186169e-05
1.059200236e-05
1.013116124e-05
1.129999956e-05
1.288015182e-05
1.685898661e-05
8.694394363e-06
1.599999111e-05
1.199470292e-05
1.217054886e-05
6.918274568e-06
1.01291835e-05
1.037945624e-05
9.958879262e-06
7.234808053e-06
1.244496865e-05
9.43477671e-06
1.23106961e-05
8.894002447e-06
9.682124844e-06
8.334158643e-06
1.500789245e-05
1.386535845e-05
9.29669695e-06
1.02170867e-05
8.249050604e-06
1.447591049e-05
6.780646918e-06
1.065839985e-05
8.771014346e-06
1.378843847e-05
9.517317423e-06
1.013116125e-05
1.402790933e-05
1.154384907e-05
1.115853624e-05
1.21244517e-05
1.230047882e-05
9.806150361e-06
1.217251667e-05
1.078779697e-05
1.004643607e-05
1.113233219e-05
1.308357738e-05
4.936306679e-06
9.098485477e-06
9.348506065e-06
1.03010173e-05
1.012696065e-05
9.148790937e-06
1.04841433e-05
9.764249705e-06
8.483742676e-06
1.067721908e-05
9.474229343e-06
9.281311008e-06
6.05577446e-06
4.172705793e-06
5.404004432e-06
6.427538838e-06
1.089408442e-05
8.136636157e-06
1.167837272e-05
7.170237486e-06
9.188115953e-06
1.131820604e-05
1.10871001e-05
1.206009049e-05
1.774682132e-05
1.527621686e-05
1.745785673e-05
1.261960561e-05
1.657537155e-05
1.502244062e-05
9.276781512e-06
1.587906161e-05
1.263721615e-05
9.952970885e-06
1.523432355e-05
8.971726192e-06
1.326147664e-05
1.8442857e-05
1.021553915e-05
1.261039318e-05
7.89593696e-06
4.780802425e-06
1.504399546e-05
4.768550233e-06
4.803760369e-06
6.502899773e-06
6.627561542e-06
8.826976786e-06
7.657113286e-06
7.793491583e-06
8.875027175e-06
1.036781325e-05
1.220395235e-05
1.125492235e-05
1.69371862e-05
1.070110007e-05
9.552674174e-06
1.245411088e-05
7.282506772e-06
1.105652628e-05
1.344760433e-05
9.440654277e-06
1.151152747e-05
1.833342389e-05
7.836575345e-06
1.527892219e-05
8.423471509e-06
1.762971382e-05
7.388357375e-06
1.325478469e-05
1.402618903e-05
1.031131335e-05
9.176823152e-06
4.246962024e-06
8.407032698e-06
6.352177907e-06
3.42766942e-06
4.989080401e-06
1.051842982e-05
1.200092562e-05
1.413629044e-05
9.89261677e-06
1.092809888e-05
9.808718725e-06
1.037348065e-05
1.290724112e-05
1.556413404e-05
7.057529436e-06
1.356185094e-05
1.35883071e-05
8.596123713e-06
1.107215853e-05
1.376290462e-05
1.265874251e-05
1.312159017e-05
1.367891998e-05
1.137943058e-05
1.419474967e-05
1.131092455e-05
1.242691496e-05
1.272562912e-05
1.134357366e-05
9.650606991e-06
7.003415541e-06
6.380078966e-06
5.973551632e-06
7.466415019e-06
8.366133387e-06
9.435568157e-06
8.261401466e-06
6.754110633e-06
1.210892907e-05
8.694394343e-06
8.84329161e-06
1.223700773e-05
8.985431153e-06
1.194084272e-05
1.212112119e-05
8.28768571e-06
7.849739799e-06
1.404343629e-05
1.484842024e-05
1.194496589e-05
1.510347966e-05
1.488114086e-05
1.101439002e-05
1.478627123e-05
1.365192814e-05
1.322674993e-05
1.086069731e-05
9.196496872e-06
1.640466993e-05
1.097537887e-05
5.290138442e-06
7.055127576e-06
5.444203477e-06
7.236802633e-06
6.063765344e-06
7.346925751e-06
7.403253734e-06
7.382179964e-06
5.06558415e-06
7.498041454e-06
7.637476239e-06
1.264280145e-05
1.070109998e-05
5.188705885e-06
1.253685819e-05
1.155149293e-05
1.249269303e-05
1.046844512e-05
1.124324293e-05
1.185869514e-05
1.466631839e-05
8.2775235e-06
1.412372184e-05
1.084355338e-05
1.103010677e-05
9.304182971e-06
1.132161038e-05
1.123991413e-05
1.012445069e-05
4.068616629e-06
2.756453564e-06
4.427929899e-06
5.293481589e-06
6.475710058e-06
6.063765388e-06
8.429787545e-06
6.001401492e-06
6.204313447e-06
7.439659673e-06
5.264337004e-06
5.225845537e-06
8.671489973e-06
7.760234593e-06
8.481705434e-06
6.060560642e-06
1.322611914e-05
6.667971092e-06
1.344760444e-05
1.098661642e-05
1.384917538e-05
1.056415512e-05
8.981768e-06
1.465705583e-05
7.168774139e-06
1.464528578e-05
1.076323189e-05
1.196600189e-05
1.328333159e-05
1.190641961e-05
1.154346394e-05
5.960239096e-06
4.953369373e-06
7.032247942e-06
4.951689739e-06
5.526422872e-06
4.94995895e-06
6.702327691e-06
3.926852502e-06
6.252621959e-06
6.460689942e-06
6.351531398e-06
5.186740242e-06
8.90401375e-06
1.18587657e-05
5.97781318e-06
7.701667425e-06
1.114064806e-05
6.808628173e-06
6.695033937e-06
6.924587688e-06
1.003998257e-05
8.630706394e-06
1.403518946e-05
1.182815354e-05
1.419474943e-05
1.523349139e-05
1.481878485e-05
1.467646899e-05
8.811896446e-06
3.203785551e-06
4.427929867e-06
7.258330884e-06
5.409079341e-06
4.451737929e-06
3.790016058e-06
5.688835788e-06
4.47664962e-06
5.223347411e-06
8.135968293e-06
7.477217416e-06
5.673302245e-06
8.1692894e-06
3.623291326e-06
1.245411078e-05
8.371114559e-06
1.189977552e-05
1.09794511e-05
1.613568821e-05
7.097128921e-06
1.344394994e-05
1.479337521e-05
7.727993401e-06
8.961507405e-06
8.49839279e-06
4.172705811e-06
5.254395417e-06
7.032247891e-06
3.199892128e-06
7.138450286e-06
1.701373734e-06
4.519999859e-06
4.476649688e-06
7.914856078e-06
2.392705778e-06
5.145716027e-06
3.97131154e-06
5.800313542e-06
6.505905729e-06
7.638761332e-06
6.529630774e-06
7.9338614e-06
7.830639895e-06
1.124324293e-05
6.630339798e-06
4.278320845e-06
7.032247993e-06
5.560930854e-06
3.530051144e-06
5.79971428e-06
6.70232759e-06
3.533599693e-06
5.06558415e-06
5.18483634e-06
6.511790388e-06
7.13103585e-06
6.616455313e-06
5.929382849e-06
4.395474428e-06
3.827685787e-06
4.839494359e-06
4.036910535e-06
5.449923834e-06
5.49138982e-06
3.584180113e-06
2.827258131e-06
5.364394696e-06
)
;

boundaryField
{
    flow
    {
        type            zeroGradient;
    }
    obstacle
    {
        type            calculated;
        value           nonuniform List<scalar> 
30
(
1e-300
1e-300
6.501923577e-24
1e-300
5.801894806e-24
8.877998062e-24
1e-300
1e-300
4.493163009e-24
1e-300
1e-300
7.796300085e-24
1.508617586e-23
1e-300
1.172373789e-23
9.406093179e-24
1.200100327e-23
1e-300
1.218335515e-23
1e-300
1e-300
1.855914874e-23
2.148137361e-24
6.233576221e-24
5.65758684e-24
3.079939419e-24
6.333511688e-24
1e-300
5.689749527e-24
2.312445161e-24
)
;
    }
    frontAndBack
    {
        type            empty;
    }
    procBoundary1to0
    {
        type            processor;
        value           nonuniform List<scalar> 
21
(
1.375748042e-05
1.013292974e-05
1.390491222e-05
1.323968746e-05
1.220410156e-05
1.124223155e-05
8.579550872e-06
9.541420881e-06
6.434663154e-06
5.399077245e-06
4.216059536e-06
5.916870225e-06
4.289775436e-06
5.916870157e-06
3.106757727e-06
3.771982481e-06
7.543964963e-06
4.73385249e-06
2.662680691e-06
3.327905427e-06
6.952456108e-06
)
;
    }
    procBoundary1to3
    {
        type            processor;
        value           nonuniform List<scalar> 
36
(
1.684255149e-05
1.496074401e-05
9.296697115e-06
1.123991423e-05
1.684255149e-05
1.406211343e-05
7.444296594e-06
5.150508651e-06
9.422716225e-06
1.323625836e-05
1.272559944e-05
1.496074401e-05
1.030707099e-05
3.487391011e-06
7.86852506e-06
6.077086738e-06
6.893454126e-06
7.444296594e-06
1.107215853e-05
2.770390278e-06
3.988483451e-06
6.431660868e-06
8.994563115e-06
7.841651996e-06
3.487391011e-06
2.306091523e-06
3.227441785e-06
5.368842553e-06
7.921969558e-06
2.839710515e-06
5.568470946e-06
3.974417901e-06
2.770390278e-06
8.010249408e-06
3.227441785e-06
7.673516195e-06
)
;
    }
}


// ************************************************************************* //
