/*--------------------------------*- C++ -*----------------------------------*\
| =========                 |                                                 |
| \\      /  F ield         | OpenFOAM: The Open Source CFD Toolbox           |
|  \\    /   O peration     | Version:  2406                                  |
|   \\  /    A nd           | Website:  www.openfoam.com                      |
|    \\/     M anipulation  |                                                 |
\*---------------------------------------------------------------------------*/
FoamFile
{
    version     2.0;
    format      ascii;
    arch        "LSB;label=32;scalar=64";
    class       volScalarField;
    location    "0.012";
    object      rhoNMean;
}
// * * * * * * * * * * * * * * * * * * * * * * * * * * * * * * * * * * * * * //

dimensions      [0 -3 0 0 0 0 0];

internalField   nonuniform List<scalar> 
546
(
3.056245264e+20
3.058227627e+20
3.030129247e+20
3.046606988e+20
3.011274916e+20
2.992812486e+20
3.046811221e+20
3.025776284e+20
3.044132636e+20
3.008395593e+20
2.983329912e+20
3.010693373e+20
2.986370658e+20
3.024058816e+20
3.037988399e+20
2.967332276e+20
2.877543271e+20
2.944840166e+20
2.927882085e+20
2.883919954e+20
2.860101224e+20
2.899771497e+20
2.849329256e+20
2.808970608e+20
2.726901132e+20
2.652399881e+20
2.541696782e+20
2.456193626e+20
2.259733856e+20
1.887467554e+20
2.75860347e+20
2.748312463e+20
2.722120717e+20
2.740610134e+20
2.729179748e+20
2.755378558e+20
2.748051325e+20
2.743566769e+20
2.73438513e+20
2.709667643e+20
2.732612628e+20
2.758729618e+20
2.761960352e+20
2.756233973e+20
2.750643209e+20
2.714966309e+20
2.685791768e+20
2.715049818e+20
2.69003514e+20
2.65251828e+20
2.649713652e+20
2.637226562e+20
2.639766981e+20
2.578762871e+20
2.522912122e+20
2.47711443e+20
2.368912123e+20
2.237032969e+20
2.051395272e+20
1.738656261e+20
2.580141777e+20
2.594240029e+20
2.592060445e+20
2.602483368e+20
2.586755106e+20
2.581266809e+20
2.593196001e+20
2.578174376e+20
2.61596336e+20
2.589596023e+20
2.606184784e+20
2.621431638e+20
2.606586759e+20
2.598981675e+20
2.592127332e+20
2.549389869e+20
2.572528344e+20
2.580613923e+20
2.536976628e+20
2.520527667e+20
2.490060935e+20
2.487614392e+20
2.538752704e+20
2.435124756e+20
2.384575269e+20
2.324397721e+20
2.264077262e+20
2.160211363e+20
2.002656698e+20
1.752236362e+20
2.412448358e+20
2.450601053e+20
2.509205126e+20
2.515317849e+20
2.527936326e+20
2.526425101e+20
2.549588556e+20
2.533225008e+20
2.525285207e+20
2.524966706e+20
2.526378093e+20
2.516953404e+20
2.531646672e+20
2.523351794e+20
2.494234557e+20
2.49769843e+20
2.492091829e+20
2.483657773e+20
2.479948493e+20
2.457410221e+20
2.431746516e+20
2.430518272e+20
2.404728242e+20
2.377786433e+20
2.339567017e+20
2.29059038e+20
2.219316313e+20
2.09802689e+20
2.004115094e+20
1.837752992e+20
2.265861503e+20
2.309636359e+20
2.386942776e+20
2.45346091e+20
2.481905913e+20
2.471835676e+20
2.48773638e+20
2.489674765e+20
2.506339313e+20
2.492081611e+20
2.480039374e+20
2.507152219e+20
2.516006826e+20
2.502067974e+20
2.488401406e+20
2.475706989e+20
2.444461045e+20
2.445451929e+20
2.440666276e+20
2.4240922e+20
2.399369082e+20
2.376537685e+20
2.349272919e+20
2.329644731e+20
2.290520731e+20
2.260033301e+20
2.229963774e+20
2.097747203e+20
1.994188608e+20
1.833503285e+20
2.106580801e+20
2.193003851e+20
2.273958253e+20
2.326593027e+20
2.362092025e+20
2.387380223e+20
2.42455447e+20
2.453356621e+20
2.472280393e+20
2.476529744e+20
2.494745914e+20
2.485048705e+20
2.460170718e+20
2.475514856e+20
2.459985626e+20
2.458735561e+20
2.431097314e+20
2.453417705e+20
2.448634709e+20
2.42296278e+20
2.399631961e+20
2.355303416e+20
2.337013918e+20
2.325979576e+20
2.294377265e+20
2.249572943e+20
2.179821366e+20
2.11639322e+20
2.029166525e+20
1.879347973e+20
1.90669473e+20
2.019081476e+20
2.103466403e+20
2.177073571e+20
2.265562975e+20
2.312084461e+20
2.349444065e+20
2.391834513e+20
2.405691729e+20
2.438540758e+20
2.456880103e+20
2.476731932e+20
2.47581057e+20
2.461504734e+20
2.464027166e+20
2.454324668e+20
2.439293452e+20
2.449637697e+20
2.431211847e+20
2.419183568e+20
2.412359506e+20
2.386525104e+20
2.345015703e+20
2.320088361e+20
2.313251737e+20
2.243667551e+20
2.198760468e+20
2.132335567e+20
2.044032749e+20
1.940031107e+20
1.723353665e+20
1.831637042e+20
1.934150888e+20
2.036175097e+20
2.104610608e+20
2.186507429e+20
2.265651281e+20
2.322627069e+20
2.348317842e+20
2.38992366e+20
2.421515809e+20
2.451476583e+20
2.443936434e+20
2.457082659e+20
2.471985259e+20
2.479613784e+20
2.48321797e+20
2.455168884e+20
2.439417158e+20
2.441598269e+20
2.438033588e+20
2.402610967e+20
2.378070444e+20
2.342596442e+20
2.318832357e+20
2.280954009e+20
2.24613128e+20
2.165478848e+20
2.108884201e+20
2.015932428e+20
1.571868742e+20
1.664532202e+20
1.762615521e+20
1.863315928e+20
1.955772522e+20
2.038885043e+20
2.129686001e+20
2.191897516e+20
2.250073247e+20
2.297132853e+20
2.345864871e+20
2.408774312e+20
2.438996459e+20
2.449540338e+20
2.449360962e+20
2.474383705e+20
2.472776895e+20
2.473001147e+20
2.466746738e+20
2.460472688e+20
2.442568201e+20
2.427203881e+20
2.40265536e+20
2.373559135e+20
2.343695786e+20
2.328586443e+20
2.275925761e+20
2.211954073e+20
2.141180563e+20
2.067688767e+20
1.417523495e+20
1.49354777e+20
1.581726442e+20
1.679236111e+20
1.793163829e+20
1.875213789e+20
1.968768654e+20
2.060123549e+20
2.138939884e+20
2.20824502e+20
2.275902901e+20
2.340857357e+20
2.363892377e+20
2.401910039e+20
2.433215623e+20
2.450858974e+20
2.462568805e+20
2.483059814e+20
2.452941968e+20
2.456954117e+20
2.466818414e+20
2.460811911e+20
2.444893236e+20
2.405983394e+20
2.391222161e+20
2.359532635e+20
2.307198356e+20
2.258172896e+20
2.183097618e+20
2.099858388e+20
1.323095462e+20
1.392188785e+20
1.463714051e+20
1.548067292e+20
1.628224728e+20
1.721032136e+20
1.818704295e+20
1.911205372e+20
2.013388582e+20
2.103645207e+20
2.173441254e+20
2.236846817e+20
2.302849841e+20
2.362524641e+20
2.394029367e+20
2.413051339e+20
2.445350523e+20
2.467341792e+20
2.474844389e+20
2.470985023e+20
2.479085911e+20
2.470114357e+20
2.452939608e+20
2.451179482e+20
2.395691205e+20
2.373083038e+20
2.345792571e+20
2.310638135e+20
2.258040252e+20
2.175332438e+20
1.242464283e+20
1.303937551e+20
1.359570981e+20
1.427201599e+20
1.507139705e+20
1.590079599e+20
1.674623707e+20
1.767371307e+20
1.864164822e+20
1.949607682e+20
2.040295642e+20
2.119171565e+20
2.195400187e+20
2.272120067e+20
2.324031535e+20
2.367283095e+20
2.396872631e+20
2.430267831e+20
2.465906823e+20
2.468834772e+20
2.47494561e+20
2.477737443e+20
2.465287736e+20
2.456508573e+20
2.436638775e+20
2.411239347e+20
2.379236254e+20
2.33555388e+20
2.30691994e+20
2.2669031e+20
1.175349518e+20
1.214349154e+20
1.272788231e+20
1.3200033e+20
1.376598225e+20
1.449443428e+20
1.531188475e+20
1.602609532e+20
1.689838772e+20
1.777416275e+20
1.864442492e+20
1.980694157e+20
2.078931468e+20
2.15993574e+20
2.235159313e+20
2.28490444e+20
2.337064102e+20
2.392296898e+20
2.422252734e+20
2.451784829e+20
2.455668156e+20
2.488586632e+20
2.483832324e+20
2.486212071e+20
2.465925855e+20
2.452600079e+20
2.429216985e+20
2.398950349e+20
2.349683804e+20
2.295464042e+20
1.119189983e+20
1.15067493e+20
1.186119328e+20
1.244555416e+20
1.297691698e+20
1.353518945e+20
1.414758527e+20
1.48543769e+20
1.564347044e+20
1.657764974e+20
1.750421404e+20
1.821943383e+20
1.90674965e+20
2.009337202e+20
2.095392848e+20
2.174548171e+20
2.253959076e+20
2.317401457e+20
2.365763008e+20
2.411581645e+20
2.439873712e+20
2.448614906e+20
2.486573885e+20
2.493789724e+20
2.484097029e+20
2.478648004e+20
2.479775148e+20
2.440111417e+20
2.389648493e+20
2.331361108e+20
1.095036157e+20
1.121295523e+20
1.149653131e+20
1.172089528e+20
1.222097829e+20
1.269238157e+20
1.318372392e+20
1.37697592e+20
1.449817719e+20
1.521981363e+20
1.605151449e+20
1.685946819e+20
1.781733366e+20
1.871405669e+20
1.965396926e+20
2.059549946e+20
2.137307068e+20
2.202378167e+20
2.284097362e+20
2.349180969e+20
2.399829117e+20
2.452791075e+20
2.478928718e+20
2.495318746e+20
2.500816346e+20
2.485766565e+20
2.497236099e+20
2.484232584e+20
2.442174208e+20
2.388435509e+20
1.066900297e+20
1.078262197e+20
1.103320929e+20
1.123976454e+20
1.151819588e+20
1.188275806e+20
1.240309206e+20
1.292259859e+20
1.347323219e+20
1.401229232e+20
1.472167181e+20
1.556660573e+20
1.631996664e+20
1.728824742e+20
1.822693037e+20
1.91310837e+20
2.000090607e+20
2.079730772e+20
2.149495442e+20
2.230830327e+20
2.299608067e+20
2.358330579e+20
2.403948129e+20
2.446232646e+20
2.47593021e+20
2.485491851e+20
2.480260174e+20
2.476191488e+20
2.464097135e+20
1.056449837e+20
1.063421834e+20
1.074652655e+20
1.100866122e+20
1.117922715e+20
1.150589104e+20
1.181429357e+20
1.220904442e+20
1.261530468e+20
1.318626201e+20
1.374890187e+20
1.431461594e+20
1.499170702e+20
1.565269953e+20
1.658739827e+20
1.748792171e+20
1.857049984e+20
1.963233901e+20
2.066149945e+20
2.117149402e+20
2.203132927e+20
2.293677578e+20
2.349206037e+20
2.40400468e+20
2.423617234e+20
1.03689496e+20
1.049315948e+20
1.062832428e+20
1.075461953e+20
1.091344486e+20
1.106886521e+20
1.123977053e+20
1.15079054e+20
1.188944266e+20
1.232320334e+20
1.270814654e+20
1.32494991e+20
1.384136848e+20
1.460214673e+20
1.540076881e+20
1.621233437e+20
1.702128154e+20
1.792257909e+20
1.880011669e+20
1.029753501e+20
1.037413518e+20
1.045339289e+20
1.055620335e+20
1.066615176e+20
1.084006692e+20
1.107257589e+20
1.12257155e+20
1.148053703e+20
1.171073599e+20
1.222498933e+20
1.261099842e+20
1.306900993e+20
1.357329102e+20
1.018499153e+20
1.025755909e+20
1.03171663e+20
1.036696242e+20
1.051323072e+20
1.055751383e+20
1.070201045e+20
1.088204308e+20
1.013432837e+20
)
;

boundaryField
{
    flow
    {
        type            calculated;
        value           nonuniform List<scalar> 
15
(
1.887467554e+20
1.738656261e+20
1.752236362e+20
1.837752992e+20
1.833503285e+20
1.879347973e+20
1.940031107e+20
2.015932428e+20
2.067688767e+20
2.099858388e+20
2.175332438e+20
2.2669031e+20
2.295464042e+20
2.331361108e+20
2.388435509e+20
)
;
    }
    obstacle
    {
        type            calculated;
        value           nonuniform List<scalar> 
30
(
135.6659304
136.3479904
132.2812597
136.6882931
132.0548474
129.7067333
133.8381263
131.2311773
137.0846412
129.2718646
127.8637328
135.1848141
128.7758488
130.1416861
134.5633356
125.7118373
123.3408691
126.1548254
127.1455526
128.4077569
121.7384754
123.1669169
124.3019133
122.7547275
121.0773043
110.6222738
109.1255876
108.5633316
98.66262464
87.07412519
)
;
    }
    frontAndBack
    {
        type            empty;
    }
    procBoundary1to0
    {
        type            processor;
        value           nonuniform List<scalar> 
21
(
3.062439104e+20
2.721976317e+20
2.552997649e+20
2.380399997e+20
2.194941038e+20
1.98776818e+20
1.803144368e+20
1.627521618e+20
1.478530871e+20
1.341974579e+20
1.262134246e+20
1.197493646e+20
1.14547308e+20
1.103028897e+20
1.067785578e+20
1.053792177e+20
1.044976706e+20
1.027197292e+20
1.024580496e+20
1.013667863e+20
1.019439677e+20
)
;
    }
    procBoundary1to3
    {
        type            processor;
        value           nonuniform List<scalar> 
36
(
2.437793946e+20
2.446214036e+20
2.485156647e+20
2.484232584e+20
2.437793946e+20
2.474517592e+20
1.977839251e+20
2.064860728e+20
2.162471435e+20
2.238629748e+20
2.313904796e+20
2.446214036e+20
2.387660499e+20
1.419705631e+20
1.502580448e+20
1.570312233e+20
1.655302023e+20
1.977839251e+20
1.748101806e+20
1.108354705e+20
1.132544199e+20
1.147675107e+20
1.185089793e+20
1.221056068e+20
1.419705631e+20
1.266469922e+20
1.020708691e+20
1.024355093e+20
1.027062158e+20
1.038053209e+20
1.049230925e+20
1.055221993e+20
1.108354705e+20
1.068655964e+20
1.020708691e+20
1.014778864e+20
)
;
    }
}


// ************************************************************************* //
