/*--------------------------------*- C++ -*----------------------------------*\
| =========                 |                                                 |
| \\      /  F ield         | OpenFOAM: The Open Source CFD Toolbox           |
|  \\    /   O peration     | Version:  2406                                  |
|   \\  /    A nd           | Website:  www.openfoam.com                      |
|    \\/     M anipulation  |                                                 |
\*---------------------------------------------------------------------------*/
FoamFile
{
    version     2.0;
    format      ascii;
    arch        "LSB;label=32;scalar=64";
    class       volScalarField;
    location    "0.012";
    object      rhoN;
}
// * * * * * * * * * * * * * * * * * * * * * * * * * * * * * * * * * * * * * //

dimensions      [0 -3 0 0 0 0 0];

internalField   nonuniform List<scalar> 
546
(
2.355559722e+20
2.033959515e+20
2.732119516e+20
3.784818665e+20
2.195592896e+20
3.842412607e+20
3.050565763e+20
3.192370742e+20
2.62144456e+20
3.242474209e+20
2.541871405e+20
2.074110484e+20
4.05857144e+20
2.355684889e+20
2.374925786e+20
3.276661748e+20
3.558013319e+20
3.459668778e+20
2.842792147e+20
3.1276367e+20
3.023061779e+20
2.916674955e+20
3.343367531e+20
2.833187616e+20
2.313932277e+20
2.060027522e+20
2.910154703e+20
1.957832121e+20
1.975888119e+20
1.709383076e+20
2.467729234e+20
2.598948269e+20
2.16292795e+20
2.867286867e+20
3.235610583e+20
2.678045152e+20
2.229259596e+20
1.891775254e+20
3.217227415e+20
2.762107658e+20
2.904995891e+20
2.684142979e+20
3.320649358e+20
3.223568793e+20
2.874910159e+20
2.268458133e+20
3.685085223e+20
1.922038209e+20
2.71357432e+20
2.085091135e+20
3.417374188e+20
2.518946554e+20
2.674694027e+20
1.618964352e+20
3.130614258e+20
2.197362692e+20
1.52436675e+20
3.216438488e+20
1.552483522e+20
1.851831666e+20
3.365085317e+20
2.485950518e+20
2.50444289e+20
2.637903918e+20
2.311150418e+20
2.910918642e+20
3.285224665e+20
3.547078602e+20
3.098070846e+20
3.482657484e+20
3.026037384e+20
2.196116983e+20
2.090779225e+20
3.595519038e+20
1.749945316e+20
3.024610844e+20
3.430941414e+20
2.434581731e+20
3.359663447e+20
1.954772939e+20
3.285936714e+20
3.049251089e+20
2.139755222e+20
2.428446528e+20
2.313932277e+20
2.609368195e+20
1.108630363e+20
3.216438485e+20
2.25815785e+20
1.709383077e+20
3.140746296e+20
2.259955015e+20
2.276766263e+20
2.064446546e+20
2.657822979e+20
2.794481896e+20
2.346589049e+20
1.773539301e+20
3.813010269e+20
2.642016022e+20
1.936663927e+20
1.830097484e+20
2.459740265e+20
2.727635134e+20
3.12490235e+20
2.898585392e+20
2.668509989e+20
2.434581731e+20
1.938267371e+20
2.476045723e+20
2.891624313e+20
2.253794285e+20
3.075898129e+20
2.563360222e+20
3.130614258e+20
2.884038531e+20
2.77157591e+20
1.53829667e+20
1.129078926e+20
2.136728839e+20
2.692068253e+20
2.259955015e+20
1.707574696e+20
1.949755068e+20
2.542265458e+20
2.561608407e+20
1.994600691e+20
1.300595487e+20
2.62144456e+20
2.521924383e+20
2.541871405e+20
2.928155979e+20
3.074675334e+20
1.859751228e+20
2.624917974e+20
1.890381778e+20
1.779006661e+20
2.306445854e+20
2.067485198e+20
2.476045721e+20
2.628749371e+20
2.651522684e+20
3.878306336e+20
2.158619136e+20
2.313932282e+20
1.922692351e+20
2.355839513e+20
1.817986976e+20
1.834753255e+20
1.994280261e+20
2.019051193e+20
3.163937025e+20
2.276766265e+20
2.523212445e+20
3.004495544e+20
2.561608407e+20
2.698577406e+20
2.837662882e+20
3.813010269e+20
3.242474207e+20
3.631244861e+20
1.464077987e+20
2.459740263e+20
2.4796683e+20
2.374925784e+20
2.77255994e+20
2.033150468e+20
3.331532895e+20
1.809049548e+20
1.954772941e+20
2.760186844e+20
1.72348975e+20
2.808428743e+20
2.428446528e+20
2.450045924e+20
1.922692354e+20
3.048733514e+20
1.817986973e+20
2.399292709e+20
2.27917742e+20
1.458203637e+20
1.807964012e+20
2.504442888e+20
2.867286865e+20
1.964477854e+20
2.095861424e+20
2.463918501e+20
2.246483115e+20
2.025661706e+20
2.642016022e+20
3.026037389e+20
2.562136482e+20
2.705714294e+20
3.09958538e+20
3.374894535e+20
2.016407228e+20
2.668509989e+20
2.30644585e+20
2.455138681e+20
1.824454757e+20
3.023061802e+20
3.712131782e+20
2.674694032e+20
2.833187636e+20
2.177818641e+20
2.884038556e+20
2.49441833e+20
2.796903036e+20
1.975888131e+20
2.421626053e+20
1.570373148e+20
1.468970761e+20
1.707574699e+20
2.293829496e+20
2.195592896e+20
2.095861422e+20
2.346589049e+20
2.719426928e+20
3.57469713e+20
1.801374561e+20
3.38916187e+20
2.562136478e+20
2.459740265e+20
1.487800982e+20
2.124933603e+20
2.142432686e+20
2.033150464e+20
1.537630559e+20
2.584356485e+20
1.954772931e+20
2.628749353e+20
1.85606586e+20
2.006020507e+20
1.753878045e+20
3.130614241e+20
2.884038506e+20
1.940103111e+20
2.097677258e+20
1.693618383e+20
2.991420364e+20
1.458203638e+20
2.259955017e+20
1.821413009e+20
2.867286867e+20
1.964477856e+20
2.095861424e+20
2.933236311e+20
2.364719068e+20
2.263974847e+20
2.521924383e+20
2.541871399e+20
2.074110485e+20
2.582727282e+20
2.231701477e+20
2.124933599e+20
2.268458118e+20
2.795581889e+20
1.025087048e+20
1.938267371e+20
1.954772931e+20
2.1029995e+20
2.121218161e+20
1.872285822e+20
2.158619132e+20
2.04170494e+20
1.785357186e+20
2.217260738e+20
1.957832125e+20
1.975888113e+20
1.28203731e+20
8.973560845e+19
1.129977507e+20
1.366059758e+20
2.293829494e+20
1.733362812e+20
2.445171659e+20
1.525282879e+20
1.891775257e+20
2.383131416e+20
2.281741101e+20
2.541871414e+20
3.660194968e+20
3.197662332e+20
3.595519041e+20
2.624917965e+20
3.528712657e+20
3.049725721e+20
1.922038215e+20
3.359663444e+20
2.60636393e+20
2.1029995e+20
3.181827215e+20
1.872285822e+20
2.698273915e+20
3.811182588e+20
2.060027522e+20
2.632997103e+20
1.678141821e+20
9.879440567e+19
3.133868952e+20
1.009525595e+20
1.016979755e+20
1.366059752e+20
1.376297693e+20
1.848920333e+20
1.630114443e+20
1.642612341e+20
1.891775263e+20
2.14481828e+20
2.521924379e+20
2.299788401e+20
3.538188469e+20
2.213766247e+20
1.983734643e+20
2.624917986e+20
1.512305424e+20
2.287294254e+20
2.818989359e+20
1.938267371e+20
2.345727517e+20
3.811686594e+20
1.590913621e+20
3.209632838e+20
1.753878045e+20
3.675068892e+20
1.510686849e+20
2.771575922e+20
2.936748187e+20
2.117022998e+20
1.851831687e+20
8.973560877e+19
1.807964021e+20
1.366059765e+20
6.881488497e+19
1.040017687e+20
2.21229816e+20
2.463918482e+20
2.955898804e+20
2.025661693e+20
2.281741122e+20
2.057705444e+20
2.196116998e+20
2.705714302e+20
3.223568795e+20
1.499953123e+20
2.898585397e+20
2.795581911e+20
1.793902334e+20
2.325920846e+20
2.867000299e+20
2.628749353e+20
2.78409879e+20
2.808428686e+20
2.293532828e+20
2.994500631e+20
2.334697879e+20
2.632997126e+20
2.657057884e+20
2.399292709e+20
1.994280242e+20
1.458203633e+20
1.355973001e+20
1.252221442e+20
1.605680649e+20
1.733362811e+20
1.979424684e+20
1.7599418e+20
1.418831447e+20
2.502287993e+20
1.801374556e+20
1.815622422e+20
2.562136458e+20
1.844805192e+20
2.479668304e+20
2.499921872e+20
1.764356314e+20
1.651934752e+20
2.947125263e+20
3.101227794e+20
2.476045733e+20
3.154499277e+20
3.049251107e+20
2.273489927e+20
3.103015003e+20
2.858386916e+20
2.746703339e+20
2.217260718e+20
1.957832125e+20
3.387236766e+20
2.27917742e+20
1.121695102e+20
1.468970762e+20
1.138383129e+20
1.490989163e+20
1.271132728e+20
1.513677688e+20
1.52528287e+20
1.53706739e+20
1.07240914e+20
1.561191282e+20
1.573539432e+20
2.684142977e+20
2.21376623e+20
1.115850728e+20
2.624917965e+20
2.394483589e+20
2.668509985e+20
2.178309959e+20
2.325920846e+20
2.476045712e+20
3.023061756e+20
1.723489741e+20
2.942163435e+20
2.293532828e+20
2.313932265e+20
1.922692354e+20
2.355839513e+20
2.377367559e+20
2.117022979e+20
8.546915403e+19
5.608475552e+19
9.039820138e+19
1.138383137e+20
1.376297699e+20
1.271132738e+20
1.746551192e+20
1.290623977e+20
1.300595493e+20
1.549035424e+20
1.080824734e+20
1.089373462e+20
1.830097498e+20
1.598831179e+20
1.735767813e+20
1.249960946e+20
2.772559945e+20
1.397790944e+20
2.818989382e+20
2.325920865e+20
2.867000323e+20
2.234436969e+20
1.856065891e+20
3.075898137e+20
1.484050653e+20
2.994500605e+20
2.197362709e+20
2.49441833e+20
2.796903036e+20
2.540427597e+20
2.421626031e+20
1.233864613e+20
1.016979751e+20
1.479898068e+20
1.032223275e+20
1.155575207e+20
1.047930715e+20
1.40795344e+20
8.276516776e+19
1.310722292e+20
1.321008018e+20
1.331456443e+20
1.098058482e+20
1.844805192e+20
2.479668304e+20
1.249960936e+20
1.638330877e+20
2.287294291e+20
1.409494691e+20
1.421396072e+20
1.433500161e+20
2.102999518e+20
1.856065891e+20
2.942163435e+20
2.428446524e+20
2.994500579e+20
3.158708839e+20
3.048733487e+20
3.076593339e+20
1.834753248e+20
6.730170614e+19
9.039820073e+19
1.479898079e+20
1.146914749e+20
9.24460166e+19
8.150572167e+19
1.173294515e+20
9.458876172e+19
1.072409132e+20
1.681282932e+20
1.573539457e+20
1.220064999e+20
1.721818192e+20
7.439004912e+19
2.624917965e+20
1.764356314e+20
2.414366177e+20
2.306445858e+20
3.359663444e+20
1.433500149e+20
2.760186821e+20
3.049251055e+20
1.604816405e+20
1.888791757e+20
1.769477646e+20
8.973560883e+19
1.129977509e+20
1.479898057e+20
6.881488446e+19
1.50224777e+20
3.493102383e+19
9.386356265e+19
9.458876315e+19
1.668191995e+20
4.803665484e+19
1.089373453e+20
8.540454926e+19
1.229870137e+20
1.363817567e+20
1.62494923e+20
1.386279984e+20
1.651934752e+20
1.665766439e+20
2.325920846e+20
1.346034132e+20
9.039820073e+19
1.479898079e+20
1.146914749e+20
6.933451245e+19
1.164367452e+20
1.407953419e+20
7.094157183e+19
1.07240914e+20
1.080824734e+20
1.331456453e+20
1.464077987e+20
1.35285714e+20
1.239834152e+20
8.973560819e+19
7.909842506e+19
1.024544816e+20
8.028403246e+19
1.155575216e+20
1.164367461e+20
7.039767146e+19
5.911797697e+19
1.12169511e+20
)
;

boundaryField
{
    flow
    {
        type            zeroGradient;
    }
    obstacle
    {
        type            calculated;
        value           nonuniform List<scalar> 
30
(
1e-300
1e-300
139.8263135
1e-300
124.7719313
179.9049459
1e-300
1e-300
84.58514701
1e-300
1e-300
146.7676974
324.4338895
1e-300
252.1233954
202.2815737
241.0992385
1e-300
255.0411932
1e-300
1e-300
369.0057685
46.19650238
134.0554026
121.6685342
57.98078725
136.2045524
1e-300
122.3602049
49.73000346
)
;
    }
    frontAndBack
    {
        type            empty;
    }
    procBoundary1to0
    {
        type            processor;
        value           nonuniform List<scalar> 
21
(
2.895186412e+20
2.115713147e+20
2.895186412e+20
2.783833088e+20
2.561126443e+20
2.338419796e+20
1.781653177e+20
2.004359824e+20
1.336239882e+20
1.113533235e+20
8.908265883e+19
1.224886564e+20
8.908265883e+19
1.22488655e+20
6.681199412e+19
7.794732648e+19
1.55894653e+20
1.002179912e+20
5.567666217e+19
6.681199412e+19
1.447593206e+20
)
;
    }
    procBoundary1to3
    {
        type            processor;
        value           nonuniform List<scalar> 
36
(
3.561214751e+20
3.158708895e+20
1.940103145e+20
2.37736758e+20
3.561214751e+20
2.96383217e+20
1.563818345e+20
1.05149975e+20
1.988642026e+20
2.808428734e+20
2.698273915e+20
3.158708895e+20
2.177818603e+20
7.499765615e+19
1.638330863e+20
1.27071904e+20
1.409494691e+20
1.563818345e+20
2.325920846e+20
5.957828555e+19
8.406414597e+19
1.331456443e+20
1.830097484e+20
1.598831179e+20
7.499765615e+19
4.959336608e+19
6.779865104e+19
1.138383137e+20
1.605680649e+20
5.777876037e+19
1.164367461e+20
8.213061732e+19
5.957828555e+19
1.655303355e+20
6.779865104e+19
1.570373143e+20
)
;
    }
}


// ************************************************************************* //
