/*--------------------------------*- C++ -*----------------------------------*\
| =========                 |                                                 |
| \\      /  F ield         | OpenFOAM: The Open Source CFD Toolbox           |
|  \\    /   O peration     | Version:  2406                                  |
|   \\  /    A nd           | Website:  www.openfoam.com                      |
|    \\/     M anipulation  |                                                 |
\*---------------------------------------------------------------------------*/
FoamFile
{
    version     2.0;
    format      ascii;
    arch        "LSB;label=32;scalar=64";
    class       volScalarField;
    location    "0.012";
    object      translationalT;
}
// * * * * * * * * * * * * * * * * * * * * * * * * * * * * * * * * * * * * * //

dimensions      [1 2 -2 0 0 0 0];

internalField   nonuniform List<scalar> 
546
(
931.1730267
914.5095819
901.2573499
880.6996968
869.6833919
862.6884672
850.9381123
840.2622055
827.433777
825.9089397
814.6235651
807.7193373
803.1784771
804.1808787
790.4409624
782.2978419
783.9836225
773.2069568
771.6025099
769.7526286
771.6463192
754.7158176
756.1309093
765.5757232
758.033859
756.679708
757.1825446
747.5303975
741.6872517
727.2515244
1023.506232
1009.463326
997.4541543
987.473617
975.9711172
957.0686288
944.8550403
936.5340692
928.6790392
920.4690124
902.0185504
899.0994875
894.8433058
894.7977403
889.1543866
870.2793432
868.9604506
861.1742772
854.023959
850.6941469
841.3209097
840.5298828
834.2395557
831.0707368
827.0510843
819.2795793
810.7519996
802.6393427
776.5791131
720.2292292
1035.729622
1028.004019
1017.761382
1016.937637
1007.947783
986.4889751
984.3917272
978.9555961
960.9976526
961.6296255
951.3255471
950.095263
941.8555585
934.4540777
928.3338262
921.8191126
911.33652
908.4362484
896.3656728
897.2199471
891.056188
887.6166584
874.1058164
871.4955425
863.5574225
853.3072543
837.7338632
812.5643533
788.8548631
735.0316643
1027.710556
1015.24747
1009.622273
1000.855323
998.468259
990.6377834
979.070063
974.0987964
971.6494556
972.7768375
968.0896786
967.0472201
957.2061216
950.235266
947.3334566
937.0003614
932.7334205
928.0216929
920.167644
919.598143
912.9924463
905.2539324
903.2751975
894.718217
881.8493533
869.7151506
849.6614914
829.0997924
791.100715
745.3822517
1003.963396
994.7375071
993.7055715
985.7011893
977.3723358
968.0977563
963.7170432
958.767649
962.0937805
956.7217363
957.6191112
957.8646788
955.0310206
951.0125149
937.4274814
941.8434083
939.7923169
937.4954992
933.2880276
924.5570191
914.4604738
918.5591638
914.2672068
903.2679306
898.9554648
882.6522925
865.2091616
832.0413006
804.323241
754.3690824
979.2886877
971.7668886
971.2056619
968.7396057
958.2646374
943.506592
948.3016019
945.1812444
941.1909492
932.2570181
936.0482213
943.1406701
940.6423298
942.015224
931.8297335
931.6853156
920.987573
928.0593071
925.3494418
923.2171367
917.2235533
916.3447096
909.1699942
897.1985176
894.1833124
880.6796255
860.910226
836.1846629
809.9900944
769.4351713
954.7582076
956.9972724
950.2221186
941.2831198
938.7115387
930.2840205
928.1327871
927.8498822
923.6507557
925.4517569
921.0967516
922.1993023
919.9617463
914.2233384
916.4604448
916.2913307
920.2390863
918.3622735
917.6892642
914.3563497
912.146786
901.8560383
899.4543842
890.9319266
882.3049249
862.373406
856.2793034
846.9407417
818.1437179
775.6588646
906.0906445
922.9380352
915.5089229
919.8641893
913.3062485
913.1943579
911.8192062
905.5459249
899.6488653
903.1375114
900.191696
899.6506513
896.3371386
897.1490035
897.4281852
900.3517058
904.6332868
898.8621306
901.0566428
900.6853164
900.1686276
895.938955
889.7105602
878.6390362
874.6445392
865.9272974
856.1150078
830.5460784
811.1681741
782.1423353
858.0824312
875.7652528
881.0596605
891.5556893
894.896463
894.8790357
891.3868266
889.6398652
886.764969
883.853865
881.6234433
891.5357345
884.1450132
877.8600257
875.7662481
888.369463
884.9252236
883.8014564
874.2481396
882.9521535
874.2507084
876.6924537
873.7370272
868.0859711
865.75162
860.1861476
846.673389
834.4075874
813.1991305
782.250354
795.9784537
818.0876912
845.081922
859.052249
869.759063
865.4521574
861.4387226
870.5887963
870.1579792
870.7442767
869.3833004
873.270547
864.180279
868.6344918
867.6134436
865.7946915
865.8978926
862.6792054
856.2080299
856.3703098
859.8458787
860.4346628
856.6494643
857.0465921
855.3991159
847.7327499
834.4134836
823.5255079
804.5173663
789.6286209
717.7883281
754.7778623
785.3138017
810.7181166
825.8635087
842.9397751
839.9871812
843.4673678
849.7015208
849.2244293
853.1598925
853.3063819
851.1270931
855.0052247
851.0641205
845.8536946
845.4915805
850.9765232
848.0403268
840.5480633
850.2494161
847.2483532
852.8938377
845.525264
838.2585515
838.4056399
830.0777589
811.9584377
796.7286632
778.9918427
657.3946482
700.0716034
722.4580786
750.6647957
771.2327903
794.8013005
814.5259837
819.5405025
831.8103246
831.1477414
830.6265711
835.2869864
835.7905719
840.9750769
841.4486047
833.5900033
831.4767373
835.1529712
838.2324143
830.2122283
834.0774771
836.477751
836.0415845
834.6336132
826.9589017
824.5051874
820.679523
809.2646942
794.3164307
775.96785
589.2066366
626.7816852
666.7782774
696.7274778
721.0198177
754.4600983
773.3372278
782.3997861
800.4328436
813.2234981
816.369363
820.8537228
819.3012063
823.1543494
824.0815374
820.0969543
821.0072476
824.6882508
822.6536278
821.8343294
821.2981664
826.3764236
824.6946189
826.8341269
816.2157026
809.9620775
806.3150157
805.1432587
793.2579089
774.6345556
529.6005226
563.4283247
592.6208923
627.3198004
668.9116554
695.8187207
715.157222
736.614767
755.8984981
775.8404474
789.8419769
800.3371057
804.8942248
810.9037924
813.7445432
808.1657786
814.5261353
807.7495508
807.0994382
806.6725621
805.5430966
809.7728999
807.186946
806.0187222
802.6720559
796.7929007
802.0170716
798.6163029
782.3227313
768.2572557
475.0444847
498.5586921
532.4866971
557.5942259
598.5780381
627.4732944
654.3980655
688.8748779
711.8293687
730.5203766
750.2527649
767.9178764
777.1416525
781.3132868
788.7764415
790.7753758
792.202126
790.4645303
792.4876622
793.1153091
790.784209
791.7158366
794.718756
797.3515126
795.3102071
784.7384585
782.3313364
784.3120167
776.2996895
758.7153345
435.422357
458.6066599
488.5829426
511.4654932
537.6015704
571.3799906
603.4294367
633.1619368
662.7760552
681.4278689
704.0187254
728.7785988
735.3138474
750.5686537
767.4081505
772.6342321
780.5469272
779.9599556
786.2081816
781.0338502
778.4917414
782.5043705
783.5443012
781.3783005
783.927294
779.2296895
775.5057711
772.3141796
763.6700928
406.8733689
419.6399073
437.6068648
467.8356595
491.2632625
520.9740385
547.9191706
578.4820563
608.9677534
639.6127645
663.0627843
690.2705544
701.2386302
717.6236183
742.5255356
753.7588983
759.8638721
764.8045522
771.066882
767.0534803
767.5974531
773.0839543
769.2738645
773.2397435
768.6164704
380.2057748
392.8867477
414.0101609
433.7701421
451.547664
473.2544258
497.8440257
532.4128882
552.3991283
590.658294
614.7187906
636.4683363
659.5271325
682.536797
707.5405726
725.1154007
738.0651981
749.7037746
757.3836129
361.3184263
374.2439008
383.8168184
402.7663937
423.1173115
442.5532083
459.2113853
482.6923656
509.8723275
530.9301562
568.6234954
588.7180733
612.1385557
633.1721863
346.8406599
352.6332924
363.5559155
377.2376846
395.5051791
414.0542903
423.0675812
442.3430845
333.544273
)
;

boundaryField
{
    flow
    {
        type            calculated;
        value           nonuniform List<scalar> 
15
(
727.2515244
720.2292292
735.0316643
745.3822517
754.3690824
769.4351713
775.6588646
782.1423353
782.250354
789.6286209
778.9918427
775.96785
774.6345556
768.2572557
758.7153345
)
;
    }
    obstacle
    {
        type            calculated;
        value           nonuniform List<scalar> 
30
(
793.2384745
804.9932986
783.5562784
777.3259996
761.431312
768.8967974
751.9546394
752.7151255
714.3979274
728.7582858
732.1000434
713.3291465
720.4657754
716.8659303
708.4741434
716.3406272
713.5190562
693.9365905
694.2860901
696.8046586
704.2428634
693.6480396
672.0522046
707.3588186
681.9774531
714.2300834
713.2648907
698.6587233
703.8724814
722.6809845
)
;
    }
    frontAndBack
    {
        type            empty;
    }
    procBoundary1to0
    {
        type            processor;
        value           nonuniform List<scalar> 
21
(
945.81118
1043.394422
1048.009055
1045.793479
1014.641867
987.2918284
949.7426003
901.0636439
835.7830741
766.2549846
684.971864
611.4484456
557.9766671
499.6393632
452.6112696
414.8849866
386.2440206
365.458144
351.710574
333.6941729
330.4777258
)
;
    }
    procBoundary1to3
    {
        type            processor;
        value           nonuniform List<scalar> 
36
(
753.6787051
769.2186584
767.1778759
762.9882042
753.6787051
752.7702605
757.1518144
762.5708334
767.7076951
763.8154458
765.485104
769.2186584
764.9102204
658.1840238
690.1166224
706.2318394
726.464327
757.1518144
736.427915
467.7541951
490.4125026
515.463994
549.1544762
569.9740673
658.1840238
593.7278131
337.7248462
348.0871296
358.8276588
373.5132855
390.3353449
399.8368459
467.7541951
414.6016113
337.7248462
326.5411261
)
;
    }
}


// ************************************************************************* //
