/*--------------------------------*- C++ -*----------------------------------*\
| =========                 |                                                 |
| \\      /  F ield         | OpenFOAM: The Open Source CFD Toolbox           |
|  \\    /   O peration     | Version:  2406                                  |
|   \\  /    A nd           | Website:  www.openfoam.com                      |
|    \\/     M anipulation  |                                                 |
\*---------------------------------------------------------------------------*/
FoamFile
{
    version     2.0;
    format      ascii;
    arch        "LSB;label=32;scalar=64";
    class       volVectorField;
    location    "0.012";
    object      UMean;
}
// * * * * * * * * * * * * * * * * * * * * * * * * * * * * * * * * * * * * * //

dimensions      [0 1 -1 0 0 0 0];

internalField   nonuniform List<vector> 
546
(
(371.8506609 104.7371097 -2.131412302)
(353.5320722 101.8269321 -1.196626755)
(344.8849122 95.50279883 0.9639784893)
(330.3227073 91.68384461 -0.8241342843)
(321.7006412 91.25272124 -6.093136559)
(312.7980379 87.20858908 -4.786834694)
(301.5882504 82.2962033 -1.203201385)
(296.2465815 82.28171144 -4.544447117)
(284.1858874 81.89133203 2.981054421)
(276.8759059 75.78363561 -0.4782216436)
(271.4554191 75.27444249 3.106443588)
(266.2145389 72.2311745 -3.453626263)
(258.4042957 72.90463197 -2.349444161)
(252.1364576 67.39604855 -0.9969369129)
(242.6610759 68.59581408 -2.242378326)
(240.9252154 67.97518382 -5.40095669)
(241.4192216 65.53003527 -6.809444417)
(234.9512434 63.51273825 2.083720851)
(229.0854162 63.86714662 1.529316782)
(227.6876985 60.86392571 4.416409543)
(230.0144936 59.94302513 -1.085258242)
(227.7260932 62.62660087 4.255563752)
(225.0233755 62.52510288 5.366486398)
(232.2074374 59.01206035 6.01684355)
(239.8861864 62.51132147 2.174571861)
(244.6033071 67.31519187 2.345834625)
(253.2177704 66.885032 2.348481537)
(267.9297869 67.7676473 6.896428587)
(300.0296105 74.96671369 4.671992429)
(394.7587964 74.93850807 0.9369299057)
(636.4608313 197.3713318 -4.525210873)
(617.5511847 187.5487666 -3.68098264)
(599.6729522 180.0630068 1.147634737)
(572.2489706 175.7529309 0.8955141912)
(559.2520639 164.199322 2.341563501)
(543.422868 155.0356755 0.04499382425)
(523.3000647 151.571578 0.991242342)
(508.7701519 148.0605846 -5.448317162)
(494.0579153 147.5226606 -6.223431212)
(491.3657352 139.7597972 -2.998786167)
(477.7129353 137.3735265 -3.409254476)
(457.5297507 132.9222289 -2.524185781)
(445.6459169 129.429351 -2.946582316)
(434.8433783 123.0093023 3.944454206)
(422.9001534 121.5400822 4.067794797)
(420.7176783 122.4802584 2.265172981)
(413.3766409 117.6723414 -1.199295656)
(396.7709622 111.1170382 0.2044856476)
(396.0151424 112.3206554 2.128255209)
(394.3998974 108.3323098 4.734490854)
(388.5535519 104.5121887 5.963074039)
(379.9848955 105.0759481 9.287070917)
(379.3781774 103.4638445 2.652692257)
(382.5953438 98.43918075 4.541593381)
(385.9035225 104.6144383 -1.076457316)
(388.4422432 105.4480338 0.8334733846)
(407.4937384 108.4169201 7.577816597)
(430.9364662 103.6703524 7.558869974)
(481.0308041 112.6532137 2.259835826)
(597.9898987 88.85783512 3.211283997)
(831.8680078 267.4365426 -5.210386091)
(810.8774181 258.6070531 -5.354074074)
(790.2880465 254.2130559 -5.932927007)
(767.6699217 239.8256733 -5.243292998)
(749.24625 228.372767 -0.1287504905)
(724.4482946 223.8677074 -2.230906338)
(702.9871289 218.2893653 -5.91566358)
(688.3636641 208.0458829 -6.689191852)
(668.5576405 200.4830585 -2.590826889)
(656.6472211 194.6778324 -2.154128758)
(635.6749674 190.6200306 -3.245492896)
(616.6392038 186.3669428 0.3560648453)
(602.5786403 179.6170905 6.330796891)
(586.0234736 176.0737986 6.219493868)
(576.429529 174.1610312 3.652484029)
(573.9776719 168.4610592 5.632805344)
(559.8731125 163.2593506 -1.314525891)
(547.8381521 157.9077309 -3.154101873)
(540.1980853 159.858278 2.017516687)
(533.5664877 148.6429695 4.089188872)
(525.7475281 149.5879702 -0.9862633673)
(521.7089205 141.148242 -0.1363527147)
(505.4532897 142.404088 1.856672334)
(510.3038949 139.9407268 2.759241843)
(512.0117839 140.9934201 -1.604914362)
(516.9516198 141.2106532 4.451330052)
(530.8553799 138.9318827 2.068911584)
(564.7865171 134.4094213 1.544312555)
(613.8014425 134.5058716 -0.9816148355)
(710.0559263 104.2775476 -0.06247009105)
(987.6360752 317.7316903 0.1049468564)
(970.5897744 313.4903554 0.2323659253)
(939.962048 309.3669175 -0.1698553988)
(918.5813087 300.5599707 -2.13654904)
(897.1383891 287.4404653 -3.87828439)
(885.9453036 277.4697291 -1.291036719)
(858.0690833 271.1908809 -0.2486090671)
(841.5877879 264.208397 -0.003712537865)
(816.6601246 257.033288 -1.378662291)
(798.933489 247.9497628 -0.319675032)
(779.9789426 240.7986637 -1.624045376)
(757.6247371 238.6629186 0.3711239496)
(739.8176508 229.7692077 -2.808506916)
(727.9769103 225.3750281 -2.633049134)
(717.872141 217.3276495 2.009199629)
(705.1916079 209.6640727 2.686785132)
(694.1807649 208.1192968 5.072134947)
(677.1633545 205.2056828 -0.05581303098)
(664.1177065 199.3725186 -2.242420814)
(653.5510376 192.1445798 -1.353022315)
(650.8158477 185.1096106 5.943628028)
(632.3023429 178.9137854 4.012921328)
(625.6479475 180.864096 0.4529216831)
(625.3767268 178.5566611 5.265299449)
(627.0823507 175.3394889 -0.1567803779)
(634.1898336 173.9517572 -0.1191104901)
(644.7131262 166.4943808 0.8634632534)
(679.3976573 159.0869201 0.744288074)
(716.3007729 154.7984257 -0.5570094938)
(781.8158992 131.2248363 0.4682985358)
(1096.73255 346.6247676 2.323233781)
(1078.75442 344.2357356 3.336205454)
(1056.02853 343.0822344 2.929811168)
(1034.51546 336.7457061 0.7976609869)
(1015.759283 325.9422129 2.741751018)
(1002.671022 323.3782894 -0.6286369424)
(979.9232665 322.7305809 5.077337619)
(963.6405293 313.8458788 -0.1533278603)
(938.434981 303.3462618 -4.780191739)
(920.5614772 293.3778768 -1.42580781)
(900.2812458 291.6261512 -3.704477664)
(881.06429 279.9331248 2.771512664)
(864.8420177 272.7368831 2.376365596)
(846.375551 266.0830581 1.206275317)
(835.3857094 261.392682 0.02177485197)
(815.4501351 253.560344 -0.9827795305)
(800.2978452 247.5327306 2.798275971)
(782.1562492 245.2661722 6.418339818)
(768.4519491 234.6748397 1.94967099)
(759.9804729 230.6586276 3.741228432)
(755.8168831 221.2996227 2.982369658)
(740.4901366 221.591338 -0.4771038506)
(738.1410179 214.4907417 1.620144132)
(734.8777992 213.0787165 3.1325377)
(733.6680402 207.3104546 9.40241632)
(735.8368512 203.0505309 0.7177229624)
(743.4456196 195.0254304 0.7030329354)
(772.2566249 188.3704665 -0.3846445367)
(798.7171405 173.3925166 0.87746459)
(856.2927838 161.6839749 -2.801113956)
(1186.278006 351.9097336 -0.6367262783)
(1166.390956 357.9416328 -0.2004626235)
(1147.097355 355.8885557 2.918731583)
(1126.866622 362.3497107 3.251823583)
(1107.929682 361.2098709 0.7150150601)
(1094.559332 360.3930552 2.042541826)
(1075.066164 352.0963487 1.438032074)
(1055.340706 344.9913798 1.35939724)
(1036.244629 338.7950772 -0.08783985275)
(1023.17564 336.8949338 2.683634091)
(1004.433187 328.1147065 -1.631202707)
(982.9858267 321.4035293 -0.5851853218)
(967.7235994 313.407803 2.582382082)
(947.6896796 307.8747157 2.045969207)
(933.4896191 300.3972913 -1.616171464)
(913.3032234 293.7304578 -0.04842738357)
(905.7395745 289.4777408 1.872148209)
(886.6965671 280.4632904 2.556059163)
(874.8895316 274.1766731 2.010087108)
(859.2102728 265.2216389 0.06014511004)
(843.5614711 261.2279637 -5.007156217)
(843.2196903 254.6511977 -3.806183783)
(832.9211233 246.0563941 -4.267244249)
(821.5614001 241.3419951 1.598079798)
(821.1157994 237.5196239 2.34316459)
(826.8297809 230.4897184 2.617672639)
(834.6009307 227.3457241 -6.517114608)
(851.8147199 214.5219998 -4.585385489)
(875.1341502 201.7178897 4.809192199)
(921.1759989 191.7108415 -3.057337309)
(1266.873152 336.5129253 -2.455353405)
(1241.737163 353.019253 -2.185892902)
(1217.497294 364.0344799 -3.955787783)
(1197.279652 372.2622639 -2.64062236)
(1176.818703 375.1915006 0.3256273863)
(1166.96481 375.9735455 -2.171301573)
(1151.191341 376.5564162 0.6079587921)
(1133.002971 373.9905345 1.075030809)
(1125.099117 367.4302174 2.402317708)
(1104.129897 362.6133717 3.453963787)
(1081.630652 361.4739288 4.135475201)
(1059.568056 352.854789 -1.071687849)
(1050.849296 347.3985827 -0.6798457656)
(1036.7044 342.4217329 5.255342252)
(1014.464075 337.2094211 0.7366107659)
(1004.180348 330.711685 1.295280068)
(989.1113806 319.2681332 0.04549512401)
(968.2766845 310.278093 -3.949922964)
(957.0461673 305.7611572 -0.6456974795)
(943.6133084 302.6578015 -4.252622091)
(934.1261619 291.3961464 0.2441418601)
(926.9353808 287.8308552 -0.5998469547)
(920.7334345 279.3612004 1.134833903)
(917.2465946 271.7745017 1.461626786)
(906.9902271 268.5442762 0.9174477578)
(911.2195845 261.3275531 3.634719826)
(914.562178 255.8826143 4.585949976)
(926.2700337 242.4271812 4.863902122)
(944.7995106 234.0379652 2.300546498)
(978.7544322 216.9584351 2.007542181)
(1336.101804 310.6818961 -2.039772211)
(1304.358461 333.0840502 -1.578788569)
(1290.17131 353.011148 -1.028874258)
(1270.149384 365.8914508 -2.732161434)
(1253.696016 372.5877788 -4.671760904)
(1231.475837 384.0225741 -0.0204002039)
(1214.965378 385.7331495 -0.7913079051)
(1200.709402 386.4952906 2.757243937)
(1188.57081 388.0860543 2.44892492)
(1171.073589 385.7259616 -0.4607757436)
(1153.016078 383.3966339 -0.04156961747)
(1134.53202 382.3697442 2.744310246)
(1122.45846 374.4918138 1.121833996)
(1105.991402 371.0288701 3.006400535)
(1094.799329 362.0156305 1.058027617)
(1078.105321 358.1609039 1.447789757)
(1059.948967 349.5786214 3.442088687)
(1048.505169 343.2974724 2.208489791)
(1039.02073 338.528818 0.7540248287)
(1024.103843 328.7667009 -1.232481874)
(1010.702393 323.1624727 0.4148661185)
(1006.138576 320.1517181 1.58184018)
(992.7971595 308.2126921 -0.4646926383)
(989.2758494 298.043265 -2.545280626)
(977.8685765 295.8637358 -0.4220515408)
(973.5729201 288.1950917 3.185694183)
(976.1384653 280.8587994 -2.678692009)
(992.6159523 266.7315815 -0.5217909613)
(1005.765862 260.4623287 -1.596438953)
(1026.060018 239.8610079 -0.5727497063)
(1404.959385 274.9618351 2.825064074)
(1377.425269 304.6058074 2.800498388)
(1354.508487 326.8022734 2.623233499)
(1325.883421 347.5451861 0.2255300226)
(1310.460783 362.970298 1.696592248)
(1287.919584 371.457587 -2.848752066)
(1267.471568 383.6681802 -3.991581054)
(1254.615173 391.0860686 -2.292147924)
(1242.57286 398.3432241 -0.9208042917)
(1230.736437 398.555276 1.899147356)
(1216.800197 400.2943092 0.4391088268)
(1194.276323 397.6466563 5.890719481)
(1181.881914 393.754843 2.920142312)
(1171.472335 391.3624715 -2.31461856)
(1161.104374 386.5117006 -0.5055763817)
(1138.977117 380.9779051 1.291162517)
(1128.706913 378.3761213 -1.963902175)
(1116.585857 368.3766148 0.02481368904)
(1105.600811 360.2323618 2.197316367)
(1088.371538 358.2186065 2.413841816)
(1074.505966 350.967898 -1.058896764)
(1066.608258 345.5060676 1.567590236)
(1054.227968 337.5041205 -2.369241681)
(1051.972092 328.9897892 -0.9335897271)
(1044.890867 320.9844996 -1.231258686)
(1040.077825 311.6118073 -2.056302308)
(1040.817877 303.6424264 -1.700819268)
(1050.25432 294.9979526 -4.211952973)
(1058.453732 284.8542315 -1.823454983)
(1080.427439 270.4168928 1.521531123)
(1466.792971 237.8017843 2.718435062)
(1439.820958 262.0903497 3.794557516)
(1413.62793 293.476334 3.289989984)
(1388.618545 315.8399612 2.040223398)
(1361.119144 340.7656612 2.038640162)
(1347.164796 358.631691 -0.1219406924)
(1330.434079 369.6447518 0.3325078147)
(1309.168656 384.9192006 -0.8152383023)
(1292.972493 389.5351077 -2.65996127)
(1278.781514 397.2064377 -2.748859021)
(1265.505655 400.0331457 1.687093001)
(1248.113484 406.0056292 -0.4748447686)
(1240.08536 408.143605 2.933139421)
(1220.334897 408.6544406 2.378497241)
(1207.717852 402.1108414 0.8016296615)
(1197.724233 401.2791607 0.3858546854)
(1188.092818 397.3832494 -1.146821466)
(1169.337926 392.338925 -3.15509828)
(1164.343915 387.7444985 -7.418660928)
(1151.787556 381.3211847 -4.478207923)
(1134.239623 373.8674215 -6.265811647)
(1123.582475 366.6916146 1.367729908)
(1117.812904 362.8723241 0.06773919632)
(1112.644075 352.7963362 -1.171109735)
(1102.269196 343.3067655 1.514946913)
(1095.102683 338.1497427 -0.9826548303)
(1094.487906 332.0867986 2.219794712)
(1097.868306 320.6445825 4.92154771)
(1105.843956 307.3276309 2.605954943)
(1117.384237 296.4553605 3.239895168)
(1523.277511 196.1991187 -2.547257733)
(1494.078993 227.1125924 0.412738428)
(1469.190146 250.0554801 -2.45271062)
(1446.363589 279.9743957 -1.429639255)
(1422.366218 301.0754018 2.359871019)
(1398.857199 327.1102792 6.594536457)
(1383.040717 347.5801911 5.779519906)
(1361.115989 362.4555367 5.560632638)
(1341.523024 377.4418468 0.9222884657)
(1324.440647 386.0135875 -2.225215352)
(1308.174864 398.3914585 -2.854424777)
(1293.349703 408.1661747 -5.046003389)
(1281.997559 412.2869714 -2.493605533)
(1263.7512 413.3634778 0.4523989724)
(1252.87135 412.3211763 -0.3275701262)
(1247.175936 408.1940799 2.420616205)
(1234.434926 412.2150668 4.262047425)
(1219.959285 408.1808455 4.365916997)
(1208.092712 406.5737182 -0.6129973555)
(1203.47639 398.6395481 1.622210955)
(1184.623573 394.3352655 0.3087645177)
(1175.470847 389.7015683 -3.042088637)
(1165.376031 381.7544585 -0.8812170333)
(1152.823208 374.4858776 1.150104213)
(1151.357334 370.288302 1.167367998)
(1149.650811 361.5071003 2.026980823)
(1140.608153 353.4930315 1.917286681)
(1141.200022 342.3792641 5.760533882)
(1147.255785 333.7393567 -0.5636787031)
(1158.970451 321.1115725 -2.200740241)
(1565.934847 158.7526697 2.588992667)
(1537.567146 185.2978855 1.577848655)
(1518.783465 210.4617857 4.518425331)
(1496.330272 235.367751 3.392744375)
(1477.968924 265.2524689 -1.478795551)
(1451.1037 291.6174428 -1.757108321)
(1427.330448 314.1991603 4.180501578)
(1409.292938 329.7481172 4.776405776)
(1389.672313 352.7589288 3.527410338)
(1372.71325 370.7835514 0.509664686)
(1358.202089 387.1494497 -4.675943394)
(1338.02897 396.8258274 -4.896470083)
(1324.513409 406.9634679 -4.069658644)
(1309.288201 412.5841667 -0.3867715409)
(1298.991575 417.4464246 4.030149105)
(1289.38826 417.4553746 1.809641188)
(1279.124314 421.6080748 1.616599586)
(1264.370078 419.7705606 4.086167286)
(1251.161025 417.5857934 2.164699739)
(1242.083373 414.3848792 -1.63563591)
(1229.92116 411.7903993 2.194455711)
(1217.938352 408.4406774 2.270111112)
(1211.535199 403.1596324 2.268165551)
(1201.482679 394.4411661 2.53383134)
(1194.668193 387.3011146 5.784427114)
(1189.860833 382.9898648 2.56340714)
(1185.864348 374.1561905 -1.051262135)
(1186.132567 363.1897405 -0.8667622387)
(1183.97556 352.7001564 2.637971208)
(1190.757266 340.2454085 0.7986316449)
(1609.067964 120.544863 -2.026062247)
(1590.628566 144.8157387 -4.515636902)
(1566.009596 174.3513367 -2.828282683)
(1540.375859 197.2920368 0.6522853847)
(1522.264345 224.7151422 -1.01678746)
(1494.820952 252.0597261 -3.558732502)
(1469.075851 274.5998265 -5.522434692)
(1455.408148 297.5420546 -4.390143273)
(1434.050358 324.6482971 -2.2330194)
(1412.684505 343.3548955 0.9657450516)
(1398.053361 361.4312337 3.319902622)
(1378.336757 377.9070051 -0.101934779)
(1362.171137 389.5093635 -1.281167932)
(1346.208727 402.1703668 -0.5270732671)
(1331.996801 412.8576613 2.955862029)
(1325.43338 418.971516 3.458430765)
(1310.534343 421.4760349 0.03837723742)
(1297.097951 424.3401036 0.8843625155)
(1290.930532 426.6275633 2.339625802)
(1279.971201 425.5150588 3.380092051)
(1274.81732 423.0327501 1.594254397)
(1259.177887 421.2441803 1.727445098)
(1251.109857 416.6695936 -1.474048753)
(1242.471011 412.1578533 3.432392776)
(1237.392333 405.6206412 1.306132831)
(1228.914857 399.9476704 -0.4652772024)
(1223.953507 394.745483 1.600192312)
(1220.353876 381.9615501 2.999144948)
(1225.174741 368.5988635 4.838450902)
(1232.154965 361.7095304 5.220529735)
(1638.240876 97.06794831 -3.363385388)
(1622.044894 113.4266439 -3.220184369)
(1604.120856 133.6435514 0.6981787454)
(1586.010907 158.3275821 -3.103305765)
(1564.202244 186.231389 -2.655266273)
(1543.893405 208.0364087 -2.255779887)
(1522.498317 234.5863895 -3.384078679)
(1500.919262 264.2574949 -4.106665875)
(1476.969407 285.9211753 -1.372458777)
(1454.479276 308.910044 -0.2369213504)
(1434.737451 328.5564433 -2.59159366)
(1420.240546 347.8420377 0.3551631054)
(1403.863193 368.8697356 0.5838025044)
(1381.963899 384.8601785 -3.880642146)
(1364.785528 401.9450857 -3.660174507)
(1357.559438 409.4550186 -0.4050208434)
(1345.255423 416.1252708 -0.6800487285)
(1334.380165 419.6246557 -0.07823925861)
(1326.523946 428.8782701 -0.831126201)
(1315.22947 431.2056512 1.779852742)
(1308.200129 429.8142826 1.959118266)
(1296.036864 431.0293664 2.207725143)
(1282.941822 427.6195163 2.939634124)
(1270.896878 423.3420546 -1.2819269)
(1269.448316 419.0680009 3.267391019)
(1265.836274 412.4663371 1.845259124)
(1256.899186 406.7358252 -0.1589666876)
(1254.771127 400.8556581 -0.7040280239)
(1257.931869 389.7060724 1.380046389)
(1263.922946 377.8015568 2.034759613)
(1666.941298 70.77866958 -1.705792666)
(1655.980753 86.15252015 -1.50631743)
(1637.847002 101.767275 -4.51596178)
(1622.313834 120.9171064 -2.086380573)
(1601.039984 148.442085 1.2053963)
(1582.147528 173.3819887 -1.156307107)
(1563.08974 196.098506 0.5327898939)
(1541.207138 223.135552 -1.528477445)
(1520.512404 245.1015315 -2.260321489)
(1498.974669 267.662957 -1.043934603)
(1476.964994 296.9607535 1.439079666)
(1456.010998 318.6185687 2.177954457)
(1436.692372 339.1835821 0.3242952241)
(1423.03255 361.2521497 0.2611230682)
(1406.879607 374.1945837 -1.230703878)
(1393.540818 389.7418483 -3.295862039)
(1379.875221 404.1734323 -0.4160062998)
(1369.394465 414.8267202 0.9499161246)
(1354.726448 419.4984435 -0.7201456236)
(1343.604606 425.4001167 -0.03612319782)
(1334.872983 430.5051218 0.6419729093)
(1325.154021 431.8826235 2.25226426)
(1316.77792 431.5825119 1.46823316)
(1308.309361 432.1210504 2.616426614)
(1299.927212 428.0077035 1.697430172)
(1297.723121 423.2487054 3.173695978)
(1287.418808 420.3634201 3.519971076)
(1279.896604 414.671775 3.671848098)
(1281.408677 407.9694874 1.345607466)
(1287.777305 398.6526649 -0.6073547183)
(1677.206761 52.65363067 2.344694636)
(1668.221407 63.04722411 0.6416461327)
(1655.633333 80.9867949 1.76719667)
(1643.22552 98.33461772 -3.037746576)
(1630.131881 112.3929206 -2.812431533)
(1612.170607 136.0062074 0.9338304204)
(1592.815485 156.3584839 0.4248278761)
(1574.145362 177.9215654 2.421384431)
(1554.170782 205.2459587 -0.6412101185)
(1538.983993 227.2690258 1.066791447)
(1520.974531 255.1765714 4.233222993)
(1499.535743 281.6960975 -1.45515127)
(1485.067208 303.0966894 -0.213103701)
(1465.40823 325.2495161 3.942666223)
(1441.554854 349.7451883 1.450763816)
(1422.341997 368.6412709 1.665676931)
(1406.789141 383.9067728 3.160327391)
(1394.207504 398.9455521 1.469510634)
(1384.434761 408.4654204 0.427836149)
(1374.057606 417.5520247 -2.299350511)
(1363.727662 428.2442003 -1.824700207)
(1349.405753 433.9738398 -1.449466837)
(1341.700318 436.7289409 0.8487813854)
(1330.08964 438.1022044 0.02069361744)
(1326.689455 434.7293761 3.892342066)
(1320.382109 433.3475265 3.542939772)
(1313.129484 430.4364675 3.447234083)
(1310.077287 427.0899833 -0.01681944779)
(1306.631368 423.728456 1.044071088)
(1694.818535 43.47924192 3.31892166)
(1688.583471 53.09079143 0.8827559691)
(1681.404831 60.8562693 -0.3200563479)
(1665.980806 74.35645552 0.9591060174)
(1655.631395 86.7426118 0.07729393658)
(1639.927433 104.828579 -0.1450849739)
(1627.73552 124.7251034 -0.9041490189)
(1613.204079 143.4623539 -1.693456058)
(1594.230859 168.8529858 -3.164906371)
(1574.590426 193.7471392 -2.260535193)
(1556.165144 214.1960969 -3.997430258)
(1537.147587 238.1776017 -2.681488187)
(1520.309391 266.6188331 -6.736843374)
(1505.870582 289.9227338 -3.494740355)
(1479.64723 318.8933776 -0.7874499275)
(1464.582643 338.1704949 -4.110573189)
(1447.284768 358.0720935 -5.851495694)
(1427.356866 374.2858737 -1.878924711)
(1412.852071 390.4004222 0.08322075628)
(1406.17118 402.1866908 0.4675379334)
(1393.958376 414.1535106 -1.683015079)
(1376.289256 421.9595128 -0.6434004611)
(1368.85801 429.1074812 -0.2761139331)
(1358.330342 435.4912408 1.820713325)
(1355.438347 439.4384206 -1.989802634)
(1701.947552 32.30600212 -3.358003647)
(1695.47826 38.28558279 -2.944439497)
(1687.535116 48.41436065 -1.252228055)
(1681.385796 58.06069112 -1.821819064)
(1672.744199 68.09152 -0.584424091)
(1665.814569 79.16231149 -1.53707191)
(1655.477857 93.38918069 -2.185545561)
(1639.189635 115.0334987 -1.863537891)
(1627.539532 128.4912072 -0.2337639065)
(1608.695026 157.7147827 -2.090805118)
(1592.015184 179.5715343 -0.5541375674)
(1575.310055 202.7750958 -0.1638026421)
(1558.530009 226.9439267 -1.560153413)
(1539.437669 251.2015095 -3.948601379)
(1517.774814 276.7864783 -6.302694979)
(1498.052395 302.3024844 -2.416968955)
(1483.532976 323.0796483 -2.549440343)
(1464.32023 347.2566064 -1.516905508)
(1445.715582 367.9096001 4.847372112)
(1710.40982 24.41387812 0.6953712984)
(1704.895315 28.22836341 1.298936655)
(1702.773212 34.15487262 0.2038131609)
(1696.049714 42.20215287 0.0332343004)
(1688.253516 54.3572524 -0.8520187954)
(1677.350379 61.71154696 -1.558590788)
(1668.44555 75.82427047 -0.04915429024)
(1659.050805 89.29438033 -1.014697391)
(1644.925452 105.817951 0.4103932776)
(1633.968567 122.5490049 1.656594954)
(1617.467684 144.4235695 0.3994780495)
(1604.550397 166.9607007 0.5580406995)
(1588.548507 186.0338612 1.75814473)
(1569.505802 209.0026029 0.6321211623)
(1719.865827 16.25687748 -3.467084672)
(1718.122545 18.91758837 -4.037112874)
(1712.781709 27.18816709 -1.806552152)
(1704.387632 33.35187786 -2.763219361)
(1699.003391 41.84564204 0.5400550669)
(1690.712699 50.99710682 2.385920787)
(1684.064459 58.09452306 0.741880478)
(1674.933744 67.89481285 0.6947188254)
(1724.309577 13.60319482 2.422932616)
)
;

boundaryField
{
    flow
    {
        type            calculated;
        value           nonuniform List<vector> 
15
(
(394.7587964 74.93850807 0.9369299057)
(597.9898987 88.85783512 3.211283997)
(710.0559263 104.2775476 -0.06247009105)
(781.8158992 131.2248363 0.4682985358)
(856.2927838 161.6839749 -2.801113956)
(921.1759989 191.7108415 -3.057337309)
(978.7544322 216.9584351 2.007542181)
(1026.060018 239.8610079 -0.5727497063)
(1080.427439 270.4168928 1.521531123)
(1117.384237 296.4553605 3.239895168)
(1158.970451 321.1115725 -2.200740241)
(1190.757266 340.2454085 0.7986316449)
(1232.154965 361.7095304 5.220529735)
(1263.922946 377.8015568 2.034759613)
(1287.777305 398.6526649 -0.6073547183)
)
;
    }
    obstacle
    {
        type            calculated;
        value           nonuniform List<vector> 
30
(
(199.4569663 53.44433315 -2.950227874)
(174.4925363 46.75513427 -3.777681547)
(185.8735359 49.80466369 6.602056615)
(180.0059422 48.23244693 -1.108771356)
(164.0607524 43.95994598 -4.906446865)
(168.3556169 45.11075167 2.532431998)
(156.4497223 41.92057682 -0.04180584245)
(158.8523211 42.56435101 -6.952644511)
(165.0578216 44.22711007 2.548644429)
(150.7456235 40.39216816 -13.51231496)
(161.9604333 43.39716717 -1.382894203)
(138.9408188 37.22908027 10.8434452)
(150.826471 40.41383118 3.579938143)
(143.483604 38.4463157 -0.3965636992)
(118.6710232 31.79780488 10.0660651)
(136.8455069 36.66764296 -11.48897423)
(127.6275678 34.19770378 1.128175359)
(134.4862135 36.03547237 -1.379723544)
(131.7648951 35.30629711 -8.785645116)
(143.8744873 38.55105276 16.5625039)
(134.2094878 35.96132394 4.688110358)
(142.306677 38.13095905 6.095645632)
(137.3584756 36.80509267 -4.88897695)
(132.6192891 35.53523148 4.167794713)
(146.0693037 39.13915183 21.8384037)
(139.8879999 37.48287666 -1.065420524)
(142.5625913 38.1995311 2.260736828)
(164.7394639 44.1418064 -1.071835901)
(175.6991484 47.07844501 1.565210672)
(207.7745048 55.67301059 10.48924906)
)
;
    }
    frontAndBack
    {
        type            empty;
    }
    procBoundary1to0
    {
        type            processor;
        value           nonuniform List<vector> 
21
(
(387.4760147 112.4482311 -4.860937517)
(667.6793497 201.5419575 2.5840186)
(855.8666315 275.8469099 -1.168157007)
(1008.377568 324.7539894 -0.8129588149)
(1112.820186 345.5645721 2.698129482)
(1213.045454 337.8544799 -2.002000428)
(1293.607338 315.3545863 -1.23262408)
(1358.694111 287.8916781 1.111172293)
(1431.361473 247.5554395 1.439160433)
(1498.101145 207.1265766 -0.1637425733)
(1546.600211 169.2816642 -1.13414261)
(1590.819339 132.5833055 2.089863733)
(1624.269563 103.9178827 -3.323988496)
(1654.444795 76.96387237 -2.43307159)
(1678.404789 60.00051518 -0.6610214898)
(1686.597814 41.62012214 -0.6244543313)
(1704.820123 34.82121347 2.412078761)
(1706.871715 24.01173469 -1.157083973)
(1715.595917 18.62284314 -2.673372534)
(1722.750562 14.77560293 -2.347758438)
(1724.749744 11.314079 2.243680797)
)
;
    }
    procBoundary1to3
    {
        type            processor;
        value           nonuniform List<vector> 
36
(
(1307.260052 414.8316136 1.816655191)
(1347.351777 438.7424803 -0.858384835)
(1338.248115 438.8785233 0.4049222385)
(1332.851737 432.5661703 1.399646768)
(1307.260052 414.8316136 1.816655191)
(1334.784275 428.7404793 1.945579999)
(1430.827378 382.9082604 1.746771072)
(1419.780245 393.3133596 0.3979447563)
(1406.688098 409.1685597 -2.413047719)
(1396.891536 420.3514517 -3.870313328)
(1384.007987 431.5597593 -0.5288209202)
(1347.351777 438.7424803 -0.858384835)
(1369.589982 435.3834703 -2.524502792)
(1552.428226 237.0709832 0.6026816851)
(1530.758598 262.5944336 -1.875631817)
(1515.067738 288.6402186 1.223597098)
(1496.556283 312.3519632 -4.055166432)
(1430.827378 382.9082604 1.746771072)
(1474.756622 334.2217488 -2.613283904)
(1665.803128 82.96700137 0.5391793494)
(1656.433075 94.34961533 -0.5106777832)
(1643.695851 115.2636566 1.596812717)
(1629.947763 134.0453594 5.803989115)
(1621.32622 156.053608 3.603503695)
(1552.428226 237.0709832 0.6026816851)
(1605.899209 175.7782677 -1.932289749)
(1722.143016 16.97385632 2.859833223)
(1717.174137 20.89789523 3.484758603)
(1713.308425 27.33635375 3.761377914)
(1708.70639 31.95304677 1.958611925)
(1703.657385 39.64777398 1.080463812)
(1700.231803 46.62021904 2.155089079)
(1665.803128 82.96700137 0.5391793494)
(1691.368424 56.5346227 3.35186417)
(1722.143016 16.97385632 2.859833223)
(1726.719936 11.72052305 -0.8418992319)
)
;
    }
}


// ************************************************************************* //
