/*--------------------------------*- C++ -*----------------------------------*\
| =========                 |                                                 |
| \\      /  F ield         | OpenFOAM: The Open Source CFD Toolbox           |
|  \\    /   O peration     | Version:  2406                                  |
|   \\  /    A nd           | Website:  www.openfoam.com                      |
|    \\/     M anipulation  |                                                 |
\*---------------------------------------------------------------------------*/
FoamFile
{
    version     2.0;
    format      ascii;
    arch        "LSB;label=32;scalar=64";
    class       Cloud<dsmcParcel>;
    location    "0.004/lagrangian/dsmc";
    object      coordinates;
}
// * * * * * * * * * * * * * * * * * * * * * * * * * * * * * * * * * * * * * //

5113
(
(0.1790557667 0.4104721167 0.1062542133 0.3042179034) 405 784 2
(0.1613038323 0.4193480838 0.05496073017 0.3643873537) 474 915 2
(0.02276802774 0.0439357063 0.4886159861 0.4446802798) 504 972 1
(0.243294851 0.3783525745 0.3112919903 0.06706058424) 441 836 1
(0.694815298 0.152592351 0.06399066196 0.08860168904) 473 916 1
(0.4236791504 0.2881604248 0.02226968541 0.2658907394) 505 957 1
(0.3480649984 0.0999606746 0.3259675008 0.2260068262) 494 956 2
(0.6062947009 0.1968526495 0.08629798451 0.110554665) 475 917 2
(0.4664278844 0.1326530437 0.2667860578 0.1341330141) 423 818 1
(0.1336007071 0.4238309605 0.4331996465 0.009368686004) 424 820 1
(0.1370074757 0.4314962621 0.04612786999 0.3853683921) 434 841 2
(0.577294296 0.211352852 0.2033981407 0.00795471128) 520 986 1
(0.5632711505 0.2183644247 0.1445533272 0.07381109752) 433 839 2
(0.735819121 0.1320904395 0.1137339787 0.01835646074) 465 881 1
(0.09057563349 0.4527276184 0.001984564874 0.4547121833) 435 824 2
(0.4109902736 0.105618621 0.1888862422 0.2945048632) 405 2218 1
(0.6053108388 0.1973445806 0.04596599813 0.1513785825) 414 785 1
(0.004699067063 0.3281439021 0.1695065644 0.4976504665) 405 2218 1
(0.4505004711 0.2747497645 0.1307090491 0.1440407153) 415 2219 2
(0.7143162374 0.03414975876 0.1086921225 0.1428418813) 434 841 1
(0.6246549361 0.145629959 0.1876725319 0.04204257298) 472 911 1
(0.6019598696 0.1990200652 0.07013992974 0.1288801355) 464 899 1
(0.3445230249 0.1096047429 0.3277384876 0.2181337446) 494 953 1
(0.08114155621 0.4594292219 0.3816781886 0.07775103329) 495 2227 2
(0.03197833349 0.112640472 0.3713703612 0.4840108333) 365 2214 1
(0.9493989235 0.01001806309 0.01528247513 0.02530053823) 383 726 2
(0.03987255905 0.4800637205 0.2703064702 0.2097572503) 433 839 2
(0.4921082052 0.2539458974 0.1749036887 0.07904220872) 483 932 2
(0.2996193745 0.3501903128 0.01021225344 0.3399780593) 485 2226 2
(0.2740809097 0.1251952269 0.3629595452 0.2377643183) 474 918 2
(0.1132338151 0.2004007581 0.4433830925 0.2429823343) 465 900 2
(0.03164051224 0.4841797439 0.06981161682 0.4143681271) 465 900 1
(0.471517603 0.2642411985 0.07437925215 0.1898619463) 394 747 1
(0.8364883067 0.01884488007 0.08175584664 0.06291096657) 484 937 2
(0.2918085515 0.1198147236 0.3540957242 0.2342810006) 424 823 2
(0.4331257258 0.04554799407 0.237889143 0.2834371371) 495 938 2
(0.1784431998 0.4107784001 0.3157155182 0.09506288193) 383 726 1
(0.8079771429 0.01899311173 0.09601142853 0.0770183168) 534 1032 2
(0.2444463891 0.3777768054 0.2340450336 0.1437317719) 474 915 2
(0.2495370081 0.2179729312 0.375231496 0.1572585647) 445 862 2
(0.389735737 0.1134393931 0.1916927384 0.3051321315) 462 894 1
(0.403442899 0.06953937855 0.228739172 0.2982785505) 425 2220 1
(0.3696519683 0.3151740158 0.02957854421 0.2855954716) 422 818 2
(0.7284315962 0.1357842019 0.007437601783 0.1283466001) 465 900 1
(0.2853821243 0.2920137536 0.3573089379 0.0652951843) 495 957 2
(0.05745417256 0.3310369203 0.4712729137 0.1402359934) 505 974 1
(0.2182837248 0.1683215592 0.3908581376 0.2225365784) 525 1014 2
(0.4528823732 0.2735588134 0.2012462727 0.07231254068) 415 805 1
(0.7474703591 0.02905364662 0.1262648205 0.09721117383) 434 842 2
(0.04739362881 0.4763031856 0.253646742 0.2226564436) 412 799 2
(0.5462581639 0.0751836142 0.226870918 0.1516873038) 374 728 2
(0.5058044206 0.2470977897 0.07274461709 0.1743531726) 455 879 2
(0.4074827157 0.2962586421 0.0627307402 0.2335279019) 455 2223 2
(0.03194847494 0.4840257625 0.3321528947 0.1518728679) 485 938 1
(0.2478003409 0.2206608444 0.1554389852 0.3760998295) 504 974 1
(0.2121830568 0.3305193109 0.06338916067 0.3939084716) 544 1042 1
(0.3538428695 0.3230785652 0.1553409145 0.1677376507) 531 1007 1
(0.1291364094 0.03587321408 0.4354317953 0.3995585812) 403 780 1
(0.3434487086 0.3282756457 0.2825019442 0.0457737015) 465 898 2
(0.01423669974 0.4928816501 0.3541107915 0.1387708586) 484 936 2
(0.06731282945 0.3109972458 0.1553463395 0.4663435853) 443 858 1
(0.4672023289 0.2663988355 0.08581941774 0.1805794178) 464 880 1
(0.1095035987 0.1267139934 0.3185342073 0.4452482006) 423 820 1
(0.2415245786 0.3792377107 0.01116272347 0.3680749872) 474 918 1
(0.005485737361 0.4972571313 0.388471148 0.1087859833) 515 993 2
(0.3008200734 0.3495899633 0.2118019654 0.1377879979) 490 947 2
(0.1841459642 0.06454124328 0.4079270179 0.3433857746) 494 956 2
(0.2305494029 0.3847252985 0.2758592583 0.1088660403) 495 955 2
(0.2019964226 0.3990017887 0.1978680853 0.2011337034) 440 834 1
(0.7188017793 0.1405991103 0.1144296167 0.02616949361) 494 937 1
(0.408565407 0.2957172965 0.1639558703 0.1317614262) 545 1090 1
(0.08231927433 0.1899869515 0.4588403628 0.2688534114) 374 728 2
(0.1565550239 0.2857763068 0.4217224881 0.1359461812) 374 728 2
(0.7593617618 0.1203191191 0.04978348544 0.07053563365) 424 820 2
(0.7044227199 0.1477886401 0.09103338959 0.05675525047) 475 917 2
(0.134729256 0.4173965175 0.01523885455 0.432635372) 445 2222 1
(0.03192001832 0.4840399908 0.02585723266 0.4581827582) 401 760 1
(0.2923059967 0.3538470017 0.1529459385 0.2009010631) 537 1034 2
(0.09516274235 0.1105498528 0.341868776 0.4524186288) 532 1009 2
(0.3957231592 0.1920709585 0.3021384204 0.1100674618) 490 945 1
(0.1928017332 0.0122515284 0.391347605 0.4035991334) 523 992 2
(0.5413875685 0.2278584858 0.2293062157 0.001447729994) 470 907 1
(0.4649639226 0.1494073809 0.2675180387 0.1181106578) 483 932 1
(0.002940438711 0.4985297806 0.03942120938 0.4591085713) 485 938 1
(0.1714785984 0.3248262578 0.08943444298 0.4142607008) 532 1009 2
(0.2608215991 0.3695892004 0.2508171123 0.1187720881) 505 976 1
(0.548799594 0.02583235289 0.1997678501 0.225600203) 393 763 1
(0.6017517993 0.1667497394 0.03237436091 0.1991241003) 379 736 1
(0.3028201074 0.3485899463 0.07665327762 0.2719366687) 443 840 1
(0.9702776827 0.01486115865 0.007323675651 0.007537482998) 374 727 2
(0.6363448857 0.1044485805 0.07737897666 0.1818275572) 443 840 2
(0.01914940997 0.2090061861 0.2814191089 0.490425295) 425 2220 1
(0.2630299156 0.3684850422 0.1894870289 0.1789980132) 453 875 2
(0.6099616879 0.1950191561 0.04222360323 0.1527955528) 455 2223 2
(0.09208056439 0.08331039037 0.4539597178 0.3706493274) 463 897 2
(0.2745050935 0.3627474533 0.2140000598 0.1487473935) 455 2223 2
(0.1310138407 0.4344930796 0.2490584389 0.1854346407) 495 2227 2
(0.3002561176 0.3438291058 0.006042835445 0.3498719412) 512 989 1
(0.2777679548 0.3611160226 0.2615708457 0.09954517695) 484 934 2
(0.2093476523 0.3953261739 0.05171817995 0.3436079939) 442 854 2
(0.2949283646 0.3525358177 0.1625236635 0.1900121542) 544 1041 2
(0.2022716496 0.1332794628 0.3988641752 0.2655847124) 435 841 1
(0.5646410301 0.2176794849 0.1866096912 0.03106979372) 415 786 1
(0.01509366312 0.2021468964 0.4924531684 0.2903062721) 445 862 2
(0.3956151282 0.2939864018 0.008206034074 0.3021924359) 380 720 2
(0.3119243443 0.3440378279 0.2882678008 0.05577002702) 444 861 1
(0.0852165303 0.3696004824 0.4573917348 0.08779125246) 443 859 2
(0.2605297968 0.3697351016 0.2551081278 0.1146269738) 481 928 2
(0.2898529865 0.3550735068 0.1959197422 0.1591537645) 372 721 2
(0.06436253583 0.4678187321 0.4542078218 0.01361091029) 454 877 2
(0.4584477214 0.2707761393 0.07887504254 0.1919010968) 394 763 2
(0.2412961674 0.3793519163 0.0668638029 0.3124881134) 400 777 1
(0.0729749667 0.4635125167 0.2547666967 0.2087458199) 455 881 1
(0.271835586 0.01824121277 0.364082207 0.3458409942) 444 861 2
(0.3248602931 0.01396642278 0.3236034307 0.3375698535) 485 919 2
(0.1113283826 0.3982843165 0.0460514922 0.4443358087) 484 936 1
(0.6371616453 0.1814191773 0.03875853372 0.1426606436) 510 967 1
(0.454019278 0.04299220341 0.2299981576 0.272990361) 464 898 1
(0.05231111589 0.07503547992 0.3988089621 0.4738444421) 445 2222 1
(0.2233079841 0.3883460079 0.1806360175 0.2077099905) 423 818 2
(0.2173168162 0.3913415919 0.09115570116 0.3001858907) 424 822 2
(0.6939914211 0.02797836078 0.1530042895 0.1250259287) 455 881 2
(0.2613473155 0.3404292618 0.02889708044 0.3693263422) 445 2222 1
(0.1298392431 0.008063783614 0.4270165948 0.4350803784) 449 851 2
(0.06899715235 0.283709021 0.1817924028 0.4655014238) 444 860 1
(0.2803862167 0.3598068916 0.0666347907 0.2931721009) 430 833 2
(0.8388862476 0.00507354902 0.07548332716 0.08055687618) 433 821 2
(0.6742613875 0.1334946515 0.1628693062 0.02937465477) 535 1033 2
(0.5806696644 0.2096651678 0.06328726789 0.1463778999) 468 887 1
(0.7655393603 0.1172303199 0.03227167591 0.08495864394) 532 1009 1
(0.4427705167 0.2786147417 0.12051364 0.1581011016) 471 909 2
(0.07125720011 0.1299903312 0.3343810688 0.4643713999) 495 938 2
(0.3745814321 0.3127092839 0.2405913991 0.07211788486) 523 992 1
(0.5823313772 0.20616273 0.2088343114 0.002671581361) 531 1023 1
(0.04918155772 0.4754092211 0.08029828361 0.3951109375) 381 738 2
(0.1348044854 0.4325977573 0.2895558815 0.1430418757) 370 701 1
(0.1206484519 0.4396757741 0.2017611219 0.2379146522) 472 911 2
(0.3259179542 0.151118222 0.3370410229 0.1859228009) 395 767 2
(0.1962384107 0.4012965193 0.0005842753473 0.4018807946) 402 780 1
(0.1751578073 0.1348127051 0.2776083912 0.4124210963) 473 915 1
(0.05837561508 0.1922459132 0.2785662792 0.4708121925) 393 745 2
(0.3982884538 0.3008557731 0.03444325541 0.2664125177) 410 796 1
(0.5297751021 0.004427454887 0.230684994 0.2351124489) 404 766 2
(0.2175565965 0.3912217018 0.02699875985 0.3642229419) 413 802 1
(0.2434642188 0.06964817017 0.3782678906 0.3086197204) 394 763 1
(0.2206734926 0.1514566895 0.3896632537 0.2382065643) 473 913 1
(0.172324151 0.4138379245 0.3541993561 0.0596385684) 403 782 2
(0.007994090852 0.3586091455 0.137393809 0.4960029546) 451 873 1
(0.09036396397 0.454818018 0.09902558277 0.3557924352) 505 974 2
(0.5163964048 0.05343769782 0.1883640998 0.2418017976) 454 879 1
(0.02046148925 0.4897692554 0.4513074732 0.03846178217) 445 843 1
(0.05179149163 0.4741042542 0.4078219864 0.0662822678) 405 2218 2
(0.1062043534 0.2980324592 0.1488653641 0.4468978233) 485 2226 1
(0.1915941444 0.1907305036 0.2134724242 0.4042029278) 460 890 1
(0.1194078838 0.4402960581 0.4349973125 0.005298745621) 459 870 1
(0.07722826285 0.4613858686 0.3187841462 0.1426017224) 514 975 1
(0.368916192 0.222181136 0.09336076796 0.315541904) 443 840 2
(0.009258806375 0.4953705968 0.08552353538 0.4098470614) 545 1033 1
(0.4639754679 0.112701363 0.155310903 0.268012266) 433 839 1
(0.03175357732 0.4841232113 0.008556432149 0.4755667792) 514 993 2
(0.1747784229 0.4126107886 0.1927184753 0.2198923133) 505 2228 2
(0.3381735258 0.06842467668 0.2624885604 0.3309132371) 533 1011 2
(0.6483499901 0.1758250049 0.1667976029 0.009027402044) 514 975 1
(0.1346970705 0.4326514648 0.2249388859 0.2077125788) 493 935 1
(0.3441271126 0.3279364437 0.107907523 0.2200289207) 523 1011 1
(0.4824748953 0.2367431013 0.2587625523 0.02201945103) 525 1014 2
(0.3853529376 0.3073235312 0.153274766 0.1540487652) 513 991 2
(0.2878088835 0.3560955582 0.1759230431 0.1801725152) 533 1011 1
(0.5816837607 0.07362300041 0.2091581197 0.1355351193) 403 783 2
(0.09052977333 0.4547351133 0.330475004 0.1242601093) 385 2216 2
(0.2433242291 0.3783378854 0.2325271807 0.1458107047) 390 758 1
(0.3724859738 0.3137570131 0.2323629704 0.0813940427) 451 871 2
(0.8256617318 0.08716913411 0.01743628126 0.06973285285) 385 729 1
(0.5684673732 0.1561767211 0.05958959233 0.2157663134) 389 755 1
(0.06184642325 0.1385237574 0.330553031 0.4690767884) 444 842 2
(0.1396813903 0.02758565185 0.402573653 0.4301593048) 452 875 1
(0.1799930807 0.4100034596 0.002053266542 0.4079501931) 454 861 1
(0.05703130424 0.4714843479 0.3531726956 0.1183116523) 409 793 2
(0.4501599503 0.01437768817 0.2749200249 0.2605423367) 472 914 2
(0.1407308011 0.4296345994 0.1935736558 0.2360609436) 472 911 2
(0.5224579601 0.2387710199 0.09639386505 0.1423771549) 494 953 2
(0.6590869149 0.1704565426 0.02525834752 0.1451981951) 473 915 2
(0.194411841 0.4027940795 0.2286692635 0.174124816) 485 936 2
(0.413332915 0.06182116707 0.2933335425 0.2315123754) 525 1012 1
(0.1801863707 0.394501244 0.01540557066 0.4099068146) 475 2225 1
(0.1527501811 0.1042539364 0.3193709731 0.4236249094) 425 805 2
(0.7063405708 0.1468297146 0.1336996358 0.01313007877) 453 878 1
(0.1605713445 0.4197143277 0.2333134828 0.1864008449) 450 871 2
(0.2786255524 0.3606872238 0.1269121844 0.2337750395) 521 1007 1
(0.004421762421 0.476625766 0.4977891188 0.02116335281) 450 869 1
(0.41114326 0.1106213539 0.29442837 0.1838070161) 484 937 2
(0.3544082511 0.3227958745 0.2539600131 0.06883586133) 534 1029 2
(0.7926701258 0.1004314139 0.003233523208 0.1036649371) 523 1010 1
(0.2020774062 0.3989612969 0.1212611921 0.2777001048) 459 888 2
(0.6488061532 0.155195706 0.1755969234 0.02040121745) 504 972 1
(0.2583051805 0.3708474098 0.03529796767 0.3355494421) 462 894 2
(0.1438972563 0.06364139229 0.3644099796 0.4280513719) 465 2224 1
(0.4827429547 0.2586285226 0.2563058277 0.002322694893) 519 1003 1
(0.6332261023 0.009377320381 0.1833869488 0.1740096284) 532 1025 1
(0.06301718364 0.4684914082 0.1847839935 0.2837074147) 494 953 2
(0.050657061 0.1930612834 0.2816101861 0.4746714695) 533 1029 1
(0.005705035822 0.4971474821 0.09310998362 0.4040374985) 495 955 2
(0.2540267699 0.372986615 0.1630852324 0.2099013826) 492 951 2
(0.721928148 0.139035926 0.1088043804 0.03023154556) 415 803 2
(0.2906110767 0.3546944616 0.02899407167 0.32570039) 371 703 1
(0.7255059817 0.005686401442 0.1315606077 0.1372470092) 413 801 1
(0.3784191978 0.3107904011 0.1185811854 0.1922092157) 424 822 2
(0.3299152058 0.3350423971 0.08870011612 0.246342281) 375 729 1
(0.5156516886 0.07429463677 0.2421741557 0.1678795189) 395 765 1
(0.09887074676 0.4505646266 0.2253761709 0.2251884557) 435 2221 2
(0.2669536228 0.3665231886 0.3108444965 0.05567869206) 394 765 2
(0.5074393472 0.2462803264 0.1067151371 0.1395651893) 412 799 2
(0.492867176 0.1867209228 0.253566412 0.06684548916) 403 780 1
(0.4572219218 0.008472379838 0.2629166593 0.2713890391) 374 727 1
(0.1483428891 0.2630169451 0.4258285554 0.1628116103) 395 765 1
(0.1489957865 0.4255021067 0.05737184886 0.3681302579) 444 858 2
(0.02202417754 0.3131723448 0.1758155665 0.4889879112) 372 705 2
(0.7283501278 0.1358249361 0.07100282778 0.06482210831) 415 786 1
(0.03176292791 0.484118536 0.05946637079 0.4246521653) 451 873 2
(0.06800593988 0.1167182281 0.349278802 0.4659970301) 421 816 1
(0.02310663454 0.2555950977 0.2328515851 0.4884466827) 494 937 2
(0.5336346356 0.2331826822 0.1658637843 0.06731889791) 435 841 2
(0.7572053414 0.001382646624 0.1200146827 0.1213973293) 471 893 2
(0.11850006 0.44074997 0.3172856098 0.1234643602) 504 972 2
(0.1684425908 0.4157787046 0.2879233314 0.1278553732) 471 912 1
(0.3612535203 0.3193732399 0.1208056831 0.1985675568) 514 993 2
(0.2844605257 0.3049051924 0.05286454477 0.3577697372) 502 952 2
(0.1654330123 0.4172834938 0.06796761802 0.3493158758) 480 926 2
(0.02309676139 0.4884516193 0.2955871641 0.1928644552) 514 993 2
(0.1336184708 0.4331907646 0.3382050682 0.09498569642) 413 801 2
(0.1610126623 0.06806731009 0.3514263588 0.4194936689) 487 941 1
(0.2542766041 0.2259503098 0.3728616979 0.1469113882) 522 1009 2
(0.536680184 0.231659908 0.04425023026 0.1874096777) 483 935 1
(0.1885177745 0.3635584754 0.04218263729 0.4057411127) 510 967 2
(0.2118343882 0.3940828059 0.341139214 0.05294359189) 447 863 2
(0.03781526461 0.1178861853 0.3632061824 0.4810923677) 502 970 1
(0.04456424699 0.3156745491 0.1620433274 0.4777178765) 523 992 2
(0.1659332063 0.1782658663 0.4170333968 0.2387675305) 488 944 2
(0.4992396911 0.09010806629 0.2503801544 0.1602720881) 257 515 2
(0.4416985879 0.04772694762 0.2314237585 0.2791507061) 523 992 2
(0.4900580099 0.1580354434 0.254970995 0.09693555167) 524 1010 1
(0.117491414 0.3640780667 0.441254293 0.07717622636) 384 744 1
(0.06044318077 0.4697784096 0.2435249744 0.2262534352) 395 748 1
(0.6186586276 0.1642686268 0.02640205939 0.1906706862) 385 729 2
(0.7135136599 0.1432431701 0.09403328406 0.049209886) 369 715 2
(0.8119460039 0.03722020396 0.05680679407 0.09402699803) 404 784 1
(0.2329587234 0.3835206383 0.2913402285 0.0921804098) 422 819 1
(0.2209498584 0.3508935726 0.3895250708 0.03863149818) 410 793 1
(0.2574262886 0.3712868557 0.02707810118 0.3442087545) 434 841 2
(0.1029130975 0.3206192393 0.1279242119 0.4485434512) 435 824 2
(0.01054989577 0.4947250521 0.3783848462 0.1163402059) 423 821 1
(0.0829286779 0.09653445691 0.3620012041 0.458535661) 373 725 1
(0.6056986647 0.1363586746 0.06079199298 0.1971506676) 429 831 1
(0.4714114688 0.2642942656 0.2107047967 0.05358946883) 424 822 2
(0.01337521019 0.09146437279 0.4933123949 0.4018480221) 451 871 1
(0.3551597334 0.3224201333 0.0288065441 0.2936135892) 465 2224 2
(0.8553154073 0.07234229634 0.04995405977 0.02238823658) 483 916 1
(0.2941606952 0.3420648221 0.0108548303 0.3529196524) 524 1012 1
(0.4847702255 0.2258416106 0.03177327659 0.2576148872) 461 892 1
(0.09261051852 0.06540019778 0.388294543 0.4536947407) 425 2220 1
(0.3944379986 0.3027810007 0.06448458204 0.2382964186) 469 907 2
(0.1964314884 0.4017842558 0.30609251 0.09569174579) 485 2226 2
(0.19425234 0.004348523804 0.3985253062 0.40287383) 443 858 1
(0.09825406826 0.2203980507 0.2304749152 0.4508729659) 413 783 2
(0.03973669073 0.149282812 0.4801316546 0.3308488426) 434 839 1
(0.4449233023 0.2775383489 0.1585481495 0.1189901994) 475 917 2
(0.713615623 0.04391824519 0.0992739433 0.1431921885) 434 823 2
(0.1862835409 0.1235170458 0.2833411837 0.4068582295) 440 852 1
(0.121753245 0.2803016204 0.1588217571 0.4391233775) 490 929 2
(0.3488250034 0.3255874983 0.2095452525 0.1160422458) 473 916 1
(0.5535442708 0.2232278646 0.07701842198 0.1462094426) 532 1009 1
(0.5995331509 0.1734061729 0.2002334246 0.02682725165) 499 965 2
(0.3641387195 0.3179306402 0.2382232151 0.07970742512) 447 865 2
(0.2150816757 0.3924591622 0.2647937343 0.1276654278) 534 1029 2
(0.106238733 0.2458188898 0.4468806335 0.2010617437) 543 1088 2
(0.01766623743 0.4911668813 0.03061343518 0.4605534461) 503 972 2
(0.4080680969 0.002486699103 0.2959659515 0.2934792524) 521 1007 2
(0.8213603737 0.08931981314 0.08704898381 0.002270829333) 543 1088 1
(0.7106522607 0.002263174317 0.1424106953 0.1446738696) 511 969 2
(0.00820900722 0.4958954964 0.2400679705 0.2558275259) 452 857 1
(0.1633406763 0.09771864781 0.4183296618 0.320611014) 411 798 2
(0.8745080208 0.0627459896 0.0399548861 0.02279110349) 448 849 1
(0.06699676001 0.04387269186 0.46650162 0.4226289281) 385 746 1
(0.528493883 0.2357530585 0.1890217319 0.04673132657) 383 726 1
(0.3804036913 0.189248773 0.1205493814 0.3097981543) 393 763 1
(0.562533015 0.1053341531 0.2187334925 0.1133993394) 383 742 1
(0.4103254516 0.2948372742 0.1919772903 0.1028599839) 382 743 1
(0.714284616 0.0103988181 0.142857692 0.1324588739) 448 865 1
(0.1448986128 0.4275506936 0.412926179 0.01462451459) 390 758 1
(0.3664476522 0.3167761739 0.1856091743 0.1311669996) 438 830 1
(0.3752384771 0.1811209328 0.3123807614 0.1312598286) 370 720 2
(0.1127619083 0.3666825998 0.0769364461 0.4436190459) 443 858 1
(0.6220771131 0.1264589537 0.06250248974 0.1889614435) 421 816 1
(0.4603058348 0.1482227507 0.2698470826 0.1216243319) 404 782 1
(0.5044461195 0.1389788571 0.2477769402 0.1087980831) 500 964 1
(0.4965534373 0.03109273499 0.2206305463 0.2517232813) 494 937 2
(0.3952400726 0.03526554507 0.2671144186 0.3023799637) 444 860 1
(0.001902730168 0.2582742841 0.4990486349 0.2407743508) 435 843 2
(0.1228770703 0.4385614648 0.3895205493 0.04904091558) 515 995 1
(0.383964374 0.308017813 0.2233969747 0.08462083832) 442 857 1
(0.1303646249 0.3593054267 0.07551226082 0.4348176875) 433 821 2
(0.3559915051 0.3220042474 0.301949658 0.0200545894) 493 935 1
(0.3191664719 0.1915553719 0.340416764 0.1488613922) 458 884 1
(0.3371029437 0.262894449 0.3314485282 0.0685540792) 511 988 2
(0.3075442863 0.02071894956 0.3255089073 0.3462278568) 474 899 2
(0.4344268044 0.2827865978 0.1150317448 0.167754853) 533 1030 1
(0.4762554659 0.2618722671 0.1629091828 0.0989630843) 459 889 1
(0.5025526156 0.2487236922 0.06582411915 0.182899573) 522 990 1
(0.1318584776 0.05066863982 0.3834021214 0.4340707612) 493 935 2
(0.790888 0.104556 0.0179791871 0.08657681288) 498 960 2
(0.1334651631 0.4332674184 0.1333471519 0.2999202665) 522 1009 1
(0.3132915116 0.3159252887 0.02742895549 0.3433542442) 520 986 2
(0.8189028794 0.09054856028 0.0857043851 0.004844175174) 541 1039 2
(0.06814772787 0.4659261361 0.4347260762 0.03120005986) 504 975 1
(0.6489238183 0.06669351864 0.1755380909 0.1088445722) 455 879 1
(0.4279957236 0.1976179725 0.2860021382 0.08838416576) 452 873 1
(0.3361836133 0.3319081934 0.2497151048 0.08219308856) 401 760 1
(0.2376170139 0.381191493 0.009821721038 0.371369772) 370 701 1
(0.1760296583 0.4119851709 0.1570617776 0.2549233932) 139 278 1
(0.763483038 0.118258481 0.03371158536 0.08454689566) 411 779 1
(0.1706546894 0.4146726553 0.1265212951 0.2881513602) 434 841 2
(0.09850412031 0.3617708977 0.4507479398 0.08897704214) 402 778 1
(0.2310875715 0.1903090283 0.3844562143 0.194147186) 404 785 2
(0.3121085248 0.3439457376 0.2734053183 0.07054041928) 455 879 2
(0.09019860981 0.4549006951 0.3134730279 0.1414276672) 450 869 2
(0.4086178241 0.2956910879 0.09187664449 0.2038144434) 424 823 1
(0.8694866207 0.06525668966 0.0248625428 0.04039414685) 461 892 2
(0.3343895094 0.3328052453 0.2637185344 0.06908671092) 472 914 1
(0.2338414209 0.2556732467 0.1274060429 0.3830792896) 430 833 1
(0.5007986409 0.04343306327 0.2061676163 0.2496006795) 390 739 2
(0.5933649469 0.2033175266 0.06533942324 0.1379781033) 451 874 1
(0.104303364 0.447848318 0.4041762634 0.04367205459) 531 1007 1
(0.8456577101 0.07717114493 0.07260711313 0.004564031793) 384 747 1
(0.250022739 0.1953775315 0.3749886305 0.179611099) 430 831 1
(0.1388771329 0.4305614336 0.01471475757 0.415846676) 413 799 2
(0.4262233471 0.2868883265 0.2043721384 0.08251618803) 374 709 1
(0.4241608478 0.2859023299 0.002017246188 0.2879195761) 449 851 2
(0.4311839938 0.01749302682 0.2669149763 0.2844080031) 424 804 2
(0.3441365186 0.3279317407 0.1150589638 0.2128727769) 453 877 2
(0.9007276856 0.04963615722 0.01928716763 0.0303489896) 371 721 2
(0.09608131326 0.09416065356 0.3577986898 0.4519593434) 453 859 2
(0.3644437229 0.3177781386 0.195857909 0.1219202296) 494 955 2
(0.4655685712 0.0867520729 0.2672157144 0.1804636415) 482 930 1
(0.1925294412 0.3755146131 0.0282206663 0.4037352794) 490 947 1
(0.3307134643 0.07604388728 0.2585993806 0.3346432679) 482 932 1
(0.132204763 0.4338976185 0.3701362165 0.06376140197) 493 935 1
(0.517841091 0.1589943154 0.08208513911 0.2410794545) 475 2225 1
(0.05762805234 0.4105407441 0.4711859738 0.06064522974) 500 964 1
(0.6197373502 0.1901313249 0.08423970079 0.1058916241) 424 823 1
(0.4453266203 0.2773366899 0.2592817939 0.01805489599) 463 878 1
(0.1860823104 0.3462172628 0.4069588448 0.06074158203) 454 877 1
(0.007739974069 0.2910461328 0.2050838802 0.496130013) 455 862 2
(0.01200446136 0.4939977693 0.1831005149 0.3108972545) 512 987 2
(0.8415100785 0.07924496073 0.01666551241 0.06257944832) 481 931 1
(0.1778763901 0.07544550921 0.3356162958 0.411061805) 483 916 2
(0.08663236414 0.08248919519 0.4566838179 0.3741946227) 504 972 1
(0.2941442131 0.3529278934 0.3128871809 0.04004071252) 535 2231 2
(0.7445949245 0.05637369503 0.1277025377 0.07132884271) 502 971 2
(0.5625058425 0.06709529695 0.2187470787 0.1516517818) 474 915 1
(0.1931442913 0.4034278543 0.08491177113 0.3185160832) 519 1000 2
(0.1490422134 0.4254788933 0.3850385866 0.04044030669) 543 1040 2
(0.226389172 0.3142753044 0.07253010959 0.386805414) 539 1022 2
(0.3724878493 0.2783806172 0.3137560754 0.03537545821) 364 706 1
(0.6625588879 0.168720556 0.03194532601 0.13677523) 382 724 1
(0.1565848393 0.1076786372 0.4217075803 0.3140289431) 391 757 1
(0.0558370068 0.3095591549 0.4720814966 0.1625223417) 374 728 2
(0.5601822662 0.2131682196 0.006740647306 0.2199088669) 393 763 1
(0.203261789 0.2960661684 0.3983691055 0.1023029371) 384 744 1
(0.1709001893 0.2276897504 0.186860155 0.4145499054) 400 758 2
(0.2760286456 0.03413651075 0.3278491664 0.3619856772) 392 743 2
(0.3269333297 0.3365333352 0.02732570259 0.3092076326) 384 747 1
(0.133469663 0.4332651685 0.05951465461 0.3737505139) 382 742 2
(0.6654644325 0.07829572348 0.08897206026 0.1672677837) 423 820 1
(0.3656237539 0.07938770307 0.23780042 0.317188123) 374 709 2
(0.06281278868 0.2400183245 0.4685936057 0.2285752812) 410 796 2
(0.2481275072 0.05146825851 0.3759362464 0.3244679879) 433 837 1
(0.03466755259 0.4826662237 0.0007362574258 0.4819299663) 382 742 2
(0.02953968829 0.084742884 0.4004872719 0.4852301559) 488 925 2
(0.4496116971 0.2751941515 0.03160600823 0.2435881432) 437 828 1
(0.08210896151 0.4589455192 0.1548832812 0.304062238) 398 770 2
(0.7904032058 0.0386583064 0.06614009072 0.1047983971) 450 871 1
(0.6816020443 0.0301695286 0.1591989779 0.1290294493) 441 852 1
(0.3447732858 0.3276133571 0.1743689451 0.153244412) 391 741 1
(0.4344701218 0.2827649391 0.240298787 0.04246615208) 416 788 1
(0.5110648038 0.1319848613 0.1124827368 0.2444675981) 389 737 2
(0.5176873268 0.2028257593 0.2411563366 0.0383305773) 413 802 2
(0.1000312782 0.4499843609 0.1701954839 0.279788877) 424 820 2
(0.4360711797 0.2819644101 0.2286626444 0.05330176578) 428 827 2
(0.7552112797 0.07601422376 0.1223943601 0.04638013637) 452 876 2
(0.1081436044 0.335584809 0.1103433888 0.4459281978) 454 879 1
(0.08740471152 0.1755970554 0.4562976442 0.2807005889) 464 896 1
(0.1720924086 0.2602585292 0.1536952665 0.4139537957) 491 931 2
(0.6122898567 0.1269966544 0.0668584173 0.1938550717) 448 849 2
(0.182257781 0.4088711095 0.1364866327 0.2723844768) 482 930 2
(0.3599761276 0.3200119362 0.01831212861 0.3016998076) 423 802 1
(0.3119675946 0.3440162027 0.2795002537 0.064515949) 412 797 2
(0.2102401299 0.394879935 0.2472227856 0.1476571494) 492 949 2
(0.138326886 0.430836557 0.3938084094 0.03702814762) 489 943 2
(0.2589650646 0.3705174677 0.1983929123 0.1721245554) 495 938 1
(0.2973385586 0.3513307207 0.03500300591 0.3163277148) 461 892 2
(0.0447690372 0.4776154814 0.3917932866 0.08582219484) 491 931 1
(0.5159686955 0.2420156522 0.233521143 0.008494509212) 502 971 1
(0.05702209991 0.47148895 0.3960886112 0.07540033886) 442 854 2
(0.3122899893 0.3438550053 0.07318835247 0.2706666529) 480 928 2
(0.3655582437 0.2771403051 0.04008057304 0.3172208781) 511 987 1
(0.6899959021 0.1550020489 0.1026260453 0.05237600366) 543 1088 1
(0.4665090994 0.09714258931 0.2667454503 0.169602861) 483 932 1
(0.2247781123 0.3876109439 0.2328213242 0.1547896197) 500 967 1
(0.6359118178 0.07485302881 0.1820440911 0.1071910623) 450 872 2
(0.1845485254 0.1671121624 0.4077257373 0.2406135749) 482 933 2
(0.4155280701 0.2668379235 0.292235965 0.02539804145) 532 1025 1
(0.2047076501 0.397646175 0.1262319684 0.2714142066) 481 931 1
(0.6464357825 0.1767821088 0.04108445004 0.1356976587) 494 937 1
(0.4968619973 0.2384968053 0.2515690013 0.01307219608) 473 916 2
(0.5826151708 0.1519181534 0.05677426119 0.2086924146) 395 2217 1
(0.02331659076 0.03389074057 0.4883417046 0.4544509641) 422 819 2
(0.4432607958 0.2783696021 0.2138978426 0.06447175952) 416 788 1
(0.7955950672 0.04188274704 0.06031971936 0.1022024664) 361 702 1
(0.1074846134 0.4462576933 0.04974754904 0.3965101443) 409 791 2
(0.1586770858 0.05693260232 0.4206614571 0.3637288548) 420 812 1
(0.07684188746 0.4615790563 0.2106572334 0.2509218229) 411 798 1
(0.4092816801 0.02526477521 0.2700943848 0.29535916) 461 874 2
(0.2619461353 0.1813008678 0.3690269323 0.1877260645) 383 745 2
(0.7163444092 0.1418277954 0.01937641981 0.1224513756) 463 878 1
(0.3192844843 0.1505738403 0.1897839175 0.3403577578) 423 820 1
(0.544276306 0.1669270869 0.227861847 0.06093476008) 409 791 1
(0.09013005741 0.3541728852 0.4549349713 0.1007620861) 455 879 1
(0.3038330191 0.3480834904 0.2752705719 0.07281291855) 424 804 1
(0.3718193339 0.3036372503 0.3140903331 0.01045308275) 389 756 2
(0.6335955907 0.1832022047 0.08696807518 0.09623412948) 415 786 1
(0.04396307485 0.4780184626 0.4161866065 0.06183185608) 394 765 2
(0.8227661801 0.08861690993 0.07165959651 0.01695731341) 405 2218 2
(0.29852249 0.2502100124 0.1005287426 0.350738755) 397 752 2
(0.07959569036 0.4602021548 0.2743536396 0.1858485152) 412 797 2
(0.8024388696 0.09878056518 0.01621400062 0.08256656455) 448 865 2
(0.293672042 0.353163979 0.007591179521 0.3455727995) 433 840 1
(0.1329231912 0.4335384044 0.09388650981 0.3396518946) 525 2230 2
(0.0002851768645 0.4998574116 0.4691111037 0.03074630782) 454 877 2
(0.03580890588 0.4820955471 0.02709936773 0.4549961793) 451 855 1
(0.4162223691 0.2918888155 0.2147613593 0.07712745616) 491 949 2
(0.8903931431 0.04647398029 0.00832944814 0.05480342843) 498 944 2
(0.09284366842 0.2439488275 0.2096293383 0.4535781658) 452 857 2
(0.0178482298 0.2790508174 0.2120250677 0.4910758851) 483 916 2
(0.005416048827 0.4972919756 0.2442230872 0.2530688884) 510 985 2
(0.4449018365 0.09499042376 0.182558658 0.2775490817) 515 2229 1
(0.4600691372 0.1478018757 0.2699654314 0.1221635557) 474 918 2
(0.3472660638 0.3263669681 0.1909177326 0.1354492355) 482 914 1
(0.1170119621 0.3254156926 0.441494019 0.1160783264) 531 1023 1
(0.02382615363 0.1596929488 0.4880869232 0.3283939744) 430 831 1
(0.3028567284 0.07232827693 0.3485716358 0.2762433589) 481 931 2