/*--------------------------------*- C++ -*----------------------------------*\
| =========                 |                                                 |
| \\      /  F ield         | OpenFOAM: The Open Source CFD Toolbox           |
|  \\    /   O peration     | Version:  2406                                  |
|   \\  /    A nd           | Website:  www.openfoam.com                      |
|    \\/     M anipulation  |                                                 |
\*---------------------------------------------------------------------------*/
FoamFile
{
    version     2.0;
    format      ascii;
    arch        "LSB;label=32;scalar=64";
    class       scalarField;
    location    "0.004/lagrangian/dsmc";
    object      Ei;
}
// * * * * * * * * * * * * * * * * * * * * * * * * * * * * * * * * * * * * * //


5113
(
2.782193168e-21
3.891500386e-21
3.324193347e-21
6.560916457e-21
2.652474338e-21
8.22768147e-21
3.257079312e-21
2.927976881e-21
3.660776986e-21
1.177100591e-21
2.397389212e-21
1.56810275e-20
8.798209413e-22
2.36792184e-21
6.155721389e-24
1.376601259e-21
4.204708501e-21
9.26492378e-21
5.499653797e-21
1.60184671e-22
7.984744213e-21
6.730275411e-22
7.06901124e-21
3.37362925e-21
2.883712047e-21
9.267227238e-21
4.232113055e-22
6.060213245e-21
9.444607998e-21
2.70914928e-21
6.48359459e-23
8.331741958e-23
5.217037903e-21
4.014651184e-21
1.469911527e-21
1.822380329e-21
8.791902388e-22
2.179101148e-21
3.282921015e-21
1.518231603e-21
1.110509697e-20
7.166050536e-21
1.423463866e-22
4.289419413e-21
7.522903016e-21
1.025820801e-20
1.140031474e-21
1.276805314e-21
5.341567029e-21
1.28319577e-20
2.958492716e-21
8.869834567e-21
6.328118797e-22
1.384350167e-21
4.594126832e-22
7.606320499e-21
1.080174048e-20
2.147922663e-22
2.93259634e-21
9.001080491e-22
8.420214287e-21
1.101347726e-20
2.055169352e-21
1.364728184e-21
3.004915111e-21
2.066216754e-21
8.518910241e-23
2.104939933e-21
5.862452397e-21
6.704554403e-21
1.249053783e-21
3.716539179e-21
6.704651266e-22
9.569790331e-22
5.558055632e-21
9.548636511e-22
6.624067609e-22
2.727888153e-21
2.260119869e-21
1.346141044e-20
2.876152856e-21
7.765961352e-21
9.841522816e-22
4.948626275e-21
5.921058412e-21
1.643949623e-22
7.408047285e-22
1.499858658e-21
1.004851215e-20
6.826886338e-22
1.723780547e-21
4.360243639e-21
8.06403493e-21
8.480215132e-21
4.840059621e-21
4.068391574e-21
6.436379087e-21
1.403699073e-20
8.273155339e-22
5.926406786e-22
3.483279754e-21
3.139942164e-21
1.524109211e-21
1.109530072e-21
1.127338893e-21
7.176106582e-22
1.825794495e-21
1.917367234e-22
5.156081286e-21
4.303705202e-21
2.237765687e-22
4.659107424e-21
9.728808128e-22
3.410776501e-21
1.036992738e-21
2.319318174e-21
3.268766858e-21
6.176591556e-21
1.667086061e-21
1.618747363e-21
7.70333496e-21
4.17869119e-22
2.579338098e-21
1.046006455e-20
1.639159424e-20
6.817690014e-21
2.518655982e-21
3.822046505e-21
3.102412372e-21
1.37246376e-21
3.297443392e-21
8.302735596e-21
4.258831209e-21
3.801464562e-21
8.429735644e-22
2.694693283e-21
2.36581884e-21
2.70732664e-21
2.187918434e-21
6.382017808e-21
1.383969492e-21
6.852529878e-21
3.22172544e-21
1.080888798e-20
3.809438299e-21
2.892949358e-21
5.830427006e-21
1.213076614e-21
1.820741367e-20
8.34067003e-21
6.428615108e-21
8.141500578e-23
5.602436528e-21
8.100784446e-21
5.394435551e-23
2.627133195e-21
2.23434468e-21
2.151119921e-21
5.930133188e-21
1.468535913e-21
6.254240405e-21
4.499922887e-22
7.16761455e-21
3.250038191e-21
7.082768727e-21
2.641969279e-21
2.033308517e-21
1.442938367e-20
8.220205975e-22
7.368624319e-22
1.241556246e-21
1.449585957e-22
9.691832114e-21
3.982145018e-21
4.471348566e-21
6.101970577e-21
3.607885209e-21
4.039211469e-21
2.445055143e-21
3.971354748e-21
2.190786352e-21
5.171981234e-21
5.681782894e-22
4.268643764e-23
7.772034773e-21
4.412959473e-21
2.63711618e-21
1.92520809e-21
1.855166828e-20
1.241283268e-21
9.790792072e-21
1.486811146e-20
6.812736313e-22
6.204797108e-21
2.159801948e-21
1.256927147e-21
2.111016997e-21
6.724383229e-22
1.905064835e-21
9.093800703e-22
1.793828766e-20
9.797445892e-22
3.988860564e-21
9.325913632e-22
4.656959824e-21
3.790441885e-21
2.12982698e-21
1.40653762e-21
4.685304133e-22
3.161882402e-22
8.028891836e-22
1.790233101e-20
2.548215982e-21
5.118938674e-21
6.467526604e-21
1.00928435e-20
2.078188864e-21
1.078967189e-20
4.869911705e-21
9.212054019e-22
7.131661126e-22
8.021741572e-23
1.427736846e-20
5.666009955e-21
4.405593923e-22
2.251679382e-21
6.410488396e-21
9.315410694e-21
4.086157618e-23
4.346726898e-23
4.989596062e-22
1.02553322e-20
2.110219866e-22
1.106688091e-21
3.835118065e-21
9.180471468e-22
1.317660489e-21
8.559267432e-22
4.226086284e-21
7.348266063e-21
3.599144818e-21
4.963394162e-21
7.39548544e-21
1.104853038e-21
7.645131244e-21
2.864009575e-21
2.994851156e-22
8.464296849e-21
2.980201262e-21
1.41671609e-21
1.780196315e-21
4.232414225e-21
9.956427604e-21
9.27838221e-22
2.313687346e-21
7.189501165e-22
1.858985934e-21
3.301506177e-22
1.149533138e-20
1.945633317e-21
1.868804071e-20
5.66977747e-21
1.437568216e-21
2.040239637e-21
3.687282456e-21
1.974237784e-21
6.933404249e-22
5.670221705e-22
8.922234464e-22
1.037113476e-21
3.285279431e-21
5.806574052e-21
2.01788669e-21
9.835309458e-21
1.464664796e-21
5.763808101e-21
2.219465606e-21
6.1587534e-21
7.037617603e-21
4.566829019e-21
5.062830349e-21
8.215354191e-21
8.834048276e-22
1.705667277e-22
5.103796825e-22
2.509897216e-21
1.378173678e-21
2.277261789e-21
3.311078825e-22
1.02773693e-21
4.265723263e-21
4.168164455e-21
3.88454976e-21
5.56290136e-21
1.128439498e-20
4.512067984e-21
2.120194975e-21
6.329285179e-21
1.778109396e-21
9.315104899e-22
7.926221598e-23
8.972560672e-21
2.144435606e-21
9.873022303e-22
4.944147734e-21
4.36996413e-21
8.871151518e-21
1.761307581e-21
4.661470669e-21
7.020791357e-21
2.152504942e-21
2.89625048e-21
6.356189453e-21
8.806053308e-22
3.778640486e-21
2.861807361e-20
5.642587816e-21
5.283047356e-21
1.845464505e-21
2.581140733e-21
5.020259179e-21
4.921360787e-21
7.564446003e-22
9.291268479e-21
6.540059194e-21
5.01016481e-21
1.791702703e-21
4.287026893e-23
8.795239597e-22
4.755213346e-21
4.90550928e-22
2.316065001e-20
1.126112717e-20
5.766698916e-21
1.025832575e-21
4.784913153e-22
3.631478574e-21
1.923486106e-21
1.895773476e-21
1.074767748e-20
6.496750649e-21
1.597907216e-22
8.22104756e-22
5.474850013e-21
1.122350518e-20
2.176747913e-21
5.487988529e-22
1.232623792e-21
5.823576461e-21
4.465916404e-22
4.949286009e-22
4.603083279e-22
6.079082532e-21
1.239241645e-20
7.379075136e-21
4.866580084e-22
7.853482089e-22
8.562917339e-22
7.438815387e-21
6.682231579e-21
5.221363176e-21
2.701044316e-21
4.23450595e-21
5.27482816e-22
5.365194891e-21
2.7019256e-21
3.389963054e-21
1.002682909e-20
3.564531396e-20
1.016051911e-21
1.207190546e-20
3.861984371e-21
1.357554347e-21
2.04366043e-22
7.628787518e-21
5.112602479e-21
5.31905363e-21
5.192755226e-21
6.638094715e-23
6.637954785e-22
7.491843725e-22
1.443000183e-20
5.591731755e-21
1.807057303e-21
2.011473283e-21
4.100530963e-21
5.666529668e-22
1.644144529e-21
5.680041305e-21
2.440907533e-21
2.957673635e-21
5.179975149e-21
7.960080348e-21
2.311866857e-21
1.036574434e-21
1.533321431e-22
7.507835412e-21
7.033217527e-22
1.635518953e-21
1.00612802e-21
5.272117533e-21
6.334979303e-23
2.640790529e-21
1.462204265e-21
1.643712154e-20
6.25400772e-21
6.043683484e-21
2.838052235e-21
3.578159612e-21
5.133566458e-21
8.989327117e-21
3.72907568e-21
2.728786289e-21
1.661938295e-21
5.051612721e-21
2.481672745e-21
4.852431236e-21
4.62026758e-21
1.012723208e-20
5.857217659e-22
3.929782382e-21
7.897704328e-22
1.01277608e-21
2.203185965e-21
1.338477264e-20
3.533251982e-21
1.324476325e-21
1.845994709e-20
8.756535643e-21
4.673422302e-21
2.727263231e-21
1.510733212e-21
1.153983859e-20
8.127200209e-22
4.463756137e-21
2.679603016e-22
1.807422289e-21
2.01040967e-21
3.273343026e-21
2.463128988e-23
1.466167986e-22
2.880220263e-21
2.181918049e-21
4.606132071e-21
5.265863746e-21
4.671300887e-21
4.058730701e-21
7.151715878e-22
7.150884071e-21
5.521197809e-21
2.056165991e-21
8.01081001e-21
1.393857572e-21
7.044816101e-21
8.75701238e-22
4.228021628e-22
4.915150791e-21
7.608684952e-21
1.984982391e-21
5.963242731e-21
7.961871626e-22
8.388156298e-21
8.123618834e-22
3.676666367e-21
5.512816589e-21
7.134655734e-22
5.355208108e-21
7.804424083e-21
3.706773782e-21
2.032678414e-22
2.196196179e-21
5.629103561e-21
2.448376884e-22
1.282290329e-22
8.256182334e-22
1.500918636e-21
8.457268308e-21
3.407655199e-21
6.029343915e-23
8.793513424e-21
1.090421463e-21
4.088220533e-22
1.393580331e-21
6.413090116e-21
2.621126597e-21
1.39538084e-21
1.638943679e-21
1.854930729e-21
5.875895109e-21
3.797485267e-22
2.50530513e-21
2.044337137e-21
1.860850329e-21
1.312851647e-21
1.780650008e-21
3.043888267e-21
1.209105144e-21
2.201443657e-21
7.428171995e-21
7.671540605e-21
2.473239468e-22
2.677769498e-21
2.307770805e-21
1.486677049e-20
2.715202772e-21
1.57615632e-21
1.187468662e-21
2.855225477e-21
6.988569672e-22
9.408918823e-21
5.967177333e-21
1.85131599e-21
2.985306152e-22
2.58229845e-21
3.963639246e-21
1.47850286e-21
4.092281959e-22
6.547169688e-21
2.241776458e-21
2.475446937e-21
5.057541153e-21
2.51914446e-21
6.816874195e-21
3.623161948e-21
2.568354923e-21
1.158080219e-20
7.082838836e-21
6.371146097e-22
1.561600045e-21
7.238090591e-22
3.609257604e-21
1.867478809e-21
5.831384494e-21
6.406144135e-21
3.09368895e-21
5.466761262e-21
2.690157676e-21
2.166888022e-21
5.203456815e-21
6.652942741e-21
4.998147905e-21
6.800449072e-21
1.182937815e-20
4.129051009e-21
1.009565055e-21
1.351293688e-20
3.725489826e-21
1.452848975e-20
3.226190489e-21
2.395758996e-21
7.492823329e-22
2.04533342e-21
1.135692388e-21
2.404861844e-22
8.963803246e-21
7.668280816e-21
5.515168992e-21
3.806766943e-21
2.687617736e-21
3.917747952e-21
8.133544839e-21
9.522247144e-22
9.708054164e-21
4.826797781e-21
8.320059124e-21
1.491788025e-21
2.080825916e-21
3.111882725e-21
2.267655082e-21
3.672622626e-22
8.058942235e-22
1.136954208e-21
1.121182173e-21
7.458409135e-21
4.40959003e-21
4.067125785e-21
3.527721669e-21
3.988303073e-21
2.645443728e-21
3.943098888e-21
1.511221723e-20
1.205976107e-21
2.213719319e-22
8.372186142e-21
3.094064655e-21
4.628081413e-21
5.288318837e-21
7.963925391e-21
3.537246503e-21
4.577433887e-21
3.240002476e-21
2.501448807e-22
9.252032851e-22
2.299491001e-21
1.327604902e-21
7.649962307e-22
2.310299489e-21
1.319490098e-21
2.362906687e-21
6.705160072e-21
5.835679999e-22
2.284859538e-21
9.777263299e-21
6.867897388e-21
8.09169726e-22
4.313026214e-22
5.01570136e-22
4.557344811e-21
5.753762485e-23
5.677618144e-22
7.59758842e-24
8.252444525e-22
6.210553566e-21
2.681026876e-21
1.031402564e-20
8.754533401e-24
1.301361319e-21
3.391950335e-21
1.046553781e-21
1.13804437e-21
3.102919116e-21
1.360595869e-20
2.218691676e-22
3.491184733e-20
1.950469593e-21
5.576548489e-21
8.9554125e-23
1.677216243e-21
8.011942601e-22
1.072359907e-21
3.132663579e-21
2.232923541e-22
4.577136686e-21
7.5585014e-21
2.07728907e-22
2.190725142e-22
1.663539241e-21
4.502547783e-21
1.935276381e-20
2.551633708e-21
3.558344255e-22
1.652813295e-21
4.867828766e-22
3.213171102e-22
7.829970886e-22
8.458068337e-23
1.619590231e-21
2.709032297e-22
1.927826146e-21
6.815246979e-22
2.306977045e-21
1.948331505e-20
4.185617084e-21
2.027023537e-21
3.486767653e-21
4.007187789e-21
2.823218483e-21
1.320783994e-21
1.155540095e-21
2.604604758e-21
5.580568618e-21
7.703008784e-22
1.331165156e-20
4.32682672e-21
1.122212249e-20
8.44670708e-22
2.817185075e-22
1.494167263e-20
3.048279412e-21
9.374854511e-22
1.223617518e-20
9.52664281e-21
1.167662608e-21
2.973191848e-21
6.274412327e-21
1.900437826e-21
6.29880258e-21
9.730349012e-22
1.579853546e-21
1.815071085e-22
1.030350413e-21
1.69010159e-21
5.337027061e-21
3.791614993e-21
7.146283058e-21
9.842281259e-21
4.505366555e-21
1.4074006e-21
9.361714643e-22
3.630665903e-21
2.11958589e-22
2.20758516e-21
2.969884762e-21
2.138258542e-21
2.378613952e-21
7.4091113e-21
1.235611467e-20
2.713515741e-21
6.061311373e-21
2.853869471e-21
1.545784641e-20
3.422772055e-21
1.5326015e-21
1.029359e-21
6.026624376e-21
1.58443181e-21
4.506981816e-21
2.359993038e-21
1.324594734e-21
2.546238691e-21
2.287833839e-21
2.093271513e-22
2.238519922e-23
1.075005584e-20
3.32226376e-21
2.170539774e-21
2.20388e-21
9.901171186e-21
1.11289302e-21
1.328834069e-20
1.143487207e-21
6.096045624e-22
5.946657021e-21
4.524847269e-21
2.034550833e-21
2.744656139e-21
5.553155632e-21
7.212041992e-21
1.154818504e-20
1.155509104e-22
7.231702086e-21
5.826984545e-21
2.539477122e-21
1.543624909e-21
1.205825616e-21
4.514293975e-22
4.290837306e-21
1.179035475e-22
2.700638723e-21
3.049800079e-21
5.344108594e-21
4.952084507e-21
2.047574979e-21
9.912987651e-23
8.203131814e-22
4.357774891e-22
2.54367829e-21
2.033441387e-21
9.3448484e-21
7.093916474e-21
1.100940243e-20
8.427765759e-22
3.080333845e-21
1.790139657e-22
4.465977117e-21
1.121606699e-20
6.920996592e-22
1.973411102e-22
7.835328302e-21
6.975995333e-22
5.863956227e-22
4.784179208e-21
2.907363978e-21
3.571222747e-21
8.144237873e-21
7.08916418e-22
3.616230846e-22
6.680253413e-21
1.767181825e-22
5.069421517e-21
1.493085246e-21
8.105574193e-22
3.800020554e-21
1.298286632e-20
3.547195572e-21
1.030900207e-20
3.404723495e-21
2.592037266e-21
3.999192204e-21
1.990542275e-21
1.059508437e-20
2.442750862e-21
1.570122371e-21
8.150562011e-21
9.492233318e-21
2.824543925e-21
5.042108242e-21
5.177520809e-22
2.482368753e-21
1.413326955e-21
5.718866056e-21
2.475828216e-21
1.909546949e-21
9.749719772e-21
1.292910954e-21
3.245833753e-21
3.090479075e-22
2.711609009e-22
5.487858651e-21
7.378543852e-21
2.279994716e-21
4.677109279e-22
9.134872185e-22
5.10791546e-22
3.672667018e-21
4.824431911e-21
1.618588233e-20
1.076388867e-20
4.179878549e-22
1.048796644e-21
1.135320168e-21
4.510405394e-21
3.868536109e-21
2.33434086e-21
1.055795937e-20
1.574689078e-21
1.683942875e-21
2.377278165e-20
6.196534478e-22
1.183898873e-21
9.019307918e-23
4.848996729e-21
1.113205219e-21
1.275233929e-21
6.196690991e-21
2.645372916e-21
6.323983108e-22
1.360349986e-21
1.771689255e-21
3.589898084e-21
1.01454245e-20
2.544481301e-22
1.863141589e-21
1.999825592e-20
9.116992997e-21
3.341546021e-21
1.710844678e-21
5.374658827e-22
1.176251606e-21
7.505740774e-21
1.106175931e-20
7.704010583e-22
4.85637612e-21
5.570397132e-22
1.070616238e-20
5.376178916e-21
8.398525125e-21
3.77959415e-21
4.160269873e-21
7.64681919e-23
4.648635602e-21
4.189753868e-21
8.112862267e-21
8.166318625e-21
2.088453323e-20
1.985815305e-21
4.01927612e-21
2.442068809e-21
7.838524349e-21
1.504384498e-20
8.857482401e-22
2.41557994e-21
6.211466107e-22
2.402966187e-21
6.898615166e-21
3.394063653e-21
3.007032617e-22
4.008517845e-21
2.447878615e-22
1.959466436e-21
7.034549603e-22
7.598507387e-22
4.957298349e-22
1.249293982e-21
1.100708935e-21
7.111478611e-21
7.25421907e-22
5.88324943e-21
1.34359705e-20
4.054138606e-22
4.224463229e-21
4.242534558e-22
6.80697669e-21
1.390891246e-21
1.057834189e-21
1.241527369e-22
2.589489807e-22
1.111271878e-20
2.392374684e-21
2.920539676e-21
1.034186863e-20
1.890457703e-21
1.874874411e-23
2.035373943e-21
5.376951696e-21
3.787980001e-21
1.254776109e-20
1.751373454e-21
7.610644596e-22
9.323416773e-22
3.242782546e-21
3.222643535e-21
9.332101989e-22
4.378007018e-21
1.912694312e-21
3.439551848e-21
2.095351383e-21
1.96640223e-21
5.262444894e-21
5.649841408e-21
5.741495785e-21
1.746530682e-21
1.027300808e-20
1.324800229e-21
6.282981406e-21
4.541360288e-21
3.36620288e-21
8.254136916e-21
1.294856422e-21
1.673470474e-21
7.266367937e-21
5.124042053e-21
7.137081322e-23
2.027012175e-21
7.832483445e-21
3.050018042e-21
1.892192361e-20
3.765431975e-22
2.882100944e-21
9.986386727e-21
7.269796758e-21
8.180227751e-22
4.888506187e-21
2.336460501e-21
3.276908967e-21
1.034113379e-20
7.855446278e-22
4.530320693e-21
1.412948093e-21
4.405403338e-21
1.896333315e-21
7.034912361e-21
2.679843345e-21
8.297184692e-21
1.113916964e-21
2.404170598e-21
4.744550978e-21
1.094268412e-21
2.465386252e-21
3.22463009e-21
4.49171136e-21
9.167047595e-21
3.297359713e-22
4.925738964e-22
6.642752068e-21
1.600564126e-21
8.651053794e-21
4.25413167e-21
1.291510968e-20
4.913811237e-23
6.212488772e-21
1.531542134e-21
8.740256375e-22
2.026694011e-21
2.500485806e-21
6.530221162e-21
8.277011654e-22
7.946233521e-21
9.876687938e-22
2.095503357e-21
2.332482778e-20
2.403536953e-21
9.625448799e-21
1.576964195e-22
1.139680475e-21
2.795510443e-21
1.024556535e-20
2.76981e-21
5.893982416e-21
1.992441054e-21
4.844802088e-21
1.272005019e-21
6.156340847e-21
7.385819667e-22
7.847479863e-21
1.77882529e-21
1.965446049e-21
2.262644685e-21
3.373600187e-21
6.594806561e-21
6.419057389e-22
5.893653133e-21
1.079845009e-21
1.193569503e-20
2.608914716e-21
1.922821464e-21
1.333160582e-20
5.974314306e-21
4.058513797e-21
1.990938415e-20
1.375002225e-21
2.728707442e-21
4.501241566e-21
6.9273753e-21
2.292570784e-21
5.872412147e-22
7.902216472e-22
1.5613885e-21
8.146490029e-21
5.651278491e-21
7.685356188e-21
5.073985272e-21
2.623277833e-21
5.860828927e-21
2.296019338e-21
3.301511616e-21
9.435361269e-21
3.624402966e-21
1.154332364e-21
2.463160459e-21
4.409069275e-21
1.506949682e-21
9.874343436e-21
5.292104739e-22
1.3204019e-21
9.599046821e-21
1.193100809e-20
1.097073135e-21
6.184072871e-21
3.222092919e-22
3.541097532e-21
3.987254485e-21
3.145454123e-21
1.652019008e-20
1.954462088e-22
8.394176575e-22
1.123409991e-21
1.083708863e-20
8.541901002e-21
7.172084312e-21
1.500826625e-20
5.477640252e-21
1.736761922e-22
6.65506187e-22
5.792752149e-21
1.854321091e-22
4.135788011e-21
1.634254572e-21
4.780680704e-22
4.735620322e-22
6.320948145e-22
2.686435335e-21
5.339628851e-21
5.207100743e-21
1.146312855e-20
3.419776274e-21
8.556054652e-21
5.425105497e-21
1.604810442e-21
4.503881277e-22
4.205937038e-21
2.290866389e-21
6.978633142e-21
2.99597456e-22
5.54211414e-21
5.030041295e-21
1.87949272e-20
4.845502394e-21
6.463385566e-21
3.952820106e-21
5.772319532e-21
8.805628965e-21
2.013263242e-21
1.288221831e-21
1.039503476e-20
7.037142585e-22
1.514589339e-22
2.636239097e-22
6.558327097e-21
5.060206534e-21
4.08228594e-21
8.711704024e-21
3.93125629e-22
1.677608301e-21
5.583828332e-21
8.398155271e-22
1.067284509e-21
5.030784175e-21
8.829129707e-22
2.101661108e-23
2.373426231e-21
1.90393431e-21
1.695690017e-21
3.92692023e-21
5.925110321e-22
1.75576627e-21
4.075255245e-21
1.95683849e-21
1.175689879e-21
1.566967644e-20
2.032237472e-21
3.467888907e-21
1.068782932e-21
4.134071426e-22
9.160149404e-22
1.055156516e-21
1.330602161e-21
4.483655828e-21
8.65667738e-24
3.927197018e-21
4.548783504e-22
3.645786735e-21
7.922473888e-21
5.547478228e-21
2.245775937e-21
4.610450556e-21
2.14053993e-21
7.359337104e-21
6.588512258e-21
5.865547714e-21
1.468535211e-22
7.344433212e-21
4.324573252e-21
3.83822679e-21
3.644718446e-21
1.125178784e-20
2.568796385e-21
5.797691613e-21
1.405395771e-21
1.080577981e-20
4.285169095e-21
4.654366615e-22
2.493603265e-21
8.776208978e-21
3.404566446e-21
7.291908955e-21
9.808995112e-21
1.287652193e-21
1.724068284e-22
1.831006539e-21
9.448983535e-22
5.957900122e-21
4.889314864e-21
4.676631462e-21
4.653025223e-22
2.134692997e-21
2.516454596e-21
4.51284243e-21
5.881916435e-21
5.835971107e-21
6.772850994e-21
1.695926111e-21
1.85443902e-21
5.841196757e-21
1.948366955e-21
1.265465032e-20
3.180632801e-22
1.56361041e-20
2.182158922e-21
1.144334798e-21
4.641130002e-21
4.975559268e-21
1.13732941e-20
4.428295466e-22
9.576663319e-22
1.648813688e-21
6.527822742e-21
1.580298506e-21
2.346253946e-21
1.660646424e-21
2.980330962e-21
4.259765837e-21
4.537312144e-21
3.902053313e-21
3.150846733e-21
2.805262864e-21
5.899883049e-21
4.654653224e-21
6.458607448e-22
2.421262298e-21
6.539356131e-22
5.840932346e-21
1.342877935e-21
2.379824921e-21
5.215041746e-22
6.858304938e-21
6.777561824e-21
2.498483041e-22
1.507951108e-21
1.076337885e-20
2.661044999e-21
5.654752193e-21
1.283103617e-20
8.129970669e-21
1.563032243e-21
1.267849684e-21
7.571912463e-21
1.581878769e-21
3.004858697e-21
1.016939423e-21
6.241555903e-21
6.92513779e-21
6.436980031e-21
2.404726012e-21
6.987104748e-22
1.023281551e-20
6.634897328e-21
1.438009649e-21
8.149159649e-21
4.034929637e-21
3.992769502e-21
9.363673023e-22
1.812068158e-21
6.428084231e-21
9.450338562e-22
3.699217667e-21
1.375273408e-23
5.204810479e-21
3.973866201e-21
4.746997077e-21
2.016784624e-22
4.703921676e-21
3.763124133e-21
6.222038339e-21
4.639461523e-21
2.988009233e-22
2.940389357e-21
5.527699516e-21
5.847329159e-22
4.400505149e-22
2.276222678e-22
1.599624261e-21
1.238797169e-21
5.871115687e-22
2.068484261e-21
5.510569134e-21
2.210405921e-21
1.86064922e-21
3.803470188e-21
4.224054975e-21
5.123715103e-22
7.48167784e-21
2.024466499e-22
8.451900678e-21
6.079376814e-21
1.577592148e-20
4.259612661e-22
4.281103389e-21
1.180325295e-21
3.848714862e-21
4.259738922e-21
1.947176023e-21
8.556976353e-21
9.245895937e-22
4.935184558e-21
9.731188273e-22
5.240678269e-23
1.824889349e-21
9.959315429e-22
4.31062475e-21
2.142323925e-21
4.219336524e-21
9.714960677e-21
5.916962331e-21
2.617943998e-22
9.507878703e-21
1.282640749e-21
2.165658154e-21
5.198195308e-21
2.77978267e-21
3.987256852e-21
1.091371598e-21
1.262540104e-20
1.194917532e-20
1.595726814e-21
7.695271875e-22
1.59564638e-21
1.972272344e-21
2.955735614e-21
1.118312716e-21
8.606581206e-22
8.89752164e-21
2.21279791e-21
2.53186766e-21
6.965978515e-23
8.673611763e-23
3.513897419e-22
1.173402914e-21
2.965119392e-21
1.140980529e-21
2.754504708e-21
5.420692461e-21
6.056962095e-22
7.404925103e-22
1.518138049e-21
4.307918381e-21
4.131479314e-21
4.761478465e-21
7.103721468e-22
6.973851461e-21
4.918128069e-21
5.105842217e-21
4.187497984e-21
2.321086435e-21
9.88902185e-22
1.60928824e-22
1.999934547e-21
1.573218316e-21
3.618861414e-21
5.821896239e-21
1.669615789e-21
3.548997389e-22
7.437681676e-21
9.46679677e-22
1.472379424e-21
6.644561972e-21
4.841486022e-21
6.144109199e-21
4.992495233e-21
5.438435859e-21
7.463226716e-21
2.532771517e-21
1.132061555e-20
9.472704205e-21
7.484815394e-21
3.962080656e-22
4.952007354e-21
5.00905383e-21
9.522521702e-21
6.472395157e-21
4.914192095e-21
5.097288606e-21
1.434416155e-21
1.38747924e-21
8.318672883e-22
6.678686205e-21
2.677378811e-21
1.245923943e-21
8.327556683e-22
2.392381428e-21
6.413024652e-21
6.442530727e-21
4.535998903e-21
1.453857473e-21
1.54665382e-21
1.95448485e-21
4.765851941e-21
1.704673452e-20
1.747128977e-21
2.691008718e-21
4.536627677e-21
3.761134453e-21
8.967896422e-21
9.710761784e-21
3.194730758e-22
2.927898233e-21
7.752056859e-22
3.339962766e-21
9.359380881e-22
9.580746185e-21
4.763358466e-21
3.063421985e-21
1.04078874e-20
2.617308447e-21
1.88023355e-21
5.871082788e-21
8.943681185e-22
1.396893261e-21
6.846064651e-23
3.999793633e-21
2.546099968e-21
3.911845579e-21
1.994595159e-20
3.05326958e-21
7.4525861e-21
8.055646183e-22
4.706562245e-21
1.667921456e-21
2.064490461e-21
5.861954738e-22
8.908104822e-21
3.287313618e-21
6.221737637e-21
6.37639419e-22
7.495821882e-21
2.445599784e-21
9.051773499e-21
6.602248635e-21
2.078275692e-22
9.194751775e-21
1.578741261e-21
6.043572444e-21
3.23300708e-21
3.311988372e-21
5.979298841e-22
1.727932604e-21
8.479688718e-21
5.089551367e-21
4.091469033e-21
3.711164695e-21
3.560270889e-21
8.266569914e-23
5.309646442e-21
2.818173855e-21
4.949405655e-21
2.76174852e-21
1.383476561e-21
3.638064475e-25
1.415364153e-22
2.142767783e-21
2.104915807e-21
1.106169858e-20
5.842892147e-21
7.900874518e-21
2.19653826e-21
2.411554765e-21
5.232895807e-21
6.051757822e-22
1.166866155e-20
9.364144011e-22
4.123481396e-22
1.957216076e-22
6.561508635e-21
4.14822887e-21
4.156763228e-21
3.490853942e-21
4.911780842e-21
3.873051671e-21
1.029065648e-23
6.501739566e-21
4.187194484e-23
9.067500364e-21
1.917705448e-21
4.328082853e-21
1.983868964e-21
2.130828877e-21
2.32077704e-21
1.132824038e-21
1.502217149e-20
4.245293328e-21
1.588580823e-20
2.335688511e-21
1.803686751e-21
2.890276507e-21
8.823590397e-21
1.318459093e-20
7.961698546e-21
1.288160717e-20
2.623149311e-21
2.662568472e-21
8.061299162e-21
1.547909872e-21
6.659881914e-21
4.398214632e-21
2.083240987e-21
4.968984097e-21
3.01065574e-21
6.68348659e-22
1.814120758e-21
2.648734552e-22
3.138228396e-21
4.298734904e-21
6.114182532e-21
1.212118264e-20
8.123183524e-22
9.797683981e-21
2.530590892e-21
6.206546882e-21
4.882237997e-21
1.852440862e-21
2.996435092e-21
9.025279324e-21
4.898869564e-21
7.3569918e-21
2.027628424e-21
6.642895665e-22
4.699761562e-21
4.540978992e-21
5.08644495e-21
1.361648779e-20
5.582959687e-21
6.188177196e-21
3.093233833e-21
5.29240203e-21
1.155395405e-21
2.335179653e-22
3.092334566e-21
2.668943923e-21
7.356460749e-21
2.009855385e-21
1.620742904e-21
2.041407702e-21
1.519430453e-21
5.787265786e-21
3.318919946e-21
7.706331293e-23
1.936544537e-20
3.536357429e-21
1.262981864e-21
8.110902132e-21
7.611206906e-21
7.009011846e-22
1.133213092e-21
1.440505311e-21
2.568006105e-21
5.737790757e-22
6.480506862e-21
6.637548496e-22
8.110406491e-21
4.282530572e-21
8.480080076e-22
5.872053625e-23
1.230515204e-21
5.87877228e-21
4.651087867e-22
2.044923983e-21
1.611025801e-21
1.324907969e-20
1.586034354e-21
1.47853407e-20
3.976406798e-21
4.256248961e-21
1.26219112e-22
2.034402617e-20
8.38240982e-21
1.89262902e-21
1.560951001e-21
6.143029488e-21
2.185769386e-21
3.465852793e-21
5.308721904e-21
7.812450899e-22
8.139155281e-22
2.095203524e-21
7.097623823e-21
1.167302014e-22
2.173443541e-21
4.727577887e-22
3.489855952e-21
1.197557689e-21
1.176530447e-21
7.421910842e-22
1.538899828e-21
1.118323881e-20
2.150419588e-21
6.938328698e-21
2.246350893e-21
7.499944389e-21
1.471874009e-21
7.766609262e-23
4.484246794e-21
2.57997646e-21
2.486264893e-21
8.520974196e-21
2.414638242e-21
5.917626281e-21
1.914441448e-21
2.491394255e-21
1.001310078e-21
2.80754739e-21
9.524287708e-21
7.306631551e-21
7.977956434e-21
1.274805287e-21
1.072384456e-21
8.786876078e-22
1.578731626e-21
1.231645327e-21
3.698019758e-21
1.005451687e-20
8.323678233e-21
8.844629344e-21
2.175331314e-21
2.630031679e-21
7.875062897e-21
8.501900675e-21
4.071853748e-22
4.637522781e-22
3.935837755e-21
1.57427617e-22
4.608185462e-21
1.883626751e-22
3.187066383e-21
5.276001435e-21
2.767453141e-21
1.210306491e-21
4.099529627e-21
1.035387185e-21
1.316734085e-21
2.372568564e-21
1.241351301e-20
2.694696743e-21
2.835519419e-22
5.004641604e-23
9.951547323e-21
1.496375146e-21
1.272985419e-21
4.834846863e-21
5.064140765e-21
2.744630934e-22
4.062507889e-21
5.721489035e-21
3.696055698e-21
5.8220575e-21
2.841932131e-21
4.788173411e-21
6.820831755e-22
1.33262389e-21
1.355926042e-20
2.488925012e-21
9.668147167e-21
1.552391845e-21
6.137178492e-21
9.898255763e-22
1.85621286e-21
5.361634986e-21
3.986150513e-22
7.236510093e-22
4.824586417e-22
1.975374241e-22
6.391053472e-21
3.159345882e-22
3.932550301e-21
1.794707511e-21
7.916828636e-21
5.173928026e-21
1.04257116e-21
1.199861338e-20
1.114193809e-20
5.822268625e-21
4.443917762e-22
4.964967325e-21
9.988032845e-22
8.467826123e-21
4.169275964e-21
7.160748352e-21
7.817710201e-21
5.444313161e-21
2.254735346e-21
1.034368239e-20
1.022659343e-21
3.880150103e-21
1.694252515e-21
1.160846877e-20
3.747259898e-21
1.420822982e-21
1.622562112e-21
1.242068303e-21
3.319501247e-22
7.938166418e-22
3.350123524e-21
7.601708054e-22
3.138164504e-21
5.636645308e-21
2.669774833e-23
1.127191857e-21
4.166609608e-22
4.185289308e-21
3.710016733e-21
3.253326476e-21
7.182342141e-22
7.68303537e-21
3.952265984e-21
1.493505373e-21
1.482707918e-21
6.310105413e-22
3.333735186e-21
1.109495271e-20
4.146752421e-22
4.107766687e-21
1.821849088e-21
3.069358583e-21
8.343731111e-21
9.05357443e-21
1.444509395e-22
2.677724671e-21
6.182671234e-21
1.822870929e-21
3.754491723e-21
6.854981694e-21
3.923694885e-21
7.073254675e-21
1.845770797e-21
6.715279018e-21
3.786008266e-21
2.775978734e-21
8.054003384e-22
1.033832127e-22
2.323877566e-21
3.814829531e-21
2.711922815e-22
2.870075636e-21
2.499179126e-22
1.76641325e-21
1.694534268e-21
1.494458327e-21
3.281819027e-22
3.768575872e-22
3.24004611e-22
5.190997053e-21
8.9980095e-21
5.761106777e-21
3.999464488e-21
1.120331403e-21
1.214022569e-21
3.035081415e-21
4.940980668e-21
7.545106584e-21
3.537769032e-21
2.264629562e-21
7.888249745e-21
9.545289081e-22
1.092806303e-21
7.668162233e-21
5.455785599e-21
8.233010791e-23
6.575491041e-21
5.974207395e-21
2.98751605e-21
1.151678658e-21
3.415039973e-21
5.181487911e-21
1.597237331e-21
6.64445343e-21
7.409321063e-21
1.350902247e-21
2.162570119e-21
2.078829585e-20
6.77343968e-21
3.086456421e-21
7.032002674e-21
1.460284027e-20
7.114496278e-21
8.905632351e-22
6.10845807e-21
1.020336823e-21
4.697157473e-22
6.999814968e-21
1.508807389e-21
1.882670652e-21
8.278889533e-22
1.310624074e-21
3.241962186e-21
7.959580447e-22
7.9857067e-22
4.857620013e-21
5.370273572e-21
5.718643547e-21
9.228806499e-21
2.228200126e-21
5.223998085e-21
2.645343867e-22
5.605445936e-22
1.174885843e-20
7.244048612e-21
1.311875057e-21
1.157422476e-20
1.571231564e-21
1.959310821e-21
1.122751678e-21
1.900023018e-21
4.905928754e-22
8.877518388e-21
3.391536114e-21
6.484327143e-21
5.317760701e-21
1.647418216e-22
7.093091563e-22
3.040193863e-22
7.758142624e-21
2.838907845e-21
3.080607579e-21
4.055545131e-21
2.96536676e-21
1.230021851e-21
4.442942215e-21
4.18305931e-21
2.03950589e-22
2.012608088e-21
1.325666652e-21
1.003239301e-21
1.699419402e-21
1.219797151e-22
5.901337015e-21
1.137738676e-20
1.685697582e-21
2.14683947e-21
1.395151984e-20
6.529992156e-21
9.467153837e-22
2.809059318e-22
3.049441891e-21
1.192145761e-21
3.375423989e-21
5.517827001e-21
1.970330934e-21
1.862649817e-23
4.572424083e-21
9.019183287e-21
5.101435559e-21
6.506929287e-21
4.996806864e-22
4.616691543e-21
1.573521386e-21
1.064410342e-21
3.909149753e-21
4.522264468e-21
1.881786062e-21
5.169004131e-21
2.874055438e-21
3.405854789e-21
2.247975849e-21
1.86156795e-21
1.478324214e-21
2.499330215e-21
1.105977056e-21
4.008661505e-21
4.314763315e-21
1.950192021e-21
7.49127902e-22
1.356300174e-22
1.011259996e-21
4.985991685e-22
4.185161823e-22
3.057716863e-21
1.528210929e-21
3.284164364e-21
6.083137852e-21
2.729764974e-21
2.021167418e-21
3.773336631e-21
9.368608822e-21
1.678048845e-21
1.946451975e-20
7.033475587e-21