/*--------------------------------*- C++ -*----------------------------------*\
| =========                 |                                                 |
| \\      /  F ield         | OpenFOAM: The Open Source CFD Toolbox           |
|  \\    /   O peration     | Version:  2406                                  |
|   \\  /    A nd           | Website:  www.openfoam.com                      |
|    \\/     M anipulation  |                                                 |
\*---------------------------------------------------------------------------*/
FoamFile
{
    version     2.0;
    format      ascii;
    arch        "LSB;label=32;scalar=64";
    class       labelField;
    location    "0.004/lagrangian/dsmc";
    object      origId;
}
// * * * * * * * * * * * * * * * * * * * * * * * * * * * * * * * * * * * * * //


5113
(
171789
172403
172966
173287
173309
173383
173480
173639
173700
173724
173726
173761
173765
173807
173815
173821
173825
173886
173889
173896
173908
173919
173926
173943
173971
173980
174001
174015
174020
174023
174108
174109
174140
174161
174176
174185
174188
174199
174254
174257
174263
174267
174272
174278
174279
174294
174296
174327
174334
174337
174341
174355
174358
174362
174374
174377
174380
174416
174425
174428
174429
174434
174436
174439
174440
174441
174444
174445
174449
174457
174465
174491
174499
174504
174506
174513
174517
174523
174527
174534
174536
174538
174541
174547
174550
174559
174573
174581
174586
174589
174602
174610
174614
174616
174617
174618
174620
174623
174624
174627
174640
174669
174678
174682
174683
174689
174693
174696
174698
174705
174706
174707
174712
174715
174723
174724
174726
174731
174746
174758
174761
174762
174765
174773
174776
174778
174780
174789
174790
174794
174796
174797
174811
174815
174833
174835
174848
174851
174853
174854
174856
174857
174859
174860
174861
174862
174866
174867
174868
174869
174870
174873
174874
174877
174878
174879
174882
174883
174884
174885
174887
174888
174891
174900
174901
174902
174903
174906
204133
174933
174934
174936
174937
174940
174946
174947
174948
174950
174955
174957
174959
174961
174962
174964
174965
174967
174968
174969
174970
174971
174975
174976
174977
174978
174979
174983
174986
174987
174988
174996
174999
175000
204030
175018
175019
175023
175026
175027
175031
175032
175033
175035
175041
175042
175046
175048
175049
175050
175054
175056
175059
175061
175062
175064
175066
175068
175069
175071
175072
175073
175075
175076
175078
175079
175080
175082
175084
175085
175086
175091
175092
175103
175109
175111
175113
175115
175117
175120
175122
175124
175125
175126
175127
175129
175131
175134
175136
175138
175139
175141
175142
175143
175146
175147
175149
175151
175153
175154
175155
175157
175158
175159
175161
175163
175173
175175
175180
175181
175183
175195
175198
175200
175203
175205
175207
175211
175213
175217
175218
175220
175221
175222
175223
175224
175225
175226
175227
175229
175230
175231
175232
175237
175239
175242
175243
175248
175249
175251
175252
175254
175255
175256
175257
175258
175259
175264
175284
175286
175289
175291
175292
175294
175296
175297
175298
175299
175301
175302
175303
175304
175306
175307
175308
175310
175311
175313
175314
175315
175316
175318
175319
175320
175321
175322
175326
175327
175328
175329
175330
175331
175333
175334
175335
175336
175340
175344
175345
175347
175348
175349
175350
175351
204350
175374
175375
175376
175377
175378
175379
175380
175381
175382
175385
175386
175387
175388
175390
175391
175393
175394
175396
175397
175399
175400
175401
175403
175404
175405
175406
175407
175409
175410
175411
175412
175413
175414
175415
175416
175417
175419
175420
175421
175422
175425
175428
175429
175431
175432
175433
175436
175437
175439
175441
175442
175456
175457
175461
175462
175465
175466
175467
175468
175469
175470
175472
175473
175474
175475
175476
175477
175479
175480
175481
175484
175485
175486
175487
175488
175490
175491
175493
175494
175495
175496
175498
175499
175500
175501
175502
175503
175504
175505
175506
175507
175508
175509
175510
175511
175513
175514
175515
175520
175523
175524
175525
175526
175527
175529
204351
175542
175547
175551
175552
175553
175554
175555
175556
175557
175558
175559
175560
175561
175562
175563
175565
175566
175569
175570
175572
175573
175574
175575
175576
175579
175583
175585
175586
175587
175589
175590
175591
175592
175594
175595
175596
175597
175601
175602
175603
175605
175606
175607
175608
175609
175614
175616
175617
175618
175621
175625
175632
175635
175636
175637
175638
175639
175640
175641
175642
175644
175645
175646
175647
175650
175652
175653
175654
175655
175656
175657
175658
175659
175660
175661
175664
175665
175666
175667
175669
175671
175672
175673
175674
175675
175676
175678
175679
175681
175682
175683
175685
175686
175688
175689
175690
175691
175692
175693
175695
175696
175698
175699
175701
175717
175718
175722
175723
175724
175725
175726
175727
175728
175730
175732
175734
175735
175736
175737
175738
175739
175740
175741
175743
175745
175746
175747
175748
175749
175750
175751
175753
175754
175756
175757
175758
175759
175760
175761
175762
175765
175767
175768
175769
175770
175772
175773
175775
175777
175778
175779
175781
175782
175784
175785
175788
175789
175790
175792
175793
175794
175796
175800
205164
175809
175810
175811
175812
175813
175814
175816
175818
175819
175820
175821
175822
175824
175825
175826
175828
175829
175830
175831
175832
175833
175835
175836
175837
175838
175839
175840
175841
175842
175843
175844
175845
175846
175847
175848
175849
175850
175851
175852
175853
175854
175856
175858
175859
175860
175861
175862
175863
175864
175865
175866
175867
175868
175869
175870
175871
175874
175875
175876
175878
205166
175886
175890
175891
175894
175897
175899
175901
175903
175904
175905
175906
175907
175908
175909
175910
175911
175912
175913
175914
175915
175916
175917
175918
175919
175920
175921
175922
175923
175925
175926
175927
175928
175929
175930
175932
175933
175934
175935
175936
175937
175938
175939
175940
175941
175942
175943
175944
175945
175948
175949
175951
175952
175954
175955
175958
175960
175962
175964
175965
204450
204965
175973
175975
175977
175981
175982
175983
175985
175986
175988
175989
175990
175991
175992
175993
175994
175995
175996
175997
175998
175999
176000
176001
176002
176003
176004
176006
176007
176008
176009
176010
176011
176012
176013
176014
176015
176016
176017
176018
176019
176020
176021
176022
176023
176024
176025
176026
176027
176028
176029
176030
176031
176033
176035
176036
176038
176039
176042
176044
176047
176048
176049
176052
176061
176064
176066
176067
176068
176069
176070
176071
176072
176073
176075
176076
176077
176078
176079
176080
176081
176082
176083
176084
176086
176087
176088
176089
176090
176091
176092
176093
176094
176095
176097
176100
176101
176102
176103
176104
176105
176106
176107
176108
176109
176110
176111
176112
176114
176115
176116
176117
176118
176119
176120
176121
176122
176123
176124
176125
176126
176127
176128
176129
176130
176131
176132
176133
176134
176135
176137
176140
176142
176145
176146
176147
203630
176153
176157
176158
176159
176160
176161
176162
176163
176164
176165
176166
176167
176169
176171
176172
176173
176174
176175
176176
176177
176178
176179
176180
176181
176182
176183
176184
176185
176186
176187
176188
176189
176190
176191
176192
176193
176194
176195
176196
176197
176198
176199
176200
176201
176202
176203
176204
176205
176206
176207
176208
176209
176210
176211
176212
176214
176215
176216
176217
176220
176222
176223
176227
204861
176231
176233
176235
176237
176238
176239
176240
176241
176242
176243
176244
176245
176246
176247
176248
176249
176250
176251
176252
176253
176254
176255
176256
176257
176258
176259
176260
176261
176262
176263
176264
176265
176266
176267
176268
176269
176271
176272
176273
176274
176275
176276
176277
176278
176279
176280
176281
176282
176283
176284
176285
176286
176287
176288
176289
176290
176291
176292
176293
176294
176295
176296
176297
176298
176299
176300
176301
176303
176306
176307
176309
176310
176312
176314
204541
176323
176324
176325
176327
176328
176329
176330
176332
176333
176334
176335
176337
176338
176339
176340
176341
176342
176343
176344
176345
176346
176347
176348
176349
176350
176351
176352
176353
176354
176355
176356
176357
176358
176359
176360
176361
176362
176363
176364
176365
176366
176367
176368
176369
176370
176371
176372
176373
176374
176375
176376
176378
176379
176380
176381
176382
176383
176384
176385
176386
176387
176388
176389
176390
176391
176392
176393
176394
176395
176398
176399
176400
176401
176402
176404
176405
176406
176407
176417
176420
176422
176423
176424
176425
176426
176429
176430
176431
176432
176433
176435
176436
176437
176438
176439
176440
176441
176442
176443
176444
176445
176446
176447
176448
176449
176450
176451
176452
176453
176454
176455
176456
176457
176458
176459
176460
176461
176462
176463
176464
176465
176466
176467
176468
176469
176470
176471
176473
176474
176475
176476
176477
176478
176479
176480
176481
176482
176483
176485
176486
176492
176510
176511
176512
176513
176514
176517
176518
176519
176520
176521
176523
176524
176525
176526
176527
176528
176529
176530
176531
176532
176533
176534
176535
176536
176537
176538
176539
176540
176541
176542
176543
176544
176545
176546
176547
176548
176549
176550
176551
176552
176553
176554
176555
176556
176557
176558
176559
176560
176561
176562
176563
176564
176565
176566
176567
176568
176570
176571
176573
176575
176576
176577
176578
176579
176580
176584
204863
176593
176596
176597
176598
176600
176601
176602
176603
176604
176605
176607
176608
176609
176610
176611
176612
176613
176614
176615
176616
176617
176618
176619
176620
176621
176622
176623
176624
176625
176626
176627
176628
176629
176630
176631
176632
176633
176634
176635
176636
176637
176638
176639
176640
176641
176642
176643
176644
176645
176646
176647
176648
176650
176651
176652
176653
176654
176655
176656
176657
176658
176659
176660
176662
176663
176667
176670
176671
176680
176681
176682
176683
176684
176685
176687
176688
176690
176691
176693
176694
176695
176696
176697
176699
176700
176701
176702
176703
176704
176705
176706
176707
176708
176709
176710
176711
176712
176713
176714
176715
176716
176717
176718
176719
176720
176721
176722
176723
176724
176725
176726
176727
176728
176729
176730
176731
176732
176733
176734
176735
176736
176737
176738
176739
176740
176741
176742
176743
176744
176745
176746
176747
176748
176750
176751
176752
176753
176754
176757
176759
176760
176762
176763
176765
176766
176768
203516
205160
176777
176778
176779
176780
176781
176782
176783
176785
176786
176787
176788
176789
176790
176791
176792
176793
176794
176795
176796
176797
176798
176799
176800
176801
176802
176803
176804
176805
176806
176807
176808
176809
176810
176811
176812
176813
176814
176815
176816
176817
176818
176819
176820
176821
176822
176823
176824
176825
176826
176827
176828
176829
176830
176831
176833
176834
176835
176836
176838
176839
176840
176841
176842
176843
176845
176847
176849
176850
176851
176852
176853
204449
205168
176861
176862
176863
176865
176866
176868
176869
176871
176872
176874
176875
176876
176877
176878
176879
176880
176881
176882
176883
176884
176885
176886
176887
176888
176889
176890
176891
176892
176893
176894
176895
176896
176897
176898
176899
176900
176901
176902
176903
176904
176905
176906
176907
176908
176909
176910
176911
176912
176913
176914
176915
176916
176917
176918
176919
176920
176921
176922
176923
176924
176925
176926
176928
176929
176930
176931
176933
176934
176935
176936
176942
176943
176944
203615
206088
176951
176952
176953
176956
176957
176958
176959
176961
176962
176963
176964
176965
176966
176967
176968
176969
176970
176971
176972
176973
176974
176975
176976
176977
176978
176979
176980
176981
176982
176983
176984
176985
176986
176987
176988
176989
176990
176991
176992
176993
176994
176995
176996
176997
176998
176999
177000
177001
177002
177003
177004
177005
177006
177007
177008
177009
177010
177011
177012
177013
177014
177015
177016
177017
177018
177019
177020
177021
177022
177023
177024
177027
177028
204032
205268
205884
177030
177032
177034
177035
177036
177037
177039
177040
177041
177042
177043
177044
177045
177046
177047
177049
177050
177051
177052
177053
177054
177055
177056
177057
177058
177059
177060
177061
177062
177063
177064
177065
177066
177067
177068
177069
177070
177071
177072
177073
177074
177075
177076
177077
177078
177079
177080
177081
177082
177083
177084
177085
177086
177087
177088
177089
177090
177091
177092
177093
177094
177095
177096
177097
177098
177100
177101
177102
177103
177104
177105
177107
177108
177110
177111
177112
177113
177114
204536
205364
206184
206285
177123
177125
177126
177127
177128
177129
177130
177132
177133
177134
177135
177136
177137
177138
177139
177140
177141
177142
177143
177144
177145
177146
177147
177148
177149
177150
177151
177152
177153
177154
177155
177156
177157
177158
177159
177160
177161
177162
177163
177164
177165
177166
177167
177168
177169
177170
177171
177172
177173
177174
177175
177176
177177
177178
177179
177180
177181
177182
177183
177184
177185
177186
177187
177188
177189
177190
177191
177193
177194
177195
177197
177201
177202
177203
204860
205161
205269
205470
175373
177211
177212
177213
177214
177216
177217
177218
177219
177220
177221
177222
177223
177224
177225
177226
177227
177228
177229
177230
177231
177232
177233
177234
177235
177236
177237
177238
177239
177240
177241
177242
177243
177244
177245
177246
177247
177248
177249
177250
177251
177252
177253
177254
177255
177256
177257
177258
177259
177260
177261
177262
177263
177264
177265
177266
177267
177268
177269
177270
177271
177272
177273
177274
177275
177276
177277
177278
177279
177280
177281
177283
177284
177286
177287
177289
177291
177292
177293
177294
205153
205165
205772
176594
206599
177297
177298
177299
177300
177301
177302
177303
177305
177306
177307
177308
177309
177310
177311
177312
177313
177314
177315
177316
177317
177318
177319
177320
177321
177322
177323
177324
177325
177326
177327
177328
177329
177330
177331
177332
177333
177334
177335
177336
177337
177338
177339
177340
177341
177342
177343
177344
177345
177346
177347
177348
177349
177350
177351
177352
177353
177354
177355
177356
177357
177358
177359
177360
177361
177362
177363
177365
177366
177367
177368
177372
177373
205467
205667
206282
177377
177380
177382
177386
177388
177389
177391
177392
177393
177394
177395
177396
177397
177398
177399
177400
177401
177402
177403
177404
177405
177406
177407
177408
177409
177410
177411
177412
177413
177414
177415
177416
177417
177418
177419
177420
177421
177422
177423
177424
177425
177426
177427
177428
177429
177430
177431
177432
177433
177434
177435
177436
177437
177438
177439
177440
177442
177443
177445
177447
177450
177452
177453
204343
204434
204542
177459
177460
177461
177463
177464
177465
177466
177468
177469
177471
177472
177474
177475
177476
177477
177478
177479
177480
177481
177482
177483
177484
177485
177486
177487
177488
177489
177490
177491
177492
177493
177494
177495
177496
177497
177498
177499
177500
177501
177502
177503
177504
177505
177506
177507
177508
177509
177510
177511
177512
177513
177514
177515
177516
177517
177518
177519
177520
177521
177522
177523
177524
177525
177526
177527
177530
177531
177532
177533
177534
177535
177538
177539
177540
177541
177542
177543
177544
177545
177547
204961
205672
177559
177561
177562
177564
177565
177566
177567
177568
177569
177570
177571
177572
177573
177574
177575
177576
177577
177578
177579
177580
177581
177582
177583
177584
177585
177586
177587
177588
177589
177590
177591
177592
177593
177594
177595
177596
177597
177598
177599
177600
177601
177602
177603
177604
177605
177606
177607
177608
177609
177610
177611
177612
177613
177614
177615
177616
177617
177618
177619
177620
177621
177622
177623
177624
177625
177626
177627
177628
177629
177630
177632
177634
177635
177636
177637
177638
204348
207306
177644
177646
177647
177648
177649
177650
177651
177652
177653
177654
177655
177656
177657
177658
177659
177661
177662
177663
177664
177665
177666
177667
177668
177669
177670
177671
177672
177673
177674
177675
177676
177677
177678
177679
177680
177681
177682
177683
177684
177685
177686
177687
177688
177689
177690
177691
177692
177693
177694
177695
177696
177697
177698
177699
177700
177701
177702
177703
177704
177705
177706
177707
177708
177709
177711
177712
177713
177714
177715
177716
177717
177718
177719
177720
177722
177723
177724
205981
206497
206597
207305
177725
177726
177727
177728
177729
177730
177731
177732
177733
177734
177735
177736
177737
177738
177739
177740
177741
177742
177743
177744
177745
177746
177747
177748
177749
177750
177751
177752
177753
177754
177755
177756
177757
177758
177759
177760
177761
177762
177763
177764
177765
177766
177767
177768
177770
177771
177772
177773
177774
177775
177776
177777
177778
177779
177780
177781
177782
177783
177784
177785
177786
177787
177788
177789
177790
177791
177792
177793
177794
177796
177798
177800
177802
177803
177804
177806
177808
205558
176236
206690
207405
177814
177816
177817
177818
177820
177821
177822
177823
177824
177825
177826
177827
177828
177829
177830
177831
177832
177833
177834
177835
177836
177837
177838
177839
177840
177841
177842
177843
177844
177845
177846
177847
177848
177849
177850
177851
177852
177853
177854
177855
177856
177857
177858
177859
177860
177861
177862
177863
177864
177865
177866
177867
177868
177869
177870
177871
177872
177873
177874
177875
177876
177877
177878
177880
177881
177882
177883
177884
177885
177886
177888
177889
177890
177891
177892
177894
177897
204020
204963
206276
206594
206906
177905
177906
177907
177908
177910
177912
177913
177915
177916
177917
177918
177919
177920
177921
177922
177923
177924
177925
177926
177927
177928
177929
177930
177931
177932
177933
177934
177935
177936
177937
177938
177939
177940
177941
177942
177943
177944
177945
177946
177947
177948
177949
177950
177951
177952
177953
177954
177955
177956
177957
177958
177959
177960
177961
177962
177963
177964
177965
177966
177967
177968
177969
177970
177971
177972
177973
177974
177976
177977
177978
177980
177983
177984
177985
177986
177987
177988
177989
177990
177992
207304
207511
207617
178002
178003
178004
178006
178007
178008
178009
178010
178011
178012
178013
178015
178016
178018
178019
178020
178021
178022
178023
178024
178025
178026
178027
178028
178029
178030
178031
178032
178033
178034
178035
178036
178037
178038
178039
178040
178041
178042
178043
178044
178045
178046
178047
178048
178049
178050
178051
178052
178053
178054
178055
178056
178057
178058
178059
178060
178061
178062
178063
178064
178065
178066
178067
178068
178070
178071
178072
178073
178074
178075
178076
178077
178078
178079
178080
178081
178082
178083
178084
178085
202284
205570
178091
178092
178093
178094
178095
178096
178097
178098
178099
178100
178101
178102
178103
178104
178105
178106
178107
178108
178109
178110
178111
178112
178113
178114
178115
178116
178117
178118
178119
178120
178121
178122
178123
178124
178125
178126
178127
178128
178129
178130
178131
178132
178133
178134
178135
178136
178137
178138
178139
178140
178141
178142
178143
178144
178145
178146
178147
178148
178149
178150
178151
178152
178153
178154
178155
178156
178157
178158
178160
178163
178164
178165
178168
178170
178171
178172
178173
178175
204238
204447
206186
206689
207407
178179
178180
178182
178183
178184
178185
178187
178188
178189
178190
178191
178192
178193
178194
178195
178196
178197
178198
178199
178200
178201
178202
178203
178204
178205
178206
178207
178208
178209
178210
178211
178212
178213
178214
178215
178216
178217
178218
178219
178220
178221
178222
178223
178224
178225
178226
178227
178228
178229
178230
178231
178232
178233
178234
178235
178236
178237
178238
178239
178240
178241
178242
178243
178244
178245
178247
178249
178250
178251
178252
178253
178254
178255
178256
206798
207303
178261
178262
178263
178264
178266
178267
178268
178271
178272
178273
178274
178275
178276
178277
178278
178279
178281
178282
178283
178284
178285
178286
178287
178288
178289
178290
178291
178292
178293
178294
178295
178296
178297
178298
178299
178300
178301
178302
178303
178304
178305
178306
178307
178308
178309
178310
178311
178312
178313
178314
178315
178316
178317
178318
178319
178320
178321
178322
178323
178324
178325
178326
178327
178328
178329
178330
178332
178333
178334
178335
178336
178337
178338
178341
178343
178344
178345
178346
178347
178348
178349
178350
178351
205985
207512
178355
178356
178358
178360
178361
178362
178363
178365
178366
178367
178368
178369
178370
178371
178372
178373
178375
178376
178377
178378
178379
178380
178381
178382
178383
178384
178385
178386
178387
178388
178389
178390
178391
178392
178393
178394
178395
178396
178397
178398
178399
178400
178401
178402
178403
178404
178405
178406
178407
178408
178409
178410
178411
178412
178413
178414
178415
178416
178417
178418
178419
178420
178421
178422
178423
178424
178425
178426
178427
178428
178430
178431
178432
178433
178434
205553
206899
206905
207722
207926
208136
178440
178441
178442
178444
178445
178447
178449
178450
178451
178452
178453
178454
178455
178456
178457
178458
178459
178460
178461
178462
178463
178464
178465
178466
178467
178468
178469
178470
178471
178472
178473
178474
178475
178476
178477
178478
178479
178480
178481
178482
178483
178484
178485
178486
178487
178488
178489
178490
178491
178492
178493
178494
178495
178496
178497
178498
178499
178501
178502
178503
178504
178505
178506
178507
178508
178510
178511
178512
178513
178515
178516
206084
206794
174330
178519
178523
178524
178525
178526
178527
178528
178529
178530
178531
178532
178533
178534
178535
178536
178537
178538
178539
178540
178541
178542
178543
178544
178545
178546
178547
178548
178549
178550
178551
178552
178553
178554
178555
178556
178557
178558
178559
178560
178561
178562
178563
178564
178565
178566
178567
178568
178569
178570
178571
178572
178573
178574
178575
178576
178577
178578
178579
178580
178581
178582
178583
178584
178585
178586
178587
178588
178589
178590
178591
178592
178593
178594
178596
178598
178599
178601
178602
178603
178605
206498
207098
175719
178609
178612
178613
178614
178615
178616
178617
178618
178619
178620
178621
178622
178623
178624
178625
178626
178627
178628
178629
178630
178631
178632
178633
178634
178635
178636
178637
178638
178639
178640
178641
178642
178643
178644
178645
178646
178647
178648
178649
178650
178651
178652
178653
178654
178655
178656
178657
178658
178659
178660
178661
178662
178663
178664
178665
178666
178667
178668
178669
178670
178671
178672
178673
178674
178676
178677
178678
178679
178681
178683
178685
178686
178687
178688
178689
178690
178691
178692
178693
204759
204960
206082
206167
207204
178698
178700
178701
178702
178703
178704
178705
178706
178707
178708
178709
178710
178711
178712
178713
178714
178715
178716
178717
178718
178719
178720
178721
178722
178723
178724
178725
178726
178727
178728
178729
178730
178731
178732
178733
178734
178735
178736
178737
178738
178739
178740
178741
178742
178743
178744
178745
178746
178747
178748
178749
178750
178751
178752
178753
178754
178755
178756
178757
178758
178759
178760
178762
178763
178764
178765
178766
178767
178768
178769
178770
178771
178772
178774
178775
178776
178777
178778
178779
178780
205646
206387
208639
178785
178786
178787
178788
178789
178790
178791
178792
178793
178794
178795
178796
178797
178798
178799
178800
178801
178802
178803
178804
178805
178806
178807
178808
178809
178810
178811
178812
178813
178814
178815
178816
178817
178818
178819
178820
178821
178822
178823
178824
178825
178826
178827
178828
178829
178830
178831
178832
178833
178834
178835
178836
178837
178838
178839
178840
178841
178842
178843
178844
178845
178846
178847
178848
178849
178851
178852
178853
178854
178855
178856
178857
178858
178860
202463
204215
204227
204651
207514
207612
208234
208339
208436
208542
176232
178862
178864
178865
178866
178867
178868
178869
178870
178871
178872
178873
178875
178876
178877
178878
178879
178880
178881
178882
178883
178884
178885
178886
178887
178888
178889
178890
178891
178892
178893
178894
178895
178896
178897
178898
178899
178900
178901
178902
178903
178904
178905
178906
178907
178908
178909
178910
178911
178912
178913
178914
178915
178916
178917
178918
178919
178920
178921
178922
178923
178924
178925
178926
178927
178928
178929
178930
178931
178932
178933
178934
178935
178936
178937
178938
178940
178941
178942
178943
178944
178945
204121
204132
206078
206183
206277
207193
208133
208134
208834
178951
178952
178953
178954
178955
178956
178958
178959
178960
178961
178962
178963
178964
178965
178966
178967
178968
178969
178970
178971
178972
178973
178974
178975
178976
178977
178978
178979
178980
178981
178982
178983
178984
178985
178986
178987
178988
178989
178990
178991
178992
178993
178994
178995
178996
178997
178998
178999
179000
179001
179002
179003
179004
179005
179006
179007
179008
179009
179010
179011
179012
179013
179014
179015
179016
179017
179018
179019
179020
179021
179022
179023
179024
179025
179026
179027
179028
179029
179030
179031
179032
179033
179036
179037
179038
179039
179040
179041
179042
179043
179044
205564
205872
207198
207201
208839
208943
179047
179048
179049
179050
179052
179053
179054
179055
179056
179057
179058
179059
179060
179061
179062
179063
179064
179065
179066
179067
179068
179069
179070
179071
179072
179073
179074
179075
179076
179077
179078
179079
179080
179081
179082
179083
179084
179085
179086
179087
179088
179089
179090
179091
179092
179093
179094
179095
179096
179097
179098
179099
179100
179101
179102
179103
179104
179105
179106
179107
179108
179109
179110
179111
179112
179113
179114
179116
179117
179118
179119
179120
179121
179122
207300
207929
208231
179129
179130
179131
179132
179133
179134
179136
179138
179139
179140
179141
179142
179143
179144
179145
179146
179147
179148
179149
179150
179151
179152
179153
179154
179155
179156
179157
179158
179159
179160
179161
179162
179163
179164
179165
179166
179167
179168
179169
179170
179171
179172
179173
179174
179175
179176
179177
179178
179179
179180
179181
179182
179183
179184
179185
179186
179187
179188
179189
179190
179191
179192
179193
179194
179195
179196
179197
179198
179199
179200
179201
179202
179203
179207
179208
179209
179210
179211
179212
179213
204836
205346
205637
205980
176595
206783
207302
207615
207725
208020
175980
209048
179215
179216
179218
179219
179220
179221
179222
179223
179224
179225
179226
179227
179228
179229
179230
179231
179232
179233
179234
179235
179236
179237
179238
179239
179240
179241
179242
179243
179244
179245
179246
179247
179248
179249
179250
179251
179252
179253
179254
179255
179256
179257
179258
179259
179260
179261
179262
179263
179264
179265
179266
179267
179268
179269
179270
179271
179272
179273
179274
179275
179276
179277
179278
179279
179280
179281
179282
179283
179284
179285
179286
179287
179288
179289
179290
179292
179294
179295
179296
179297
179298
179299
179301
179302
179303
179304
204851
207927
208128
208135
176322
208738
205167
179311
179312
179313
179314
179315
179316
179317
179318
179319
179320
179321
179322
179323
179324
179325
179326
179327
179328
179329
179330
179331
179332
179333
179334
179335
179336
179337
179338
179339
179340
179341
179342
179343
179344
179345
179346
179347
179348
179349
179350
179351
179352
179353
179354
179355
179356
179357
179358
179359
179360
179361
179362
179363
179364
179365
179366
179367
179368
179369
179370
179371
179372
179373
179374
179375
179376
179377
179378
179379
179383
179385
179386
179388
179389
179390
179391
179393
179394
179396
179397
179398
202801
206280
207925
208541
175040
203426
179400
179401
179402
179404
179405
179406
179407
179408
179409
179410
179411
179412
179413
179414
179415
179416
179417
179418
179419
179420
179421
179422
179423
179424
179425
179426
179427
179428
179429
179430
179431
179432
179433
179434
179435
179436
179437
179438
179439
179440
179441
179442
179443
179444
179445
179446
179447
179448
179449
179450
179451
179452
179453
179454
179455
179456
179457
179458
179459
179460
179461
179462
179463
179464
179465
179466
179467
179468
179469
179470
179471
179472
179473
179474
179475
179476
179477
179479
179480
179481
179482
179483
179484
179485
179491
179492
179493
179494
179495
204221
206393
207828
176156
208332
208440
177643
179496
179497
179500
179501
179502
179503
179504
179505
179506
179507
179508
179509
179510
179511
179512
179513
179514
179515
179516
179517
179518
179519
179520
179521
179522
179523
179524
179525
179526
179527
179528
179529
179530
179531
179532
179533
179534
179535
179536
179537
179538
179539
179540
179541
179542
179543
179544
179545
179546
179547
179548
179549
179550
179551
179552
179553
179554
179555
179556
179557
179558
179559
179560
179561
179562
179564
179565
179566
179567
179568
179569
179570
179571
204009
206694
177383
174672
208833
208837
208838
209246
175020
179574
179575
179577
179578
179579
179580
179581
179582
179583
179584
179585
179586
179587
179588
179589
179590
179591
179592
179593
179594
179595
179596
179597
179598
179599
179600
179601
179602
179603
179604
179605
179606
179607
179608
179609
179610
179611
179612
179613
179614
179615
179616
179617
179618
179619
179620
179621
179622
179623
179624
179625
179626
179627
179628
179629
179630
179631
179632
179633
179634
179635
179636
179637
179638
179639
179640
179641
179642
179643
179644
179645
179646
179647
179648
179649
179650
179654
179655
179656
179657
179658
179660
179661
203429
205545
205568
206079
207718
208437
208941
209046
209351
173641
179663
179666
179667
179668
179669
179671
179672
179673
179674
179675
179676
179677
179678
179679
179680
179681
179682
179683
179684
179685
179686
179687
179688
179689
179690
179691
179692
179693
179694
179695
179696
179697
179698
179699
179700
179701
179702
179703
179704
179705
179706
179707
179708
179709
179710
179711
179712
179713
179714
179715
179716
179717
179718
179719
179720
179721
179722
179723
179724
179725