/*--------------------------------*- C++ -*----------------------------------*\
| =========                 |                                                 |
| \\      /  F ield         | OpenFOAM: The Open Source CFD Toolbox           |
|  \\    /   O peration     | Version:  2406                                  |
|   \\  /    A nd           | Website:  www.openfoam.com                      |
|    \\/     M anipulation  |                                                 |
\*---------------------------------------------------------------------------*/
FoamFile
{
    version     2.0;
    format      ascii;
    arch        "LSB;label=32;scalar=64";
    class       Cloud<dsmcParcel>;
    location    "0.004/lagrangian/dsmc";
    object      positions;
}
// * * * * * * * * * * * * * * * * * * * * * * * * * * * * * * * * * * * * * //

5113
(
(0.06926137514 0.1972293735 0) 405
(0.06157382768 0.2464537363 2.168404345e-19) 474
(0.06104664175 0.2712437222 -2.168404345e-19) 504
(0.041397906 0.2214286549 6.505213035e-19) 441
(0.05665922682 0.2476842449 -5.421010862e-20) 473
(0.07036195495 0.2663427566 -4.33680869e-19) 505
(0.0664905754 0.2634972716 3.252606517e-19) 494
(0.07088718143 0.2467038159 2.710505431e-19) 475
(0.05511496602 0.2118230738 -2.168404345e-19) 423
(0.06146840585 0.2114634424 2.439454888e-19) 424
(0.06805737305 0.2162796014 2.168404345e-19) 434
(0.03422681135 0.2802863886 4.065758147e-20) 520
(0.05881137166 0.217757115 1.626303259e-19) 433
(0.07224672392 0.2394365775 -1.219727444e-19) 465
(0.07240470388 0.2161379336 0) 435
(0.07463222808 0.1998193776 2.168404345e-19) 405
(0.06361371857 0.2031044454 1.084202172e-19) 414
(0.07618207484 0.1998344613 0) 405
(0.07448151167 0.2044787948 -1.084202172e-19) 415
(0.06585517848 0.2195884374 1.084202172e-19) 434
(0.04809711074 0.2464688647 -1.355252716e-19) 472
(0.06423277247 0.2413154533 3.252606517e-19) 464
(0.06227105236 0.2625911804 3.252606517e-19) 494
(0.07589047576 0.2610025886 2.168404345e-19) 495
(0.07607801479 0.1732737964 0) 365
(0.05726212868 0.1823994501 -2.846030703e-19) 383
(0.06080790396 0.2169468367 2.168404345e-19) 433
(0.05521269109 0.252404774 -3.252606517e-19) 483
(0.07505706579 0.2521418196 0) 485
(0.06658050686 0.2496536848 -4.33680869e-19) 474
(0.07424100219 0.2435813895 -2.168404345e-19) 465
(0.07185788929 0.2437398718 0) 465
(0.06332108907 0.1884526419 2.168404345e-19) 394
(0.0652455445 0.254666996 1.626303259e-19) 484
(0.06655388266 0.2143189357 0) 424
(0.07420071401 0.2595015155 0) 495
(0.05642480817 0.1795605751 7.047314121e-19) 383
(0.06535317328 0.2900831378 1.626303259e-19) 534
(0.06189021944 0.2451996296 0) 474
(0.07358715728 0.2290541401 -3.252606517e-19) 445
(0.05185334454 0.2405716899 0) 462
(0.07466101845 0.2141004603 0) 425
(0.05192995452 0.2085583893 0) 422
(0.07232995976 0.241321137 1.084202172e-19) 465
(0.0728862307 0.2639402324 3.252606517e-19) 495
(0.06879863493 0.2693112313 -4.33680869e-19) 505
(0.07408472015 0.2852269049 -1.084202172e-19) 525
(0.07085441086 0.2070817394 3.252606517e-19) 415
(0.0655073204 0.2196861039 5.421010862e-20) 434
(0.05315921597 0.2019669736 1.084202172e-19) 412
(0.0659233515 0.1780772741 1.084202172e-19) 374
(0.07050477778 0.2327246125 1.084202172e-19) 455
(0.07464560808 0.2318680357 -2.168404345e-19) 455
(0.06985884732 0.2576957322 -2.168404345e-19) 485
(0.06763474401 0.2693831849 0) 504
(0.06777060925 0.2969232863 2.168404345e-19) 544
(0.04063025041 0.2868215886 1.084202172e-19) 531
(0.0538314216 0.1993326542 2.168404345e-19) 403
(0.06988695268 0.2382403239 2.710505431e-19) 465
(0.06852569287 0.2532566979 -1.084202172e-19) 484
(0.06070323156 0.2266213239 -4.33680869e-19) 443
(0.06339184172 0.2379724652 0) 464
(0.06054229258 0.2135783874 -2.168404345e-19) 423
(0.06468383215 0.2496797717 0) 474
(0.06860087531 0.2726233152 -1.626303259e-19) 515
(0.03695253438 0.2591131992 -1.084202172e-19) 490
(0.06738575491 0.264106393 0) 494
(0.06945732797 0.2593668023 1.084202172e-19) 495
(0.03275646062 0.2206479838 -4.33680869e-19) 440
(0.06456729124 0.260134695 8.131516294e-20) 494
(0.07113876849 0.2985669344 3.252606517e-19) 545
(0.06681828539 0.1798183195 0) 374
(0.06580519176 0.1794406694 -4.33680869e-19) 374
(0.06384968503 0.2112433505 0) 424
(0.07126059578 0.2466892363 -8.131516294e-20) 475
(0.07568605902 0.2266800176 -2.168404345e-19) 445
(0.03841850407 0.1914755476 0) 401
(0.008732409544 0.2951399605 -4.33680869e-19) 537
(0.05213460977 0.2860395461 2.168404345e-19) 532
(0.03198594099 0.2607314911 5.421010862e-20) 490
(0.06013119069 0.2793945119 0) 523
(0.03254027297 0.2453954011 2.56650983e-19) 470
(0.05510939499 0.2544931869 2.168404345e-19) 483
(0.0720895968 0.2578871386 2.168404345e-19) 485
(0.05021071507 0.2862872961 2.168404345e-19) 532
(0.07047756848 0.2709735947 0) 505
(0.05886657419 0.1912788175 1.084202172e-19) 393
(0.02818466157 0.1796014212 1.084202172e-19) 379
(0.05507646347 0.2226359812 0) 443
(0.06487879124 0.1763025277 -1.355252716e-20) 374
(0.05773672974 0.2240188866 -1.084202172e-19) 443
(0.07612695227 0.2145914184 4.33680869e-19) 425
(0.05434094608 0.2308546984 -1.084202172e-19) 453
(0.07387322764 0.2323831663 1.084202172e-19) 455
(0.05997392852 0.2428863154 -2.168404345e-19) 463
(0.07515286724 0.2324928948 -4.33680869e-19) 455
(0.07570023192 0.2602429188 -2.168404345e-19) 495
(0.05219466649 0.275016895 0) 512
(0.06201702175 0.2520953616 -1.626303259e-19) 484
(0.04651666793 0.2241497804 4.33680869e-19) 442
(0.0620823242 0.2953053762 -3.252606517e-19) 544
(0.06934972039 0.220962259 -2.168404345e-19) 435
(0.07215063925 0.2037469564 8.131516294e-20) 415
(0.07460206405 0.2299444488 4.33680869e-19) 445
(0.03435076621 0.1778499369 -2.168404345e-19) 380
(0.06257196852 0.2280894744 2.710505431e-20) 444
(0.05781858125 0.2285698591 0) 443
(0.0390914488 0.251103908 -2.168404345e-19) 481
(0.04682302922 0.1728295649 0) 372
(0.06120492602 0.2294238742 3.388131789e-20) 454
(0.06270458287 0.1897012826 -5.421010862e-19) 394
(0.03377942205 0.1972907577 -2.168404345e-19) 400
(0.07044834059 0.2364912659 3.252606517e-19) 455
(0.06740406143 0.2285547999 6.505213035e-19) 444
(0.07485435713 0.2521494691 -2.168404345e-19) 485
(0.06815532819 0.254541832 0) 484
(0.03320008524 0.2732057814 1.084202172e-19) 510
(0.06684810391 0.2416756031 0) 464
(0.07600045295 0.2293831161 0) 445
(0.05418978642 0.2094973072 -4.33680869e-19) 423
(0.06775102607 0.2098095836 2.168404345e-19) 424
(0.07333949099 0.2344873199 -2.168404345e-19) 455
(0.07520305917 0.22674151 -2.168404345e-19) 445
(0.02992329163 0.2274797813 0) 449
(0.06831680435 0.2273351038 0) 444
(0.03703047847 0.2144786906 0) 430
(0.05772136249 0.2176251775 -3.794707604e-19) 433
(0.07261071945 0.2906213907 -2.439454888e-19) 535
(0.01793204745 0.2431014454 4.33680869e-19) 468
(0.04887915353 0.2883986423 2.168404345e-19) 532
(0.03978496771 0.244875721 -1.084202172e-19) 471
(0.0749376545 0.2582618612 0) 495
(0.05659875579 0.2799704044 -1.084202172e-19) 523
(0.04031606798 0.2891744547 -8.470329473e-20) 531
(0.03828716092 0.1799000999 4.33680869e-19) 381
(0.03319941991 0.1694931275 -3.252606517e-19) 370
(0.04617912505 0.2446186452 -2.168404345e-19) 472
(0.07380522584 0.1937728439 1.084202172e-19) 395
(0.05259144431 0.1963624635 2.168404345e-19) 402
(0.06029185105 0.2487477914 -4.33680869e-19) 473
(0.05927240919 0.1865605331 0) 393
(0.03402576671 0.2040152381 -2.168404345e-19) 410
(0.06652538951 0.1960562704 -2.168404345e-19) 404
(0.05694327865 0.2066846226 2.168404345e-19) 413
(0.06188648188 0.1923643143 2.168404345e-19) 394
(0.05417976101 0.2481734524 0) 473
(0.06030266018 0.1966843572 -3.252606517e-19) 403
(0.04568950662 0.2326459603 -4.33680869e-19) 451
(0.06892386918 0.2676304611 -2.168404345e-19) 505
(0.06661016093 0.2343151295 0) 454
(0.07209682668 0.2228842986 0) 445
(0.07600243511 0.1981689531 1.626303259e-19) 405
(0.0757948707 0.2555907438 0) 485
(0.03736917213 0.2399243313 2.168404345e-19) 460
(0.02662909491 0.234542545 6.776263578e-21) 459
(0.06368302062 0.2719792348 4.33680869e-19) 514
(0.05785972892 0.2230762784 -2.168404345e-19) 443
(0.06926692261 0.2929964762 0) 545
(0.05919014043 0.2194111456 0) 433
(0.06845887321 0.2720067803 0) 514
(0.07553328664 0.2669899471 -1.084202172e-19) 505
(0.05914862272 0.2869958652 -2.168404345e-19) 533
(0.06469823714 0.2740242545 -1.355252716e-20) 514
(0.05556661671 0.2577126874 2.168404345e-19) 493
(0.05632617744 0.2845300173 -3.252606517e-19) 523
(0.07255555894 0.284279753 8.131516294e-20) 525
(0.05949005033 0.274052318 -4.33680869e-19) 513
(0.05577577469 0.2867714501 2.168404345e-19) 533
(0.05818012849 0.1983862822 1.084202172e-19) 403
(0.07585466327 0.1837656202 -2.168404345e-19) 385
(0.03251705807 0.189882821 2.168404345e-19) 390
(0.03951749916 0.2295813938 4.878909776e-19) 451
(0.0718548207 0.1835787664 -2.168404345e-19) 385
(0.02831162258 0.1871243597 -1.084202172e-19) 389
(0.0672885304 0.2226767327 0) 444
(0.05280718229 0.2349859986 -2.168404345e-19) 452
(0.06166059388 0.229766406 0) 454
(0.03026245824 0.2006235396 -3.252606517e-19) 409
(0.05151329707 0.2483020878 0) 472
(0.046255548 0.2446813832 0) 472
(0.06294816826 0.2603856091 0) 494
(0.05844587723 0.2456566545 0) 473
(0.06931981084 0.2526583363 -1.084202172e-19) 485
(0.0701528886 0.2840548244 -3.252606517e-19) 525
(0.07551265738 0.2476514698 0) 475
(0.07482290103 0.2095516189 -6.505213035e-19) 425
(0.05612799195 0.2333702934 -3.523657061e-19) 453
(0.0374875073 0.2297851947 -3.252606517e-19) 450
(0.04094167818 0.2845427757 0) 521
(0.0304968272 0.2308451591 -1.355252716e-20) 450
(0.0661687235 0.2562068776 2.168404345e-19) 484
(0.06230866972 0.287575089 -3.252606517e-19) 534
(0.05793631682 0.2822431803 -5.421010862e-20) 523
(0.02970919044 0.2359155669 0) 459
(0.06342897529 0.2683066993 -1.626303259e-19) 504
(0.05235468926 0.2368343087 0) 462
(0.07565108658 0.2431045769 0) 465
(0.02471481239 0.2835639447 3.388131789e-20) 519
(0.04812972814 0.290485391 3.252606517e-19) 532
(0.0611998064 0.2596943627 2.168404345e-19) 494
(0.06076676589 0.2913576698 0) 533
(0.06860170983 0.2606219435 0) 495
(0.05237100935 0.2591802454 -1.084202172e-19) 492
(0.07132721058 0.2044342749 5.421010862e-20) 415
(0.03942685824 0.17080298 0) 371
(0.0581925181 0.2049454966 3.252606517e-19) 413
(0.067136487 0.2105183464 -1.084202172e-19) 424
(0.07171258074 0.1795093187 0) 375
(0.07054225036 0.1922563966 3.252606517e-19) 395
(0.07582284562 0.2180170752 -1.084202172e-19) 435
(0.06756168215 0.1903729391 5.421010862e-20) 394
(0.05140436155 0.2024017722 1.084202172e-19) 412
(0.05521557932 0.1970906332 1.084202172e-19) 403
(0.06683588714 0.1784361134 -4.33680869e-19) 374
(0.06914450099 0.1920755867 0) 395
(0.06152699049 0.2251707424 -2.168404345e-19) 444
(0.05086961503 0.1712126499 0) 372
(0.0718926902 0.204296984 -1.626303259e-19) 415
(0.04559884063 0.2285969812 2.168404345e-19) 451
(0.04546059203 0.2125692216 -4.33680869e-19) 421
(0.06654422309 0.2577562081 4.33680869e-19) 494
(0.07061068231 0.2180217409 -5.421010862e-20) 435
(0.04282111217 0.2450280175 1.084202172e-19) 471
(0.06141094165 0.2658511118 0) 504
(0.03971526794 0.2487542753 0) 471
(0.06720196698 0.2739275524 -1.084202172e-19) 514
(0.04993154156 0.2651919305 -4.33680869e-19) 502
(0.03110956223 0.2521086849 4.33680869e-19) 480
(0.06849189539 0.2739979488 -3.252606517e-19) 514
(0.0604503051 0.2035430887 -1.626303259e-19) 413
(0.01462583872 0.261888681 0) 487
(0.05064831499 0.2847672006 -2.168404345e-19) 522
(0.05681036908 0.2553735143 -1.084202172e-19) 483
(0.03461059123 0.2716126812 4.33680869e-19) 510
(0.008426164081 0.2267450928 -4.33680869e-19) 447
(0.05319575285 0.270447817 4.33680869e-19) 502
(0.0583845672 0.2788318936 0) 523
(0.02086867905 0.2625873037 -2.168404345e-19) 488
(-0.01783106642 0.2606278512 1.084202172e-19) 257
(0.05891143744 0.2802557236 -2.168404345e-19) 523
(0.06282487306 0.2829895497 -3.252606517e-19) 524
(0.06140710334 0.1835845747 1.084202172e-19) 384
(0.07066566955 0.1877859314 3.252606517e-19) 395
(0.07258832518 0.1829362219 -1.084202172e-19) 385
(0.02557532816 0.1710572887 -2.439454888e-19) 369
(0.06548276123 0.1980103982 4.33680869e-19) 404
(0.04730893407 0.2129679649 2.168404345e-19) 422
(0.0313208339 0.2018642809 2.439454888e-19) 410
(0.06759802499 0.2165340039 2.168404345e-19) 434
(0.07336430699 0.2162583454 2.168404345e-19) 435
(0.05426665943 0.2143246694 -2.168404345e-19) 423
(0.06064366406 0.1784263058 -2.168404345e-19) 373
(0.02816960653 0.2163635843 -1.084202172e-19) 429
(0.06678175988 0.21146461 8.131516294e-20) 424
(0.0381508995 0.2340891443 -2.168404345e-19) 451
(0.0748452004 0.2384593972 0) 465
(0.05697550634 0.2532153692 -5.421010862e-20) 483
(0.0674578984 0.2824561301 0) 524
(0.04387084892 0.2389765397 -2.168404345e-19) 461
(0.07584672602 0.2153149658 0) 425
(0.02897544497 0.2434671717 0) 469
(0.07545068842 0.2538664117 0) 485
(0.06021901392 0.2283118047 2.168404345e-19) 443
(0.05890577138 0.2008739607 -2.168404345e-19) 413
(0.06111121451 0.2208039891 -2.168404345e-19) 434
(0.07027310202 0.2461642796 -1.084202172e-19) 475
(0.065523194 0.217788325 1.084202172e-19) 434
(0.0373894292 0.2259325918 -2.168404345e-19) 440
(0.03549967898 0.2568694097 4.33680869e-19) 490
(0.05555167655 0.2488635514 -4.878909776e-19) 473
(0.04841338104 0.287632586 -3.252606517e-19) 532
(0.02687176939 0.2685253235 1.897353802e-19) 499
(0.01385104153 0.2290417832 -5.421010862e-20) 447
(0.06177847458 0.2874929327 -3.252606517e-19) 534
(0.05868160665 0.2996219389 3.252606517e-19) 543
(0.06089261118 0.2648194824 0) 503
(0.04414447975 0.2841184437 0) 521
(0.05648294608 0.2970771078 3.201784541e-19) 543
(0.0429919788 0.2737171677 -2.168404345e-19) 511
(0.04758055713 0.2282167151 0) 452
(0.04435232256 0.2057727534 -2.168404345e-19) 411
(0.01887248697 0.2294878365 -3.117081246e-19) 448
(0.0688349481 0.1868338225 2.168404345e-19) 385
(0.05679150041 0.1808480234 -1.084202172e-19) 383
(0.05950892949 0.1907837242 0) 393
(0.05548068888 0.1831922037 -2.168404345e-19) 383
(0.04806527765 0.1836809648 -1.626303259e-19) 382
(0.01795828399 0.2308727471 -1.084202172e-19) 448
(0.03114285652 0.1901025334 4.065758147e-20) 390
(0.01804889635 0.2201807542 -1.084202172e-19) 438
(0.03528852697 0.1751545474 1.084202172e-19) 370
(0.06052986359 0.2260530746 -4.33680869e-19) 443
(0.04334709318 0.2103292571 -3.252606517e-19) 421
(0.06271165375 0.1982037988 0) 404
(0.03239969075 0.268020437 -2.168404345e-19) 500
(0.06644892702 0.259425102 -2.168404345e-19) 494
(0.06707232231 0.2278482894 2.168404345e-19) 444
(0.07422469176 0.2229626488 0) 435
(0.06942128566 0.2784641053 1.897353802e-19) 515
(0.04782597885 0.2268275583 0) 442
(0.05772480972 0.2151041103 0) 433
(0.05699556277 0.2585576183 1.219727444e-19) 493
(0.01645462102 0.2382881764 -3.252606517e-19) 458
(0.04243086855 0.2771358774 2.168404345e-19) 511
(0.06724896713 0.2446904389 -4.33680869e-19) 474
(0.05627147963 0.2913309966 3.252606517e-19) 533
(0.02542652354 0.239619181 3.252606517e-19) 459
(0.04813403282 0.2802685201 1.084202172e-19) 522
(0.06007092365 0.2578836248 0) 493
(0.0182498061 0.2666671189 -2.168404345e-19) 498
(0.0485132912 0.2851715996 0) 522
(0.0344976119 0.279332137 -2.168404345e-19) 520
(0.04259630331 0.2963578228 1.694065895e-19) 541
(0.0614570747 0.2714059662 -1.084202172e-19) 504
(0.0710494014 0.2340377683 0) 455
(0.0473487284 0.2323989874 3.794707604e-19) 452
(0.04128217926 0.1928615754 1.084202172e-19) 401
(0.03145910297 0.1696570256 0) 370
(-0.005007467807 0.2168398888 0) 139
(0.04126232476 0.2016255737 0) 411
(0.06792902282 0.2169541802 2.168404345e-19) 434
(0.04609485528 0.1963673434 -1.084202172e-19) 402
(0.06624834153 0.2003964662 -1.084202172e-19) 404
(0.06976769138 0.2312649339 3.252606517e-19) 455
(0.03082325457 0.2284244845 1.084202172e-19) 450
(0.06406802559 0.2137064145 -2.168404345e-19) 424
(0.04240335215 0.2383738283 4.607859233e-19) 461
(0.04751895273 0.2485297239 1.084202172e-19) 472
(0.03720802165 0.2175393631 0) 430
(0.03585876453 0.1856638166 2.168404345e-19) 390
(0.04140944949 0.2328546807 1.084202172e-19) 451
(0.04157675064 0.2859335208 8.131516294e-20) 531
(0.06421285467 0.1838945392 1.219727444e-19) 384
(0.03143147196 0.2174817465 -1.084202172e-19) 430
(0.0538684894 0.2035163782 0) 413
(0.06413927151 0.1742396096 4.33680869e-19) 374
(0.02668349357 0.2283401753 0) 449
(0.06680191423 0.2098407499 -6.505213035e-19) 424
(0.05964727259 0.2310362109 -3.252606517e-19) 453
(0.04228418342 0.1734885581 0) 371
(0.05987598844 0.2293528456 4.33680869e-19) 453
(0.06718979767 0.2603670829 0) 494
(0.04749171105 0.2546160794 1.084202172e-19) 482
(0.03736560448 0.2603311139 2.168404345e-19) 490
(0.05207848629 0.2553646833 6.505213035e-19) 482
(0.05666353603 0.257747906 -2.710505431e-19) 493
(0.07422463276 0.2480528194 0) 475
(0.03069930596 0.2676178654 1.084202172e-19) 500
(0.06412525067 0.212965113 5.421010862e-20) 424
(0.05701039358 0.2375218139 -2.303929617e-19) 463
(0.06166812002 0.2331051895 -3.252606517e-19) 454
(0.0739527034 0.2299810402 0) 455
(0.04576568272 0.2735058254 -2.168404345e-19) 512
(0.04177923057 0.2536416556 0) 481
(0.05970658608 0.2509326988 4.33680869e-19) 483
(0.06128967191 0.2707511889 -2.168404345e-19) 504
(0.07507795146 0.2892245235 -1.897353802e-19) 535
(0.05007015888 0.2686729075 -5.421010862e-20) 502
(0.06310056698 0.247995663 1.084202172e-19) 474
(0.02359502466 0.2810213062 6.505213035e-19) 519
(0.05390717206 0.2936803436 -1.355252716e-19) 543
(0.02722167716 0.2935110906 -8.67361738e-19) 539
(0.06237747006 0.1692310918 1.355252716e-19) 364
(0.0484847768 0.1803960604 0) 382
(0.0386958852 0.1900428759 0) 391
(0.06600816411 0.1798196281 -2.168404345e-19) 374
(0.05882315437 0.1899054287 0) 393
(0.06173349503 0.1837988402 2.710505431e-19) 384
(0.03571311246 0.1917097378 -4.33680869e-19) 400
(0.0520269625 0.1865655531 -2.168404345e-19) 392
(0.06456027846 0.1857644691 4.33680869e-19) 384
(0.05283087706 0.1794197622 2.168404345e-19) 382
(0.05842154984 0.2117728355 -1.084202172e-19) 423
(0.06658036204 0.1743198463 0) 374
(0.0360314636 0.2054094107 2.168404345e-19) 410
(0.05428423578 0.2202493816 0) 433
(0.05320775987 0.1786887265 0) 382
(0.02210158314 0.2559972047 4.33680869e-19) 488
(0.009571895193 0.2198741528 4.33680869e-19) 437
(0.01555247415 0.1916148236 2.168404345e-19) 398
(0.03508503993 0.2314619098 1.626303259e-19) 450
(0.04069384352 0.225047059 2.168404345e-19) 441
(0.04074072961 0.1856110868 2.168404345e-19) 391
(0.003484523838 0.2044271695 0) 416
(0.02752485586 0.1848209536 0) 389
(0.05743972134 0.2056598096 -1.626303259e-19) 413
(0.06134066031 0.2101793403 0) 424
(0.01689951398 0.2133602347 -6.776263578e-19) 428
(0.04988000173 0.2328004252 -2.439454888e-19) 452
(0.0681674768 0.2338649211 0) 454
(0.06129261101 0.2417305815 0) 464
(0.04308038527 0.2573526954 0) 491
(0.01955676917 0.2285670837 0) 448
(0.04641357801 0.2522890796 0) 482
(0.05484940805 0.2085574884 -2.168404345e-19) 423
(0.04690718588 0.2009813001 -5.421010862e-20) 412
(0.04652006423 0.2586854844 3.252606517e-19) 492
(0.02338641303 0.2567183679 0) 489
(0.07107721434 0.2587650965 -1.084202172e-19) 495
(0.0445858051 0.2365131027 2.168404345e-19) 461
(0.04125583387 0.2568197703 -7.589415207e-19) 491
(0.04774823579 0.2694301158 1.76182853e-19) 502
(0.04593699636 0.2216316989 -1.084202172e-19) 442
(0.03690878286 0.2508961528 0) 480
(0.0443255818 0.2750775668 2.168404345e-19) 511
(0.05636484714 0.2975445812 2.168404345e-19) 543
(0.05511527508 0.2548612358 -1.084202172e-19) 483
(0.03251489938 0.2700541285 -2.168404345e-19) 500
(0.03510396081 0.2323047231 1.084202172e-19) 450
(0.05136264095 0.2564029425 0) 482
(0.04730128302 0.2894079945 2.303929617e-19) 532
(0.0409471933 0.2559068435 0) 481
(0.06373301857 0.259845489 0) 494
(0.05724734732 0.248416259 -1.76182853e-19) 473
(0.07397754422 0.1918279384 0) 395
(0.05299281091 0.2141762448 2.168404345e-19) 422
(0.003316802989 0.2044454167 -1.626303259e-19) 416
(0.04268521072 0.1669737529 -5.421010862e-20) 361
(0.02326904052 0.2004887971 2.168404345e-19) 409
(0.03108385227 0.2115064803 -2.168404345e-19) 420
(0.04030444688 0.20573248 2.168404345e-19) 411
(0.04396628162 0.236628025 2.168404345e-19) 461
(0.05857927965 0.185346347 1.084202172e-19) 383
(0.05621365813 0.2384382235 -3.252606517e-19) 463
(0.05974207202 0.2125983302 4.33680869e-19) 423
(0.0249312831 0.2014522866 3.794707604e-19) 409
(0.06892297907 0.2338455416 0) 455
(0.06421377184 0.2091654247 5.421010862e-20) 424
(0.02674800637 0.1888265507 -1.423015351e-19) 389
(0.07165376841 0.2039422207 -1.626303259e-19) 415
(0.06841229902 0.1904179369 -2.168404345e-19) 394
(0.07306145927 0.1982280511 -1.897353802e-19) 405
(0.01219472557 0.1898333728 -2.168404345e-19) 397
(0.04602289966 0.200938355 0) 412
(0.01829376413 0.2297942276 -3.794707604e-19) 448
(0.05709081777 0.2206617345 4.33680869e-19) 433
(0.07569294847 0.2801436003 0) 525
(0.06096108522 0.2293026679 -2.710505431e-19) 454
(0.03844276834 0.2277044346 0) 451
(0.04413232401 0.2598211334 0) 491
(0.01910955573 0.2664222243 -1.084202172e-19) 498
(0.05112695574 0.2287576196 -2.168404345e-19) 452
(0.05876554973 0.2503190965 0) 483
(0.03807934071 0.2728093632 -2.168404345e-19) 510
(0.07450286834 0.2767727651 0) 515
(0.0656987759 0.2489552287 -3.252606517e-19) 474
(0.04849630656 0.2510186892 0) 482
(0.03854529021 0.2899782685 -1.084202172e-19) 531
(0.03057067142 0.2185009279 2.168404345e-19) 430
(0.04401361462 0.2556758072 0) 481
(0.02511335965 0.2698085696 0) 499
(0.05850038328 0.2668588208 -4.33680869e-19) 503
(0.06006313143 0.2781202813 -2.168404345e-19) 513
(0.07454746465 0.2512475205 2.168404345e-19) 485
(0.0653949465 0.2370877005 2.168404345e-19) 464
(0.04778039458 0.2610116533 1.084202172e-19) 492
(0.01902904966 0.2893148808 5.421010862e-20) 528
(0.05959773743 0.2628773007 0) 493
(0.04764047371 0.2630751373 -2.168404345e-19) 492
(0.05361098246 0.2558688122 0) 483
(0.03204246934 0.2710061389 -2.168404345e-19) 510
(0.0478356692 0.2741106062 -1.084202172e-19) 512
(0.07546245926 0.2765059047 0) 515
(0.05106973794 0.2906075939 0) 532
(0.06310531403 0.287664356 0) 534
(0.05413008952 0.2772623481 4.33680869e-19) 513
(0.03622438574 0.2742816476 5.421010862e-20) 510
(0.03712561184 0.2900423645 0) 530
(0.04334885953 0.1822450952 0) 381
(0.02884701037 0.2026061767 -2.168404345e-19) 409
(0.01161539747 0.1903350058 0) 397
(0.03507225147 0.2178605068 -3.252606517e-19) 430
(0.05860567137 0.1814966688 -3.252606517e-19) 383
(0.02494940483 0.2087030826 -3.523657061e-19) 419
(0.03251187078 0.1990282106 -2.168404345e-19) 410
(0.05155900743 0.1756084246 -4.33680869e-19) 372
(0.02603251338 0.1947671525 -4.065758147e-19) 399
(0.01509572793 0.2139453018 0) 427
(0.03181649354 0.2175429078 1.084202172e-19) 430
(0.03792671876 0.1865727721 -2.168404345e-19) 390
(0.07101110784 0.1806692039 4.33680869e-19) 385
(0.0479415972 0.2038725618 0) 412
(0.02993272792 0.184526944 0) 389
(0.05431594395 0.1926117597 3.252606517e-19) 393
(0.06683430771 0.2441078445 0) 474
(0.04839106734 0.2046630408 0) 412
(0.04935773291 0.2021602564 -5.827586677e-19) 412
(0.02112817659 0.2627791083 4.33680869e-19) 488
(0.05534636378 0.2325512287 1.084202172e-19) 453
(0.05840525998 0.2191537207 -1.084202172e-19) 433
(0.05704981516 0.2690710008 -6.505213035e-19) 503
(0.04712035984 0.2800123395 2.439454888e-19) 522
(0.05077122009 0.2515279729 -4.33680869e-19) 482
(0.005886872281 0.2182781386 0) 436
(0.05903981596 0.2001228351 0) 403
(0.009108635668 0.2500013471 -1.084202172e-19) 477
(0.02106666272 0.2061446071 0) 418
(0.04964044048 0.2030604595 -2.032879073e-19) 412
(0.02918465032 0.2693780467 0) 499
(0.03993769299 0.2502544918 2.168404345e-19) 481
(0.0437318491 0.2245316322 2.168404345e-19) 441
(0.01040483316 0.2422750022 0) 467
(0.04487767653 0.2344065735 -2.168404345e-19) 451
(0.0409165048 0.2705685305 2.168404345e-19) 501
(0.07471319276 0.2520748352 -8.67361738e-19) 485
(0.01525359719 0.239235585 -2.168404345e-19) 458
(0.06794601373 0.2044234304 3.252606517e-19) 414
(0.04522089017 0.2619928604 2.168404345e-19) 491
(0.04996368196 0.2237279658 2.168404345e-19) 442
(0.02800088382 0.2940525145 0) 539
(0.06196608809 0.278195296 -8.131516294e-20) 514
(0.05510736247 0.2794057314 -2.168404345e-19) 523
(0.04075768471 0.275091409 7.318364664e-19) 511
(0.05669341872 0.2662605999 -8.67361738e-19) 503
(0.04237812789 0.2836387565 -5.421010862e-20) 521
(0.06011941771 0.2632133213 0) 493
(0.03929593138 0.2786199511 -2.168404345e-19) 521
(0.03975640714 0.2815599595 2.168404345e-19) 521
(0.02250568622 0.268459234 0) 498
(0.04397034579 0.2843641627 0) 521
(0.074737122 0.1897260389 4.33680869e-19) 395
(0.04576717247 0.1961824343 2.710505431e-19) 402
(0.06762355413 0.1985529213 2.168404345e-19) 404
(0.06605185994 0.1836708287 2.168404345e-19) 384
(0.06358929805 0.1882512466 0) 394
(0.01049858618 0.1973229322 0) 407
(0.003739199908 0.2163965921 -2.168404345e-19) 426
(0.06408719694 0.2277162948 2.168404345e-19) 444
(0.05741940041 0.2063965352 5.421010862e-20) 413
(0.05946958364 0.1972213221 0) 403
(0.04607464376 0.1728810792 2.168404345e-19) 372
(0.04405600298 0.179057776 0) 381
(0.0528988024 0.2207615837 -2.168404345e-19) 432
(0.01732316802 0.2004378236 3.252606517e-19) 408
(0.05432448419 0.211218451 1.084202172e-19) 423
(0.03633529621 0.2177321711 2.168404345e-19) 430
(-0.02239491761 0.2098342142 0) 117
(0.04182214555 0.1911612177 -2.168404345e-19) 391
(0.03923468579 0.2137212451 -2.168404345e-19) 431
(0.01434953371 0.2335020333 0) 457
(0.02326544409 0.2057129304 5.421010862e-20) 419
(0.02033001261 0.2393060076 -3.252606517e-19) 458
(0.03304266321 0.1979734199 -2.168404345e-19) 400
(0.04639850615 0.236561908 -2.168404345e-19) 462
(0.03126614546 0.2124750207 -5.421010862e-20) 420
(0.05301762446 0.2167444557 3.252606517e-19) 432
(0.02943201267 0.2131517015 0) 429
(0.0134087417 0.2588508982 8.131516294e-20) 487
(0.0448705039 0.2470105142 -2.168404345e-19) 471
(0.04926294549 0.2124452901 -4.33680869e-19) 422
(0.06575539586 0.2562454038 -1.084202172e-19) 484
(0.0311030733 0.2699299648 0) 500
(0.05489120571 0.2602354876 -1.084202172e-19) 493
(0.05955088681 0.2595410545 -1.084202172e-19) 493
(0.06310462071 0.2329850415 2.439454888e-19) 454
(0.06999271622 0.2491084527 2.168404345e-19) 475
(0.0295876907 0.2546747404 0) 479
(0.02445034314 0.2701334945 1.084202172e-19) 499
(0.06408735936 0.2650843363 -5.421010862e-19) 504
(0.06731763935 0.2699335249 -2.168404345e-19) 504
(0.07499962871 0.2634120665 0) 495
(0.0197948009 0.2598361669 5.421010862e-20) 488
(0.05353633535 0.2871419035 0) 533
(0.06763845503 0.2437195504 0) 474
(0.04971642316 0.2916390714 5.014435048e-19) 532
(0.07322172669 0.2980786059 -5.421010862e-20) 545
(0.06512472476 0.2695656523 1.355252716e-19) 504
(0.06158429255 0.2897271529 1.355252716e-19) 534
(0.06354536831 0.2680227554 0) 504
(0.05265387602 0.299102402 4.33680869e-19) 542
(0.01061178603 0.2933948734 2.168404345e-19) 537
(0.02957689507 0.2904200922 -2.168404345e-19) 529
(0.05779163112 0.2493802037 4.878909776e-19) 473
(0.06649307299 0.1751616564 2.168404345e-19) 374
(0.001426335213 0.2120051539 -1.084202172e-19) 426
(0.04593369091 0.2069048823 -8.131516294e-20) 422
(0.05182503018 0.1809042293 0) 382
(0.04104857673 0.1809667368 -1.490777987e-19) 381
(0.07440838621 0.2220935977 2.168404345e-19) 435
(0.05242245614 0.1702763999 -4.33680869e-19) 362
(0.04581635071 0.1845747922 2.168404345e-19) 382
(0.0462058741 0.1872772939 -4.33680869e-19) 392
(0.04854074312 0.2232315474 -1.084202172e-19) 442
(0.0197915745 0.2745164354 -2.710505431e-19) 508
(0.0280897151 0.181785835 -3.252606517e-19) 379
(0.02553505059 0.2006761418 -5.421010862e-20) 409
(0.0543429879 0.1907086793 0) 393
(0.04940513073 0.2452811727 1.897353802e-19) 472
(0.04554357716 0.2042097374 0) 411
(0.05027179103 0.2405150254 -5.421010862e-20) 462
(0.02440724605 0.2539161922 3.252606517e-19) 479
(0.008201416779 0.2497167888 -4.33680869e-19) 477
(0.03632946398 0.2405738645 0) 460
(0.0005508952009 0.2099851074 -3.794707604e-19) 416
(0.04595907732 0.220200889 0) 432
(0.03570224543 0.1788047761 2.168404345e-19) 380
(0.04193083769 0.1951900629 9.486769009e-20) 401
(0.02131101036 0.1928235916 -5.421010862e-19) 398
(0.03354702998 0.2089460746 2.710505431e-19) 420
(0.01542666236 0.2402511973 -2.168404345e-19) 458
(0.04430422919 0.2578233401 4.33680869e-19) 491
(0.02811929118 0.2854299818 0) 529
(0.03940341138 0.1822664438 -1.084202172e-19) 381
(0.03360569783 0.2368593609 -5.421010862e-20) 460
(-0.00156465875 0.2212270453 9.14795583e-20) 159
(0.04182799549 0.2471706621 -2.168404345e-19) 471
(0.06368738751 0.2261876141 0) 444
(0.0732827867 0.278711239 -1.084202172e-19) 515
(0.04888484095 0.2654871936 -1.084202172e-19) 502
(0.03747723334 0.2687228717 0) 500
(0.05396535617 0.2739005492 2.168404345e-19) 513
(0.0447290057 0.2395669937 0) 461
(0.04282542418 0.2797203797 2.168404345e-19) 521
(0.06308650344 0.2367410361 3.252606517e-19) 464
(0.04640815786 0.2573995561 0) 492
(0.04530558998 0.2240019375 -1.084202172e-19) 441
(0.02309225005 0.2723125198 -1.084202172e-19) 509
(0.04027067487 0.2475135624 -2.032879073e-19) 471
(0.02666852711 0.2740306199 -4.065758147e-19) 509
(0.00361343054 0.2910770322 0) 526
(0.04682335201 0.2714273878 2.168404345e-19) 512
(0.064425324 0.2928849404 0) 534
(0.04129819666 0.2891189238 2.168404345e-19) 531
(0.03871147171 0.2629397118 2.168404345e-19) 491
(0.06664360211 0.2923080773 0) 534
(0.02847195979 0.2725461001 -4.33680869e-19) 509
(0.05703694052 0.2936178634 -1.084202172e-19) 543
(0.06203866669 0.2649444179 0) 504
(-0.03621052989 0.2942388596 -4.33680869e-19) 355
(0.0515945469 0.2896709128 -2.168404345e-19) 532
(0.01070626908 0.2707388511 1.084202172e-19) 507
(0.06757026238 0.2506846853 -4.33680869e-19) 484
(0.0331568935 0.1951109374 1.626303259e-19) 400
(0.05351100045 0.1852963449 -2.168404345e-19) 383
(0.06233587131 0.1848956057 0) 384
(0.03640533736 0.2059933558 2.168404345e-19) 420
(0.0563603073 0.2075426901 -1.084202172e-19) 423
(0.04925385066 0.1931638385 1.897353802e-19) 402
(0.005823245934 0.1913693991 -1.626303259e-19) 396
(0.06703972765 0.1749246843 0) 374
(0.04101958157 0.1780596184 1.084202172e-19) 381