/*--------------------------------*- C++ -*----------------------------------*\
| =========                 |                                                 |
| \\      /  F ield         | OpenFOAM: The Open Source CFD Toolbox           |
|  \\    /   O peration     | Version:  2406                                  |
|   \\  /    A nd           | Website:  www.openfoam.com                      |
|    \\/     M anipulation  |                                                 |
\*---------------------------------------------------------------------------*/
FoamFile
{
    version     2.0;
    format      ascii;
    arch        "LSB;label=32;scalar=64";
    class       vectorField;
    location    "0.004/lagrangian/dsmc";
    object      U;
}
// * * * * * * * * * * * * * * * * * * * * * * * * * * * * * * * * * * * * * //


5113
(
(1049.986051 -381.4698505 466.6732752)
(1104.353047 -203.0079476 -400.2819069)
(1818.813729 15.48088913 219.1784006)
(1062.737758 -144.6436135 166.2731002)
(1209.617331 29.74336202 35.09188797)
(1164.687251 -58.06408747 -229.5495973)
(1544.564828 394.0668723 -332.3773185)
(1386.23916 67.63840442 -332.1980383)
(1361.756207 -235.1028958 -99.84044978)
(1508.721186 126.022771 -65.72899123)
(1250.686807 -240.8350238 346.2138228)
(1346.029727 -54.84454101 43.3380864)
(1211.926186 43.30298385 382.6406701)
(1234.044975 239.7673209 -129.9479054)
(1267.046662 326.6261406 121.2614805)
(1708.256872 -3.398961 168.7360233)
(2023.070231 -146.4023628 -231.7924455)
(1568.63477 131.4873076 343.8926328)
(1150.653189 226.2079279 336.164603)
(1191.454941 179.1663265 238.8603434)
(1584.523891 -434.8849973 -435.7953147)
(1838.785167 -395.3271992 -425.1322028)
(1483.875316 97.70607449 243.025148)
(1479.389499 -110.8882502 -145.0146304)
(1918.139808 -242.8658643 -487.1593594)
(1628.956142 -118.933074 37.44917214)
(832.7170083 -136.5318499 -265.0597107)
(1941.405219 239.1765338 351.9672312)
(1906.098779 -84.01224047 211.8939079)
(1493.298392 142.4724604 116.3997504)
(1637.508232 140.1090745 371.5114764)
(1590.170943 -205.2547054 86.10045506)
(1282.764205 -143.2084213 -248.8208536)
(1584.015833 7.553438488 -235.4837277)
(1215.056301 -231.1496481 246.6305661)
(1731.117167 224.56179 -242.7296875)
(1557.319119 -417.9642143 11.07700957)
(1346.234262 -292.3028975 157.9868093)
(1532.840972 243.401437 280.7193183)
(1405.333713 -85.19922806 70.56397757)
(1385.199496 60.92177764 -236.3687683)
(1872.061507 -686.2359468 -152.831695)
(1506.969272 -309.1859692 380.2165338)
(1829.668737 50.00111133 23.48937394)
(1645.724557 -261.7019272 70.43239043)
(1794.621123 -219.9277576 141.6614624)
(1527.931144 -29.75586421 0.4214568708)
(1560.051578 112.5315563 213.7546483)
(1343.372161 73.29498637 -15.03235262)
(1681.952055 275.2238231 -95.21010825)
(1736.559434 101.1847206 189.8347824)
(2029.584677 106.9902531 -412.6232833)
(1663.989305 -617.0280873 -37.90321371)
(1558.39146 -104.6445545 -88.19285845)
(1783.778744 435.8659921 235.4262595)
(1435.452262 -719.007724 433.9679006)
(1272.959613 146.451294 -37.08868586)
(1511.632479 -4.258788488 44.59752247)
(1642.549424 -163.2716154 511.3361479)
(1491.766243 -348.3024847 -369.1903206)
(1321.260791 117.2291509 266.1382667)
(1585.802096 182.8526769 294.4190643)
(1960.179813 214.1135131 14.44592664)
(1440.184285 166.3721535 -212.2285786)
(2018.67273 359.6974781 -253.8515125)
(1225.603711 -75.88234256 -342.4341153)
(1892.536115 235.4521023 -215.3425443)
(1671.576369 -245.9124119 -786.7123156)
(1281.176501 -195.3837864 -335.7136573)
(1558.181993 -255.4123343 -360.6658533)
(1512.481905 202.5499452 -370.125167)
(1711.447064 -209.7643152 63.525632)
(1487.966051 -52.0058392 -174.6582405)
(1394.077307 -176.6815217 212.6920103)
(2127.741909 307.5175015 -328.4882314)
(1650.821034 90.77764334 -410.6056145)
(1274.02453 -203.4480403 306.6753702)
(982.7719644 456.5862412 -31.05925568)
(1590.855988 27.22964697 -429.9909982)
(1409.423974 -303.802248 300.1713539)
(1384.204865 -342.2979064 -248.2768391)
(1222.600268 -247.8145469 -77.57120947)
(1367.148078 100.1569961 173.0997681)
(1545.068643 385.3806005 350.2279596)
(2394.398349 -207.2365266 -612.7284076)
(1529.499598 -336.1115271 308.3168187)
(1583.516963 -210.5425561 366.3722414)
(1164.686545 16.46891306 253.9102509)
(1900.592004 557.7439928 -125.1132223)
(1872.896014 223.4486636 137.573951)
(1781.804777 -94.14108206 510.4024175)
(2014.047515 -170.1392217 19.92129201)
(1563.705739 -202.4145758 -490.9640134)
(1744.333817 -4.215683148 -385.6025318)
(1600.613187 -5.925344568 399.295989)
(1548.466061 -308.6364693 83.85047805)
(1626.20742 154.274281 776.1666557)
(1294.07202 185.3018163 119.4538541)
(1512.157083 176.2067549 12.07157417)
(1643.096384 -601.3111773 -198.604103)
(2443.732584 -50.71681823 -262.7315394)
(1551.862243 706.2136904 -115.1219762)
(1891.53364 573.8481025 101.3456377)
(1766.283091 -36.04399415 -296.835665)
(1202.788338 15.03897238 251.2757626)
(1742.880118 -312.9715143 406.3373496)
(1504.875217 -56.67286992 -497.6271379)
(1852.237586 112.9965665 636.7014092)
(1330.159804 -366.0231186 -71.41464659)
(1916.959247 204.2401192 636.910143)
(1878.161392 226.2721909 -73.04422422)
(1270.227364 -391.6842932 -642.5001877)
(1489.725571 -712.0535459 273.4802739)
(1427.894756 -88.58925769 -289.0791846)
(1620.047412 121.1884154 204.7413916)
(1490.887098 -82.72372193 431.142724)
(1502.53172 412.1470775 233.9723657)
(1568.390587 -189.1208722 370.6453204)
(1361.466643 -316.2881955 54.20548512)
(1505.684 31.0304953 -67.83805345)
(1934.923028 94.83981552 -249.9556021)
(1336.969487 -273.6036824 -252.9863622)
(1759.540894 -33.16740047 -372.4444058)
(1621.39828 740.6642035 407.1908653)
(1633.417896 139.7521283 -76.64786759)
(1383.436336 -428.3844277 3.664653363)
(1327.532523 -363.0457538 -196.6820148)
(1320.57016 345.6509428 -125.498602)
(1907.672757 286.637847 -266.6443962)
(1566.101944 -224.1446279 -198.1097954)
(1693.597682 -709.5901465 175.8104381)
(1679.903948 422.0211435 -427.141835)
(1672.543052 -194.2362232 -2.27124536)
(1575.886759 83.33602454 -66.60230742)
(1231.116896 -509.0013822 124.540087)
(1981.733367 -383.7285037 -187.1715791)
(1664.515672 269.9347453 -187.1644321)
(1728.340264 -135.0144439 81.09276702)
(1467.477148 226.6442072 24.10257428)
(1680.153407 209.6460361 494.3077606)
(1688.933453 33.36340613 159.0292597)
(1602.837141 -103.2960283 422.2529619)
(1434.030218 -437.4067376 269.6403148)
(1611.071909 137.6728722 398.6869311)
(1653.895202 -371.2312072 -37.09558076)
(1807.391722 265.6684707 -27.63901547)
(1340.74152 -357.5040536 531.2186362)
(1457.975819 -9.464584206 87.47173784)
(1774.325196 26.82501985 33.14123881)
(1537.741917 369.8011553 415.7465734)
(1796.447935 -32.11916116 262.3141553)
(1631.204015 -354.1330307 -237.8908993)
(1843.094677 -297.8471439 -77.00557899)
(1669.607484 941.6559418 -248.2466461)
(1229.624284 -160.2628852 91.89681179)
(1649.54352 110.1205536 10.05337642)
(1585.199684 -261.7914448 -116.7554788)
(1800.487387 255.2958303 39.5375786)
(1142.100372 -246.5921421 298.752903)
(1446.230984 129.4490251 -35.83164905)
(2240.45174 -48.40495035 -329.0687398)
(1175.380401 -60.44041442 349.8433948)
(1676.621195 -102.6404607 228.5572774)
(1384.459957 -25.51255217 321.49019)
(1655.232107 4.687091764 33.55502239)
(1741.271755 115.002321 -221.1441977)
(1463.502321 -142.2515605 -215.3383113)
(1181.583901 -276.1670422 -162.311264)
(1524.08577 652.5741774 137.0740011)
(1731.824748 -27.27914925 178.3412389)
(1613.134726 -618.6323665 125.4159886)
(1681.193397 77.10591229 212.5389866)
(1744.785892 9.404985378 84.10800743)
(1253.055744 -20.82918397 -10.0532112)
(1689.784743 147.6612801 -218.5502087)
(1408.88114 20.87571108 -13.23980388)
(1412.532165 265.6344488 -182.018557)
(1186.79829 289.6852454 -32.57775905)
(1582.451033 -23.95112309 -105.670995)
(1631.914811 -275.5634843 -131.4887397)
(1428.015153 36.68320733 -189.3900471)
(1320.574895 -104.3890153 101.5071197)
(1745.934784 54.25321328 -317.9416792)
(1678.15165 236.1615654 -279.081316)
(1614.040892 53.80999468 -696.2429575)
(1188.00944 69.03576724 -114.456979)
(1578.1375 -92.36348121 -180.2469369)
(1091.896367 -72.17384212 -94.65391689)
(2376.966135 90.96462587 -348.3870795)
(1382.705978 -111.0017485 -97.73514579)
(1709.506043 582.6114342 -12.77445928)
(1392.146047 195.8802137 226.0851577)
(1894.71323 214.452323 354.727076)
(2072.197179 -72.00027837 -19.72924591)
(1767.614143 205.5861906 75.26882041)
(1905.668092 -450.1531265 -186.5700417)
(1506.28363 -28.74947864 54.39320816)
(1476.742496 77.56433783 -320.6959345)
(1601.515265 -105.3579072 230.8857699)
(1944.357421 48.34894332 -197.2217522)
(1574.19111 324.2120753 -599.1320681)
(2086.918684 -372.324791 -344.8587128)
(1567.581214 736.3230536 240.9440432)
(1631.974028 -46.96072625 -161.5390471)
(1529.805887 -2.575277765 -293.9142799)
(1654.056419 174.2283775 26.53766726)
(1779.118158 264.1855803 -137.6420436)
(1466.163406 16.21281738 650.1512803)
(1681.921884 -269.3981573 257.849415)
(1688.462261 -149.0355686 209.7633889)
(1738.886998 44.51204396 199.4587998)
(1837.977674 -380.3330816 -40.65499761)
(1576.506793 91.09418557 -14.71914263)
(1552.496146 -291.8403434 639.1353434)
(1820.73801 -249.3712866 230.721187)
(1315.716234 -480.4593324 -137.0316087)
(1887.277566 -387.1682251 307.9800639)
(1824.447592 -65.74989099 -165.0418643)
(1471.773999 237.5525809 86.29338519)
(1583.162242 -146.6137831 198.0101035)
(1470.89051 83.23350079 245.14248)
(1463.385892 79.26273875 166.9731448)
(1489.249987 -60.25793147 449.1283202)
(1694.833325 103.7303572 449.6142598)
(767.1774521 121.2100534 -25.5701946)
(1865.283901 -11.02367934 -154.8886625)
(1996.611302 152.3072759 157.1181497)
(1219.994642 -215.34594 394.0862052)
(2069.371072 106.1616952 303.5377972)
(1377.836325 -231.562893 689.1038192)
(1558.612472 72.12449543 -195.4502509)
(2052.075964 42.51421601 359.0418927)
(1727.186369 -485.0349564 233.7679123)
(1436.005504 259.0175538 -385.5345525)
(1531.169895 -256.0010562 -384.5935967)
(1802.519807 108.301692 -286.8506153)
(1565.038855 701.0382634 -225.9792153)
(1543.838447 55.19152307 97.57483999)
(1260.541837 -288.7380122 -382.1778572)
(1733.499806 354.9231507 -72.71843383)
(1769.471147 -164.8643116 -348.1188095)
(1791.031187 277.773513 -84.80395552)
(2082.080329 -50.46333471 129.5301473)
(1574.36954 -34.89837302 -349.6577446)
(1478.963412 -96.44972312 -518.084988)
(1609.1551 258.247795 428.526942)
(1600.916153 57.65168736 18.09279531)
(1019.614955 -345.5249077 634.3640698)
(1998.518271 -3.765352269 -10.83564494)
(1889.93165 165.2937966 -62.37145068)
(1667.295829 -120.9969736 -183.168311)
(1690.981461 -295.5797978 -597.4014829)
(1449.050287 498.4890776 737.5167026)
(1674.898185 90.79562599 -146.2398966)
(1540.539033 493.1506175 228.7026485)
(962.9612987 64.45678195 -81.89683598)
(1530.509219 51.0303485 386.2237745)
(1556.934674 521.085277 284.2174677)
(1563.685914 -82.45856867 108.4482364)
(1497.078513 -298.9291589 -175.9924559)
(1380.932071 -71.7015517 45.06422544)
(1483.208966 -145.7315249 -226.9473754)
(1723.653291 264.605201 -263.8306071)
(2097.708695 -433.6629043 11.40396228)
(1492.064026 -489.7935691 396.8609712)
(1474.889319 -100.5244836 43.40909715)
(1818.983632 -283.7248506 -193.9922266)
(1749.090342 -219.5578826 -188.5185793)
(2010.925369 -606.1257214 14.5810457)
(1655.495709 -158.5568247 -144.7116346)
(1516.180075 420.2127266 -19.80592856)
(1727.650014 232.3667007 -209.7410399)
(903.6085893 -450.486461 -254.2648143)
(1827.254311 77.33602675 234.9628723)
(1764.68536 -6.676714612 157.5088772)
(1355.077602 -279.7596238 -32.56878165)
(1365.485386 112.1061606 -162.3223773)
(2030.85873 284.1092617 -93.04075695)
(1724.444766 167.1619492 -212.3926424)
(1635.393268 395.4881658 360.7356605)
(1634.539589 367.1223007 -358.4313849)
(1710.25689 302.119632 160.2393055)
(1913.040929 -206.0198595 -310.1453709)
(1575.38906 -577.1140829 -394.4936713)
(1920.286672 39.36185365 471.8830375)
(1863.219251 -94.40560567 -211.1609301)
(1794.612578 119.8366948 -24.55713067)
(1476.846321 384.6039123 -240.7213657)
(1623.409237 -282.7243166 -200.3668122)
(1392.910667 277.2814006 -72.39646145)
(1115.086125 3.288320128 258.9714657)
(1730.506174 271.5791734 373.5522151)
(1580.409832 -188.3598292 -483.1944762)
(1967.056626 -307.2458724 215.5729021)
(1709.451912 167.0208243 18.1088204)
(1972.48884 61.37937099 -176.0959758)
(1617.976064 -575.8198667 386.0219127)
(1628.3578 82.62312505 126.0046914)
(1763.589041 254.3120035 426.214961)
(1614.886926 -89.03898411 -644.1410854)
(1435.448791 -281.1274508 -188.995504)
(2045.636176 582.7682638 -135.0663535)
(1185.272636 -38.70987047 -170.3740297)
(1341.07243 458.9173282 -43.64323094)
(1191.738218 -118.6765773 210.8555104)
(1876.139489 198.283047 102.7495313)
(1174.187086 -582.3991899 274.5923177)
(1631.478377 -28.70398665 65.53024942)
(2193.983708 215.1309408 -62.55411625)
(1905.07843 -95.38719268 217.0942103)
(1699.754681 172.6909134 275.7036178)
(1346.867024 328.5008615 182.729773)
(1325.109527 160.7799536 -255.674981)
(1792.695567 -1.338777485 469.2102127)
(1728.382788 -511.8704435 -255.5443756)
(2277.352259 112.9490709 192.6570693)
(1657.444986 153.6061799 -30.34160505)
(1844.494114 169.0731143 -613.6614682)
(1186.320336 243.3407786 -124.8427992)
(1492.945236 -97.87277486 12.03297862)
(1678.229501 -5.399080237 -285.1672395)
(1680.023451 -384.5943947 -43.7320492)
(1705.318786 -94.75330041 -358.5036734)
(1780.830417 -21.14869703 -91.27350936)
(2116.357405 407.6709025 -374.58629)
(1702.113455 124.4736602 105.9484944)
(1759.15713 133.8014895 663.7925033)
(1710.76956 655.1581958 126.3656446)
(1779.371816 90.00263395 330.2643906)
(1347.893257 -581.9849199 149.7764508)
(1561.767747 373.6608856 -94.34395561)
(2492.169586 454.47508 -137.5954637)
(1469.084016 -61.97191636 -224.2593087)
(1446.009004 -64.46205686 368.9789328)
(1774.793979 -564.1058871 -17.73723429)
(1363.820848 -500.2998213 -149.5984963)
(1460.14422 24.25931587 -33.99126375)
(1669.56448 -665.5132795 -229.2643334)
(2171.075827 -23.10333029 190.8440045)
(1518.351225 -332.2669963 -242.6955795)
(1740.131053 -33.59823063 -7.450375066)
(1738.751279 180.8373836 197.6778464)
(1377.077794 424.2726665 244.9311028)
(1526.601897 146.7344052 220.6790248)
(1719.211032 -95.56872094 493.9373499)
(1611.43583 118.1865346 352.8840596)
(1851.90551 -296.1163908 -118.7900655)
(1488.99715 266.6867043 115.2124003)
(1321.530889 -319.0507452 -281.1368672)
(1641.313153 -443.0136922 185.9606795)
(1530.891088 -118.0200114 133.1113155)
(1880.111648 -173.6743466 26.7882608)
(1230.351204 96.90026751 268.2147304)
(1837.886176 -1.359036549 509.9550195)
(1880.430326 -221.0530878 198.843926)
(1348.863642 -73.76203951 -379.1211077)
(1769.593042 590.8048762 -219.776199)
(1578.016378 7.341216455 -56.185377)
(1612.348134 197.074636 308.9513647)
(1225.430201 -303.6264048 111.8735269)
(1345.639206 260.8024645 -478.3921022)
(1291.333518 316.4078816 145.494218)
(1627.417007 -211.27133 -84.7965589)
(1690.59849 70.78937555 -211.108464)
(1122.270981 -161.4743598 548.9794106)
(1781.039843 -21.09662247 -95.65781522)
(1232.525306 -60.42435173 -319.4434956)
(1877.05194 -48.307208 27.08055365)
(1676.317714 141.6028953 83.45103674)
(1457.71024 -368.2738617 122.5632965)
(1594.303888 122.3795214 -140.6931762)
(1750.035486 123.1330009 -76.58463568)
(1599.638017 154.5677006 -58.1716848)
(2206.516114 37.89617138 9.921351017)
(1323.685351 -83.21126705 -441.1516981)
(1464.666691 191.0463225 38.39236085)
(1584.606604 384.1952112 168.5866297)
(1853.555822 -218.6174847 -632.440452)
(1984.31521 94.98972228 173.7840137)
(1416.076632 -331.3866447 -314.7367474)
(1544.055863 263.7921776 225.5704604)
(1781.369834 107.3705924 -342.9724182)
(1955.064395 -257.2625439 188.9768574)
(1466.039352 -129.9354122 -200.0633709)
(1484.44113 -405.66175 73.01528952)
(2700.603969 71.06784545 -164.2386406)
(1808.732803 -142.6640992 1.729409366)
(1633.551032 78.75022968 392.2076968)
(1872.761676 171.426249 -57.88898254)
(1891.454113 250.481553 -449.3220369)
(1652.27546 482.6844887 904.2300103)
(1576.185492 205.6002396 206.8229622)
(1433.139743 -70.5693818 58.32027136)
(1275.916013 -115.705815 250.3544909)
(1572.991387 -576.3274786 -538.2773304)
(1507.233394 243.3913025 -259.0599421)
(1645.710697 363.9875567 -277.836844)
(1608.895952 157.1284188 86.30728063)
(1697.100065 97.85387109 -137.2177134)
(1897.085201 154.6833629 -293.8623293)
(2064.881148 68.39157293 62.28701669)
(1822.35151 245.9704576 -66.1682299)
(1652.97497 -217.7694487 -87.0483908)
(1513.913682 683.587204 -186.5329357)
(998.119521 -9.055889613 133.9250719)
(1714.669734 126.3988835 229.2708004)
(1672.377014 -112.4496136 3.29923756)
(1432.863642 -139.2869126 4.096646944)
(1546.609993 -437.494312 -311.3180299)
(1644.920354 231.053064 -255.1104628)
(1489.319613 189.121643 -585.0014393)
(1462.216551 -69.60216093 -104.9959363)
(2272.222374 -171.6344962 184.4949015)
(1664.816717 -206.5198399 33.42154259)
(2001.815732 -96.09493594 -215.9276395)
(1874.642586 605.0095116 -84.12560483)
(1159.992092 304.5244292 101.445818)
(1596.377922 229.8411312 -251.9646448)
(1398.957446 170.9239119 150.9297814)
(1418.180068 49.44245035 -191.0446431)
(1593.964372 9.052123411 129.0342196)
(1614.525529 265.1732362 203.8103146)
(1788.828017 63.82914198 -304.8298831)
(1792.405279 492.4442143 57.73575146)
(2032.478989 -457.2961164 280.640617)
(1533.424037 -37.70301911 -63.9044021)
(1257.757321 -35.1026838 -235.523782)
(1458.519957 -18.71461111 -2.754888488)
(1896.195722 -244.4216648 -38.18079591)
(1813.27874 277.661384 90.47519291)
(1541.9166 -418.3230622 60.15770595)
(1989.566057 -324.3381886 -64.24355207)
(1404.897556 -221.4868743 -33.36650985)
(1773.395777 64.78359279 58.88891474)
(1465.583385 -354.8336622 -157.7952132)
(2088.376268 -111.1420608 420.4152218)
(1867.082713 822.3614593 -333.4165289)
(2154.721998 215.7249221 -413.2577559)
(1613.694106 -220.2729646 35.00750924)
(1041.453954 155.7587403 429.4543284)
(1358.414644 89.88978168 267.5157702)
(1071.546414 516.5435434 -397.3330783)
(1775.803359 -359.9635741 -156.9597672)
(1657.225498 402.4135354 151.1802324)
(1873.147661 482.0264509 137.1111467)
(1700.675321 -243.8105232 -57.33633669)
(1597.688526 -124.2200623 93.87994809)
(1526.249121 284.5804537 -295.7769381)
(2029.328256 -285.1001909 -65.02353799)
(1633.028968 53.72395826 -0.5381019243)
(1463.714441 219.777895 -163.4027596)
(1526.844646 267.9957589 11.30255014)
(1721.01101 -35.74532146 -169.1079196)
(1747.536518 -587.7039513 -245.2099309)
(1674.172031 -141.0399996 -7.637040924)
(1784.409071 0.3952879075 -442.0630689)
(1871.233418 -103.078878 -133.2347383)
(2011.48311 -275.0929653 38.3873806)
(1944.995577 -85.08359303 604.749816)
(1377.342688 -552.7299119 -33.74701133)
(1299.840653 1.391111915 -66.00998846)
(1440.976734 374.2752627 -35.498513)
(1965.685852 -374.1644488 -157.7854526)
(1551.67101 -273.1543786 124.4078538)
(1988.242377 127.0647054 32.88157376)
(1790.401256 -45.97388438 129.6534194)
(1908.818046 190.2981987 91.33741077)
(1606.868413 88.77468013 -467.4014079)
(1305.750683 -125.5095803 -185.4673836)
(1556.56629 441.924896 286.3813685)
(1351.360799 262.5107059 -129.7736121)
(1640.609724 659.8955438 217.4831112)
(2348.388627 -45.69990881 -17.09400719)
(1620.236466 490.4705406 223.8757775)
(1874.433394 540.5459899 -291.1916981)
(1927.062352 41.12944455 335.050784)
(1453.673522 348.9495573 511.5494161)
(1418.630798 202.1338675 -25.81399124)
(1404.051512 505.6722695 438.8987339)
(1697.13572 -153.6968943 275.1414538)
(1613.270253 311.7361734 -302.4582428)
(1201.508897 50.81530403 187.0101136)
(1536.783833 -86.57750925 -23.18144061)
(1738.38868 -102.9652888 -503.2423134)
(2077.432342 221.4516716 -280.5431286)
(1731.129891 75.84053812 -705.3223646)
(2059.718916 -337.0167495 219.6633322)
(1496.104971 471.829184 -312.5267405)
(2091.847075 224.7283288 134.6132758)
(1675.324519 247.2785011 -45.97090895)
(1544.128024 53.31508338 476.7594679)
(1550.233282 502.1075084 332.9593035)
(2052.511347 492.4101666 106.3097159)
(1286.756247 -98.01735279 443.3002147)
(1805.103687 -625.3778242 549.4060618)
(1477.989418 280.5580023 -14.02739795)
(981.9213891 422.7027921 47.69826183)
(1697.359526 -321.6949712 -180.0974943)
(2296.060414 -244.0450661 -250.1658374)
(1597.913001 233.7949718 9.434306211)
(1793.849897 -591.3293593 -289.0341178)
(1649.056512 6.997992411 -437.9190731)
(1793.13621 54.69102597 45.37806559)
(1666.694007 195.5796028 41.59342901)
(1863.743943 191.6799804 -81.26753365)
(1537.384928 -346.3457961 -6.353294191)
(1686.593265 -720.7028757 681.811705)
(1479.819285 -439.2587343 194.056277)
(1631.759011 -875.9947828 -75.55817843)
(1669.492906 179.111742 -63.95070215)
(1801.638124 -78.84231259 320.1937685)
(2063.784257 180.6829606 43.27534533)
(1997.528503 -547.5824439 -7.237642182)
(1886.488995 -220.2628598 -37.5483491)
(1861.851594 -13.59077395 284.3095363)
(1567.336381 -236.8828357 -534.075396)
(1971.937299 50.31315348 -70.37400156)
(1602.244851 -99.368857 18.9711744)
(1318.54685 -157.2586647 126.8590034)
(1642.041251 -370.8407569 346.0562007)
(1899.768354 609.8608963 -160.600615)
(1759.094332 151.2354431 -78.0714958)
(1477.603356 -205.0885231 116.5689876)
(1857.612751 323.4126811 -245.6151656)
(1458.284612 -451.8263302 47.01621143)
(1425.157446 114.0787964 -99.24950293)
(1503.503647 -430.1635574 46.15575084)
(1690.003599 464.6786713 6.765284674)
(1980.938498 255.688684 354.3789322)
(2020.052649 79.3250442 246.0297509)
(2215.682611 -384.767912 -96.93975852)
(1670.317598 -165.2303539 -121.7359201)
(2080.532175 188.3222493 123.968218)
(1693.667574 227.7969965 -99.72260152)
(1690.813423 83.03933584 257.0533936)
(1437.635478 300.2814276 -118.9577047)
(1133.212335 -5.67314215 -580.2489236)
(1660.039199 131.4173787 394.2566688)
(1317.322967 19.06525792 -35.53113564)
(1502.694053 161.2627812 170.9743677)
(1541.100387 -163.4848455 34.5715196)
(1684.402701 247.8403244 291.0849917)
(1211.111458 367.064517 -326.4664772)
(1665.723572 319.4396768 -297.7028499)
(1512.37031 352.4644895 -403.6411961)
(2070.933641 -38.10666268 -46.91147264)
(1947.098994 -314.0281302 111.9477438)
(1525.5679 -29.07512429 -17.38486389)
(1755.789682 -389.8241472 -403.6719195)
(1694.415954 -106.8561199 347.4328119)
(2057.109178 265.6243647 230.3463362)
(1601.333258 265.1523445 153.2590125)
(1931.170575 -432.3118823 89.23600324)
(1820.459606 258.5373293 325.0598107)
(1513.270447 -1.535168794 98.26076063)
(1685.796155 109.2172118 -235.5220481)
(2056.750078 -311.2834535 505.812477)
(2069.777489 -466.9504943 438.7087383)
(1984.159699 23.44652897 -28.933743)
(1600.132203 451.3872229 161.4328094)
(2170.302129 52.36580642 483.3251909)
(1850.999937 -83.52406795 492.2815649)
(1841.134156 -313.7174253 -94.55357025)
(2082.463218 -351.2125271 -42.76721872)
(1951.076892 183.2211841 44.19605563)
(2115.179696 76.04368531 -146.2481202)
(1766.800257 -362.6050121 -414.6920981)
(1971.074324 -3.306702065 -354.7191033)
(1557.838177 -60.9676629 175.5341627)
(1263.215337 -40.00718989 -172.2419749)
(1412.453441 7.282238186 -72.35909832)
(1698.211525 -104.5462412 -284.0661825)
(1671.742209 -279.6046887 -37.71229113)
(2192.702799 -121.2417399 570.363169)
(1485.956497 784.5128268 -312.1327738)
(1736.53725 198.0607537 302.0032175)
(1858.759813 -354.3623234 -362.6862614)
(1498.375489 268.0243372 137.6282812)
(1801.144009 217.8273337 -198.0886958)
(1244.058256 -123.6908353 -346.2113547)
(1769.967417 -27.71221886 -351.8208538)
(1775.639688 -64.51845424 278.612298)
(1918.816972 96.64229355 -284.6344891)
(1908.785755 762.0922557 -30.94856835)
(1499.726156 -535.9071875 190.8864938)
(1451.338365 66.97584531 80.20556054)
(1846.098106 -145.4836344 -205.2309894)
(1413.412129 374.7527839 102.257186)
(1224.023266 239.5999024 105.3825058)
(1845.805837 396.1352201 -354.4540635)
(1885.349759 32.23871123 -372.2951012)
(929.5096616 -123.7450361 -33.62954755)
(1746.416673 -631.974532 -91.8396416)
(1467.414061 122.4752032 -103.9123171)
(1913.985971 -158.1649396 55.02073973)
(1885.985275 -345.9271741 -100.6628474)
(1735.275337 -234.1788528 24.38789638)
(1869.504388 -107.9152619 -77.78275096)
(1702.504723 -214.736143 -125.9587165)
(1394.950442 82.33658602 141.5653755)
(1772.905595 203.6928561 -205.0064564)
(1506.105305 -43.43523496 389.8785616)
(1857.453091 210.643624 -173.495759)
(1651.161535 -51.49429034 -20.2150557)
(1496.190964 -202.9436299 -313.5258457)
(1285.358843 329.2498085 173.9252914)
(1604.908866 -413.4085563 93.86931581)
(1678.517737 210.8305615 -80.00887499)
(1504.125767 316.6931886 240.3833655)
(1609.21581 -142.0662749 63.27820746)
(1854.558344 251.4380284 381.8384757)
(1645.390579 214.1580036 464.3326179)
(1799.620839 80.76539292 -283.7448631)
(1636.729225 -309.333836 203.6426802)
(1761.123445 -411.6300795 119.9739137)
(1459.062248 -289.7008428 -19.21916742)
(1481.295991 51.85705346 79.4577151)
(2016.264351 -439.358286 -321.9736673)
(1625.915373 274.2012562 -242.3886995)
(1988.539643 135.1097773 -124.2945175)
(1718.878451 115.3712109 -428.2923831)
(1956.228843 246.6563401 -271.7539907)
(1728.752682 75.95886809 216.7702428)
(1841.746418 -154.9993651 -163.5696635)
(2077.262715 392.9545637 -18.46592383)
(1232.9991 -97.17744004 273.7629755)
(1676.915988 339.5904379 -92.3431184)
(1847.440211 -260.8198079 -162.3734286)
(975.7697731 210.1624544 67.03294321)
(1601.033139 103.2094233 -396.2287414)
(1249.625805 -453.2213438 100.2233836)
(1842.713252 -455.5574248 -459.8169492)
(1784.701658 119.5611002 460.5128048)
(1567.229401 319.9878564 -63.53215819)
(1731.503746 403.8109866 109.3262172)
(1648.139358 707.5626577 -177.8940923)
(1766.46938 371.084783 -203.2942852)
(2173.129451 271.9988192 227.948501)
(1270.513013 159.4347076 -940.2454854)
(1938.826659 -147.2140184 39.24722348)
(1724.668496 -337.925988 -118.3343661)
(1621.216701 461.7327952 -71.85517521)
(1977.077851 99.21401699 53.62452163)
(1906.927107 33.8893446 116.7569134)
(1911.164429 193.0891557 -131.0781858)
(1308.40193 373.8064176 -122.7021119)
(2308.311659 1013.932107 97.38657367)
(1951.833671 347.5304979 7.056453716)
(1865.810672 62.58112961 -263.4125696)
(2072.27462 -217.6901357 286.1490787)
(1509.783567 -87.66055488 -283.7921365)
(2055.98895 33.77370493 101.7379326)
(1707.070675 5.428058143 -467.8246563)
(1935.096264 314.7750938 -236.5784654)
(1374.225461 49.24033237 13.06109059)
(1993.640531 379.4434551 264.0696167)
(1269.726446 380.2430895 122.4939351)
(1925.891334 272.5033964 -285.6891841)
(2059.912089 249.1950868 503.6699017)
(1763.124224 506.1878222 -194.9052718)
(1595.424716 169.9140548 264.8604091)
(2079.956942 423.8528328 -217.2373938)
(1793.628412 -317.0535036 -20.25702001)
(1707.796989 -139.6805919 25.28936583)
(1283.583885 369.4623896 -405.2770047)
(2282.88145 158.547725 -67.48724773)
(1271.276472 -273.2955208 -125.0101146)
(1529.924303 -98.06300255 -429.1480179)
(1666.886567 -398.6188439 -816.6680414)
(2050.296949 -287.9687417 -237.1700438)
(1844.447735 -22.18229961 669.2610211)
(1492.513624 -152.8744915 -127.6694514)
(1520.495567 -241.1108259 292.1207135)
(2094.97003 101.3982391 -145.9212042)
(1281.469336 76.02413006 905.2969284)
(1835.832024 -15.86784078 165.8653403)
(1617.665863 -49.20471163 288.2188444)
(1757.283387 49.05328447 482.4673783)
(2037.615859 -201.494714 538.1201633)
(1111.174866 290.3012129 -449.3591788)
(1532.00187 -306.2989769 -329.9265472)
(2152.576864 184.5463685 82.94859867)
(1458.283432 207.5127916 395.1611214)
(1387.365509 134.5452565 26.28988027)
(1098.786245 108.7992404 -190.3479835)
(1367.175909 -616.3582439 -406.3221817)
(1684.024254 -104.6867361 -62.69086494)
(2158.323532 94.61685819 97.81597368)
(1327.173472 -21.18614022 -53.76964918)
(1673.619108 -195.9142037 148.555034)
(1830.806123 565.9305961 894.0657342)
(1566.82634 196.6539558 -125.0965728)
(1843.782632 -423.9514861 -447.9991712)
(1751.668266 320.3981918 239.1331949)
(2066.829884 145.7832336 -57.05139505)
(1671.309014 -567.8782777 119.6304951)
(2030.667634 52.47093566 -197.219781)
(1754.833079 -49.01078297 -183.6769434)
(1532.915603 -335.3776216 95.56404904)
(1896.517042 174.5494411 4.733944037)
(1915.832287 546.0344073 -180.1538903)
(1923.187971 22.0117767 510.7350627)
(1350.343517 59.22537634 635.0279926)
(2149.445749 115.0354486 33.45321572)
(1863.991629 324.1461057 -210.887611)
(1903.985911 -92.7237508 -9.250065545)
(1809.487202 -284.0498738 -30.04571648)
(1738.529874 -213.511929 -284.4102492)
(1991.054193 186.3214935 -884.5164721)
(1441.186501 173.1178219 -131.7265649)
(1640.528041 251.7519877 -95.50396549)
(1493.776677 289.9271382 17.65697986)
(2041.668033 -219.0274724 -190.0048058)
(1929.693581 -210.9034184 -628.1079162)
(1809.491159 125.2490311 -401.1870444)
(1488.006629 -227.9999616 -298.3765497)
(2102.004265 244.7144694 -432.7377883)
(1643.0648 8.302781942 -61.24363169)
(2178.082354 236.8836754 -108.9913395)
(1938.148156 152.3237022 111.4180077)
(1710.138239 -342.9723941 -186.559713)
(2151.399595 115.9340708 -215.6155813)
(1078.640435 -104.4267454 -71.34690651)
(1297.070299 -329.0933085 -41.92059764)
(1900.316025 -306.3340194 -63.44133092)
(1974.446917 176.3350815 344.112061)
(1701.570144 438.7045795 265.7081709)
(1762.195878 88.485363 261.0304851)
(2094.987407 408.0592489 -468.7803762)
(1409.968556 -329.2485778 -197.640444)
(1571.703004 518.5315347 508.8848158)
(1646.717589 83.73070486 41.387894)
(1805.622659 209.1222117 -113.967299)
(1631.086533 -50.41752621 458.8739294)
(1564.352468 236.9949414 -277.802024)
(1461.066471 -537.3686419 -137.8646109)
(1514.311158 371.5256284 164.6863793)
(1761.839316 -106.4927544 -639.9479612)
(1878.022554 290.4815597 423.538899)
(1559.614592 273.1836908 122.0537232)
(2229.026731 -67.64996858 -434.9699918)
(1831.801653 138.0202099 300.5604179)
(1481.390159 378.6647562 49.94805911)
(1740.788806 -272.4195018 -561.9558631)
(1381.681958 -298.8875665 -287.1099213)
(1882.837098 -249.4840187 5.912013081)
(1524.171122 116.7765351 226.5759286)
(1519.055117 -200.3467058 -418.5906751)
(1467.25023 -68.02570644 -343.3914723)
(1332.949398 85.16874824 229.3148303)
(1569.434353 328.68858 -376.2190325)
(1567.860604 -427.8044369 -398.4907693)
(1949.235917 108.0940672 665.0265542)
(1494.515768 -251.673934 192.3408344)