/*--------------------------------*- C++ -*----------------------------------*\
| =========                 |                                                 |
| \\      /  F ield         | OpenFOAM: The Open Source CFD Toolbox           |
|  \\    /   O peration     | Version:  2406                                  |
|   \\  /    A nd           | Website:  www.openfoam.com                      |
|    \\/     M anipulation  |                                                 |
\*---------------------------------------------------------------------------*/
FoamFile
{
    version     2.0;
    format      ascii;
    arch        "LSB;label=32;scalar=64";
    class       Cloud<dsmcParcel>;
    location    "0.011/lagrangian/dsmc";
    object      coordinates;
}
// * * * * * * * * * * * * * * * * * * * * * * * * * * * * * * * * * * * * * //

6135
(
(0.6894678578 0.1082788127 0.1552660711 0.04698725837) 443 869 2
(0.6280268679 0.185986566 0.1650594409 0.02092712512) 533 987 1
(0.02656702625 0.03838241832 0.4867164869 0.4483340686) 203 397 2
(0.5498290961 0.225085452 0.03728444828 0.1878010037) 322 631 2
(0.1298463756 0.4350768122 0.0644438299 0.3706329823) 443 810 1
(0.009686529496 0.2275606135 0.4951567353 0.2675961218) 171 335 2
(0.3414727519 0.329263624 0.06702432372 0.2622393003) 259 507 2
(0.2141462608 0.1067431286 0.3929268696 0.2861837409) 168 329 2
(0.4997015043 0.05173311763 0.2501492478 0.1984161302) 30 55 1
(0.3505310644 0.3247344678 0.0545597608 0.270174707) 111 158 1
(0.1114446129 0.4442776935 0.3735261693 0.07075152419) 262 511 2
(0.5450058799 0.2274970601 0.0963265941 0.131170466) 203 395 2
(0.3685483663 0.1404555067 0.3157258169 0.1752703101) 412 809 2
(0.8059044933 0.06357980941 0.09704775335 0.03346794394) 203 397 2
(0.004399461305 0.1134159995 0.3843842698 0.4978002693) 202 337 2
(0.6578578892 0.1710710554 0.1444093884 0.02666166701) 202 396 1
(0.8457936561 0.07710317195 0.0371594983 0.03994367366) 292 514 1
(0.1682430441 0.2670587127 0.1488197653 0.4158784779) 293 1265 1
(0.201353447 0.1970837854 0.202239491 0.3993232765) 351 688 1
(0.07587444695 0.4620627765 0.130154672 0.3319081045) 140 274 1
(0.05210823873 0.4739458806 0.2245279225 0.2494179582) 383 749 2
(0.5584896581 0.2207551709 0.04757181768 0.1731833533) 142 278 1
(0.06069996123 0.4696500194 0.2745185586 0.1951314608) 171 332 2
(0.02376187514 0.4881190624 0.1530903961 0.3350286664) 381 748 1
(0.02855763182 0.4857211841 0.4746108606 0.01111032351) 83 161 1
(0.01164633295 0.4941768335 0.302899676 0.1912771575) 381 748 1
(0.0961094637 0.4519452682 0.1205268006 0.3314184675) 260 451 1
(0.1130455122 0.2883648861 0.1551123578 0.4434772439) 409 744 2
(0.8720882043 0.04070865308 0.06395589786 0.02324724479) 173 338 2
(0.001166887112 0.2421960347 0.2572205218 0.4994165564) 48 50 2
(0.08749997565 0.3622498677 0.09400014447 0.4562500122) 112 160 2
(0.5495972034 0.2252013983 0.1170644313 0.108136967) 412 806 2
(0.2269621115 0.1636060987 0.2229128455 0.3865189442) 293 1265 1
(0.02864737356 0.3293548764 0.1563214368 0.4856763132) 323 574 2
(0.569770707 0.05955227072 0.1555623758 0.2151146465) 472 868 2
(0.4001410051 0.2999294975 0.1706240008 0.1293054967) 532 986 1
(0.3551799355 0.1070143492 0.2153956831 0.3224100322) 81 101 2
(0.6258101879 0.1870949061 0.0361698715 0.1509250346) 563 1103 2
(0.4250723332 0.100626835 0.2874638334 0.1868369983) 232 455 2
(0.1998168543 0.2795814029 0.1205101699 0.4000915729) 262 513 1
(0.476055603 0.2619721985 0.1562616969 0.1057105016) 173 336 2
(0.2106955991 0.02927006349 0.365382137 0.3946522005) 383 692 2
(0.3764490606 0.1253904474 0.1863850223 0.3117754697) 473 869 2
(0.1722882032 0.4138558984 0.3646925602 0.04916333815) 262 455 1
(0.4887323034 0.2556338483 0.2235842793 0.03204956899) 3 5 2
(0.00204110926 0.2851005253 0.2138789201 0.4989794454) 138 269 1
(0.7121700259 0.120470577 0.143914987 0.02344441007) 353 692 2
(0.1545827586 0.4227086207 0.3911165742 0.03159204648) 442 868 1
(0.1960023221 0.401998839 0.2917538182 0.1102450208) 113 218 2
(0.2844308376 0.1848649576 0.1729196237 0.3577845812) 171 334 1
(0.5546098586 0.2226950707 0.02707056142 0.1956245093) 592 1162 2
(0.05830056852 0.1657089974 0.3051407183 0.4708497157) 203 338 2
(0.25562724 0.37218638 0.03632432907 0.3358620509) 353 633 1
(0.1081205908 0.4459397046 0.1325650051 0.3133746995) 262 513 2
(0.8461812425 0.07690937873 0.05262784957 0.02428152916) 142 277 2
(0.7457301687 0.1271349156 0.1071739065 0.01996100916) 353 690 2
(0.1931767234 0.4034116383 0.2242932288 0.1791184095) 322 631 2
(0.07787567727 0.4610621614 0.1717628285 0.2892993328) 200 392 1
(0.05874131864 0.3502626263 0.1203667143 0.4706293407) 323 1266 1
(0.7803960169 0.0006055899476 0.1091964016 0.1098019915) 260 509 1
(0.3815172023 0.2135761032 0.3092413989 0.09566529566) 15 29 2
(0.1260758921 0.436962054 0.0464126407 0.3905494133) 473 1271 2
(0.1300408073 0.4349795963 0.09415781682 0.3408217795) 203 395 2
(0.5351264999 0.2324367501 0.22871178 0.003724970073) 171 332 2
(0.08814741968 0.4559262902 0.0317391507 0.4241871395) 261 512 1
(0.2915649407 0.3542175297 0.2302762671 0.1239412625) 233 456 1
(0.6770784596 0.1271635401 0.1614607702 0.03429723012) 111 217 2
(0.4368986125 0.1947835829 0.08676711082 0.2815506937) 142 277 1
(0.2297904763 0.03069141145 0.3544133504 0.3851047618) 83 104 2
(0.2272971513 0.3310282235 0.3863514243 0.05532320082) 171 335 2
(0.1617671288 0.3751457686 0.4191164356 0.04397066698) 351 686 1
(0.1693441329 0.1685220943 0.2468058393 0.4153279335) 202 337 2
(0.2095954468 0.01272188668 0.3824803899 0.3952022766) 380 687 2
(0.226548975 0.3386350419 0.04809047058 0.3867255125) 170 332 1
(0.1938903501 0.403054825 0.2597300425 0.1433247825) 470 923 1
(0.5282658067 0.2358670966 0.09558681006 0.1402802866) 142 277 2
(0.3652488537 0.3173755731 0.05913198006 0.2582435931) 259 505 2
(0.004706182758 0.4976469086 0.3670041461 0.1306427625) 442 865 2
(0.1970445961 0.1897080121 0.2117696899 0.401477702) 53 60 2
(0.03595824449 0.06636693579 0.415653942 0.4820208778) 173 279 2
(0.1572798891 0.2434329474 0.4213600554 0.177927108) 353 690 1
(0.5943315997 0.2028342001 0.03175863965 0.1710755605) 107 206 2
(0.008400372547 0.4957998137 0.0366352622 0.4591645515) 650 1250 2
(0.4615829159 0.2692085421 0.1084739527 0.1607345894) 203 1262 2
(0.9199343665 0.04003281677 0.02609614777 0.01393666901) 173 279 1
(0.5048066811 0.2475966594 0.2445694711 0.003027188337) 473 869 1
(0.1263318432 0.2384804892 0.4368340784 0.1983535892) 173 336 1
(0.03880013944 0.4805999303 0.258505407 0.2220945233) 53 102 2
(0.335831899 0.3320840505 0.2430446245 0.08903942603) 652 1222 1
(0.05471268032 0.3068705047 0.1657731551 0.4726436598) 81 157 1
(0.4915064922 0.2542467539 0.1864778178 0.06776893606) 347 680 2
(0.1505645182 0.2528245532 0.4247177409 0.1718931877) 563 1105 2
(0.4470971875 0.2764514063 0.2408796709 0.03557173532) 259 507 2
(0.04379380838 0.1941049322 0.2839981636 0.4781030958) 563 1046 2
(0.2815579189 0.2401094481 0.1191115925 0.3592210405) 443 810 2
(0.1400011956 0.4299994022 0.1385117988 0.2914876034) 378 739 2
(0.2775845366 0.2978593724 0.3612077317 0.06334835934) 262 514 2
(0.08328009738 0.121854577 0.4583599513 0.3365053744) 289 564 1
(0.1500149792 0.4077640173 0.4249925104 0.01722849306) 263 513 1
(0.1383832733 0.4308083633 0.1752715196 0.2555368437) 83 1258 2
(0.1427539015 0.3654105816 0.06321246761 0.4286230492) 439 861 1
(0.4821829849 0.1674314898 0.2589085076 0.09147701781) 13 25 2
(0.301669063 0.04560210238 0.3035633661 0.3491654685) 201 335 2
(0.3818815553 0.306059854 0.002999368373 0.3090592224) 170 332 1
(0.300769879 0.07752690635 0.3496150605 0.2720881541) 233 454 1
(0.5010048499 0.2494975751 0.2475728819 0.001924693214) 409 802 2
(0.07747259723 0.2343942009 0.4612637014 0.2268695005) 226 443 2
(0.7866000355 0.1066999822 0.001096582154 0.1056034001) 350 687 1
(0.2730869302 0.3634565349 0.05725797175 0.3061985632) 111 158 1
(0.5394978642 0.04189293612 0.1883581318 0.2302510679) 261 453 2
(0.04718176291 0.1192807005 0.357128418 0.4764091185) 323 574 2
(0.5645939332 0.2177030334 0.08616939497 0.1315336384) 263 1264 2
(0.9075603792 0.04621981038 0.0167009299 0.02951888048) 563 1274 2
(0.1394982766 0.4302508617 0.4155160122 0.01473484946) 412 809 1
(0.484170866 0.01863856422 0.2392760028 0.257914567) 533 987 2
(0.4008009494 0.1387958599 0.1608036654 0.2995995253) 143 1260 1
(0.1616001048 0.109565954 0.4191999476 0.3096339936) 171 335 2
(0.6673389132 0.04801788329 0.1183126601 0.1663305434) 591 1102 2
(0.01329525121 0.2978281106 0.4933523744 0.1955242638) 322 632 2
(0.1254267029 0.1461981316 0.291088517 0.4372866485) 233 1263 1
(0.2434178464 0.2278303379 0.1504607389 0.3782910768) 473 1271 1
(0.8849815766 0.05750921171 0.01963729866 0.03787191306) 383 751 1
(0.5014968481 0.249251576 0.1304902062 0.1187613698) 141 217 1
(0.1217838233 0.1595603404 0.2795477479 0.4391080884) 203 338 2
(0.2192709897 0.3903645052 0.2855138955 0.1048506097) 502 927 1
(0.6225945716 0.1887027142 0.1417434805 0.04695923369) 470 920 2
(0.1746560885 0.4126719558 0.05239383766 0.3602781181) 203 1262 2
(0.1005193317 0.4328308203 0.4497403341 0.01690951383) 172 334 1
(0.02831538167 0.4858423092 0.3980615824 0.08778072672) 621 1219 2
(0.1580625632 0.4209687184 0.1501988281 0.2707698903) 232 455 1
(0.01804927244 0.4909753638 0.1081333727 0.3828419911) 110 212 2
(0.3278342226 0.3360828887 0.1093027246 0.2267801641) 170 330 2
(0.5501172629 0.04898158075 0.2249413686 0.1759597878) 50 94 1
(0.1068129689 0.25986976 0.4465935155 0.1867237556) 202 396 2
(0.8616771253 0.06916143737 0.01995629013 0.04920514724) 109 212 2
(0.5391987914 0.16767055 0.06273005428 0.2304006043) 497 975 1
(0.5512149891 0.1053713848 0.2243925054 0.1190211206) 263 515 2
(0.1309291567 0.2419636758 0.1925717458 0.4345354216) 322 631 1
(0.6075880871 0.1962059564 0.1292678947 0.06693806175) 383 751 1
(0.4421600464 0.156683783 0.1222361938 0.2789199768) 501 983 1
(0.142465601 0.4287671995 0.2646129982 0.1641542013) 5 9 1
(0.24481967 0.2317907798 0.377590165 0.1457993852) 410 802 1
(0.3972690356 0.3013654822 0.1215047799 0.1798607023) 503 1272 2
(0.1944789719 0.2891047921 0.113655722 0.4027605141) 173 279 2
(0.3080795857 0.318089796 0.3459602072 0.02787041113) 232 452 1
(0.2370125001 0.2066189199 0.17487483 0.3814937499) 172 336 1
(0.1376196558 0.3084993212 0.1226908509 0.4311901721) 261 511 1
(0.72854836 0.13572582 0.06838137369 0.06734444629) 653 1223 1
(0.05966770686 0.2639503568 0.2062157897 0.4701661466) 592 1104 2
(0.8783378454 0.06083107732 0.0530169616 0.007814115727) 593 1162 2
(0.7208851998 0.1395574001 0.09331346225 0.04624393783) 139 271 2
(0.2134699946 0.1786027683 0.2146622344 0.3932650027) 533 1273 1
(0.4661060468 0.2669469766 0.2115675495 0.05537942709) 382 747 2
(0.2610006234 0.3694996883 0.0546627767 0.3148369116) 112 218 2
(0.3463466235 0.3268266883 0.3171330193 0.009693668938) 347 681 1
(0.6743351044 0.06709238179 0.1628324478 0.09574006602) 203 395 1
(0.1093445463 0.02228955523 0.4453277269 0.4230381716) 383 751 2
(0.3613430296 0.3193284852 0.3036028776 0.01572560765) 107 209 1
(0.4287357278 0.2293258238 0.2856321361 0.05630631236) 373 729 1
(0.1063056931 0.4468471535 0.3166069133 0.1302402402) 202 395 2
(0.6622984277 0.1382776851 0.1688507862 0.03057310109) 54 102 1
(0.08949299177 0.127044771 0.3282087332 0.4552535041) 201 335 2
(0.1247040917 0.3692350306 0.06841292356 0.4376479542) 443 810 2
(0.3097186402 0.3451406799 0.2473198821 0.09782079781) 473 869 1
(0.1491667745 0.3391068056 0.08630980713 0.4254166127) 229 448 1
(0.4808921497 0.2595539252 0.2061387738 0.05341515133) 111 217 1
(0.1274542954 0.4362728523 0.3547226163 0.08155023602) 375 735 2
(0.07848837338 0.2979948151 0.1627609982 0.4607558133) 500 981 1
(0.3829578795 0.1962326836 0.3085210602 0.1122883766) 379 741 1
(0.09253600658 0.4537319967 0.4176720202 0.03605997647) 51 98 2
(0.2476681143 0.1453367424 0.2308292005 0.3761659428) 470 864 2
(0.3456226664 0.1429891169 0.1841995498 0.3271886668) 473 1271 1
(0.3365005291 0.3317497355 0.1057264696 0.2260232659) 291 571 1
(0.1113810046 0.4443094977 0.01142495032 0.4328845474) 473 1271 2
(0.4910762604 0.2544618698 0.07525161532 0.1792102545) 202 395 2
(0.7257878514 0.06617967324 0.07092640104 0.1371060743) 172 336 1
(0.1336499597 0.06031236958 0.4331750202 0.3728626506) 172 334 1
(0.06763911679 0.3742751329 0.4661804416 0.09190530875) 77 150 2
(0.03564812783 0.4117212446 0.07045469145 0.4821759361) 562 1103 1
(0.1596551586 0.4201724207 0.3690201679 0.05115225276) 562 1101 2
(0.1816782441 0.409160878 0.3916546429 0.01750623507) 82 157 2
(0.5221746381 0.2389126809 0.03748619929 0.2014264816) 81 101 1
(0.2774291982 0.3612854009 0.3131819891 0.04810341178) 288 565 1
(0.3593670406 0.3203164797 0.04530500779 0.2750114719) 143 277 2
(0.1533399725 0.4233300137 0.07432582349 0.3490041902) 319 626 1
(0.2179873858 0.2611933438 0.1298129633 0.3910063071) 166 266 2
(0.469850562 0.265074719 0.2123338654 0.05274085362) 439 862 1
(0.1407182423 0.4296408788 0.3339733896 0.09566748923) 79 153 2
(0.2701988815 0.3649005593 0.202509673 0.1623908863) 201 391 2
(0.1469152059 0.3514499615 0.0750924356 0.4265423971) 620 1159 2
(0.4095545875 0.2952227062 0.1112018166 0.1840208897) 314 557 1
(0.7278429172 0.1360785414 0.08620160722 0.04987693418) 409 802 2
(0.4737840703 0.2631079648 0.1408099075 0.1222980574) 113 220 1
(0.2771724273 0.3614137864 0.3140605067 0.0473532796) 143 220 1
(0.469062942 0.1245560919 0.1409124371 0.265468529) 28 23 2
(0.2604888177 0.2876260556 0.08212953555 0.3697555912) 290 510 2
(0.01018566626 0.02210720608 0.4727999608 0.4949071669) 653 1223 2
(0.07889198204 0.1248100017 0.460554009 0.3357440072) 53 103 2
(0.6161553627 0.1108264942 0.0810958244 0.1919223186) 562 1045 2
(0.6807751871 0.06576690921 0.09384549725 0.1596124065) 413 751 2
(0.07795254828 0.0959628802 0.3650608457 0.4610237259) 143 1260 1
(0.03875319264 0.4806234037 0.3629555188 0.1176678849) 5 1254 2
(0.3826699789 0.3086650105 0.1989547333 0.1097102773) 111 158 1
(0.1625589337 0.04161137097 0.3771091622 0.4187205331) 107 208 1
(0.08525231058 0.4573738447 0.07720657518 0.3801672695) 259 507 2
(0.4444270918 0.07283677493 0.2777864541 0.2049496792) 529 1036 1
(0.1955962037 0.4022018982 0.005446282972 0.3967556152) 107 150 1
(0.3091582297 0.3454208852 0.09374233674 0.2516785484) 380 746 1
(0.5147299142 0.1631436612 0.2426350429 0.07949138169) 26 47 1
(0.3413493207 0.3293253396 0.266348619 0.06297672069) 262 513 2
(0.6949376493 0.03184733147 0.1525311753 0.1206838439) 290 566 1
(0.315940702 0.342029649 0.2137866772 0.1282429718) 261 512 1
(0.232009406 0.3209735527 0.383995297 0.06302174428) 261 512 2
(0.8245642082 0.0877178959 0.08191445956 0.005803436341) 378 739 2
(0.02821232892 0.4858938355 0.2294849668 0.2564088688) 48 50 1
(0.2667145555 0.3666427222 0.08566215758 0.2809805647) 409 800 2
(0.3576197886 0.2428788848 0.3211901057 0.07831122089) 411 807 2
(0.1264666164 0.09921128458 0.3375554072 0.4367666918) 498 919 2
(0.5705295143 0.001063729486 0.2147352429 0.2136715134) 26 47 1
(0.3200812245 0.07006854717 0.2698908406 0.3399593877) 202 395 1
(0.2424250144 0.305540587 0.3787874928 0.07324690577) 227 445 2
(0.2200286926 0.04496737438 0.3450182793 0.3899856537) 468 860 2
(0.4149841033 0.2925079484 0.240168885 0.05233906337) 652 1222 1
(0.3293778941 0.03333080561 0.335311053 0.3019802474) 383 749 1
(0.2590691951 0.2807795439 0.08968585855 0.3704654025) 382 749 1
(0.1046353178 0.4476823411 0.1744507931 0.273231548) 202 395 2
(0.4678096864 0.2660951568 0.2593909478 0.006704208978) 622 1219 2
(0.1176671339 0.05721652789 0.3839499052 0.4411664331) 167 326 1
(0.6723078948 0.07920605639 0.1638460526 0.08463999619) 173 336 1
(0.1967176063 0.316175956 0.08546524084 0.4016411968) 261 511 1
(0.4196874877 0.1255214119 0.1646348443 0.2901562562) 466 856 2
(0.2650509031 0.3674745485 0.1495574839 0.2179170646) 352 691 1
(0.5315625589 0.1058361613 0.1283825593 0.2342187206) 292 514 2
(0.1199076049 0.4400461976 0.1649969409 0.2750492567) 348 683 1
(0.1485511798 0.4257244101 0.005007359047 0.420717051) 622 1163 1
(0.4193426403 0.01631724803 0.2903286799 0.2740114318) 438 860 2
(0.1509548781 0.2664690875 0.424522561 0.1580534735) 618 1211 1
(0.9517686735 0.02411566323 0.02360202942 0.0005136338105) 413 808 2
(0.05476927395 0.285793574 0.472615363 0.1868217891) 261 509 1
(0.1478408043 0.4260795978 0.009440835055 0.4166387628) 80 155 2
(0.4733036306 0.1499668498 0.2633481847 0.1133813349) 143 277 1
(0.5444944923 0.2277527538 0.04701222302 0.1807405308) 137 268 1
(0.4059638928 0.2518413036 0.2970180536 0.04517674998) 591 1161 2
(0.4823843833 0.2588078083 0.1488627271 0.1099450812) 109 213 1
(0.29411748 0.35294126 0.326407893 0.026533367) 591 1160 2
(0.9230497287 0.03826512681 0.0002100088302 0.03847513564) 112 218 1
(0.1686348613 0.4156825693 0.07439271996 0.3412898494) 203 397 1
(0.1321917822 0.4339041089 0.1441050353 0.2897990736) 585 1090 1
(0.008102668181 0.4959486659 0.447116137 0.04883252892) 229 390 1
(0.03867197615 0.4806640119 0.04775451243 0.4329094995) 412 750 1
(0.1774854565 0.4112572717 0.40101469 0.01024258172) 499 979 2
(0.1091930926 0.1948326927 0.250570761 0.4454034537) 293 1265 1
(0.438637908 0.280681046 0.0145732408 0.2661078052) 290 568 2
(0.3794767096 0.1010156133 0.3102616452 0.2092460319) 441 866 2
(0.7163836785 0.008072627242 0.1337355335 0.1418081607) 112 218 1
(0.4276200637 0.2648156648 0.2861899682 0.02137430342) 52 101 2
(0.2199017068 0.3900491466 0.1238931458 0.2661560008) 502 983 2
(0.1757568308 0.4121215846 0.141501562 0.2706200226) 172 337 1
(0.0505812024 0.08636686581 0.388342533 0.4747093988) 259 449 2
(0.4873059389 0.2563470306 0.2499863255 0.006360705114) 560 1097 2
(0.1388980185 0.4305509907 0.08706439828 0.3434865924) 139 271 2
(0.4190256948 0.06970247201 0.2904871526 0.2207846806) 262 514 2
(0.4550182252 0.2724908874 0.1683791791 0.1041117083) 503 1272 2
(0.2649252632 0.1850839094 0.182453459 0.3675373684) 593 1105 2
(0.009200985779 0.4953995071 0.4384251927 0.05697431442) 109 154 1
(0.1293279601 0.3902764174 0.04505960251 0.4353360199) 143 220 2
(0.005649991654 0.4971750042 0.3298166365 0.1673583677) 12 20 2
(0.5461906118 0.04048411129 0.1864205828 0.2269046941) 472 868 2
(0.2893374488 0.343447592 0.3553312756 0.01188368353) 260 507 1
(0.02337649243 0.4883117538 0.2626415392 0.2256702146) 347 622 1
(0.3182775804 0.1138562922 0.2270049176 0.3408612098) 347 622 2
(0.2938807993 0.3530596004 0.06508647419 0.2879731262) 351 688 2
(0.2520922606 0.3739538697 0.0284999441 0.3454539256) 109 213 1
(0.5552682551 0.1854450116 0.2223658724 0.03692086089) 531 1043 2
(0.1826166243 0.4086916879 0.09534721577 0.3133444721) 472 926 2
(0.2464025576 0.1143438204 0.2624549008 0.3767987212) 31 59 1
(0.05036440784 0.001478560504 0.4748177961 0.4733392356) 170 333 2
(0.1531734764 0.4234132618 0.0694850797 0.3539281821) 441 866 1
(0.7770936985 0.0458606773 0.06559247347 0.1114531508) 263 1264 1
(0.1849234645 0.4075382678 0.3906983818 0.016839886) 138 267 2
(0.6841390262 0.1579304869 0.04482603361 0.1131044533) 618 1214 1
(0.81345714 0.09327142999 0.06334450213 0.02992692786) 169 328 2
(0.4560882555 0.04766629985 0.2242895724 0.2719558722) 439 861 1
(0.7832995721 0.1083502139 0.06722199091 0.04112822303) 291 571 1
(0.6233534737 0.1883232631 0.03378597851 0.1545372846) 653 1307 1
(0.4863353395 0.1279003789 0.1289319514 0.2568323303) 503 928 2
(0.4427229991 0.2786385005 0.2701324936 0.008506006859) 349 626 1
(0.4838938877 0.04725225153 0.2108008046 0.2580530562) 378 741 1
(0.5305794984 0.2347102508 0.2184023296 0.01630792123) 442 809 1
(0.4949816929 0.1569692777 0.2525091536 0.0955398759) 257 501 1
(0.3992056611 0.3003971695 0.2136951692 0.08670200024) 138 267 2
(0.02289503075 0.01079782207 0.4885524846 0.4777546626) 31 57 1
(0.259235615 0.3703821925 0.3539703358 0.01641185672) 78 151 2
(0.5226510528 0.2147745537 0.2386744736 0.02389991996) 261 512 2
(0.5289325542 0.1169826675 0.2355337229 0.1185510554) 353 690 1
(0.6030096945 0.1984951528 0.1605845604 0.03791059238) 435 854 1
(0.4040365523 0.2979817239 0.1808146005 0.1171671234) 322 631 2
(0.1152014474 0.03933801412 0.4030612622 0.4423992763) 652 1222 2
(0.0540847651 0.4729576175 0.3601250077 0.1128326098) 383 751 1
(0.1388124412 0.2836324377 0.4305937794 0.1469613416) 141 276 2
(0.02293988225 0.04526935193 0.4432607069 0.4885300589) 320 627 1
(0.2522749914 0.006690468452 0.3671720359 0.3738625043) 142 277 1
(0.8654103645 0.04881911551 0.01847570225 0.06729481777) 194 379 1
(0.3237215529 0.3258848775 0.01225434605 0.3381392235) 471 924 1
(0.5436037484 0.1620500118 0.06614811399 0.2281981258) 322 573 2
(0.2554649582 0.3722675209 0.1139241599 0.258343361) 201 394 1
(0.4782237746 0.2608881127 0.1664945623 0.09439355035) 407 798 2
(0.5000203982 0.0977623564 0.1522274445 0.2499898009) 351 630 2
(0.0275903607 0.2191748256 0.2670299941 0.4862048196) 80 99 2
(0.4823125674 0.1126565111 0.1461872052 0.2588437163) 560 1041 2
(0.07702094011 0.4614895299 0.02787895628 0.4336105737) 473 926 2
(0.599397435 0.1311114203 0.2003012825 0.06918986213) 410 802 1
(0.8459841933 0.07700790337 0.01704124137 0.059966662) 623 1221 2
(0.3388602487 0.1209158993 0.2096539764 0.3305698756) 111 216 1
(0.4117152435 0.2941423782 0.2100006108 0.0841417674) 442 809 1
(0.3934983162 0.3032508419 0.1992588929 0.1039919489) 561 1101 2
(0.285547937 0.31068662 0.04653941144 0.3572260315) 442 809 2
(0.1985744833 0.4007127583 0.1473341822 0.2533785762) 532 1044 2
(0.06223855156 0.001027731454 0.4678529928 0.4688807242) 561 1043 2
(0.7144982217 0.1397151728 0.003035716364 0.1427508892) 201 393 1
(0.429510783 0.2852446085 0.01614669236 0.2690979161) 113 218 2
(0.1777185982 0.2163061544 0.4111407009 0.1948345464) 592 1160 1
(0.365953617 0.2514803199 0.3170231915 0.06554287161) 195 382 2
(0.009226453876 0.2685712192 0.2268155538 0.4953867731) 141 275 1
(0.1324512105 0.4337743948 0.4021078994 0.03166649532) 353 690 2
(0.5056616 0.2471692 0.1735065008 0.07366269918) 563 1046 1
(0.3766444664 0.1925172681 0.1191604987 0.3116777668) 82 159 1
(0.3046620964 0.1739792741 0.1736896777 0.3476689518) 533 987 2
(0.2920242559 0.3539878721 0.1148904408 0.2390974313) 562 1104 1
(0.08784068767 0.3707531137 0.08532654246 0.4560796562) 440 863 1
(0.3117285393 0.2784781074 0.3441357304 0.065657623) 380 743 1
(0.05233309512 0.4738334524 0.3026029398 0.1712305127) 173 336 2
(0.6200767075 0.1899616463 0.1674799515 0.02248169473) 353 690 2
(0.6447932795 0.1650684315 0.01253492875 0.1776033602) 412 808 1
(0.5884463839 0.102259953 0.2057768081 0.1035168551) 562 1104 2
(0.5949549783 0.1743987362 0.02812377462 0.2025225109) 440 863 1
(0.06306957384 0.04094711094 0.4275181021 0.4684652131) 319 567 2
(0.3867837488 0.1228454937 0.1837626319 0.3066081256) 289 566 1
(0.1457398365 0.129425168 0.4271300817 0.2977049138) 441 863 1
(0.005536997524 0.4972315012 0.08226773461 0.4149637666) 529 980 1
(0.08158626017 0.4592068699 0.4249735568 0.03423331313) 500 981 2
(0.3996715322 0.007632465759 0.2925317681 0.3001642339) 292 572 1
(0.484545216 0.1419591783 0.1157682136 0.257727392) 468 918 1
(0.2929447741 0.3535276129 0.2310826419 0.1224449711) 80 99 1
(0.5016277853 0.0230789723 0.2491861074 0.2261071351) 562 1104 2
(0.01169445685 0.05355200531 0.4941527716 0.4406007663) 141 276 2
(0.2702510618 0.3648744691 0.09446730034 0.2704071687) 320 625 2
(0.798869416 0.100565292 0.02243188075 0.07813341124) 50 96 2
(0.4199721431 0.2900139285 0.2897196546 0.0002942738333) 473 928 1
(0.5846254739 0.2076872631 0.1732978767 0.03438938639) 473 869 1
(0.4643787957 0.04216784645 0.2256427557 0.2678106022) 616 1151 2
(0.9135903591 0.04320482046 0.03385793174 0.009346888729) 620 1217 2
(0.2898533849 0.3550733075 0.009415525434 0.3456577821) 261 512 1
(0.3945972946 0.3027013527 0.1735189258 0.1291824269) 472 868 1
(0.05638035508 0.08403379664 0.3877760258 0.4718098225) 141 217 2
(0.1825199917 0.4087400041 0.04553120844 0.3632087957) 230 450 2
(0.2871630657 0.3564184671 0.2719605305 0.08445793662) 377 740 1
(0.4536958005 0.2731520997 0.08471456626 0.1884375335) 413 808 2
(0.1665273659 0.4167363171 0.2424094003 0.1743269168) 136 266 1
(0.1014443383 0.08367658177 0.4492778308 0.3656012491) 172 334 1
(0.03093952206 0.3921540678 0.484530239 0.09237617119) 323 633 2
(0.3069075906 0.06185235974 0.3465462047 0.284693845) 592 1160 1
(0.03244194436 0.4837790278 0.4613926501 0.02238637776) 623 1223 1
(0.3500111657 0.3249944172 0.03547683016 0.289517587) 648 1248 2
(0.6832949221 0.108510842 0.158352539 0.04984169693) 258 503 1
(0.480965755 0.1351094271 0.2595171225 0.1244076954) 322 629 1
(0.2467562214 0.09541676853 0.3766218893 0.2812051208) 109 213 2
(0.8867185552 0.0566407224 0.01979482647 0.03684589593) 110 212 2
(0.1444599976 0.4277700012 0.106471992 0.3212980092) 622 1163 1
(0.2381475792 0.04553380961 0.3353924008 0.3809262104) 556 1091 1
(0.5252358379 0.237382081 0.1416125613 0.09576951973) 5 9 1
(0.7584262663 0.1207868668 0.09986694677 0.02091992006) 167 324 2
(0.1529755923 0.2661412738 0.4235122038 0.15737093) 52 101 2
(0.4206186924 0.2896906538 0.02771710576 0.261973548) 263 456 1
(0.5759917286 0.1236177011 0.2120041357 0.08838643459) 105 202 1
(0.1014015227 0.4492992386 0.2052699212 0.2440293174) 496 915 1
(0.8148298598 0.08275166505 0.09258507008 0.009833405027) 443 867 1
(0.109216781 0.4453916095 0.429749553 0.01564205649) 494 969 2
(0.26861999 0.3522480065 0.365690005 0.01344199853) 611 1197 1
(0.1420524532 0.4289737734 0.3283861008 0.1005876726) 288 506 1
(0.1516166257 0.4241916871 0.166413907 0.2577777802) 353 692 1
(0.3533182791 0.2580975729 0.3233408605 0.06524328758) 54 102 1
(0.6251757414 0.1874121293 0.03357793728 0.153834192) 533 1046 1
(0.02201284351 0.4263010634 0.4889935782 0.0626925148) 470 920 1
(0.1017539263 0.4491230369 0.287192801 0.1619302358) 413 808 2
(0.3302216395 0.3348891802 0.1828652249 0.1520239554) 620 1215 2
(0.2248295184 0.1611670218 0.226418219 0.3875852408) 593 1105 2
(0.8144530686 0.01023334752 0.08254011817 0.09277346569) 533 1273 1
(0.01197828871 0.4940108556 0.2079794547 0.2860314009) 382 747 2
(0.3242635849 0.3378682076 0.04453015053 0.293338057) 49 94 2
(0.0387417316 0.4806291342 0.07081478037 0.4098143538) 442 809 1
(0.3639943945 0.3180028028 0.01638873808 0.3016140647) 378 741 2
(0.08132979957 0.4593351002 0.05317335456 0.4061617457) 319 625 2
(0.5569504999 0.22152475 0.1563645066 0.06516024342) 410 805 1
(0.06822748963 0.4658862552 0.04978792041 0.4160983348) 352 690 2
(0.02277195827 0.115751975 0.4886140209 0.3728620459) 412 809 2
(0.04498914431 0.4775054278 0.1931210174 0.2843844104) 141 276 1
(0.2342682118 0.008416414585 0.3744494795 0.3828658941) 322 573 2
(0.5071690798 0.2464154601 0.0481401092 0.1982753509) 411 748 1
(0.1521678788 0.4239160606 0.2778066316 0.146109429) 553 1083 2
(0.3519869232 0.3240065384 0.004578909876 0.3194276285) 231 450 2
(0.1608824653 0.4195587673 0.05911926013 0.3604395072) 352 690 2
(0.7943682797 0.06649497771 0.1028158602 0.03632088245) 439 859 1
(0.7632700089 0.0569651952 0.1183649955 0.06139980033) 199 390 2
(0.03713951181 0.4814302441 0.09757412788 0.3838561162) 260 510 1
(0.4303470897 0.2848264551 0.07180787278 0.2130185824) 50 96 2
(0.5350492988 0.2324753506 0.1768034163 0.05567193426) 352 632 1
(0.03926005639 0.4803699718 0.366437263 0.1139327088) 143 1260 2
(0.3839040312 0.3080479844 0.04487755724 0.2631704271) 291 570 2
(0.5491373542 0.2254313229 0.008585681112 0.2168456418) 141 217 1
(0.4331750972 0.2834124514 0.1767921178 0.1066203335) 413 808 2
(0.3393982604 0.01670553913 0.3303008698 0.3135953307) 381 748 2
(0.148725582 0.425637209 0.2369479018 0.1886893072) 615 1205 2
(0.5235172703 0.2382413649 0.03514870588 0.203092659) 563 1274 2
(0.2261003279 0.04930694366 0.3869498361 0.3376428924) 647 1246 1
(0.2926171393 0.3461486752 0.007542755142 0.3536914303) 51 98 1
(0.3392251135 0.3303874433 0.322047271 0.008340172288) 202 396 1
(0.4256823399 0.0669621596 0.2201966705 0.2871588301) 83 1258 1
(0.02294586928 0.4885270654 0.02760427816 0.4609227872) 166 324 2
(0.5766386146 0.2116806927 0.003678301109 0.2080023916) 411 806 2
(0.4787915258 0.2606042371 0.008116598234 0.2524876389) 473 1271 2
(0.06300953617 0.1508205571 0.3176746748 0.4684952319) 460 902 1
(0.7821711465 0.1089144268 0.01010000923 0.09881441754) 74 141 2
(0.2245052326 0.3877473837 0.05891827324 0.3288291105) 260 510 1
(0.4857590398 0.1706945393 0.08642594078 0.2571204801) 438 859 1
(0.3054910492 0.1120630006 0.3472544754 0.2351914748) 380 743 1
(0.4998984265 0.2500507867 0.2328102316 0.01724055512) 28 53 2
(0.4202930375 0.2898534812 0.1941958812 0.09565760005) 232 455 1
(0.04045373481 0.4797731326 0.06192519651 0.4178479361) 78 151 2
(0.1978706918 0.2938655816 0.1071990725 0.4010646541) 473 1271 1
(0.03132183023 0.4843390849 0.4364151529 0.04792393199) 16 1255 2
(0.05975067351 0.4339109287 0.03621373456 0.4701246632) 352 632 2
(0.7004147136 0.04426503221 0.105527611 0.1497926432) 441 807 2
(0.9054180873 0.0007537785857 0.04653717774 0.04729095633) 260 509 1
(0.0412953979 0.4793523011 0.06157285453 0.4177794465) 260 509 2
(0.624062832 0.187968584 0.1094640556 0.07850452836) 383 692 1
(0.2131083734 0.09893283457 0.3934458133 0.2945129787) 413 810 2
(0.1021568097 0.4489215951 0.1094400433 0.3394815519) 49 95 1
(0.3683611555 0.3158194223 0.1972814114 0.1185380108) 231 394 1
(0.1606469184 0.4196765408 0.374759714 0.0449168268) 440 861 2
(0.3619332268 0.3190333866 0.04047937077 0.2785540158) 345 676 2
(0.3574904121 0.321254794 0.08766647402 0.2335883199) 382 747 2
(0.3464102486 0.3267948757 0.2064125522 0.1203823235) 438 801 1
(0.208116175 0.1255941062 0.3959419125 0.2703478063) 291 571 2
(0.1080727375 0.4459636313 0.264268478 0.1816951532) 351 688 2
(0.3633898735 0.3183050632 0.1473715734 0.1709334898) 171 335 1
(0.3692464137 0.04988858159 0.2654882116 0.3153767931) 408 742 2
(0.3121367985 0.3439316007 0.02634350177 0.317588099) 260 451 1
(0.3459381247 0.3270309376 0.1529203125 0.1741106252) 321 629 2
(0.1759482458 0.4120258771 0.0907972188 0.3212286583) 530 1041 1
(0.3293006551 0.07989705182 0.2554526206 0.3353496724) 376 679 2