/*--------------------------------*- C++ -*----------------------------------*\
| =========                 |                                                 |
| \\      /  F ield         | OpenFOAM: The Open Source CFD Toolbox           |
|  \\    /   O peration     | Version:  2406                                  |
|   \\  /    A nd           | Website:  www.openfoam.com                      |
|    \\/     M anipulation  |                                                 |
\*---------------------------------------------------------------------------*/
FoamFile
{
    version     2.0;
    format      ascii;
    arch        "LSB;label=32;scalar=64";
    class       scalarField;
    location    "0.011/lagrangian/dsmc";
    object      Ei;
}
// * * * * * * * * * * * * * * * * * * * * * * * * * * * * * * * * * * * * * //


6135
(
1.142700177e-21
1.424125267e-20
5.327178643e-21
1.767145737e-20
1.420702488e-21
4.325400112e-21
6.826753371e-21
2.08389704e-21
1.535432725e-21
5.615516238e-22
1.747138747e-21
9.658477922e-21
6.246573597e-22
3.195760125e-21
9.073076446e-21
3.000882413e-21
1.884117062e-21
8.748038066e-21
7.951412874e-22
1.316015324e-20
7.671171587e-22
4.250528299e-21
9.647539611e-21
3.907976498e-21
4.725600808e-21
1.982064156e-20
2.048923517e-21
1.991893777e-21
9.774565898e-22
4.92046035e-21
4.860603068e-21
4.086248755e-21
7.227745763e-21
2.047044185e-21
6.529605626e-22
1.118657925e-21
7.374222906e-21
1.235382356e-21
1.272578698e-20
1.701224579e-21
3.062934315e-21
1.006807786e-20
4.043024113e-21
6.11146811e-21
1.563665824e-21
1.672650369e-21
2.977215268e-21
5.483978866e-22
2.642711955e-21
4.06703619e-21
2.408270237e-21
9.542061134e-21
1.915305382e-22
2.80647374e-21
1.013262173e-21
1.118801928e-20
1.470562102e-20
6.232250231e-21
2.51476926e-21
2.953670127e-22
9.085647376e-21
3.279166408e-22
9.189668144e-21
9.882285829e-21
9.632543946e-22
1.436375408e-21
1.47204752e-20
4.322801015e-22
2.629752435e-21
9.11491564e-22
2.734224354e-21
3.692798173e-21
1.0825188e-20
8.895002533e-21
2.231561283e-21
2.733813149e-21
9.039337575e-22
1.464582865e-20
8.61373767e-21
2.114931553e-21
2.758839893e-21
3.997655202e-21
2.038201009e-20
2.764748577e-21
1.215457388e-20
2.875130725e-21
4.016478399e-21
1.215119442e-20
1.633219191e-21
4.57672059e-21
4.092718418e-21
4.500102336e-21
4.503507867e-21
8.262259898e-22
5.615600058e-21
8.618418115e-22
9.798803689e-21
1.31517456e-22
1.3711169e-21
3.565645832e-21
3.908424742e-21
4.339517522e-21
1.009516193e-21
2.439584176e-21
5.005378913e-21
1.791315494e-20
1.116758292e-20
6.204567823e-21
2.184701619e-21
7.450636429e-23
7.395627738e-21
3.161397344e-21
4.943529071e-21
3.767838086e-21
2.182296194e-21
4.741114192e-22
9.053078413e-22
4.076182186e-21
2.488961332e-20
3.693311422e-21
5.972380975e-22
3.410445164e-21
1.196373245e-20
5.177285986e-21
2.145737096e-21
1.870218518e-21
8.031501432e-21
2.766216959e-21
5.261291034e-21
7.518983647e-22
4.612898973e-21
1.666540406e-20
1.004126256e-20
7.979852242e-21
1.841487493e-21
2.646390173e-21
1.659846673e-21
2.653135357e-21
6.178344382e-21
5.735927951e-21
2.297824521e-21
4.109396426e-21
1.038034856e-20
4.653568336e-21
6.987306503e-21
2.645391758e-21
5.220847109e-21
6.71440945e-21
4.901462679e-22
5.945064415e-22
4.367709767e-23
1.484712093e-21
9.298499516e-22
1.194964767e-20
4.060392433e-21
6.131082814e-21
3.822779048e-21
1.192906907e-21
5.600551015e-21
2.640774854e-21
2.052300164e-21
5.052586116e-21
7.390393684e-22
5.04626262e-21
4.657423722e-21
1.04103109e-20
1.201203817e-20
2.071395136e-20
6.715751033e-21
6.032591842e-21
4.096125777e-21
4.554305118e-21
6.225572439e-21
6.732424179e-23
8.525717615e-21
2.663428683e-22
5.097405589e-21
5.451878987e-21
4.800335761e-21
1.093472313e-20
1.220322911e-21
3.853485366e-23
2.534976116e-22
2.62644369e-21
7.418038179e-21
1.547721399e-20
1.170620191e-21
2.570121959e-21
3.526045331e-22
2.310404757e-21
8.902857763e-22
1.065399458e-21
3.698528927e-21
1.006792313e-21
6.793947354e-21
6.643409195e-22
2.802847024e-21
7.009968437e-21
1.102547838e-21
1.136781919e-20
2.24063392e-21
3.106148901e-20
2.240411702e-20
2.608281249e-20
2.138989509e-21
2.216128521e-21
6.300981689e-21
4.779346394e-21
8.124921519e-21
1.131458892e-20
1.270230852e-22
7.381202935e-21
1.350085207e-20
1.142521031e-20
1.97367827e-23
3.213533632e-21
2.016181903e-21
1.249979129e-20
9.365234457e-21
1.277517007e-21
9.108316434e-21
5.434827394e-21
1.323372544e-21
6.681506181e-21
5.211786642e-21
4.274909238e-21
2.340924892e-22
3.775023176e-21
2.165866212e-21
4.158124214e-22
4.414153898e-21
1.632003939e-21
5.066083945e-21
2.298927811e-22
1.703838649e-21
1.979272026e-20
1.286819803e-21
4.482704126e-21
5.442931386e-21
3.726037433e-22
2.576105328e-22
2.433473352e-21
2.380698548e-21
5.639491811e-21
3.447619964e-21
7.414408031e-21
2.506411377e-20
4.649048026e-21
3.336871149e-21
2.378059083e-21
2.354219556e-22
1.255666635e-20
7.371596146e-22
3.963381728e-21
4.176858142e-21
8.496567953e-21
9.880804593e-22
1.060218194e-20
9.277017919e-21
5.241496559e-21
2.913146614e-21
3.419412451e-21
2.554451309e-22
7.607145951e-21
8.593579951e-22
9.245598025e-21
2.292394086e-22
5.687394999e-22
1.84696863e-21
1.599680039e-21
3.627475395e-22
7.181411716e-22
3.271972394e-21
1.240694201e-21
1.053086304e-20
2.015727627e-20
7.970671136e-21
1.328551461e-21
1.105195662e-20
2.568467515e-21
3.072872279e-22
2.878862e-21
1.09248262e-21
1.786879207e-22
1.21889176e-21
1.13304054e-20
3.50228225e-21
2.988720461e-21
4.171978802e-21
6.191540333e-22
2.842781599e-21
2.482433509e-20
2.161319788e-21
1.356071965e-20
8.986294545e-21
4.348840622e-21
5.332424326e-21
3.779660092e-23
6.821043014e-21
1.211095003e-20
4.734308461e-21
7.814031983e-21
1.627668596e-20
4.976415902e-21
2.189893213e-21
1.502005331e-21
5.254292568e-22
4.113988148e-22
3.970864007e-21
3.456156972e-22
1.34282595e-22
9.640031616e-22
1.978142649e-21
7.26394179e-21
1.314919965e-20
8.105903634e-21
1.29865592e-21
8.758035979e-21
7.691690175e-21
4.823484772e-21
7.741532751e-23
3.034237412e-22
3.385613497e-21
1.666707332e-20
5.081408124e-21
1.694140319e-21
4.807093845e-21
4.801081151e-22
3.656601068e-21
4.504849008e-22
4.233400685e-21
7.023445623e-21
1.632961612e-21
3.973098009e-21
4.377711009e-22
3.915593247e-21
3.861290243e-21
1.214031694e-21
2.66193645e-21
4.190869324e-21
6.740110057e-21
9.663925046e-22
4.688215922e-21
6.321205574e-22
4.215202848e-21
2.954957475e-21
7.86726701e-21
3.702229066e-21
3.605305942e-21
3.89636619e-21
1.122167363e-21
1.012358828e-20
5.196247866e-22
1.354467557e-21
3.946715472e-21
2.161814265e-21
6.781530396e-22
2.068070554e-22
2.967707215e-21
5.903011335e-21
1.065376587e-20
5.067151317e-21
2.579264448e-21
2.336092714e-21
4.852292101e-21
2.693733259e-21
1.164803826e-20
9.537637291e-21
3.555185382e-21
3.168880366e-21
2.798319412e-21
1.399323594e-21
2.110824879e-21
9.052542142e-21
2.200721867e-21
7.943161863e-22
5.680746065e-22
3.177841223e-21
2.524227483e-21
4.635956303e-22
9.337152714e-21
3.628010754e-21
1.335666297e-21
1.597905154e-21
6.301148399e-21
4.579872182e-21
3.249745022e-22
1.727183428e-21
3.363586846e-21
2.767529636e-21
3.188060728e-21
9.540163084e-22
9.953640055e-21
1.147177457e-22
4.892904589e-21
4.153732706e-21
1.645462822e-22
4.107076325e-22
4.404199239e-22
9.982094343e-22
4.881739878e-21
4.708818188e-21
6.024859904e-22
5.715124835e-21
2.760416291e-21
1.048227887e-21
7.142260235e-21
5.322246835e-21
2.295028355e-21
2.53739852e-21
8.34871233e-23
3.864271146e-21
2.918344264e-21
5.227547023e-21
2.426563071e-21
1.292536256e-22
4.783354814e-22
1.336398242e-20
1.924366612e-21
8.515191681e-22
7.51530692e-21
2.402866117e-21
2.827479179e-21
1.526255343e-21
1.191013926e-22
1.831389623e-21
2.777938441e-21
2.221676816e-21
9.009307145e-21
1.163264361e-20
1.022499603e-21
7.220312143e-21
5.627460244e-21
1.036996908e-20
5.910743117e-21
3.8810925e-21
3.577736924e-21
4.043219754e-21
2.564248455e-20
2.344538689e-21
2.076889547e-21
1.813198177e-21
3.108938178e-21
1.192027053e-20
1.401885499e-21
5.164012103e-22
4.626238799e-22
5.066074615e-21
5.146428447e-21
1.007543028e-21
1.922251898e-21
2.217880344e-21
8.260726793e-21
4.54374269e-21
9.14677282e-21
3.91830957e-21
1.999463568e-21
3.410975051e-21
1.226927587e-21
1.202236743e-21
3.618692568e-21
5.895638374e-21
2.547040646e-21
3.995003018e-21
8.804480223e-21
5.671852156e-21
3.783778699e-21
3.899164298e-23
5.792253001e-21
1.211216273e-20
3.476921876e-21
4.442406587e-21
5.382538508e-21
9.666017376e-22
9.289713264e-22
6.78907982e-21
1.126825733e-21
2.097707317e-21
2.01155377e-21
3.852060015e-21
1.383059705e-20
2.503408331e-21
2.551772087e-21
2.161598413e-21
1.472505839e-21
1.084032255e-20
1.054514084e-22
1.285122113e-22
1.01294339e-20
2.419298672e-21
3.688961627e-21
4.876446012e-21
8.713949817e-22
2.944011819e-22
1.086115401e-21
1.999732976e-21
1.0281215e-21
2.032868175e-20
2.492365043e-21
1.315003321e-20
1.623481127e-20
2.053154047e-21
9.271683261e-21
1.382184177e-20
9.819611373e-22
3.406065369e-21
2.056414372e-21
1.942159503e-21
5.392060192e-21
1.662790921e-20
1.670834538e-20
7.874411004e-22
3.055310281e-21
5.545860592e-21
1.054845342e-20
9.298278798e-22
1.28144767e-20
2.668782819e-21
4.002126589e-21
8.333944638e-21
1.156687274e-22
1.249101988e-21
2.012384282e-21
4.834629504e-23
2.844859544e-21
5.339284265e-21
1.026486795e-20
1.168832485e-21
1.313128996e-21
8.553675062e-21
2.285698188e-21
2.456627301e-21
1.066604501e-21
1.22145132e-21
1.058755982e-20
1.695156489e-21
1.532695656e-21
5.170318305e-21
4.059909403e-21
4.897330203e-22
2.32596757e-21
2.671842693e-21
2.220462592e-21
5.175273227e-22
7.806624177e-21
1.31769175e-22
5.55181341e-21
1.572791455e-21
2.803999649e-21
1.771882641e-21
2.217125143e-21
2.078468002e-21
3.618467786e-21
8.428698888e-22
1.793180103e-21
1.770746771e-21
1.140919261e-20
1.372601516e-20
7.576329344e-23
1.12752426e-20
5.662149095e-21
9.909921961e-21
1.868914366e-20
6.008851841e-21
1.72261081e-20
9.554514528e-22
1.094708707e-20
4.692073908e-21
4.444635834e-21
2.530898672e-21
9.496399901e-22
1.682674639e-20
1.605716857e-21
8.827289815e-21
1.274166054e-20
2.076263486e-20
1.582768004e-20
1.179631654e-20
5.749376963e-21
3.073606483e-21
2.952629496e-21
9.193179244e-22
4.136869485e-21
3.274345632e-21
2.966395818e-22
1.199043248e-22
3.378005926e-22
1.407792605e-20
8.189895482e-21
3.022861375e-21
2.40887097e-21
3.679637064e-21
3.879712122e-21
8.280631939e-21
1.521095336e-20
1.810515686e-21
3.623386545e-21
5.070435995e-21
2.697487772e-21
1.047975722e-20
2.776782397e-21
1.193184584e-20
1.425869247e-20
1.261423819e-20
7.158558051e-21
9.819457331e-21
7.43283606e-21
1.789297945e-21
3.220571388e-22
1.322309142e-20
2.097137355e-21
2.015582183e-22
3.26634091e-21
4.966784761e-21
1.045094313e-21
9.184139822e-22
2.982800346e-21
4.126212651e-21
8.169638831e-21
1.302412764e-21
2.335244834e-21
2.821673141e-21
2.485938367e-22
6.956393903e-22
3.855774294e-21
4.408561885e-21
3.362516044e-21
2.36487752e-21
2.291188002e-20
7.750479826e-22
3.883413688e-21
3.38936914e-21
4.377499942e-21
5.76467659e-21
2.878913117e-21
4.91058669e-21
1.604826104e-20
4.668427529e-21
1.359943375e-20
2.363933934e-21
1.129515685e-21
5.749904808e-22
1.463955833e-20
4.390612826e-22
2.601530482e-22
2.410153366e-22
9.088234094e-21
7.567802449e-21
1.201871681e-21
3.318763438e-21
5.497872321e-21
9.018250583e-21
4.515351954e-21
6.254591304e-22
1.834507383e-21
7.677438671e-21
5.319502636e-22
1.577053331e-21
1.573899042e-21
3.228246609e-22
4.245997431e-21
5.097148725e-22
3.548854656e-21
2.011067781e-21
1.3743904e-21
2.702448627e-21
9.202213734e-22
2.096176875e-21
1.341361262e-21
1.999490588e-24
3.746626334e-21
2.156418689e-21
3.745083996e-21
3.900157166e-21
4.518476542e-22
3.505059675e-21
4.910944736e-22
1.190841205e-21
5.667882092e-21
3.331201051e-21
4.392481033e-21
6.053250028e-21
7.719938731e-22
7.51971278e-21
3.802990697e-21
1.337654316e-20
3.309366414e-21
3.220152241e-21
5.96134238e-21
5.734613548e-21
4.3320739e-21
2.152564945e-21
3.429219677e-22
3.060504341e-22
4.375645e-21
7.454003474e-21
4.178933281e-21
2.538275634e-22
4.216101702e-21
8.020224836e-21
1.444249035e-21
1.467929092e-21
6.542461581e-21
2.329443178e-21
7.983706741e-21
1.53533248e-21
1.419788613e-20
2.100204581e-20
5.032565608e-21
2.226997717e-21
3.458343646e-22
7.29503985e-21
6.061341081e-21
5.705676443e-21
4.596871082e-22
1.411842726e-21
2.481177086e-21
6.067381992e-22
9.09571267e-22
4.154080397e-21
1.41048574e-21
1.914946687e-21
2.365636898e-21
1.462186205e-20
3.183516789e-21
1.691750978e-20
1.601505692e-21
1.672496668e-22
1.826780306e-20
4.874267323e-21
9.521923057e-22
2.743457217e-21
8.226807113e-21
5.328055546e-21
2.808835994e-21
6.811143229e-21
1.494467174e-22
1.24838453e-20
1.180083361e-21
4.508023655e-21
6.583111997e-22
6.945653311e-21
2.160372119e-20
1.125789887e-20
1.057873445e-20
6.964075377e-23
2.791014879e-21
1.639716949e-20
4.891896824e-21
1.903075548e-21
1.19179155e-21
3.68413113e-20
2.144973776e-21
7.486103797e-22
8.06230161e-21
1.607144748e-21
9.740656412e-22
1.61457651e-20
8.184275593e-21
2.276650619e-21
4.215241179e-22
7.403175167e-21
7.959798006e-21
5.569886853e-21
9.71217993e-23
1.115705366e-20
9.457099591e-21
2.960644506e-22
3.759035168e-21
6.074373305e-23
1.343308914e-21
1.069635838e-21
1.040897828e-21
1.172215823e-21
1.411967531e-21
3.967043939e-22
2.170956486e-22
6.447772884e-22
2.079932114e-22
2.689389925e-21
1.307676731e-21
2.483909786e-20
8.867223116e-21
6.226751547e-21
1.744322173e-21
6.016729859e-21
1.92834929e-21
1.764083194e-21
6.683589041e-21
5.964340583e-21
4.087947768e-21
9.012534607e-21
9.799231345e-21
2.56684139e-21
1.695629553e-20
1.287071439e-21
7.408399066e-21
1.036765367e-21
8.299597954e-22
2.875913276e-21
1.368414459e-20
4.179587809e-21
2.297672344e-21
4.411779826e-21
6.553576092e-21
1.838585224e-21
1.710391638e-21
1.081956991e-20
5.21235845e-21
3.649822045e-21
1.449374448e-21
4.979637623e-21
1.307282197e-21
8.144465042e-21
2.942849262e-21
1.682307657e-21
1.13779576e-20
4.266044951e-21
1.985210781e-20
1.591079028e-20
1.909194733e-20
1.040993949e-20
3.666455574e-20
9.955888941e-22
7.797517573e-21
8.07876444e-22
1.568189103e-21
3.467346027e-21
6.714750035e-21
1.516007329e-22
1.385371227e-21
3.348159915e-21
1.30240132e-20
8.661553471e-21
3.518172357e-21
9.062470203e-22
2.292394493e-21
7.318095088e-22
1.107706531e-21
2.59230648e-21
1.459166409e-21
1.063319603e-21
5.490119107e-21
4.42094047e-21
1.838627063e-20
1.215029359e-20
5.064661255e-21
1.006344194e-20
1.821744053e-20
8.098540994e-21
1.53998756e-20
4.143179047e-21
1.045344318e-20
5.579239816e-21
9.9958863e-22
2.900708199e-21
7.121770245e-21
6.759340532e-21
1.061303268e-20
4.841129098e-21
2.059778919e-20
1.781150073e-21
4.130118451e-21
2.246367291e-20
2.19085264e-23
1.691433294e-21
4.87552274e-21
1.889744236e-21
1.414855898e-20
2.964639448e-21
4.973246017e-22
3.959231585e-21
3.280319159e-21
1.455703027e-20
7.398902644e-21
5.251948274e-21
6.090489185e-21
9.326219209e-22
2.4476867e-21
1.438622581e-21
2.090570543e-20
3.682627608e-21
1.019273202e-20
1.827750798e-21
9.92894156e-21
3.153594058e-22
1.488315894e-21
2.084917064e-21
7.654527019e-21
1.019158206e-21
9.954695134e-21
1.521124113e-22
9.595349167e-21
2.073845403e-22
1.953792178e-21
1.263096056e-21
7.400902292e-23
2.194884437e-21
1.038321342e-21
6.968663333e-21
2.878741716e-21
1.064427928e-20
6.728844355e-21
4.829680979e-21
7.876472304e-21
1.582682035e-23
3.524733266e-21
1.019571175e-20
5.054761725e-21
8.653857258e-22
2.28560794e-21
4.434507103e-21
8.930094498e-22
5.119523758e-21
2.034952311e-21
1.189251971e-21
5.058210929e-21
4.591320284e-21
4.482086708e-21
8.401787416e-22
3.242513039e-21
1.464502496e-21
5.078654224e-21
4.574685591e-21
9.878964328e-21
1.116560162e-20
4.708136723e-21
1.469306078e-20
1.465362097e-22
1.47563445e-22
2.946098197e-21
1.273447004e-20
9.797756265e-22
5.238994828e-21
3.120825507e-21
2.602834715e-21
1.083676529e-20
7.144335782e-21
5.081468791e-21
3.344850082e-21
3.074678879e-21
4.289663607e-21
6.180087118e-21
1.682570587e-21
3.160356805e-22
1.201181779e-21
3.935156298e-21
6.074923656e-21
5.097273183e-22
6.207868778e-22
3.599298308e-22
6.722714269e-21
1.331493355e-22
8.182144152e-21
2.161511006e-22
9.312300438e-21
1.112195641e-21
1.108271416e-21
2.430708898e-20
3.067964826e-21
4.388243157e-21
4.440803106e-21
3.647228746e-21
6.333793045e-21
8.300351462e-22
4.394406648e-21
2.793092747e-21
5.408009393e-21
2.134364255e-22
3.759512699e-22
1.534833919e-21
2.190244969e-20
4.571546413e-21
1.023398611e-22
1.883715628e-20
2.891808051e-21
2.061540246e-21
1.860414122e-22
9.494928026e-23
6.560994455e-22
2.724097295e-21
5.382629271e-21
8.805562597e-21
5.528516906e-21
1.723008974e-21
3.822600945e-21
1.369382902e-21
1.540628391e-20
1.91602373e-21
1.32725766e-20
3.7877296e-21
3.616064804e-21
9.416335714e-21
1.839219386e-21
2.464052961e-21
1.712480074e-21
1.667297795e-21
1.998293588e-21
4.354722188e-22
3.861668587e-21
5.770542041e-21
1.599339089e-22
2.122831606e-21
5.562498311e-21
1.258149284e-20
6.975343508e-21
8.135247358e-21
2.004118958e-21
7.761667617e-21
4.609619967e-22
1.877681246e-20
1.436001762e-21
1.158022949e-20
7.288185144e-21
8.850544626e-22
1.814882525e-21
6.258164816e-21
1.304774947e-21
9.248295214e-22
1.19927491e-20
2.404294993e-21
8.711985905e-22
1.248622708e-21
1.419556045e-21
9.769634458e-21
1.021328069e-20
6.95233159e-21
5.744940105e-22
1.063931602e-20
6.788704291e-22
7.235669647e-22
5.773966412e-22
5.40552487e-21
7.543105352e-21
1.5062896e-21
6.289775521e-21
6.845517614e-22
2.419933997e-21
4.544442751e-21
7.048261155e-21
2.029352067e-21
1.63115851e-21
4.062137527e-21
5.000951021e-21
7.234905674e-22
6.416594541e-21
3.532900268e-23
1.152157006e-21
3.279983442e-21
3.481683176e-21
1.936652767e-22
1.893957286e-21
4.59461422e-21
3.501067148e-23
2.097889648e-21
2.635078923e-21
5.882826541e-21
1.269557154e-20
1.7467184e-21
1.862651618e-21
1.239700988e-20
1.481211623e-21
1.592706522e-21
6.124586829e-21
6.450706518e-21
1.422731262e-21
5.613287359e-21
1.702905382e-20
4.252883808e-21
8.550568233e-21
6.104304421e-21
8.165181663e-22
6.783878246e-21
5.32099285e-22
5.824242067e-21
3.756510084e-21
1.296610722e-20
8.787181763e-22
3.323771102e-21
3.202485748e-21
5.950564754e-21
3.742423096e-21
7.627311891e-22
5.610797012e-22
2.056374644e-21
1.760008211e-21
1.344601579e-21
1.44512413e-21
3.546964031e-21
7.317867584e-21
1.450829253e-21
7.067746721e-21
5.860405963e-23
6.33717866e-22
4.224919464e-21
1.52792898e-20
4.616555208e-22
6.375336117e-21
1.701864219e-21
9.460444017e-21
4.107849324e-21
1.298705775e-21
1.680094939e-21
5.02057942e-21
1.701919228e-20
2.674793298e-21
8.0404453e-21
3.347013295e-21
2.634498035e-20
1.342189162e-21
6.039145122e-21
7.22645527e-23
3.211084866e-21
7.854858211e-21
5.590555384e-21
5.448437254e-21
2.293602938e-21
3.092156717e-21
8.0989346e-21
1.286412274e-20
2.089865104e-22
2.141960826e-22
6.82124795e-22
4.276187413e-22
7.308743611e-22
1.253638285e-21
1.118520452e-21
2.552060459e-21
3.995836013e-21
1.060037737e-21
6.646440463e-21
6.502418349e-21
1.243472727e-21
3.401888806e-21
1.004948286e-21
2.263121754e-22
5.678619143e-21
2.019983863e-21
1.731210041e-21
7.017291046e-22
2.243057488e-21
1.245166887e-21
6.048200686e-21
8.436245901e-22
2.810792112e-20
4.342207633e-21
1.956157471e-21
6.43426051e-21
6.531490695e-22
8.223184794e-21
3.172129393e-21
5.158926779e-21
5.331146931e-21
1.33123456e-20
2.571129729e-21
2.68104409e-21
1.863610274e-22
3.4623454e-21
2.259234832e-21
1.338803776e-21
6.2517605e-21
5.8433016e-21
1.813604598e-21
2.838481914e-21
1.002723173e-20
1.600671108e-21
1.025706779e-21
1.09126148e-21
1.382158099e-20
8.782118827e-21
2.027138279e-22
1.207573656e-21
1.092069728e-20
3.576589093e-22
4.489789547e-23
8.434098308e-22
2.693489727e-21
2.825972853e-22
1.011717518e-21
5.409692707e-21
1.70996915e-21
1.027576427e-21
9.651308696e-21
2.890991043e-21
1.036643918e-20
7.241740436e-21
2.341494041e-21
6.103754134e-21
5.385346141e-21
2.046416452e-21
6.852472251e-21
5.337146579e-21
5.658467138e-21
1.796456865e-21
1.07426777e-21
2.971208112e-21
6.298886595e-21
3.146982044e-21
8.007443583e-22
1.226741871e-20
3.092387029e-21
4.693154621e-21
5.010726044e-21
3.195918816e-21
2.030968917e-21
2.265444453e-21
4.283008667e-21
5.227216895e-21
1.137936253e-20
1.828880445e-22
2.35854368e-21
2.847205591e-21
2.446932727e-21
2.945145484e-21
3.226678324e-21
5.83570131e-21
5.906217914e-21
1.794612317e-21
2.781076201e-20
1.448264285e-21
1.246284009e-21
7.537072502e-22
1.098345577e-20
5.874761668e-21
2.071911074e-21
5.642439697e-21
1.256631744e-20
3.099263373e-21
1.737594491e-23
2.658070158e-21
2.020025766e-21
1.878057304e-20
5.043041248e-21
4.645528861e-21
3.191414732e-21
1.079963672e-21
3.171786304e-21
1.913167349e-21
7.60772289e-21
9.017939759e-21
5.61986344e-21
1.737689721e-21
3.476545592e-21
2.6235382e-21
4.635910644e-21
5.837993645e-21
3.483647343e-21
3.615134472e-20
6.489295789e-21
9.407559987e-21
1.110897243e-20
2.62798688e-21
2.883578946e-22
3.082959425e-20
4.148993127e-21
5.701643576e-21
2.348304627e-22
1.977938513e-22
7.172203934e-21
1.107852216e-21
1.518835339e-22
9.07410335e-21
3.978135171e-20
4.627205041e-21
1.48527945e-21
1.201840458e-20
1.864540009e-21
1.668607482e-20
2.536723365e-21
3.788788815e-21
3.82217249e-22
8.673553388e-21
1.321810494e-20
3.701364139e-21
9.98897416e-22
3.278733834e-21
1.312226729e-21
2.577373996e-21
7.049765178e-21
1.261477697e-20
7.545118854e-22
5.849935881e-21
6.311339337e-21
1.594792049e-20
2.438340348e-21
5.386246256e-22
1.368469725e-20
5.492687792e-21
1.4520938e-21
5.351015429e-22
1.102368305e-21
6.948679931e-21
2.223258947e-21
3.448184443e-21
1.99906239e-20
1.15305539e-21
6.251205108e-21
2.47819987e-21
3.722011518e-22
5.679531013e-21
9.567020041e-22
8.885824884e-22
6.309736711e-21
2.000956457e-21
4.454209252e-21
3.473184105e-21
8.290361162e-22
2.587705125e-21
1.77268771e-21
1.273220545e-21
1.101385951e-21
4.896322711e-21
6.245991273e-21
2.250026487e-21
9.566767421e-22
2.635000559e-22
4.456031381e-21
4.651739219e-21
5.139412063e-21
2.667170408e-22
5.747237874e-23
1.974920348e-21
6.347728914e-21
7.999718497e-21
8.325353437e-21
8.629918931e-22
8.109376022e-21
8.236679242e-22
6.231850645e-22
2.062808123e-21
1.511696232e-20
9.174798803e-22
3.600249382e-22
5.319670519e-21
2.87483055e-21
2.486056348e-21
1.129044629e-21
3.323541732e-21
3.31776984e-21
4.090166502e-21
3.63495477e-21
2.446860272e-22
5.497322305e-21
4.391028874e-21
8.10890751e-22
2.37598008e-21
2.083157831e-22
1.261678445e-21
1.354762133e-21
3.621862934e-21
1.929858143e-21
3.561547863e-21
5.666963401e-21
8.335817053e-21
3.558632463e-21
1.495991145e-21
2.925410028e-21
1.66653043e-21
5.125859197e-21
7.455782643e-24
6.829046015e-21
1.003466201e-20
1.125687494e-20
3.987628051e-21
5.710840277e-21
1.827139971e-21
5.059746094e-21
5.500510734e-23
6.173576892e-22
8.024846138e-21
8.16946377e-21
1.860046205e-21
1.016049617e-20
2.297254125e-21
2.252526523e-21
3.527125668e-21
4.116308468e-21
3.441831524e-21
1.225884508e-21
8.351136452e-22
4.825846584e-21
1.954414901e-22
1.031447315e-21
5.421318963e-21
2.272358651e-23
4.714754775e-21
2.028511535e-21
2.596224719e-21
7.507701692e-22
1.067874523e-21
7.717215508e-21
1.04926729e-20
5.579929919e-21
9.054248618e-21
1.271110686e-20
1.756410842e-22
6.21136365e-22
2.182219743e-21
1.262432875e-20
9.27006675e-22
1.523809879e-21
6.504672505e-21
1.29420558e-22
1.158869646e-20
6.864737511e-21
5.781764087e-21
3.590118307e-21
2.265192789e-21
5.221755721e-22
1.766735082e-21
6.236418526e-21
4.443422734e-21
2.709797029e-21
2.718869307e-21
1.063102366e-20
1.983837161e-21
1.142242532e-20
1.670271944e-22
4.15950562e-21
4.68530552e-21
3.298446387e-21
3.392384126e-21
2.854928184e-21
3.097641013e-21
7.473504843e-21
2.731390551e-21
9.423200977e-21
3.557471901e-21
4.005427332e-21
1.849411028e-22
6.148527889e-21
1.308946789e-21
2.90413437e-21
3.007712684e-21
2.929858865e-21
1.370686427e-21
1.229670408e-20
1.640437232e-20
8.861965606e-22
1.477124011e-21
3.271589276e-21
1.375283232e-20
2.095209887e-21
1.638733929e-21
1.34944166e-20
2.210053185e-21
1.323150595e-20
1.293271768e-21
1.143970972e-20
6.713852878e-21
6.545171811e-21
7.590460501e-22
2.961729779e-21
2.490195404e-21
8.537829527e-21
3.149872814e-21
1.786119407e-21
4.488613897e-21
9.382925706e-21
1.63080767e-23
2.442040589e-21
2.953914563e-21
1.635054154e-20
2.150560109e-21
3.373738587e-21
3.860459278e-21
2.765223487e-21
1.242253983e-21
1.923067369e-21
1.704410373e-21
1.644961595e-20
4.831588765e-21
2.141038564e-21
2.638369844e-21
6.337793371e-23
2.753883382e-21
1.977893245e-20
1.53442469e-21
2.514255757e-21
3.145039685e-21
1.913134871e-21
1.451888126e-21
1.244267215e-20
4.639191404e-21
5.141680709e-21
5.854901689e-22
1.608315683e-20
9.552117158e-22
9.498250192e-22
4.548896933e-21
1.120088797e-21
7.55486951e-22
7.999312404e-21
1.053424746e-21
2.402888328e-21
6.019154235e-22
1.241632891e-20
5.154279197e-21
9.398384629e-22
2.133937185e-22
4.618548833e-21
6.537241336e-21
2.298486571e-22
8.569692386e-21
2.342344202e-21
4.803165132e-21
5.517935393e-21
8.380934933e-21
1.440766668e-21
1.620005221e-20
5.033561536e-21
2.492293151e-21
2.54671735e-21
7.804131143e-21
1.648405768e-21
9.797148935e-22
7.804537529e-21
1.617305702e-22
2.904982014e-21
5.634669159e-21
3.188013002e-20
3.478367955e-21
2.250738556e-20
2.448921436e-20
7.641985649e-21
1.996218325e-21
1.24687218e-20
2.135824054e-21
4.804381694e-21
6.389690377e-22
5.84903646e-21
7.606853082e-21
1.43518654e-20
2.454898727e-21
2.43892464e-21
4.608023659e-21
8.8355784e-23
1.496882637e-21
6.031752572e-21
1.05323758e-20
1.259181044e-21
2.112861871e-20
1.834807206e-21
8.154301984e-21
4.018272512e-21
7.613032126e-21
3.995580604e-21
1.118233652e-22
5.118472396e-21
7.063104541e-22
3.18222764e-21
1.506234239e-21
1.040031504e-21
6.137587124e-21
1.039391521e-21
2.466357329e-21
4.537560179e-21
5.881176611e-21
8.482122934e-22
3.807045949e-22
1.054327342e-20
1.124524329e-20
3.133413063e-21
4.207392745e-21
4.99660187e-21
1.64160559e-21
1.662927799e-20
3.752455937e-21
8.549533891e-22
2.014264324e-21
1.181541617e-20
8.631521811e-22
8.503207526e-21
4.415305187e-21
8.8002029e-21
2.446852844e-22
2.40100338e-22
3.516775488e-22
1.251015835e-21
2.36882298e-21
1.260894597e-21
1.034134733e-21
1.065052764e-20
2.934034539e-21
4.501600543e-21
3.287744911e-21
6.768861529e-21
2.463807595e-20
1.418975434e-20
1.723413903e-21
4.632421595e-21
2.645300257e-21
2.221992947e-22
7.653458693e-21
9.894583589e-21
1.40400041e-21
1.558065499e-21
1.503379731e-21
9.116940062e-21
1.506016587e-21
3.662202233e-21
4.545264509e-23
9.647473938e-22
1.295664087e-20
6.838816582e-22
5.533582822e-21
1.718441526e-20
2.431215308e-22
1.264571516e-20
1.779630041e-21
3.060022492e-21
2.184972043e-21
5.105204426e-21
5.9549589e-21
7.442141546e-21
1.971427951e-21
1.372853141e-20
3.372484924e-21
3.146341931e-21
1.721872235e-22
7.778233731e-22
5.225050394e-21
2.462890633e-22
1.011719647e-20
9.526755886e-21
2.13873729e-21
5.656707552e-21
4.323981799e-21
1.4147905e-20
2.058178361e-21
1.622651009e-21
6.828883649e-21
3.28405118e-21
3.992827343e-21
2.887301749e-21
2.886187756e-22
3.917180217e-21
2.529112741e-21
1.093348644e-21
6.476644054e-22
1.183643036e-20
1.486439466e-21
3.90926127e-21
1.079153286e-22
6.534424651e-21
5.940682222e-21
1.414185081e-21
8.478928009e-23
3.187445405e-21
6.247379431e-21
6.318337824e-21
1.176054452e-21
2.273387898e-21
1.393346139e-20
5.602792008e-22
1.463768032e-21
3.414971114e-21
2.611740768e-21
1.906571979e-21
4.088148715e-21
3.787023621e-21
4.63060607e-21
7.405530827e-21
2.743884022e-21
7.983513845e-21
2.242461123e-22
1.383756672e-20
2.620231032e-21
3.780765791e-21
5.31622622e-22
6.111772046e-22
2.275536908e-21
7.674082719e-23
1.529563622e-21
8.198016621e-22
5.835565024e-21
3.041810895e-21
2.768422802e-21
1.080052856e-21
2.109478299e-21
5.387549627e-22
8.329600623e-22
1.006686809e-21
1.049004878e-21
2.459369354e-21
4.576986735e-22
8.061304197e-22
4.717948211e-21
2.213325267e-20
4.384866528e-21
9.735765459e-21
7.521767852e-22
4.474901005e-21
1.956434363e-21
2.995015481e-21
5.622816478e-22
2.292106681e-21
1.50553219e-21
4.171683165e-21
2.477254949e-21
4.109906265e-21
2.692908721e-21
1.075121073e-21
4.375854811e-21
4.580039967e-21
1.898038464e-21
3.463128795e-22
1.636951836e-21
7.796850325e-21
2.704158201e-22
1.706380751e-20
7.847390267e-21
3.981057243e-22
3.891914819e-21
7.297443621e-22
1.234100195e-20
5.97959331e-21
8.137054236e-22
3.547947168e-21
1.480848681e-21
7.582190812e-21
1.944024997e-22
2.856936564e-21
4.003167618e-24
2.420857382e-21
2.368039171e-21
1.197359659e-20
3.60791754e-21
6.128793046e-21
2.877771696e-21
1.886586261e-21
1.247167227e-20
1.764801804e-21
6.881435651e-22
1.790157886e-21
5.86398918e-22
1.148587652e-21
9.089561507e-22
1.113576893e-20
1.150023089e-21
6.830400575e-24
1.89301527e-21
4.197017342e-21
3.56980382e-21
4.78579859e-21
1.097096969e-21
2.756734595e-21
1.991029028e-21
3.586188312e-21
2.177714384e-21
1.590510727e-20
5.469381359e-21
1.200527903e-21
2.212489509e-21
1.457467335e-21
6.880039371e-21
1.904791532e-21
7.075798955e-22
7.045191898e-22
1.722855938e-21
1.765756954e-21
9.26044038e-21
4.485659713e-22
3.799853782e-21
5.704940685e-21
2.927280946e-21
2.666538008e-21
1.642899415e-21
2.461074026e-21
9.074847276e-22
1.904262265e-22
1.019428603e-20
1.831143252e-21
2.407885797e-21
1.318057378e-21
6.127257479e-21
1.434919457e-21
8.288032566e-21
9.24762411e-22
7.173399514e-21
8.50506965e-22
1.580227436e-21
5.663038465e-21
1.6352467e-21
3.248800195e-21
6.069134372e-21
5.75537795e-22
1.300579911e-20
5.224084126e-21
1.528913275e-21
3.691424715e-22
4.376030767e-21
3.505379095e-21
2.373587957e-21
3.595104755e-21
1.776156891e-21
1.355486843e-20
1.131073867e-21
7.1515071e-21
2.191441401e-20
1.813085594e-22
1.049357217e-21
4.475287384e-21
2.790123001e-21
2.131351114e-22
4.119392842e-21
2.825024625e-21
1.546766683e-21
1.022226824e-21
5.748476674e-21
2.839375183e-21
4.314696241e-21
1.295598329e-20
2.466253067e-21
3.034677449e-21
4.340079755e-22
7.723278893e-22
5.153593747e-21
8.168533723e-21
3.313114337e-21
7.681169541e-22
1.545599889e-21
9.033416434e-21
8.064356102e-21
9.127620423e-23
9.848166714e-22
8.814326673e-21
2.96466705e-21
9.790851164e-21
2.033363291e-21
7.668472797e-21
4.13214642e-21
3.98775446e-21
1.341994664e-21
1.858549319e-21