/*--------------------------------*- C++ -*----------------------------------*\
| =========                 |                                                 |
| \\      /  F ield         | OpenFOAM: The Open Source CFD Toolbox           |
|  \\    /   O peration     | Version:  2406                                  |
|   \\  /    A nd           | Website:  www.openfoam.com                      |
|    \\/     M anipulation  |                                                 |
\*---------------------------------------------------------------------------*/
FoamFile
{
    version     2.0;
    format      ascii;
    arch        "LSB;label=32;scalar=64";
    class       labelField;
    location    "0.011/lagrangian/dsmc";
    object      origId;
}
// * * * * * * * * * * * * * * * * * * * * * * * * * * * * * * * * * * * * * //


6135
(
473446
549634
474990
472788
472984
469801
53950
474680
473407
474210
474416
474821
475139
553423
474365
472668
475327
554536
475976
474475
475000
475503
475907
472458
473993
474902
475449
475654
475786
554765
552614
474393
474496
474836
475671
475707
474567
475339
475486
475545
554461
475955
476325
480507
474549
553647
475147
475219
476039
473741
474873
475189
475446
475572
475789
476174
553522
476029
474748
475007
475125
475482
475517
475520
475697
476229
476300
476568
553436
473987
474198
474465
474650
474931
475045
475254
475286
475473
475521
475542
475606
475704
475903
475904
476607
476797
555576
474157
475037
475178
475221
475356
475366
475386
475389
475598
475715
475770
475990
476031
476388
553020
553441
474630
474765
474899
475190
475513
475530
476040
476752
477336
480946
481113
54108
553959
555583
474340
474492
475192
475451
475460
475511
475757
475818
476066
476171
476260
476605
476614
476751
477165
554245
555557
553338
474763
474837
474847
474953
475138
475588
475807
475895
475970
476269
476400
476578
476771
477046
479104
474809
54131
548995
473926
475245
475335
475541
475780
475968
475979
476052
476065
476073
476079
476082
476100
476177
476195
476218
476243
476340
476673
476809
477031
477276
554549
555688
476384
481658
54144
555781
555179
474092
474289
474661
475691
475854
475874
475877
475927
476014
476093
476149
476307
476420
476501
476541
476668
476764
476778
476786
477348
552894
555371
479969
549181
473465
475170
475183
475184
475340
475381
475516
475652
475681
475700
475720
475724
475802
475821
475983
476001
476167
476289
476308
476324
476447
476514
476573
476574
476767
476781
476913
477025
478305
478386
480332
474652
475021
475070
475158
475257
475351
475420
475625
475773
475865
475870
475912
476077
476253
476255
476268
476280
476328
476338
476360
476396
476418
476425
476428
476441
476492
476516
555178
476587
476611
476621
476658
476678
476761
476773
476838
476931
476990
476998
477270
477645
556513
474907
479536
556288
480057
554443
54157
54160
474017
474342
475376
475607
475613
475617
475619
475669
475699
475804
475817
475829
475894
476038
476088
476136
476137
476155
476161
476234
476252
476270
476305
476356
476368
476389
476504
476575
476606
476608
476612
476624
476627
476703
476759
476878
476937
477111
477202
477426
477679
478555
554131
480153
480236
476826
481386
482082
54166
472092
472720
474839
475211
475560
475653
475756
475823
475872
475986
476006
476074
476140
476173
476176
476178
476180
476228
476291
476306
476320
476371
476572
476665
476667
476669
476696
477042
477148
477264
477280
477357
554556
478924
479099
555386
554545
473757
474825
475418
475537
475906
475952
476087
476244
476248
476312
476359
476361
476369
476407
476430
476446
476460
476470
476522
476579
476584
476603
476622
476623
476666
476685
476790
476791
476831
476860
476872
476887
477085
555888
477283
477563
477566
477574
477638
477699
555786
478382
478739
476561
555882
476915
475760
54181
54182
475417
475099
475175
475535
475695
475696
475888
475957
476008
476041
476162
476166
476250
476334
476350
476354
476406
476523
476550
476563
476580
476594
476604
476670
476735
476738
476748
476841
476842
476844
476861
555181
476951
476953
477008
477041
477098
477122
477179
477225
477259
477311
477350
477459
554154
477804
479102
479453
474633
556071
481287
555490
481469
482001
475188
475693
475856
476092
476148
476158
476241
476346
476348
476385
476416
476513
476636
476768
476780
476782
476799
476845
476862
476873
476932
476940
477004
477171
477210
477221
477355
477377
477382
477398
477469
477603
477680
477739
477899
478106
478120
478829
555489
479011
477876
555867
556095
555166
54201
54202
476390
475069
475492
475733
475782
475966
476003
476005
476150
476181
476222
476343
476398
476413
476526
476528
476545
476590
476598
476599
476683
476737
476763
476770
476793
476817
476827
476865
476875
476956
476970
477005
477096
477117
477157
477193
477289
477321
477351
477356
477379
477669
477732
477753
478830
556296
479358
555275
557623
480328
556187
482601
54208
550111
553519
555981
475268
475448
475621
475795
475814
475820
475914
475926
475956
476495
476515
476576
476583
476601
476653
476750
476856
476859
476864
476959
476965
476999
477009
477049
477140
477198
477204
477213
477257
477285
477308
477313
477352
477359
477362
477482
477496
477545
477581
477592
477691
477694
477700
477775
477815
477915
556297
555383
479790
556405
555884
480852
556504
481285
481656
482518
54214
54215
54216
552872
555278
556592
556815
475443
475556
475978
476266
476326
476529
476659
476697
476857
476912
476934
476945
476966
477010
477039
477137
477205
477242
477287
477288
477302
477335
477373
477388
477395
477414
477454
477476
477502
477503
477553
477712
477726
477734
556820
477810
555066
556195
557321
556398
480327
480418
557303
481197
481384
481468
557022
482171
555987
482427
550204
554026
475850
474815
476128
476236
476355
476412
476511
476517
476535
476637
476662
476744
476766
476776
476783
476818
476834
476869
476874
476877
476903
476950
476958
476962
476983
476996
477000
477064
477090
477106
477130
477265
477307
477309
477375
477465
477622
477652
477668
477688
477741
477745
477748
477752
477767
556930
477812
477881
478004
478028
478267
556931
554860
479190
479191
555679
480596
555384
481655
556173
556178
556603
482688
54242
554840
555349
475089
554764
551712
556799
557207
474774
475628
476063
476329
476491
476494
476592
476774
476822
476829
476871
476920
476927
476939
476942
476955
477022
477027
477114
477129
477174
477206
477291
477298
477384
477391
477409
477418
477425
477466
477471
477483
477512
477533
477556
477573
477593
477619
477632
477661
477690
477758
477984
478010
478097
478254
555986
556929
555280
478852
555762
556697
480152
476730
481383
54251
553990
474911
474924
475623
476318
476409
476485
476502
476615
476661
476801
476832
476921
476923
477021
477056
477097
477103
477110
477112
477180
477185
477194
477197
477281
477326
477383
477389
477399
477535
477549
477643
477646
477722
477727
477820
477828
477847
477922
477939
477968
477975
477999
478427
478454
478641
476824
479452
557723
480056
481557
482963
54261
54263
474281
556266
476519
476671
476769
476779
476910
476994
477054
477124
477178
477184
477231
477284
477310
477370
477392
477489
477534
477591
477647
477650
477671
477675
477681
477721
477765
477809
477869
477885
477889
477920
477950
478005
478015
478021
478130
478192
478239
478302
478437
478439
478550
479879
480506
480595
556601
481834
477443
556379
54274
552315
556673
555782
475944
475993
476057
476072
476233
476259
476387
476507
476527
476591
476597
476686
476753
476796
476820
476840
476843
476847
476946
476954
477012
477013
477095
477115
477123
477181
477191
477201
477319
477320
477333
477361
477401
477402
477456
477464
477485
477543
477554
477561
477621
477654
477672
477731
477751
477756
477759
477801
477814
477844
477851
477858
555582
477874
477887
477997
478013
478109
478116
478142
478152
478204
478735
478807
479009
479046
555478
479706
479707
556274
481744
482787
482879
483233
54284
54285
554953
475967
556912
475876
476451
476473
476610
555694
476918
476963
476975
477037
477061
477088
477176
477182
477195
477196
477228
477241
477294
477306
477317
477404
477467
477487
477497
477569
477583
477597
477636
477644
477670
477676
477683
477768
477782
477783
477842
477852
477900
477905
477946
477979
478019
478034
478048
478056
478118
478140
478148
478338
478358
478375
478474
478510
478602
478613
478625
478849
479010
479246
479279
479451
555477
557615
556497
477089
556919
482961
54293
472875
553521
556082
474835
476121
557111
476246
476423
476426
476674
476699
476702
476909
476919
476995
477030
477104
477127
477169
477279
477295
477297
477322
477354
477368
477407
477458
477472
477540
477639
477663
477664
477736
477740
477793
477823
477835
477911
477918
477924
477934
477945
556201
477985
477994
478012
478046
478066
478072
478086
478129
478190
478194
478253
478298
478310
557829
556607
478640
478676
478776
556710
480151
480941
558138
478059
482516
555759
558032
478487
556494
483232
547530
554147
476560
555791
556189
556193
475951
476589
476789
477016
477034
477093
477192
477200
477216
477278
477296
477363
477380
477386
477393
477394
477452
477473
477474
477544
477547
477550
477604
477624
477653
477660
477666
477674
477697
477757
477761
477790
477821
477872
477897
477929
477981
477992
478011
478018
478090
478124
478144
478151
478161
478175
478217
478266
478272
478376
478410
478416
478418
478420
478432
478438
478497
478620
478627
478712
478773
478792
478949
478993
478995
479061
479086
556611
479787
556286
480150
480326
481282
481833
556612
482687
482786
550192
554538
475584
476335
476926
476938
477007
477186
477199
477230
477381
477408
477420
477491
477493
477504
477634
477635
477649
477656
477737
477789
477806
477833
477848
477866
477907
477925
477995
477998
478022
478064
478069
478070
478088
478089
478139
478193
478247
478255
478294
478343
478365
478370
478514
478531
478539
478867
479176
479271
557628
479614
479704
479881
480234
478482
481381
557413
482785
482878
482962
483231
54307
54310
553099
553628
554647
556602
476310
476567
476675
554766
477113
477207
477212
477292
556511
477411
477441
477507
477532
477536
477542
477558
477594
477595
477633
477642
477667
477723
477746
477750
477839
477853
556291
477898
477908
477931
477932
477978
478007
478095
478110
478114
478121
478149
478195
478212
478214
478228
478237
478258
478262
478283
478348
478352
478371
478425
478496
478549
478598
478626
478636
478665
478779
478907
479005
479006
479084
557726
479136
557520
556598
481743
483230
54320
54325
552495
475078
476991
555352
477437
557922
557325
476135
476941
477175
477226
477303
477397
477453
477463
477475
477565
477657
477659
477744
477755
477763
477798
477829
477849
477862
477917
477935
477963
477976
478001
478083
478115
478158
478168
478200
478201
478215
478263
478319
478337
478361
478366
478421
478424
478447
478483
478521
478528
478534
478590
478619
478660
478719
478814
478862
478891
478899
478904
478915
478921
478940
479072
479167
557619
558030
479596
557721
557318
481742
482338
557610
482426
557707
482876
54327
54328
552771
553997
557201
556510
475762
475346
476784
476792
476846
476905
477032
477082
477299
477305
477417
477446
477564
477577
477711
477785
477836
477837
477880
477892
477913
477972
477986
478002
478044
478058
478101
478164
478191
478196
478202
478206
478265
478278
478284
478320
478322
478330
478356
478413
478440
478460
478505
478507
478530
478569
478580
478581
478593
478597
478599
478605
478654
478763
478766
478898
478923
478964
478987
479075
479209
479224
479665
480054
557312
481281
555881
482167
483581
557421
483828
54331
474359
556285
474539
556878
557017
556198
476059
476707
476807
476967
477020
477036
477511
477567
477586
477629
477682
556409
477720
477738
477742
477762
477947
477967
477989
478051
478053
478063
478079
478147
478176
478189
478197
478260
478287
478332
478341
478344
478360
478448
478500
478503
478509
478520
478571
478670
478672
478759
478790
478793
478797
478853
478860
558357
479216
479269
479357
479403
479534
557114
481382
482080
556490
556905
54338
54339
54340
551121
555984
553424
477168
555357
476742
476746
477203
477268
477301
477462
477492
477528
477546
477557
477623
477655
477713
477764
477838
477845
477859
477896
477901
477960
478031
478075
478096
478180
557121
478225
478268
478373
478417
478435
478457
478472
478498
478511
478522
478523
557118
478628
478671
478693
478710
478778
478780
478811
478896
478975
478976
479031
479062
479064
479135
479148
479165
479183
479299
479300
479386
479613
557622
480148
557621
481556
482000
482686
557823
482877
479203
483580
54349
54351
54352
54353
555267
557317
555980
478146
477043
477189
477385
477390
477480
477562
477602
477811
477857
477895
477906
477914
477965
477971
478071
478076
478091
478094
478155
478157
478165
478177
478184
478209
478248
478249
478250
478256
478362
478367
478406
478516
478546
478547
478604
478610
478616
478622
478635
478649
478677
478678
478691
478695
478704
478706
557929
478781
478791
478794
478813
478826
478951
478953
478968
478986
479063
479070
479122
479151
479189
479234
479314
558660
479705
479875
480940
481195
481652
481654
557427
556703
483046
556606
54363
54364
552579
552550
475509
556920
555883
557200
557625
551659
476342
476475
476626
477102
477290
477495
477505
477716
477754
477778
477840
477882
477893
477923
477966
478025
478047
478054
478080
478098
478156
478274
478291
478333
478353
478434
478436
478449
478461
478495
478501
478532
478565
478578
478587
478639
478673
478682
478764
478802
478822
478871
478882
478960
478969
479003
479071
479114
479213
479236
479305
479348
556183
479379
479417
479438
479511
479632
558358
479878
480144
480938
556705
482513
482514
477164
556911
558023
482875
557418
558146
557918
54368
54369
54370
54371
549604
555379
476130
477177
556967
476837
476911
477282
477396
477555
477627
477685
477725
477776
477807
477879
477916
478003
478006
478026
478035
478081
478099
478104
478162
478163
478181
478251
478257
478311
478374
478381
478402
478426
478429
478453
478456
478473
478493
478506
478524
478526
478669
478687
478688
478728
478760
478798
479082
479131
479172
479180
479268
557923
479303
479383
479430
479448
479583
557219
479902
480147
480405
482165
558443
477628
556933
483142
478401
483316
483399
557801
484002
484185
54382
54384
54385
54386
550831
552313
554233
554614
555435
554418
555492
555146
478060
557516
559362
477576
477743
477846
477902
477912
477921
477980
478023
478084
478085
478100
478145
478174
478241
478264
478277
478279
478317
478318
478325
478372
478399
478408
478445
478452
478486
478489
478492
478518
478575
478624
478631
478699
478701
478756
478815
555681
478856
478895
478950
478994
479002
479008
479029
479040
479050
479058
479074
479160
479175
479275
479309
479322
479340
479405
479520
479567
479576
479579
479601
479607
479675
557620
479744
479877
479932
480592
480939
557416
558649
482783
483662
558828
484000
54397
54399
54400
549185
553118
475596
555887
477091
558122
477300
477515
477571
477587
477651
477678
477779
477867
477890
477904
478014
478074
478107
478179
478183
478185
478198
478211
478235
478242
478259
478351
478359
478397
478398
478585
478600
478637
478659
478668
478689
478767
478769
478786
478788
478858
478863
478892
478945
478959
479001
558035
479017
479030
479052
479120
479128
479158
479225
479295
479415
479470
479489
479519
479606
479697
479777
559161
480046
481280
557319
477959
556502
483141
557656
484184
54409
54410
553435
553746
555353
478068
477080
475429
558766
477075
477118
477366
477665
477774
477816
477830
477894
477973
477977
478057
478067
478082
478159
478169
478207
478210
478252
478275
478331
478336
478368
478415
478423
478442
478446
478484
478488
478502
478615
478618
478708
478785
478820
557926
478861
478864
478916
478935
478939
478944
478967
478977
478992
479023
479026
479048
479109
479130
479138
479145
479232
479238
479259
479312
479334
479351
479389
479391
479663
479682
479695
479752
479815
479993
480033
480235
481741
559883
558548
482337
558531
557523
479110
558547
483911
54416
54418
54419
54420
54421
552684
552996
475855
556805
557327
474007
559368
473082
477099
477146
477478
477484
477486
477537
477637
477719
477808
477817
477930
478171
478261
478347
478349
478389
478428
478444
478464
478591
478592
478611
478662
478679
478696
478765
478784
478789
478800
478816
478828
478884
478897
478963
478974
479020
479042
479051
479068
479147
479156
479243
479252
479264
479291
479306
479317
479341
479350
479425
479432
479450
479499
558860
479602
479623
479749
479765
479774
479825
479835
479854
480126
480145
480417
480590
478395
558349
558147
559579
483661
558428
484094
557712
477539
54427
54428
54429
54430
553328
554313
554835
477167
478584
554834
475709
476048
556200
556295
558355
477580
477673
477903
477982
478008
478092
478182
478244
478269
478271
478280
478297
478354
478490
478533
478541
478566
478594
478595
478621
478702
478724
478855
478877
478908
478912
478954
478962
479032
479095
479119
479186
479207
479228
479253
479256
479319
479490
479502
479560
479564
479574
479593
479624
479662
559163
479745
479756
479766
479786
479813
479871
479927
480023
480192
480676
557718
481740
479799
559150
54439
541716
547433
549508
551175
553266
554121
474805
554089
555382
555344
556078
477538
557597
477083
474626
477819
477827
477990
478105
478166
478236
478240
478295
478499
478504
478508
478512
478517
478543
478576
478632
478664
478681
478796
478873
478878
478885
478947
478972
478983
479041
479087
479133
479263
479349
479374
479377
479393
479422
479467
479471
479484
479493
479497
479569
479651
479652
479685
558451
479770
479829
479844
479851
479920
479990
480000
559153
558136
481465
559476
558658
479546
482685
482782
483138
483229
483578
484183
484372
484373
484722
557914
54445
550632
554145
553948
476734
474233
477551
557727
475161
479013
477365
477834
478153
478226
478334
478451
478535
478612
478684
478700
478851
478887
478888
478932
478984
478996
479054
479117
479170
479227
479270
479287
479296
479310
479327
479337
479347
558453
479381
479398
479410
479427
479533
479545
479547
479552
479581
479604
479620
479664
479692
479723
479748
479940
479966
480124
480230
480303
480504
480560
480588
480591
480914
557920
481194
478846
479045
558762
557915
558248
483999
54447
54448
54449
54450
553201
553732
554351
476043
555474
477662
476997
477802
557018
557826
475164
558819
557485
558128
476899
552811
477568
477714
477724
477831
477988
478000
478188
478224
478335
478363
478422
478560
478603
478663
478698
478723
478799
478801
478803
478948
478958
478961
479021
479035
479047
479076
479157
479168
479204
479233
479251
479257
479261
479376
479380
479392
479411
479478
479512
479556
479582
479591
479608
479616
479678
479731
479741
479807
479810
479852
479872
479992
480018
480117
480165
480256
480532
481110
481466
559058
557714
483747
558017
484805
54454
54455
54456
54457
546744
550507
549493
552051
551420
475331
553719
475943
556397
556192
556081
557311
556162
556563
557518
557420
476217
555964
558336
477256
557713
558006
558655
557715
477353
477987
478017
478173
478281
478574
478583
478596
478614
478617
478657
478686
478705
478805
478844
478866
478868
478931
478980
479007
479055
479065
479171
479174
479248
479260
479293
479308
479318
479388
479409
479416
479479
479487
479509
479518
479571
479605
479628
479659
479688
479732
479746
479802
479845
479892
479916
479934
479950
479982
479984
480028
480045
480101
480104
480108
559063
480179
480207
480243
480275
557921
480986
481279
481467
557916
483045
483577
483660
479468
559655
473835
54464
54466
54468
553952
554517
474817
554639
555853
555954
554761
477875
557025
476571
477002
477017
558759
478150
478154
478227
478340
478515
478519
478542
478609
478685
478775
478783
478795
478881
478957
478965
479012
479057
479081
479085
479137
479142
479144
479182
479235
479237
479239
479240
479311
479331
479333
479412
479424
479481
479500
479515
479551
479587
479595
479618
479640
479661
479691
479757
479761
479763
479805
479818
479853
479865
479900
479904
479912
479919
479921
479923
479939
479983
480020
480128
480136
480146
480225
480252
480259
480278
480286
480301
480321
480582
480736
480851
480901
481108
481377
481379
481552
559673
558549
479371
482166
482780
557910
483998
484629
559662
54476
551351
552556
552101
554330
551300
474458
555877
557296
477794
556902
477974
557216
558445
477677
477747
477909
478061
478229
478328
478606
478608
478718
478782
478817
478942
478999
479033
479043
479049
479066
479092
479116
479118
479125
479129
479134
479146
479150
479154
479166
479229
479254
479326
479338
479385
479407
479449
558858
479492
479523
479525
479572
479590
479630
479646
479666
479669
479812
479817
479821
479908
479948
479959
559366
479991
480004
480027
480109
480199
480361
480362
480380
480436
480550
559881
480821
480849
559055
559877
559367
559254
482683
482781
482872
558951
555259
478843
484182
480600
559773
559152
484370
559755
559146
54479
54480
54481
54482
54483
553086
552890
553117
553585
554921
555591
476127
555575
556373
556599
477618
556605
557301
555690
553851
475965
554665
477442
478065
478270
478276
478463
478548
478690
478774
478857
478869
478890
479019
479079
558036
479115
479161
479163
479230
479244
479250
479302
479315
479320
479321
479396
479402
479429
479477
479501
479550
479592
479645
479650
479658
479743
479762
479771
479780
479834
479842
479868
479891
479903
480040
480075
480129
480137
480187
480217
480354
480399
480423
559577
480547
480625
480668
480700
480762
480065
481650
481909
559061
559158
482779
483489
558340
483827
484092
558553
559364
559863
485328
54486
54487
54488
550022
551407
473755
553507
556073
474221
556357
555336
554910
476035
555978
555960
556089
554462
476907
477272
476986
558444
559860
476757
477494
478073
478419
478601
478703
478707
478758
478818
478872
478900
479038
479060
479159
479212
479242
479255
479267
479285
479335
479384
479390
479406
479418
479423
479431
479436
479442
479465
479491
479494
479510
479527
479541
479667
479698
479736
479755
479760
479874
479925
479973
479985
480005
480021
480029
480036
480082
480090
480095
480125
480173
480201
480204
480283
480309
480347
480398
480496
480542
480639
480731
481025
481832
559573
482164
558230
482425
559468
559051
484368
484369
484721
485235
485329
54498
54499
54500
54501
54502
54503
54504
54505
54506
54507
543732
542742
547621
551573
552795
552899
553453
554355
554043
555763
556604
554754
555957
475246
554850
558021
555990
477791
557503
558245
475765
557122
559874
478222
477271
478588
478666
478692
478768
478777
478850
478893
478978
479053
479078
479226
479245
479249
479324
479401
479480
479507
479508
479566
479570
479603
479639
479653
479656
479660
479716
479720
479722
479724
479764
479773
557313
479808
479849
479869
558359
479893
479898
479909
479929
479933
479965
479976
479980
480019
480087
480183
480184
480194
480205
480269
480356
480368
480369
480372
480383
480458
480471
480482
480499
480636
480659
480703
480718
480754
481277
481374
559257
481649
482959
559654
483576
560585
484279
480425
478232
54512
54513
54514
54515
54516
54518
54521
551047
553572
553409
554960
554747
554408
554865
477107
557895
552977
557192
558959
476472
480159
478029
478339
478441
478694
478755
479328
479344
479367
479394
479413
479421
479437
479485
479563
479568
479580
479588
479594
479668
479687
479740
479769
479820
479937
479952
480002
480007
480034
480080
480097
480098
480099
480107
480170
480195
480203
480223
480240
480276
480280
480284
480291
559064
480345
480353
480437
480462
480480
480529
480548
480552
480569
480630
480685
480896
481043
481186
481492
558563
557218
483315
560893
479548
558961
559975
484541
485145
485146
485424
485508
54524
54525
54526
550076
552390
549771
554852
554444
555775
557104
556251
556138
477873
478390
553330
558659
554734
558440
556384
480339
478674
477996
478077
478238
478513
478870
479034
479036
479152
479218
479258
479272
479342
479433
479474
479475
479476
479482
479528
479585
479642
479647
479680
479739
479767
479814
479816
479823
479828
479848
479856
479924
479935
479958
479996
479999
480003
480008
480010
480032
480043
480135
480171
480220
480255
480336
480367
480382
558761
480439
480451
480457
480558
480565
480622
480655
480701
480709
480713
480738
480797
480810
480975
481033
481142
559772
482162
559664
482509
558647
483136
558339
484278
559159
484627
54529
54531
54532
54533
54534
54535
54536
547053
553525
554655
554030
554809
477081
556590
556292
478160
556688
558029
558327
553225
556714
476496
478716
478902
479127
479278
479370
479399
479420
479447
479516
479634
479636
479654
479717
479730
479733
479738
479747
479776
479905
479907
480006
480013
480051
480092
480103
480200
480210
480295
480296
480351
480363
480378
480445
480447
480472
480562
560302
480607
480610
480634
480692
480715
480877
480910
480971
481011
481055
481058
481157
481173
481241
481331
481453
481613
480338
559473
482868
483826
560783
478655
560061
559266
560267
560286
54544
54545
54546
54547
54548
54549
54550
54551
54552
54553
548020
551862
544253
551117
552199
549463
552269
554041
553074
553489
554630
554453
556512
475676
555488
555728
475962
476249
557800
555766
555689
557292
556496
558841
477871
558240
558011
476044
478714
478725
478952
479067
479140
479143
479266
479395
479503
479504
479517
479522
479575
479577
479621
479657
479681
479737
479754
479784
479803
479836
479857
479887
479890
479918
479947
480016
480100
480102
480120
480185
480262
480271
480315
480357
480371
480379
480407
480424
480465
480473
480478
480485
480497
480516
480546
480566
480635
480670
480710
480746
480790
480825
480865
480879
480948
481357
481553
560496
483487
559759
484181
484720
561323
485422
54560
54561
554232
553897
554129
550914
556053
554039
475583
556038
555961
556065
556684
475603
555787
554328
557905
557512
554547
560594
560790
551557
478946
479149
479289
479313
479366
479378
479483
479505
479671
479694
558246
479819
479830
479833
479837
479843
479899
479922
479997
480024
480030
480038
558662
480076
480078
480086
480088
480089
480114
480158
480182
480186
480190
480202
480206
480218
559370
480247
480274
480387
480429
480435
480487
480522
480561
480572
480581
480739
480748
480756
480757
480828
480842
480867
480875
480882
480950
481024
481031
481133
481136
481324
560599
481789
481995
482682
483135
484091
558854
559571
560484
559471
485234
485507
485596
485775
559672
54564
54565
54566
550203
550450
550531
552028
552302
552725
554228
552885
553685
554855
555247
555462
554601
476900
475772
555023
555466
555253
557811
477969
556283
556813
556982
558112
558418
558003
557913
558233
477718
473589
552387
554558
555563
560084
560156
479726
556086
478112
478889
478973
479241
479247
479329
479612
479622
479719
479721
479728
479768
479804
479839
479889
479911
479913
479942
479981
480066
480071
480094
480122
480127
480178
480189
480197
480209
480212
480215
480221
480287
480402
480455
480456
480477
480537
480587
480656
480702
480707
480722
480791
480815
480819
480824
480833
480835
480848
480890
480921
480978
481030
481067
481073
481122
481141
481230
481395
481421
481694
481737
482163
558856
560294
483137
561295
484277
485062
485680
54567
54568
54570
552306
552988
554929
554767
555144
554176
476037
554430
556411
550114
557633
558099
558116
558409
478491
479283
560172
558857
554744
553006
478329
479056
479323
479325
479364
479404
479488
479562
479611
479641
479751
479753
479759
479779
479824
479895
479936
479943
479951
479954
479987
480031
480037
480042
480077
480091
480096
480105
480166
480172
480188
480211
480224
480263
480272
480288
480364
480370
480391
480392
480434
480452
480461
480470
480514
480535
480557
480567
480612
480618
480637
480650
480657
480673
480714
480749
480779
480789
480799
480823
480832
480866
480884
480900
480908
480920
559771
480974
481086
481121
481135
481143
481159
481163
481220
481334
481778
481994
561326
559667
484367
559144
484804
480244
560284
560788
485420
485423
560874
54573
54574
54575
54576
54577
54578
54579
54580
54581
550563
551664
552910
554419
553213
553558
554459
553982
475412
556077
554955
556049
474634
554830
554903
555581
476987
557810
557002
476646
556402
557608
557109
557429
558452
556707
560454
558026
478233
554966
550097
479000
479221
479231
479262
479397
479561
479573
479589
479735
479827
479846
479876
479914
479926
479930
479938
480049
480106
480196
480231
480251
480264
480281
480394
480396
480406
480489
480523
480530
480624
480628
480645
480677
480678
480723
480733
480745
480798
480839
480891
480894
480902
480903
480923
480929
480951
480965
480977
481057
481092
481151
481315
481437
481443
481444
481507
481628
481643
481684
481711
481721
560598
561320
483488
483490
483996
484540
484626
479462
559576
559880
560695
485421
561312
486213
54591
54593
54594
547414
547037
549375
550602
551761
542834
553067
555031
555175
553713
554088
554959
553807
555059
554143
555218
554312
476313
556660
555470
557924
556988
476490
477079
474727
560470
480518
556093
477449
478880
478970
479284
479345
479408
479473
479495
479524
558765
479800
479809
479831
479832
479838
479915
480009
480014
480044
558966
480067
480163
480191
480228
480270
480277
480279
480384
480400
480453
480539
480540
480541
480543
480559
480644
480651
480671
480744
480830
480836
480838
480860
480872
480895
480972
481007
481037
481039
481202
481207
481244
481250
481399
481424
481606
481642
481645
481804
559979
482424
479635
482775
561099
480242
483746
483995
559346
484276
559267
560482
485327
559633
54597
548668
550511
552060
554653
551843
475319
555319
555263
554841
476985
476212
477439
476656
556506
555573
555979
557611
557792
557768
558957
560080
477438
561626
559053
555169
478167
556716
478876
478988
479059
479598
479711
479962
479986
479989
480177
480181
480219
480241
480265
480268
480300
480348
480355
480359
480365
480374
480403
480454
480512
480613
480641
480665
480844
480933
480973
480976
480987
481010
481046
481148
481175
481201
481222
481256
481266
481321
481325
481351
481363
481365
481375
481406
481515
481523
481664
560589
560074
562320
484719
485774
485865
54598
54599
54600
54601
54602
552859
551861
553081
552241
474538
551808
555465
554915
554179
554842
555552
477092
556577
555949
557690
478223
557215
557720
556818
557073
476245
479629
476386
553790
476569
480687
480538
558635
478806
478991
479215
479382
479637