/*--------------------------------*- C++ -*----------------------------------*\
| =========                 |                                                 |
| \\      /  F ield         | OpenFOAM: The Open Source CFD Toolbox           |
|  \\    /   O peration     | Version:  2406                                  |
|   \\  /    A nd           | Website:  www.openfoam.com                      |
|    \\/     M anipulation  |                                                 |
\*---------------------------------------------------------------------------*/
FoamFile
{
    version     2.0;
    format      ascii;
    arch        "LSB;label=32;scalar=64";
    class       Cloud<dsmcParcel>;
    location    "0.011/lagrangian/dsmc";
    object      positions;
}
// * * * * * * * * * * * * * * * * * * * * * * * * * * * * * * * * * * * * * //

6135
(
(0.3013439676 0.2597399046 2.168404345e-19) 443
(0.3008268232 0.2742977714 -3.523657061e-19) 533
(0.3044061486 0.2180141742 -2.168404345e-19) 203
(0.2950819312 0.2354471058 1.084202172e-19) 322
(0.2981650092 0.2563346397 0) 443
(0.2877890262 0.210818081 2.168404345e-19) 171
(0.2730170429 0.221954805 0) 259
(0.2650695106 0.2077955709 -4.33680869e-19) 168
(0.2838409631 0.1807429236 2.168404345e-19) 30
(0.2836892347 0.1945858048 0) 111
(0.2899839513 0.2228971525 -1.626303259e-19) 262
(0.299253251 0.2142908691 3.252606517e-19) 203
(0.2947034015 0.2547731809 1.084202172e-19) 412
(0.3012402622 0.2155592018 1.626303259e-19) 203
(0.2962989824 0.2117694044 0) 202
(0.2922657479 0.2150465725 6.776263578e-20) 202
(0.293060676 0.230361409 8.131516294e-20) 292
(0.3041579996 0.2325306953 2.168404345e-19) 293
(0.288791675 0.2426871581 0) 351
(0.2771377851 0.2038461603 0) 140
(0.2973782244 0.2464375503 -2.168404345e-19) 383
(0.2930042321 0.2043212817 2.168404345e-19) 142
(0.2821709146 0.2058976583 3.252606517e-19) 171
(0.2845833133 0.249590755 0) 381
(0.2973732964 0.195270142 -1.219727444e-19) 83
(0.2834418369 0.249555775 -1.084202172e-19) 381
(0.2756040386 0.2211176386 2.168404345e-19) 260
(0.271691312 0.2492013797 -6.505213035e-19) 409
(0.3011619893 0.2098872709 5.421010862e-20) 173
(0.2572300138 0.1786887798 0) 48
(0.2940857687 0.1951721699 -2.168404345e-19) 112
(0.2916507468 0.252205446 -5.421010862e-20) 412
(0.3039339328 0.2329163502 -2.168404345e-19) 293
(0.302181 0.2343692946 0) 323
(0.2945520486 0.2628886649 -2.168404345e-19) 472
(0.2923823488 0.2734003086 0) 532
(0.2873892541 0.189494855 -4.33680869e-19) 81
(0.2995606378 0.2805740956 0) 563
(0.2947912086 0.2214698211 1.084202172e-19) 232
(0.2964175276 0.2262198058 -4.33680869e-19) 262
(0.298990958 0.208436296 -2.168404345e-19) 173
(0.3037729665 0.2459266354 4.33680869e-19) 383
(0.3024080288 0.2627124313 -2.168404345e-19) 473
(0.2929943664 0.2229544546 -8.131516294e-20) 262
(0.2876950939 0.1688607993 -3.794707604e-19) 3
(0.2666922118 0.20123572 4.33680869e-19) 138
(0.3011644369 0.2432214969 2.846030703e-19) 353
(0.2903887864 0.2606888573 2.439454888e-19) 442
(0.2979256103 0.1965635276 1.626303259e-19) 113
(0.288474668 0.2090963164 2.168404345e-19) 171
(0.2950636885 0.2851136313 -1.084202172e-19) 592
(0.3033148277 0.2126690392 0) 203
(0.2984292202 0.2401909668 0) 353
(0.2967674274 0.2238610587 0) 262
(0.293951094 0.2030754582 -1.490777987e-19) 142
(0.3000168241 0.2417617321 1.76182853e-19) 353
(0.2964428654 0.2355997806 -2.168404345e-19) 322
(0.2768207194 0.2150957185 -4.33680869e-19) 200
(0.3045758484 0.237870109 0) 323
(0.2789622038 0.2245900882 0) 260
(0.2940967353 0.1772858235 1.084202172e-19) 15
(0.3043189056 0.2623688684 0) 473
(0.2976746868 0.2141389147 0) 203
(0.2839757268 0.2063541808 3.320369153e-19) 171
(0.2855076362 0.2271168104 0) 261
(0.2992335715 0.2222633476 2.168404345e-19) 233
(0.286007416 0.1975949168 -4.33680869e-19) 111
(0.2955128577 0.2038703374 -2.168404345e-19) 142
(0.3036892715 0.1913167087 4.33680869e-19) 83
(0.2861702438 0.2100368074 -3.794707604e-19) 171
(0.2825553941 0.2413707388 -5.692061406e-19) 351
(0.2952496688 0.2121134099 0) 202
(0.2810432954 0.2444170674 0) 380
(0.2810755457 0.2075868637 4.33680869e-19) 170
(0.2761497422 0.2655526428 -2.168404345e-19) 470
(0.2951642136 0.2025786009 0) 142
(0.2680895167 0.2226562522 0) 259
(0.289577903 0.256257872 2.168404345e-19) 442
(0.2949825311 0.1845414782 -2.168404345e-19) 53
(0.3041570705 0.2072355163 4.33680869e-19) 173
(0.2977783067 0.2431749812 2.168404345e-19) 353
(0.2537210763 0.1925080718 -1.084202172e-19) 107
(0.2819079463 0.2946176749 -4.33680869e-19) 650
(0.3030386408 0.2143372707 -3.252606517e-19) 203
(0.3008783651 0.2092859118 -1.084202172e-19) 173
(0.300963949 0.2629966599 1.185846126e-19) 473
(0.2976605776 0.2102429222 -1.084202172e-19) 173
(0.2970319442 0.1858160241 1.084202172e-19) 53
(0.2926895529 0.2953900349 -3.794707604e-19) 652
(0.2893512272 0.1924683221 0) 81
(0.2572046088 0.2389502603 -5.421010862e-20) 347
(0.3022989361 0.2831622247 1.084202172e-19) 563
(0.2726140119 0.2232018412 -1.897353802e-19) 259
(0.3031538072 0.2782430598 0) 563
(0.3018959661 0.2569505582 -2.168404345e-19) 443
(0.2596126138 0.2444727599 -2.168404345e-19) 378
(0.2938510889 0.2273213856 -3.794707604e-19) 262
(0.2670168226 0.2305310256 4.33680869e-19) 289
(0.2977506704 0.2257713589 -4.201283418e-19) 263
(0.3042719418 0.1921008146 0) 83
(0.2737752941 0.257862535 6.505213035e-19) 439
(0.2788242822 0.174731894 2.168404345e-19) 13
(0.2880614023 0.2117168712 0) 201
(0.2804828354 0.2072683296 -2.168404345e-19) 170
(0.2983241555 0.2217257048 2.168404345e-19) 233
(0.2724083165 0.2517498142 -1.829591166e-19) 409
(0.2493783157 0.218160989 -2.168404345e-19) 226
(0.2781171209 0.2414133134 -3.794707604e-19) 350
(0.2834151823 0.1943346279 4.33680869e-19) 111
(0.2871821584 0.2234393639 -1.084202172e-19) 261
(0.3037110397 0.2345431058 0) 323
(0.3026455599 0.2254011608 0) 263
(0.3013368306 0.2806538883 0) 563
(0.2902029511 0.2551658794 -1.626303259e-19) 412
(0.3028104213 0.2739697714 -2.168404345e-19) 533
(0.3032705793 0.2051794372 0) 143
(0.2881084733 0.210428034 -6.505213035e-19) 171
(0.2866476701 0.2851243624 1.084202172e-19) 591
(0.294859817 0.2391902552 3.252606517e-19) 322
(0.3043213829 0.2223980446 -4.33680869e-19) 233
(0.3038711392 0.2653023282 2.168404345e-19) 473
(0.3008351329 0.2482103934 -2.710505431e-20) 383
(0.2848421283 0.200746098 -1.084202172e-19) 141
(0.303119434 0.2128221614 0) 203
(0.2925697542 0.2673658885 -4.33680869e-19) 502
(0.2766885053 0.2624948911 5.963111949e-19) 470
(0.304133528 0.2133617993 -2.168404345e-19) 203
(0.28994239 0.2083910768 -5.421010862e-20) 172
(0.2894519541 0.2911703521 -3.252606517e-19) 621
(0.2922245593 0.2219680422 2.168404345e-19) 232
(0.2743886639 0.1946417323 6.505213035e-19) 110
(0.2755671633 0.2060892583 4.33680869e-19) 170
(0.2687928119 0.1841670309 1.084202172e-19) 50
(0.2947922095 0.2168254045 4.33680869e-19) 202
(0.2710320998 0.1945594405 2.981555974e-19) 109
(0.2570226341 0.2685810955 0) 497
(0.3018936828 0.2272785814 2.168404345e-19) 263
(0.2966803932 0.2376658207 -4.33680869e-19) 322
(0.3000013873 0.2489207117 3.252606517e-19) 383
(0.2878728045 0.2700357736 -2.168404345e-19) 501
(0.2989728069 0.1731723496 -3.252606517e-19) 5
(0.2752513552 0.252748168 0) 410
(0.3032840568 0.2689421782 1.084202172e-19) 503
(0.3018549071 0.2074079967 -2.168404345e-19) 173
(0.290731979 0.2196442255 -5.421010862e-20) 232
(0.2962755944 0.2099604905 -2.168404345e-19) 172
(0.2890348705 0.2255704477 -4.33680869e-19) 261
(0.300472529 0.296510387 -2.710505431e-19) 653
(0.2949410149 0.2835923159 -4.33680869e-19) 592
(0.3005212755 0.2859906922 -4.201283418e-19) 593
(0.2715693194 0.2003236143 -3.252606517e-19) 139
(0.3039854176 0.276585098 2.168404345e-19) 533
(0.2913331344 0.2461134561 5.421010862e-20) 382
(0.2961840591 0.1962205323 -4.33680869e-19) 112
(0.2528515075 0.2409351567 6.776263578e-20) 347
(0.2997452309 0.2154000989 -3.252606517e-19) 203
(0.3042129046 0.2505407493 -4.33680869e-19) 383
(0.2529545232 0.1944544345 4.065758147e-20) 107
(0.2226111648 0.2432554623 1.897353802e-19) 373
(0.2967743528 0.2138466448 4.33680869e-19) 202
(0.2996994423 0.1875743501 -2.710505431e-20) 54
(0.2882504312 0.2111445365 0) 201
(0.3015105694 0.2564998282 0) 443
(0.3002427748 0.2624279324 -2.168404345e-19) 473
(0.2737508245 0.2183285718 4.33680869e-19) 229
(0.2841764321 0.1979220783 -5.421010862e-20) 111
(0.243353698 0.2437581053 -3.794707604e-19) 375
(0.281640508 0.2700397957 2.168404345e-19) 500
(0.2681568872 0.246456504 -1.626303259e-19) 379
(0.2815869057 0.1847162838 -2.710505431e-20) 51
(0.2798874944 0.2613222777 2.168404345e-19) 470
(0.3034811347 0.2654695008 0) 473
(0.2849424117 0.2319652015 1.084202172e-19) 291
(0.30437498 0.2621402352 -2.168404345e-19) 473
(0.2953061236 0.213424409 -1.084202172e-19) 202
(0.2944104979 0.2091816631 0) 172
(0.2900684237 0.2103842191 6.505213035e-19) 172
(0.2559699398 0.1898829789 4.33680869e-19) 77
(0.2970439719 0.2811025146 4.33680869e-19) 562
(0.2901673512 0.2785012657 4.065758147e-19) 562
(0.2902511302 0.1894863975 -1.626303259e-19) 82
(0.2842121002 0.189535603 2.168404345e-19) 81
(0.2605019864 0.2301443047 -8.131516294e-20) 288
(0.2985470643 0.2034984095 -2.168404345e-19) 143
(0.2699427634 0.2369549138 0) 319
(0.2486379651 0.2014511381 0) 166
(0.2688893385 0.2587722725 2.439454888e-19) 439
(0.2737830616 0.1889712677 -1.084202172e-19) 79
(0.2829678898 0.2119942896 0) 201
(0.2787013596 0.2891479649 0) 620
(0.2310055272 0.2297863526 -2.168404345e-19) 314
(0.2715427708 0.2514290057 -2.168404345e-19) 409
(0.2999142281 0.199863733 2.168404345e-19) 113
(0.3006275297 0.2020087843 1.897353802e-19) 143
(0.2715810798 0.1763574688 -2.168404345e-19) 28
(0.2787543292 0.2275090766 2.168404345e-19) 290
(0.3045926755 0.294568312 0) 653
(0.2959279073 0.1894284949 0) 53
(0.2939843418 0.2795824452 -3.252606517e-19) 562
(0.3017010788 0.2525557398 0) 413
(0.30450254 0.2064387393 0) 143
(0.3046521213 0.1710661248 1.084202172e-19) 5
(0.2849117872 0.1948311683 0) 111
(0.2584597404 0.1954538545 -2.168404345e-19) 107
(0.2739947029 0.2213754617 4.33680869e-19) 259
(0.2683907346 0.2755114161 1.084202172e-19) 529
(0.2522456272 0.190171037 2.168404345e-19) 107
(0.2774139057 0.248353537 6.505213035e-19) 380
(0.2534182395 0.1757102619 -2.168404345e-19) 26
(0.2958774601 0.2251600869 -3.252606517e-19) 262
(0.2769637164 0.2301246745 3.252606517e-19) 290
(0.2841191122 0.2263596803 -3.252606517e-19) 261
(0.2862288794 0.2267778211 2.710505431e-19) 261
(0.2622169326 0.2449647483 -3.69306365e-19) 378
(0.2533160065 0.1782164806 2.168404345e-19) 48
(0.2677146626 0.2510040333 0) 409
(0.2863446563 0.2543463538 5.421010862e-20) 411
(0.2654614579 0.266032424 0) 498
(0.2536305236 0.1765211652 1.084202172e-19) 26
(0.2959586161 0.2159663774 2.168404345e-19) 202
(0.2558267843 0.2182901763 2.168404345e-19) 227
(0.2655177966 0.2605817972 2.168404345e-19) 468
(0.2929687461 0.2956109523 0) 652
(0.2984329829 0.2494053494 0) 383
(0.2961914292 0.2480931141 0) 382
(0.2967807267 0.2130595287 -2.168404345e-19) 202
(0.2913396153 0.2902351125 -3.388131789e-21) 622
(0.2586310295 0.2070495165 0) 167
(0.2997375192 0.2098460055 5.421010862e-20) 173
(0.2888093644 0.2253430684 -4.33680869e-19) 261
(0.2489021886 0.2603970172 4.33680869e-19) 466
(0.2922288198 0.2438421128 0) 352
(0.2943451621 0.2296036582 0) 292
(0.2616320461 0.2421819485 0) 348
(0.2901632661 0.2892985536 2.168404345e-19) 622
(0.2649755987 0.2587216941 2.168404345e-19) 438
(0.2596542855 0.292270129 1.084202172e-19) 618
(0.300800613 0.2532473173 3.811648263e-21) 413
(0.2821483531 0.2253138048 0) 261
(0.2813758764 0.1881668788 0) 80
(0.2989804893 0.2044234651 0) 143
(0.2549087187 0.1999522729 -1.084202172e-19) 137
(0.2860918911 0.2876990724 0) 591
(0.2693729171 0.1961083223 5.421010862e-20) 109
(0.2884377057 0.2859328817 -5.421010862e-20) 591
(0.2936577749 0.1976431377 -5.421010862e-20) 112
(0.3004221307 0.2172243213 -4.33680869e-19) 203
(0.2378210039 0.2826687423 -2.168404345e-19) 585
(0.27013785 0.2146667509 5.149960319e-19) 229
(0.2900710031 0.2500949869 -2.168404345e-19) 412
(0.273642769 0.2687738267 1.219727444e-19) 499
(0.3043833289 0.2331049432 -6.505213035e-19) 293
(0.2802662673 0.2282246233 2.168404345e-19) 290
(0.2873422528 0.2599139417 -2.168404345e-19) 441
(0.2944463829 0.1984764955 -3.252606517e-19) 112
(0.2859103908 0.1871104127 9.486769009e-20) 52
(0.2903965377 0.2687601987 0) 502
(0.2922907288 0.2108412336 -4.33680869e-19) 172
(0.2734688819 0.2207903702 -4.33680869e-19) 259
(0.2761738335 0.2788095249 -1.423015351e-19) 560
(0.273790007 0.1989008324 -2.168404345e-19) 139
(0.2950499253 0.2270343579 0) 262
(0.3030636911 0.2693475145 0) 503
(0.3023787294 0.2843030573 2.168404345e-19) 593
(0.2700758033 0.1919002993 5.421010862e-20) 109
(0.3013325897 0.2016884245 0) 143
(0.2667214943 0.1695662521 0) 12
(0.2947873262 0.2628344414 -1.084202172e-19) 472
(0.2754207119 0.2237243708 -2.303929617e-19) 260
(0.2535502621 0.2362507873 0) 347
(0.2569979957 0.2373585835 0) 347
(0.2884386088 0.2399365877 0) 351
(0.2702913939 0.1968740164 2.168404345e-19) 109
(0.2860281149 0.2761132702 -1.897353802e-19) 531
(0.2964831612 0.2624330941 2.168404345e-19) 472
(0.2962397633 0.1828611832 -4.33680869e-19) 31
(0.2817365554 0.2100544829 -8.67361738e-19) 170
(0.2852196349 0.2604464608 2.168404345e-19) 441
(0.3018346798 0.2264037897 -1.084202172e-19) 263
(0.259783514 0.1969516643 6.776263578e-20) 138
(0.2625445617 0.2922955751 1.084202172e-19) 618
(0.2697946362 0.2057082271 -3.252606517e-19) 169
(0.2725797047 0.2587145517 4.33680869e-19) 439
(0.2852332231 0.2307406961 3.794707604e-19) 291
(0.3007288664 0.2982908306 1.084202172e-19) 653
(0.3019695869 0.2684703562 0) 503
(0.2704426613 0.2386869419 -2.57498016e-19) 349
(0.2648536313 0.2468091373 -6.505213035e-19) 378
(0.2932426264 0.2571831594 1.355252716e-20) 442
(0.2533431093 0.2222161558 -5.421010862e-20) 257
(0.2605987189 0.1980675628 -1.626303259e-19) 138
(0.289647096 0.183122221 4.33680869e-19) 31
(0.2657108482 0.1883647727 -3.388131789e-19) 78
(0.2859290846 0.2259399697 1.219727444e-19) 261
(0.2991921066 0.2429473044 3.252606517e-19) 353
(0.2388030284 0.2569212298 -1.084202172e-19) 435
(0.2956382546 0.2358791036 2.168404345e-19) 322
(0.2964406522 0.2948045862 0) 652
(0.2982455278 0.2503325011 -4.33680869e-19) 383
(0.2868690399 0.2047804946 -4.33680869e-19) 141
(0.2818524671 0.237949911 -4.33680869e-19) 320
(0.2962173549 0.2054977509 -4.33680869e-19) 142
(0.2329180667 0.2080432878 0) 194
(0.2883247424 0.2638723001 -4.33680869e-19) 471
(0.2938708651 0.2351271162 0) 322
(0.2848804155 0.2154115561 0) 201
(0.2572552903 0.2503537804 -2.710505431e-19) 407
(0.2869070716 0.2400375686 2.168404345e-19) 351
(0.2801646099 0.1876127029 -4.33680869e-19) 80
(0.2792411731 0.2788416235 -2.168404345e-19) 560
(0.2974729945 0.2640489002 2.168404345e-19) 473
(0.2766002576 0.2523911793 -1.084202172e-19) 410
(0.3003981994 0.2916745447 -5.421010862e-20) 623
(0.2882669761 0.1981396602 6.505213035e-19) 111
(0.2927264286 0.2568265495 2.168404345e-19) 442
(0.288058488 0.2799254628 -1.084202172e-19) 561
(0.2937229581 0.2565307959 0) 442
(0.2964222683 0.2737895057 2.168404345e-19) 532
(0.2893146787 0.2779259919 0) 561
(0.2868336157 0.2135489034 0) 201
(0.2988138973 0.1981920044 2.168404345e-19) 113
(0.2902360671 0.2871938741 -1.084202172e-19) 592
(0.2405274235 0.2105902982 7.047314121e-19) 195
(0.2895247937 0.2039515125 4.33680869e-19) 141
(0.2976838562 0.2399727675 1.897353802e-19) 353
(0.3004257014 0.2794363531 5.421010862e-20) 563
(0.2957427789 0.1930379564 -4.33680869e-19) 82
(0.3023117146 0.2734608738 -4.33680869e-19) 533
(0.2924928247 0.2825698385 -2.168404345e-19) 562
(0.2816048219 0.2583767576 6.505213035e-19) 440
(0.2755058932 0.2466544057 4.33680869e-19) 380
(0.2973790798 0.207451903 -3.252606517e-19) 173
(0.2995388271 0.241395869 -2.710505431e-19) 353
(0.2947195615 0.2531001554 -1.084202172e-19) 412
(0.2941553523 0.2817829255 -2.710505431e-19) 562
(0.2796698004 0.2579585559 1.084202172e-19) 440
(0.2737673285 0.2321860891 4.33680869e-19) 319
(0.2728441498 0.2301369038 0) 289
(0.2824944231 0.2596131831 0) 441
(0.2673479445 0.2714702054 2.168404345e-19) 529
(0.2816286872 0.2689339542 -2.439454888e-19) 500
(0.2956549109 0.2326180415 -4.33680869e-19) 292
(0.2648511461 0.2634435165 0) 468
(0.2771952848 0.1879627796 3.252606517e-19) 80
(0.2950899987 0.2820419715 -2.168404345e-19) 562
(0.28910731 0.205390418 2.168404345e-19) 141
(0.2753481025 0.2344266372 0) 320
(0.2712717551 0.183059689 2.710505431e-19) 50
(0.2987798539 0.2658571538 -5.484538333e-20) 473
(0.3007244973 0.2632042864 8.131516294e-20) 473
(0.2493668209 0.2896971227 2.168404345e-19) 616
(0.2784539674 0.2914954831 -9.486769009e-20) 620
(0.2856765718 0.2265681696 -2.168404345e-19) 261
(0.292383319 0.262302193 -1.084202172e-19) 472
(0.2887045262 0.199968632 4.33680869e-19) 141
(0.2812435493 0.2165295356 -4.33680869e-19) 230
(0.2531960532 0.2469334829 -4.878909776e-19) 377
(0.2989058993 0.2528027482 1.084202172e-19) 413
(0.2458019163 0.2000051794 2.168404345e-19) 136
(0.2899459088 0.2103303019 -2.168404345e-19) 172
(0.3016937235 0.2396457792 -3.252606517e-19) 323
(0.2907275206 0.2877017505 -2.168404345e-19) 592
(0.2974739963 0.2944037455 1.490777987e-19) 623
(0.2653644806 0.2954846586 0) 648
(0.2616794945 0.2227017353 -1.355252716e-19) 258
(0.2913896629 0.2368890632 0) 322
(0.2726513769 0.197173752 2.168404345e-19) 109
(0.2776932989 0.1955514727 2.168404345e-19) 110
(0.2909208632 0.2892973815 0) 622
(0.2505513362 0.281574802 6.505213035e-19) 556
(0.2999078077 0.1722668903 5.421010862e-20) 5
(0.2543453583 0.2037817688 -1.76182853e-19) 167
(0.2869482788 0.1880165284 -2.168404345e-19) 52
(0.2989912754 0.2241933569 4.33680869e-19) 263
(0.2384113599 0.1913185236 -2.168404345e-19) 105
(0.2457899339 0.2651750302 0) 496
(0.3002796855 0.2588903685 5.421010862e-20) 443
(0.2358032884 0.26734514 -4.065758147e-19) 494
(0.2067620139 0.2909098536 4.065758147e-20) 611
(0.2621227196 0.2257341807 -8.131516294e-19) 288
(0.2997210299 0.2446617852 2.168404345e-19) 353
(0.2985240543 0.1876039486 1.626303259e-19) 54
(0.3007304409 0.276343882 -2.168404345e-19) 533
(0.2744037424 0.2635530078 -1.626303259e-19) 470
(0.297567081 0.2516110094 -2.168404345e-19) 413
(0.2755762456 0.2904835594 0) 620
(0.3027139779 0.2841998562 2.168404345e-19) 593
(0.3016921198 0.2757948157 -5.421010862e-20) 533
(0.2896055671 0.2460234683 -2.168404345e-19) 382
(0.2654627243 0.1810284209 -2.168404345e-19) 49
(0.2902469877 0.2556615037 -2.168404345e-19) 442
(0.2653111256 0.2439105952 2.168404345e-19) 378
(0.27400967 0.2325585905 2.168404345e-19) 319
(0.2769352999 0.2532711751 -1.084202172e-19) 410
(0.2969196537 0.239841939 -4.33680869e-19) 352
(0.2962110754 0.2558108842 -4.33680869e-19) 412
(0.2842781568 0.2047474917 4.33680869e-19) 141
(0.2962219331 0.234460046 2.168404345e-19) 322
(0.2842361989 0.2510526855 0) 411
(0.2215589368 0.2772722555 0) 553
(0.2832790277 0.2187396463 0) 231
(0.2965660956 0.2401237105 -2.168404345e-19) 352
(0.2697220164 0.2575084793 -5.421010862e-20) 439
(0.2709735169 0.2125569492 -2.168404345e-19) 199
(0.2773862716 0.2265510877 0) 260
(0.2726779252 0.1824890154 1.084202172e-19) 50
(0.2929426465 0.2405664842 0) 352
(0.3046501871 0.203841592 0) 143
(0.2880950979 0.2289100796 -2.168404345e-19) 291
(0.2840944497 0.2007890021 0) 141
(0.2988278367 0.2522910232 2.710505431e-19) 413
(0.288137627 0.2489234865 0) 381
(0.2367858263 0.2897270773 -1.084202172e-19) 615
(0.3028023048 0.279740842 3.252606517e-19) 563
(0.2523201765 0.2990586872 0) 647
(0.2808234461 0.1848561131 -4.33680869e-19) 51
(0.2909140132 0.2157925385 7.453889936e-20) 202
(0.3031756342 0.1945542708 2.168404345e-19) 83
(0.2513724489 0.2013534423 0) 166
(0.2873596608 0.2514554712 5.421010862e-19) 411
(0.3029729743 0.2630638367 0) 473
(0.2054996014 0.2621425529 0) 460
(0.2315758062 0.1839393596 -5.421010862e-20) 74
(0.2776797518 0.2260485621 0) 260
(0.2648465145 0.2575498045 -2.168404345e-19) 438
(0.2754821643 0.2476128648 0) 380
(0.2724125383 0.1778859638 2.710505431e-20) 28
(0.291887766 0.2212107561 5.421010862e-20) 232
(0.2665456428 0.1861802335 -2.168404345e-19) 78
(0.3040449431 0.2650737639 0) 473
(0.3046804787 0.1769102949 4.607859233e-19) 16
(0.2936455987 0.2393029328 4.33680869e-19) 352
(0.2865500561 0.2573123864 0) 441
(0.2784851508 0.2241953434 2.710505431e-20) 260
(0.2817824271 0.2218880778 -2.168404345e-19) 260
(0.3003881068 0.2468333021 5.421010862e-20) 383
(0.3032329293 0.2556658831 0) 413
(0.2620554899 0.184815639 2.168404345e-19) 49
(0.2848446029 0.2171502655 0) 231
(0.274931141 0.2554406297 4.33680869e-19) 440
(0.2424590434 0.2366696001 0) 345
(0.2909199449 0.2467760907 2.168404345e-19) 382
(0.2619707302 0.2550329949 -2.168404345e-19) 438
(0.2878088426 0.2325541884 -6.505213035e-19) 291
(0.2891476158 0.2405773959 1.084202172e-19) 351
(0.28462492 0.2094910814 1.084202172e-19) 171
(0.2649109347 0.2495306552 -4.33680869e-19) 408
(0.2757081838 0.2217362701 4.33680869e-19) 260
(0.2882399684 0.2349865691 1.084202172e-19) 321
(0.2774371135 0.2769380018 -2.168404345e-19) 530
(0.2495947216 0.2426814145 2.168404345e-19) 376
(0.303369741 0.1938167353 0) 83
(0.290586374 0.2124103301 1.084202172e-19) 202
(0.3016076758 0.2632611028 -3.252606517e-19) 473
(0.2872316955 0.2581060827 2.913793339e-19) 441
(0.2990243918 0.2849479872 -3.117081246e-19) 593
(0.2877741125 0.2353654603 0) 321
(0.2898963054 0.2259202667 1.084202172e-19) 262
(0.2797991455 0.2280755821 2.168404345e-19) 290
(0.2990889207 0.177338582 0) 16
(0.2438532777 0.1896308825 2.168404345e-19) 106
(0.2913130325 0.2251184391 1.694065895e-20) 262
(0.2978238565 0.2350166274 5.421010862e-20) 323
(0.2914279733 0.2661409224 1.084202172e-19) 472
(0.2536077932 0.2395220748 -1.626303259e-19) 347
(0.2436327942 0.1896587842 -2.168404345e-19) 105
(0.2876656496 0.2095082449 0) 171
(0.2878041614 0.283445381 0) 591
(0.2594734226 0.2741974187 1.355252716e-20) 528
(0.2545583017 0.1949085135 0) 107
(0.2681305441 0.184909481 -2.032879073e-19) 50
(0.2121910937 0.2956491999 0) 641
(0.2904422975 0.1827075123 2.168404345e-19) 31
(0.2502515851 0.232779534 2.168404345e-19) 316
(0.2952802814 0.2563554651 0) 442
(0.2580738012 0.2000477216 0) 137
(0.2938816067 0.1878127196 2.168404345e-19) 53
(0.2609398026 0.2151077583 4.33680869e-19) 228
(0.2779224636 0.2331629298 -1.219727444e-19) 320
(0.3027144998 0.2289022758 0) 293
(0.2541281809 0.2418783318 2.168404345e-19) 347
(0.2725110919 0.2513276608 1.626303259e-19) 409
(0.2533814877 0.2718678682 -4.33680869e-19) 527
(0.2797312932 0.2016463621 -2.168404345e-19) 140
(0.2258422057 0.1932457018 2.168404345e-19) 133
(0.2412560716 0.1850245905 8.131516294e-20) 75
(0.2765847829 0.1816547983 0) 51
(0.3003318666 0.2658970748 -1.084202172e-19) 473
(0.2710380078 0.1991952481 0) 139
(0.2930582303 0.2508544782 1.084202172e-19) 412
(0.2762560641 0.2550095387 -2.168404345e-19) 440
(0.2607271425 0.2041335721 1.084202172e-19) 168
(0.2991778181 0.2670309778 2.168404345e-19) 503
(0.2776006278 0.2893425143 5.421010862e-20) 620
(0.2490089466 0.2898641703 6.505213035e-19) 616
(0.2705883865 0.2697006805 0) 499
(0.2476426298 0.2511512722 -1.084202172e-19) 406
(0.2531458471 0.1925088618 2.168404345e-19) 107
(0.2241167147 0.1974472224 2.168404345e-19) 133
(0.2862982785 0.2147668039 -3.252606517e-19) 201
(0.2777095333 0.2192178168 2.168404345e-19) 230
(0.2900695756 0.1886737156 2.168404345e-19) 53
(0.2652044594 0.173041009 -2.168404345e-19) 11
(0.2394044306 0.2326379462 3.794707604e-19) 315
(0.2768766799 0.2691524578 1.626303259e-19) 500
(0.2953303793 0.2287515677 0) 292
(0.2879422582 0.2632336317 -5.421010862e-20) 471
(0.2662963574 0.2598396019 0) 438
(0.3025442223 0.2497442562 2.168404345e-19) 383
(0.2855524894 0.2077911146 5.014435048e-19) 171
(0.2773529153 0.2181733485 5.421010862e-20) 230
(0.2741880704 0.2805408847 0) 559
(0.2786951452 0.2514881832 0) 410
(0.2926377453 0.213890518 1.897353802e-19) 202
(0.2945243797 0.266013816 -2.168404345e-19) 472
(0.2849737234 0.2199013815 -2.168404345e-19) 231
(0.2654796529 0.1907443851 0) 78
(0.254845302 0.2060599774 0) 167
(0.2663296665 0.2279002827 5.421010862e-20) 288
(0.2749213411 0.2878952599 2.168404345e-19) 590
(0.2927840741 0.2937256256 2.168404345e-19) 622
(0.304305416 0.2000043848 2.168404345e-19) 113
(0.2591898551 0.1934038072 3.455894425e-19) 108
(0.2679824203 0.2802837877 4.065758147e-19) 559
(0.2619089092 0.2762900164 -2.168404345e-19) 528
(0.2678907424 0.2200764414 2.168404345e-19) 229
(0.2570640878 0.2144795415 0) 227
(0.2977319391 0.2506916972 0) 413
(0.2857947195 0.2748897833 2.202285663e-19) 531
(0.2675006364 0.2389170742 1.084202172e-19) 349
(0.2635082627 0.2187987282 -5.421010862e-19) 228
(0.3027371204 0.2682645602 2.168404345e-19) 503
(0.2562925865 0.2991359586 -1.084202172e-19) 647
(0.2208942991 0.262040188 0) 462
(0.278545687 0.2075909933 0) 170
(0.2946848532 0.2320310227 -2.168404345e-19) 292
(0.2957368461 0.2277475545 2.168404345e-19) 262
(0.2968501134 0.283039849 -2.168404345e-19) 562
(0.2575973089 0.2543292926 0) 437
(0.2814457539 0.2546168973 4.33680869e-19) 410
(0.3004141522 0.283255589 0) 563
(0.2764869133 0.1835919259 -5.421010862e-20) 51
(0.2664659982 0.2249822324 -4.33680869e-19) 258
(0.2611691459 0.2714756572 -1.084202172e-19) 528
(0.2808125159 0.2353053952 9.486769009e-20) 320
(0.2820999962 0.2480458016 0) 381
(0.2786730099 0.2079930248 -1.084202172e-19) 170
(0.2502180662 0.2016312136 0) 166
(0.2856704332 0.2658930308 2.168404345e-19) 471
(0.2832642149 0.2817971807 0) 561
(0.2329077632 0.2561384155 -5.421010862e-20) 434
(0.2680075156 0.2421005993 -6.776263578e-20) 349
(0.298478622 0.2090052809 0) 173
(0.2832790252 0.2038088495 -1.11808349e-19) 141
(0.2867022218 0.2859050525 -2.168404345e-19) 591
(0.2619155721 0.2428807881 0) 378
(0.2842762128 0.2267448487 1.084202172e-19) 261
(0.2785772186 0.2154068323 -1.084202172e-19) 200
(0.2791686967 0.2697710471 0) 500
(0.263959832 0.210644001 0) 198
(0.2809842827 0.2181798049 0) 230
(0.3038385482 0.2482065195 0) 383
(0.2626283926 0.2563533225 2.710505431e-20) 438
(0.2679679606 0.1872090804 1.626303259e-19) 79
(0.2750261689 0.1777255407 -2.168404345e-19) 29
(0.2626649822 0.2864364134 0) 588
(0.2787136929 0.2156960842 0) 230
(0.2786173845 0.2702577909 -2.710505431e-19) 500
(0.2614947564 0.202093798 2.168404345e-19) 138
(0.2828702793 0.2053327719 0) 171
(0.2621450518 0.2436388743 -3.252606517e-19) 378
(0.2776051668 0.2337162433 5.421010862e-20) 320
(0.2811901196 0.2546749031 0) 410
(0.2712109473 0.2673739998 2.168404345e-19) 499
(0.3009967157 0.2095673229 -5.209252626e-19) 173
(0.2922937061 0.199264418 3.252606517e-19) 112
(0.2747708106 0.1915846136 0) 80
(0.2421957235 0.172896655 -1.084202172e-19) 24
(0.241303353 0.21102331 0) 195
(0.24842097 0.2202277065 2.168404345e-19) 256
(0.2380590657 0.2208372662 -1.626303259e-19) 255
(0.2628052997 0.2782940148 3.659182332e-19) 558
(0.266925801 0.2795367515 0) 559
(0.2989086772 0.241350047 -2.168404345e-19) 353
(0.2887531421 0.2847181552 2.168404345e-19) 591
(0.2872386933 0.2110204926 0) 201
(0.2741794948 0.200131407 -7.589415207e-19) 139
(0.276085797 0.2536136555 -2.710505431e-20) 410
(0.2888556477 0.2251062558 0) 261
(0.2615256921 0.2742861716 -8.131516294e-20) 528
(0.2641164188 0.2251436274 -2.168404345e-19) 258
(0.2861012127 0.2289703856 -2.168404345e-19) 291
(0.2741798991 0.2406120406 4.33680869e-19) 349
(0.3044713433 0.268510115 0) 503
(0.2801031315 0.2344713728 4.33680869e-19) 320
(0.251743066 0.2207983095 -2.168404345e-19) 257
(0.2928426045 0.2779721243 4.878909776e-19) 562
(0.2649178271 0.2495802759 0) 408
(0.2676821371 0.2329150352 -1.084202172e-19) 319
(0.2716786928 0.227969537 -3.252606517e-19) 289
(0.255794873 0.2522292398 -5.421010862e-20) 407
(0.2923756678 0.2629278007 -3.252606517e-19) 472
(0.2540880918 0.2126345769 -2.168404345e-19) 197
(0.2500730072 0.2553105766 -3.252606517e-19) 436
(0.2576593371 0.2177425612 2.168404345e-19) 227
(0.2599731634 0.2148629449 -1.084202172e-19) 228
(0.3027380458 0.2353264574 -2.168404345e-19) 323
(0.2868927511 0.2734183434 2.168404345e-19) 531
(0.2970725631 0.2420391367 0) 352
(0.2864692049 0.1791362259 2.168404345e-19) 30
(0.2800907268 0.2029784691 2.168404345e-19) 140
(0.2820294309 0.2349604236 2.168404345e-19) 321
(0.2509525111 0.2896288256 2.168404345e-19) 616
(0.293938795 0.2836011504 2.168404345e-19) 592
(0.2682168593 0.1939044987 2.168404345e-19) 109
(0.2611013049 0.2334901162 -3.252606517e-19) 318
(0.2929414531 0.2302947696 8.131516294e-20) 292
(0.3046090074 0.2223178007 0) 233
(0.2480488341 0.2855068974 8.131516294e-20) 586
(0.1833957715 0.2485205352 0) 398
(0.2902596101 0.270319556 3.252606517e-19) 502
(0.2683284772 0.2193953767 -1.626303259e-19) 229
(0.2868738857 0.2417312314 -5.421010862e-19) 351
(0.2853095169 0.2371335251 3.252606517e-19) 321
(0.2795181212 0.229484925 -8.131516294e-20) 290
(0.294994251 0.2758176486 1.084202172e-19) 532
(0.2525587957 0.2004619049 -1.084202172e-19) 137
(0.2272914146 0.2001534175 2.168404345e-19) 163
(0.2726632826 0.293314001 -4.33680869e-19) 619
(0.2793676944 0.1968702514 -1.084202172e-19) 110
(0.2659323731 0.266548842 -4.33680869e-19) 498
(0.2353161396 0.2793981538 -2.168404345e-19) 554
(0.2748510926 0.2966343022 -2.168404345e-19) 650
(0.2785873388 0.2455527985 2.168404345e-19) 380
(0.2938444412 0.2795203805 -3.252606517e-19) 562
(0.2813996928 0.2663475562 4.33680869e-19) 500
(0.2805366972 0.2254341368 0) 260
(0.2532785844 0.2251392074 0) 287
(0.2381540246 0.2082689454 -4.33680869e-19) 195
(0.2643522241 0.1852981051 1.084202172e-19) 49
(0.2409335315 0.2591204903 2.168404345e-19) 465
(0.2621467891 0.2731844559 0) 528
(0.2838465691 0.2580715351 1.694065895e-19) 441
(0.269128555 0.2861666708 1.626303259e-19) 589
(0.2470665048 0.2300725629 -3.252606517e-19) 316
(0.245493303 0.2177088519 1.084202172e-19) 226
(0.3007751667 0.2024911565 2.032879073e-19) 143
(0.2233614884 0.2403939914 1.084202172e-19) 373
(0.2390282691 0.2533138377 2.168404345e-19) 435
(0.2583531186 0.1815496647 -8.131516294e-20) 48
(0.2599069659 0.2438689697 0) 378
(0.2719517186 0.2413547087 -1.084202172e-19) 349
(0.2655756949 0.2616617917 0) 468
(0.3041116025 0.2161472819 0) 203