/*--------------------------------*- C++ -*----------------------------------*\
| =========                 |                                                 |
| \\      /  F ield         | OpenFOAM: The Open Source CFD Toolbox           |
|  \\    /   O peration     | Version:  2406                                  |
|   \\  /    A nd           | Website:  www.openfoam.com                      |
|    \\/     M anipulation  |                                                 |
\*---------------------------------------------------------------------------*/
FoamFile
{
    version     2.0;
    format      ascii;
    arch        "LSB;label=32;scalar=64";
    class       vectorField;
    location    "0.011/lagrangian/dsmc";
    object      U;
}
// * * * * * * * * * * * * * * * * * * * * * * * * * * * * * * * * * * * * * //


6135
(
(923.5307271 63.24413782 156.0041501)
(1115.219906 353.2632319 520.711059)
(1868.839414 -100.6692595 508.5629517)
(1391.484971 -65.45782504 -152.9050578)
(658.9484156 1150.241499 -324.3350138)
(1631.987086 116.7930755 -133.2765472)
(280.6529526 218.1888697 698.5077948)
(1561.944044 927.7248823 -362.6289783)
(1221.010443 403.0027986 -1596.948091)
(914.8854141 563.434837 6.989272565)
(1339.004911 457.3559353 -194.5686909)
(863.0529224 314.7162033 488.7974602)
(1325.753139 307.9708492 -59.72036784)
(1335.844387 498.568947 143.1719371)
(1384.031333 760.859352 374.1196255)
(1825.933065 -95.94818794 248.4283366)
(569.3779879 -230.59367 -282.3426602)
(846.3412215 986.5173454 796.4218192)
(399.8517182 562.6371909 -490.4164624)
(997.2833771 -87.21731924 -6.590138339)
(1765.788626 548.4899699 -984.4108572)
(1398.414638 465.2062541 85.6279912)
(1052.31656 -451.2698862 -576.4330484)
(1933.067452 -242.3880109 -36.31380996)
(2045.468721 426.391599 -400.8937773)
(1931.878836 482.9854674 -3.731586585)
(1346.087976 -220.2177354 29.27817669)
(1418.17585 432.2770915 947.9132093)
(1655.92593 314.5258508 -498.3926749)
(643.6958206 -33.1800748 -147.9808082)
(1407.535218 451.6981701 77.25163405)
(1232.869345 69.85885882 142.7002209)
(1299.122048 260.0542739 -1011.545832)
(792.8917895 545.1337806 257.8830155)
(1569.121231 433.9922216 -541.09428)
(1910.39832 -13.93540643 -329.0739159)
(1567.80156 -258.95149 34.12278208)
(1727.756228 -40.86616872 -89.09590125)
(653.6362235 -67.54140695 350.180848)
(1228.355964 340.992707 -161.2034576)
(1120.117751 46.82541981 298.038405)
(1691.567316 1469.159302 684.005899)
(1245.553356 -40.0199837 104.3397744)
(1813.453881 -474.9082161 285.3178482)
(826.9687301 850.0590693 -106.9345294)
(748.6710185 1931.483678 -166.890919)
(1545.258333 -444.6184112 -91.550166)
(1606.556948 147.9701344 -194.6700714)
(2262.353332 306.3334272 -78.43531471)
(825.9456761 375.0053593 535.7190182)
(1672.684177 -140.7415694 22.62494427)
(1450.877021 337.5673097 -256.1736532)
(1706.70227 279.9388312 168.3537412)
(1622.382173 924.3314751 -400.5746604)
(1872.217019 337.0313074 290.6900383)
(1270.054176 273.2282465 -33.13473133)
(948.3943093 511.7259185 -330.6100171)
(1225.927428 949.1624606 -751.4205121)
(1458.793419 -204.3165781 -38.05102456)
(1655.174856 -257.4513844 -191.8595517)
(617.2527578 875.3156787 -114.7638267)
(1589.035915 -14.92820784 -255.9137028)
(1843.334443 466.1832851 -194.5877651)
(1508.735859 955.5592336 313.4732927)
(538.883649 341.9466359 -619.542695)
(1483.824994 208.5079763 -455.7259772)
(1405.288567 214.6565982 -564.3536089)
(1001.094392 860.9901439 -764.2906907)
(1120.892346 568.9892607 -226.7745974)
(2079.780978 484.9234215 -348.8903698)
(1267.633768 557.7956206 -366.0312954)
(1277.879192 637.981424 -139.40574)
(1523.075555 711.3367262 -420.264273)
(1557.276206 -85.77647634 -506.4668808)
(1698.424205 -262.1423998 355.8764343)
(1646.346922 88.26770932 -757.3294658)
(1180.376642 -73.66378482 -389.0522081)
(1683.32853 52.30456222 347.8525284)
(1024.549339 129.4313881 -58.11000398)
(1576.853277 -248.7493586 452.4118989)
(1073.862949 1292.054373 -492.4146599)
(263.0498233 -383.7565028 95.74217293)
(1612.438904 -47.47412356 -23.15458684)
(2318.734853 897.8481703 438.5649605)
(752.293039 436.047338 -298.9695993)
(1317.339653 -164.3545927 244.332076)
(876.2833219 529.2825319 -575.5638177)
(494.9634264 749.9069923 245.5698064)
(1490.081278 -16.41383379 250.3705043)
(1276.627287 418.0455034 314.1594123)
(1593.085863 -143.9056966 -167.1259459)
(1230.020266 223.8130159 183.089453)
(1054.01859 317.0722908 90.96031175)
(1624.099148 82.12792007 -445.1356107)
(1834.391044 154.0488784 -105.930969)
(774.5949602 -456.509957 718.8940134)
(804.0052779 422.5361661 449.1825836)
(1477.606915 109.7822822 -147.7897871)
(1218.232387 346.8893381 -169.0475829)
(1419.803677 200.6311264 346.6020135)
(796.4931292 1497.806977 -719.3101615)
(1010.779769 -332.4660135 -405.2256451)
(2081.021429 473.4165767 585.7907542)
(1292.577066 26.72444585 -175.5856132)
(1046.84249 549.0412325 497.235367)
(1757.599182 1238.970017 249.5574553)
(1334.357676 712.3188094 -230.3585559)
(1646.287548 -59.4955853 61.34654688)
(912.7716634 311.0973259 -137.0613067)
(1727.747991 202.7816917 -607.5413012)
(2239.570067 632.6532454 -38.5569122)
(1894.092808 544.2621407 -504.9584064)
(1635.82683 -274.8838376 -74.88569187)
(1382.315427 -175.1083187 330.0927618)
(1499.762458 -196.5411605 -20.47783684)
(1128.142158 695.4501852 -5.674912486)
(1420.995453 508.0824512 819.4895207)
(1563.886435 -162.3818322 33.37742029)
(1298.80911 828.3591111 522.2014228)
(1650.452797 11.78085834 -379.0004294)
(1158.266034 406.7565886 -396.7800033)
(2181.381451 -118.1798893 142.5594602)
(-164.9566293 92.16935409 346.1708452)
(983.6638304 527.3786943 6.522829678)
(1891.283699 -324.8760349 98.70129748)
(1512.48949 -238.7243776 217.5946896)
(1346.88141 161.1538369 86.16938849)
(1646.306612 366.7315704 26.02084334)
(1863.506711 -36.85765444 620.4737421)
(1929.781531 -160.0065632 -442.2332875)
(727.6844606 381.3869172 25.10118556)
(596.6464912 724.0128295 1206.952624)
(1460.597894 778.7404061 127.3512607)
(740.0492281 585.7396111 610.1459016)
(1749.45089 -116.4940083 348.1476962)
(2053.789779 194.4794196 111.5050879)
(1706.705467 1021.566129 -301.1457416)
(1124.207113 149.6286907 -282.7306824)
(1512.699201 137.350171 151.7642896)
(1557.737403 168.1701609 -547.580543)
(479.9879518 413.8504211 308.7500253)
(1321.525592 138.8430078 -154.6712678)
(1142.020167 169.4554301 23.32390487)
(989.5535081 362.7118445 786.2082366)
(766.3504999 1334.822934 801.1814008)
(1406.913632 838.9155225 -247.1358294)
(1509.086694 242.2026494 89.9218439)
(1756.426627 801.7511029 188.6222867)
(1713.07466 151.6763898 -179.3161063)
(2190.306714 60.06866814 -114.743384)
(1586.730958 691.7187265 712.3143609)
(1586.447002 579.0956069 -65.46649909)
(1277.662477 566.9349713 -3.553866612)
(1920.806599 480.1371254 -2.841297281)
(944.1203249 -128.2278334 -195.1772048)
(1631.596909 942.2034316 130.7734099)
(2227.09667 -254.1630877 156.9761667)
(1356.556246 -380.6338299 -868.058258)
(1049.434271 -37.15712668 659.2178663)
(1815.810691 63.09367573 -179.1080447)
(1110.083814 493.4972486 309.6683027)
(1184.468366 83.79815302 -18.0756551)
(1400.762703 130.2504883 809.9870784)
(1384.215984 1050.810973 -100.1629742)
(1064.095407 996.831489 539.2977751)
(1005.6373 -364.1617009 -104.6656619)
(1351.277767 -407.9290703 224.4884459)
(1659.280562 163.9220057 397.6234423)
(1309.117417 482.810222 -662.893944)
(2193.629524 307.1131681 -1138.557137)
(1669.85576 -310.5221817 309.1476065)
(1642.735496 418.200406 -298.8623454)
(1907.001063 -229.8392748 198.138838)
(1406.322104 -124.4886524 432.740146)
(742.1489022 695.5041961 -611.1941404)
(916.5888674 499.3500892 867.0083938)
(1309.774972 307.3925301 238.2465213)
(1761.054045 506.4894967 -845.4071411)
(1748.80827 58.81673739 499.5493527)
(1057.938046 6.267532497 -128.1436711)
(1566.431128 -238.3440384 -97.37411436)
(1507.205128 775.2563044 -698.5802139)
(2076.640232 292.822625 -279.8863745)
(1604.049658 -134.1491956 -308.1714279)
(1443.608884 824.5380186 -310.3750509)
(1325.263321 -168.4388656 -523.301215)
(1218.554497 181.3598949 103.9419896)
(1381.351994 800.1203292 722.3120116)
(2229.776134 -13.68364819 -389.1558785)
(1544.24095 69.25238696 320.2015089)
(1045.462712 -112.508661 -6.934144957)
(1506.988252 439.2943959 -89.08525767)
(2113.657756 793.721377 245.0154693)
(1697.778942 293.6739545 591.0113057)
(1449.86171 -99.90256402 223.6999773)
(1422.173703 586.3594926 88.18497541)
(1537.255399 322.6813452 203.3069147)
(1241.452428 406.2585411 579.7124863)
(1600.895809 423.1321254 23.42478474)
(1523.753281 166.8227926 51.61207846)
(1546.360378 -326.373342 318.1432995)
(1984.607487 558.0077001 507.6009798)
(1079.18549 378.5472691 86.54614189)
(774.5749337 86.41655527 345.8303136)
(1454.569081 4.672706807 589.4320784)
(756.6519575 361.8947758 -449.1958938)
(1691.751695 123.1313216 -581.5424183)
(1714.324088 68.40887118 172.4929865)
(925.2821419 319.8760341 -17.11426842)
(1578.189272 263.4316724 448.029515)
(1791.83492 -399.0573965 731.5519012)
(1657.709512 414.3787309 -9.249025244)
(1384.148118 222.7639169 -136.6954639)
(1963.806694 510.3107057 -276.6660961)
(-203.18223 150.8211426 490.2564416)
(1391.863225 148.2688118 -263.113642)
(2390.398786 69.77310067 378.6148273)
(1504.811471 -14.05134407 428.2365191)
(1595.477442 277.1275995 839.1464138)
(1082.519106 -177.3796032 -111.0055776)
(1035.87475 981.5312364 110.4915081)
(1690.036133 429.5836509 246.9348838)
(1711.237526 685.2430994 -381.2497742)
(1453.709187 -63.5109334 -142.0431469)
(1591.544709 2.788034168 -481.9846975)
(2238.323889 965.5957001 424.746781)
(1621.721672 54.79722492 187.0907424)
(1198.342641 74.45507422 -95.86701493)
(1563.369604 221.2070558 -224.3636988)
(1556.826433 208.5388678 358.263851)
(1454.719244 99.10260659 154.0194898)
(1678.966937 34.87554012 28.64918289)
(1131.189113 755.9660313 1042.412692)
(1515.927437 -130.5761975 690.2481533)
(1109.792824 -145.3170594 -329.9572479)
(1899.874731 -356.6185965 -25.95770608)
(1434.351289 357.660491 -75.9581658)
(1425.452613 512.9543425 8.702699136)
(1620.061963 140.5593441 -213.645073)
(1562.994901 309.3344156 327.2516463)
(1978.286793 -3.148930056 -227.1568552)
(1275.053925 890.7079119 -207.6199305)
(1664.491048 47.9294961 488.2957689)
(1738.037467 806.4953282 822.7476121)
(1680.465059 -24.96778103 431.5659215)
(1616.735523 312.8662323 791.1965607)
(2304.252849 165.1051289 -460.5486066)
(1153.425522 180.8620065 29.65345565)
(1273.448671 -443.0672811 296.1989754)
(2086.137127 157.1033081 5.687462034)
(1435.40796 328.2044151 369.6282524)
(1401.31369 1149.817932 214.7116055)
(957.6799523 -170.9613885 -111.8657384)
(2340.68277 -508.0741823 -634.1996392)
(1529.635538 563.2668417 482.4396979)
(2202.421708 20.99591392 -461.6614269)
(1759.039888 -276.6814166 -78.42368859)
(1661.666884 616.617306 -42.11842723)
(1279.802368 163.4221969 1060.44846)
(1546.250632 599.9823158 193.8231802)
(1314.251195 524.8781083 643.3597187)
(1960.603342 186.4217676 -344.9657797)
(1602.685222 581.3342688 -591.1224341)
(1856.794326 255.2898161 382.0674809)
(795.8527719 561.6380696 96.46252999)
(1250.899549 -195.8054491 -649.8672079)
(-107.9207281 -600.4837383 137.6192212)
(1526.824279 -317.6429154 -183.4491599)
(1443.885227 480.6729298 -1025.026777)
(1594.121363 -183.494146 -145.81428)
(1940.698545 -203.8914089 -248.6739899)
(1432.96358 -346.3120337 -5.47524735)
(743.7749352 363.0187476 462.5366416)
(1425.246311 41.64517304 201.5749033)
(994.6808827 572.7622336 -651.4650443)
(822.7369165 409.9762307 -194.7277425)
(1786.267615 120.9663551 -141.8697703)
(1369.709239 336.0504413 102.7740229)
(745.1483939 421.7538505 26.08305962)
(1230.297632 963.224119 -49.5500238)
(1279.052366 -135.0005458 -155.7248618)
(1324.416278 512.9024061 -187.0318902)
(1396.704455 -635.2362657 179.9484379)
(1284.311927 -20.49382525 -167.2350353)
(1518.208829 291.3579609 -562.0066315)
(1274.578802 -351.5791451 605.1050353)
(1595.709931 303.7835756 -277.6371635)
(1720.026355 -59.2352768 -370.4214681)
(1426.949635 214.8129288 -79.22030029)
(1237.535311 1010.031833 39.83621729)
(1937.212631 12.20029665 -173.4192212)
(1566.262645 -7.370332988 -114.3786243)
(1270.767847 586.8404434 -532.5761659)
(1766.347587 95.31466643 -479.581135)
(1996.698423 -267.441285 -297.2816173)
(1805.078759 104.7283345 -67.16017577)
(1376.749887 -36.72409172 602.0115742)
(1619.779349 59.26821736 -24.10533635)
(1714.723224 170.3001879 -50.1061093)
(1352.610271 218.4024486 19.66797371)
(1825.783175 345.0457369 -368.1590215)
(1737.531928 -393.6897171 -84.27485333)
(731.1286292 769.3930257 845.855129)
(961.6253833 719.864814 -61.94401446)
(1343.140482 67.07840595 -67.37550786)
(727.2367723 284.0589415 202.4116842)
(1237.424368 439.3757853 392.5791374)
(1282.075768 -159.2261016 -279.6455412)
(1376.68528 -157.0892416 129.2546507)
(1482.12321 -170.2336496 -345.598118)
(1006.112547 164.2245461 734.7855654)
(1738.900134 444.8943531 -48.3909182)
(977.3306099 -303.9402236 -19.35859326)
(2008.089108 239.8829108 1124.52467)
(1941.538956 210.6363735 156.4912928)
(1650.787095 234.4517697 29.42440131)
(960.0437495 -38.19843729 294.410214)
(1401.742066 -285.6257754 -584.3392522)
(1789.819615 67.74121702 215.3945394)
(1303.300015 703.6284287 426.3691304)
(1653.403764 569.6228931 63.25435617)
(1622.545338 -65.13909101 59.99703759)
(2037.896199 -360.1089495 -410.2222778)
(1527.258977 465.7675184 -719.4506887)
(1815.368052 -12.30357456 -132.7484337)
(2084.377978 138.2520369 141.5385391)
(1565.77411 707.4558099 -916.5843091)
(1975.890619 -235.2623726 221.6355665)
(1708.058846 653.8469087 332.2121709)
(1829.334524 -158.4927253 444.6833807)
(1136.237613 425.1146096 145.8639665)
(1720.152876 577.1396234 406.8477394)
(1746.819041 -467.8675116 -18.78644347)
(1526.548444 -331.7948009 273.957885)
(1738.196832 -135.1903352 -415.9914139)
(1349.466712 178.1623818 323.3951881)
(2148.367782 95.19948001 -309.4360195)
(1840.103121 -17.15886793 189.4547488)
(1675.619507 256.0594562 -15.78931475)
(1587.404364 -430.8345235 -736.046018)
(1812.697869 121.5366876 243.2313881)
(1517.876771 -442.2214866 508.6528588)
(1873.962301 139.7134063 176.8058504)
(1274.28233 -666.5616695 -870.9045121)
(2019.551627 183.5522374 422.2486592)
(1221.433155 -593.6936918 490.4489289)
(1471.055342 218.9376915 72.4028827)
(1387.634113 80.84952966 -504.0356252)
(2061.891779 -89.46756784 -426.6167696)
(1838.518135 112.2026771 46.7699955)
(1913.265573 -397.9659182 -348.9654792)
(1479.448291 435.1583691 -445.2241748)
(1311.365572 -291.4023757 189.9821018)
(1664.031604 -88.04935485 185.4887743)
(602.7675739 1078.68578 76.04196121)
(1691.960031 531.1655587 87.54130235)
(1439.675548 153.8724597 -92.83717755)
(1699.769565 -54.9657003 538.2023996)
(1318.640226 -387.8738156 -1108.066992)
(877.2274635 568.3286327 -111.9622199)
(1535.828055 452.5081245 -152.6289138)
(1650.775148 593.389748 336.5092903)
(1685.285738 738.5236101 440.6648381)
(1736.641825 78.30340183 -203.5807341)
(1455.785881 -264.9881587 262.5398312)
(2182.822293 1258.676097 358.42163)
(2185.636896 1005.423148 350.3463877)
(961.688512 1272.130242 782.9752216)
(1686.328909 352.583693 -245.0227243)
(1224.468222 -501.829609 445.9047363)
(1726.573991 42.20520874 -61.77974678)
(1357.099618 -80.64626731 -330.8731077)
(1408.860883 532.2268629 -480.4290293)
(508.2176086 1414.246946 438.7078116)
(1313.20225 1056.117028 -402.3666474)
(1471.520853 -77.48258655 -398.4128195)
(555.3828396 376.8764904 269.1678634)
(584.5543786 922.7721798 -180.4887414)
(1633.269808 135.6793069 495.0972152)
(1918.089169 -227.202183 -501.5808405)
(2191.182804 136.1947148 67.7987433)
(2222.017678 -98.81375512 478.7158597)
(1824.105235 -227.3018984 -35.73672172)
(1435.594299 195.6840839 -200.5380282)
(2219.695444 -144.7011377 -11.11221665)
(1508.142104 675.9862427 -242.1560366)
(1678.359377 -149.2481303 159.7353951)
(1865.193745 140.6668102 194.4343915)
(1372.866683 440.6411371 28.05900532)
(1093.437724 682.6174015 849.316767)
(1671.216623 -180.9784707 -4.047686618)
(1440.059555 -20.07693818 -237.8256506)
(1831.710369 -470.9682745 -154.5816178)
(2144.502666 -128.4368834 514.1612612)
(2256.605192 20.52437333 254.0122407)
(436.3711305 464.8818664 -390.5953766)
(2014.996413 193.8491906 35.95495433)
(1600.179248 -23.39955166 47.14064607)
(1911.704876 -220.207341 -231.4222454)
(1113.522611 256.028708 -398.2841852)
(1958.463438 498.668315 -221.409096)
(802.8498473 259.6572488 336.3134028)
(1445.327005 -120.2864231 -67.7242491)
(1802.272115 -162.5027893 448.7436462)
(1674.153838 764.3277142 221.1584357)
(894.4113247 243.4751365 1082.122206)
(1777.464511 131.1138415 -54.56890799)
(1463.911583 -490.4248579 -151.1767118)
(1539.327566 135.8042995 152.4169429)
(1715.291489 137.6836194 -461.9763363)
(1644.47948 44.2074224 203.1435498)
(1480.505056 -481.7036918 -779.8517183)
(1138.092598 871.7628661 322.6573069)
(1945.101837 -340.3494655 -197.3196852)
(1555.69209 607.6886847 -371.5635799)
(1039.203352 660.6652787 -52.5963288)
(1429.325407 -124.5723034 269.6749479)
(2293.100361 364.3181852 -186.0884663)
(2046.724629 374.2833794 405.2787672)
(1388.229285 -430.944665 27.17819354)
(1494.988483 -144.6653795 32.24688146)
(1256.212495 322.3244936 636.839126)
(968.2834147 268.802929 -257.6899765)
(2397.018082 617.0768869 755.1890712)
(1490.471079 -18.13138293 -19.11008849)
(1486.443787 477.0291961 -77.7309883)
(633.7497694 61.96966402 445.0334799)
(2208.437645 -212.4099282 350.2647224)
(1008.203132 -21.69080642 445.4252413)
(2225.007535 -194.5927877 -61.26748177)
(1553.042812 -79.01808352 457.0397079)
(1867.86646 -53.68564781 283.1392273)
(1659.93193 127.5815795 58.96773697)
(1058.496555 1053.029724 -226.6419312)
(2029.61336 94.06896644 -415.7181357)
(1368.510561 415.3900898 -288.9398345)
(1811.325466 -394.3133841 -77.36861724)
(1809.806547 179.6966434 66.04576058)
(1513.246942 -51.93623863 -251.9713128)
(2005.70601 -421.5825862 -238.4941014)
(1210.237096 -104.9845014 -110.6821587)
(1849.578577 -76.83977972 -5.546581546)
(1620.940652 382.0726951 -642.9344981)
(1570.730565 -476.4149313 349.5374415)
(1392.832712 111.7479221 174.5690471)
(1547.945334 436.2932273 63.93029631)
(1489.769487 362.3398221 -70.53903235)
(1083.321979 469.5697092 685.2920168)
(1418.104199 177.141306 -46.74193213)
(1619.177319 174.9133925 460.6590988)
(1332.243077 -30.79674433 325.5319128)
(1889.191796 -50.52146058 258.9230363)
(1479.66671 902.1476287 -10.14330034)
(1578.277128 295.6672761 150.885626)
(1478.042474 138.4093489 529.9494831)
(1472.779669 -5.351150452 98.30368607)
(1235.590432 56.50014789 263.0038693)
(872.7966968 261.3117421 384.0665845)
(1646.946069 -72.79466798 64.69487328)
(823.2582595 402.9293302 -729.8334333)
(857.6752655 -218.2784759 70.47249398)
(1881.053511 -48.04156549 221.8461613)
(1581.672518 -5.723131771 -194.049192)
(1216.889262 58.84453673 -31.58584659)
(1765.936603 -48.29390929 274.092737)
(1876.668694 -53.40909245 -82.83155924)
(1465.884312 790.755212 -574.7230553)
(1991.435519 -67.43836006 48.75431844)
(1388.310697 -72.68871831 -10.15975282)
(1478.522265 -325.7102715 132.8850678)
(1651.950262 200.5828866 -350.6090133)
(1265.645934 353.0785582 9.899582506)
(1352.274736 -223.4825326 -283.6039765)
(1255.520928 -369.9967161 -425.5353619)
(1593.405367 -342.6157248 -25.44400422)
(1189.431351 656.7513081 209.5653022)
(1390.641637 304.1833281 -254.5054585)
(1193.634274 186.9746026 -293.2382159)
(2385.908992 -59.22631742 519.4830881)
(2063.094685 130.9060726 -247.8488213)
(2266.719181 -89.01269259 485.5689542)
(1542.356135 102.1729012 6.638466298)
(1174.764718 58.9340363 478.5864509)
(2029.226924 490.2125521 260.935046)
(1684.175226 -49.44897689 -26.15750032)
(1907.99762 694.9429003 -174.3543225)
(715.9506436 287.6952578 617.1443834)
(1804.080585 61.6717789 32.0277959)
(990.0846865 674.4416802 -226.654163)
(2264.449031 -177.3507056 340.6886737)
(1839.104496 -606.5219098 -107.5611899)
(1914.530698 -29.13201663 618.7254227)
(1468.789237 38.35832045 85.22574043)
(1185.606179 28.08835579 601.4208933)
(1259.935827 505.0787809 251.7938137)
(1847.628304 -28.16852042 -27.94117178)
(1467.798858 -178.2512724 -121.9191906)
(1619.606004 61.09923581 -62.57052499)
(1185.852127 86.53393733 -104.670042)
(1598.672642 289.1493875 154.0547267)
(1364.772202 -511.7595998 400.9166486)
(1684.174231 86.57076903 232.8381427)
(738.0511389 -274.0315084 -17.65410505)
(1357.13784 -232.7785568 224.7093959)
(1612.508656 -119.9494426 -187.6796657)
(1854.202238 -405.4879567 -570.8333745)
(79.45301793 194.4771629 -922.993199)
(1476.715013 82.40306966 91.73961202)
(1563.475104 -220.6538027 -300.5285299)
(1644.479415 -195.1064253 275.5548318)
(1200.293852 -282.5518816 -28.18934697)
(1675.210337 375.1522487 -261.0107936)
(1721.18543 -479.4592121 105.9458543)
(1678.517973 631.4976807 105.5762132)
(1840.4288 -130.7754053 -135.4206478)
(1399.101864 328.1860412 -225.9364377)
(851.7048306 297.6007361 -12.7729408)
(1469.810229 -84.81501803 64.95890806)
(1560.500709 434.5140118 91.73350018)
(1717.386275 -354.2330912 209.177549)
(1138.521874 298.9828726 -458.8219106)
(1862.197846 -403.2014845 7.89716171)
(2219.377605 758.1447608 -283.7439193)
(1643.045262 51.90339054 86.40368254)
(1482.444291 -50.60094456 283.3729615)
(1654.847742 -510.0173518 -383.2382042)
(288.5632421 -142.158414 -1436.008917)
(1976.549704 -428.9517002 138.8653538)
(1667.472605 -367.2444098 115.9208552)
(1716.952486 -382.3531564 65.30863194)
(1443.913959 -128.5441259 99.55516152)
(1885.586137 121.4691176 592.4698174)
(1570.334758 11.17664411 -68.58974646)
(329.3741676 898.5833199 -282.8879372)
(1720.428559 -227.2356882 236.9395)
(2107.143882 183.251363 -438.8689553)
(1534.394535 510.511322 -277.6570616)
(1782.930817 460.2427842 57.67362748)
(1772.885126 372.3244954 -132.1725244)
(1465.077378 150.0892513 -97.23537774)
(2121.829148 -224.1400174 -53.14628543)
(1181.015192 -101.4777728 439.8041183)
(1738.01785 606.6328253 -384.7762862)
(1214.160468 880.9140911 314.4310098)
(1705.272666 -9.088251546 -144.1105869)
(1647.364705 342.0955578 -339.1534113)
(1771.359205 478.5642698 444.2826808)
(1525.005995 121.9152236 -259.623073)
(1919.934418 -60.30890741 108.5912021)
(1927.644598 38.36372787 -206.1505271)
(1264.556865 608.443367 -155.8795274)
(1568.581521 -106.7326314 207.6888484)
(1455.379495 105.5931324 -263.0444856)
(1712.885256 259.3284202 169.7329229)
(1948.549271 -111.7575633 347.9296687)
(1912.888005 209.2960274 -69.43720778)
(1813.112591 197.8393587 -68.30723576)
(1853.089025 25.58123036 111.5899101)
(1803.987798 -242.9208204 -631.4707154)
(1802.576001 -493.9665975 190.8288538)
(1546.833962 257.481095 -566.4830146)
(1763.766236 399.823617 375.0423654)
(940.4089151 524.3935567 -233.7034274)
(1542.322782 123.8692075 97.58966867)
(1034.22674 762.8918784 83.59725072)
(1453.894935 -70.85138095 -55.47867163)
(2171.943126 522.6940919 -468.9597526)
(1858.809263 -118.9334175 -110.1153016)
(1708.191208 -113.5413348 -407.2532794)
(939.4839893 562.1365449 531.1361401)
(1405.159354 -108.1286793 172.6290466)
(2082.904813 146.0349931 871.6426251)
(1748.690649 -347.560011 -495.1528419)
(1399.595748 -61.01544572 -50.00646438)
(1303.934138 512.0970323 -673.6019813)
(1128.744441 842.9160148 178.155134)
(1327.475883 641.9208104 113.3575282)
(1506.625008 -387.3814446 -18.84388831)
(1502.10556 91.04524573 474.8205273)
(748.1675535 669.7768512 755.0217238)
(1442.710459 144.0815638 -431.2683373)
(1443.138688 24.60519671 223.7694559)
(1700.372058 323.4685562 43.33724028)
(1930.956963 114.4434829 174.701119)
(1933.857273 -31.0917735 -288.1967256)
(1918.628792 -571.6380724 -22.63736825)
(1334.887089 508.4965093 -148.1826854)
(1580.299579 -360.0308588 151.8820088)
(1710.782473 147.7753618 -530.5027035)
(1655.241372 1286.467319 462.3740415)
(1873.077533 316.05782 -162.1881826)
(2001.890462 212.4590079 -277.6034714)
(1938.384861 739.1257967 -92.65081831)
(1821.540575 -70.08065854 143.4518056)
(1838.782269 -97.19676385 -184.692064)
(1255.060759 -362.3046198 357.0583876)
(1751.660408 141.7036365 209.2202364)
(1383.974123 55.27244249 -217.8246475)
(1491.987511 5.39348502 290.3949022)
(714.4034312 1201.565068 -504.2184118)
(1650.21799 94.09963234 -244.3584339)
(1689.73774 498.695515 -345.5003281)
(983.283303 101.8990026 397.9039782)
(1422.025464 388.0345625 134.3874134)
(1769.143454 909.5640095 346.437585)
(1069.236851 123.7734878 -331.4626775)
(1546.932854 -138.1877859 771.7586545)
(1896.410826 174.6235362 -36.81513384)
(1919.861087 -311.1825119 -379.6083263)
(1400.758274 176.2001529 444.4890241)
(1516.004783 1027.337311 -478.4235946)
(1368.461246 879.8144554 -98.05617614)
(1908.942882 -56.09211402 -310.9888169)
(1517.904027 517.9880115 270.6087498)
(1265.959283 -319.9530066 -413.0606263)
(1568.732413 331.1425939 -65.89382478)
(858.2724066 978.5693047 -99.00639187)
(1777.430982 955.6683268 73.32901531)
(1682.279318 293.7529585 284.1411741)
(1527.03047 -653.290122 361.817886)
(2189.50319 54.03767093 243.8562912)
(1211.008084 89.33668082 68.96832011)
(2103.017416 -28.86434431 265.319564)
(2129.101792 34.48064922 -27.71234969)
(1952.369402 581.0384306 -161.5127941)
(1851.570086 69.51864463 582.1951352)
(1427.111621 453.2657203 -174.1149124)
(882.4404485 1422.781216 -207.6748975)
(2024.471634 -361.5336233 -297.6930438)
(1073.874869 500.7427127 346.6278765)
(1411.92095 -102.7472886 -65.78844508)
(1221.220951 180.5541884 359.4984441)
(1935.74593 215.4564944 -542.7379126)
(1479.008504 -580.7833593 3.904483108)
(1784.340518 -112.8474823 341.759927)
(1512.566429 -354.8220672 343.7832053)
(1137.914077 10.33358166 369.6765063)
(1946.337833 -94.05596808 -213.7919206)
(1167.839248 923.42588 -227.9659826)
(2420.038558 -123.9668468 -48.50295016)
(1332.865549 -12.35117628 -307.8506064)
(1953.647194 725.4864562 384.5556343)
(1578.197762 335.8863854 -75.04672371)
(1809.82858 217.9765527 53.38622628)
(1563.245205 623.9344349 -804.0812007)
(1535.828848 -233.8989209 -78.40754469)
(1614.849504 604.4502515 -42.40674896)
(1245.486711 177.2300904 -631.0842386)
(1481.324379 -128.6768778 -34.15026954)
(1461.370757 352.7534121 138.2555466)
(1811.450714 77.01561613 -119.4612543)
(339.6393576 1264.103087 154.2888933)
(1667.332024 391.0364111 107.482237)
(1650.097185 811.5114276 119.1690379)
(1286.632226 -64.84033291 -288.37304)
(1532.489565 -41.94974642 43.10972017)
(1379.253659 -200.4703029 -539.9799543)
(1954.679237 56.58417419 699.1408984)
(1915.698306 -424.3777901 -246.2735202)
(1671.473327 -738.6053054 129.8277158)
(2013.931383 -76.01401613 -9.263724021)
(-129.4681849 240.207539 -245.0642149)
(1538.86667 696.2376941 303.0090152)
(1914.73532 -114.4368654 -137.8994399)
(1963.88289 76.59127619 -170.1699805)
(2057.531863 -146.2486214 -313.5108833)
(2010.2282 -195.6104541 179.5159697)
(1217.294857 931.2304108 1169.132369)
(1410.452406 -195.0993251 140.423502)
(1912.697913 523.8147965 -38.52574413)
(781.2274027 1099.399142 -606.2107155)
(1845.505917 -274.3363806 -513.8118783)
(1859.384952 -101.8366581 -723.5473558)
(1267.751096 575.7982331 445.1083867)
(1915.352145 145.6962709 -688.3066983)
(1599.064433 100.7372789 -202.3946074)
(946.477879 1156.544828 -157.5315347)
(688.5582347 65.56864749 -86.9370985)
(1729.789657 -401.5006762 -76.71455457)
(2303.288083 -0.6344595224 -554.5538049)
(2064.052841 -558.399824 -428.5424805)
(1597.095992 -575.2299216 -312.4749932)
(1568.811537 162.2842794 -363.1853444)
(2046.170511 131.1053357 -103.9622816)
(1932.948841 328.3687355 514.6524529)
(1869.009194 204.5068884 -366.5313936)
(1818.776511 926.3635894 629.5838279)
(1511.107676 69.9448877 192.5706085)
(1797.17429 167.7856023 544.3122349)
(1732.777303 -16.92817952 130.1464034)
(1011.976704 389.2799063 -1035.265459)
(1731.749054 -31.93053057 -704.8258213)
(1418.496105 78.17520554 -185.7518864)
(1196.574258 -434.1400338 -435.7065655)
(1623.818451 1148.850709 -249.6498158)
(1332.578378 -171.2643265 37.18526777)
(1468.956525 -51.51558594 -70.13776361)
(1880.419366 415.7492119 457.2519179)
(1634.788761 281.6605781 233.4381333)
(1716.852804 498.6185218 386.0231166)
(1653.250252 -12.69001375 -161.9596907)
(1847.789784 -47.55911428 -75.78010583)
(1661.847607 131.5346985 -54.8014242)
(1871.947976 91.08909635 194.67416)
(2163.828112 325.5535751 -101.4768852)
(1711.921176 -138.2575328 53.62348858)
(1739.824329 -0.3029899424 -216.5098375)
(1690.59048 1123.117492 -61.30471554)
(1657.49414 -398.1860535 403.1815134)
(1427.697095 790.7619001 199.7460248)
(1728.144336 -99.29447779 55.07270519)
(2111.762369 -268.8725961 -222.7677271)
(1423.352796 -127.6264602 398.2041332)
(942.8931468 -152.2979489 -392.8661744)
(1744.544187 212.5662576 -387.4250639)
(1887.717136 -257.5642406 -731.4884774)
(1029.958466 1148.502188 -954.5119287)
(1393.502728 -98.65557334 -174.5851084)
(1104.928006 208.0747351 120.0547129)
(1775.63918 -376.3912395 318.0837379)
(947.6253624 59.52748551 -220.9644988)
(1784.098874 -216.5919142 206.0899604)
(1621.797193 -384.1413217 -544.4410184)
(1569.90162 -301.2938941 405.0848538)
(1679.562608 202.7894622 -231.2148772)
(1821.206152 -112.2799174 -48.95703655)
(1915.765596 673.1127351 191.6342805)
(1608.521097 -132.005358 34.19539205)
(1289.402374 542.577494 -23.77668054)
(1836.100175 77.00463721 -60.61252505)
(1582.134039 -189.0333109 -167.420598)
(1642.246575 54.11154167 547.9724272)
(2103.329801 1305.629893 -574.8478239)
(2057.763878 877.0945548 735.8062609)
(1970.680382 214.6965055 11.80515102)
(1363.912279 892.4362669 670.8298377)
(1761.018407 -124.6561317 -0.07476977072)
(1850.828492 458.5165206 -392.4157452)
(2264.57189 758.9907548 -466.4311205)
(1177.216331 148.0821765 -381.4542919)
(1879.912311 -282.5415732 -449.0273306)
(1894.6528 -346.2997841 661.5800535)
(2037.710606 474.9920847 487.5101243)
(1666.984516 866.4657924 114.8071753)
(1561.93131 260.6514846 519.1600143)
(943.4052198 326.6034717 642.6448791)
(1713.515347 206.8653792 172.0445832)
(1940.100966 588.7226645 -118.1808182)
(1479.169587 13.59536665 103.9012429)
(1873.979719 52.16976321 -925.0289537)
(1701.074555 -450.2951938 167.4409765)
(1250.66 1139.123193 259.017153)
(1804.06652 562.82538 275.464601)
(1597.764492 8.175424111 -517.771958)
(1355.878679 610.9473065 551.7868854)
(1728.257433 87.38801189 -575.1470603)