/*--------------------------------*- C++ -*----------------------------------*\
| =========                 |                                                 |
| \\      /  F ield         | OpenFOAM: The Open Source CFD Toolbox           |
|  \\    /   O peration     | Version:  2406                                  |
|   \\  /    A nd           | Website:  www.openfoam.com                      |
|    \\/     M anipulation  |                                                 |
\*---------------------------------------------------------------------------*/
FoamFile
{
    version     2.0;
    format      ascii;
    arch        "LSB;label=32;scalar=64";
    class       volScalarField;
    location    "0.006";
    object      dsmcRhoNMean;
}
// * * * * * * * * * * * * * * * * * * * * * * * * * * * * * * * * * * * * * //

dimensions      [0 -3 0 0 0 0 0];

internalField   nonuniform List<scalar> 
546
(
7.416
9.574333333
9.694666667
9.625666667
9.641
9.613333333
9.618333333
9.564666667
9.506333333
9.529333333
9.573
9.622666667
9.588666667
9.546666667
9.574666667
9.536666667
9.566333333
9.494333333
9.433
9.413333333
7.483666667
9.568333333
9.617
9.653333333
9.651333333
9.665
9.649666667
9.65
9.618
9.607333333
9.609666667
9.587
9.644333333
9.571333333
9.560333333
9.557
9.599333333
9.691333333
9.732
9.735
7.406333333
9.533333333
9.551333333
9.525
9.534
9.543333333
9.581666667
9.597666667
9.583
9.643666667
9.579666667
9.647333333
9.582
9.602666667
9.606333333
9.578666667
9.483333333
9.528333333
9.498
9.505
7.451666667
9.613
9.669333333
9.588
9.561666667
9.535666667
9.587
9.551
9.597333333
9.539333333
9.609333333
9.587666667
9.653
9.618333333
9.681
9.644666667
9.617666667
9.598666667
9.731666667
9.713666667
7.446333333
9.614666667
9.633333333
9.684666667
9.689666667
9.667
9.592666667
9.611666667
9.567666667
9.486666667
9.481333333
9.461
9.483666667
9.536
9.568666667
9.610333333
9.694666667
9.697666667
9.578333333
9.571666667
7.431333333
9.521333333
9.548
9.531
9.555
9.564333333
9.581333333
9.562666667
9.647333333
9.673333333
9.756333333
9.711
9.667333333
9.654
9.677666667
9.740333333
9.693666667
9.631666667
9.699333333
9.702666667
7.410333333
9.524333333
9.590333333
9.652
9.603333333
9.654333333
9.650333333
9.684333333
9.612666667
9.68
9.630666667
9.664666667
9.698666667
9.656666667
9.619666667
9.571
9.624666667
9.580666667
9.582
9.602333333
7.445333333
9.62
9.706333333
9.685666667
9.693
9.669333333
9.694
9.682333333
9.727666667
9.632666667
9.638666667
9.581333333
9.578
9.613
9.611666667
9.692333333
9.667666667
9.684666667
9.734333333
9.744
7.466666667
9.591666667
9.564666667
9.556333333
9.559333333
9.496333333
9.506333333
9.56
9.541666667
9.676666667
9.69
9.713666667
9.662666667
9.653666667
9.622333333
9.525333333
9.533333333
9.533
9.486333333
9.441
7.411333333
9.503333333
9.539333333
9.606666667
9.547
9.625333333
9.625666667
9.641333333
9.597333333
9.508333333
9.512333333
9.536666667
9.612
9.615333333
9.607333333
9.617666667
9.578666667
9.517
9.485666667
9.485666667
7.477333333
9.617333333
9.628666667
9.621333333
9.628666667
9.577
9.599333333
9.512666667
9.565666667
9.617666667
9.569666667
9.591666667
9.549
9.564
9.481333333
9.54
9.593
9.709666667
9.777333333
9.808666667
7.407
9.574333333
9.597666667
9.621
9.571666667
9.533
9.572666667
9.518333333
9.530333333
9.512666667
9.499
9.564333333
9.566
9.617
9.698
9.674666667
9.702666667
9.602333333
9.622333333
9.602
7.436666667
9.616333333
9.664333333
9.628333333
9.65
9.607666667
9.603
9.653666667
9.659333333
9.646
9.607333333
9.590333333
9.593
9.562333333
9.535666667
9.555
9.447
9.496666667
9.539
9.523
7.394
9.448333333
9.558666667
9.564666667
9.593
9.613666667
9.600666667
9.598666667
9.605333333
9.633666667
9.578333333
9.543666667
9.475666667
9.513333333
9.475666667
9.559
9.583666667
9.549
9.545333333
9.551666667
7.485
9.601333333
9.593666667
9.495666667
9.539333333
9.543
9.559
9.604666667
9.566666667
9.502666667
9.496666667
9.520666667
9.621333333
9.543666667
9.638666667
9.586333333
9.535333333
9.553666667
9.596333333
9.609
7.405666667
9.565666667
9.613
9.661333333
9.711
9.65
9.56
9.524333333
9.563666667
9.599666667
9.595
9.590666667
9.571
9.611666667
9.674666667
9.637
9.652333333
9.550666667
9.521333333
9.551
7.5
9.699333333
9.773
9.726333333
9.633
9.688666667
9.766333333
9.793
9.732
9.787
9.74
9.737333333
9.756666667
9.689666667
9.624666667
9.607333333
9.61
9.600666667
9.666333333
9.653
7.286
9.310333333
9.371333333
9.46
9.479666667
9.484333333
9.510666667
9.528
9.531666667
9.556
9.629333333
9.599333333
9.572333333
9.61
9.594333333
9.581666667
9.566666667
9.561
9.572
9.493
9.324333333
9.261333333
9.213
9.146666667
9.079333333
9.099666667
9.463333333
9.444666667
9.441666667
9.315333333
9.274333333
9.278333333
9.278
9.245333333
9.112333333
9.049666667
9.671333333
9.599666667
9.563
9.504333333
9.443
9.359666667
9.312333333
9.200333333
9.181333333
9.197666667
9.506666667
9.476333333
9.462
9.361
9.34
9.245333333
9.180666667
9.175666667
9.126666667
9.144
9.719666667
9.644666667
9.531666667
9.512
9.412666667
9.332333333
9.260666667
9.168666667
9.020666667
8.975666667
9.534
9.476333333
9.394666667
9.335666667
9.298
9.245333333
9.237666667
9.266666667
9.141333333
9.080666667
9.629666667
9.53
9.499666667
9.439666667
9.485666667
9.383333333
9.219666667
9.139
9.117333333
9.082
9.608666667
9.525666667
9.447
9.39
9.266333333
9.221333333
9.179
9.107333333
8.976666667
8.885666667
9.747666667
9.667333333
9.559333333
9.380333333
9.264
9.204666667
9.139333333
9.049
8.988
8.886
9.348666667
9.284333333
9.242333333
9.169333333
9.196
9.14
9.079
8.975666667
8.95
8.93
9.443333333
9.504333333
9.465333333
9.45
9.312333333
9.221333333
9.245
9.161
9.131666667
8.950333333
9.733
9.608
9.467666667
9.411666667
9.377666667
9.346
9.185
9.121
9.094666667
9.042333333
9.563666667
9.492666667
9.446
9.338666667
9.171333333
9.108333333
9.065
9.083
9.054333333
9.028333333
9.473333333
9.437666667
9.4
9.369333333
9.322
9.290333333
9.201666667
9.128333333
9.028333333
8.947333333
9.540333333
9.576333333
9.493666667
9.456333333
9.415666667
9.341333333
9.237666667
9.144
9.012333333
8.853333333
9.533
9.449666667
9.396666667
9.289
9.248
9.095333333
9.032333333
9.015
9.035
9.036333333
9.522333333
9.474333333
9.414333333
9.347333333
9.328666667
9.263333333
9.273
9.150333333
9.101666667
9.041333333
9.558333333
9.487333333
9.413333333
9.319666667
9.279666667
9.260666667
9.216
9.191333333
9.128
9.079
9.531666667
9.412333333
9.345
9.325
9.175333333
9.092666667
9.039666667
8.906
8.786666667
8.750333333
)
;

boundaryField
{
    flow
    {
        type            calculated;
        value           nonuniform List<scalar> 
48
(
7.416
7.483666667
7.406333333
7.451666667
7.446333333
7.431333333
7.410333333
7.445333333
7.466666667
7.411333333
7.477333333
7.407
7.436666667
7.394
7.485
7.405666667
7.5
7.286
7.286
9.310333333
9.371333333
9.46
9.479666667
9.484333333
9.510666667
9.528
9.531666667
9.556
9.629333333
9.599333333
9.572333333
9.61
9.594333333
9.581666667
9.566666667
9.561
9.572
9.493
9.531666667
9.412333333
9.345
9.325
9.175333333
9.092666667
9.039666667
8.906
8.786666667
8.750333333
)
;
    }
    obstacle
    {
        type            calculated;
        value           nonuniform List<scalar> 0();
    }
    frontAndBack
    {
        type            empty;
    }
    procBoundary2to0
    {
        type            processor;
        value           nonuniform List<scalar> 
31
(
7.421
9.498333333
9.544666667
9.461333333
9.508
9.486666667
9.594333333
9.677
9.741
9.727666667
9.601333333
9.594333333
9.582333333
9.597333333
9.601
9.589333333
9.589333333
9.570666667
9.619333333
9.627666667
9.245
9.114
9.005
8.971333333
9.067333333
9.012333333
9.575333333
9.460333333
9.381
9.347333333
9.347333333
)
;
    }
    procBoundary2to3
    {
        type            processor;
        value           nonuniform List<scalar> 
19
(
9.042
9.023333333
9.122333333
9.072333333
8.901
8.974666667
9.078333333
8.815333333
8.811666667
8.848666667
8.892333333
9.010666667
9.004333333
8.893333333
8.849333333
8.893333333
9.062
8.961333333
8.690666667
)
;
    }
}


// ************************************************************************* //
