/*--------------------------------*- C++ -*----------------------------------*\
| =========                 |                                                 |
| \\      /  F ield         | OpenFOAM: The Open Source CFD Toolbox           |
|  \\    /   O peration     | Version:  2406                                  |
|   \\  /    A nd           | Website:  www.openfoam.com                      |
|    \\/     M anipulation  |                                                 |
\*---------------------------------------------------------------------------*/
FoamFile
{
    version     2.0;
    format      ascii;
    arch        "LSB;label=32;scalar=64";
    class       volScalarField;
    location    "0.006";
    object      iDof;
}
// * * * * * * * * * * * * * * * * * * * * * * * * * * * * * * * * * * * * * //

dimensions      [0 -3 0 0 0 0 0];

internalField   nonuniform List<scalar> 
546
(
1.24967977e+20
2.291079578e+20
2.499359539e+20
1.457959731e+20
2.082799616e+20
2.499359539e+20
2.499359539e+20
1.874519654e+20
1.666239693e+20
2.291079578e+20
2.499359539e+20
2.291079578e+20
6.248398848e+19
1.041399808e+20
8.331198464e+19
3.540759347e+20
2.291079578e+20
1.874519654e+20
2.291079578e+20
1.874519654e+20
1.666239693e+20
1.874519654e+20
1.457959731e+20
3.332479385e+20
1.874519654e+20
1.457959731e+20
2.082799616e+20
1.457959731e+20
2.291079578e+20
1.874519654e+20
1.874519654e+20
1.874519654e+20
2.082799616e+20
1.24967977e+20
2.291079578e+20
4.998719078e+20
1.24967977e+20
3.124199424e+20
1.874519654e+20
1.666239693e+20
1.874519654e+20
2.082799616e+20
2.707639501e+20
6.248398848e+19
2.291079578e+20
1.041399808e+20
2.707639501e+20
2.082799616e+20
2.082799616e+20
2.499359539e+20
1.666239693e+20
1.24967977e+20
1.666239693e+20
2.499359539e+20
1.24967977e+20
1.874519654e+20
2.499359539e+20
2.499359539e+20
1.24967977e+20
8.331198464e+19
1.457959731e+20
1.666239693e+20
1.666239693e+20
1.666239693e+20
1.24967977e+20
2.499359539e+20
1.457959731e+20
1.666239693e+20
1.24967977e+20
1.24967977e+20
2.707639501e+20
1.041399808e+20
2.707639501e+20
1.666239693e+20
2.915919462e+20
2.082799616e+20
2.291079578e+20
2.915919462e+20
1.457959731e+20
2.291079578e+20
1.041399808e+20
2.915919462e+20
2.291079578e+20
2.291079578e+20
1.874519654e+20
1.041399808e+20
2.082799616e+20
2.082799616e+20
1.24967977e+20
1.666239693e+20
1.874519654e+20
2.082799616e+20
2.082799616e+20
2.082799616e+20
2.707639501e+20
1.666239693e+20
2.082799616e+20
2.291079578e+20
2.291079578e+20
1.457959731e+20
2.082799616e+20
1.874519654e+20
2.707639501e+20
1.24967977e+20
2.707639501e+20
2.499359539e+20
1.041399808e+20
1.24967977e+20
2.082799616e+20
2.291079578e+20
1.666239693e+20
2.082799616e+20
8.331198464e+19
1.24967977e+20
2.082799616e+20
2.915919462e+20
2.082799616e+20
2.082799616e+20
2.291079578e+20
2.499359539e+20
6.248398848e+19
2.499359539e+20
2.291079578e+20
1.874519654e+20
1.874519654e+20
1.874519654e+20
2.707639501e+20
3.124199424e+20
3.749039309e+20
2.291079578e+20
2.499359539e+20
1.666239693e+20
2.082799616e+20
2.082799616e+20
1.457959731e+20
2.082799616e+20
1.874519654e+20
1.24967977e+20
1.666239693e+20
2.291079578e+20
8.331198464e+19
2.291079578e+20
2.291079578e+20
1.457959731e+20
2.082799616e+20
1.666239693e+20
2.082799616e+20
1.457959731e+20
1.24967977e+20
1.874519654e+20
1.457959731e+20
2.915919462e+20
3.124199424e+20
1.666239693e+20
2.291079578e+20
1.874519654e+20
1.041399808e+20
2.499359539e+20
2.915919462e+20
1.666239693e+20
1.24967977e+20
1.457959731e+20
1.874519654e+20
2.915919462e+20
2.915919462e+20
2.707639501e+20
2.291079578e+20
2.915919462e+20
2.082799616e+20
2.707639501e+20
2.082799616e+20
1.666239693e+20
2.915919462e+20
1.666239693e+20
2.291079578e+20
2.082799616e+20
2.499359539e+20
1.24967977e+20
2.707639501e+20
2.707639501e+20
2.291079578e+20
1.666239693e+20
2.707639501e+20
1.457959731e+20
2.082799616e+20
1.874519654e+20
3.124199424e+20
2.291079578e+20
2.291079578e+20
1.874519654e+20
1.666239693e+20
1.457959731e+20
1.457959731e+20
1.457959731e+20
1.457959731e+20
1.457959731e+20
2.499359539e+20
1.874519654e+20
1.666239693e+20
1.24967977e+20
1.24967977e+20
1.874519654e+20
1.666239693e+20
1.041399808e+20
1.041399808e+20
1.874519654e+20
2.499359539e+20
1.24967977e+20
1.457959731e+20
3.540759347e+20
1.874519654e+20
2.082799616e+20
1.666239693e+20
2.499359539e+20
8.331198464e+19
2.291079578e+20
6.248398848e+19
2.707639501e+20
1.874519654e+20
1.041399808e+20
1.24967977e+20
2.291079578e+20
1.666239693e+20
1.874519654e+20
2.291079578e+20
1.666239693e+20
1.457959731e+20
1.041399808e+20
2.499359539e+20
2.499359539e+20
2.291079578e+20
2.082799616e+20
1.666239693e+20
1.874519654e+20
2.915919462e+20
2.291079578e+20
2.082799616e+20
3.124199424e+20
1.874519654e+20
3.124199424e+20
1.457959731e+20
2.082799616e+20
2.291079578e+20
1.041399808e+20
2.499359539e+20
2.499359539e+20
2.082799616e+20
2.082799616e+20
2.082799616e+20
1.666239693e+20
2.291079578e+20
2.291079578e+20
1.24967977e+20
2.082799616e+20
3.540759347e+20
2.082799616e+20
2.082799616e+20
3.124199424e+20
2.291079578e+20
1.666239693e+20
1.24967977e+20
1.874519654e+20
2.499359539e+20
3.124199424e+20
2.082799616e+20
1.24967977e+20
1.666239693e+20
2.915919462e+20
1.457959731e+20
2.291079578e+20
1.874519654e+20
2.291079578e+20
2.082799616e+20
1.457959731e+20
1.457959731e+20
1.041399808e+20
2.291079578e+20
2.082799616e+20
2.499359539e+20
4.165599232e+19
1.666239693e+20
2.499359539e+20
1.874519654e+20
2.082799616e+20
1.874519654e+20
1.666239693e+20
1.666239693e+20
2.499359539e+20
2.499359539e+20
1.874519654e+20
3.124199424e+20
2.082799616e+20
2.291079578e+20
1.457959731e+20
3.124199424e+20
1.874519654e+20
2.707639501e+20
3.749039309e+20
1.874519654e+20
1.24967977e+20
1.457959731e+20
1.874519654e+20
1.874519654e+20
2.082799616e+20
2.291079578e+20
2.291079578e+20
2.915919462e+20
2.082799616e+20
1.457959731e+20
2.082799616e+20
1.24967977e+20
1.24967977e+20
2.499359539e+20
1.24967977e+20
2.915919462e+20
2.082799616e+20
2.707639501e+20
1.457959731e+20
3.749039309e+20
2.291079578e+20
1.041399808e+20
2.082799616e+20
2.291079578e+20
1.874519654e+20
2.082799616e+20
1.874519654e+20
1.666239693e+20
2.082799616e+20
1.457959731e+20
1.666239693e+20
1.666239693e+20
1.24967977e+20
3.124199424e+20
1.457959731e+20
1.666239693e+20
3.332479385e+20
1.666239693e+20
2.499359539e+20
2.499359539e+20
1.666239693e+20
1.666239693e+20
2.291079578e+20
4.165599232e+19
1.874519654e+20
1.874519654e+20
2.707639501e+20
1.874519654e+20
2.082799616e+20
1.666239693e+20
1.24967977e+20
2.082799616e+20
2.082799616e+20
1.457959731e+20
2.082799616e+20
8.331198464e+19
1.666239693e+20
1.874519654e+20
1.666239693e+20
8.331198464e+19
2.082799616e+20
2.793551809e+20
1.947671882e+20
2.615388143e+20
2.634145716e+20
2.210978576e+20
1.336239882e+20
1.881167178e+20
3.577748774e+20
1.271477674e+20
1.920513594e+20
1.933997406e+20
3.029711816e+20
1.743592108e+20
3.292682145e+20
1.10548928e+20
4.454132941e+19
1.881167191e+20
1.262734861e+20
1.907216511e+20
2.133903993e+20
1.289331595e+20
2.164079884e+20
1.525643094e+20
1.536585001e+20
2.210978576e+20
3.340599706e+20
2.926260055e+20
2.104558102e+20
4.238258913e+19
1.707123195e+20
1.933997406e+20
1.298447921e+20
1.743592108e+20
1.975609301e+20
1.768782848e+20
1.336239873e+20
4.180371508e+19
1.473190662e+20
2.754868294e+20
2.987465611e+20
1.074443004e+20
1.298447921e+20
1.961541108e+20
2.195121415e+20
1.326587136e+20
2.672479765e+20
1.881167178e+20
1.473190662e+20
2.119129457e+20
2.133904008e+20
1.289331604e+20
1.947671882e+20
2.179490135e+20
1.536585012e+20
2.210978576e+20
1.781653177e+20
2.508222905e+20
2.525469723e+20
1.695303565e+20
1.920513594e+20
2.578663208e+20
1.082039942e+20
2.179490135e+20
2.634145716e+20
2.874272148e+20
1.781653189e+20
2.090185768e+20
1.262734861e+20
1.907216511e+20
2.133904008e+20
1.719108806e+20
1.082039934e+20
1.961541121e+20
1.756097144e+20
1.989880704e+20
1.113533235e+20
2.090185754e+20
1.894102292e+20
2.754868312e+20
2.133904008e+20
1.719108806e+20
1.514855908e+20
1.525643084e+20
1.536585001e+20
3.979761436e+20
4.454132941e+19
1.463130028e+20
1.052279044e+20
2.119129442e+20
4.267807958e+19
2.148885992e+20
3.678935803e+20
1.74359212e+20
1.317072867e+20
1.768782861e+20
1.336239882e+20
2.508222905e+20
2.946381343e+20
2.119129471e+20
1.707123206e+20
2.578663226e+20
1.947671896e+20
2.179490119e+20
1.975609273e+20
1.547684992e+20
2.449773118e+20
2.090185768e+20
1.683646482e+20
1.059564728e+20
2.77407521e+20
2.793551809e+20
1.082039934e+20
1.743592108e+20
2.195121445e+20
2.210978576e+20
3.563306353e+20
2.508222905e+20
1.052279044e+20
3.814432996e+20
2.774075191e+20
2.578663208e+20
2.596895843e+20
3.269235179e+20
3.073170002e+20
1.105489288e+20
2.449773118e+20
1.045092877e+20
1.473190672e+20
2.754868312e+20
2.77407521e+20
2.363774608e+20
2.164079884e+20
2.17949015e+20
2.195121445e+20
1.10548928e+20
1.558946518e+20
1.254111452e+20
3.156837132e+20
2.331042386e+20
1.920513594e+20
1.719108806e+20
1.514855908e+20
2.397439131e+20
1.756097132e+20
1.768782848e+20
2.449773135e+20
1.672148603e+20
2.315013913e+20
2.331042418e+20
2.347294393e+20
2.148885992e+20
1.947671882e+20
1.743592108e+20
1.317072867e+20
3.758663579e+20
1.781653177e+20
1.672148614e+20
1.683646482e+20
1.695303565e+20
2.133904008e+20
3.653106212e+20
1.731263895e+20
1.961541108e+20
2.414633573e+20
2.874272148e+20
2.227066471e+20
1.254111452e+20
1.473190672e+20
1.907216511e+20
1.280342396e+20
1.933997406e+20
2.596895861e+20
1.961541135e+20
2.634145716e+20
4.42195712e+19
1.113533235e+20
1.672148603e+20
2.525469706e+20
1.907216511e+20
2.133904008e+20
1.719108806e+20
1.947671882e+20
1.961541108e+20
2.634145716e+20
2.210978576e+20
1.55894653e+20
)
;

boundaryField
{
    flow
    {
        type            zeroGradient;
    }
    obstacle
    {
        type            calculated;
        value           nonuniform List<scalar> 0();
    }
    frontAndBack
    {
        type            empty;
    }
    procBoundary2to0
    {
        type            processor;
        value           nonuniform List<scalar> 
31
(
1.666239693e+20
2.082799616e+20
1.874519654e+20
1.457959731e+20
2.499359539e+20
2.291079578e+20
2.499359539e+20
2.499359539e+20
2.082799616e+20
2.082799616e+20
1.457959731e+20
1.874519654e+20
1.874519654e+20
1.457959731e+20
2.082799616e+20
1.24967977e+20
1.666239693e+20
1.874519654e+20
1.666239693e+20
1.24967977e+20
2.793551809e+20
1.731263895e+20
1.525643094e+20
1.097560723e+20
1.768782861e+20
1.781653177e+20
2.926260055e+20
3.156837132e+20
2.119129457e+20
2.133904008e+20
2.133904008e+20
)
;
    }
    procBoundary2to3
    {
        type            processor;
        value           nonuniform List<scalar> 
19
(
1.346034123e+20
1.794712164e+20
1.570373155e+20
2.243390205e+20
2.019051184e+20
1.570373155e+20
1.794712177e+20
1.570373143e+20
1.794712177e+20
2.243390205e+20
1.346034123e+20
8.973560883e+19
2.019051184e+20
1.794712164e+20
2.692068284e+20
1.794712164e+20
2.243390205e+20
1.794712177e+20
3.589424328e+20
)
;
    }
}


// ************************************************************************* //
