/*--------------------------------*- C++ -*----------------------------------*\
| =========                 |                                                 |
| \\      /  F ield         | OpenFOAM: The Open Source CFD Toolbox           |
|  \\    /   O peration     | Version:  2406                                  |
|   \\  /    A nd           | Website:  www.openfoam.com                      |
|    \\/     M anipulation  |                                                 |
\*---------------------------------------------------------------------------*/
FoamFile
{
    version     2.0;
    format      ascii;
    arch        "LSB;label=32;scalar=64";
    class       volScalarField;
    location    "0.006";
    object      iDofMean;
}
// * * * * * * * * * * * * * * * * * * * * * * * * * * * * * * * * * * * * * //

dimensions      [0 -3 0 0 0 0 0];

internalField   nonuniform List<scalar> 
546
(
1.544604195e+20
1.994141779e+20
2.019204801e+20
2.004833484e+20
2.00802711e+20
2.002264697e+20
2.003306097e+20
1.992128406e+20
1.979978742e+20
1.984769181e+20
1.993864072e+20
2.004208644e+20
1.997127125e+20
1.988379367e+20
1.994211206e+20
1.986296567e+20
1.992475539e+20
1.977479382e+20
1.964704878e+20
1.960608705e+20
1.558697806e+20
1.992892099e+20
2.003028391e+20
2.010595896e+20
2.010179336e+20
2.013025829e+20
2.009832203e+20
2.009901629e+20
2.003236671e+20
2.001015018e+20
2.001501004e+20
1.996779992e+20
2.008721376e+20
1.993516939e+20
1.991225859e+20
1.990531593e+20
1.999348778e+20
2.018510534e+20
2.026980586e+20
2.027605426e+20
1.542590822e+20
1.985602301e+20
1.98935134e+20
1.983866634e+20
1.985741154e+20
1.9876851e+20
1.995669165e+20
1.999001645e+20
1.995946872e+20
2.008582523e+20
1.995252605e+20
2.009346216e+20
1.995738592e+20
2.000043045e+20
2.000806738e+20
1.995044325e+20
1.975188302e+20
1.984560901e+20
1.978243075e+20
1.979701035e+20
1.552032847e+20
2.002195271e+20
2.013928375e+20
1.996988272e+20
1.991503566e+20
1.986088287e+20
1.996779992e+20
1.989281913e+20
1.998932218e+20
1.98685198e+20
2.001431578e+20
1.996918845e+20
2.010526469e+20
2.003306097e+20
2.016358308e+20
2.008790803e+20
2.003167244e+20
1.999209925e+20
2.02691116e+20
2.02316212e+20
1.550922021e+20
2.002542404e+20
2.006430297e+20
2.017122001e+20
2.018163401e+20
2.013442389e+20
1.997960245e+20
2.001917564e+20
1.992753246e+20
1.975882569e+20
1.974771743e+20
1.970536717e+20
1.975257729e+20
1.986157714e+20
1.992961526e+20
2.001639858e+20
2.019204801e+20
2.019829641e+20
1.994974899e+20
1.993586366e+20
1.547797821e+20
1.983102941e+20
1.988657073e+20
1.985116314e+20
1.990115033e+20
1.992058979e+20
1.995599739e+20
1.991711846e+20
2.009346216e+20
2.014761495e+20
2.032048732e+20
2.022606707e+20
2.013511815e+20
2.010734749e+20
2.015664042e+20
2.028716253e+20
2.018996521e+20
2.006083163e+20
2.020176774e+20
2.020871041e+20
1.543423942e+20
1.983727781e+20
1.997474258e+20
2.010318189e+20
2.000181898e+20
2.010804176e+20
2.009971056e+20
2.017052575e+20
2.002125844e+20
2.016150028e+20
2.005874883e+20
2.012956402e+20
2.020037921e+20
2.011290162e+20
2.003583804e+20
1.993447512e+20
2.004625204e+20
1.995460885e+20
1.995738592e+20
1.999973618e+20
1.550713741e+20
2.003653231e+20
2.021634734e+20
2.017330281e+20
2.018857668e+20
2.013928375e+20
2.019065948e+20
2.016636015e+20
2.02607804e+20
2.006291443e+20
2.007541123e+20
1.995599739e+20
1.994905472e+20
2.002195271e+20
2.001917564e+20
2.018718814e+20
2.013581242e+20
2.017122001e+20
2.027466573e+20
2.029479946e+20
1.555157047e+20
1.997751965e+20
1.992128406e+20
1.99039274e+20
1.99101758e+20
1.977895942e+20
1.979978742e+20
1.991156433e+20
1.987337967e+20
2.015455762e+20
2.018232828e+20
2.02316212e+20
2.012539842e+20
2.010665323e+20
2.004139217e+20
1.983936061e+20
1.985602301e+20
1.985532874e+20
1.975813142e+20
1.966371117e+20
1.543632222e+20
1.979353902e+20
1.98685198e+20
2.000876164e+20
1.988448793e+20
2.004764057e+20
2.004833484e+20
2.008096536e+20
1.998932218e+20
1.980395301e+20
1.981228421e+20
1.986296567e+20
2.001986991e+20
2.002681257e+20
2.001015018e+20
2.003167244e+20
1.995044325e+20
1.982200394e+20
1.975674289e+20
1.975674289e+20
1.557378699e+20
2.003097817e+20
2.005458324e+20
2.003930937e+20
2.005458324e+20
1.994697192e+20
1.999348778e+20
1.981297848e+20
1.992336686e+20
2.003167244e+20
1.993169806e+20
1.997751965e+20
1.988865353e+20
1.991989553e+20
1.974771743e+20
1.986990834e+20
1.998029672e+20
2.022329e+20
2.036422611e+20
2.042948717e+20
1.542729676e+20
1.994141779e+20
1.999001645e+20
2.00386151e+20
1.993586366e+20
1.985532874e+20
1.993794646e+20
1.982478101e+20
1.984977461e+20
1.981297848e+20
1.978451355e+20
1.992058979e+20
1.992406113e+20
2.003028391e+20
2.019899068e+20
2.015039202e+20
2.020871041e+20
1.999973618e+20
2.004139217e+20
1.999904191e+20
1.548908648e+20
2.002889537e+20
2.012886975e+20
2.005388897e+20
2.009901629e+20
2.001084444e+20
2.000112471e+20
2.010665323e+20
2.011845576e+20
2.00906851e+20
2.001015018e+20
1.997474258e+20
1.998029672e+20
1.991642419e+20
1.986088287e+20
1.990115033e+20
1.967620797e+20
1.977965369e+20
1.986782554e+20
1.983450074e+20
1.540022036e+20
1.967898504e+20
1.990878726e+20
1.992128406e+20
1.998029672e+20
2.002334124e+20
1.999626485e+20
1.999209925e+20
2.000598458e+20
2.006499723e+20
1.994974899e+20
1.987754527e+20
1.973591489e+20
1.981436701e+20
1.973591489e+20
1.990948153e+20
1.996085725e+20
1.988865353e+20
1.98810166e+20
1.989420766e+20
1.558975513e+20
1.999765338e+20
1.998168525e+20
1.977757089e+20
1.98685198e+20
1.987615673e+20
1.990948153e+20
2.000459604e+20
1.992544966e+20
1.979215048e+20
1.977965369e+20
1.982964088e+20
2.003930937e+20
1.987754527e+20
2.007541123e+20
1.996641138e+20
1.98601886e+20
1.989837326e+20
1.998723938e+20
2.001362151e+20
1.542451969e+20
1.992336686e+20
2.002195271e+20
2.012262136e+20
2.022606707e+20
2.009901629e+20
1.991156433e+20
1.983727781e+20
1.991920126e+20
1.999418205e+20
1.998446231e+20
1.997543685e+20
1.993447512e+20
2.001917564e+20
2.015039202e+20
2.00719399e+20
2.010387616e+20
1.989212487e+20
1.983102941e+20
1.989281913e+20
1.562099712e+20
2.020176774e+20
2.035520065e+20
2.025800333e+20
2.00636087e+20
2.017955121e+20
2.034131532e+20
2.039685664e+20
2.026980586e+20
2.038435984e+20
2.028646826e+20
2.028091413e+20
2.032118159e+20
2.018163401e+20
2.004625204e+20
2.001015018e+20
2.001570431e+20
1.999626485e+20
2.013303535e+20
2.010526469e+20
1.5175278e+20
1.939155869e+20
1.951860947e+20
1.970328437e+20
1.974424609e+20
1.975396582e+20
1.980881288e+20
1.984491474e+20
1.985255167e+20
1.990323313e+20
2.005597177e+20
1.999348778e+20
1.993725219e+20
2.001570431e+20
1.998307378e+20
1.995669165e+20
1.992544966e+20
1.991364713e+20
1.993655792e+20
1.977201675e+20
2.003692943e+20
2.004226503e+20
2.007964247e+20
2.007804401e+20
2.007421148e+20
2.026556253e+20
1.978012452e+20
1.987684976e+20
2.000811395e+20
1.9878027e+20
1.992948512e+20
2.007905438e+20
2.022130947e+20
2.029462933e+20
2.014717363e+20
2.01542092e+20
2.021488329e+20
2.020305626e+20
2.026523499e+20
2.028133485e+20
2.029193043e+20
2.025506635e+20
2.029613863e+20
2.019584886e+20
2.02997313e+20
2.048381504e+20
1.987069923e+20
1.99434941e+20
2.005120292e+20
1.997547528e+20
2.007059531e+20
2.000763975e+20
2.000917243e+20
2.014170268e+20
2.017886432e+20
2.036429566e+20
2.03159088e+20
2.029776124e+20
2.01988356e+20
2.029769492e+20
2.022674769e+20
2.01959147e+20
2.01835315e+20
2.012633654e+20
1.99445006e+20
1.998940629e+20
1.992783098e+20
1.994349396e+20
1.990851487e+20
1.992141652e+20
1.998034209e+20
2.000763975e+20
2.013340337e+20
2.034145873e+20
2.021129215e+20
2.022324827e+20
2.012779208e+20
2.005643871e+20
2.013102346e+20
2.01433424e+20
2.038361637e+20
2.030628291e+20
2.009417254e+20
2.006121475e+20
2.015822867e+20
2.022621783e+20
2.008389831e+20
2.004731896e+20
2.001941598e+20
2.003735863e+20
1.991229404e+20
1.995570183e+20
2.000553995e+20
1.999170257e+20
1.984721754e+20
1.97889703e+20
2.0374434e+20
2.034546469e+20
2.025746499e+20
2.00167309e+20
1.990727997e+20
1.991963383e+20
1.99190867e+20
1.986365382e+20
1.987227544e+20
1.978971266e+20
1.954044988e+20
1.953941881e+20
1.958570068e+20
1.956647688e+20
1.976115559e+20
1.977969014e+20
1.978759107e+20
1.970267839e+20
1.978825825e+20
1.988770358e+20
1.97383208e+20
2.000242172e+20
2.005826682e+20
2.016539288e+20
2.001114293e+20
1.995570197e+20
2.014938615e+20
2.010950728e+20
2.018991922e+20
1.993298727e+20
2.034377808e+20
2.022059425e+20
2.006321132e+20
2.008359322e+20
2.015153668e+20
2.022549045e+20
2.001861689e+20
2.00217027e+20
2.010811315e+20
2.013787738e+20
1.998983982e+20
1.997786841e+20
2.001729671e+20
1.992781809e+20
1.970814987e+20
1.971116081e+20
1.975707793e+20
1.993828795e+20
2.001893702e+20
2.010669845e+20
1.980102637e+20
1.986211785e+20
1.991981703e+20
1.999325795e+20
2.003191536e+20
2.010502348e+20
2.005494186e+20
2.003780026e+20
1.996145143e+20
1.992630593e+20
1.994106882e+20
2.015394977e+20
2.011830855e+20
2.017890746e+20
2.023319435e+20
2.021539142e+20
2.013340323e+20
2.007219021e+20
1.992607578e+20
1.971696196e+20
1.992574079e+20
1.988737255e+20
1.991275326e+20
1.982183419e+20
1.987289766e+20
1.968302777e+20
1.968588139e+20
1.978901983e+20
1.997619143e+20
2.012451499e+20
1.990344561e+20
1.993928498e+20
1.995019108e+20
1.994631206e+20
2.004624126e+20
2.004659319e+20
2.021041188e+20
2.008609279e+20
2.012359e+20
2.013565032e+20
1.997869216e+20
1.996664424e+20
1.994807195e+20
1.988727392e+20
1.994094585e+20
2.004082244e+20
2.008618122e+20
2.017609277e+20
2.01818123e+20
2.021953649e+20
1.992295388e+20
1.980880224e+20
1.980326477e+20
1.989865487e+20
1.971674541e+20
1.967725689e+20
1.970186418e+20
1.954975145e+20
1.942713175e+20
1.948757397e+20
)
;

boundaryField
{
    flow
    {
        type            calculated;
        value           nonuniform List<scalar> 
48
(
1.544604195e+20
1.558697806e+20
1.542590822e+20
1.552032847e+20
1.550922021e+20
1.547797821e+20
1.543423942e+20
1.550713741e+20
1.555157047e+20
1.543632222e+20
1.557378699e+20
1.542729676e+20
1.548908648e+20
1.540022036e+20
1.558975513e+20
1.542451969e+20
1.562099712e+20
1.5175278e+20
1.5175278e+20
1.939155869e+20
1.951860947e+20
1.970328437e+20
1.974424609e+20
1.975396582e+20
1.980881288e+20
1.984491474e+20
1.985255167e+20
1.990323313e+20
2.005597177e+20
1.999348778e+20
1.993725219e+20
2.001570431e+20
1.998307378e+20
1.995669165e+20
1.992544966e+20
1.991364713e+20
1.993655792e+20
1.977201675e+20
1.992295388e+20
1.980880224e+20
1.980326477e+20
1.989865487e+20
1.971674541e+20
1.967725689e+20
1.970186418e+20
1.954975145e+20
1.942713175e+20
1.948757397e+20
)
;
    }
    obstacle
    {
        type            calculated;
        value           nonuniform List<scalar> 0();
    }
    frontAndBack
    {
        type            empty;
    }
    procBoundary2to0
    {
        type            processor;
        value           nonuniform List<scalar> 
31
(
1.545645595e+20
1.978312502e+20
1.987962807e+20
1.970606143e+20
1.980325875e+20
1.975882569e+20
1.998307378e+20
2.015525188e+20
2.028855106e+20
2.02607804e+20
1.999765338e+20
1.998307378e+20
1.995808019e+20
1.998932218e+20
1.999695911e+20
1.997265978e+20
1.997265978e+20
1.993378086e+20
2.003514377e+20
2.005250044e+20
1.986645114e+20
1.972342393e+20
1.962630866e+20
1.969316619e+20
2.004767974e+20
2.007106539e+20
2.001422532e+20
1.990982103e+20
1.987955343e+20
1.994631206e+20
1.994631206e+20
)
;
    }
    procBoundary2to3
    {
        type            processor;
        value           nonuniform List<scalar> 
19
(
2.028473423e+20
2.024285761e+20
2.046495339e+20
2.035278373e+20
1.996841621e+20
2.013367944e+20
2.036624422e+20
1.977623245e+20
1.976800683e+20
1.985101212e+20
1.99489735e+20
2.021444148e+20
2.02002332e+20
1.995121689e+20
1.9852508e+20
1.995121689e+20
2.032960204e+20
2.010376757e+20
1.949655647e+20
)
;
    }
}


// ************************************************************************* //
