/*--------------------------------*- C++ -*----------------------------------*\
| =========                 |                                                 |
| \\      /  F ield         | OpenFOAM: The Open Source CFD Toolbox           |
|  \\    /   O peration     | Version:  2406                                  |
|   \\  /    A nd           | Website:  www.openfoam.com                      |
|    \\/     M anipulation  |                                                 |
\*---------------------------------------------------------------------------*/
FoamFile
{
    version     2.0;
    format      ascii;
    arch        "LSB;label=32;scalar=64";
    class       volScalarField;
    location    "0.006";
    object      internalEMean;
}
// * * * * * * * * * * * * * * * * * * * * * * * * * * * * * * * * * * * * * //

dimensions      [1 -1 -2 0 0 0 0];

internalField   nonuniform List<scalar> 
546
(
0.3219439691
0.4186320727
0.4239461182
0.4182747966
0.417520512
0.4144482207
0.4132001053
0.4100574524
0.4082425414
0.408882277
0.410562239
0.4142727413
0.4113530743
0.4082177007
0.4108343793
0.4080587471
0.4060376442
0.4030804068
0.4021959077
0.4011821366
0.3263780935
0.4166922106
0.4179070177
0.4200088078
0.4187251401
0.4172763916
0.4163466093
0.4161324552
0.4149231464
0.4137335409
0.4123938097
0.4068840198
0.4130414639
0.4109251561
0.4122323043
0.4127434111
0.4177368076
0.423154947
0.4211698707
0.4218219055
0.3170980161
0.4106837433
0.4111277105
0.4066344817
0.4133567735
0.4169372064
0.4202256283
0.4192686477
0.4178137129
0.4184982209
0.4143374236
0.4180495146
0.4142831488
0.4118216412
0.4111689273
0.4130289258
0.4061818164
0.4121732673
0.415947452
0.4147929452
0.3199222051
0.4104541665
0.4149246491
0.412739502
0.4105084098
0.4072029193
0.4118671334
0.4111418335
0.412913621
0.4113017836
0.4169546393
0.4164827242
0.4199507257
0.4214019414
0.4214835679
0.4182760932
0.4171319197
0.4124760581
0.4184969228
0.4168157038
0.3226569765
0.4169352815
0.4179424225
0.4208556935
0.4204255837
0.4218204343
0.4148091641
0.4137674147
0.4145974435
0.4113526387
0.4093929221
0.4092279179
0.4081722464
0.4114682776
0.4117003597
0.414610497
0.4164496473
0.4200523682
0.4109408342
0.4123679022
0.3210678434
0.4128240035
0.4133216548
0.4149768647
0.4151567639
0.4164296986
0.417952399
0.416275288
0.4217887217
0.4226849691
0.4225614054
0.4203166082
0.4175262592
0.4183373021
0.4149321458
0.4165108913
0.4150973029
0.4137599557
0.4162305055
0.4177519155
0.3174896522
0.4085794061
0.4099248964
0.4145794831
0.4135608919
0.4139636268
0.4167650063
0.4192869602
0.4133718678
0.4145261947
0.4170566898
0.4175109423
0.4183500231
0.4169454868
0.4160160284
0.4149311762
0.4137483046
0.4124677628
0.4160285181
0.4195201188
0.3235718401
0.419628747
0.421456908
0.4210934312
0.4225135354
0.4205196556
0.4192954773
0.4150568266
0.4155199898
0.412566466
0.4138908484
0.4111475894
0.4135670299
0.414674905
0.4127517107
0.4170660559
0.4169048993
0.417035404
0.4174089924
0.4175019413
0.3235906459
0.4178222393
0.4164078333
0.4145619471
0.4149995939
0.4120245826
0.4122537776
0.4167516356
0.4138666238
0.422633524
0.4201130566
0.4238846359
0.4207431969
0.4203718344
0.4178383261
0.4113038656
0.4125956293
0.4091080065
0.4099262583
0.4066250718
0.3204650828
0.4106110485
0.4106304142
0.4120853455
0.407835741
0.409132729
0.4111593971
0.4147946997
0.4153244362
0.4115430641
0.4137969316
0.412501606
0.4163249255
0.4130612115
0.4128412452
0.4123661585
0.4102297598
0.4118834911
0.4068433202
0.4065359348
0.3192143573
0.4136606309
0.4166550067
0.418555386
0.4184453968
0.4174694145
0.4164414055
0.4098153877
0.4111530606
0.412528758
0.4080125683
0.4093020635
0.4039558561
0.4096569425
0.4050652344
0.4076609055
0.4124411397
0.4163357729
0.4221040229
0.4234803219
0.3217055878
0.4148121354
0.4138460731
0.4151146114
0.4090112732
0.4091939199
0.4084400652
0.4095694912
0.4080612435
0.4060883515
0.4041247444
0.4083061195
0.4102644082
0.4135590071
0.4178972873
0.4175887234
0.4174766094
0.4135394988
0.414595252
0.4141403603
0.3187828575
0.4150606093
0.4166835912
0.4186003855
0.4217871533
0.4212193855
0.4175507302
0.415165499
0.415070653
0.4128808905
0.4150520948
0.4122001891
0.4124471798
0.4142671045
0.4119462909
0.4130587648
0.4099385664
0.4133403382
0.4139744511
0.4124431406
0.3206796792
0.4083432613
0.4141660474
0.4118403105
0.4134198072
0.4136182673
0.4158520505
0.4199183696
0.4198503638
0.4209812156
0.4140010746
0.4133299369
0.4092231028
0.4074958523
0.4066868491
0.4102265114
0.4072446481
0.4087364675
0.4090484878
0.4109509674
0.324030738
0.416448199
0.4165316249
0.4137048415
0.414190502
0.4156936429
0.4189341121
0.4166982291
0.4125404123
0.4107781443
0.4164228217
0.4148776309
0.420862103
0.4175998564
0.4207545763
0.4155654665
0.4173411065
0.4182324179
0.4184530923
0.4172483806
0.3163508728
0.4114478078
0.4133708453
0.4158973291
0.4206833101
0.4169316079
0.4148391252
0.4114776835
0.4144331088
0.414736684
0.4164615453
0.4137086583
0.4152649051
0.4162247282
0.4155676858
0.416853039
0.4173299971
0.4108199876
0.404732248
0.4098837618
0.3239703588
0.4209966337
0.4264376644
0.4208768368
0.4177894179
0.41828038
0.4198709724
0.4208925319
0.4194444909
0.4184680649
0.4165632196
0.4157016721
0.4170188061
0.4150249202
0.4132224562
0.411649608
0.4133409432
0.4114955978
0.4124625787
0.4116899259
0.3142050375
0.3997061388
0.4036105192
0.4096174406
0.4097613959
0.4080914365
0.4092779326
0.4109328112
0.4097050051
0.4072622145
0.4097114917
0.4085561361
0.4075382612
0.406382785
0.4039418466
0.4017409089
0.4043376339
0.4046596351
0.4041023296
0.4060088864
0.4206379047
0.4210250177
0.4212763394
0.4205454774
0.4196440539
0.4215956345
0.4048852572
0.4083320843
0.4104303552
0.4073516654
0.4087689978
0.4135767971
0.4163890222
0.4182061365
0.4156690157
0.417442727
0.4158870661
0.4203481426
0.4213414384
0.4216698623
0.423387475
0.4236203538
0.4239199775
0.4210384661
0.4257038137
0.4331143908
0.4223519694
0.4192369112
0.4161140436
0.4146180583
0.4143849248
0.4129582284
0.4121253967
0.4185749509
0.416954555
0.4213302416
0.4142328283
0.4158118931
0.4155119594
0.4185879607
0.4142112084
0.4171282953
0.4181630132
0.4157074753
0.4105551424
0.4101895472
0.4127251819
0.4123950752
0.4112346678
0.411543889
0.4137281385
0.4154798706
0.4177020714
0.4250493188
0.4200671959
0.4211680227
0.4142824497
0.4146346392
0.4165532251
0.4163417998
0.4182290339
0.4156565063
0.4132284573
0.4089363523
0.4115907609
0.4140812133
0.4215911932
0.4177437119
0.413859558
0.4136326057
0.4128186641
0.4158795318
0.4123610668
0.4140427438
0.4118254518
0.410053633
0.4179862721
0.4208308212
0.4240252295
0.4173329903
0.4178088731
0.4124463366
0.4171401471
0.41494871
0.41152011
0.4092511225
0.4059058271
0.4027754609
0.4039306959
0.4016335247
0.4047515849
0.4073023348
0.4097374644
0.4076054758
0.4113343043
0.4159345296
0.4070279816
0.4131128188
0.4145445509
0.4200660033
0.4153028449
0.4145943242
0.4158521197
0.4162425419
0.4177230851
0.4086271786
0.4235415646
0.417727918
0.4135497603
0.4152117625
0.4164606528
0.4172717707
0.4146267569
0.412201325
0.4144185473
0.4152259718
0.4135925225
0.4159442007
0.4141820293
0.4127461404
0.4077456522
0.4092199989
0.4114604781
0.415420412
0.4171696694
0.4239144154
0.4110545871
0.4115059399
0.4115113954
0.4103333439
0.4173209236
0.4183035957
0.4208429154
0.4220487769
0.4218635683
0.4167094843
0.4122706704
0.4173117409
0.4183725659
0.421016969
0.4224785496
0.420831296
0.4194336626
0.4167618279
0.4159133264
0.4150618244
0.4120858955
0.4125423319
0.4112407515
0.4086293422
0.4071800909
0.4019598961
0.4021735736
0.4065982578
0.4098282452
0.4127205521
0.4104077423
0.4117196975
0.4113340312
0.4125767116
0.4156470724
0.4158593936
0.4198817352
0.4182238086
0.4187064135
0.4175438659
0.4134826965
0.4123148935
0.4091869277
0.4078221158
0.4088673144
0.4114698314
0.4136521855
0.4186261757
0.4175939502
0.416675404
0.4081697528
0.4058764417
0.4076576591
0.4092745829
0.4037561416
0.4034964777
0.4027378123
0.3959792781
0.3981449387
0.3993831639
)
;

boundaryField
{
    flow
    {
        type            calculated;
        value           nonuniform List<scalar> 
48
(
0.3219439691
0.3263780935
0.3170980161
0.3199222051
0.3226569765
0.3210678434
0.3174896522
0.3235718401
0.3235906459
0.3204650828
0.3192143573
0.3217055878
0.3187828575
0.3206796792
0.324030738
0.3163508728
0.3239703588
0.3142050375
0.3142050375
0.3997061388
0.4036105192
0.4096174406
0.4097613959
0.4080914365
0.4092779326
0.4109328112
0.4097050051
0.4072622145
0.4097114917
0.4085561361
0.4075382612
0.406382785
0.4039418466
0.4017409089
0.4043376339
0.4046596351
0.4041023296
0.4060088864
0.4081697528
0.4058764417
0.4076576591
0.4092745829
0.4037561416
0.4034964777
0.4027378123
0.3959792781
0.3981449387
0.3993831639
)
;
    }
    obstacle
    {
        type            calculated;
        value           nonuniform List<scalar> 0();
    }
    frontAndBack
    {
        type            empty;
    }
    procBoundary2to0
    {
        type            processor;
        value           nonuniform List<scalar> 
31
(
0.3208946809
0.4108514111
0.4126827183
0.4099526986
0.4122374196
0.4129002433
0.4176321576
0.4220461969
0.4225810923
0.4211253351
0.4171508073
0.41480161
0.4122773292
0.4156277978
0.4141241713
0.411241196
0.4092994002
0.4080626866
0.411261639
0.4118815713
0.4145522542
0.4109021994
0.4141316625
0.4148739333
0.4220464285
0.4219809612
0.4125326895
0.4091259365
0.4098634401
0.4150589975
0.4150589975
)
;
    }
    procBoundary2to3
    {
        type            processor;
        value           nonuniform List<scalar> 
19
(
0.4244487228
0.4197692664
0.4309736278
0.4258061382
0.4123360412
0.4156098989
0.4157551348
0.4122056698
0.4087040022
0.4140065636
0.4106168533
0.4175854363
0.4235174304
0.4168057467
0.4173609594
0.4068815857
0.4205579439
0.4170416377
0.4017573504
)
;
    }
}


// ************************************************************************* //
