/*--------------------------------*- C++ -*----------------------------------*\
| =========                 |                                                 |
| \\      /  F ield         | OpenFOAM: The Open Source CFD Toolbox           |
|  \\    /   O peration     | Version:  2406                                  |
|   \\  /    A nd           | Website:  www.openfoam.com                      |
|    \\/     M anipulation  |                                                 |
\*---------------------------------------------------------------------------*/
FoamFile
{
    version     2.0;
    format      ascii;
    arch        "LSB;label=32;scalar=64";
    class       volScalarField;
    location    "0.006";
    object      internalE;
}
// * * * * * * * * * * * * * * * * * * * * * * * * * * * * * * * * * * * * * //

dimensions      [1 -1 -2 0 0 0 0];

internalField   nonuniform List<scalar> 
546
(
0.1859410558
0.4045053402
0.3711798301
0.4549451473
0.3107463076
0.6675595224
0.4132352459
0.2406552816
0.2460489731
0.3908530589
0.4834387628
0.3436390759
0.140944022
0.0864556186
0.1055393419
0.7373086164
0.6055611597
0.6271935384
0.490928924
0.4347892064
0.2574248424
0.212280735
0.1952568066
0.7846084405
0.3506950354
0.311991186
0.3638041599
0.302838882
0.2693142562
0.4149535706
0.4181389118
0.6012878655
0.5906525996
0.2236945138
0.5598740601
0.6182418008
0.3316269169
0.9557585226
0.502192758
0.3218963043
0.444843955
0.3603802816
0.5814639592
0.1143552979
0.6185151582
0.1924055492
0.6278301611
0.3766076396
0.5756047445
0.4356579426
0.5103888572
0.3239764606
0.320046595
0.5487020709
0.27863925
0.4962758021
0.4829345419
0.7959761342
0.2982837924
0.07249603644
0.2096660373
0.4463254674
0.3248778666
0.6363871267
0.239674474
0.3900380418
0.4299272591
0.2831524027
0.1120256617
0.3340794936
0.568618112
0.3381717797
0.5944382888
0.3444860928
0.4488670492
0.3727702376
0.5885613978
0.4920362894
0.5475759667
0.6589183568
0.1100135925
0.357368414
0.4739935045
0.463184656
0.3538549043
0.2257277363
0.2319426513
0.3640052257
0.1701443679
0.2993216349
0.3934400395
0.2594966327
0.5210891316
0.2334464893
0.4935338248
0.2682947806
0.5991236301
0.5054460343
0.4257415435
0.2286030251
0.480372567
0.6305889332
0.4737739206
0.531648148
0.3923256985
0.3769547513
0.3640487319
0.3224206066
0.4092279637
0.4139269535
0.3410858127
0.3772174359
0.09069501712
0.2962850511
0.6946358658
0.4439954368
0.3180575084
0.4454631142
0.5431074715
0.5201087233
0.199136006
0.4502412929
0.5115501046
0.3099052366
0.2599294076
0.248098097
0.6090870404
0.7091137514
0.6601165161
0.3101014927
0.5070934496
0.2279587914
0.4213657248
0.3658113724
0.2428720465
0.3281558742
0.4110720542
0.2635045692
0.3100264213
0.3040556892
0.2238178342
0.512941353
0.3200538427
0.2518588969
0.2254001936
0.3716561224
0.3002054758
0.2982362734
0.1929238641
0.389732717
0.477983379
0.4489263973
0.4322804286
0.3351270998
0.3795019238
0.3605226294
0.2944162356
0.5963548617
0.4498684199
0.2698956185
0.2703643582
0.2318049123
0.3392690218
0.6365615291
0.4373608648
0.5094018565
0.457061639
0.4383265478
0.3275880365
0.649488905
0.4289598256
0.2376374166
0.893698006
0.3903876589
0.5053521489
0.7002974887
0.4192085724
0.3675221952
0.5637430786
0.2861911493
0.6441968758
0.4101621003
0.3995852732
0.176657017
0.3730110031
0.5493580533
0.7846316551
0.6119373179
0.3782408934
0.2628483606
0.4098217284
0.2664747853
0.475329047
0.3990203246
0.3145693627
0.3924320693
0.5463942253
0.4426837976
0.4103026327
0.182676687
0.2982925906
0.4694971535
0.444117256
0.1504776521
0.1514819598
0.4358329785
0.5327496261
0.309541935
0.5910336443
0.6683271536
0.2359324029
0.3357803638
0.1821887648
0.5528959632
0.03865654134
0.4186690925
0.03742419073
0.8284395217
0.5340800456
0.1518292091
0.1771803165
0.549257126
0.2159279664
0.1162406269
0.7011513417
0.5971687467
0.3261138289
0.2369494123
0.5730188466
0.6543748074
0.5242792853
0.3422360669
0.2515385551
0.1280683611
0.4952422519
0.6002597994
0.2702687323
0.413682591
0.1818215103
0.4252158939
0.4837841381
0.6447579735
0.6931376436
0.2265271266
0.6773936665
0.4617523549
0.4043376533
0.2311826331
0.3839949022
0.3044343303
0.449217491
0.2440326527
0.2794896874
0.241499784
0.8250416802
0.4541267714
0.3859518987
0.6763215096
0.4288851634
0.1863252878
0.2295518742
0.275410905
0.3421819048
0.7411320636
0.2784079442
0.1906960242
0.3556701667
0.4086945072
0.367043114
0.3019267518
0.510701875
0.6690247343
0.3748865987
0.2498609163
0.124050418
0.3043374117
0.4423268586
0.2593763375
0.5931277993
0.2960133854
0.1237673045
0.4259158236
0.4046334012
0.4081766618
0.3384551038
0.2959064865
0.4137215159
0.7182712458
0.5056662296
0.3125499094
0.339568165
0.3855223561
0.5990385856
0.355468805
0.6368742463
0.2720299104
0.4575626484
0.7424791941
0.2422787459
0.2734190044
0.3432629767
0.2020943669
0.2915954648
0.2897817121
0.5125559833
0.4302322558
0.4497835574
0.3406258367
0.1395719673
0.4090124111
0.2162571539
0.2529377759
0.5600746402
0.4661985025
0.8744161205
0.223170306
0.4625441071
0.3641861895
0.6066908421
0.2759577587
0.2972514648
0.3703897836
0.3769403518
0.2850502641
0.5803127028
0.6080183797
0.4008597683
0.3702791944
0.379645202
0.1664493105
0.4053556452
0.158573535
0.4406342856
0.3168169895
0.2832127779
0.9484410066
0.4367642217
0.5696611386
0.8590406212
0.2988094937
0.3992376092
0.4920638765
0.02388361042
0.6325105114
0.6227408635
0.6530154055
0.4349265251
0.3645772866
0.3016819139
0.09772027918
0.3785013663
0.3473345969
0.2335604293
0.4129901341
0.07182549353
0.3394945453
0.3602365295
0.2243906688
0.1515578377
0.243771102
0.4407719527
0.616548656
0.4444688238
0.7615585364
0.2399497729
0.3874940108
0.3678937199
0.8263601537
0.2626297441
0.5293420439
0.475123455
0.7618391229
0.295846245
0.8528019575
0.3353258701
0.1078148591
0.4154543227
0.137147243
0.3265421476
0.2024127652
0.2592966182
0.4903225528
0.3327635732
0.2446654959
0.4903302213
1.241716229
0.5490496661
0.3957473502
0.02491452967
0.3670273885
0.3716443236
0.08314632928
0.2605086177
0.1708283603
0.5361741794
0.1958986192
0.07667750586
0.2767745254
0.2594070188
0.6021812471
0.2271988571
0.2896782245
0.3597400708
0.3970655651
0.132982724
0.6080990647
0.741388254
0.4135968264
0.3109243059
0.4698943465
0.2968208612
0.3609936342
0.486953977
0.5036926675
0.4518483383
0.4950890915
0.5095442857
0.6498455685
0.1758321715
0.4616469232
0.3744137185
0.2828186923
0.3730875654
0.4764294067
0.3846210727
0.276204793
0.6970594349
0.3333247168
0.3201815459
0.4619251959
0.4126098337
0.1352088413
0.2534951507
0.2723506324
0.2490369805
0.3455134559
0.2572267551
0.587952272
0.3382631224
0.5149292707
0.4777179675
0.07188589704
0.3281295081
0.2791259213
0.6776691771
0.1032131848
0.3961272306
0.2585840399
0.639587738
0.01996148248
0.3866372047
0.6136955053
0.3630029361
0.08774888741
0.1846518253
0.5860383483
0.5974677062
0.999268061
0.5665178089
0.4563082933
0.5495520594
0.3943046808
0.5485700149
0.5625098466
0.4093763439
0.3218143069
0.5598252295
0.1950938156
0.2241022409
0.3276139483
0.5101135378
0.1525701934
0.4791640594
0.7023938621
0.6074535517
0.5959771983
0.5139449506
0.2183908306
1.082274653
0.4900430475
0.4907087597
0.38298624
0.7611321422
0.7037577373
0.1436091571
0.5437025247
0.2420303047
0.2524443967
0.6305867185
0.5011144658
0.4778733511
0.5414122454
0.3366249724
0.5134670615
0.3977319725
0.2451027359
0.3705804258
0.7873474192
0.8629276718
0.3168915227
0.4867271264
0.3509449532
0.3564406004
0.589710452
0.1997932585
0.6510431112
0.3447767357
0.3919576363
0.6969575675
0.7620335239
0.2441523154
0.3235341042
0.2283280827
0.1650606131
0.9844076427
0.2885599715
0.2614381399
0.3519727158
0.3066586581
0.5984649412
0.8686304991
0.4696180538
0.3923201696
0.3861892612
0.7801114161
0.4686342644
0.3136369104
0.2355087511
0.3580804447
0.3242305787
0.3471426869
0.3727728003
0.1627752452
0.5013058996
0.1020049517
0.2459552385
0.201613419
0.5118702765
0.2187327112
0.4632435694
0.2148413781
0.2797722367
0.5599765356
0.6820619724
0.7346994241
0.2192363643
)
;

boundaryField
{
    flow
    {
        type            zeroGradient;
    }
    obstacle
    {
        type            calculated;
        value           nonuniform List<scalar> 0();
    }
    frontAndBack
    {
        type            empty;
    }
    procBoundary2to0
    {
        type            processor;
        value           nonuniform List<scalar> 
31
(
0.1517940858
0.3922406915
0.4279738083
0.2615943476
0.6937546673
0.4157923054
0.398841454
0.3146706078
0.3968887412
0.6105423686
0.3062744038
0.2874858072
0.6037382559
0.1461913957
0.2859196362
0.117442847
0.3275399743
0.3298659027
0.4001733802
0.1839408816
1.214790118
0.4463950393
0.4574520819
0.1317547413
0.4881772864
0.187715562
0.3551227285
0.8367126039
0.3403111985
0.6842208562
0.6842208562
)
;
    }
    procBoundary2to3
    {
        type            processor;
        value           nonuniform List<scalar> 
19
(
0.157921896
0.2306301026
0.3391280119
0.6353439496
0.4921533694
0.482772704
0.5398608371
0.6565961742
0.3424644136
0.5678401037
0.3771019415
0.1391374076
0.3248980326
0.1085639201
0.5847835257
0.2875901851
0.8220444451
0.4776007031
0.4635023072
)
;
    }
}


// ************************************************************************* //
