/*--------------------------------*- C++ -*----------------------------------*\
| =========                 |                                                 |
| \\      /  F ield         | OpenFOAM: The Open Source CFD Toolbox           |
|  \\    /   O peration     | Version:  2406                                  |
|   \\  /    A nd           | Website:  www.openfoam.com                      |
|    \\/     M anipulation  |                                                 |
\*---------------------------------------------------------------------------*/
FoamFile
{
    version     2.0;
    format      ascii;
    arch        "LSB;label=32;scalar=64";
    class       volScalarField;
    location    "0.006";
    object      internalT;
}
// * * * * * * * * * * * * * * * * * * * * * * * * * * * * * * * * * * * * * //

dimensions      [1 2 -2 0 0 0 0];

internalField   nonuniform List<scalar> 
546
(
301.9322354
304.1045121
304.1422058
302.2245837
301.199775
299.843879
298.7854943
298.1767518
298.6786158
298.4246391
298.2839282
299.4262186
298.3701932
297.3986431
298.4296882
297.5945669
295.2022745
295.2746223
296.5423484
296.4128716
303.3230928
302.8851598
302.2309648
302.6077208
301.7453809
300.2761683
300.0831639
299.9184514
300.0418256
299.5137609
298.4714007
295.1799233
297.8655988
298.599583
299.8940828
300.3706349
302.6638696
303.6790279
300.9914122
301.3644936
297.7756493
299.6136829
299.37233
296.919095
301.5427009
303.8571558
305.0284771
303.8264888
303.2355474
301.8216125
300.8172059
301.3834143
300.7045582
298.2745649
297.688148
299.8985162
297.891678
300.8581555
304.5826862
303.5135956
298.6000489
296.9645685
298.4500203
299.3966385
298.598326
297.0015605
298.7949954
299.3930626
299.2316587
299.8758401
301.7827844
302.1224337
302.576322
304.7162518
302.8024168
301.6301361
301.6495019
298.8730425
299.0914193
298.4418932
301.3682499
301.6013801
301.7440931
302.2368672
301.7721855
303.4833053
300.7515667
299.403239
301.3835146
301.57793
300.3100209
300.8341405
299.3409276
300.102094
299.2462592
300.0549194
298.7641799
301.2555765
298.3927459
299.6375221
300.4892767
301.5546857
301.0749748
302.8198396
302.1901722
302.8209381
303.3889664
302.761412
304.0791117
303.9062002
301.2326954
301.0311975
300.3834566
301.3826216
298.1984159
297.4071822
297.8247181
298.7761469
298.4632963
299.4513311
297.9824871
298.3601356
297.2826083
298.7372659
299.5134773
298.221399
300.3639736
301.1206479
299.0859032
297.8348624
301.1879898
300.4553156
300.0037432
300.2969673
300.7799963
301.5210664
298.9850268
299.4285383
301.9714225
303.8609733
302.2633435
303.3814828
301.9930056
302.376376
303.166579
302.4744373
300.8264869
298.1442519
297.0859756
297.8834002
298.6536122
298.4493987
300.3101326
300.0182828
298.6682728
299.2784271
299.9260863
299.4933321
298.2321757
298.002655
301.4172511
302.9677379
302.7944851
301.7151063
301.9388354
301.7630684
301.6133184
303.1924135
301.672049
303.7645375
301.5374873
303.5032799
302.8440281
302.8588162
302.0137981
300.3181073
301.0084963
298.4745427
300.5427577
299.5539598
300.7345185
300.5062977
299.3863517
298.3412866
297.1100003
295.6292175
297.0833496
299.2230254
300.9787366
301.0300134
302.5513638
300.8347148
301.2434137
298.7782503
298.867802
298.2031354
297.8660539
301.0046643
298.3034253
298.0780458
296.9166722
299.1496029
300.9604046
302.5635333
302.2536485
303.1754877
301.7253088
299.6297223
298.9421777
298.3207194
296.5347813
296.7896599
294.2218518
297.906282
297.1354472
297.2005437
299.0242731
298.2210653
300.260345
300.277069
302.0752678
301.3296168
299.8969753
300.0866774
297.1985059
298.5372229
296.7524477
299.271664
297.7941537
296.9047617
295.8942084
296.9136028
298.2856599
299.0864772
299.6996817
300.2006728
299.2539872
299.5291739
299.6697021
299.9747948
298.1367777
300.193248
299.8702675
302.3760687
303.9939525
304.9224023
302.4135373
299.107888
298.8641236
297.6983549
300.4683005
298.9326787
299.0286522
301.311342
300.461233
300.6630509
301.8031527
302.7160902
301.8350012
301.2237497
301.6413694
300.58624
301.3533931
299.4731722
299.7338176
299.233051
301.2564579
304.2656131
304.0051932
303.92751
300.6148505
301.2177145
300.3649678
297.9129541
298.5033873
298.4765194
295.5443051
297.7038173
298.0455226
299.2331874
301.0879084
301.6673792
301.9689336
303.0149472
301.9819746
302.9614486
304.8120786
301.7437387
299.9195431
300.6496778
304.9735939
303.0760154
304.2310031
304.3294547
303.606312
301.4989708
304.4066902
304.4714095
303.277622
302.0058642
297.100776
299.1564833
299.0747925
299.3973655
301.2938298
300.4944234
301.8010365
300.4765674
301.3900582
300.4797487
301.8761738
300.0162116
301.7635796
301.1813578
298.7477676
300.8430774
300.7088435
299.1691358
295.643918
298.476936
300.4297407
301.8809082
303.4775482
300.9572328
301.644065
300.2633938
299.0082818
298.919588
299.7583599
297.3799211
297.4547263
296.9208148
297.2713684
297.8957087
298.6050354
298.0051412
299.1465151
298.100505
296.7711604
296.6243798
299.9320571
298.5894768
299.5435693
301.1523197
300.6331612
299.2606273
299.2996975
299.9632015
298.9519102
296.4127543
295.9244398
296.0121753
296.1075522
294.1106996
292.8214946
291.6110046
293.9560702
294.3645294
293.6213111
297.4616399
304.1050522
304.3038875
303.9187475
303.4156401
302.8230834
301.358774
296.5168246
297.5858993
297.1527267
296.853804
297.1175257
298.3728537
298.2884201
298.5077947
298.8683475
300.0388796
298.0235437
301.3966757
301.181941
301.1774313
302.2463327
302.9629681
302.563727
301.9993869
303.7831282
306.2937723
307.8986411
304.5121756
300.6203247
300.6751183
299.0818731
298.9900002
298.3641573
301.0394782
299.3218362
299.7088981
295.3620258
296.7530325
297.9913051
298.7352084
296.6485214
299.1937529
300.119945
299.2054515
298.1911353
297.2563169
300.0180162
299.542619
299.2245717
299.2556371
299.9566799
300.8157195
300.535537
302.6938722
301.0724983
301.6830255
298.1582265
299.4733346
299.7443769
299.4090194
297.2208967
296.5176495
297.8972494
295.2873826
295.7737643
296.5631906
304.081441
301.8561437
299.466319
299.0340845
300.3201179
301.8887565
298.5889802
300.0141887
300.5799114
300.1676365
297.1822484
299.6307107
303.2166179
302.0201821
304.0269853
299.9386953
303.3604546
302.6088878
299.9783164
299.5689445
300.9103502
298.6054707
298.754285
297.3471093
296.7034655
298.2935167
299.9571008
299.6823323
301.1159489
302.961007
298.7173594
299.1799534
299.3809796
301.756925
300.6349105
300.9558166
298.9671683
299.8412873
299.7093515
296.9622589
301.5857557
299.258149
298.5889451
299.484693
299.3727072
298.8590017
300.0334356
298.2323657
298.5480659
298.6876159
299.715886
301.6006851
299.731387
300.0334453
299.7021657
300.7398975
301.6836764
301.8188547
301.868718
305.410398
300.717149
300.1213923
299.2560364
297.3032375
301.7825208
301.3931736
303.9800007
305.1117981
306.1443888
302.937467
299.4886758
299.9485938
301.2438106
302.2375012
302.4729966
301.5589853
301.7814144
300.7734994
302.3621723
304.9433665
299.5847292
300.4951785
299.1653079
298.629088
296.8053585
295.8265976
295.9409505
297.6374864
297.1909593
297.0825013
298.6989371
299.1151862
298.6716358
299.6322111
300.357286
300.5054392
300.9526816
301.619688
301.4050685
300.3881843
299.8034893
299.1371428
297.1441765
297.0584539
297.0181837
297.4191011
298.3213564
300.5631354
299.7370537
298.5197491
296.7792188
296.8123903
298.1983326
297.9459273
296.640409
297.0445516
296.115734
293.4118283
296.8786129
296.8782455
)
;

boundaryField
{
    flow
    {
        type            calculated;
        value           nonuniform List<scalar> 
48
(
301.9322354
303.3230928
297.7756493
298.6000489
301.3682499
300.4892767
297.9824871
302.2633435
301.4172511
300.7345185
296.9166722
302.0752678
298.1367777
301.6413694
301.0879084
297.100776
300.4297407
299.9320571
299.9320571
298.5894768
299.5435693
301.1523197
300.6331612
299.2606273
299.2996975
299.9632015
298.9519102
296.4127543
295.9244398
296.0121753
296.1075522
294.1106996
292.8214946
291.6110046
293.9560702
294.3645294
293.6213111
297.4616399
296.7792188
296.8123903
298.1983326
297.9459273
296.640409
297.0445516
296.115734
293.4118283
296.8786129
296.8782455
)
;
    }
    obstacle
    {
        type            calculated;
        value           nonuniform List<scalar> 0();
    }
    frontAndBack
    {
        type            empty;
    }
    procBoundary2to0
    {
        type            processor;
        value           nonuniform List<scalar> 
31
(
300.745402
300.840489
300.7145391
301.3563282
301.5484826
302.7125366
302.7457384
303.3319518
301.7209229
301.0936515
302.1763356
300.693846
299.2382382
301.1985777
299.9943115
298.268306
296.8599448
296.5402187
297.3528717
297.5433339
302.2771968
301.7884086
305.6653496
305.1736283
304.9597424
304.557171
298.5836219
297.6706766
298.6613026
301.4349614
301.4349614
)
;
    }
    procBoundary2to3
    {
        type            processor;
        value           nonuniform List<scalar> 
19
(
303.1114259
300.389824
305.0607503
303.0641028
299.1259391
299.0261242
295.7148082
301.9373238
299.4969518
302.1140829
298.1690871
299.2471313
303.7115472
302.6291143
304.5389463
295.4235034
299.670065
300.5026882
298.5054863
)
;
    }
}


// ************************************************************************* //
