/*--------------------------------*- C++ -*----------------------------------*\
| =========                 |                                                 |
| \\      /  F ield         | OpenFOAM: The Open Source CFD Toolbox           |
|  \\    /   O peration     | Version:  2406                                  |
|   \\  /    A nd           | Website:  www.openfoam.com                      |
|    \\/     M anipulation  |                                                 |
\*---------------------------------------------------------------------------*/
FoamFile
{
    version     2.0;
    format      ascii;
    arch        "LSB;label=32;scalar=64";
    class       volScalarField;
    location    "0.006";
    object      linearKE;
}
// * * * * * * * * * * * * * * * * * * * * * * * * * * * * * * * * * * * * * //

dimensions      [1 -1 -2 0 0 0 0];

internalField   nonuniform List<scalar> 
546
(
4.991579171
9.240124966
10.53459912
5.22040904
8.774866298
11.08871283
11.2263362
6.281636251
5.885545
8.47713041
9.232063474
10.17774817
1.729846449
3.732170179
3.054914985
13.74571168
9.687587505
7.924104601
9.707966283
8.649317515
7.875006424
7.390047012
5.86446254
13.84663877
6.756057704
5.565201526
9.054744654
6.074437507
10.82123878
6.448961475
7.366186198
6.54980676
6.710595115
5.067995097
8.508189756
17.45033589
5.383022653
13.02204615
7.859062521
6.060829201
7.15460329
7.538638669
10.3797888
2.305053867
10.18240002
4.261890153
9.108798248
8.594466843
8.162902205
9.507826542
5.027226068
6.561368755
8.12183854
10.01443538
3.933884746
7.633937195
8.53020873
9.212712722
4.951558016
2.957101827
4.457256864
6.629515406
5.902736278
5.880667703
6.161340755
9.023987484
6.310284671
5.958746559
5.73927447
5.490470819
10.46881087
5.168488966
9.856135027
7.053015461
12.84964929
8.879457115
7.963922363
11.41092312
5.396101535
8.607700681
3.548971616
12.71279527
8.565129833
8.976126723
9.072188133
4.268847719
7.262788809
8.369516491
4.101878272
6.867791634
6.328895034
6.852554365
7.992926303
8.665171787
9.289689488
6.889771947
8.599438988
8.833211735
8.699641584
6.635470768
8.192950039
7.35323617
9.590278421
5.167182479
9.799021227
9.509722231
3.684386297
4.421388497
8.381764481
9.426465583
5.190807604
8.452375902
2.784121574
4.970175766
8.670549092
11.6857343
8.652052897
7.790170766
8.336975639
10.91250157
2.589962636
11.24844192
9.082299786
7.066650276
6.771121033
7.483218559
11.26635524
11.65664265
14.53201923
8.71540612
9.995931144
5.646840474
8.97149808
8.173285591
6.67267221
7.270004092
6.452557822
4.8453541
7.32142407
9.224945845
4.532373696
10.47788174
9.565226775
5.394808917
8.999346598
5.841115669
9.14340616
5.307835442
4.483059592
7.203707506
5.243546794
9.720193629
10.49051801
6.197307826
7.996549613
7.160700588
4.934883195
10.73049827
10.85288082
6.722695075
4.343925157
6.904295088
6.693707998
12.39006984
10.25573453
11.12715989
8.881252813
11.57683272
7.35261269
10.06245184
8.921543651
6.27771932
13.04065449
6.290715095
7.576394714
7.126259758
10.01140537
5.889954957
9.519781774
9.607738714
8.764453409
6.169594298
11.03022989
5.344082278
8.862004388
7.608041176
13.3600008
9.222514947
10.29346048
7.180736694
6.408915598
5.834453485
6.130826401
5.612390492
5.261943026
5.776236447
9.162402026
7.194414098
7.691699507
5.210300323
4.765216048
7.460009556
7.303262209
4.179667871
4.737720577
7.36937864
9.997853023
5.143568792
5.205143194
13.75206908
6.048729561
7.381233836
6.728013713
9.974956589
3.228164635
8.551405046
2.934203447
9.106577181
7.357099048
5.157741086
4.481455888
10.17771308
5.68673679
7.223153548
7.484833406
6.919804746
5.481197206
4.605731048
9.046946276
9.440843349
8.618317687
7.467690412
7.016321801
6.855176335
12.5058246
8.461779381
7.709009977
13.34424424
8.93758227
12.09178127
4.488890373
8.380088873
9.153046287
3.689605762
10.34160233
9.87868191
8.323940944
9.304729145
8.328768869
7.616286282
9.955932346
8.215568456
4.276181636
8.920564728
16.2362793
6.832305353
7.90393441
11.75383661
7.890830236
6.490641964
4.442890821
8.508959698
9.460372701
10.92853081
7.692264345
4.602862493
6.213191644
10.67450154
5.655349981
9.14291178
9.200743897
9.133037588
9.294084468
4.706135059
6.37524286
4.237169692
8.813055272
9.008000222
8.824990529
1.919838044
6.31069439
10.6998139
8.238776165
7.583928219
7.053711644
7.055968441
6.93960313
10.04811694
7.921724064
7.032093413
12.43412459
9.032673733
7.89025747
5.619218553
13.37123727
7.26861669
10.82213182
14.67622467
5.854266746
4.496920376
5.067477849
7.675671263
7.601736213
7.933719482
8.943850802
9.870063424
11.18776703
9.13568383
5.432039834
10.04266666
5.401875986
4.34311848
9.755791786
4.483549973
13.72841284
8.235751326
9.832138589
5.328093593
14.15832584
9.008358525
5.29663036
7.845869102
9.871263035
8.805857448
8.733742278
6.107792965
6.162159628
6.845814085
7.583628796
5.653569418
6.810825071
4.998734579
12.36622396
6.627399365
6.546424217
11.82255168
6.062694751
10.84405293
10.12138012
6.269416688
5.413823251
7.975975256
1.62273538
7.146967309
7.086200282
10.58135324
8.193986302
8.171416596
7.115476343
5.700696342
8.755186842
7.914881424
5.268228875
6.993737134
3.470542419
6.819254321
8.295354221
6.620906402
3.059503542
7.130784591
11.46948632
7.047981146
9.655685767
10.1898464
8.906207168
5.949335389
7.299959151
13.21009569
4.437781469
7.588780641
6.95876958
11.38764474
6.096798568
12.35878378
3.960967583
1.674420461
6.786197433
5.398937118
7.434833437
9.88988076
3.708907337
7.808510037
7.328524155
6.470072235
8.863629629
11.16551603
10.89034569
7.86463414
1.535895393
7.055112441
8.361185435
4.816193003
7.495605373
7.180309435
6.253993646
4.982380675
1.294082891
4.378445775
10.78945267
11.71114935
4.491568985
4.881455387
8.81335993
8.807062492
4.918348105
10.83542382
6.914490613
5.963808811
7.577435989
9.301127664
5.29895121
8.843154743
8.023825411
5.365863422
8.450149748
8.446812199
10.28367646
9.742095449
6.557134899
7.027778983
8.712934722
4.154497224
8.889217814
10.567983
10.97182651
7.340755584
7.962265329
5.117163694
7.510923824
7.374506687
5.947015589
4.340601089
8.183163704
6.314693333
7.405002828
3.990521898
6.885844693
8.153049034
9.201693677
7.741962402
6.613089102
7.685956049
5.735084966
6.363093497
16.72108489
1.794770017
5.59499457
4.683902203
6.816002669
1.862782447
8.10715194
13.50551124
7.278985961
5.295384634
6.787855967
4.434124836
9.44469018
13.21056023
8.425943859
6.730478986
10.70069543
7.324972974
8.841226588
8.618125421
5.362165163
10.28108187
8.591894
6.602845943
4.510947434
10.66003013
10.150178
5.107705817
6.46323234
8.58593294
7.127003674
13.74104912
10.28909808
3.793623329
14.59337093
9.740629607
11.94864647
12.36901046
13.79747506
12.52869608
4.510007985
9.464803812
2.910091627
4.453674245
9.813681683
10.99700603
9.23995457
8.096660245
7.678023427
8.30419423
3.530571669
5.203168568
5.249529801
14.39120508
10.8080322
7.689833659
6.011102962
4.741845425
7.779959597
6.62221522
5.994159069
9.868925251
5.870048865
8.279128363
8.178113263
7.642966379
8.374692007
7.59377493
6.062275187
5.851170031
15.19358055
7.120664506
6.976531319
5.505695355
7.142133635
7.989314938
13.13674948
6.032413812
7.366625252
9.576770968
11.27898811
7.855975834
4.856172729
6.263027254
8.069033361
5.10873801
8.630364196
9.897417395
6.859925118
12.27941943
2.154856431
5.164321101
6.678536422
9.00995531
7.072419651
9.995297714
6.761389045
7.605817218
9.301036188
9.150369169
7.323527017
5.513494028
)
;

boundaryField
{
    flow
    {
        type            zeroGradient;
    }
    obstacle
    {
        type            calculated;
        value           nonuniform List<scalar> 0();
    }
    frontAndBack
    {
        type            empty;
    }
    procBoundary2to0
    {
        type            processor;
        value           nonuniform List<scalar> 
31
(
5.771504101
6.966655879
7.629057079
4.831503374
11.24618164
9.103350677
10.23818967
9.139283998
9.096249148
8.482049917
6.346910772
7.870058164
7.651173572
5.557246762
8.053146231
5.283494191
7.55987322
7.575634176
6.317505346
5.236453721
11.08210974
7.837574947
6.513601312
4.035996641
7.536344716
6.489615682
12.11259554
13.7478812
6.950234668
8.359175964
8.359175964
)
;
    }
    procBoundary2to3
    {
        type            processor;
        value           nonuniform List<scalar> 
19
(
5.187819577
7.599127469
6.475569198
9.056331078
7.147380133
8.699591037
8.093731028
5.321927467
7.608021671
8.943603081
4.994397315
2.664157796
8.730696913
7.351564571
10.89399837
6.660772037
7.853278412
7.188652958
11.82989864
)
;
    }
}


// ************************************************************************* //
