/*--------------------------------*- C++ -*----------------------------------*\
| =========                 |                                                 |
| \\      /  F ield         | OpenFOAM: The Open Source CFD Toolbox           |
|  \\    /   O peration     | Version:  2406                                  |
|   \\  /    A nd           | Website:  www.openfoam.com                      |
|    \\/     M anipulation  |                                                 |
\*---------------------------------------------------------------------------*/
FoamFile
{
    version     2.0;
    format      ascii;
    arch        "LSB;label=32;scalar=64";
    class       volScalarField;
    location    "0.006";
    object      linearKEMean;
}
// * * * * * * * * * * * * * * * * * * * * * * * * * * * * * * * * * * * * * //

dimensions      [1 -1 -2 0 0 0 0];

internalField   nonuniform List<scalar> 
546
(
5.863513901
7.871717426
7.888064089
7.813390929
7.844553402
7.834512991
7.844036815
7.804446375
7.776773876
7.808576209
7.846293134
7.903019729
7.883019321
7.825229357
7.837825401
7.812053909
7.842634109
7.801840667
7.757546204
7.725690196
5.931293506
7.932838207
7.902574468
7.92297617
7.895324667
7.891728546
7.889395184
7.885641495
7.854098432
7.844015762
7.857477507
7.840077345
7.886219909
7.858030915
7.850705305
7.833919478
7.868504032
7.91689213
7.945139577
7.955371949
5.864762403
7.878945062
7.837105038
7.799083495
7.84006875
7.852536561
7.873201323
7.888735642
7.878482145
7.90292269
7.847594474
7.897760756
7.810607004
7.839556729
7.850068686
7.84360333
7.758992545
7.802058416
7.793724181
7.791796339
5.91415387
7.96733642
7.92113186
7.861181832
7.85417131
7.831384768
7.877912992
7.855176487
7.887756502
7.837916069
7.900846011
7.894148893
7.957575087
7.90511371
7.951378059
7.921320709
7.902263911
7.87449496
7.974746432
7.963066868
5.925868351
7.972882525
7.896263436
7.909455526
7.925555216
7.889876307
7.825239631
7.85046525
7.81497502
7.764372382
7.787434612
7.772424545
7.795275118
7.824537278
7.837685995
7.869734543
7.940980552
7.937281635
7.837445661
7.826506747
5.890969574
7.875648035
7.819577119
7.80565379
7.822070104
7.839094714
7.846242476
7.828132487
7.87860678
7.89954666
7.943776492
7.896687622
7.868800751
7.875223962
7.905615544
7.945569665
7.913873884
7.865985635
7.913119953
7.948968949
5.862078121
7.86991735
7.832062728
7.883449045
7.841867588
7.869491255
7.872152929
7.922433505
7.862043281
7.898163176
7.891139774
7.905478855
7.927574791
7.901921608
7.857026717
7.819699849
7.843429603
7.809786504
7.809246335
7.829086623
5.895258465
7.941877047
7.925825751
7.910458495
7.915709796
7.911793363
7.918886671
7.904308538
7.94703741
7.879874584
7.869839644
7.824569606
7.820971742
7.852838341
7.855020408
7.896347326
7.900172461
7.919181453
7.939921959
7.949593211
5.896467268
7.917873793
7.805226379
7.788974226
7.791374116
7.741777613
7.757649907
7.812338685
7.791728877
7.89729805
7.886843698
7.912761742
7.872927135
7.867369072
7.852495105
7.772283471
7.773168074
7.764914644
7.738145839
7.716003675
5.865378577
7.842625651
7.788987281
7.865688036
7.818649288
7.861352048
7.867324064
7.858541484
7.843825877
7.778929649
7.772295943
7.798055525
7.843781909
7.84681359
7.841621234
7.855255791
7.822571811
7.763310262
7.73993942
7.753190523
5.92150256
7.962820537
7.90507966
7.882082044
7.889466013
7.827766596
7.839074888
7.784010845
7.82038276
7.83621322
7.807489603
7.822022111
7.778373553
7.800747564
7.750918673
7.782882747
7.850932014
7.946463744
8.020544612
8.038903045
5.873558829
7.923795679
7.85237524
7.870590631
7.849412607
7.809802062
7.842985532
7.810974294
7.828022903
7.808019988
7.799888356
7.848225676
7.870311168
7.906904715
7.95910444
7.936203868
7.931943048
7.85131499
7.853750044
7.812373006
5.918349499
7.970529352
7.90731165
7.870586046
7.890499582
7.865280752
7.85257995
7.884489979
7.878387396
7.876523632
7.843255391
7.837295212
7.852702786
7.826812853
7.799284546
7.800766465
7.722958129
7.751637013
7.801343613
7.77873103
5.843693582
7.833725533
7.826049504
7.815825306
7.841318466
7.828243611
7.830927143
7.811329169
7.845553533
7.868945649
7.815685696
7.779529499
7.723489205
7.732596441
7.715307974
7.789711751
7.812716511
7.796279121
7.811671458
7.802838156
5.891851633
7.871166021
7.787745136
7.733479697
7.773833193
7.775743474
7.80222151
7.832111657
7.803047678
7.74576008
7.718556116
7.744315077
7.821107736
7.772484709
7.842666196
7.803474567
7.785297617
7.782890002
7.822418209
7.837908325
5.86013233
7.907847959
7.873294025
7.907647279
7.937779711
7.898292251
7.804757277
7.779249995
7.831346795
7.85088035
7.873256797
7.850676257
7.832536265
7.852150386
7.896434974
7.866591884
7.879600124
7.782023756
7.765615975
7.796458754
5.923467592
8.027557395
7.997069349
7.960344404
7.891577818
7.93717191
7.991486092
8.041101096
7.94672472
7.997880032
7.944825077
7.95934125
7.974120235
7.916492681
7.88168501
7.849821995
7.866848132
7.856752118
7.907504045
7.894783663
5.780895423
7.698762845
7.657226302
7.709538991
7.740499608
7.755117652
7.75801131
7.766015912
7.76473339
7.789508174
7.85209628
7.821088423
7.813598711
7.853792499
7.838547653
7.837610107
7.815107274
7.802247911
7.83324336
7.782026641
7.884937236
7.875977879
7.896062771
7.889281834
7.883576071
7.961190865
7.788211706
7.839122531
7.900284626
7.821632023
7.829086698
7.886357142
7.944105155
7.979102372
7.930714335
7.945050789
7.932338523
7.922100715
7.92629132
7.944650025
7.956789101
7.943672392
7.9843438
7.930270647
7.981501041
8.01894065
7.814733829
7.839243604
7.886219267
7.870762067
7.899914259
7.87132856
7.867172127
7.913540488
7.927313676
7.989079845
7.992977851
7.992817833
7.952107479
7.967467345
7.937375362
7.901747212
7.897060657
7.871620643
7.80374565
7.807046301
7.810571078
7.820402965
7.81211476
7.832891569
7.880755354
7.875778441
7.915795587
7.995818259
7.938768264
7.94952569
7.929919845
7.898950283
7.924184445
7.89430914
7.976416169
7.943998991
7.872277205
7.867785336
7.914540321
7.909297634
7.836863966
7.807045455
7.801765018
7.829082097
7.780766411
7.812852428
7.830703441
7.840088752
7.785306642
7.781207388
7.983763274
7.97598435
7.9538298
7.847186463
7.815199112
7.814350859
7.818968002
7.800188001
7.809509724
7.74753118
7.657219511
7.649318089
7.706633769
7.681469617
7.743210091
7.759778437
7.72136924
7.6812253
7.721641297
7.768841406
7.769538978
7.863620605
7.86057269
7.884769207
7.815245003
7.819348842
7.891688666
7.888036153
7.918942299
7.814168683
7.982366667
7.932589611
7.883896589
7.910919775
7.942236908
7.959267271
7.873581656
7.866595387
7.885904746
7.908493773
7.832781456
7.8377205
7.840804175
7.814616091
7.720344299
7.721831168
7.758791617
7.828285035
7.866272941
7.905799247
7.757256291
7.760815439
7.802634649
7.819623619
7.848615876
7.872896389
7.84385518
7.834136011
7.80824041
7.798096715
7.842591421
7.914973159
7.888967151
7.904350448
7.916382724
7.919478661
7.88669143
7.878091885
7.83340004
7.75769924
7.806809692
7.785052631
7.798749029
7.770717738
7.812143108
7.733575527
7.722788837
7.770231695
7.807253513
7.8674009
7.790707869
7.807214165
7.816492911
7.813798023
7.854276285
7.840450574
7.904612188
7.841804797
7.860142859
7.854768924
7.815779302
7.797738188
7.803703426
7.786612751
7.805506858
7.844983085
7.881983023
7.914549784
7.927122993
7.945577606
7.846172086
7.817553926
7.817332065
7.852274135
7.793213769
7.76699168
7.782489162
7.709153617
7.645732562
7.685461777
)
;

boundaryField
{
    flow
    {
        type            calculated;
        value           nonuniform List<scalar> 
48
(
5.863513901
5.931293506
5.864762403
5.91415387
5.925868351
5.890969574
5.862078121
5.895258465
5.896467268
5.865378577
5.92150256
5.873558829
5.918349499
5.843693582
5.891851633
5.86013233
5.923467592
5.780895423
5.780895423
7.698762845
7.657226302
7.709538991
7.740499608
7.755117652
7.75801131
7.766015912
7.76473339
7.789508174
7.85209628
7.821088423
7.813598711
7.853792499
7.838547653
7.837610107
7.815107274
7.802247911
7.83324336
7.782026641
7.846172086
7.817553926
7.817332065
7.852274135
7.793213769
7.76699168
7.782489162
7.709153617
7.645732562
7.685461777
)
;
    }
    obstacle
    {
        type            calculated;
        value           nonuniform List<scalar> 0();
    }
    frontAndBack
    {
        type            empty;
    }
    procBoundary2to0
    {
        type            processor;
        value           nonuniform List<scalar> 
31
(
5.874594863
7.874559419
7.829119654
7.781042258
7.805757038
7.790432152
7.849433245
7.938800907
7.967351396
7.937029031
7.826191601
7.805246827
7.796511056
7.818190197
7.831072683
7.840101095
7.816953675
7.809200837
7.862379794
7.875015867
7.813096496
7.738705225
7.686502455
7.696492728
7.841229003
7.842269591
7.859064072
7.821224973
7.782185786
7.831786327
7.831786327
)
;
    }
    procBoundary2to3
    {
        type            processor;
        value           nonuniform List<scalar> 
19
(
7.962142619
7.956024505
8.035705131
7.988008304
7.80132998
7.91856435
7.982661741
7.765401144
7.73723356
7.751867127
7.826526896
7.932963535
7.925684178
7.790260806
7.818445056
7.814498799
7.939228051
7.904517051
7.657627199
)
;
    }
}


// ************************************************************************* //
