/*--------------------------------*- C++ -*----------------------------------*\
| =========                 |                                                 |
| \\      /  F ield         | OpenFOAM: The Open Source CFD Toolbox           |
|  \\    /   O peration     | Version:  2406                                  |
|   \\  /    A nd           | Website:  www.openfoam.com                      |
|    \\/     M anipulation  |                                                 |
\*---------------------------------------------------------------------------*/
FoamFile
{
    version     2.0;
    format      ascii;
    arch        "LSB;label=32;scalar=64";
    class       volVectorField;
    location    "0.006";
    object      momentumMean;
}
// * * * * * * * * * * * * * * * * * * * * * * * * * * * * * * * * * * * * * //

dimensions      [1 -2 -1 0 0 0 0];

internalField   nonuniform List<vector> 
546
(
(0.006330478336 4.581931028e-07 -1.194810709e-06)
(0.008325557713 2.414932415e-06 -1.682382744e-07)
(0.008389065082 1.100612835e-05 3.507653383e-06)
(0.00831666974 1.219191964e-05 -4.961886624e-07)
(0.008340729878 1.707985871e-06 -2.822452811e-06)
(0.008325384902 4.217032848e-07 -1.983863475e-06)
(0.008329373389 7.811873173e-06 2.269450078e-06)
(0.008283172772 4.272794674e-06 -4.845218635e-06)
(0.008244736121 -5.433105301e-06 -1.041272857e-05)
(0.008274922214 -1.472860373e-06 -1.845584175e-05)
(0.008310183738 -1.022071743e-05 -2.602388696e-05)
(0.008364237817 1.025255801e-05 -1.19310118e-05)
(0.008339225165 1.087806489e-05 -1.054108119e-05)
(0.008290566377 2.248869276e-05 -4.629704976e-06)
(0.008309106481 2.024345941e-05 1.888083976e-06)
(0.00827998006 1.314745753e-05 -1.293711287e-05)
(0.008308421153 2.753840495e-06 -2.272544421e-05)
(0.008257873566 -9.039728407e-07 -1.651125756e-05)
(0.008208170538 8.589317191e-06 -1.212420756e-05)
(0.008178529077 1.555052629e-05 -1.564932514e-05)
(0.006390453713 1.011191532e-05 5.249335569e-06)
(0.008355539465 1.035057651e-05 1.090321663e-05)
(0.008367860207 1.552196524e-05 1.611910643e-05)
(0.008394705417 -9.280579993e-07 3.599410259e-06)
(0.008376464364 2.611650372e-06 -1.979846464e-06)
(0.008380397983 6.93931063e-07 -1.080224057e-05)
(0.008370687863 -1.524683665e-05 -9.394447693e-06)
(0.008368203737 -1.65347068e-05 -1.664715771e-05)
(0.008335945052 -5.251481191e-06 -1.463138109e-05)
(0.008323958471 8.542742141e-06 -4.124037068e-06)
(0.008334894838 1.590310318e-05 -9.758869499e-06)
(0.008314459204 3.590817417e-06 -1.109623781e-05)
(0.008362916621 8.406338851e-07 -2.068574522e-05)
(0.008317321078 2.919943673e-07 -1.586380219e-05)
(0.008309839835 1.196985518e-05 -1.354495904e-05)
(0.008301169185 1.618200555e-05 7.104652055e-06)
(0.00833854819 1.578058634e-05 1.156231934e-05)
(0.008400274503 3.090296857e-05 1.908630827e-06)
(0.008434872017 1.749196604e-05 1.203474651e-05)
(0.008447189829 1.45749421e-05 1.477816565e-05)
(0.006322016664 1.248067183e-05 -1.869198849e-05)
(0.008308878863 1.215123637e-05 -2.60579752e-05)
(0.008302694377 -5.69837172e-06 -9.945687267e-06)
(0.00826968388 -1.08722193e-05 -5.188614009e-06)
(0.008298320599 -9.53632152e-06 1.040933607e-05)
(0.008307214866 -1.234972758e-05 1.315911127e-05)
(0.008336929017 1.777541492e-05 7.733295205e-06)
(0.008352882136 2.665015769e-05 1.022438484e-05)
(0.008341813982 2.44772369e-05 5.322915247e-06)
(0.008378780015 8.697819191e-06 4.357886676e-06)
(0.00832387661 1.543247777e-05 -2.134939683e-06)
(0.008377514076 1.992041615e-05 2.344644641e-06)
(0.008302631163 1.700906541e-05 7.797164165e-06)
(0.008328865279 6.866626849e-06 8.923143233e-06)
(0.008335960555 4.627111572e-06 7.855621342e-06)
(0.008320658344 6.196723262e-06 1.623063039e-06)
(0.008234941522 9.844187375e-06 -2.656999469e-06)
(0.008277536085 1.733746591e-06 2.355036852e-06)
(0.008260022583 9.450513162e-06 5.026404835e-06)
(0.008260792794 -9.622259705e-06 -6.681228201e-06)
(0.006368036657 3.085400254e-06 1.769865255e-06)
(0.008391023303 5.105214524e-07 8.423762373e-06)
(0.00839507291 8.563846604e-06 -4.905140745e-06)
(0.008331466646 1.155520003e-05 -7.172219755e-06)
(0.008321316743 7.375110893e-06 -1.744571383e-06)
(0.008296038889 1.142112097e-05 9.348509673e-06)
(0.008342789997 -1.265727565e-05 7.094134887e-06)
(0.008317703024 -1.137337812e-05 2.378842794e-06)
(0.008355446486 -1.111345754e-05 1.651337014e-06)
(0.008304627757 3.026238706e-06 2.768195556e-07)
(0.008366347421 -5.671064046e-06 4.271936675e-06)
(0.008352761413 5.324227281e-07 1.266942431e-05)
(0.008415194663 1.508368921e-05 3.44127244e-06)
(0.00837006971 2.879639523e-05 9.506935164e-06)
(0.008418908858 2.230926697e-05 1.227113366e-05)
(0.008386983892 9.123316424e-06 8.87683797e-06)
(0.008367122714 9.220172701e-06 1.454616892e-05)
(0.008339450083 -9.340170696e-07 8.092448279e-06)
(0.008448509766 -7.743586336e-06 -6.14072879e-08)
(0.008437174629 -7.74858011e-06 1.077318929e-05)
(0.006377478228 -9.084637509e-06 -3.515027509e-06)
(0.008398219763 -2.771413885e-06 -3.24791843e-06)
(0.008367325645 1.24739999e-06 -5.588318217e-06)
(0.008393312206 5.607230175e-06 -1.203253527e-05)
(0.008404612817 1.018582195e-05 -1.726019203e-05)
(0.008377369011 1.795511052e-05 -1.497597464e-05)
(0.00831097034 2.106224937e-05 -1.001429041e-05)
(0.008335075475 1.743179783e-05 8.677778581e-06)
(0.008295080545 -2.088438195e-06 6.707206535e-06)
(0.008235447909 -5.883870931e-06 9.556937433e-06)
(0.008247398112 1.972802533e-05 5.696013223e-06)
(0.008231724807 6.246857498e-06 1.222095574e-05)
(0.008249749837 1.965741537e-06 1.83847546e-05)
(0.00828633143 -3.971084029e-06 1.060453093e-05)
(0.008306971319 -2.137583812e-06 -1.919310953e-06)
(0.008339609649 -5.037684206e-06 1.394522383e-06)
(0.008412041446 -5.524484863e-06 4.183939566e-06)
(0.008412910682 -1.128357785e-05 5.624872078e-06)
(0.008311375173 -9.006277241e-06 4.535070407e-06)
(0.008300708381 2.950047829e-06 7.361005082e-06)
(0.006346441192 -2.430865274e-06 3.267558763e-06)
(0.008300265288 7.706442743e-06 5.10285608e-06)
(0.008292512143 1.100250839e-05 9.650330665e-06)
(0.008279115935 2.134933259e-05 2.050491506e-05)
(0.008295518301 1.692943423e-05 2.299650615e-05)
(0.008307881758 1.514797933e-05 1.686675036e-05)
(0.008320149244 1.532538892e-05 1.269698539e-05)
(0.0083000629 4.555101421e-06 -4.03733854e-06)
(0.008362698453 2.69402459e-05 1.199830755e-05)
(0.008384709219 2.170882839e-06 9.303020888e-06)
(0.008440207819 -2.106520917e-05 1.555289767e-05)
(0.008396961796 -2.287467397e-05 3.19831827e-06)
(0.008364904621 -1.85706428e-05 -2.566570709e-06)
(0.008362256115 -1.524722827e-05 -4.21540962e-06)
(0.008386728006 -1.81118164e-05 4.228379162e-06)
(0.008433458624 -1.293312641e-05 3.236193957e-06)
(0.008394241475 -1.46960789e-06 -1.339699283e-06)
(0.00834563127 5.243796058e-06 -1.040679409e-05)
(0.00839801661 5.64121463e-06 -1.23675313e-06)
(0.008420223301 -5.223179854e-07 -4.652219856e-06)
(0.006326603225 1.149430116e-05 6.992004991e-06)
(0.008308643772 1.433302845e-05 1.222500106e-05)
(0.008320363413 7.667443703e-06 1.338320842e-05)
(0.008371650107 -4.737200621e-07 3.312905686e-06)
(0.008330080369 -7.431034915e-06 1.285361687e-06)
(0.008362956319 -7.999502069e-06 2.966057079e-06)
(0.008362962917 -7.989756693e-06 1.18311876e-05)
(0.008401202276 -9.15143966e-06 1.22236455e-05)
(0.008338854412 -8.105175035e-06 9.488283425e-06)
(0.008388664875 -4.192094768e-06 3.587401555e-07)
(0.008367386797 1.272715508e-05 5.931825463e-06)
(0.008389179437 1.201687056e-05 2.011126557e-06)
(0.008412951966 2.991186338e-06 2.566422185e-07)
(0.008385345413 -4.201673483e-07 -2.505898531e-06)
(0.00834330725 5.291408507e-06 -6.689195543e-07)
(0.008302045903 3.229099803e-06 -1.632251095e-06)
(0.008334940906 -9.402719775e-06 1.57188466e-06)
(0.008294969003 -1.509181736e-05 7.851382981e-06)
(0.008294477569 -1.289874275e-05 9.949071962e-06)
(0.008313776104 -5.03154401e-06 5.063782309e-06)
(0.006358024966 1.477734987e-07 1.201528519e-05)
(0.008382784348 -1.032102798e-05 2.855183554e-06)
(0.008415035986 -1.478454028e-05 -2.504702855e-06)
(0.008397942024 -3.395534937e-06 -9.838631239e-07)
(0.008403298783 -1.187660698e-05 1.28671222e-05)
(0.008395844576 -2.600356014e-06 3.533859637e-06)
(0.008408458769 4.393359645e-06 -9.02939203e-06)
(0.008394647269 1.168255611e-05 -7.091471087e-06)
(0.00843779606 4.104998617e-06 -1.346220196e-05)
(0.008358718521 7.879727163e-06 -9.167372723e-06)
(0.00835390173 4.130508673e-06 -9.745746266e-06)
(0.008307823494 -5.708034011e-06 -1.626536083e-05)
(0.008305577706 -6.113380162e-06 -8.908094507e-06)
(0.008334497242 -8.807480147e-06 -6.670400649e-06)
(0.008336395421 -1.210633447e-05 -5.417137268e-06)
(0.008389339765 -1.3023364e-05 -8.778348214e-06)
(0.008381929929 -5.745948206e-06 -1.260792823e-05)
(0.008400772044 4.426372907e-06 -2.05868601e-05)
(0.008433155421 -6.429667718e-06 -2.001882579e-05)
(0.008439533722 -9.51247783e-07 -1.368869249e-05)
(0.00636398792 -6.569748745e-06 -3.013916751e-06)
(0.008356194556 -1.091221309e-05 -5.395645368e-06)
(0.008290586892 -2.470128764e-05 5.709212898e-07)
(0.008279323222 -2.241395775e-05 -1.005663679e-05)
(0.008284409036 -2.819505664e-06 -7.721840004e-06)
(0.008227359251 1.017356484e-06 -3.927833555e-06)
(0.00824076759 1.965244561e-06 1.890654708e-06)
(0.008292693947 -1.212898299e-05 5.402502026e-06)
(0.008269358071 -4.756311864e-06 1.403756417e-05)
(0.008382452646 -5.867869602e-06 4.602987557e-06)
(0.008382706929 -1.924056072e-06 1.011587437e-06)
(0.008406945695 6.057851173e-06 9.961086874e-06)
(0.008360988724 8.305038573e-06 1.731920852e-05)
(0.008356956431 1.36408597e-06 1.346079672e-05)
(0.00833476851 -2.987493079e-06 5.191470457e-06)
(0.008251414894 3.827650227e-06 2.630613162e-06)
(0.00825693595 -7.82908066e-06 6.802367696e-06)
(0.008250505108 -3.751917045e-06 7.990036299e-07)
(0.008217696547 5.165718196e-07 1.384514713e-06)
(0.008187108232 -1.855239195e-06 -4.714510662e-06)
(0.006324803454 2.894838367e-06 -6.722471013e-07)
(0.008273272168 5.335546392e-06 3.999300716e-06)
(0.008264757378 7.400200373e-06 -2.582726048e-06)
(0.008336556431 -2.587372036e-06 9.86421965e-06)
(0.008284143855 -1.098686675e-05 1.481261216e-05)
(0.008340688733 -1.138251521e-05 1.333406351e-05)
(0.008344540651 -1.000226561e-05 1.473494995e-05)
(0.008346054879 -4.12619174e-06 -6.53508548e-07)
(0.008317693665 -8.714489076e-06 -5.252207479e-07)
(0.008247344003 -1.313685248e-05 -1.346231685e-06)
(0.008245436093 -2.914383737e-06 -3.081026521e-06)
(0.008266187344 4.500310031e-06 -6.280563184e-06)
(0.008326118347 4.495912236e-06 -2.11847094e-05)
(0.008328075077 1.757205403e-05 -1.72255717e-05)
(0.008321922347 6.734415149e-06 -7.611445818e-06)
(0.008335739828 1.332785647e-05 -1.014268673e-05)
(0.008301595489 2.288032036e-05 -1.583938933e-05)
(0.008241633293 2.821172803e-05 -1.924782287e-06)
(0.008219401885 2.149565723e-05 -9.050340787e-06)
(0.008226979138 8.834806866e-06 -1.036967246e-05)
(0.006381882049 1.980724806e-06 6.32413717e-07)
(0.008390573483 4.141139639e-07 -2.172514717e-06)
(0.008373824976 1.459902071e-05 9.382104498e-06)
(0.008356193279 7.647041668e-06 1.370817772e-05)
(0.008361052777 6.559992956e-06 -7.098946056e-06)
(0.008304279513 -6.509967574e-06 -4.58371355e-06)
(0.008321019852 -1.320058689e-06 2.135711257e-06)
(0.008257659731 -5.563699091e-06 1.927720743e-06)
(0.008300607769 4.156358271e-06 2.095070257e-07)
(0.008328837779 6.124435537e-06 3.685303395e-06)
(0.00829500605 -7.788873861e-07 5.411825525e-06)
(0.008312147284 -1.140290942e-06 8.709801104e-06)
(0.008267881416 -4.263622209e-06 1.199769646e-05)
(0.008287683183 2.218473046e-06 -1.122310577e-06)
(0.008226855596 1.894803029e-05 -2.965726996e-06)
(0.008266616733 2.138541033e-05 6.99623429e-06)
(0.008322801338 1.345935572e-05 2.732126811e-06)
(0.008427143822 -4.03485454e-07 -1.711640326e-06)
(0.008494977002 2.675973552e-06 2.920432628e-06)
(0.008516600554 2.656553858e-06 6.815268519e-06)
(0.006331630207 8.3326311e-07 5.499428989e-06)
(0.008356027897 6.060175078e-06 5.232457248e-06)
(0.008332966342 -9.995124877e-06 -8.542102837e-06)
(0.008348333001 6.566346716e-06 -1.33969955e-05)
(0.00831938107 3.460800499e-06 -8.951361715e-06)
(0.008281689262 -3.178674793e-07 -1.674782253e-05)
(0.008314746665 -3.086913481e-06 -1.753246791e-05)
(0.008274160161 -4.801715328e-06 -2.516409544e-05)
(0.008289781544 -9.726332952e-06 -1.552611804e-05)
(0.008271159404 -1.874012137e-06 -1.992991e-05)
(0.008261866189 -4.050205474e-06 -3.21548448e-05)
(0.00831523615 9.144088804e-07 -1.989676355e-05)
(0.008325865776 -9.284221804e-07 -6.409305661e-06)
(0.008365779567 -6.229504888e-06 1.015864402e-05)
(0.008428199528 -1.817140205e-05 7.382314698e-06)
(0.008409742892 -2.068015485e-05 7.437097224e-06)
(0.008416852889 -1.29865986e-05 1.14380585e-05)
(0.008328340246 -3.236434924e-06 1.395391617e-05)
(0.008334571417 -1.97022728e-06 9.234903317e-06)
(0.008304597707 9.002026199e-06 1.304086014e-05)
(0.006364583173 3.931467032e-06 -1.833122435e-05)
(0.008394092112 -1.043671073e-06 -2.718224991e-05)
(0.00838532647 2.193563627e-06 -2.368544797e-05)
(0.008349232793 7.327835565e-06 -2.344783325e-05)
(0.008367923243 3.385037296e-06 -1.984179747e-05)
(0.008342406733 3.027436672e-06 -1.373815878e-05)
(0.008331539611 2.297858732e-06 -1.17786582e-05)
(0.008368816482 7.4202211e-06 -7.183607533e-06)
(0.008367137891 1.021435061e-05 4.765230995e-07)
(0.008361309159 -1.222229025e-05 8.055267954e-06)
(0.008327360766 -1.420989303e-06 1.063103184e-05)
(0.008313720883 -1.641388309e-05 7.316623748e-06)
(0.008324125964 -1.459190644e-05 -2.582586151e-06)
(0.008299890138 -5.41018742e-06 -7.547668664e-06)
(0.008275101556 9.960586748e-07 -6.546205323e-06)
(0.008280675978 8.083775027e-06 -5.270802511e-06)
(0.008194565078 7.375660513e-06 -1.371883067e-06)
(0.008233187567 6.97313612e-06 8.332205346e-08)
(0.00827824125 1.880976185e-05 2.319474138e-06)
(0.008257877754 2.188364728e-05 4.314357756e-06)
(0.006308228782 6.349779219e-06 -1.059407349e-05)
(0.008253909921 -1.019844368e-06 -4.678385639e-06)
(0.008300835645 -4.997252147e-07 2.217097094e-07)
(0.008295102902 -3.135794133e-06 -2.71221001e-06)
(0.00832194624 -4.11799332e-06 4.628279622e-06)
(0.008322685739 1.613640122e-05 6.543610342e-06)
(0.008316252809 1.152148971e-05 8.91920845e-06)
(0.008302831822 1.49057145e-05 7.506904784e-06)
(0.008324173957 3.740776885e-06 -8.236277397e-06)
(0.008348366745 6.517262447e-06 -5.377085772e-06)
(0.008298048067 -1.206016028e-06 -1.413095456e-05)
(0.008266009325 5.375918187e-06 -1.860317246e-05)
(0.008210547931 1.151520765e-05 -2.01523923e-05)
(0.008230670144 1.039890576e-05 -1.405776796e-05)
(0.008207198114 1.619231827e-05 -1.070583864e-05)
(0.008281925272 8.316111574e-06 -1.488472035e-05)
(0.00830247823 1.840526357e-06 -1.347064541e-05)
(0.008279874459 3.119759933e-06 -1.91320365e-05)
(0.008287763137 -5.965091711e-06 -7.289675049e-06)
(0.008286727409 -1.111717023e-05 -1.434961154e-05)
(0.00636730153 -9.800750393e-06 -1.134299669e-05)
(0.008331135159 -4.352767652e-06 -1.347477579e-05)
(0.00829140271 -5.468791164e-06 -9.141338133e-06)
(0.008222222262 3.465112506e-06 4.356199559e-07)
(0.008259807073 5.00556781e-06 9.253408274e-07)
(0.008258922303 7.266669496e-06 1.29580212e-06)
(0.008281244468 -6.358711162e-06 5.104201903e-06)
(0.008315301774 -3.236232288e-06 9.144805662e-06)
(0.008284958169 8.685159737e-06 6.572177215e-06)
(0.008227179776 2.549746734e-05 1.202849687e-05)
(0.008209487333 2.935045579e-05 7.301512662e-06)
(0.008235272849 2.119093008e-05 1.0864227e-05)
(0.008317189388 2.624480669e-06 1.879860405e-05)
(0.008257609664 -6.377671851e-06 2.289697871e-05)
(0.008336381969 -2.074301766e-05 3.024212577e-06)
(0.008293727019 -1.013606238e-05 -8.392509047e-06)
(0.008265131377 -1.672959053e-05 -3.179712103e-06)
(0.00827033633 -1.90608028e-05 -7.06070262e-06)
(0.008309686661 -2.106586429e-05 -1.55439554e-05)
(0.008324344453 -1.520167861e-05 -1.605027247e-05)
(0.006319104168 1.434569128e-05 -6.741114566e-06)
(0.008339842267 2.16223962e-05 -9.017153004e-06)
(0.00834573763 2.430367202e-05 -8.647464099e-06)
(0.008381235531 1.893318828e-05 -7.443565013e-06)
(0.008420777014 1.155888489e-05 -1.167574359e-05)
(0.008376507335 6.65676645e-06 -1.542783988e-05)
(0.008286941647 1.337712574e-05 -7.641330182e-06)
(0.008260722004 2.368173087e-05 -5.905184503e-06)
(0.008304596919 1.283390016e-05 -6.156345991e-06)
(0.008328079734 -3.162234178e-06 -6.448241956e-06)
(0.008338839677 -9.169669726e-06 -4.353632198e-07)
(0.008322215274 -6.339481703e-06 -1.952497056e-06)
(0.008304792719 5.622694761e-06 -1.341868309e-05)
(0.008331700145 2.774017884e-06 -8.467293846e-06)
(0.008381519091 3.429300589e-06 -6.020093894e-06)
(0.008350472986 -1.1619387e-05 1.115905966e-07)
(0.008363377593 -1.479695878e-05 3.8484891e-06)
(0.008269752388 -1.041655021e-05 3.503553892e-06)
(0.008248749231 3.671646458e-06 -4.529886456e-06)
(0.008277550588 -7.069665859e-06 8.405050274e-07)
(0.006394438649 6.404018641e-07 -6.593474482e-06)
(0.008461334383 4.386812295e-06 -1.154269841e-05)
(0.008482346011 3.890326003e-07 -2.430187112e-05)
(0.008442510888 3.046838387e-06 -1.823143056e-05)
(0.008364703596 1.404192885e-05 -1.435529743e-05)
(0.008415250915 1.740706345e-05 -1.654396725e-05)
(0.008476026744 1.667391728e-05 -2.054588516e-05)
(0.008517645891 6.454465426e-06 -2.23944415e-05)
(0.00843943477 1.23318615e-05 -1.098627168e-05)
(0.008489126978 1.401782271e-05 -4.438197478e-06)
(0.008440029475 1.794413427e-06 -8.006462962e-06)
(0.008445446471 3.251294371e-06 -8.180769463e-06)
(0.008461784573 2.727738139e-06 -1.684986033e-05)
(0.00840440266 5.880592664e-06 -1.395571758e-05)
(0.008358881114 6.726899452e-06 -2.000073717e-05)
(0.00833468403 1.001015267e-05 -1.954070482e-05)
(0.008348684661 1.979371728e-05 -2.393116583e-05)
(0.008336417029 1.178029223e-05 -2.435974908e-06)
(0.00838888192 1.217171459e-06 -8.554041001e-06)
(0.008378672944 1.037648048e-05 -1.019378863e-05)
(0.006225933064 1.668503709e-05 -4.493974818e-06)
(0.00812209604 1.180917318e-05 -5.196560263e-06)
(0.008130249243 1.980332381e-05 7.251321983e-06)
(0.008197999781 2.264043295e-05 6.194754541e-06)
(0.008228220214 2.159922545e-05 -5.699925271e-06)
(0.008236007327 2.847345172e-05 -1.370994206e-06)
(0.00824528084 2.693144146e-05 -3.235928006e-06)
(0.008254238072 2.659589936e-05 2.768468287e-06)
(0.008253768693 2.650175404e-05 -8.338253882e-06)
(0.00827761201 3.413888579e-05 -2.119901339e-05)
(0.008342420538 5.221861895e-05 -2.170759487e-05)
(0.008314490181 5.736888334e-05 -7.670314391e-06)
(0.008298476672 3.613735338e-05 1.56152316e-07)
(0.00833606599 3.629453031e-05 7.493915395e-06)
(0.008320115146 4.482297119e-05 3.450731736e-06)
(0.008313499496 4.981913593e-05 8.962922655e-06)
(0.008294181587 3.301496336e-05 5.109911327e-06)
(0.008282791833 3.363307885e-05 -2.410500867e-06)
(0.008308579183 2.476321916e-05 3.014885471e-06)
(0.008249338419 2.877900478e-05 8.831684788e-06)
(0.008348508307 4.33890444e-05 -1.793227723e-05)
(0.008340052176 3.225834673e-05 -2.269159509e-05)
(0.008365123031 2.899836788e-05 -1.143453482e-05)
(0.008355865994 1.988712974e-05 -1.03987829e-05)
(0.008345332883 2.796054066e-05 -1.056908056e-05)
(0.008421065328 4.209332521e-05 -8.843419141e-06)
(0.008246796792 1.293386276e-05 -1.098920388e-05)
(0.008292572479 2.413206879e-05 -9.930256582e-06)
(0.008354101952 1.592383802e-05 -2.493358884e-06)
(0.008282239719 1.813114845e-05 -1.349184033e-06)
(0.008298531282 9.716212429e-06 5.86635278e-07)
(0.008361012084 9.351142966e-06 1.464846024e-05)
(0.008422284946 1.164990351e-05 1.374842885e-05)
(0.00844734204 3.780641643e-05 9.770895613e-06)
(0.008395999609 3.783232672e-05 5.111260961e-06)
(0.008401050909 4.363150323e-05 -2.402963771e-06)
(0.008421647774 1.172309997e-05 1.440880263e-05)
(0.008415752116 1.091457785e-05 1.197041569e-05)
(0.008430717252 1.11421142e-05 2.222559688e-05)
(0.008439196502 3.718119096e-06 2.396099244e-05)
(0.008441071492 1.291156455e-05 1.76966941e-05)
(0.008425488658 2.455619725e-05 1.425399781e-05)
(0.008457703067 2.060637367e-05 4.760247766e-06)
(0.008406827146 2.212907078e-05 1.578114595e-05)
(0.008455858881 2.170662924e-05 1.822896596e-05)
(0.008505332798 3.394956351e-05 1.710091061e-05)
(0.008285631915 -1.31146634e-06 -8.015689518e-06)
(0.00831162197 -3.182817914e-06 -1.3314242e-05)
(0.008357603468 -4.102727059e-06 -1.071195554e-05)
(0.008338537186 -1.068218482e-05 -1.806026891e-05)
(0.008374296423 -2.19928296e-05 -1.212645271e-05)
(0.008343463626 -9.746293211e-06 -1.091797478e-05)
(0.008340114517 4.031029883e-06 -8.942882355e-06)
(0.008386985332 7.402209537e-07 -1.845412888e-05)
(0.008395954111 6.098603544e-06 -1.006079347e-05)
(0.008466619467 1.238074274e-06 -3.06227405e-06)
(0.008471308142 -1.255799241e-05 -5.910294409e-06)
(0.008465972362 1.601424114e-06 -5.875498022e-06)
(0.008422675824 1.38278705e-05 -4.992115103e-06)
(0.008449796661 1.651209138e-05 -8.990766497e-06)
(0.008421347118 2.001477396e-05 4.162869507e-06)
(0.008390701901 1.412692478e-05 2.481641665e-06)
(0.008386269583 -1.01840636e-05 1.130579847e-05)
(0.008364564876 -2.068239161e-05 1.381718791e-05)
(0.00828547149 -8.462809368e-06 1.124585039e-05)
(0.008294645219 2.183226761e-07 2.184829499e-06)
(0.00829143709 -1.941301419e-06 2.221676999e-05)
(0.008299418274 1.35074043e-06 1.468070634e-05)
(0.008288769884 -6.228547917e-06 1.403131392e-05)
(0.008303767174 -9.69824448e-06 1.208187706e-05)
(0.008343312111 -7.641848632e-07 4.596759974e-06)
(0.008341522413 -5.442569559e-06 1.63529314e-05)
(0.008385523362 8.407892964e-06 1.828938696e-05)
(0.008470719589 1.218056492e-05 8.752148884e-06)
(0.008416720393 -9.791121847e-07 3.280363494e-06)
(0.008420136779 1.310828223e-05 -8.401114668e-07)
(0.008394853579 1.889632911e-06 -1.123918961e-05)
(0.008365930463 7.315826415e-07 -2.310302196e-06)
(0.008391005855 3.309083607e-06 -4.641663867e-06)
(0.008373330798 -5.081648965e-06 3.839396433e-06)
(0.008461444035 -1.470505038e-05 -4.839819436e-06)
(0.008433011292 -7.060015432e-06 -1.073493865e-05)
(0.008350911454 -5.710194414e-06 -1.918334777e-05)
(0.008340767246 1.929185661e-06 -2.694201345e-05)
(0.008388800199 3.831504458e-06 -1.89145671e-05)
(0.008399105687 6.790312776e-06 -2.466346343e-05)
(0.00833212008 2.398951193e-06 8.105328729e-06)
(0.008307202153 -3.98224145e-06 -3.697908759e-06)
(0.008296667664 -1.963764804e-05 -9.635053247e-06)
(0.008321539741 -1.052152835e-05 -1.860287247e-05)
(0.008269187309 -3.741473264e-06 -3.187303524e-05)
(0.008297500837 -7.919500447e-06 -2.995066776e-05)
(0.008319112322 -9.562083001e-06 -1.793427674e-05)
(0.008317106661 -1.473636455e-05 -1.839475701e-05)
(0.00825975505 -2.277612628e-06 -1.568343018e-05)
(0.008246115726 -3.320573799e-06 -1.06128364e-05)
(0.008476829437 2.634310602e-06 -6.322037281e-06)
(0.008462871799 5.064287092e-06 -9.940342634e-06)
(0.008436972366 9.67532466e-06 -1.519057843e-06)
(0.008327543986 4.995837896e-06 4.405602911e-06)
(0.008284498511 7.38212574e-06 3.342317159e-06)
(0.008285377771 1.568778363e-05 3.594296644e-06)
(0.00828865118 1.786378738e-05 -9.519674296e-06)
(0.008268614634 1.922952921e-05 -1.503175708e-05)
(0.008275819901 -5.689794998e-06 -1.438615024e-05)
(0.008224290217 -1.574868281e-05 -1.971627001e-05)
(0.008131203377 1.924908412e-06 -1.149666999e-05)
(0.008123705123 3.227819012e-06 -1.426957382e-05)
(0.008164799336 1.30014034e-05 -1.701905476e-05)
(0.008151084193 1.836435149e-05 -1.586112928e-05)
(0.008221460365 9.035921981e-06 -7.496847868e-06)
(0.008236969893 6.514554963e-06 -1.467542629e-05)
(0.008217625229 -6.026251829e-06 -4.027334097e-06)
(0.008173349373 -2.836763863e-06 2.452840978e-06)
(0.008211950437 6.700768546e-06 3.365711566e-06)
(0.008258356563 1.111432362e-05 -5.326279465e-07)
(0.008231213648 1.376117678e-06 -1.566494848e-05)
(0.008336298093 2.461644606e-06 -8.761450764e-06)
(0.008341750309 1.000577109e-06 -8.89678527e-06)
(0.008373924977 -3.475715725e-06 -3.694854942e-06)
(0.008309373198 8.075771857e-06 -1.02561591e-05)
(0.008299773441 1.266551911e-06 -9.311860673e-06)
(0.00837463461 6.723166894e-06 -9.448772337e-06)
(0.008367490058 9.69693376e-06 -1.418007516e-05)
(0.008398154069 2.206856912e-05 -3.782417352e-06)
(0.008289689796 1.584091629e-05 1.143659774e-05)
(0.008472329077 4.239141369e-06 5.270277854e-06)
(0.008420986324 -1.866080551e-06 7.923429178e-06)
(0.008363680305 -3.906769388e-06 8.354691511e-06)
(0.008380446432 3.21735194e-06 1.061990675e-05)
(0.008409170063 7.534374536e-06 1.422836643e-05)
(0.008433148806 1.564445069e-05 1.221744037e-05)
(0.008343610352 1.123805863e-05 6.018336421e-06)
(0.008339440853 2.353903037e-05 1.747719839e-05)
(0.008366760503 2.122382915e-05 6.231316299e-06)
(0.00838099679 3.034021742e-05 -7.48684058e-06)
(0.008314641056 1.509894098e-05 1.531253227e-05)
(0.008314529079 1.985426224e-05 1.078357549e-05)
(0.008323154441 2.509397464e-05 9.122052544e-06)
(0.008291129202 2.109973794e-05 1.109503847e-05)
(0.008196865027 1.415854253e-05 1.846278222e-05)
(0.008198320229 8.748557097e-06 1.024097507e-05)
(0.008230087696 -2.383034788e-07 7.382930194e-06)
(0.008306153922 -5.034886306e-06 -1.592665073e-06)
(0.008344764189 -1.211841609e-05 -1.538230207e-05)
(0.008384641085 -3.24000656e-06 -2.20942262e-05)
(0.008234013726 1.864093723e-05 -4.517728867e-06)
(0.008246323885 1.282488921e-05 -4.16493591e-06)
(0.008279553859 1.917520915e-06 -6.397385393e-06)
(0.008306102175 8.531265947e-06 -1.347710723e-05)
(0.008330656037 -5.359966192e-06 -1.35679225e-05)
(0.008358104523 -6.355497675e-06 -1.383283338e-05)
(0.008333663457 -1.654176748e-06 -1.662656259e-05)
(0.008323725644 -9.228038551e-06 -1.506736672e-05)
(0.008294289028 -1.363803732e-05 -5.847256687e-06)
(0.00828729189 -3.044414471e-05 8.441318312e-06)
(0.008320833232 -1.635889198e-05 -3.491059791e-06)
(0.008402914217 -8.714822042e-06 -7.047599793e-06)
(0.008383074962 -9.309333263e-06 -6.541780098e-06)
(0.008400248131 3.835679154e-06 -7.789076757e-06)
(0.008413974998 1.987086498e-05 -1.236917415e-07)
(0.008415986995 1.642663965e-05 -3.412694379e-06)
(0.00838260595 9.929891925e-06 6.120243784e-06)
(0.008363312303 7.519234005e-06 9.467992204e-06)
(0.008311994531 2.491845309e-05 1.403885144e-05)
(0.008227958669 2.666146903e-05 5.875160867e-06)
(0.008287639062 -4.203330952e-06 -1.045074424e-05)
(0.008269052828 3.688896165e-07 -1.255439065e-05)
(0.008281476512 1.93814813e-06 -3.368930445e-06)
(0.008249764214 -8.087088453e-06 -4.841334786e-06)
(0.00828541729 -6.449579939e-06 5.756860243e-07)
(0.008203790646 -8.471336288e-07 1.015598658e-06)
(0.008198630871 1.937961047e-05 -9.884624595e-06)
(0.008249304993 3.098502086e-05 -1.283126636e-05)
(0.00830448146 2.403811517e-05 -1.689451104e-05)
(0.008365510597 1.015834833e-05 -9.675880333e-06)
(0.008280921519 -1.114066815e-05 -9.542415247e-06)
(0.008294822424 -1.316609431e-05 7.128138947e-07)
(0.008303098464 -3.09457764e-07 -8.918790398e-06)
(0.008301080301 -4.362410839e-06 -1.140590397e-05)
(0.008340455855 4.989904304e-06 -1.867958675e-05)
(0.008334350919 1.092136525e-05 -3.725344896e-06)
(0.008400462095 1.170522948e-05 -7.256767254e-06)
(0.008339619986 -5.68081658e-06 -1.041282987e-05)
(0.008356311843 -1.796113083e-05 -1.38564697e-05)
(0.008353533842 -1.248292881e-06 -1.066070598e-05)
(0.008307410367 9.070431423e-06 -8.046377703e-06)
(0.008296153295 -2.873682624e-06 -2.049759299e-05)
(0.008299179984 -1.603245635e-05 -2.39578439e-05)
(0.008275415116 -1.313626182e-05 -1.404547359e-05)
(0.008297139608 -1.505065009e-05 -1.629346463e-05)
(0.008335401707 -2.223161174e-05 -3.173740119e-05)
(0.008360844909 -1.421936744e-05 -1.840824444e-05)
(0.008397515939 -2.010914295e-05 -1.585943023e-05)
(0.008405127392 -1.15355655e-05 -5.258515688e-06)
(0.008423479926 -9.036457772e-06 -3.991498595e-06)
(0.008312105433 2.402585214e-05 1.058403379e-05)
(0.008273498279 3.37239547e-05 1.430398557e-06)
(0.008269898863 3.149777988e-05 1.140756496e-05)
(0.008309432524 2.769174583e-05 1.704476865e-05)
(0.008240768018 1.971997203e-05 7.13206317e-06)
(0.008222972386 2.320065256e-05 2.09679856e-05)
(0.008237830541 1.588512323e-05 2.365954582e-05)
(0.008165234724 2.41569968e-05 1.419564237e-05)
(0.008107648572 2.852271163e-05 1.332902742e-05)
(0.00814065931 2.254665434e-05 1.636255732e-05)
)
;

boundaryField
{
    flow
    {
        type            calculated;
        value           nonuniform List<vector> 
48
(
(0.006330478336 4.581931028e-07 -1.194810709e-06)
(0.006390453713 1.011191532e-05 5.249335569e-06)
(0.006322016664 1.248067183e-05 -1.869198849e-05)
(0.006368036657 3.085400254e-06 1.769865255e-06)
(0.006377478228 -9.084637509e-06 -3.515027509e-06)
(0.006346441192 -2.430865274e-06 3.267558763e-06)
(0.006326603225 1.149430116e-05 6.992004991e-06)
(0.006358024966 1.477734987e-07 1.201528519e-05)
(0.00636398792 -6.569748745e-06 -3.013916751e-06)
(0.006324803454 2.894838367e-06 -6.722471013e-07)
(0.006381882049 1.980724806e-06 6.32413717e-07)
(0.006331630207 8.3326311e-07 5.499428989e-06)
(0.006364583173 3.931467032e-06 -1.833122435e-05)
(0.006308228782 6.349779219e-06 -1.059407349e-05)
(0.00636730153 -9.800750393e-06 -1.134299669e-05)
(0.006319104168 1.434569128e-05 -6.741114566e-06)
(0.006394438649 6.404018641e-07 -6.593474482e-06)
(0.006225933064 1.668503709e-05 -4.493974818e-06)
(0.006225933064 1.668503709e-05 -4.493974818e-06)
(0.00812209604 1.180917318e-05 -5.196560263e-06)
(0.008130249243 1.980332381e-05 7.251321983e-06)
(0.008197999781 2.264043295e-05 6.194754541e-06)
(0.008228220214 2.159922545e-05 -5.699925271e-06)
(0.008236007327 2.847345172e-05 -1.370994206e-06)
(0.00824528084 2.693144146e-05 -3.235928006e-06)
(0.008254238072 2.659589936e-05 2.768468287e-06)
(0.008253768693 2.650175404e-05 -8.338253882e-06)
(0.00827761201 3.413888579e-05 -2.119901339e-05)
(0.008342420538 5.221861895e-05 -2.170759487e-05)
(0.008314490181 5.736888334e-05 -7.670314391e-06)
(0.008298476672 3.613735338e-05 1.56152316e-07)
(0.00833606599 3.629453031e-05 7.493915395e-06)
(0.008320115146 4.482297119e-05 3.450731736e-06)
(0.008313499496 4.981913593e-05 8.962922655e-06)
(0.008294181587 3.301496336e-05 5.109911327e-06)
(0.008282791833 3.363307885e-05 -2.410500867e-06)
(0.008308579183 2.476321916e-05 3.014885471e-06)