/*--------------------------------*- C++ -*----------------------------------*\
| =========                 |                                                 |
| \\      /  F ield         | OpenFOAM: The Open Source CFD Toolbox           |
|  \\    /   O peration     | Version:  2406                                  |
|   \\  /    A nd           | Website:  www.openfoam.com                      |
|    \\/     M anipulation  |                                                 |
\*---------------------------------------------------------------------------*/
FoamFile
{
    version     2.0;
    format      ascii;
    arch        "LSB;label=32;scalar=64";
    class       volVectorField;
    location    "0.006";
    object      momentum;
}
// * * * * * * * * * * * * * * * * * * * * * * * * * * * * * * * * * * * * * //

dimensions      [1 -2 -1 0 0 0 0];

internalField   nonuniform List<vector> 
546
(
(0.00530533812 0.000680333059 0.0002115563763)
(0.01003729878 -1.644230745e-05 -9.911460049e-05)
(0.01095205336 0.0005830731117 0.001036087485)
(0.005757829842 0.0001556355662 0.0006707208764)
(0.009032264123 -0.0006308147863 0.0003522554286)
(0.01110968656 -0.000494592523 -0.0007969642896)
(0.01133310824 -0.0002884688286 0.0003220808186)
(0.007133260616 -0.0002110160892 -0.0008086702353)
(0.006521613673 -0.0002790144983 -0.0004768703046)
(0.009245591664 -0.0002346479748 0.0008501821401)
(0.01003397913 -0.0005655869314 -0.0007672846833)
(0.01014225577 0.0004968723949 1.069151022e-05)
(0.002120447668 0.0003466480828 0.000157934685)
(0.004132816778 0.0004998608511 -0.0001756136721)
(0.003383136015 0.000624612723 0.0001440880272)
(0.0147635232 -0.001048457117 -0.000677850582)
(0.009947720876 -0.001279463313 -0.000348140012)
(0.007987588587 0.0003744915445 -2.329890204e-05)
(0.009759258722 -0.0006986767468 -0.0006494891638)
(0.008491332474 -0.0001587921507 0.0006048433965)
(0.007654778193 -0.0004896864471 0.0001615885687)
(0.007498217716 -1.829138777e-05 -0.0005550260292)
(0.006062687921 -6.360619799e-06 0.0005071896809)
(0.01438760367 0.0004092759492 0.0002528069813)
(0.007459515663 -0.0006199288367 -0.0004612821109)
(0.006129175916 0.0005232400154 -0.000425201286)
(0.009271151409 -0.0004390914308 0.0002970931041)
(0.006332764132 -9.384137377e-06 -0.0004797577221)
(0.01070469454 -0.0001255787676 0.0001424332721)
(0.007077944429 0.0002173922463 -0.0006625937882)
(0.007972254225 -0.0003801164287 -0.0003270631877)
(0.007343584955 -0.0002292914584 -0.0007857449687)
(0.007912733836 8.537202206e-06 0.000518613145)
(0.005476692182 -0.0001361564839 -0.0002716596497)
(0.009457490679 -0.0003825563689 -0.0003832287825)
(0.01968478332 0.0001228861944 -0.001132516645)
(0.005628493226 0.0001184181654 0.0004116645557)
(0.01344553213 -0.0001892003208 -3.368081677e-05)
(0.008130742141 -0.0004595214931 0.0001119634575)
(0.006723673075 0.0002510501065 0.000664779269)
(0.00770342914 -0.0004642977206 -0.0003938435766)
(0.008420795037 -0.0001597228431 0.0009101190097)
(0.01129997605 -0.0002647415055 -9.449569448e-06)
(0.002502783591 -0.0002000844958 0.000118886457)
(0.01027652475 -0.0008700999633 -0.0006998642964)
(0.004463414679 -0.0001335962308 4.049881459e-05)
(0.01053233033 -0.0005721196848 0.0002605409211)
(0.008997035956 0.0006688395471 0.0006308807407)
(0.008696441816 0.0002335762481 -0.0005696827095)
(0.01016703013 0.0001776223642 -0.001199063034)
(0.006141347964 -9.487012997e-05 -0.0005506022507)
(0.006197472744 -0.0003850005464 0.0008998396793)
(0.007828285277 -0.0002839408076 0.000379557397)
(0.01054612867 -3.640181284e-05 9.144159778e-05)
(0.004665557346 0.0006096902885 -0.0005457290406)
(0.00797845629 -0.0005468229025 0.0001921407867)
(0.009549064211 -5.147362457e-05 0.0002567082849)
(0.01002515881 0.0006759633118 0.0006343885378)
(0.005141871763 -0.00016499464 -0.0002717962796)
(0.003332563413 0.0003113470657 0.0004233077782)
(0.005236271683 -0.000210029511 -0.0002919342402)
(0.007097946126 0.000327720764 -0.0003507051843)
(0.006563570315 -0.0003363004878 -0.0001937487804)
(0.006687133247 -0.0001969195719 0.0003115795323)
(0.005915915627 -0.0002456339578 -0.000529869039)
(0.01008185784 4.643862582e-05 -0.0002007520443)
(0.006514022729 -6.306431001e-05 -0.0006662608063)
(0.006734019344 4.710323368e-05 0.0003024173)
(0.00562160764 0.0002437784835 -4.673601898e-05)
(0.00555787227 -0.0003122402462 -0.0003466627998)
(0.01131187212 0.0005779060338 5.273395784e-05)
(0.004873093842 0.0001114929193 0.0002978932403)
(0.01070555412 0.0004666794767 -0.0008265773894)
(0.007036844346 0.001356701807 0.0006316177176)
(0.01300291601 -0.0004516654537 0.0003214655691)
(0.008973633692 0.0004425680712 0.0004594931368)
(0.008859047288 -0.0002542948195 0.0008039958852)
(0.01228137114 0.0005268319891 -2.981411163e-05)
(0.005990631423 -0.0002601014808 7.461789027e-05)
(0.009198190663 -0.0007495319552 0.0004406500565)
(0.004143256602 0.000134993133 -0.0003695624086)
(0.01289043587 -0.0008928507263 0.0001890380631)
(0.009288093908 0.0003303239905 -5.593273573e-05)
(0.009459606291 0.0007962266719 -0.000455624399)
(0.008794485316 -0.0004552057652 -0.001265493554)
(0.004395547564 0.0002428139671 0.0001251331719)
(0.008155428794 0.0008274740761 -3.106671797e-05)
(0.008893815483 -0.0003431182079 -0.0001081244352)
(0.004778660194 0.0002476836911 -0.000227454077)
(0.007289470253 -7.009201305e-05 0.0003857356298)
(0.007197214217 0.0006818240984 -0.0001748819934)
(0.007779216488 -9.358357517e-05 3.243439317e-05)
(0.008610113184 0.0003435694452 0.0002039987363)
(0.008967907989 0.0005036377915 -9.1464035e-07)
(0.01036264912 0.000398132365 0.0008564137519)
(0.007222132662 -4.460989214e-05 -0.0004482612265)
(0.008868944045 0.0001416079622 0.0004982714639)
(0.009588475422 1.937481003e-05 -9.286950261e-06)
(0.009295471598 -0.0001341897929 0.0001028921065)
(0.006634958266 0.000337310102 -0.0002111232436)
(0.008716134142 -0.0007466598798 0.0002656378027)
(0.007878045936 0.0005647850704 0.0004229982575)
(0.01049738898 0.0002831253835 0.0005184254761)
(0.005319816286 0.0003081489732 0.0008067933536)
(0.01081511555 0.0006079227432 -0.0006647541298)
(0.009882903631 0.0005101762352 0.000145053581)
(0.004062169751 4.132418059e-05 0.0007296161919)
(0.005023240604 0.0005573243859 0.000304348902)
(0.008795424044 0.0004290936187 -0.0008807925327)
(0.009843350537 5.617924894e-05 0.0002466482381)
(0.006090212512 -0.0008660017256 2.893297889e-05)
(0.008655227646 0.0006629842588 0.0002927042077)
(0.0031922379 -0.000118313061 -0.0002150428791)
(0.005386912397 -0.0001507445858 0.0003120210767)
(0.008941550768 0.0009380922639 -0.0006602668163)
(0.01209627249 0.0002408753202 -4.733800713e-05)
(0.008910224325 0.0005735625902 0.0006049085358)
(0.008402287964 -0.0002394123972 -0.001250071262)
(0.009413689699 0.0004884506131 -0.0001580258443)
(0.01113714175 -0.0001664802225 -2.807822008e-05)
(0.002603253733 0.0002343563704 -0.0001713573902)
(0.01117164644 0.0007884080028 0.0002920587724)
(0.009500170776 0.0001475832 0.0002711693817)
(0.007518406033 -0.0004881329444 -0.0003584949675)
(0.007403011279 0.0004668207333 0.0001269562283)
(0.008001241404 8.340716674e-05 -4.163957725e-05)
(0.01173058122 -0.0004562360525 -0.0002696520106)
(0.01299804427 0.0008016744908 2.799595709e-05)
(0.01536356461 -0.000255226189 -0.0007387560872)
(0.009469321741 0.0002095081052 0.00044012727)
(0.01044223333 0.0004548665455 0.0009890834265)
(0.006398186391 -0.0005126549871 0.0003050715955)
(0.009126205721 -0.0001616510462 -0.0002658630087)
(0.008766175345 0.0004511386615 0.0003468502224)
(0.006575841688 -0.0001279035875 0.0006103393751)
(0.008119823111 -8.083140149e-05 0.0001688503939)
(0.00735069543 -0.0001230399393 -0.0003226517224)
(0.005175117737 0.0002938264372 -0.0005232481291)
(0.007512737452 -0.0005719712438 -0.000395022519)
(0.009574827303 -9.890684315e-05 0.0003709717009)
(0.004028606314 -0.0003165916438 -0.0003239712314)
(0.01040339746 -0.0004912444344 0.0003301500628)
(0.009735218663 -1.506057935e-05 -0.001035692123)
(0.005929602302 0.0001036770338 -0.0003579794038)
(0.009150619075 0.0001365938243 0.0001336340672)
(0.006553585533 -0.0001389835201 0.0003101377832)
(0.009139302337 0.000109800388 0.0006782367064)
(0.005797373764 -0.0002390559439 -0.0001068724546)
(0.004975043963 9.875320679e-05 0.0003072340424)
(0.00763676263 0.0002243486123 -0.0002372257654)
(0.005883194525 -0.0002610873947 -0.0004087841086)
(0.01118200122 0.0006665387137 -0.000585827953)
(0.01215764169 0.0008113068331 -0.000140129821)
(0.006918176696 -0.0004794597489 0.0004257476939)
(0.008834351674 -0.0004684992411 -0.000199751577)
(0.007800486176 -0.0002037860951 -0.0006828397931)
(0.004831098709 0.0001949284963 -0.0001676969698)
(0.0105003908 -0.000528226186 9.041341615e-05)
(0.01184130963 0.0005419601601 -8.277141035e-05)
(0.007081429039 0.0002212443197 0.0002611313392)
(0.004732450274 -0.0001513903407 -0.0003847402806)
(0.006863154011 0.0003256257323 0.0002891161594)
(0.007484739127 0.0002652248645 -0.0007396422791)
(0.01250505451 -9.521344062e-05 -0.0008202814504)
(0.01125368183 0.0002532643923 0.0005130642386)
(0.01168070542 0.0002030042091 -0.0003712146358)
(0.009464534376 0.0003795558976 -0.0008467064497)
(0.01216995671 0.0006816295431 0.0004660590553)
(0.008058409961 0.000838916788 -2.725290726e-05)
(0.01094433553 0.0006903340898 -0.0006402026193)
(0.009271457252 0.0007679511106 0.0002442260171)
(0.006887762824 0.0002747945753 -0.0002354066823)
(0.01305186761 -0.0007125131596 0.000453626607)
(0.006878519662 -9.636283744e-05 0.0001172325147)
(0.008603033461 -0.0003106600337 0.00058036598)
(0.008094375908 -0.0001216589518 -0.0002334356124)
(0.01065915783 -0.0001179820105 -4.41516545e-05)
(0.005891089504 0.0001204737766 -1.058680498e-05)
(0.01051038328 0.0003260902581 0.0008783338926)
(0.01080147209 0.0005890009556 -0.001042359721)
(0.009627396744 0.0009171031454 -0.0009636832086)
(0.006962373314 -0.0004133987447 0.0002317291632)
(0.01166364475 0.0007352916665 -6.139967413e-05)
(0.005917512631 -3.339814557e-05 -0.0006514066192)
(0.009094979731 -6.947974581e-05 -0.0001972750526)
(0.007856254332 -0.0004650770712 8.671408352e-05)
(0.01372664573 -0.0007513886452 0.001271819856)
(0.009851242329 -0.0004522600538 -0.0007104941072)
(0.01044549266 0.000351535046 0.0007124693043)
(0.007847854925 -0.0002665219337 0.000289688314)
(0.007026416676 0.0001639953077 -0.0004004345778)
(0.006072930823 -1.389743853e-05 -0.0004798127865)
(0.0062232993 -0.000226865488 -0.0002722069679)
(0.00601206269 8.691648099e-05 -0.0003002298503)
(0.005719482834 -0.000413003217 0.0001232846496)
(0.006064042583 0.0003046284043 -6.190737115e-05)
(0.009905111264 -0.0004736078234 -0.0004111832779)
(0.007828939213 0.000266538417 4.129864353e-05)
(0.007330217951 -0.0002734939276 0.0002747065682)
(0.005322530187 -0.0001244438844 -0.0001562887749)
(0.005001563129 0.000370560736 -0.0001374075734)
(0.007496522245 0.0005778419537 -0.0005238400128)
(0.007243962709 -0.0004111778268 -2.544006031e-05)
(0.004432428083 -0.0007215744787 -6.886767884e-05)
(0.004738219702 0.0004995961083 -0.0005195271683)
(0.007772936474 -0.0005180992271 0.000640819613)
(0.01058792079 9.855622861e-05 -1.551965826e-05)
(0.005387448113 -0.0002300709048 -0.000126137126)
(0.005750929735 -0.0003381180536 0.000602076136)
(0.01469064253 0.0009106433996 0.0003817879511)
(0.006962958173 0.0002847522735 -0.0001903473521)
(0.008401482376 0.0007128253583 -0.0008114510457)
(0.006927870827 -0.0001170969666 -0.0005637235559)
(0.01056920118 -0.0007417521928 8.974370863e-05)
(0.003469997151 -8.439447026e-05 -0.0003953597167)
(0.009193353863 -0.0003367972133 0.0001334881535)
(0.002914993433 -9.070156311e-05 0.0002082095281)
(0.01039131679 -0.000603026724 0.0007697331908)
(0.008007146283 0.0003534637326 0.0004364833354)
(0.004792679092 0.0004863086968 -0.000208105694)
(0.004987478216 -0.0001180009785 0.000137963351)
(0.01005025975 0.0001119858806 -0.0006736007495)
(0.006431986651 0.0004332566934 -0.000530274804)
(0.007806780004 -6.050003048e-05 0.0008295759375)
(0.00864285642 -0.0001990815794 -0.0004615226308)
(0.007236693866 0.0002149088143 0.0006236906975)
(0.005753680308 1.975576605e-05 -0.0007448828586)
(0.004505521795 0.0001767845693 8.199469501e-05)
(0.01011964217 0.0001187550169 -0.0003483398774)
(0.01016854366 0.0003509321312 0.0006804622538)
(0.009331575713 -6.566257593e-05 -0.0001469881122)
(0.008338793472 -0.0003556594042 0.0001747573875)
(0.007103597841 -0.0002120915109 -0.0001614602447)
(0.007460763064 -0.000360741102 0.0007371112375)
(0.012550613 -0.0003276847883 8.434097385e-05)
(0.009320283856 0.001182167094 -0.0003950646151)
(0.008500678257 -0.0006278572756 0.0002181974495)
(0.0136658836 0.000498934771 0.0008778481064)
(0.008876966973 0.0006078682714 -0.0003831192772)
(0.01312121368 0.0004261415324 0.0002933810932)
(0.005298808241 -0.0008043918914 0.0003852656446)
(0.008959042229 -0.0005623869712 -0.0001971120401)
(0.009782810267 -0.0001354838236 -0.0004613655486)
(0.004112298471 -0.000261298491 -0.0002747635416)
(0.01076590958 -0.0008098822418 0.0005218344276)
(0.01035023565 0.0008182305465 -0.0002987682859)
(0.00885380438 0.0003453320021 0.0006844557722)
(0.009327740335 -4.896657551e-05 1.603864659e-05)
(0.008793658469 -0.0002653982143 0.000114951678)
(0.007558969097 -2.062536198e-06 -0.0005380936385)
(0.01014492102 -0.0004040204147 -0.0009267385053)
(0.00902929848 -2.327165233e-05 -0.001160891048)
(0.004736852385 -0.0001822501772 0.0001678374586)
(0.009158297536 0.0001596634054 0.0002065675385)
(0.01602129841 -0.000380653061 0.00124652167)
(0.007965974937 0.0005092357549 6.5405583e-05)
(0.008525665177 0.0008949088093 0.0003186557541)
(0.01278582613 1.759516765e-05 -0.000585416676)
(0.009106671522 0.0001332233481 0.0001555786685)
(0.006955768955 0.000579154398 -2.112490221e-05)
(0.004971408494 -0.0003599015977 2.35935156e-05)
(0.008474672295 -0.000177325732 -1.13646477e-05)
(0.01025069699 0.0002823692566 0.001334939281)
(0.01208592852 -0.000305305693 -0.0006723357167)
(0.008430170016 -0.0002528373135 0.0002839700797)
(0.005016112456 -0.0004107715205 -0.0005314298161)
(0.006727740759 -0.0003405920607 0.0002191640895)
(0.01168106583 6.916586807e-05 -0.0008946415107)
(0.005934178979 -0.0003475561946 -0.0004812010685)
(0.009611305978 -0.0005051284044 -0.0001566481511)
(0.008908999537 0.0002832168845 -0.0003675758742)
(0.009506467201 0.000698313388 2.188200796e-05)
(0.009465506733 0.0007196972452 0.0003480220956)
(0.005432004428 -0.0001721642847 0.0003665097034)
(0.006333683979 7.256116661e-05 0.0002604078497)
(0.004430524318 -0.0001296924822 0.0004271625164)
(0.009773477076 -0.0002692007835 -0.0002134445663)
(0.009094894056 -0.0002287417451 0.0002419673826)
(0.009898012085 0.0003329841485 -0.0003384501077)
(0.001854644329 -0.0001185258825 0.0003204390103)
(0.006959676846 -0.0001237310778 0.0004733941918)
(0.01112165012 -0.000233318602 -0.0001043223125)
(0.00827174248 0.0001469225106 -0.0001710940095)
(0.008263174158 -0.000105783062 -0.0008701339187)
(0.007678794664 0.0005580020048 -4.764849735e-05)
(0.007225129107 8.991945472e-05 0.0007598780111)
(0.007309551476 -0.00058051445 0.0002967581731)
(0.01042203398 -0.000447867609 0.0001157078668)
(0.009395364255 0.001104427568 0.0001659379318)
(0.007613021411 -0.0001933237263 0.0007303908355)
(0.01325290386 0.0005448198029 -0.0005449982909)
(0.009349246496 0.0001355073869 -0.0002468619634)
(0.008748846786 0.0002818054077 0.0007843002356)
(0.005900650758 -0.0006452500496 0.0001172978425)
(0.01345160522 -0.000926444665 0.001097479847)
(0.007783922456 0.000845167692 -0.0005320137082)
(0.01121886706 -0.0004515240036 8.860275588e-05)
(0.01578761978 0.0004407930639 -0.0005625331504)
(0.006940519371 0.0003947792628 0.0002147912262)
(0.005024714046 0.0004230724433 0.0002066024788)
(0.005760151243 -0.0001900426998 0.0009248159318)
(0.00790213416 0.000366430009 0.0003849792828)
(0.008010026182 0.0002693468582 0.0001494572316)
(0.008438747476 -8.831294844e-05 -0.0002396491186)
(0.009584926149 -0.0007459409285 0.0006244981699)
(0.0100822254 -2.822364309e-05 -0.001276589344)
(0.01199379814 0.0004948232523 9.466283748e-05)
(0.009083982162 2.714406078e-05 -0.0008846857172)
(0.006076291836 -4.481335703e-05 -0.0002153556629)
(0.009736655978 -0.0009038159774 0.0001818632521)
(0.005504415209 9.967619626e-05 -0.0005932325331)
(0.004947494626 2.45807117e-05 -0.0008170913927)
(0.01048907372 -0.0002327346954 0.0003521874681)
(0.004912245719 0.0002421526157 0.0001046749649)
(0.01350772388 -0.0006227712966 0.0001803992167)
(0.008713945951 0.0001005555233 -0.000141880875)
(0.01082830211 0.0003430851547 -0.0003457984778)
(0.0057486723 -0.0005700515544 5.717574611e-05)
(0.01535812182 0.000210859801 -7.432971031e-05)
(0.009805518652 -0.0002197693146 0.0001114649995)
(0.004988458782 0.000543553799 -0.0006260008737)
(0.008566014191 -0.0004001589114 7.114582782e-05)
(0.01022479818 -0.0001914460191 -0.0001010843026)
(0.008573673042 -0.0002199193825 8.513123528e-06)
(0.009072781721 -0.000337734825 -0.0003132963002)
(0.006878162178 0.000853816819 -0.0002093921386)
(0.006615454429 -1.644411491e-05 -0.0006332509635)
(0.007891602992 0.0003676665821 0.0009085054427)
(0.006810229153 -0.001191759708 0.0003854415039)
(0.006292380792 0.0003995880195 -5.95964695e-05)
(0.007000159102 -0.0006129249738 -9.364437375e-05)
(0.005331466316 -0.0002318213683 -0.0001222292024)
(0.01319601988 0.0003564642638 -0.0009233361968)
(0.006562334225 6.693754651e-05 0.0004078437022)
(0.007182782871 0.0001474199779 -0.000151914719)
(0.01320896542 -0.0003855763601 0.0001463869569)
(0.006890720735 8.372877065e-06 0.0001991208325)
(0.01116259918 -0.0006147054927 -0.0004053459379)
(0.01029263798 -0.001054762668 0.0008508229446)
(0.006799967108 0.0002006951252 -1.276172671e-05)
(0.006317677904 -0.0007561845121 -0.000748969201)
(0.008841020468 0.0002624920373 -7.295263087e-05)
(0.001827187416 -1.59574123e-06 2.74354983e-05)
(0.007677530164 -0.0006913221663 2.639732784e-06)
(0.00780626502 -2.287180993e-05 -4.367847714e-05)
(0.01123531292 -0.0003156846068 -0.0004280313524)
(0.008413011903 -0.0004171193312 -0.000188889151)
(0.008636529773 0.000417527253 0.000545451466)
(0.007223935007 0.0004720984336 -0.0002132606319)
(0.005703686798 -2.934585108e-06 -0.0002714065345)
(0.008950387987 -0.0003252019935 0.0005828286985)
(0.008644433088 -0.0001607103237 -0.000244246047)
(0.006001624877 0.000254365357 0.0001065176216)
(0.007926452811 -0.0003853016311 4.801941293e-05)
(0.003551306838 -2.578829261e-05 2.076598696e-05)
(0.006843198851 7.239777205e-05 0.0007574779554)
(0.008274577239 0.0002004186606 -0.0003710267712)
(0.006966629884 -8.79525571e-05 0.0001260409566)
(0.003414419152 0.0004239584777 -0.0005895179415)
(0.008117389805 0.0003351994579 3.403698257e-06)
(0.01194962789 8.713692987e-05 8.094184074e-05)
(0.007358740524 -0.0006364326619 -0.00156122302)
(0.01061193538 0.0002132731678 0.0005236496007)
(0.01078909882 -0.0004337777762 7.99020648e-05)
(0.00919079831 -0.0001099038503 -0.0001141271638)
(0.005967080189 0.0001603341902 0.000211252107)
(0.007581106484 0.000236365289 0.0003885516324)
(0.01447077172 -0.000180224102 -0.001256331112)
(0.0049424495 -4.079953987e-05 -0.0003405604056)
(0.007968718618 -0.0002293671554 -0.001142092369)
(0.00783486673 0.0002459574265 0.0003603826398)
(0.01226138093 0.0009168269019 0.0003434792575)
(0.006821493273 -0.0001445051009 7.184245883e-05)
(0.01340392689 0.0008277912285 -0.001315047398)
(0.004361958684 5.978654946e-05 0.0004727933918)
(0.001806517301 -0.0001576726455 0.0003112655315)
(0.007372577421 -0.0005652714953 -0.0002669740607)
(0.005560263054 0.0001840227918 -0.0002156350674)
(0.007839401378 -0.0003769190347 0.0004367161035)
(0.009409667041 0.0005054095681 -0.0002173345189)
(0.004622896977 -0.0002320155103 0.0002491455471)
(0.008513047463 -0.000276018846 -1.470840613e-05)
(0.007245263494 6.444638173e-05 -0.0003167065872)
(0.00659899215 0.000453054105 -0.0003432911855)
(0.009508500709 1.226642153e-05 -0.0003001196124)
(0.01272716452 -0.0002653007255 0.0001174618505)
(0.01200933907 -0.0003686594301 -0.0003202495105)
(0.00856232279 0.0001125009849 -5.311713917e-05)
(0.001719386988 -0.0002238147254 1.937157195e-05)
(0.007182582084 0.00036592374 -0.0003512910847)
(0.008477562726 0.0002101987869 0.0005130460021)
(0.005125065033 0.0002164591702 0.0004220032876)
(0.007767563828 -4.892307154e-05 0.0001305912954)
(0.007934258009 0.000268562927 0.0001490238745)
(0.00704352354 0.0003678067371 -0.0005521152994)
(0.005449768688 0.0001269738809 -0.0002100623823)
(0.001513712756 0.0001231978741 0.0001190891161)
(0.005278973428 -9.645180401e-05 -0.0001893957173)
(0.01159215885 0.000972357207 -0.0003042379308)
(0.01252091346 -0.0001424372842 -0.0005894013027)
(0.004608444966 0.0004425507696 0.0003265848426)
(0.005219541033 -0.0002389596737 -0.0003715549347)
(0.009013647658 -0.0001090803636 -9.972118515e-05)
(0.009355364986 0.0003762164317 -0.001444679325)
(0.005285057157 0.0008560362623 0.0003930912389)
(0.01148888883 0.0004937440472 -6.097871085e-05)
(0.007564319818 -3.147507137e-05 -0.0005091356654)
(0.006195115565 0.000447668819 -0.0004382020214)
(0.008339326069 -0.0004171161273 0.0001216291994)
(0.009326027666 2.127896312e-05 0.0003799016509)
(0.005557518679 3.941999172e-05 9.164956505e-05)
(0.008448035717 -0.0009493400229 0.0002512611393)
(0.008836279896 -0.0005745271706 6.357936606e-05)
(0.006058116349 -0.0003551775593 -0.0004538493226)
(0.009041751801 0.0003883369579 0.0007616112048)
(0.007653834095 0.0006694248813 0.0002163007186)
(0.01025687758 -0.0004533247202 0.0001184713596)
(0.01036001937 0.0004618603653 0.000438966967)
(0.006862637713 -0.0005000198669 0.0004837228342)
(0.007639141793 3.993572066e-06 -0.000425084799)
(0.009842939551 0.0002486653777 -0.0002235242298)
(0.004559892266 -0.0001971994343 0.0001305847309)
(0.00923916402 -0.000710043505 -0.0003066298253)
(0.01097161223 -2.682215763e-05 -0.00101932122)
(0.01203796172 -1.446189967e-05 -0.0007852238101)
(0.007535237931 0.000512569 0.0002903916181)
(0.008700067766 -0.000459757129 -6.921285046e-05)
(0.005338745664 -8.520731624e-06 -0.0006531575466)
(0.007912429414 7.269928041e-05 0.0003413725293)
(0.008211979704 0.0003659155077 0.0002427720113)
(0.006782977622 -1.376451094e-05 -0.0001780818985)
(0.004597669131 0.0002418116299 0.0001959923807)
(0.008448457303 0.0002765141295 0.0006512990316)
(0.007083935337 -0.0005119562203 -0.0002003514397)
(0.007843511911 4.139131505e-05 -0.000882288633)
(0.004477917846 0.0003409503321 0.0002073029707)
(0.007774993006 0.001248317215 -0.0005543216213)
(0.008340716611 -0.0003929378665 7.708713047e-05)
(0.01076435417 0.0004818733359 0.0004189038838)
(0.00837232347 0.0002715931501 0.0002555150857)
(0.007275800019 0.0002779336766 -0.0001713163242)
(0.007244418966 -0.0003625465563 0.0008265896668)
(0.006149979462 -5.491984893e-05 -5.99442868e-05)
(0.006579010851 -0.0002709831573 -0.0001866693713)
(0.01709257848 -0.0007631952344 -0.0007794082317)
(0.00191145383 0.0001641357125 3.286290672e-05)
(0.00601913612 5.015837863e-05 9.137030374e-05)
(0.004809001812 2.192615787e-05 -0.0003213996263)
(0.00807769424 8.203699764e-05 2.163097439e-05)
(0.001775654762 -8.851691942e-05 8.545623761e-05)
(0.008861886852 -0.0001078835481 -0.0001465954575)
(0.01484520669 0.0003606236332 0.0001418433427)
(0.007477896467 0.000267900436 0.001099312104)
(0.005610837829 9.228876226e-05 -0.0002799125495)
(0.007311454442 0.0006344706615 -0.000215549619)
(0.005030357334 -0.0001279124991 -0.0002359698096)
(0.0102638518 -5.354166217e-05 0.0005445702732)
(0.01331807905 -0.0004875018442 -0.000429015808)
(0.008812340853 -0.0001338337245 0.0003721238894)
(0.007205964512 -0.0001214203376 -0.0003056401991)
(0.01125850951 0.0003326246442 -0.0001105079453)
(0.007922763581 9.531837741e-05 0.000483982105)
(0.009218578888 -0.0001871135871 0.0005047035359)
(0.008601974793 0.0001190772898 8.910556494e-05)
(0.006213171919 8.545247053e-05 -9.124211766e-05)
(0.01060800369 0.0005127943254 -0.0002441046994)
(0.008858918583 0.0002073687413 -0.0006288805674)
(0.007144472908 -0.0003495767783 0.0002924018452)
(0.004623631938 0.0002113214924 0.0002070523351)
(0.01130170485 -0.0005552047185 0.0003998504068)
(0.01109213148 0.0006074941686 0.0005647354007)
(0.004966853374 -3.764355055e-05 0.0005237466874)
(0.00697564642 0.0003011717521 8.094784729e-05)
(0.009215952376 0.0002855902388 -4.376690277e-06)
(0.008119491126 0.000465358946 0.0001948859397)
(0.01489017427 0.0006868981864 4.880197707e-05)
(0.01058628016 0.000524733386 4.985162663e-06)
(0.004155882719 -5.444157343e-05 -0.0002025913936)
(0.01596890611 0.0001383515647 -0.0003458324322)
(0.0108647129 -2.037467862e-05 0.0008319637479)
(0.01147221127 0.0007236546757 0.001233485631)
(0.01226457487 -0.0002810835209 -0.0001677462776)
(0.01437064527 -0.0006210939194 -0.0001204146748)
(0.01316761637 -0.0004093943285 0.0001571367327)
(0.004591145435 0.0002037999664 -0.0005278907748)
(0.01030541589 0.0001185039776 0.0005020860312)
(0.003579037813 0.0001615714587 -3.434989139e-05)
(0.005389484598 -0.0003051094232 -1.434365495e-05)
(0.01095238257 -0.0003528333414 -0.0003084008786)
(0.01155079167 9.959668859e-05 -6.834881175e-05)
(0.01003236191 -0.0006162837528 0.0003562707618)
(0.008862714918 0.0002833433261 -8.776692077e-05)
(0.008496116445 5.466850445e-05 0.0003745092616)
(0.00902210839 0.0002496868701 0.0006786877147)
(0.004094049918 -0.0001802968214 0.0001293007335)
(0.005905453313 -0.0002102610683 0.0007073983344)
(0.005121438775 -0.0001966848579 0.0005213535253)
(0.01419328981 0.0007866728584 -0.0004962549799)
(0.0108040859 0.0007495930001 0.0003630161641)
(0.008166536009 0.0004106863764 0.0007816250775)
(0.006622651778 0.0002296903018 0.0003472436932)
(0.00538953138 0.0003469471364 0.0008252080896)
(0.009011254603 -0.0004286569841 -0.0001018133852)
(0.007174281069 -0.0006033301659 0.0006800810704)
(0.006696122906 0.0006272685011 8.515914112e-05)
(0.01035970457 3.913182616e-05 -0.0001779167238)
(0.006519159457 -0.0007894904557 -2.143347615e-05)
(0.00923584648 -0.000509264474 0.0004323309584)
(0.00894190671 0.0007162118279 -0.0001966397566)
(0.00888289947 0.0002965227599 0.001084443318)
(0.00904362974 0.0005962532662 0.0005445112319)
(0.008104599137 -0.0001179437651 3.393738815e-06)
(0.006892200307 -8.177678323e-05 -8.326651132e-05)
(0.005834704072 -0.0004111845373 0.0002457608719)
(0.01586844736 0.00109160911 -0.0007437689032)
(0.007571387362 -0.000647522107 -0.0001123731764)
(0.007319292184 -5.474958486e-05 -0.001137463014)
(0.006447533362 -0.0002227183537 0.0005064032667)
(0.007149791646 0.0008044265887 -0.0001774187131)
(0.008894613726 0.0002551355425 0.0003525020918)
(0.01432116938 -0.001348763602 -2.376865306e-05)
(0.006733503774 1.860368404e-05 -0.0004185459817)
(0.008029901814 -0.000872428249 0.000331441388)
(0.01012041339 -0.0003824045078 4.231325887e-05)
(0.01193123729 0.0002086439127 0.001067169504)
(0.008643614597 -4.424783713e-05 -0.0002571929642)
(0.00527277913 6.807144477e-05 0.0005826779989)
(0.006346392983 -0.0008996364551 0.0002481423418)
(0.00831653021 -6.816273435e-05 5.700126107e-05)
(0.005365002014 0.0007324009759 -0.0001467180344)
(0.008557040805 9.916959315e-05 -1.392187407e-05)
(0.01072991759 0.0001316727115 0.0005018582345)
(0.007619853028 0.0004186389935 -0.0003627376385)
(0.01207071027 -0.001655501121 0.0006670651966)
(0.002029442961 0.0004026024264 0.0001604523115)
(0.005180034297 -9.884335896e-05 -0.0002924735147)
(0.007227718943 0.0003576978357 -0.0001124503034)
(0.01006693074 -0.0005602467455 0.0004714622822)
(0.007861920191 0.0007136235909 -0.0001908658271)
(0.009945679956 5.141264108e-05 0.0002516870153)
(0.007304459264 -0.0002740370275 0.0008952705669)
(0.007971629337 -0.0002927629868 -6.2342047e-05)
(0.009104913504 -0.0009229677647 -0.0004227960653)
(0.01027260472 0.0006981055473 -0.0004113483483)
(0.008368177169 0.0004947399626 0.000327737486)
(0.006149655553 -4.265010183e-05 0.0004147806119)
)
;

boundaryField
{
    flow
    {
        type            zeroGradient;
    }
    obstacle
    {
        type            calculated;
        value           nonuniform List<vector> 0();
    }
    frontAndBack
    {
        type            empty;
    }
    procBoundary2to0
    {
        type            processor;
        value           nonuniform List<vector> 
31
(
(0.006576588658 -0.0006138597953 0.0001020529245)
(0.007944176295 0.0003647780754 -0.0007243224891)
(0.007916753189 7.081703714e-05 -0.00118961667)
(0.005535775072 0.0002259347894 0.0003242661207)
(0.01110507808 0.00057752835 0.0005711577488)
(0.009764571004 0.0003063624022 -0.0006119937147)
(0.0106159728 0.0005538347234 0.0006328330754)
(0.01005062689 0.0002127484341 -0.0003440872786)
(0.009200080885 0.0002621262288 -0.0003580031518)
(0.009064448677 -0.0004215254906 0.0001369641979)
(0.00656528729 -0.0001726511925 0.0002347523149)
(0.007904914533 0.0004382363589 -0.0001520923141)
(0.008021342352 -0.0003082728047 0.0002327895287)
(0.006068267965 -0.0002024273467 0.0002662352806)
(0.008851632788 6.88345976e-05 -0.0007397118809)
(0.005548627928 0.0001763751403 0.0001252098689)
(0.007557753363 -8.453186043e-05 0.0002285069914)
(0.007973435762 -0.0008667076441 0.0002817377435)
(0.006864418116 -4.043354624e-06 -8.696288233e-05)
(0.005318570179 0.0001871578595 -0.0004315831892)
(0.01084850887 0.0004560428417 0.000751148375)
(0.007746335765 0.0002687082879 -0.0002990189583)
(0.006820821892 -0.0006965596708 -5.866263088e-05)
(0.004419075994 -0.0002878937728 -0.0005489883701)
(0.007794118266 -0.0001185232722 5.787951293e-05)
(0.007046890551 -0.0002634665383 -9.299465123e-05)
(0.01268883518 0.0004785600645 0.0001793674193)
(0.01387460586 0.0008630630301 0.0002716120671)
(0.007959912598 -0.0001370865191 -0.0005736125848)
(0.008843425995 -0.0001048685484 0.0005340076091)
(0.008843425995 -0.0001048685484 0.0005340076091)
)
;
    }
    procBoundary2to3
    {
        type            processor;
        value           nonuniform List<vector> 
19
(
(0.005649168585 0.0001086986706 5.941287005e-05)
(0.007794493726 -0.000184459597 -0.0003551939447)