/*--------------------------------*- C++ -*----------------------------------*\
| =========                 |                                                 |
| \\      /  F ield         | OpenFOAM: The Open Source CFD Toolbox           |
|  \\    /   O peration     | Version:  2406                                  |
|   \\  /    A nd           | Website:  www.openfoam.com                      |
|    \\/     M anipulation  |                                                 |
\*---------------------------------------------------------------------------*/
FoamFile
{
    version     2.0;
    format      ascii;
    arch        "LSB;label=32;scalar=64";
    class       volScalarField;
    location    "0.006";
    object      overallT;
}
// * * * * * * * * * * * * * * * * * * * * * * * * * * * * * * * * * * * * * //

dimensions      [1 2 -2 0 0 0 0];

internalField   nonuniform List<scalar> 
546
(
291.5945077
302.9774768
300.0503194
300.0342576
299.7166166
298.6285685
299.5878734
300.7374301
300.2844547
299.5730947
301.2548151
300.7582763
299.8230074
299.2411794
298.9338099
298.7224508
298.1715903
297.6721411
299.1670227
300.0953669
296.2807987
304.6383867
299.7706726
299.266913
299.3781093
299.5998766
299.7663369
299.6489761
299.7541554
300.2277688
298.6130826
298.052104
299.6797365
300.4649497
300.346657
299.3436526
300.0192537
301.8423278
299.5654156
298.6330682
293.0590931
302.8291981
298.0927711
297.8474489
300.0198827
301.1415686
300.0994405
300.0023021
299.6180717
299.6427262
298.4920844
299.8394003
298.9123939
296.9387774
297.090642
298.2409435
296.7294954
297.436494
299.8794335
299.6915583
294.5281548
303.3232636
300.3914255
299.1502213
297.328005
297.1334548
298.5196442
297.8086725
297.451161
297.3724627
299.1268409
299.6839877
300.1447325
301.2063903
301.6740633
301.1588956
300.1562732
300.8936849
301.5176629
299.7706908
293.2348712
303.7340584
300.0451674
301.539602
300.6354585
300.5694818
299.2855931
298.502825
300.3880989
299.8596774
299.3356942
298.8733572
299.946084
301.2182835
300.923141
302.8293276
303.2397557
303.0816265
300.6779917
301.3471213
295.1785463
304.8759429
299.1774089
298.4554803
299.9066063
300.1350515
299.6544804
300.254227
299.951864
300.2745008
299.9526488
299.5168281
299.4333635
300.3131561
300.0572344
300.7500986
302.1101603
301.2614368
302.5842456
303.7321235
291.4855627
300.1652289
296.3144595
298.356973
298.0344584
298.4297292
300.1182253
302.0057029
300.3983518
299.2261917
299.5484754
298.9086523
299.7126703
298.5074214
299.089253
299.2496547
299.22256
301.0731186
301.3859076
301.337495
293.3195065
303.8926655
299.4723772
299.9604185
300.526064
299.2602238
299.0126163
297.9885068
297.7133354
299.137659
299.6146411
298.4500276
298.6632265
299.4395302
298.3190381
299.6410655
299.4916325
298.1047036
297.9388862
299.250897
294.8989894
304.3264907
299.6572206
298.8518185
298.1820812
298.8979974
299.1275077
300.1235125
300.8100354
302.7070657
301.1342207
302.8656102
303.1350668
301.6837748
301.4976944
300.0547535
300.2184687
299.584322
299.7139341
299.7097834
293.9588508
305.1954186
300.5634508
299.1291993
299.0144696
297.6622476
298.1705996
299.5266219
301.2123386
300.1376521
300.1638061
300.2836427
299.7116323
299.667562
300.78882
299.9115456
299.2612052
301.2570903
298.7863837
298.1685932
294.2377114
304.0946997
299.369144
300.8716931
302.0484138
303.320808
301.9057012
299.8142078
298.603964
298.8478445
297.7417443
297.0396578
296.9891559
297.3515763
296.4167171
296.7002606
299.8634253
298.2366703
299.8715063
300.5487518
292.9529458
302.635151
297.8709162
300.1919395
297.801836
297.4914763
296.9217493
297.4000583
297.0981037
296.6563116
295.9991911
296.7808387
298.2382004
299.9678019
300.0009016
299.1936857
299.0707509
301.1849178
301.5195669
300.7174906
293.3450062
303.7227204
299.4157864
300.2012209
301.1666376
300.3469816
300.2837162
299.3521706
299.1306318
298.6058327
300.0813464
300.7094481
300.5248877
299.7354262
299.3216429
300.0534922
299.5500271
299.3810959
299.9031069
300.6289188
293.3636936
302.7813171
299.9180762
300.2471794
300.6562199
299.7751245
301.0110516
302.9271037
303.5892712
303.4710263
300.2719176
299.8321118
298.8011302
298.859281
298.6285083
298.9009378
298.4441915
298.500636
298.4010424
297.946243
295.7186293
305.0099293
299.3940775
299.2753734
300.1805842
301.9619166
303.2367153
303.2967732
301.9058733
302.5310489
302.9589059
302.1019644
302.6307824
301.9229235
301.2624888
301.3645072
302.0273821
302.6001659
301.985462
299.9311717
292.6446912
301.9863665
298.7230963
301.0981047
300.9084432
300.3069382
300.2838367
297.9413327
299.2340481
300.6002898
301.4349885
301.1009945
301.3030256
301.8263519
300.298215
298.982488
299.438642
298.0925574
297.3671955
299.5569678
294.2304106
304.7583331
300.9337754
299.3879572
299.6825809
298.2310237
297.9918401
297.7986824
297.4448268
297.4959994
297.5383345
298.4873219
298.8980888
298.3328777
298.980979
299.040033
298.3203159
298.5397941
298.707436
297.1115142
294.1159083
301.1946784
297.699684
297.348347
295.5124264
295.9338123
296.9891547
298.8834603
298.4454075
297.5542022
297.5670436
295.9360353
296.7061926
295.6378424
295.7678711
295.0054233
296.0526039
297.2901196
295.7346435
296.8023239
304.8035427
306.8675452
304.3587555
306.5161451
309.731023
311.7696024
300.6215839
302.7666881
300.9137551
301.2983804
302.1930223
301.5710924
300.8452384
305.4648015
304.3480021
307.4522002
297.288047
297.480272
297.3646208
299.7025552
302.7268551
304.1924934
303.590189
303.5429172
305.6435811
309.3284124
302.9068796
302.7329656
302.1200866
299.9965728
298.6552122
299.9022844
299.6946449
302.5667649
304.3694456
305.3605223
298.0416075
299.4104908
300.6823851
300.8287554
299.7034938
302.8673979
302.5204767
300.4747919
302.0417171
302.0925616
301.2366822
301.655952
301.1122088
301.3752619
301.8337007
303.5318128
304.8904689
305.2270834
303.8690735
305.0413804
302.1771712
301.3568448
301.5699185
301.70293
302.3231965
299.7008692
300.5480556
300.026786
299.5578563
299.7914145
302.7290182
301.7808033
302.0481503
300.3263562
301.6925049
302.0529294
300.0490946
302.3651032
301.2808061
301.6201149
298.0131481
300.3826639
300.6049507
300.3351285
302.4736423
301.1527623
302.5450862
303.2292152
302.298099
301.2972132
300.2044641
300.4881772
301.4638579
299.1366722
300.1842284
300.3534467
299.3925881
300.6090696
301.7321901
302.4575164
299.3524214
299.7488367
301.3397293
302.8585108
300.2548771
301.3446917
301.7024874
301.889245
302.1301869
300.5767312
299.5657991
298.5895761
297.4438141
298.4640123
299.5536747
299.756844
299.3343813
298.6759482
299.1586284
300.9586635
300.2054335
301.5050391
301.0748353
301.7654653
299.9338115
299.4786958
300.625332
300.8028036
300.8844721
302.2185558
302.079924
301.7173838
302.1861939
300.5896316
302.0931798
302.2707773
301.9369578
302.0412094
301.7085229
299.0480954
297.5131109
298.1665437
297.7365031
299.5981907
300.4640894
298.7855529
298.7060546
299.3827437
298.2950686
299.8836748
299.2013715
299.1622664
299.7035241
297.7756934
297.0380028
297.4098197
297.2288094
297.0195771
297.9040014
298.6224242
298.0343127
299.0527372
298.2314113
299.2078967
299.5498887
298.3255836
300.158382
300.3309064
300.3315293
300.2863415
298.2476191
298.0079417
296.5583323
298.0154641
297.6500712
299.1895918
300.6679782
301.0063294
301.5921126
300.0185647
298.6004497
298.1617347
299.1766229
298.6502862
298.8328821
297.2729155
296.7332239
295.5376505
296.4903513
297.0947053
)
;

boundaryField
{
    flow
    {
        type            calculated;
        value           nonuniform List<scalar> 
48
(
291.5945077
296.2807987
293.0590931
294.5281548
293.2348712
295.1785463
291.4855627
293.3195065
294.8989894
293.9588508
294.2377114
292.9529458
293.3450062
293.3636936
295.7186293
292.6446912
294.2304106
294.1159083
294.1159083
301.1946784
297.699684
297.348347
295.5124264
295.9338123
296.9891547
298.8834603
298.4454075
297.5542022
297.5670436
295.9360353
296.7061926
295.6378424
295.7678711
295.0054233
296.0526039
297.2901196
295.7346435
296.8023239
298.6004497
298.1617347
299.1766229
298.6502862
298.8328821
297.2729155
296.7332239
295.5376505
296.4903513
297.0947053
)
;
    }
    obstacle
    {
        type            calculated;
        value           nonuniform List<scalar> 0();
    }
    frontAndBack
    {
        type            empty;
    }
    procBoundary2to0
    {
        type            processor;
        value           nonuniform List<scalar> 
31
(
294.9889117
304.3551571
299.7435049
300.7538718
300.4550807
301.1720168
300.7761512
301.8315138
302.0228536
301.1646832
300.7723163
300.5367872
300.4556123
302.171649
302.4185908
299.8429065
298.7529072
301.2528278
301.0083234
300.9818221
305.3600922
306.2692273
309.5928469
314.1105212
316.9908496
317.3356319
298.6565614
300.2276242
302.0275607
304.0449019
304.0449019
)
;
    }
    procBoundary2to3
    {
        type            processor;
        value           nonuniform List<scalar> 
19
(
315.3618888
311.3476655
312.1354225
308.1034845
305.8242525
305.3586623
300.8859273
303.3841495
301.4705655
301.7126182
300.7386293
302.5225971
301.5469358
298.6980177
302.0911923
298.7181808
301.0001404
300.5408422
298.2099992
)
;
    }
}


// ************************************************************************* //
