/*--------------------------------*- C++ -*----------------------------------*\
| =========                 |                                                 |
| \\      /  F ield         | OpenFOAM: The Open Source CFD Toolbox           |
|  \\    /   O peration     | Version:  2406                                  |
|   \\  /    A nd           | Website:  www.openfoam.com                      |
|    \\/     M anipulation  |                                                 |
\*---------------------------------------------------------------------------*/
FoamFile
{
    version     2.0;
    format      ascii;
    arch        "LSB;label=32;scalar=64";
    class       volScalarField;
    location    "0.006";
    object      p;
}
// * * * * * * * * * * * * * * * * * * * * * * * * * * * * * * * * * * * * * //

dimensions      [1 -1 -2 0 0 0 0];

internalField   nonuniform List<scalar> 
546
(
0.3035724679
0.416046267
0.4144399326
0.4132224929
0.4140939432
0.4116485233
0.4150494985
0.4159265955
0.4119007197
0.4115048439
0.417377524
0.4173443673
0.4146913188
0.4124328954
0.411991048
0.4106363191
0.4128445813
0.4085351756
0.4081289179
0.4094889694
0.3137488182
0.420712194
0.4122371078
0.4122806028
0.4132501259
0.4157100528
0.41561398
0.4155093001
0.4142601219
0.4153773664
0.4127200763
0.4134825062
0.4172341494
0.4152036063
0.4132691466
0.410391427
0.4116533074
0.4188894305
0.4178442674
0.4154499147
0.3087270015
0.4180296464
0.4081990157
0.4087534692
0.4098776242
0.4107268907
0.4089080649
0.4104732681
0.4095064692
0.4134629065
0.4089998252
0.4144800068
0.410168016
0.4087478166
0.4097934617
0.4092241637
0.403540714
0.4043605191
0.4052426085
0.4060873818
0.3126511114
0.4251021142
0.4194230955
0.4121733292
0.4075977132
0.407504308
0.4112345474
0.4075155581
0.4088187347
0.4055791729
0.4108387172
0.4108803011
0.4143259865
0.4133121067
0.4188658957
0.4171869634
0.4136904345
0.4171238879
0.4241550338
0.419908789
0.3081437723
0.4218489905
0.4140204837
0.4192374924
0.417786125
0.4150704182
0.411439277
0.4116935005
0.4123152087
0.4074464745
0.4071791962
0.4047824602
0.4095475347
0.4140189462
0.4155454248
0.420999876
0.4268472121
0.4242959226
0.4161861629
0.416289217
0.3116104635
0.4204019253
0.4089799617
0.4050088468
0.4099280596
0.4102737894
0.409377942
0.4105299547
0.4122471996
0.4142664464
0.4195687117
0.4167925293
0.4153252458
0.4158631642
0.4192429418
0.424313668
0.4250521264
0.4194962093
0.4258088179
0.4277051702
0.3059525858
0.4126992816
0.4076999187
0.4136998826
0.4101572366
0.4144456017
0.4161966998
0.4213409101
0.4163951315
0.4177536119
0.4132729484
0.4139288852
0.4176735298
0.4128043467
0.4121185157
0.4097215925
0.4142961524
0.4162434905
0.4146840702
0.4137134615
0.307614597
0.4208071696
0.4155939894
0.4154859394
0.4163802003
0.4130719741
0.4150818205
0.4146954632
0.4169824204
0.4154616991
0.4161105942
0.4111490333
0.4097870149
0.4133416852
0.411947322
0.4179083271
0.4158983963
0.4138126986
0.4167248406
0.4204165879
0.3119276964
0.4209453285
0.4092171392
0.4080049328
0.4063938142
0.405504679
0.4065909812
0.4097210644
0.4118956167
0.4201813888
0.4191766471
0.4224003115
0.4214171001
0.4176535474
0.4166482705
0.4107027339
0.4107907969
0.4116432288
0.4080421306
0.4069776058
0.3084314075
0.4212897203
0.4133212109
0.4138991926
0.412192773
0.4138220442
0.4136672962
0.4154961288
0.415861687
0.4095097947
0.4083545277
0.4112422316
0.412796667
0.4151103353
0.4172639111
0.4163035782
0.4134321645
0.4124591749
0.4079411308
0.4067417577
0.3144141176
0.4250573358
0.4129833901
0.4146546691
0.4179718456
0.4178029221
0.4168563684
0.4102359344
0.4103777846
0.4137436374
0.410780406
0.4098766829
0.4102882017
0.4083856308
0.4034322385
0.4065172005
0.4143701966
0.4163720823
0.4211929781
0.4241189117
0.3055136964
0.4178074789
0.4091862695
0.4153572958
0.4103951339
0.4068049762
0.4088284335
0.4053005016
0.4064716052
0.4055219932
0.4043637155
0.4080018311
0.4101556147
0.4155900794
0.4185973156
0.4152541379
0.4170505673
0.4173494534
0.4188607547
0.4158492834
0.3102435185
0.4231939532
0.4156310537
0.4135823952
0.4152490566
0.4106852524
0.4126495587
0.4157306111
0.4156875426
0.4149785409
0.4141612294
0.4162835202
0.4158867504
0.4106559447
0.4093422394
0.411663052
0.4048378737
0.4057507864
0.4095583803
0.4110857117
0.3060128005
0.4133132433
0.4108783263
0.4136143556
0.4155402407
0.4148670793
0.4152874557
0.4168395648
0.4188930062
0.4199273948
0.41321394
0.4101610712
0.4056720979
0.4096532177
0.4069709611
0.4111987133
0.4139044686
0.4105598057
0.4098617018
0.4080052656
0.3144000431
0.4241387829
0.4106120922
0.4051954715
0.4100726028
0.4134078784
0.4153254764
0.4202727119
0.4170940862
0.415062345
0.4118379328
0.4126553504
0.4171726245
0.4120961328
0.4153409079
0.4152565742
0.4119043935
0.41394841
0.4154816217
0.4124710888
0.3084428584
0.417934654
0.4125606746
0.4198348658
0.4197864795
0.416498053
0.4113633592
0.4056913616
0.4094919926
0.4150139786
0.41544713
0.4162017685
0.4142086039
0.4177103364
0.4191622221
0.4125562677
0.414391977
0.408356053
0.4086641514
0.4123556864
0.3128285458
0.4276846253
0.420480274
0.4172192201
0.4132615245
0.4135617423
0.4174921398
0.4182620541
0.4140490412
0.418740304
0.4167583646
0.4193569655
0.4208221379
0.4160400185
0.4140895345
0.414032189
0.411438297
0.41250625
0.4169477473
0.4128167626
0.304050164
0.4055185511
0.3994697109
0.400994044
0.3981288388
0.4005303311
0.4040120057
0.4084675027
0.4085480928
0.409876073
0.413501838
0.4083809887
0.4089114607
0.4098996273
0.4107159666
0.4095348355
0.4091439499
0.4113625954
0.4089498577
0.4045090395
0.4222481572
0.4269366741
0.4222928663
0.4277078381
0.435598781
0.4458699115
0.4142268098
0.4201801046
0.4190883061
0.4175166332
0.4204069607
0.4209653007
0.4223375774
0.4344506199
0.4283709443
0.4346329257
0.4141764431
0.4112446744
0.4124409755
0.4182283095
0.4245093367
0.4264856763
0.4263169256
0.4246250386
0.4300490291
0.4402662735
0.4109397705
0.415154368
0.4195739558
0.4130585832
0.4133996771
0.4150582723
0.4151883635
0.4221142649
0.4286734001
0.4345719804
0.420496163
0.4220179671
0.4217659222
0.4234770931
0.4213206536
0.4256644654
0.4237375265
0.4186467839
0.4193910644
0.4213122546
0.4155193149
0.4172442911
0.4155584094
0.4164021581
0.4180430745
0.4217322152
0.4277899748
0.4309779693
0.4265703335
0.4289821386
0.423589467
0.4189809836
0.420781468
0.421658111
0.4301950493
0.4230935339
0.4193569046
0.4198754941
0.4203671609
0.4215936475
0.4184661009
0.4175699372
0.4198063345
0.4166117852
0.4159627923
0.4162564707
0.4157218424
0.4194501495
0.4134259486
0.4133606408
0.419934037
0.4225910163
0.4179382017
0.4134522979
0.4142510723
0.4152287801
0.415271507
0.4163664037
0.4168240332
0.4131861982
0.4043188468
0.4070079576
0.410036492
0.4056621971
0.4126654589
0.4119901911
0.4084522696
0.4097062738
0.412737314
0.4147824608
0.4084701921
0.4144220252
0.4190649283
0.4226218063
0.4144278692
0.4154871762
0.4221933303
0.420980866
0.4233465268
0.4169165126
0.4188135805
0.4161725075
0.4109063904
0.4128532746
0.4168802293
0.4193610739
0.4130166774
0.4132231528
0.4158310971
0.4204878681
0.4147184397
0.4157243547
0.4172760893
0.4167172786
0.4082709103
0.4063597812
0.4090547194
0.413089608
0.4149026931
0.4165305373
0.4141592483
0.4151531307
0.4182269
0.4178930612
0.4180369166
0.4203336394
0.4161287888
0.4149697423
0.4116759451
0.4077926934
0.4077381258
0.4131795305
0.4102542179
0.4148893678
0.4178019878
0.4143806665
0.4123098009
0.4135500319
0.4065891738
0.4035838196
0.411207033
0.4094924622
0.412473829
0.4066831036
0.4077120227
0.4055452837
0.4050905
0.4051913962
0.4114670615
0.4162861039
0.4088857696
0.4115764334
0.4103235608
0.4116029498
0.4137848884
0.4108316786
0.4180347567
0.4152454488
0.4162208452
0.4173079278
0.409906324
0.4097208411
0.4078423515
0.4100118639
0.4103170471
0.4155521938
0.4190752258
0.4196549812
0.4219013998
0.4201621614
0.4123444128
0.4089517126
0.4098866429
0.4108871583
0.408729753
0.4040134823
0.404137527
0.4007608483
0.3972771071
0.399868494
)
;

boundaryField
{
    flow
    {
        type            calculated;
        value           nonuniform List<scalar> 
48
(
0.3035724679
0.3137488182
0.3087270015
0.3126511114
0.3081437723
0.3116104635
0.3059525858
0.307614597
0.3119276964
0.3084314075
0.3144141176
0.3055136964
0.3102435185
0.3060128005
0.3144000431
0.3084428584
0.3128285458
0.304050164
0.304050164
0.4055185511
0.3994697109
0.400994044
0.3981288388
0.4005303311
0.4040120057
0.4084675027
0.4085480928
0.409876073
0.413501838
0.4083809887
0.4089114607
0.4098996273
0.4107159666
0.4095348355
0.4091439499
0.4113625954
0.4089498577
0.4045090395
0.4123444128
0.4089517126
0.4098866429
0.4108871583
0.408729753
0.4040134823
0.404137527
0.4007608483
0.3972771071
0.399868494
)
;
    }
    obstacle
    {
        type            calculated;
        value           nonuniform List<scalar> 0();
    }
    frontAndBack
    {
        type            empty;
    }
    procBoundary2to0
    {
        type            processor;
        value           nonuniform List<scalar> 
31
(
0.3106577435
0.418851256
0.4104617358
0.4085867706
0.4097461607
0.4093981255
0.4131038092
0.4185667627
0.4232858838
0.421290916
0.4139204209
0.4144405104
0.4150727368
0.4178657207
0.4197017919
0.4148595299
0.4136493098
0.4188708886
0.4196879184
0.419814589
0.4215988836
0.4210703515
0.4230002994
0.4351229738
0.4497970085
0.4514897461
0.4127006488
0.4149831564
0.4175628313
0.4210485665
0.4210485665
)
;
    }
    procBoundary2to3
    {
        type            processor;
        value           nonuniform List<scalar> 
19
(
0.4530393824
0.4452903545
0.4476314963
0.4376067202
0.4277250779
0.4302789937
0.4278722109
0.4154976873
0.4131927726
0.4130896415
0.4165144988
0.4252033695
0.4184866116
0.4077820299
0.4117700109
0.4144444211
0.4236689974
0.4171298888
0.4010945254
)
;
    }
}


// ************************************************************************* //
