/*--------------------------------*- C++ -*----------------------------------*\
| =========                 |                                                 |
| \\      /  F ield         | OpenFOAM: The Open Source CFD Toolbox           |
|  \\    /   O peration     | Version:  2406                                  |
|   \\  /    A nd           | Website:  www.openfoam.com                      |
|    \\/     M anipulation  |                                                 |
\*---------------------------------------------------------------------------*/
FoamFile
{
    version     2.0;
    format      ascii;
    arch        "LSB;label=32;scalar=64";
    class       volScalarField;
    location    "0.006";
    object      rhoM;
}
// * * * * * * * * * * * * * * * * * * * * * * * * * * * * * * * * * * * * * //

dimensions      [1 -3 0 0 0 0 0];

internalField   nonuniform List<scalar> 
546
(
2.974446132e-06
5.671463354e-06
6.01783293e-06
3.389756375e-06
5.049331109e-06
6.01783293e-06
6.155714265e-06
4.427198864e-06
3.942947953e-06
5.464641352e-06
6.01783293e-06
5.53358202e-06
1.452752732e-06
2.490195221e-06
2.00594431e-06
8.576968818e-06
5.602522687e-06
4.496139531e-06
5.326760018e-06
4.427198864e-06
3.942947953e-06
4.496139531e-06
3.458697042e-06
8.092717908e-06
4.427198864e-06
3.596578377e-06
5.049331109e-06
3.52763771e-06
5.602522687e-06
4.358258196e-06
4.565080198e-06
4.496139531e-06
5.118271776e-06
3.112327466e-06
5.53358202e-06
1.210460653e-05
3.043386799e-06
7.53952633e-06
4.565080198e-06
4.01188862e-06
4.496139531e-06
4.980390442e-06
6.502083841e-06
1.452752732e-06
5.464641352e-06
2.559135888e-06
6.502083841e-06
4.980390442e-06
5.049331109e-06
6.01783293e-06
3.942947953e-06
3.112327466e-06
4.01188862e-06
6.155714265e-06
3.043386799e-06
4.496139531e-06
5.948892263e-06
5.879951596e-06
2.905505464e-06
2.00594431e-06
3.389756375e-06
4.080829287e-06
3.942947953e-06
4.080829287e-06
2.974446132e-06
5.948892263e-06
3.52763771e-06
4.01188862e-06
3.043386799e-06
2.974446132e-06
6.433143174e-06
2.490195221e-06
6.433143174e-06
3.874007286e-06
6.917394084e-06
4.911449774e-06
5.395700685e-06
6.986334752e-06
3.52763771e-06
5.464641352e-06
2.559135888e-06
6.986334752e-06
5.464641352e-06
5.464641352e-06
4.634020865e-06
2.421254554e-06
4.911449774e-06
5.118271776e-06
3.112327466e-06
4.080829287e-06
4.427198864e-06
4.911449774e-06
4.911449774e-06
5.049331109e-06
6.433143174e-06
4.080829287e-06
5.049331109e-06
5.464641352e-06
5.395700685e-06
3.52763771e-06
4.980390442e-06
4.565080198e-06
6.364202506e-06
2.974446132e-06
6.571024508e-06
5.879951596e-06
2.559135888e-06
3.112327466e-06
4.842509107e-06
5.53358202e-06
3.942947953e-06
4.842509107e-06
1.937003643e-06
3.112327466e-06
4.980390442e-06
6.986334752e-06
5.049331109e-06
5.118271776e-06
5.671463354e-06
6.086773598e-06
1.452752732e-06
6.01783293e-06
5.464641352e-06
4.496139531e-06
4.427198864e-06
4.496139531e-06
6.639965176e-06
7.608466997e-06
8.992279062e-06
5.464641352e-06
6.01783293e-06
4.01188862e-06
4.842509107e-06
5.049331109e-06
3.458697042e-06
4.980390442e-06
4.496139531e-06
3.043386799e-06
4.149769955e-06
5.326760018e-06
1.937003643e-06
5.53358202e-06
5.395700685e-06
3.458697042e-06
5.049331109e-06
4.01188862e-06
5.049331109e-06
3.389756375e-06
2.974446132e-06
4.496139531e-06
3.52763771e-06
6.986334752e-06
7.53952633e-06
4.149769955e-06
5.464641352e-06
4.427198864e-06
2.559135888e-06
5.879951596e-06
6.917394084e-06
3.874007286e-06
2.974446132e-06
3.52763771e-06
4.565080198e-06
6.917394084e-06
6.848453417e-06
6.571024508e-06
5.464641352e-06
6.848453417e-06
4.911449774e-06
6.433143174e-06
5.049331109e-06
4.01188862e-06
6.917394084e-06
3.942947953e-06
5.395700685e-06
4.911449774e-06
6.155714265e-06
3.112327466e-06
6.364202506e-06
6.571024508e-06
5.602522687e-06
4.080829287e-06
6.502083841e-06
3.52763771e-06
4.980390442e-06
4.358258196e-06
7.677407664e-06
5.53358202e-06
5.671463354e-06
4.565080198e-06
4.080829287e-06
3.52763771e-06
3.458697042e-06
3.458697042e-06
3.389756375e-06
3.458697042e-06
5.879951596e-06
4.427198864e-06
3.942947953e-06
3.043386799e-06
2.974446132e-06
4.358258196e-06
3.942947953e-06
2.559135888e-06
2.490195221e-06
4.427198864e-06
5.948892263e-06
2.974446132e-06
3.52763771e-06
8.576968818e-06
4.427198864e-06
5.118271776e-06
3.874007286e-06
6.01783293e-06
1.937003643e-06
5.395700685e-06
1.521693399e-06
6.433143174e-06
4.634020865e-06
2.421254554e-06
2.974446132e-06
5.464641352e-06
4.01188862e-06
4.496139531e-06
5.464641352e-06
4.080829287e-06
3.389756375e-06
2.421254554e-06
6.01783293e-06
5.948892263e-06
5.53358202e-06
4.911449774e-06
4.01188862e-06
4.358258196e-06
6.848453417e-06
5.602522687e-06
4.980390442e-06
7.608466997e-06
4.634020865e-06
7.746348332e-06
3.389756375e-06
5.049331109e-06
5.464641352e-06
2.490195221e-06
5.948892263e-06
6.086773598e-06
5.049331109e-06
5.049331109e-06
5.049331109e-06
4.01188862e-06
5.671463354e-06
5.395700685e-06
2.974446132e-06
5.118271776e-06
8.508028151e-06
4.980390442e-06
4.911449774e-06
7.53952633e-06
5.53358202e-06
4.01188862e-06
3.043386799e-06
4.427198864e-06
6.01783293e-06
7.470585662e-06
5.118271776e-06
2.974446132e-06
3.942947953e-06
6.986334752e-06
3.389756375e-06
5.464641352e-06
4.634020865e-06
5.464641352e-06
5.256153111e-06
3.458697042e-06
3.389756375e-06
2.421254554e-06
5.740404021e-06
4.980390442e-06
5.948892263e-06
9.685018214e-07
4.080829287e-06
6.086773598e-06
4.565080198e-06
4.911449774e-06
4.496139531e-06
3.942947953e-06
4.080829287e-06
5.879951596e-06
6.01783293e-06
4.358258196e-06
7.608466997e-06
5.187212443e-06
5.395700685e-06
3.389756375e-06
7.470585662e-06
4.565080198e-06
6.295261839e-06
9.061219729e-06
4.565080198e-06
2.974446132e-06
3.52763771e-06
4.358258196e-06
4.565080198e-06
4.911449774e-06
5.464641352e-06
5.53358202e-06
6.986334752e-06
4.980390442e-06
3.596578377e-06
4.980390442e-06
2.974446132e-06
3.043386799e-06
6.155714265e-06
2.905505464e-06
7.055275419e-06
4.980390442e-06
6.433143174e-06
3.458697042e-06
8.992279062e-06
5.740404021e-06
2.559135888e-06
4.980390442e-06
5.464641352e-06
4.427198864e-06
5.049331109e-06
4.496139531e-06
3.874007286e-06
4.980390442e-06
3.52763771e-06
3.942947953e-06
3.942947953e-06
3.043386799e-06
7.53952633e-06
3.458697042e-06
4.080829287e-06
8.02377724e-06
4.080829287e-06
6.01783293e-06
5.948892263e-06
4.01188862e-06
4.01188862e-06
5.326760018e-06
1.037442489e-06
4.496139531e-06
4.702961533e-06
6.502083841e-06
4.702961533e-06
4.842509107e-06
3.942947953e-06
3.043386799e-06
4.911449774e-06
5.049331109e-06
3.596578377e-06
4.980390442e-06
1.937003643e-06
3.874007286e-06
4.565080198e-06
3.874007286e-06
2.074884977e-06
4.980390442e-06
6.63726421e-06
4.528337126e-06
6.369341925e-06
6.269705828e-06
5.28689197e-06
3.254189527e-06
4.442898838e-06
8.527248519e-06
3.166615147e-06
4.677090773e-06
4.638800223e-06
7.187342061e-06
4.198133897e-06
8.164095622e-06
2.716629357e-06
1.035585909e-06
4.442898868e-06
3.075180299e-06
4.434278388e-06
5.031959007e-06
3.068824086e-06
5.03148573e-06
3.763543565e-06
3.645218647e-06
5.433258752e-06
7.840610217e-06
7.011110074e-06
5.032419334e-06
1.055538382e-06
4.180958094e-06
4.567672097e-06
3.018891417e-06
4.270275021e-06
4.738608664e-06
4.331970293e-06
3.180473604e-06
9.719363755e-07
3.425168288e-06
6.755784708e-06
7.228386437e-06
2.640336237e-06
3.090522461e-06
4.849147567e-06
5.321632845e-06
3.084315091e-06
6.434663154e-06
4.581269135e-06
3.494829161e-06
4.997119172e-06
5.102591264e-06
3.068824107e-06
4.671599213e-06
5.283737933e-06
3.863194232e-06
5.213708579e-06
4.216059536e-06
6.108358847e-06
5.871717105e-06
4.011723974e-06
4.465194106e-06
6.066520087e-06
2.659004953e-06
5.21159681e-06
6.342364347e-06
7.12178309e-06
4.142343665e-06
5.205607655e-06
3.005519426e-06
4.574564758e-06
5.102591264e-06
4.139184227e-06
2.587373891e-06
4.704865354e-06
4.155584379e-06
4.626472637e-06
2.662680672e-06
4.928867026e-06
4.682431322e-06
6.615498382e-06
5.102591264e-06
4.28144048e-06
3.59367103e-06
3.619261292e-06
3.645218647e-06
9.399312121e-06
1.035585909e-06
3.401777314e-06
2.585870523e-06
5.207548691e-06
9.922653502e-07
5.209544311e-06
8.768418874e-06
4.125992803e-06
3.062194416e-06
4.185603542e-06
3.106757727e-06
5.900803402e-06
7.128980116e-06
5.067262391e-06
4.1103259e-06
6.208776383e-06
4.599968201e-06
5.139455651e-06
4.665950079e-06
3.744734387e-06
5.9905861e-06
4.85968191e-06
4.053799817e-06
2.533631178e-06
6.449724864e-06
6.566136083e-06
2.587373891e-06
4.125992774e-06
5.32163292e-06
5.140525189e-06
8.726982672e-06
5.900803402e-06
2.51620965e-06
9.078986269e-06
6.661621487e-06
6.066520087e-06
6.467569096e-06
8.105959652e-06
7.58107137e-06
2.570262594e-06
5.9905861e-06
2.429840939e-06
3.494829185e-06
6.475212011e-06
6.590989309e-06
5.922544724e-06
5.174747818e-06
5.211596846e-06
5.2489744e-06
2.716629357e-06
3.624550655e-06
2.984994275e-06
7.618289823e-06
5.700246287e-06
4.677090773e-06
4.0680561e-06
3.59367103e-06
5.646187103e-06
4.228242869e-06
4.112420122e-06
5.843154341e-06
3.956930651e-06
5.591389966e-06
5.559959993e-06
5.739988352e-06
5.209544311e-06
4.671599213e-06
4.125992774e-06
3.134852936e-06
8.958442993e-06
4.289775436e-06
4.095300975e-06
3.984138943e-06
4.011723974e-06
5.173223487e-06
8.635728197e-06
4.0968196e-06
4.777006444e-06
5.759340096e-06
6.829049527e-06
5.251645445e-06
3.123364572e-06
3.494829185e-06
4.574564758e-06
3.118060515e-06
4.567672097e-06
6.181044964e-06
4.632724263e-06
6.487681386e-06
1.02810503e-06
2.736396573e-06
4.095300947e-06
6.150360557e-06
4.644707943e-06
5.173223487e-06
4.210312354e-06
4.528337126e-06
4.849147567e-06
6.269705828e-06
5.213708579e-06
3.698266581e-06
)
;

boundaryField
{
    flow
    {
        type            zeroGradient;
    }
    obstacle
    {
        type            calculated;
        value           nonuniform List<scalar> 0();
    }
    frontAndBack
    {
        type            empty;
    }
    procBoundary2to0
    {
        type            processor;
        value           nonuniform List<scalar> 
31
(
4.01188862e-06
4.911449774e-06
4.496139531e-06
3.458697042e-06
5.948892263e-06
5.602522687e-06
5.948892263e-06
5.879951596e-06
4.911449774e-06
5.256153111e-06
3.596578377e-06
4.496139531e-06
4.496139531e-06
3.596578377e-06
5.118271776e-06
3.043386799e-06
4.080829287e-06
4.496139531e-06
4.080829287e-06
2.905505464e-06
6.708392337e-06
4.168450643e-06
3.691402441e-06
2.6244872e-06
4.331970323e-06
4.363491336e-06
7.218665519e-06
7.687950696e-06
5.067262357e-06
5.173223487e-06
5.173223487e-06
)
;
    }
    procBoundary2to3
    {
        type            processor;
        value           nonuniform List<scalar> 
19
(
3.203785551e-06
4.246961997e-06
3.651117584e-06
5.364394658e-06
4.694294003e-06
3.873886233e-06
4.172705811e-06
3.725373774e-06
4.172705811e-06
5.364394658e-06
3.278041767e-06
2.309121554e-06
4.917062651e-06
4.395474428e-06
6.630339845e-06
4.469730644e-06
5.512907089e-06
4.39547446e-06
8.568180209e-06
)
;
    }
}


// ************************************************************************* //
