/*--------------------------------*- C++ -*----------------------------------*\
| =========                 |                                                 |
| \\      /  F ield         | OpenFOAM: The Open Source CFD Toolbox           |
|  \\    /   O peration     | Version:  2406                                  |
|   \\  /    A nd           | Website:  www.openfoam.com                      |
|    \\/     M anipulation  |                                                 |
\*---------------------------------------------------------------------------*/
FoamFile
{
    version     2.0;
    format      ascii;
    arch        "LSB;label=32;scalar=64";
    class       volScalarField;
    location    "0.006";
    object      rhoMMean;
}
// * * * * * * * * * * * * * * * * * * * * * * * * * * * * * * * * * * * * * //

dimensions      [1 -3 0 0 0 0 0];

internalField   nonuniform List<scalar> 
546
(
3.705048776e-06
4.781890404e-06
4.842597834e-06
4.807575906e-06
4.815437711e-06
4.801971162e-06
4.803634069e-06
4.777554016e-06
4.74762849e-06
4.760926401e-06
4.782393748e-06
4.806973421e-06
4.788808354e-06
4.768837499e-06
4.781385395e-06
4.763581346e-06
4.77826918e-06
4.742828609e-06
4.71455266e-06
4.702891898e-06
3.739287155e-06
4.780708416e-06
4.806389474e-06
4.823777102e-06
4.822050252e-06
4.831425975e-06
4.821702772e-06
4.821243723e-06
4.803748414e-06
4.797732803e-06
4.798770801e-06
4.787518684e-06
4.816477375e-06
4.780644474e-06
4.77497301e-06
4.77324394e-06
4.794617143e-06
4.840845783e-06
4.860883357e-06
4.865898044e-06
3.699632316e-06
4.760013858e-06
4.770706673e-06
4.758437317e-06
4.76539234e-06
4.768234459e-06
4.786935292e-06
4.796590665e-06
4.78967216e-06
4.819900317e-06
4.788931239e-06
4.822893856e-06
4.790176059e-06
4.799747287e-06
4.801982478e-06
4.788079305e-06
4.739822851e-06
4.761131557e-06
4.747384802e-06
4.750383895e-06
3.723653244e-06
4.803027696e-06
4.832513266e-06
4.791817652e-06
4.780237703e-06
4.766153465e-06
4.792850096e-06
4.775348123e-06
4.798497468e-06
4.76979045e-06
4.80437742e-06
4.793241871e-06
4.826534173e-06
4.808345014e-06
4.839403792e-06
4.820867153e-06
4.807171912e-06
4.797097896e-06
4.863203804e-06
4.85368298e-06
3.722081703e-06
4.804432267e-06
4.81167916e-06
4.838054068e-06
4.838958628e-06
4.82855678e-06
4.791342843e-06
4.802611831e-06
4.780684325e-06
4.740724634e-06
4.73896925e-06
4.728479369e-06
4.738835257e-06
4.765970178e-06
4.782524409e-06
4.804287165e-06
4.84627467e-06
4.847198878e-06
4.788400472e-06
4.783471597e-06
3.713186343e-06
4.75459351e-06
4.771367545e-06
4.761273882e-06
4.774159816e-06
4.777438559e-06
4.785923607e-06
4.775919087e-06
4.816344492e-06
4.829762304e-06
4.869679367e-06
4.848347125e-06
4.828442434e-06
4.821641052e-06
4.833032716e-06
4.865401366e-06
4.841975702e-06
4.812227908e-06
4.847592318e-06
4.851251728e-06
3.703959263e-06
4.760389525e-06
4.79388976e-06
4.82483197e-06
4.80101231e-06
4.824835858e-06
4.824829193e-06
4.840627298e-06
4.80394635e-06
4.838712719e-06
4.814409363e-06
4.830644092e-06
4.847085643e-06
4.827459491e-06
4.808140414e-06
4.782987901e-06
4.8097114e-06
4.787944756e-06
4.7861775e-06
4.794254458e-06
3.719713074e-06
4.806072749e-06
4.848592132e-06
4.838974943e-06
4.842572077e-06
4.833271613e-06
4.845101568e-06
4.838486804e-06
4.862117069e-06
4.814067992e-06
4.815824487e-06
4.787853946e-06
4.786285737e-06
4.801993586e-06
4.801347918e-06
4.84087043e-06
4.827776563e-06
4.834813857e-06
4.861254928e-06
4.8658441e-06
3.730296542e-06
4.791502039e-06
4.778932829e-06
4.775540851e-06
4.778165595e-06
4.744463537e-06
4.750455057e-06
4.777109616e-06
4.766071541e-06
4.834547744e-06
4.840797601e-06
4.85474007e-06
4.827262667e-06
4.822536725e-06
4.805823855e-06
4.75710502e-06
4.762978306e-06
4.76189768e-06
4.738265195e-06
4.71665719e-06
3.702122512e-06
4.746221697e-06
4.763999433e-06
4.796398839e-06
4.765551883e-06
4.803967456e-06
4.804289734e-06
4.813668789e-06
4.791120817e-06
4.746827514e-06
4.747868289e-06
4.757560528e-06
4.7978325e-06
4.800388859e-06
4.798858834e-06
4.804781969e-06
4.784310548e-06
4.75359814e-06
4.738976471e-06
4.737689578e-06
3.736633876e-06
4.80542486e-06
4.81231483e-06
4.808901538e-06
4.812889336e-06
4.788260369e-06
4.799098287e-06
4.756049804e-06
4.78153126e-06
4.80691913e-06
4.78404277e-06
4.793248536e-06
4.771644974e-06
4.777690786e-06
4.735774999e-06
4.763449019e-06
4.790814854e-06
4.849608816e-06
4.88341057e-06
4.89904337e-06
3.701517806e-06
4.784326308e-06
4.796406824e-06
4.808165616e-06
4.783931201e-06
4.763230533e-06
4.781313122e-06
4.75233645e-06
4.76016972e-06
4.751040115e-06
4.744628842e-06
4.777599421e-06
4.777349415e-06
4.804436155e-06
4.844694589e-06
4.835302759e-06
4.848080457e-06
4.799907593e-06
4.806972866e-06
4.796942589e-06
3.714321261e-06
4.802619607e-06
4.826713918e-06
4.807465448e-06
4.817429006e-06
4.800215223e-06
4.798070286e-06
4.822904409e-06
4.824982071e-06
4.818801154e-06
4.800950034e-06
4.791315975e-06
4.792676252e-06
4.77672284e-06
4.765119355e-06
4.772872924e-06
4.718505605e-06
4.744877736e-06
4.767606773e-06
4.760686046e-06
3.695107643e-06
4.722023801e-06
4.778532168e-06
4.781437673e-06
4.797364217e-06
4.806269019e-06
4.797468912e-06
4.796592332e-06
4.800464117e-06
4.813839856e-06
4.784539795e-06
4.768602698e-06
4.737443114e-06
4.758578739e-06
4.740315641e-06
4.781221409e-06
4.792315997e-06
4.773851076e-06
4.772006548e-06
4.774843669e-06
3.739932823e-06
4.796711676e-06
4.792884185e-06
4.743750039e-06
4.765125464e-06
4.766165684e-06
4.776211721e-06
4.800554927e-06
4.781716768e-06
4.751207295e-06
4.745705024e-06
4.759096523e-06
4.80699418e-06
4.765546329e-06
4.812951959e-06
4.789723675e-06
4.765486483e-06
4.775145744e-06
4.795784136e-06
4.799367176e-06
3.69907968e-06
4.776406671e-06
4.800637753e-06
4.825950572e-06
4.851449455e-06
4.823380884e-06
4.777155576e-06
4.758252364e-06
4.777988974e-06
4.797559167e-06
4.795552112e-06
4.792120838e-06
4.782114653e-06
4.803577e-06
4.833027717e-06
4.810490298e-06
4.818558925e-06
4.76944165e-06
4.756431928e-06
4.772820298e-06
3.748368578e-06
4.846604169e-06
4.883748053e-06
4.858966556e-06
4.811035158e-06
4.839324645e-06
4.877210562e-06
4.893019428e-06
4.861297001e-06
4.889263654e-06
4.865929356e-06
4.865120605e-06
4.87560882e-06
4.842980167e-06
4.81171068e-06
4.804925613e-06
4.807205098e-06
4.800778065e-06
4.831956742e-06
4.824534893e-06
3.639798135e-06
4.651911003e-06
4.682714221e-06
4.727581474e-06
4.738989453e-06
4.740674785e-06
4.752898181e-06
4.762348954e-06
4.762745727e-06
4.775149632e-06
4.811994218e-06
4.79530655e-06
4.782208795e-06
4.799828447e-06
4.792425691e-06
4.784292567e-06
4.776477278e-06
4.774100873e-06
4.780806446e-06
4.74215996e-06
4.805845023e-06
4.806670258e-06
4.817560434e-06
4.816756124e-06
4.816304342e-06
4.862344872e-06
4.744744305e-06
4.769652347e-06
4.798859848e-06
4.766672774e-06
4.783353708e-06
4.817898009e-06
4.851532035e-06
4.869316185e-06
4.836219771e-06
4.838789561e-06
4.850484187e-06
4.847561966e-06
4.863246559e-06
4.866586853e-06
4.866934667e-06
4.859680366e-06
4.869603133e-06
4.84521141e-06
4.873104308e-06
4.915521206e-06
4.768593394e-06
4.786470713e-06
4.812665764e-06
4.794509196e-06
4.816707141e-06
4.801771647e-06
4.800791398e-06
4.830927057e-06
4.838635781e-06
4.884931745e-06
4.873742e-06
4.869209347e-06
4.846101883e-06
4.868860206e-06
4.853913526e-06
4.846596161e-06
4.842676515e-06
4.829509966e-06
4.784146215e-06
4.794452751e-06
4.782637561e-06
4.787004747e-06
4.77855555e-06
4.782882297e-06
4.798307591e-06
4.803228145e-06
4.833402383e-06
4.881608753e-06
4.852859335e-06
4.85206451e-06
4.830581406e-06
4.813217963e-06
4.827155736e-06
4.827487473e-06
4.883035587e-06
4.864711635e-06
4.81401313e-06
4.805843883e-06
4.830617923e-06
4.847226243e-06
4.815002726e-06
4.805222887e-06
4.798845508e-06
4.806142419e-06
4.777294064e-06
4.788884263e-06
4.801365621e-06
4.796536422e-06
4.76079607e-06
4.747728525e-06
4.885642542e-06
4.877374645e-06
4.85760554e-06
4.797838403e-06
4.770272078e-06
4.772833932e-06
4.773594234e-06
4.764076722e-06
4.766622032e-06
4.744805055e-06
4.688627903e-06
4.68792559e-06
4.700251283e-06
4.696803675e-06
4.743861448e-06
4.750062723e-06
4.749778721e-06
4.726674155e-06
4.747331981e-06
4.771494887e-06
4.733456744e-06
4.797988679e-06
4.810917868e-06
4.835486587e-06
4.799114674e-06
4.786353332e-06
4.831274949e-06
4.824265089e-06
4.841449988e-06
4.779615291e-06
4.880267732e-06
4.851523446e-06
4.812581847e-06
4.815926654e-06
4.832254116e-06
4.851037069e-06
4.798418297e-06
4.798498016e-06
4.819722294e-06
4.825802497e-06
4.793825977e-06
4.791420882e-06
4.800877933e-06
4.780791963e-06
4.726345266e-06
4.72510414e-06
4.739846864e-06
4.785376937e-06
4.806477943e-06
4.827817027e-06
4.750503394e-06
4.763324642e-06
4.776881188e-06
4.795889011e-06
4.805058603e-06
4.82286136e-06
4.809797594e-06
4.80364543e-06
4.783623097e-06
4.778479602e-06
4.787491112e-06
4.839418766e-06
4.830909882e-06
4.845103348e-06
4.855862852e-06
4.852700381e-06
4.833931384e-06
4.818640529e-06
4.78230189e-06
4.732731196e-06
4.776432287e-06
4.767756701e-06
4.775940294e-06
4.75224239e-06
4.766854099e-06
4.72278944e-06
4.723582234e-06
4.750623661e-06
4.795880944e-06
4.831025636e-06
4.777083273e-06
4.784818705e-06
4.78693593e-06
4.78768166e-06
4.808365667e-06
4.80755717e-06
4.848325027e-06
4.817150076e-06
4.825199035e-06
4.826636162e-06
4.791972122e-06
4.790831427e-06
4.788500766e-06
4.77459098e-06
4.78739347e-06
4.810561091e-06
4.818744037e-06
4.839964192e-06
4.842590043e-06
4.849751776e-06
4.77968176e-06
4.750882323e-06
4.747818778e-06
4.771162683e-06
4.729078721e-06
4.721304449e-06
4.728260113e-06
4.689907667e-06
4.662174741e-06
4.67642528e-06
)
;

boundaryField
{
    flow
    {
        type            calculated;
        value           nonuniform List<scalar> 
48
(
3.705048776e-06
3.739287155e-06
3.699632316e-06
3.723653244e-06
3.722081703e-06
3.713186343e-06
3.703959263e-06
3.719713074e-06
3.730296542e-06
3.702122512e-06
3.736633876e-06
3.701517806e-06
3.714321261e-06
3.695107643e-06
3.739932823e-06
3.69907968e-06
3.748368578e-06
3.639798135e-06
3.639798135e-06
4.651911003e-06
4.682714221e-06
4.727581474e-06
4.738989453e-06
4.740674785e-06
4.752898181e-06
4.762348954e-06
4.762745727e-06
4.775149632e-06
4.811994218e-06
4.79530655e-06
4.782208795e-06
4.799828447e-06
4.792425691e-06
4.784292567e-06
4.776477278e-06
4.774100873e-06
4.780806446e-06
4.74215996e-06
4.77968176e-06
4.750882323e-06
4.747818778e-06
4.771162683e-06
4.729078721e-06
4.721304449e-06
4.728260113e-06
4.689907667e-06
4.662174741e-06
4.67642528e-06
)
;
    }
    obstacle
    {
        type            calculated;
        value           nonuniform List<scalar> 0();
    }
    frontAndBack
    {
        type            empty;
    }
    procBoundary2to0
    {
        type            processor;
        value           nonuniform List<scalar> 
31
(
3.709584211e-06
4.746052505e-06
4.769983178e-06
4.72903145e-06
4.751767707e-06
4.741597882e-06
4.795987625e-06
4.837191025e-06
4.867884341e-06
4.861749385e-06
4.798527114e-06
4.794792654e-06
4.786936403e-06
4.795739842e-06
4.797584369e-06
4.791199408e-06
4.791015566e-06
4.781148928e-06
4.803405933e-06
4.806774931e-06
4.761348399e-06
4.72664208e-06
4.703142685e-06
4.721822644e-06
4.804866508e-06
4.811079583e-06
4.797489237e-06
4.773301058e-06
4.767777093e-06
4.784338402e-06
4.784338402e-06
)
;
    }
    procBoundary2to3
    {
        type            processor;
        value           nonuniform List<scalar> 
19
(
4.865232934e-06
4.861214349e-06
4.909807113e-06
4.879891096e-06
4.792580069e-06
4.829419637e-06
4.883639462e-06
4.742625153e-06
4.741009722e-06
4.76087775e-06
4.783010215e-06
4.846068135e-06
4.846527023e-06
4.786650564e-06
4.764987859e-06
4.788927755e-06
4.875342921e-06
4.821796821e-06
4.679159869e-06
)
;
    }
}


// ************************************************************************* //
