/*--------------------------------*- C++ -*----------------------------------*\
| =========                 |                                                 |
| \\      /  F ield         | OpenFOAM: The Open Source CFD Toolbox           |
|  \\    /   O peration     | Version:  2406                                  |
|   \\  /    A nd           | Website:  www.openfoam.com                      |
|    \\/     M anipulation  |                                                 |
\*---------------------------------------------------------------------------*/
FoamFile
{
    version     2.0;
    format      ascii;
    arch        "LSB;label=32;scalar=64";
    class       volScalarField;
    location    "0.006";
    object      rhoNMean;
}
// * * * * * * * * * * * * * * * * * * * * * * * * * * * * * * * * * * * * * //

dimensions      [0 -3 0 0 0 0 0];

internalField   nonuniform List<scalar> 
546
(
7.723020976e+19
9.970708895e+19
1.0096024e+20
1.002416742e+20
1.004013555e+20
1.001132349e+20
1.001653049e+20
9.96064203e+19
9.899893708e+19
9.923845903e+19
9.969320362e+19
1.002104322e+20
9.985635625e+19
9.941896833e+19
9.971056028e+19
9.931482835e+19
9.962377696e+19
9.88739691e+19
9.823524389e+19
9.803043526e+19
7.79348903e+19
9.964460496e+19
1.001514195e+20
1.005297948e+20
1.005089668e+20
1.006512914e+20
1.004916101e+20
1.004950815e+20
1.001618335e+20
1.000507509e+20
1.000750502e+20
9.983899959e+19
1.004360688e+20
9.967584695e+19
9.956129297e+19
9.952657965e+19
9.99674389e+19
1.009255267e+20
1.013490293e+20
1.013802713e+20
7.712954111e+19
9.928011503e+19
9.946756699e+19
9.919333171e+19
9.928705769e+19
9.938425501e+19
9.978345827e+19
9.995008224e+19
9.97973436e+19
1.004291261e+20
9.976263027e+19
1.004673108e+20
9.97869296e+19
1.000021522e+20
1.000403369e+20
9.975221627e+19
9.875941512e+19
9.922804504e+19
9.891215376e+19
9.898505175e+19
7.760164236e+19
1.001097635e+20
1.006964188e+20
9.984941359e+19
9.957517831e+19
9.930441435e+19
9.983899959e+19
9.946409566e+19
9.99466109e+19
9.934259901e+19
1.000715789e+20
9.984594226e+19
1.005263235e+20
1.001653049e+20
1.008179154e+20
1.004395401e+20
1.001583622e+20
9.996049623e+19
1.01345558e+20
1.01158106e+20
7.754610103e+19
1.001271202e+20
1.003215148e+20
1.008561001e+20
1.009081701e+20
1.006721194e+20
9.989801225e+19
1.000958782e+20
9.963766229e+19
9.879412845e+19
9.873858713e+19
9.852683583e+19
9.876288645e+19
9.930788569e+19
9.964807629e+19
1.000819929e+20
1.0096024e+20
1.00991482e+20
9.974874494e+19
9.967931829e+19
7.738989106e+19
9.915514705e+19
9.943285366e+19
9.92558157e+19
9.950575165e+19
9.960294897e+19
9.977998693e+19
9.95855923e+19
1.004673108e+20
1.007380748e+20
1.016024366e+20
1.011303354e+20
1.006755908e+20
1.005367375e+20
1.007832021e+20
1.014358126e+20
1.009498261e+20
1.003041582e+20
1.010088387e+20
1.01043552e+20
7.71711971e+19
9.918638904e+19
9.987371292e+19
1.005159095e+20
1.000090949e+20
1.005402088e+20
1.004985528e+20
1.008526287e+20
1.001062922e+20
1.008075014e+20
1.002937442e+20
1.006478201e+20
1.01001896e+20
1.005645081e+20
1.001791902e+20
9.967237562e+19
1.002312602e+20
9.977304427e+19
9.97869296e+19
9.999868089e+19
7.753568704e+19
1.001826615e+20
1.010817367e+20
1.008665141e+20
1.009428834e+20
1.006964188e+20
1.009532974e+20
1.008318007e+20
1.01303902e+20
1.003145722e+20
1.003770562e+20
9.977998693e+19
9.974527361e+19
1.001097635e+20
1.000958782e+20
1.009359407e+20
1.006790621e+20
1.008561001e+20
1.013733286e+20
1.014739973e+20
7.775785233e+19
9.988759825e+19
9.96064203e+19
9.951963698e+19
9.955087898e+19
9.88947971e+19
9.899893708e+19
9.955782164e+19
9.936689834e+19
1.007727881e+20
1.009116414e+20
1.01158106e+20
1.006269921e+20
1.005332661e+20
1.002069609e+20
9.919680304e+19
9.928011503e+19
9.927664369e+19
9.879065712e+19
9.831855587e+19
7.71816111e+19
9.896769508e+19
9.934259901e+19
1.000438082e+20
9.942243967e+19
1.002382028e+20
1.002416742e+20
1.004048268e+20
9.99466109e+19
9.901976507e+19
9.906142107e+19
9.931482835e+19
1.000993495e+20
1.001340629e+20
1.000507509e+20
1.001583622e+20
9.975221627e+19
9.911001972e+19
9.878371445e+19
9.878371445e+19
7.786893497e+19
1.001548909e+20
1.002729162e+20
1.001965469e+20
1.002729162e+20
9.973485961e+19
9.99674389e+19
9.90648924e+19
9.96168343e+19
1.001583622e+20
9.965849029e+19
9.988759825e+19
9.944326766e+19
9.959947763e+19
9.873858713e+19
9.934954168e+19
9.990148358e+19
1.0111645e+20
1.018211306e+20
1.021474358e+20
7.713648378e+19
9.970708895e+19
9.995008224e+19
1.001930755e+20
9.967931829e+19
9.927664369e+19
9.968973228e+19
9.912390505e+19
9.924887303e+19
9.90648924e+19
9.892256776e+19
9.960294897e+19
9.962030563e+19
1.001514195e+20
1.009949534e+20
1.007519601e+20
1.01043552e+20
9.999868089e+19
1.002069609e+20
9.999520956e+19
7.744543239e+19
1.001444769e+20
1.006443488e+20
1.002694448e+20
1.004950815e+20
1.000542222e+20
1.000056236e+20
1.005332661e+20
1.005922788e+20
1.004534255e+20
1.000507509e+20
9.987371292e+19
9.990148358e+19
9.958212097e+19
9.930441435e+19
9.950575165e+19
9.838103986e+19
9.889826843e+19
9.933912768e+19
9.917250371e+19
7.70011018e+19
9.839492519e+19
9.954393631e+19
9.96064203e+19
9.990148358e+19
1.001167062e+20
9.998132423e+19
9.996049623e+19
1.000299229e+20
1.003249862e+20
9.974874494e+19
9.938772634e+19
9.867957447e+19
9.907183506e+19
9.867957447e+19
9.954740764e+19
9.980428626e+19
9.944326766e+19
9.9405083e+19
9.947103832e+19
7.794877563e+19
9.99882669e+19
9.990842624e+19
9.888785443e+19
9.934259901e+19
9.938078367e+19
9.954740764e+19
1.000229802e+20
9.96272483e+19
9.896075242e+19
9.889826843e+19
9.914820438e+19
1.001965469e+20
9.938772634e+19
1.003770562e+20
9.983205692e+19
9.930094302e+19
9.949186632e+19
9.993619691e+19
1.000681075e+20
7.712259845e+19
9.96168343e+19
1.001097635e+20
1.006131068e+20
1.011303354e+20
1.004950815e+20
9.955782164e+19
9.918638904e+19
9.95960063e+19
9.997091023e+19
9.992231157e+19
9.987718425e+19
9.967237562e+19
1.000958782e+20
1.007519601e+20
1.003596995e+20
1.005193808e+20
9.946062433e+19
9.915514705e+19
9.946409566e+19
7.81049856e+19
1.010088387e+20
1.017760032e+20
1.012900167e+20
1.003180435e+20
1.008977561e+20
1.017065766e+20
1.019842832e+20
1.013490293e+20
1.019217992e+20
1.014323413e+20
1.014045706e+20
1.016059079e+20
1.009081701e+20
1.002312602e+20
1.000507509e+20
1.000785215e+20
9.998132423e+19
1.006651768e+20
1.005263235e+20
7.587639001e+19
9.695779345e+19
9.759304734e+19
9.851642183e+19
9.872123046e+19
9.876982912e+19
9.90440644e+19
9.92245737e+19
9.926275836e+19
9.951616565e+19
1.002798588e+20
9.99674389e+19
9.968626095e+19
1.000785215e+20
9.991536891e+19
9.978345827e+19
9.96272483e+19
9.956823564e+19
9.968278962e+19
9.886008377e+19
1.001846471e+20
1.002113251e+20
1.003982124e+20
1.003902201e+20
1.003710574e+20
1.013278126e+20
9.890062258e+19
9.938424878e+19
1.000405698e+20
9.9390135e+19
9.964742562e+19
1.003952719e+20
1.011065473e+20
1.014731466e+20
1.007358682e+20
1.00771046e+20
1.010744164e+20
1.010152813e+20
1.01326175e+20
1.014066743e+20
1.014596521e+20
1.012753318e+20
1.014806932e+20
1.009792443e+20
1.014986565e+20
1.024190752e+20
9.935349616e+19
9.971747048e+19
1.002560146e+20
9.987737641e+19
1.003529765e+20
1.000381987e+20
1.000458621e+20
1.007085134e+20
1.008943216e+20
1.018214783e+20
1.01579544e+20
1.014888062e+20
1.00994178e+20
1.014884746e+20
1.011337384e+20
1.009795735e+20
1.009176575e+20
1.006316827e+20
9.972250299e+19
9.994703143e+19
9.963915488e+19
9.971746981e+19
9.954257434e+19
9.960708259e+19
9.990171047e+19
1.000381987e+20
1.006670168e+20
1.017072936e+20
1.010564608e+20
1.011162413e+20
1.006389604e+20
1.002821936e+20
1.006551173e+20
1.00716712e+20
1.019180818e+20
1.015314146e+20
1.004708627e+20
1.003060737e+20
1.007911433e+20
1.011310892e+20
1.004194916e+20
1.002365948e+20
1.000970799e+20
1.001867932e+20
9.956147018e+19
9.977850916e+19
1.000276997e+20
9.995851285e+19
9.92360877e+19
9.894485152e+19
1.0187217e+20
1.017273235e+20
1.012873249e+20
1.000836545e+20
9.953639985e+19
9.959816917e+19
9.959543349e+19
9.93182691e+19
9.936137719e+19
9.894856329e+19
9.770224942e+19
9.769709405e+19
9.792850341e+19
9.783238442e+19
9.880577793e+19
9.889845069e+19
9.893795535e+19
9.851339193e+19
9.894129126e+19
9.943851792e+19
9.869160401e+19
1.000121086e+20
1.002913341e+20
1.008269644e+20
1.000557147e+20
9.977850985e+19
1.007469308e+20
1.005475364e+20
1.009495961e+20
9.966493634e+19
1.017188904e+20
1.011029712e+20
1.003160566e+20
1.004179661e+20
1.007576834e+20
1.011274523e+20
1.000930844e+20
1.001085135e+20
1.005405658e+20
1.006893869e+20
9.99491991e+19
9.988934205e+19
1.000864836e+20
9.963909046e+19
9.854074933e+19
9.855580403e+19
9.878538966e+19
9.969143974e+19
1.000946851e+20
1.005334923e+20
9.900513187e+19
9.931058925e+19
9.959908513e+19
9.996628976e+19
1.001595768e+20
1.005251174e+20
1.002747093e+20
1.001890013e+20
9.980725717e+19
9.963152964e+19
9.97053441e+19
1.007697489e+20
1.005915427e+20
1.008945373e+20
1.011659717e+20
1.010769571e+20
1.006670161e+20
1.003609511e+20
9.963037888e+19
9.858480981e+19
9.962870395e+19
9.943686274e+19
9.956376631e+19
9.910917097e+19
9.936448828e+19
9.841513884e+19
9.842940696e+19
9.894509915e+19
9.988095716e+19
1.006225749e+20
9.951722805e+19
9.96964249e+19
9.97509554e+19
9.973156032e+19
1.002312063e+20
1.002329659e+20
1.010520594e+20
1.00430464e+20
1.0061795e+20
1.006782516e+20
9.989346082e+19
9.983322118e+19
9.974035976e+19
9.943636959e+19
9.970472925e+19
1.002041122e+20
1.004309061e+20
1.008804638e+20
1.009090615e+20
1.010976824e+20
9.961476938e+19
9.904401122e+19
9.901632386e+19
9.949327437e+19
9.858372705e+19
9.838628444e+19
9.850932092e+19
9.774875727e+19
9.713565876e+19
9.743786987e+19
)
;

boundaryField
{
    flow
    {
        type            calculated;
        value           nonuniform List<scalar> 
48
(
7.723020976e+19
7.79348903e+19
7.712954111e+19
7.760164236e+19
7.754610103e+19
7.738989106e+19
7.71711971e+19
7.753568704e+19
7.775785233e+19
7.71816111e+19
7.786893497e+19
7.713648378e+19
7.744543239e+19
7.70011018e+19
7.794877563e+19
7.712259845e+19
7.81049856e+19
7.587639001e+19
7.587639001e+19
9.695779345e+19
9.759304734e+19
9.851642183e+19
9.872123046e+19
9.876982912e+19
9.90440644e+19
9.92245737e+19
9.926275836e+19
9.951616565e+19
1.002798588e+20
9.99674389e+19
9.968626095e+19
1.000785215e+20
9.991536891e+19
9.978345827e+19
9.96272483e+19
9.956823564e+19
9.968278962e+19
9.886008377e+19
9.961476938e+19
9.904401122e+19
9.901632386e+19
9.949327437e+19
9.858372705e+19
9.838628444e+19
9.850932092e+19
9.774875727e+19
9.713565876e+19
9.743786987e+19
)
;
    }
    obstacle
    {
        type            calculated;
        value           nonuniform List<scalar> 0();
    }
    frontAndBack
    {
        type            empty;
    }
    procBoundary2to0
    {
        type            processor;
        value           nonuniform List<scalar> 
31
(
7.728227975e+19
9.891562509e+19
9.939814034e+19
9.853030716e+19
9.901629374e+19
9.879412845e+19
9.991536891e+19
1.007762594e+20
1.014427553e+20
1.01303902e+20
9.99882669e+19
9.991536891e+19
9.979040093e+19
9.99466109e+19
9.998479556e+19
9.986329892e+19
9.986329892e+19
9.966890429e+19
1.001757189e+20
1.002625022e+20
9.933225568e+19
9.861711963e+19
9.813154331e+19
9.846583097e+19
1.002383987e+20
1.003553269e+20
1.000711266e+20
9.954910516e+19
9.939776716e+19
9.973156032e+19
9.973156032e+19
)
;
    }
    procBoundary2to3
    {
        type            processor;
        value           nonuniform List<scalar> 
19
(
1.014236712e+20
1.012142881e+20
1.02324767e+20
1.017639187e+20
9.984208106e+19
1.006683972e+20
1.018312211e+20
9.888116226e+19
9.884003415e+19
9.925506062e+19
9.974486749e+19
1.010722074e+20
1.01001166e+20
9.975608444e+19
9.926254002e+19
9.975608444e+19
1.016480102e+20
1.005188378e+20
9.748278236e+19
)
;
    }
}


// ************************************************************************* //
