/*--------------------------------*- C++ -*----------------------------------*\
| =========                 |                                                 |
| \\      /  F ield         | OpenFOAM: The Open Source CFD Toolbox           |
|  \\    /   O peration     | Version:  2406                                  |
|   \\  /    A nd           | Website:  www.openfoam.com                      |
|    \\/     M anipulation  |                                                 |
\*---------------------------------------------------------------------------*/
FoamFile
{
    version     2.0;
    format      ascii;
    arch        "LSB;label=32;scalar=64";
    class       volScalarField;
    location    "0.006";
    object      rhoN;
}
// * * * * * * * * * * * * * * * * * * * * * * * * * * * * * * * * * * * * * //

dimensions      [0 -3 0 0 0 0 0];

internalField   nonuniform List<scalar> 
546
(
6.248398848e+19
1.145539789e+20
1.24967977e+20
7.289798656e+19
1.041399808e+20
1.24967977e+20
1.24967977e+20
9.372598272e+19
8.331198464e+19
1.145539789e+20
1.24967977e+20
1.145539789e+20
3.124199424e+19
5.20699904e+19
4.165599232e+19
1.770379674e+20
1.145539789e+20
9.372598272e+19
1.145539789e+20
9.372598272e+19
8.331198464e+19
9.372598272e+19
7.289798656e+19
1.666239693e+20
9.372598272e+19
7.289798656e+19
1.041399808e+20
7.289798656e+19
1.145539789e+20
9.372598272e+19
9.372598272e+19
9.372598272e+19
1.041399808e+20
6.248398848e+19
1.145539789e+20
2.499359539e+20
6.248398848e+19
1.562099712e+20
9.372598272e+19
8.331198464e+19
9.372598272e+19
1.041399808e+20
1.35381975e+20
3.124199424e+19
1.145539789e+20
5.20699904e+19
1.35381975e+20
1.041399808e+20
1.041399808e+20
1.24967977e+20
8.331198464e+19
6.248398848e+19
8.331198464e+19
1.24967977e+20
6.248398848e+19
9.372598272e+19
1.24967977e+20
1.24967977e+20
6.248398848e+19
4.165599232e+19
7.289798656e+19
8.331198464e+19
8.331198464e+19
8.331198464e+19
6.248398848e+19
1.24967977e+20
7.289798656e+19
8.331198464e+19
6.248398848e+19
6.248398848e+19
1.35381975e+20
5.20699904e+19
1.35381975e+20
8.331198464e+19
1.457959731e+20
1.041399808e+20
1.145539789e+20
1.457959731e+20
7.289798656e+19
1.145539789e+20
5.20699904e+19
1.457959731e+20
1.145539789e+20
1.145539789e+20
9.372598272e+19
5.20699904e+19
1.041399808e+20
1.041399808e+20
6.248398848e+19
8.331198464e+19
9.372598272e+19
1.041399808e+20
1.041399808e+20
1.041399808e+20
1.35381975e+20
8.331198464e+19
1.041399808e+20
1.145539789e+20
1.145539789e+20
7.289798656e+19
1.041399808e+20
9.372598272e+19
1.35381975e+20
6.248398848e+19
1.35381975e+20
1.24967977e+20
5.20699904e+19
6.248398848e+19
1.041399808e+20
1.145539789e+20
8.331198464e+19
1.041399808e+20
4.165599232e+19
6.248398848e+19
1.041399808e+20
1.457959731e+20
1.041399808e+20
1.041399808e+20
1.145539789e+20
1.24967977e+20
3.124199424e+19
1.24967977e+20
1.145539789e+20
9.372598272e+19
9.372598272e+19
9.372598272e+19
1.35381975e+20
1.562099712e+20
1.874519654e+20
1.145539789e+20
1.24967977e+20
8.331198464e+19
1.041399808e+20
1.041399808e+20
7.289798656e+19
1.041399808e+20
9.372598272e+19
6.248398848e+19
8.331198464e+19
1.145539789e+20
4.165599232e+19
1.145539789e+20
1.145539789e+20
7.289798656e+19
1.041399808e+20
8.331198464e+19
1.041399808e+20
7.289798656e+19
6.248398848e+19
9.372598272e+19
7.289798656e+19
1.457959731e+20
1.562099712e+20
8.331198464e+19
1.145539789e+20
9.372598272e+19
5.20699904e+19
1.24967977e+20
1.457959731e+20
8.331198464e+19
6.248398848e+19
7.289798656e+19
9.372598272e+19
1.457959731e+20
1.457959731e+20
1.35381975e+20
1.145539789e+20
1.457959731e+20
1.041399808e+20
1.35381975e+20
1.041399808e+20
8.331198464e+19
1.457959731e+20
8.331198464e+19
1.145539789e+20
1.041399808e+20
1.24967977e+20
6.248398848e+19
1.35381975e+20
1.35381975e+20
1.145539789e+20
8.331198464e+19
1.35381975e+20
7.289798656e+19
1.041399808e+20
9.372598272e+19
1.562099712e+20
1.145539789e+20
1.145539789e+20
9.372598272e+19
8.331198464e+19
7.289798656e+19
7.289798656e+19
7.289798656e+19
7.289798656e+19
7.289798656e+19
1.24967977e+20
9.372598272e+19
8.331198464e+19
6.248398848e+19
6.248398848e+19
9.372598272e+19
8.331198464e+19
5.20699904e+19
5.20699904e+19
9.372598272e+19
1.24967977e+20
6.248398848e+19
7.289798656e+19
1.770379674e+20
9.372598272e+19
1.041399808e+20
8.331198464e+19
1.24967977e+20
4.165599232e+19
1.145539789e+20
3.124199424e+19
1.35381975e+20
9.372598272e+19
5.20699904e+19
6.248398848e+19
1.145539789e+20
8.331198464e+19
9.372598272e+19
1.145539789e+20
8.331198464e+19
7.289798656e+19
5.20699904e+19
1.24967977e+20
1.24967977e+20
1.145539789e+20
1.041399808e+20
8.331198464e+19
9.372598272e+19
1.457959731e+20
1.145539789e+20
1.041399808e+20
1.562099712e+20
9.372598272e+19
1.562099712e+20
7.289798656e+19
1.041399808e+20
1.145539789e+20
5.20699904e+19
1.24967977e+20
1.24967977e+20
1.041399808e+20
1.041399808e+20
1.041399808e+20
8.331198464e+19
1.145539789e+20
1.145539789e+20
6.248398848e+19
1.041399808e+20
1.770379674e+20
1.041399808e+20
1.041399808e+20
1.562099712e+20
1.145539789e+20
8.331198464e+19
6.248398848e+19
9.372598272e+19
1.24967977e+20
1.562099712e+20
1.041399808e+20
6.248398848e+19
8.331198464e+19
1.457959731e+20
7.289798656e+19
1.145539789e+20
9.372598272e+19
1.145539789e+20
1.041399808e+20
7.289798656e+19
7.289798656e+19
5.20699904e+19
1.145539789e+20
1.041399808e+20
1.24967977e+20
2.082799616e+19
8.331198464e+19
1.24967977e+20
9.372598272e+19
1.041399808e+20
9.372598272e+19
8.331198464e+19
8.331198464e+19
1.24967977e+20
1.24967977e+20
9.372598272e+19
1.562099712e+20
1.041399808e+20
1.145539789e+20
7.289798656e+19
1.562099712e+20
9.372598272e+19
1.35381975e+20
1.874519654e+20
9.372598272e+19
6.248398848e+19
7.289798656e+19
9.372598272e+19
9.372598272e+19
1.041399808e+20
1.145539789e+20
1.145539789e+20
1.457959731e+20
1.041399808e+20
7.289798656e+19
1.041399808e+20
6.248398848e+19
6.248398848e+19
1.24967977e+20
6.248398848e+19
1.457959731e+20
1.041399808e+20
1.35381975e+20
7.289798656e+19
1.874519654e+20
1.145539789e+20
5.20699904e+19
1.041399808e+20
1.145539789e+20
9.372598272e+19
1.041399808e+20
9.372598272e+19
8.331198464e+19
1.041399808e+20
7.289798656e+19
8.331198464e+19
8.331198464e+19
6.248398848e+19
1.562099712e+20
7.289798656e+19
8.331198464e+19
1.666239693e+20
8.331198464e+19
1.24967977e+20
1.24967977e+20
8.331198464e+19
8.331198464e+19
1.145539789e+20
2.082799616e+19
9.372598272e+19
9.372598272e+19
1.35381975e+20
9.372598272e+19
1.041399808e+20
8.331198464e+19
6.248398848e+19
1.041399808e+20
1.041399808e+20
7.289798656e+19
1.041399808e+20
4.165599232e+19
8.331198464e+19
9.372598272e+19
8.331198464e+19
4.165599232e+19
1.041399808e+20
1.396775905e+20
9.73835941e+19
1.307694072e+20
1.317072858e+20
1.105489288e+20
6.681199412e+19
9.405835892e+19
1.788874387e+20
6.35738837e+19
9.60256797e+19
9.669987032e+19
1.514855908e+20
8.717960539e+19
1.646341072e+20
5.5274464e+19
2.227066471e+19
9.405835955e+19
6.313674307e+19
9.536082555e+19
1.066951997e+20
6.446657977e+19
1.082039942e+20
7.628215471e+19
7.682925005e+19
1.105489288e+20
1.670299853e+20
1.463130028e+20
1.052279051e+20
2.119129457e+19
8.535615974e+19
9.669987032e+19
6.492239607e+19
8.717960539e+19
9.878046504e+19
8.84391424e+19
6.681199365e+19
2.090185754e+19
7.365953308e+19
1.377434147e+20
1.493732806e+20
5.372215018e+19
6.492239607e+19
9.807705538e+19
1.097560707e+20
6.63293568e+19
1.336239882e+20
9.405835892e+19
7.365953308e+19
1.059564728e+20
1.066952004e+20
6.446658021e+19
9.73835941e+19
1.089745067e+20
7.682925059e+19
1.105489288e+20
8.908265883e+19
1.254111452e+20
1.262734861e+20
8.476517826e+19
9.60256797e+19
1.289331604e+20
5.41019971e+19
1.089745067e+20
1.317072858e+20
1.437136074e+20
8.908265946e+19
1.045092884e+20
6.313674307e+19
9.536082555e+19
1.066952004e+20
8.595544028e+19
5.410199672e+19
9.807705606e+19
8.78048572e+19
9.94940352e+19
5.567666177e+19
1.045092877e+20
9.47051146e+19
1.377434156e+20
1.066952004e+20
8.595544028e+19
7.574279541e+19
7.628215418e+19
7.682925005e+19
1.989880718e+20
2.227066471e+19
7.315650138e+19
5.26139522e+19
1.059564721e+20
2.133903979e+19
1.074442996e+20
1.839467901e+20
8.717960599e+19
6.585364336e+19
8.843914303e+19
6.681199412e+19
1.254111452e+20
1.473190672e+20
1.059564735e+20
8.535616032e+19
1.289331613e+20
9.738359478e+19
1.08974506e+20
9.878046365e+19
7.73842496e+19
1.224886559e+20
1.045092884e+20
8.418232409e+19
5.297823641e+19
1.387037605e+20
1.396775905e+20
5.410199672e+19
8.717960539e+19
1.097560723e+20
1.105489288e+20
1.781653177e+20
1.254111452e+20
5.26139522e+19
1.907216498e+20
1.387037596e+20
1.289331604e+20
1.298447921e+20
1.63461759e+20
1.536585001e+20
5.527446439e+19
1.224886559e+20
5.225464384e+19
7.365953358e+19
1.377434156e+20
1.387037605e+20
1.181887304e+20
1.082039942e+20
1.089745075e+20
1.097560723e+20
5.5274464e+19
7.794732592e+19
6.270557261e+19
1.578418566e+20
1.165521193e+20
9.60256797e+19
8.595544028e+19
7.574279541e+19
1.198719566e+20
8.780485658e+19
8.84391424e+19
1.224886568e+20
8.360743015e+19
1.157506956e+20
1.165521209e+20
1.173647196e+20
1.074442996e+20
9.73835941e+19
8.717960539e+19
6.585364336e+19
1.879331789e+20
8.908265883e+19
8.360743071e+19
8.418232409e+19
8.476517826e+19
1.066952004e+20
1.826553106e+20
8.656319476e+19
9.807705538e+19
1.207316786e+20
1.437136074e+20
1.113533235e+20
6.270557261e+19
7.365953358e+19
9.536082555e+19
6.40171198e+19
9.669987032e+19
1.29844793e+20
9.807705674e+19
1.317072858e+20
2.21097856e+19
5.567666177e+19
8.360743015e+19
1.262734853e+20
9.536082555e+19
1.066952004e+20
8.595544028e+19
9.73835941e+19
9.807705538e+19
1.317072858e+20
1.105489288e+20
7.794732648e+19
)
;

boundaryField
{
    flow
    {
        type            zeroGradient;
    }
    obstacle
    {
        type            calculated;
        value           nonuniform List<scalar> 0();
    }
    frontAndBack
    {
        type            empty;
    }
    procBoundary2to0
    {
        type            processor;
        value           nonuniform List<scalar> 
31
(
8.331198464e+19
1.041399808e+20
9.372598272e+19
7.289798656e+19
1.24967977e+20
1.145539789e+20
1.24967977e+20
1.24967977e+20
1.041399808e+20
1.041399808e+20
7.289798656e+19
9.372598272e+19
9.372598272e+19
7.289798656e+19
1.041399808e+20
6.248398848e+19
8.331198464e+19
9.372598272e+19
8.331198464e+19
6.248398848e+19
1.396775905e+20
8.656319476e+19
7.628215471e+19
5.487803613e+19
8.843914303e+19
8.908265883e+19
1.463130028e+20
1.578418566e+20
1.059564728e+20
1.066952004e+20
1.066952004e+20
)
;
    }
    procBoundary2to3
    {
        type            processor;
        value           nonuniform List<scalar> 
19
(
6.730170614e+19
8.973560819e+19
7.851865773e+19
1.121695102e+20
1.009525592e+20
7.851865773e+19
8.973560883e+19
7.851865717e+19
8.973560883e+19
1.121695102e+20
6.730170614e+19
4.486780442e+19
1.009525592e+20
8.973560819e+19
1.346034142e+20
8.973560819e+19
1.121695102e+20
8.973560883e+19
1.794712164e+20
)
;
    }
}


// ************************************************************************* //
