/*--------------------------------*- C++ -*----------------------------------*\
| =========                 |                                                 |
| \\      /  F ield         | OpenFOAM: The Open Source CFD Toolbox           |
|  \\    /   O peration     | Version:  2406                                  |
|   \\  /    A nd           | Website:  www.openfoam.com                      |
|    \\/     M anipulation  |                                                 |
\*---------------------------------------------------------------------------*/
FoamFile
{
    version     2.0;
    format      ascii;
    arch        "LSB;label=32;scalar=64";
    class       volScalarField;
    location    "0.006";
    object      translationalT;
}
// * * * * * * * * * * * * * * * * * * * * * * * * * * * * * * * * * * * * * //

dimensions      [1 2 -2 0 0 0 0];

internalField   nonuniform List<scalar> 
546
(
284.7026893
302.22612
297.3223951
298.5740401
298.7278443
297.8183615
300.1227928
302.4445489
301.355014
300.3387318
303.2354063
301.6463148
300.7915503
300.4695369
299.2698911
299.4743733
300.1511341
299.270487
300.9168055
302.5503637
291.5859361
305.8072046
298.1304777
297.0397078
297.7999282
299.1490155
299.5551189
299.4693259
299.5623752
300.703774
298.7075373
299.9668911
300.8891615
301.7085275
300.6483731
298.6589978
298.2561764
300.617861
298.6147512
296.8121179
289.9147224
304.972875
297.2397318
298.4663515
299.0046705
299.3311772
296.8134162
297.4528443
297.2064212
298.1901354
296.9420034
298.8100577
297.7176176
296.0482524
296.6923046
297.1358949
295.954707
295.1553863
296.7439316
297.1435334
291.8135587
307.5623936
301.6856956
298.9859431
296.4811242
297.2213843
298.3360768
296.7524125
296.2641625
295.7035444
297.3562118
298.0583571
298.5236729
298.8664826
300.9218276
300.8447353
299.1607874
302.2407798
303.1351586
300.6565559
287.8126187
305.155844
298.9125503
301.0747585
299.8776405
298.6269327
298.3082773
297.902549
299.7244885
298.7141757
298.6861431
297.5661683
300.3495217
301.9624099
302.0410621
304.678933
306.2234729
304.2989933
302.2014889
302.4868541
291.6380594
307.0901143
297.9123649
295.5459074
298.384229
298.3444605
297.164823
298.5827704
297.2003655
297.8533678
299.0992843
298.5072485
298.7999681
299.6001791
301.2964467
302.9787095
304.9671218
302.9182967
305.3315451
306.5859851
287.1542799
301.3686245
295.669027
298.1034443
297.0484457
298.568616
299.9543932
302.5957396
301.2733175
300.1537445
298.4554657
297.8775434
299.5186218
297.3143908
297.9620908
297.7353802
299.3809155
302.1695055
300.9955643
299.6551761
287.3569485
304.233454
297.7919583
298.3497801
298.7657207
297.1174148
297.8033693
297.8846768
298.1315754
299.9738316
300.2553271
298.4504469
297.565289
299.0536951
298.0862149
299.8828245
299.2019966
297.1789512
297.7433599
300.0830584
290.5534817
305.232326
297.565711
296.94296
295.6775784
296.9879501
297.4703005
298.0775785
300.2353597
302.0020845
300.8653764
302.440497
303.3290925
300.9004139
301.1536252
299.8791843
299.6917837
300.3241748
299.161385
299.8136657
289.4417389
308.3214993
301.3481835
299.6544745
300.2841159
299.0176009
298.8954329
299.7290196
301.3680733
299.5427446
298.572101
299.9162613
298.6904447
300.2604364
302.0694987
301.0504857
300.1913061
301.4253743
299.1083559
298.2289582
292.4517376
307.3914308
298.3083036
299.7437997
301.9115906
303.4176883
302.0259629
299.9371981
298.3784881
299.1992611
298.5463863
297.206323
298.8340252
296.9817725
295.9375638
296.3667386
300.4228602
298.2470736
299.6122804
300.7298737
286.8713979
303.5055071
296.5202101
300.2621142
298.2040561
296.7943118
297.034617
296.1523212
296.6340704
296.4906782
296.0691795
296.6923292
298.2065607
300.5553517
300.2017148
298.5223609
298.9485933
302.2887472
302.7528101
301.2126211
290.1504919
306.075702
299.112799
298.7513224
299.281761
297.2967011
298.8638355
299.5150256
299.3083039
299.2108179
299.823377
301.893961
301.522378
298.6848157
298.5619162
299.6471198
298.0479433
297.1577663
298.6151775
300.232365
287.8452431
304.2447018
298.9611982
300.7631841
301.2711547
300.1365068
300.8474474
302.0347642
303.3119899
303.1667038
300.0432956
298.9083766
297.7585718
299.4901655
298.7119222
299.1838833
300.3774491
299.0318484
298.6380557
297.08828
292.1391099
307.238296
297.6775068
296.7823242
298.9796573
301.2955618
302.186473
304.3321294
303.2300934
303.7852963
301.6157807
301.4525971
301.5639686
300.3185693
299.6999401
301.2748648
300.4411767
301.3526701
301.124022
298.5480433
289.673968
303.8729554
298.4886321
302.2319308
300.6515188
300.1819481
299.2723701
296.2511763
297.796708
300.6806506
301.140865
301.8241831
300.9959895
302.256348
301.3318465
297.7420951
298.5918411
297.3748385
298.5160472
300.276989
290.0975239
306.6766164
299.2379269
298.3417736
298.3749249
296.8761104
297.3142122
297.0514119
295.9024715
297.573385
297.5940733
299.53166
299.9825691
298.6243238
299.2316081
299.7299609
297.7695163
298.8326536
299.9982864
297.4362705
290.2384758
302.9314795
296.4704271
294.8123653
292.0986032
293.7159357
295.4487928
298.1636328
298.1077391
298.3151674
298.6621129
295.8852753
297.1052861
296.6559376
297.7321221
297.2683691
297.450293
299.2405131
297.1435318
296.3627799
305.269203
308.5766503
304.6520942
308.5831484
314.3363161
318.7101547
303.3580901
306.2205472
303.4211074
304.2614314
305.5766867
303.7032516
302.5497839
310.1028061
308.0011052
312.3944139
296.7977159
294.8693362
294.8197406
298.7193044
303.0472033
305.012177
304.274497
304.5719374
306.883883
311.3515058
299.5790386
301.5468257
303.1199278
299.5442091
298.3707716
300.5104739
300.5816365
303.584956
307.7345186
309.1282717
299.8279954
301.1821297
302.4764384
302.2244535
301.7401421
305.3164945
304.1208312
301.3210188
304.6087717
305.3167247
302.0491262
303.0648407
302.3706336
302.7883451
303.0850478
305.3425418
307.7937569
306.9158909
305.733457
307.2802837
304.8564677
302.6125183
302.7869462
303.2322038
305.7247296
301.8230156
302.3152597
303.1863882
302.0805843
301.9435638
301.827403
301.7305764
303.7693712
301.1878707
302.6074296
302.1623781
301.0225042
303.9323795
301.7480693
302.5884338
298.5670812
300.8839661
298.8638392
299.2117594
301.4380804
301.9621403
302.0015072
303.6427667
303.8446207
302.4493923
299.7338734
301.7433149
303.2702398
300.3297142
302.5047371
301.7267333
299.0162463
301.2268945
302.1430176
302.1218559
299.775796
300.1280922
302.6455624
303.5929014
300.0015215
301.6039418
303.5260335
303.2545502
303.7440772
302.9863794
298.2191613
298.1438608
296.6803935
297.7835586
299.6743197
300.3554055
298.8683451
298.9716698
299.56567
302.4726953
300.5317984
301.441275
301.9704675
302.9201453
300.0882421
298.6378947
299.9197691
300.1254363
300.2283082
300.0906611
302.9884406
302.7813781
304.1396321
302.7805609
302.3002858
302.8558465
300.5749292
299.9941503
298.751279
296.455181
296.1960676
296.9785103
295.398298
297.8386504
299.1248179
296.9365979
296.6558147
298.4555733
295.5836662
296.510547
298.9457998
298.2736583
300.0623348
297.2067636
297.193099
298.4653012
298.0873819
296.6076376
298.3793629
299.6490395
297.5912299
299.0111046
297.9379284
298.9250204
299.0116238
296.8723465
299.628849
299.4717186
299.6158365
300.2184464
297.2103723
297.2551409
296.1677695
298.6534709
298.0713296
300.369919
302.2323927
301.3017921
302.8288185
301.017775
299.8146037
299.0612976
299.8288164
299.1198587
300.2945308
297.4251582
297.1448839
296.9548654
296.2315102
297.2390117
)
;

boundaryField
{
    flow
    {
        type            calculated;
        value           nonuniform List<scalar> 
48
(
284.7026893
291.5859361
289.9147224
291.8135587
287.8126187
291.6380594
287.1542799
287.3569485
290.5534817
289.4417389
292.4517376
286.8713979
290.1504919
287.8452431
292.1391099
289.673968
290.0975239
290.2384758
290.2384758
302.9314795
296.4704271
294.8123653
292.0986032
293.7159357
295.4487928
298.1636328
298.1077391
298.3151674
298.6621129
295.8852753
297.1052861
296.6559376
297.7321221
297.2683691
297.450293
299.2405131
297.1435318
296.3627799
299.8146037
299.0612976
299.8288164
299.1198587
300.2945308
297.4251582
297.1448839
296.9548654
296.2315102
297.2390117
)
;
    }
    obstacle
    {
        type            calculated;
        value           nonuniform List<scalar> 0();
    }
    frontAndBack
    {
        type            empty;
    }
    procBoundary2to0
    {
        type            processor;
        value           nonuniform List<scalar> 
31
(
291.1512515
306.6982691
299.0961488
300.3522342
299.726146
300.1450037
299.4630932
300.8312219
302.2241408
301.2120376
299.8363034
300.4320813
301.2671949
302.8203633
304.034777
300.8926402
300.0148821
304.3945673
303.4452911
303.2741476
307.4153558
309.2564398
312.2111784
320.0684498
325.0115877
325.8546058
298.7051878
301.9322559
304.2717328
305.7848623
305.7848623
)
;
    }
    procBoundary2to3
    {
        type            processor;
        value           nonuniform List<scalar> 
19
(
323.5288641
318.6528932
316.8518706
311.4630724
310.2897948
309.5803545
304.33334
304.3487
302.786308
301.444975
302.4516574
304.7062409
300.1038616
296.0772866
300.4593563
300.9146325
301.8868573
300.5662782
298.0130077
)
;
    }
}


// ************************************************************************* //
