/*--------------------------------*- C++ -*----------------------------------*\
| =========                 |                                                 |
| \\      /  F ield         | OpenFOAM: The Open Source CFD Toolbox           |
|  \\    /   O peration     | Version:  2406                                  |
|   \\  /    A nd           | Website:  www.openfoam.com                      |
|    \\/     M anipulation  |                                                 |
\*---------------------------------------------------------------------------*/
FoamFile
{
    version     2.0;
    format      ascii;
    arch        "LSB;label=32;scalar=64";
    class       volVectorField;
    location    "0.006";
    object      UMean;
}
// * * * * * * * * * * * * * * * * * * * * * * * * * * * * * * * * * * * * * //

dimensions      [0 1 -1 0 0 0 0];

internalField   nonuniform List<vector> 
546
(
(1708.608636 0.1236672256 -0.3224817758)
(1741.059917 0.5050162614 -0.03518237772)
(1732.348084 2.272773567 0.7243329929)
(1729.90919 2.535980686 -0.1032097406)
(1732.081356 0.3546896405 -0.5861259102)
(1733.743211 0.08781878746 -0.413135233)
(1733.973335 1.626242353 0.4724444131)
(1733.768524 0.8943477479 -1.014163025)
(1736.600945 -1.144382993 -2.193248396)
(1738.090766 -0.3093642389 -3.876523221)
(1737.661969 -2.13715515 -5.441602749)
(1740.021649 2.132850987 -2.482021587)
(1741.398809 2.271559873 -2.201190863)
(1738.487918 4.715759922 -0.9708246457)
(1737.803125 4.233806259 0.3948821983)
(1738.183828 2.759994335 -2.715837504)
(1738.793032 0.5763259438 -4.755999161)
(1741.128396 -0.19059783 -3.481310188)
(1741.028498 1.821873211 -2.571655984)
(1739.042541 3.306588079 -3.327596185)
(1709.0032 2.704236103 1.403833231)
(1747.761783 2.165071702 2.280669659)
(1740.986712 3.229443916 3.353682951)
(1740.276393 -0.1923923887 0.7461808833)
(1737.116771 0.5416057974 -0.4105818813)
(1734.559947 0.1436286236 -2.235828641)
(1736.043937 -3.162127027 -1.948367234)
(1735.693986 -3.429552154 -3.4528762)
(1735.300089 -1.093204876 -3.045825849)
(1734.977501 1.780578972 -0.8595803971)
(1736.881211 3.313995153 -2.033618588)
(1736.694884 0.7500372643 -2.317742977)
(1736.313901 0.1745329251 -4.294787166)
(1739.790759 0.06107845268 -3.318339667)
(1740.29043 2.506790123 -2.83665667)
(1739.104326 3.390148452 1.488432635)
(1739.14787 3.291313126 2.411520878)
(1735.290666 6.383795301 0.394276313)
(1735.254973 3.598515898 2.475835281)
(1735.998114 2.995324187 3.037089046)
(1708.822965 3.373489787 -5.052390857)
(1745.557705 2.552773318 -5.474348601)
(1740.348956 -1.194450238 -2.084740888)
(1737.899089 -2.284829781 -1.090402933)
(1741.37196 -2.001161885 2.184360768)
(1742.199327 -2.590000069 2.759745014)
(1741.600525 3.713318404 1.615500259)
(1741.420671 5.556062535 2.1315942)
(1741.625252 5.110420104 1.111331855)
(1738.372054 1.804564124 0.9041445651)
(1738.149118 3.222530664 -0.4458071283)
(1737.030573 4.130386599 0.4861489203)
(1733.262214 3.550822601 1.627740623)
(1735.271626 1.43062258 1.859086052)
(1735.941477 0.9635836017 1.635912121)
(1737.786243 1.294198126 0.3389799825)
(1737.394367 2.0769104 -0.5605693614)
(1738.564874 0.3641459116 0.4946380549)
(1739.910062 1.990677722 1.058773418)
(1738.973729 -2.025575178 -1.406460688)
(1710.158342 0.8285949446 0.4753034557)
(1747.027882 0.1062915904 1.753844222)
(1737.206387 1.772131008 -1.015028925)
(1738.686079 2.411444022 -1.496763916)
(1740.774677 1.542833506 -0.3649549441)
(1740.615142 2.396297361 1.961436983)
(1740.674094 -2.640866164 1.480149545)
(1741.800349 -2.381685654 0.4981506547)
(1741.263081 -2.316028635 0.3441362686)
(1741.088596 0.634459467 0.05803599939)
(1741.400954 -1.1803952 0.8891759123)
(1742.612127 0.111077793 2.643184854)
(1743.527418 3.125159517 0.7129903813)
(1740.738172 5.988837145 1.977174087)
(1739.658276 4.609920546 2.535670546)
(1739.725163 1.892463769 1.841336359)
(1740.549926 1.918003531 3.02593067)
(1738.436501 -0.1947046089 1.686946661)
(1737.231279 -1.59228086 -0.01262692052)
(1738.303607 -1.596433088 2.219590637)
(1713.417044 -2.440741025 -0.9443714001)
(1748.01502 -0.5768452402 -0.6760254384)
(1738.961674 0.2592442157 -1.161407075)
(1734.852916 1.158984603 -2.487060934)
(1736.863954 2.104961569 -3.566922835)
(1734.963343 3.718525294 -3.101542619)
(1734.580599 4.395896945 -2.090080117)
(1735.529701 3.629649542 1.806887354)
(1735.124091 -0.4368492151 1.402980427)
(1737.170696 -1.241133241 2.015923339)
(1740.335857 4.162935923 1.201951927)
(1740.88204 1.321113409 2.584542469)
(1740.881333 0.4148153355 3.879593529)
(1738.645254 -0.8332162981 2.225051884)
(1736.942796 -0.4469572196 -0.4013175446)
(1735.86827 -1.048580993 0.2902662425)
(1735.7748 -1.139944646 0.8633310844)
(1735.62317 -2.327855353 1.160437651)
(1735.731007 -1.880852968 0.9470950547)
(1735.289572 0.6167169114 1.538841599)
(1709.16313 -0.6546574961 0.8799878221)
(1745.736049 1.620841556 1.073247601)
(1737.973875 2.305944425 2.022550259)
(1738.844717 4.483953899 4.306602722)
(1737.587056 3.546055198 4.816869782)
(1738.982439 3.17073242 3.530500737)
(1738.46261 3.202180013 2.652985385)
(1737.898559 0.9537643619 -0.8453532118)
(1736.316509 5.593504772 2.491164735)
(1736.050077 0.4494802648 1.926186073)
(1733.216334 -4.325789766 3.193823761)
(1731.922566 -4.718035524 0.6596718816)
(1732.422978 -3.84609386 -0.5315525129)
(1734.31743 -3.162248725 -0.8742686513)
(1735.293034 -3.74750544 0.8748914834)
(1733.353117 -2.658182838 0.6651442941)
(1733.639736 -0.3035140985 -0.2766844291)
(1734.255199 1.089681569 -2.162572988)
(1732.409835 1.163714739 -0.2551272979)
(1735.680557 -0.1076666425 -0.9589730892)
(1708.065013 3.103247187 1.887711093)
(1745.370569 3.01089404 2.568067381)
(1735.618429 1.599420113 2.791722191)
(1735.117442 -0.09818374299 0.6866364894)
(1735.067488 -1.547805845 0.2677272217)
(1733.314161 -1.657984293 0.6147477688)
(1733.317923 -1.655966745 2.452146413)
(1735.560653 -1.89054829 2.525219306)
(1735.834209 -1.687190998 1.975101871)
(1733.656318 -0.8663657076 0.07413958553)
(1737.988228 2.64355482 1.232098273)
(1736.658565 2.487633188 0.4163267918)
(1735.672234 0.6171102717 0.05294773755)
(1737.01 -0.08703694957 -0.5190926068)
(1735.246172 1.100510395 -0.1391223002)
(1735.744701 0.6751218841 -0.3412618071)
(1732.939923 -1.954944692 0.3268147565)
(1732.469656 -3.152045006 1.639823219)
(1733.006678 -2.694998827 2.078709359)
(1734.1124 -1.049494568 1.056218929)
(1709.278334 0.03972712296 3.230164519)
(1744.206712 -2.147497243 0.5940783053)
(1735.562769 -3.049243962 -0.5165835333)
(1735.479543 -0.7017054184 -0.2033205659)
(1735.296584 -2.452541085 2.657084292)
(1737.093474 -0.5380115628 0.7311527097)
(1735.455625 0.9067631677 -1.863612538)
(1734.973683 2.414506143 -1.465638199)
(1735.416063 0.8442821427 -2.768794287)
(1736.310857 1.636812603 -1.904288169)
(1734.677365 0.8576950187 -2.023692162)
(1735.187328 -1.192190505 -3.397213242)
(1735.286643 -1.277270205 -1.861170644)
(1735.632731 -1.834129927 -1.38908987)
(1736.261475 -2.521444952 -1.128253432)
(1733.022994 -2.690293861 -1.813382188)
(1736.188454 -1.190185198 -2.6115393)
(1737.558527 0.9155208532 -4.258046062)
(1734.76922 -1.322635371 -4.118036614)
(1734.443921 -0.1954949159 -2.813220524)
(1706.027349 -1.761186724 -0.8079563427)
(1743.96139 -2.277409672 -1.126086418)
(1734.819716 -5.168787369 0.1194662721)
(1733.693309 -4.693490948 -2.10586342)
(1733.805343 -0.590081195 -1.616067893)
(1734.096845 0.2144302461 -0.8278772772)
(1734.73225 0.4136960643 0.3979944417)
(1735.922894 -2.538979418 1.130914394)
(1735.046988 -0.9979522595 2.945311259)
(1733.864901 -1.213737026 0.9521030302)
(1731.678872 -0.3974667464 0.2089712317)
(1731.698417 1.24782194 2.051827025)
(1732.035172 1.720444721 3.587790786)
(1732.89638 0.282856523 2.791227415)
(1734.305868 -0.6216401536 1.08024568)
(1734.545456 0.8046175587 0.552986144)
(1733.565727 -1.643736367 1.428175242)
(1732.608649 -0.7879037511 0.1677910118)
(1734.326005 0.1090212975 0.2921986542)
(1735.786152 -0.3933377222 -0.9995449049)
(1708.426297 0.7819401865 -0.1815842396)
(1743.128049 1.124167123 0.8426282992)
(1734.835928 1.553358785 -0.5421339955)
(1738.086575 -0.5394405516 2.056588699)
(1738.338824 -2.305476263 3.108267945)
(1736.208417 -2.369398902 2.775635688)
(1736.893716 -2.081944712 3.067040243)
(1733.824084 -0.8571823116 -0.1357610124)
(1736.06427 -1.818883182 -0.1096237745)
(1737.443372 -2.767501545 -0.2836066154)
(1736.660663 -0.6138299462 -0.6489283892)
(1737.48443 0.9459280664 -1.320122602)
(1735.391627 0.9370715288 -4.415474989)
(1734.875095 3.66054804 -3.588370069)
(1734.146103 1.403336789 -1.586094962)
(1734.884097 2.773873311 -2.110956709)
(1735.170701 4.782365219 -3.310694231)
(1733.767359 5.934815522 -0.4049106026)
(1734.425553 4.535928246 -1.909766981)
(1736.496029 1.864792262 -2.188761481)
(1707.922761 0.530082655 0.1692469045)
(1746.062779 0.08617634778 -0.4520962829)
(1740.082532 3.033679472 1.949603222)
(1737.651148 1.590184704 2.850583987)
(1737.221073 1.363005151 -1.474986346)
(1734.299907 -1.359568418 -0.9572816006)
(1733.871522 -0.2750638995 0.4450234459)
(1736.243326 -1.169815145 0.4053197133)
(1735.972708 0.8692525562 0.04381588539)
(1732.676909 1.274087492 0.7666664023)
(1733.890446 -0.1628094529 1.131224319)
(1734.136509 -0.2378952256 1.817097745)
(1732.710933 -0.8935329916 2.514373246)
(1734.662948 0.4643400223 -0.2349064908)
(1737.171972 4.001041074 -0.6262389991)
(1735.426725 4.489480258 1.4687329)
(1737.241282 2.809408448 0.570284366)
(1737.695584 -0.08319958771 -0.3529439985)
(1739.55822 0.5479722651 0.5980313525)
(1738.421139 0.5422597142 1.39114272)
(1710.549709 0.2251139002 1.48572269)
(1746.542221 1.266672607 1.093666467)
(1737.335186 -2.083877629 -1.780937929)
(1736.282331 1.36566567 -2.786300758)
(1739.026069 0.723421879 -1.871130946)
(1738.670678 -0.06673359122 -3.516063818)
(1739.009024 -0.64562044 -3.666872983)
(1741.072049 -1.010390442 -5.295099727)
(1741.488651 -2.043274405 -3.261673207)
(1740.915505 -0.3944424993 -4.194851973)
(1741.309271 -0.8536401075 -6.777104358)
(1740.463236 0.1913950501 -4.164594348)
(1742.779322 -0.1943383453 -1.341602865)
(1741.261471 -1.296615188 2.114430017)
(1739.676129 -3.750783814 1.523793619)
(1739.238122 -4.276910027 1.538083052)
(1736.120711 -2.678709381 2.359296345)
(1735.104288 -0.6742702565 2.907121836)
(1733.850315 -0.4098686087 1.921147378)
(1731.227246 1.876617456 2.718577489)
(1713.525225 1.058461764 -4.935282402)
(1747.815317 -0.2173128748 -5.659879844)
(1737.274388 0.4544631532 -4.90715803)
(1736.722371 1.524261723 -4.877379463)
(1737.010184 0.7026646977 -4.118752439)
(1737.923478 0.6306876946 -2.861988086)
(1736.435507 0.4789131037 -2.454874043)
(1735.223378 1.538537875 -1.489477486)
(1734.128287 2.116971723 0.09876163113)
(1735.143014 -2.53637572 1.671633192)
(1734.523523 -0.2959808564 2.214360026)
(1735.164394 -3.42575676 1.527059327)
(1736.842951 -3.04462594 -0.5388609652)
(1737.569965 -1.132614891 -1.58009349)
(1736.59901 0.2090312122 -1.373775731)
(1734.94583 1.693691652 -1.10432492)
(1736.68652 1.563134842 -0.2907452447)
(1735.173807 1.469613446 0.01756042159)
(1736.351516 3.945325767 0.4865070146)
(1734.598265 4.596742373 0.9062470649)
(1707.184037 1.718428753 -2.867054093)
(1747.960254 -0.2159761177 -0.9907585892)
(1737.109923 -0.1045771373 0.0463970319)
(1734.855386 -0.6558266253 -0.5672373447)
(1734.691356 -0.8583866335 0.9647546888)
(1731.631273 3.357365382 1.361474008)
(1733.466743 2.40157673 1.859148775)
(1730.98551 3.107563343 1.565049574)
(1734.035242 0.7792531709 -1.715725229)
(1734.242724 1.353859422 -1.117005537)
(1734.346128 -0.25206521 -2.9534616)
(1733.423782 1.127357116 -3.901178948)
(1733.117999 2.430679878 -4.253854204)
(1729.648829 2.185296563 -2.954194672)
(1731.361102 3.415873435 -2.258465353)
(1732.177735 1.739327854 -3.113162742)
(1732.45634 0.3840578039 -2.81088422)
(1734.422446 0.6535101083 -4.007673512)
(1736.745969 -1.250017503 -1.527591166)
(1735.497115 -2.328279416 -3.00525264)
(1702.517621 -2.620568566 -3.032941293)
(1736.843013 -0.9074482576 -2.809169427)
(1729.940134 -1.141023015 -1.907272903)
(1733.274771 0.7304584933 0.09183029297)
(1733.387113 1.050458765 0.1941902337)
(1732.823165 1.524636359 0.2718751731)
(1733.852047 -1.331329416 1.068671617)
(1732.154282 -0.6741371231 1.904947615)
(1732.632561 1.816326679 1.374438833)
(1731.597732 5.366523866 2.531671662)
(1729.877287 6.184635505 1.538551727)
(1730.427784 4.45272122 2.282833925)
(1730.22664 0.5459712599 3.910677515)
(1732.772928 -1.338287661 4.804691242)
(1732.072549 -4.309832684 0.6283487978)
(1731.566909 -2.116210259 -1.752190652)
(1734.373061 -3.510573493 -0.6672376711)
(1731.954745 -3.991669328 -1.478636046)
(1732.706566 -4.392579751 -3.241170778)
(1734.467097 -3.167433966 -3.344247664)
(1708.290903 3.878178499 -1.822376145)
(1746.049456 4.526916925 -1.887852862)
(1738.464358 5.062592361 -1.801315688)
(1736.701486 3.923203935 -1.542403906)
(1735.723951 2.38256319 -2.406650569)
(1736.64646 1.380103834 -3.1985531)
(1734.702066 2.800228195 -1.599556485)
(1736.083203 4.976980845 -1.241040628)
(1738.094618 2.686046417 -1.288480577)
(1735.899328 -0.6591339613 -1.344067208)
(1738.869578 -1.912119713 -0.09078479592)
(1736.645538 -1.322896879 -0.4074390279)
(1736.636054 1.175775817 -2.806014506)
(1734.478316 0.5774900421 -1.762705968)
(1734.217054 0.7095553325 -1.245615429)
(1735.888125 -2.415426761 0.02319734367)
(1735.659504 -3.070826571 0.7986805101)
(1733.903672 -2.184018796 0.7345836576)
(1734.230481 0.7719329348 -0.9523707107)
(1734.310129 -1.481234452 0.1761023829)
(1705.925796 0.1708481572 -1.759025118)
(1745.827406 0.9051311274 -2.381605348)
(1736.85168 0.07965861385 -4.976069784)
(1737.511627 0.6270548174 -3.752121021)
(1738.649443 2.918691796 -2.983827172)
(1738.930849 3.597002625 -3.418652077)
(1737.884112 3.4187405 -4.212630334)
(1740.774999 1.319117065 -4.576814344)
(1736.045909 2.536743075 -2.25994661)
(1736.279239 2.867062139 -0.9077435361)
(1734.515415 0.3687709574 -1.645412906)
(1735.917186 0.6682864897 -1.681514217)
(1735.533938 0.559466159 -3.455950007)
(1735.378294 1.214250825 -2.881638391)
(1737.195287 1.398026586 -4.15667909)
(1734.6125 2.083310644 -4.066806939)
(1736.702406 4.117510462 -4.978186981)
(1736.472071 2.453829791 -0.5074125227)
(1736.125212 0.2519003219 -1.770305791)
(1736.679935 2.150773227 -2.112905981)
(1710.516032 4.584055619 -1.234676938)
(1745.969782 2.538563865 -1.117080757)
(1736.2258 4.229026774 1.548529686)
(1734.079006 4.789009576 1.310343264)
(1736.281605 4.557770314 -1.202772305)
(1737.306966 6.006202283 -0.2891981138)
(1734.790127 5.666319882 -0.6808325957)
(1733.228319 5.58461793 0.5813241142)
(1732.985376 5.564385662 -1.750724133)
(1733.47699 7.149280844 -4.439444839)
(1733.672187 10.85176261 -4.511143173)
(1733.880847 11.96354868 -1.599546204)
(1735.281128 7.556623921 0.03265275999)
(1736.742486 7.561630736 1.561288175)
(1736.09685 9.352877663 0.7200386524)
(1737.665366 10.41306217 1.873406053)
(1736.464156 6.911990038 1.069807523)
(1734.942779 7.044903271 -0.50491201)
(1737.903276 5.179715899 0.630622784)
(1739.574052 6.068754538 1.862375977)
(1737.157205 9.028390261 -3.731347378)
(1735.099711 6.711162821 -4.720855367)
(1736.381545 6.019305471 -2.373511443)
(1734.749648 4.128739181 -2.158876769)
(1732.725403 5.805393239 -2.194437853)
(1731.89388 8.657001162 -1.818756047)
(1738.090878 2.725934619 -2.31607926)
(1738.611512 5.059502671 -2.081966538)
(1740.851414 3.318254446 -0.5195731827)
(1737.530582 3.803732565 -0.2830452387)
(1734.877199 2.03125527 0.1226409991)
(1735.406617 1.940917584 3.040425558)
(1736.005221 2.401283436 2.833832437)
(1734.810745 7.764214725 2.006625826)
(1736.066599 7.822706269 1.056871111)
(1736.188525 9.01702847 -0.496604314)
(1736.248888 2.416892731 2.970590578)
(1736.079327 2.251560253 2.469368266)
(1733.557439 2.291085608 4.570115171)
(1734.109912 0.7640096044 4.923572345)
(1734.371235 2.652915116 3.636106772)
(1733.753668 5.053047813 2.933114266)
(1736.836214 4.231633073 0.9775432691)
(1735.079532 4.567204381 3.257060346)
(1735.209909 4.454374024 3.740729689)
(1730.301313 6.906605034 3.478961822)
(1737.542128 -0.2750216326 -1.680933738)
(1736.482362 -0.6649613265 -2.781640754)
(1736.585061 -0.8524853502 -2.225784225)
(1739.184731 -2.228003823 -3.766865005)
(1738.593645 -4.565947017 -2.517581484)
(1737.58026 -2.029728594 -2.273738858)
(1737.237431 0.8396594537 -1.862793363)
(1736.102664 0.1532254461 -3.819997417)
(1735.190349 1.260397314 -2.079262404)
(1733.211416 0.2534476096 -0.6268816455)
(1738.152767 -2.576663355 -1.212681018)
(1738.674959 0.3288879158 -1.20666367)
(1738.031108 2.853400699 -1.030130035)
(1735.477361 3.391366908 -1.846585467)
(1734.960269 4.123430271 0.8576315759)
(1731.256664 2.914813678 0.5120380536)
(1731.742675 -2.102982424 2.334617733)
(1731.96969 -4.282503144 2.860991696)
(1731.860006 -1.768927827 2.350649392)
(1730.050467 0.04553651635 0.4556994537)
(1733.653655 -0.4059060287 4.645296598)
(1733.739303 0.2821681827 3.066783326)
(1734.576442 -1.303437378 2.936308633)
(1736.142907 -2.027698755 2.526066149)
(1738.803099 -0.159261333 0.9579961032)
(1736.64922 -1.13310661 3.404571032)
(1734.911083 1.73953921 3.783957037)
(1735.231154 2.495194829 1.792882086)
(1734.383754 -0.2017598527 0.6759650894)
(1735.371976 2.701588613 -0.1731451561)
(1737.855731 0.391181258 -2.3266743)
(1738.115857 0.1519944966 -0.4799911855)
(1738.291929 0.6855141595 -0.961573258)
(1734.51114 -1.052648814 0.7953198128)
(1732.824569 -3.01145673 -0.9911497365)
(1733.506922 -1.451271105 -2.206695782)
(1734.708907 -1.186160956 -3.984897269)
(1735.546857 0.4014249543 -5.606094186)
(1736.589466 0.7931706707 -3.915558506)
(1732.765352 1.400865657 -5.088160154)
(1730.449712 0.4982242647 1.683348731)
(1728.786021 -0.828731891 -0.7695602986)
(1728.888261 -4.092160917 -2.007785671)
(1731.438442 -2.189183639 -3.870645281)
(1730.935378 -0.7831783462 -6.671775866)
(1732.658461 -1.653725589 -6.254205806)
(1732.655452 -1.991534025 -3.73524496)
(1733.981759 -3.072292849 -3.835008304)
(1734.952501 -0.4784100378 -3.294287331)
(1736.854937 -0.6994026262 -2.235350304)
(1735.049047 0.5391942982 -1.29400324)
(1735.12851 1.038322348 -2.038051894)
(1736.858272 1.991788872 -0.3127174141)
(1735.686633 1.041268479 0.9182474566)
(1736.693081 1.547527189 0.7006554562)
(1735.94512 3.286890736 0.7530738961)
(1736.354364 3.742209016 -1.994236173)
(1735.617438 4.036360103 -3.15522985)
(1736.202251 -1.193674464 -3.018101738)
(1733.32521 -3.319142226 -4.155338265)
(1734.239429 0.410548342 -2.452032924)
(1732.899759 0.688538875 -3.043899384)
(1737.098475 2.766108154 -3.620881891)
(1735.453461 3.909967876 -3.377004956)
(1733.073458 1.904760938 -1.580326059)
(1734.076027 1.371467145 -3.089522632)
(1730.106961 -1.2687437 -0.8478993094)
(1729.196705 -0.6001606563 0.5189359152)
(1729.803281 1.411480927 0.7089690756)
(1730.769236 2.329316888 -0.1116270601)
(1738.94346 0.2907215071 -3.309409872)
(1737.456808 0.5130576103 -1.826067411)
(1733.920748 0.2079805012 -1.849290616)
(1731.7647 -0.7187933752 -0.764112334)
(1731.438768 1.682762844 -2.137093985)
(1734.049466 0.2646173032 -1.945502145)
(1733.42124 1.391592688 -1.955751316)
(1734.459012 2.010033359 -2.93932338)
(1734.636129 4.558256138 -0.781257136)
(1734.384316 3.314265967 2.392786248)
(1736.037763 0.8686288544 1.079915723)
(1735.740622 -0.3846380569 1.633183734)
(1737.87804 -0.8117824304 1.73601027)
(1740.152422 0.6680649791 2.205163723)
(1740.216856 1.559184255 2.944457409)
(1738.421844 3.224970344 2.518521339)
(1738.825137 2.342033965 1.254233385)
(1737.927332 4.905499656 3.642222697)
(1735.942445 4.403537768 1.292878701)
(1736.705304 6.287082292 -1.551418771)
(1734.447829 3.149663974 3.194219469)
(1735.295079 4.143710755 2.250600763)
(1733.673415 5.22695536 1.900080084)
(1734.258522 4.413439887 2.320753247)
(1734.292475 2.995664034 3.906354949)
(1735.055987 1.851505668 2.167354361)
(1736.361518 -0.05027661982 1.557630532)
(1735.736606 -1.052139961 -0.3328191476)
(1736.149482 -2.521267389 -3.200327194)
(1736.735472 -0.6711121283 -4.57644233)
(1733.292884 3.923991982 -0.9510000293)
(1731.211812 2.692423921 -0.8743758241)
(1733.255137 0.4014169162 -1.33923896)
(1731.921268 1.778870597 -2.810137433)
(1733.726209 -1.115484042 -2.823674719)
(1733.017788 -1.317785688 -2.868179768)
(1732.643275 -0.3439181621 -3.456811283)
(1732.793514 -1.921049063 -3.136652558)
(1733.892671 -2.850984922 -1.222348954)
(1734.294709 -6.371094417 1.766528062)
(1738.036278 -3.417007279 -0.7292044434)
(1736.347818 -1.800799324 -1.456290545)
(1735.299388 -1.927035174 -1.354150721)
(1733.760361 0.7916609571 -1.60761829)
(1732.745601 4.09213884 -0.0254726596)
(1734.289433 3.385051282 -0.7032567666)
(1734.117695 2.054206222 1.266100674)
(1735.616561 1.560447176 1.964867922)
(1738.073991 5.210556268 2.935584529)
(1738.522288 5.633421363 1.241389089)
(1735.110761 -0.8800147683 -2.187981239)
(1734.369714 0.07737173678 -2.633186095)
(1733.999171 0.4058149831 -0.7053962649)
(1735.972944 -1.701741576 -1.018747443)
(1738.131086 -1.353005526 0.120768543)
(1737.064663 -0.1793714582 0.2150421209)
(1735.680775 4.102735913 -2.092611943)
(1736.467795 6.522305927 -2.700964606)
(1731.586242 5.01224185 -3.52271277)
(1731.622067 2.1027312 -2.002862552)
(1733.468111 -2.332106751 -1.997540068)
(1733.570891 -2.751639117 0.1489740654)
(1734.533026 -0.06464631417 -1.863152239)
(1733.841322 -0.9111739561 -2.382343852)
(1734.571876 1.037754749 -3.884809943)
(1733.59372 2.271707826 -0.7748935196)
(1732.652421 2.414283162 -1.496757584)
(1731.235244 -1.179289931 -2.161616248)
(1731.806664 -3.72236061 -2.871688732)
(1730.715463 -0.2586258501 -2.208723761)
(1733.609912 1.892838938 -1.679137002)
(1731.672972 -0.5998296261 -4.278504327)
(1733.147887 -3.348116066 -5.003203523)
(1733.219694 -2.751285267 -2.941712421)
(1733.122556 -3.143808876 -3.40341038)
(1732.729624 -4.62141761 -6.597442709)
(1735.067238 -2.950845143 -3.820133275)
(1735.036791 -4.154812339 -3.276766027)
(1735.667756 -2.382106558 -1.085889089)
(1736.888879 -1.863282533 -0.823031524)
(1739.049973 5.026663562 2.214380439)
(1741.46563 7.098461383 0.301080612)
(1741.831196 6.63415799 2.402695952)
(1741.594885 5.803982735 3.572455979)
(1742.573661 4.169939473 1.508129509)
(1741.673827 4.914034419 4.441142449)
(1742.254094 3.359612806 5.003858766)
(1741.02249 5.150846992 3.026849008)
(1739.027176 6.117898452 2.858972081)
(1740.786781 4.821343867 3.498945528)
)
;

boundaryField
{
    flow
    {
        type            calculated;
        value           nonuniform List<vector> 
48
(
(1708.608636 0.1236672256 -0.3224817758)
(1709.0032 2.704236103 1.403833231)
(1708.822965 3.373489787 -5.052390857)
(1710.158342 0.8285949446 0.4753034557)
(1713.417044 -2.440741025 -0.9443714001)
(1709.16313 -0.6546574961 0.8799878221)
(1708.065013 3.103247187 1.887711093)
(1709.278334 0.03972712296 3.230164519)
(1706.027349 -1.761186724 -0.8079563427)
(1708.426297 0.7819401865 -0.1815842396)
(1707.922761 0.530082655 0.1692469045)
(1710.549709 0.2251139002 1.48572269)
(1713.525225 1.058461764 -4.935282402)
(1707.184037 1.718428753 -2.867054093)
(1702.517621 -2.620568566 -3.032941293)
(1708.290903 3.878178499 -1.822376145)
(1705.925796 0.1708481572 -1.759025118)
(1710.516032 4.584055619 -1.234676938)
(1710.516032 4.584055619 -1.234676938)
(1745.969782 2.538563865 -1.117080757)
(1736.2258 4.229026774 1.548529686)
(1734.079006 4.789009576 1.310343264)
(1736.281605 4.557770314 -1.202772305)
(1737.306966 6.006202283 -0.2891981138)
(1734.790127 5.666319882 -0.6808325957)
(1733.228319 5.58461793 0.5813241142)
(1732.985376 5.564385662 -1.750724133)
(1733.47699 7.149280844 -4.439444839)
(1733.672187 10.85176261 -4.511143173)
(1733.880847 11.96354868 -1.599546204)
(1735.281128 7.556623921 0.03265275999)
(1736.742486 7.561630736 1.561288175)
(1736.09685 9.352877663 0.7200386524)
(1737.665366 10.41306217 1.873406053)
(1736.464156 6.911990038 1.069807523)
(1734.942779 7.044903271 -0.50491201)
(1737.903276 5.179715899 0.630622784)
(1739.574052 6.068754538 1.862375977)
(1739.049973 5.026663562 2.214380439)
(1741.46563 7.098461383 0.301080612)
(1741.831196 6.63415799 2.402695952)
(1741.594885 5.803982735 3.572455979)
(1742.573661 4.169939473 1.508129509)
(1741.673827 4.914034419 4.441142449)
(1742.254094 3.359612806 5.003858766)
(1741.02249 5.150846992 3.026849008)
(1739.027176 6.117898452 2.858972081)
(1740.786781 4.821343867 3.498945528)
)
;
    }
    obstacle
    {
        type            calculated;
        value           nonuniform List<vector> 0();
    }
    frontAndBack
    {
        type            empty;
    }
    procBoundary2to0
    {
        type            processor;
        value           nonuniform List<vector> 
31
(
(1707.632247 2.913876249 1.483818784)
(1747.45472 2.394236647 0.5503419094)
(1739.107371 -3.577623839 -1.064558071)
(1741.135963 -0.8945327608 -0.9344766134)
(1739.747171 0.1909956253 -0.9214335444)
(1739.81747 2.015775547 -0.3644658829)
(1736.352618 1.980435779 -1.783646822)
(1738.620902 2.293356199 0.6865841311)
(1735.673773 1.941272472 1.833852574)
(1733.530066 1.658300094 -0.1298733165)
(1732.949887 2.773982859 3.378373068)
(1731.014327 -0.5450730839 0.8116213824)
(1731.266201 -0.4862671515 -0.5198604497)
(1731.78033 -2.204571518 -2.641789477)
(1732.659106 -3.578827392 -4.877845919)
(1735.777579 -2.430003176 -3.99758898)
(1733.248206 -0.3645485817 -2.604903733)
(1733.150324 3.265039103 -3.957020741)
(1735.37411 3.698699815 -3.570020466)
(1736.248437 6.797385495 -3.562397508)
(1736.72855 4.387683961 0.5759835005)
(1734.132178 6.037936283 0.4365642481)
(1731.710418 5.019889615 0.7415169791)
(1727.266197 7.468639249 -2.851243055)
(1727.103998 11.87725447 1.402536372)
(1725.795811 12.43729257 5.488981039)
(1737.302619 4.546126283 -3.136790336)
(1736.722132 6.744505393 -2.697310014)
(1732.537676 6.75258964 -4.395737262)
(1734.884141 8.042098381 -4.703499873)
(1734.884141 8.042098381 -4.703499873)
)
;
    }
    procBoundary2to3
    {
        type            processor;
        value           nonuniform List<vector> 
19
(
(1730.207285 10.21479162 -1.709096018)
(1731.57948 9.674281276 1.80764837)
(1731.967876 9.863161369 2.356881678)
(1733.438043 3.414963303 -1.146611134)
(1728.536606 -2.389920503 0.3747530665)
(1735.512935 3.038503543 1.462238065)
(1733.859194 2.534055835 -5.503207484)
(1735.4808 -2.013303457 -1.26779141)
(1732.770099 -0.8690232693 -2.920444886)
(1730.944652 3.469559394 -1.57722364)
(1735.326332 2.786066154 5.000293168)
(1735.135372 5.529647419 -5.314134041)
(1735.396814 -1.148379138 -4.3371265)
(1731.880989 -1.744222861 2.283839673)
(1738.497599 0.8425321851 -0.6055498886)
(1733.183585 4.143907472 -0.3738921098)
(1730.948001 1.381103279 -2.483407166)
(1737.56494 0.8517492729 -0.2252647756)
(1736.634896 3.243519611 2.915607185)
)
;
    }
}


// ************************************************************************* //
