/*--------------------------------*- C++ -*----------------------------------*\
| =========                 |                                                 |
| \\      /  F ield         | OpenFOAM: The Open Source CFD Toolbox           |
|  \\    /   O peration     | Version:  2406                                  |
|   \\  /    A nd           | Website:  www.openfoam.com                      |
|    \\/     M anipulation  |                                                 |
\*---------------------------------------------------------------------------*/
FoamFile
{
    version     2.0;
    format      ascii;
    arch        "LSB;label=32;scalar=64";
    class       Cloud<dsmcParcel>;
    location    "0.002/lagrangian/dsmc";
    object      coordinates;
}
// * * * * * * * * * * * * * * * * * * * * * * * * * * * * * * * * * * * * * //

5095
(
(0.3268296075 0.1929586065 0.1436265898 0.3365851963) 445 2222 1
(0.1011454857 0.4494272572 0.1877363884 0.2616908688) 435 841 2
(0.1048352972 0.4475823514 0.3809346375 0.06664771387) 414 785 1
(0.1622028219 0.002078565906 0.4168200231 0.4188985891) 484 936 1
(0.02974043633 0.4070701424 0.4851297818 0.07805963941) 484 934 1
(0.2022258023 0.3988870988 0.2763524981 0.1225346007) 513 991 2
(0.18439444 0.3683516593 0.40780278 0.03945112068) 537 1082 2
(0.3201411811 0.2985471466 0.3399294094 0.04138226285) 445 862 2
(0.03284049396 0.483579753 0.4817899893 0.001789763762) 532 1027 2
(0.4087391284 0.1957964338 0.09983400202 0.2956304358) 513 991 1
(0.04265636033 0.4786718198 0.08994932828 0.3887224916) 375 729 1
(0.1387919193 0.3845609873 0.4306040403 0.04604305308) 414 801 1
(0.004128480232 0.2079550197 0.2899807402 0.4979357599) 395 2217 1
(0.5279797744 0.1802373284 0.0557727844 0.2360101128) 435 2221 1
(0.147376403 0.4263117985 0.4143668509 0.01194494758) 451 855 1
(0.1128680729 0.4435659636 0.2513026299 0.1922633337) 474 917 2
(0.5776492806 0.2111753597 0.1037412757 0.1074340839) 534 1031 2
(0.5154011032 0.2118083797 0.2422994484 0.03049106869) 391 760 2
(0.3083644597 0.3458177701 0.252360454 0.09345731611) 473 897 1
(0.2532058567 0.3368906297 0.3733970716 0.03650644189) 444 858 1
(0.5509381787 0.2245309107 0.1484576836 0.07607322702) 424 822 2
(0.03723848684 0.4813807566 0.3954686092 0.08591214735) 544 1089 1
(0.1152217444 0.4423891278 0.02130146651 0.4210876613) 493 954 1
(0.1489771472 0.1186465746 0.4255114264 0.3068648518) 393 761 1
(0.486585831 0.2368520343 0.2567070845 0.01985505021) 415 803 1
(0.5622934514 0.2188532743 0.1458868541 0.07296642024) 494 953 2
(0.5279137609 0.2360431196 0.1988124637 0.0372306559) 425 822 2
(0.1460455696 0.4269772152 0.07476441906 0.3522127962) 433 839 2
(0.4789046084 0.2589084001 0.001639295713 0.2605476958) 525 995 2
(0.8620345852 0.04540766872 0.0689827074 0.02357503869) 432 835 1
(0.1838321021 0.2830214677 0.4080839489 0.1250624812) 433 840 2
(0.04175832 0.2144674602 0.2646533798 0.47912084) 503 972 1
(0.4259343298 0.2870328351 0.07074530506 0.2162875301) 523 1010 2
(0.1746452894 0.4126773553 0.1120736476 0.3006037077) 494 955 2
(0.6535014212 0.1732492894 0.05343506518 0.1198142242) 384 728 1
(0.6075043443 0.1391164269 0.1962478278 0.05713140093) 482 933 2
(0.03660581545 0.4816970923 0.202794892 0.2789022003) 451 873 2
(0.7529600986 0.1095805335 0.01393941718 0.1235199507) 475 2225 1
(0.003477909595 0.4982610452 0.04183194042 0.4564291048) 405 784 2
(0.03061717149 0.315302614 0.4846914143 0.1693888002) 515 995 2
(0.1866069537 0.1107669413 0.2959295819 0.4066965231) 493 953 1
(0.2308083728 0.247194785 0.1374010286 0.3845958136) 472 895 2
(0.7832461281 0.04455472134 0.108376936 0.06382221462) 444 858 1
(0.1381953312 0.4309023344 0.3532718784 0.07763045597) 502 968 2
(0.6099409655 0.03191557595 0.1631139413 0.1950295172) 483 916 2
(0.6342102681 0.182894866 0.06349746007 0.1193974059) 423 802 1
(0.551876489 0.1720338935 0.05202786201 0.2240617555) 434 841 1
(0.3280226237 0.005334468257 0.3306542199 0.3359886882) 409 775 2
(0.487742781 0.2561286095 0.03635740171 0.2197712078) 433 839 2
(0.05155815276 0.4742209236 0.07951123801 0.3947096856) 461 893 1
(0.08215263036 0.4589236848 0.3399965394 0.1189271454) 454 879 2
(0.1647793522 0.4176103239 0.1248903713 0.2927199526) 415 805 1
(0.09007423763 0.4549628812 0.3097496948 0.1452131864) 473 913 2
(0.8853669243 0.05731653785 0.02936770773 0.02794883012) 505 976 1
(0.3534052002 0.3232973999 0.1994874844 0.1238099155) 435 841 2
(0.3021341955 0.3489329022 0.3328414375 0.01609146473) 384 728 1
(0.3525997029 0.3237001486 0.2582385993 0.06546154932) 414 801 2
(0.3762916348 0.3118541826 0.1512481354 0.1606060472) 405 2218 2
(0.1216725739 0.01019181136 0.4289719017 0.439163713) 465 2224 1
(0.1462558757 0.4268720621 0.02714146523 0.3997305969) 433 839 2
(0.2967747333 0.3516126333 0.003409113282 0.34820352) 483 932 2
(0.2043459191 0.3978270404 0.01217494957 0.3856520909) 415 2219 2
(0.5449936919 0.08256579168 0.2275031541 0.1449373624) 453 875 1
(0.7126501002 0.01141873535 0.1436749499 0.1322562145) 419 813 2
(0.07354726838 0.4632263658 0.3291586942 0.1340676717) 472 913 2
(0.6957951796 0.01450878965 0.1521024102 0.1375936205) 361 700 1
(0.2767041849 0.3616479075 0.2782165249 0.08343138268) 454 877 2
(0.1878082234 0.4060958883 0.02077454015 0.3853213482) 484 936 2
(0.4615028603 0.2692485699 0.2668443181 0.002404251809) 452 875 2
(0.5288241205 0.2355879398 0.08319613008 0.1523918097) 434 839 2
(0.3398938997 0.3300530502 0.2449497641 0.08510328611) 483 935 1
(0.2235577859 0.388221107 0.3849789745 0.003242132562) 364 2207 2
(0.3053973311 0.2786307479 0.3473013344 0.06867058659) 383 745 2
(0.01455619094 0.4927219045 0.3483706371 0.1443512675) 418 810 2
(0.2980128362 0.3509935819 0.2903046089 0.06068897295) 394 766 1
(0.2586944022 0.2367780835 0.1338747154 0.3706527989) 385 2216 1
(0.2445893227 0.3777053387 0.1476523344 0.2300530042) 422 800 1
(0.06175053775 0.2147875438 0.4691247311 0.2543371873) 490 948 2
(0.01798841621 0.3877260113 0.1032797806 0.4910057919) 493 953 1
(0.4204344557 0.2897827721 0.2260685225 0.06371424961) 445 843 1
(0.02587178751 0.4870641062 0.0463855824 0.4406785238) 474 917 2
(0.1690761512 0.4154619244 0.375655129 0.03980679535) 405 767 1
(0.668293713 0.1658531435 0.09917398444 0.06667915907) 454 879 2
(0.3506118073 0.2336769344 0.09101716189 0.3246940963) 492 933 2
(0.1316988225 0.09553257256 0.4341505887 0.3386180162) 471 909 1
(0.7889974202 0.1055012899 0.07329815103 0.03220313887) 495 938 1
(0.07618619043 0.4619069048 0.1568644659 0.3050424389) 495 938 1
(0.5931890634 0.2034054683 0.09858778774 0.1048176806) 404 766 1
(0.1281047293 0.2158394825 0.4359476353 0.2201081528) 395 767 2
(0.1882736993 0.2455909493 0.4058631504 0.160272201) 385 748 2
(0.2449892901 0.3775053549 0.01673655703 0.3607687979) 465 900 1
(0.7235583512 0.1382208244 0.01837132979 0.1198494946) 410 795 2
(0.4245576769 0.2877211616 0.00474934057 0.282971821) 404 782 2
(0.5813132294 0.1414070946 0.06793629067 0.2093433853) 524 1012 1
(0.5223556474 0.2388221763 0.1281254624 0.1106967139) 453 875 2
(0.6008859009 0.03609855074 0.1995570495 0.1634584988) 513 992 2
(0.1523013629 0.2401535105 0.183695808 0.4238493185) 485 2226 1
(0.2818126743 0.1296216289 0.229472034 0.3590936628) 504 974 1
(0.5001718516 0.1589113648 0.09100270939 0.2499140742) 517 980 2
(0.2990678893 0.1943849004 0.156081155 0.3504660554) 493 935 2
(0.7059942585 0.1110039467 0.03599892402 0.1470028707) 482 932 1
(0.1595425609 0.4202287195 0.08553680638 0.3346919132) 514 993 2
(0.1045147588 0.4477426206 0.0570986312 0.3906439894) 492 951 2
(0.5032550908 0.01172200847 0.2366504461 0.2483724546) 402 780 1
(0.3553299112 0.3223350444 0.1571816039 0.1651534405) 404 766 1
(0.2057875984 0.1470983999 0.3971062008 0.2500078009) 385 746 1
(0.6500594638 0.1206812306 0.0542890375 0.1749702681) 382 742 1
(0.3451135975 0.2659591861 0.3274432013 0.06148401514) 423 821 2
(0.7699419142 0.1150290429 0.08912524007 0.02590380281) 384 746 2
(0.07338033548 0.4633098323 0.04671669951 0.4165931327) 433 839 2
(0.6058180418 0.1970909791 0.07581268804 0.1212782911) 444 860 2
(0.1421174596 0.4289412702 0.220380013 0.2085612572) 412 781 1
(0.5013056365 0.0753569141 0.2493471817 0.1739902676) 463 897 2
(0.1969536531 0.06908502293 0.3324381505 0.4015231734) 523 1010 1
(0.01327677583 0.2590787168 0.2342828953 0.4933616121) 374 709 2
(0.1340483063 0.1297922246 0.4329758468 0.3031836222) 364 706 1
(0.01564778432 0.3367801203 0.4921761078 0.1553959876) 385 746 1
(0.06078195249 0.0469907125 0.4696090238 0.4226183113) 411 795 1
(0.4100974537 0.2949512731 0.1297586246 0.1651926485) 363 704 2
(0.245931576 0.377034212 0.2619601274 0.1150740846) 364 709 1
(0.05938294926 0.4666707311 0.4703085254 0.003637794237) 375 727 1
(0.1076558114 0.3610388173 0.4461720943 0.08513327702) 436 845 2
(0.4413602744 0.2793198628 0.1005482631 0.1787715997) 445 843 1
(0.006952700257 0.4965236499 0.4097839955 0.0867396544) 480 928 2
(0.1037016908 0.3067131972 0.1414359574 0.4481491546) 385 729 2
(0.6442166393 0.1404332156 0.1778916804 0.03745846471) 455 881 2
(0.7732633112 0.0192242776 0.1133683444 0.09414406683) 392 762 2
(0.2046681151 0.1734519216 0.3976659424 0.2242140208) 464 899 2
(0.2410210902 0.1567707371 0.3794894549 0.2227187178) 445 862 2
(0.3327018156 0.3336490922 0.07624864686 0.2574004453) 453 878 1
(0.6182261469 0.1480710608 0.1908869266 0.04281586579) 544 1041 1
(0.3225917916 0.08033961986 0.3387041042 0.2583644843) 405 786 2
(0.1590583103 0.4204708449 0.3007735737 0.1196972712) 455 2223 2
(0.02975438409 0.2618211198 0.485122808 0.2233016881) 465 900 2
(0.4116581689 0.04453149386 0.2496394217 0.2941709156) 503 972 1
(0.1668151912 0.3723624194 0.4165924044 0.04422998502) 462 892 1
(0.411717544 0.294141228 0.0276395492 0.2665016788) 524 1012 2
(0.3767900582 0.2908061942 0.3116049709 0.0207987767) 404 782 1
(0.7581457812 0.1209271094 0.04258118228 0.07834592714) 373 726 1
(0.2749735421 0.362513229 0.3320120179 0.03050121112) 413 801 2
(0.6103170811 0.1832174362 0.01162402321 0.1948414594) 405 2218 1
(0.4671299006 0.1684548292 0.09798022051 0.2664350497) 403 782 1
(0.7129047133 0.1435476434 0.003270073698 0.1402775697) 442 856 2
(0.05115929446 0.4744203528 0.2813303172 0.1930900356) 415 786 1
(0.4488175095 0.107075366 0.2755912452 0.1685158793) 375 729 2
(0.8427938111 0.001246240744 0.07860309445 0.0773568537) 436 845 2
(0.07874216864 0.4606289157 0.1034657513 0.3571631644) 402 778 2
(0.001067457884 0.4994662711 0.2056403922 0.2938258789) 395 748 1
(0.0842874428 0.4278464401 0.4578562786 0.03000983849) 432 838 2
(0.2470247006 0.3764876497 0.04654751867 0.329940131) 493 951 2
(0.001913547099 0.4803403815 0.4990432265 0.01870284491) 402 778 1
(0.08714804089 0.4564259796 0.178439673 0.2779863066) 435 841 2
(0.009381237098 0.4953093815 0.07410393165 0.4212054498) 383 745 1
(0.2743948767 0.3628025616 0.02419257825 0.3386099834) 425 824 1
(0.3495412355 0.1226601272 0.3252293822 0.2025692551) 465 900 2
(0.4049158828 0.152962442 0.1445796166 0.2975420586) 535 2231 1
(0.5096423644 0.2451788178 0.002843418763 0.242335399) 473 897 1
(0.7631183718 0.1184408141 0.0381754072 0.08026540688) 532 1028 1
(0.4842003924 0.1501212493 0.2578998038 0.1077785545) 525 1014 2
(0.2828522026 0.3585738987 0.217409186 0.1411647127) 541 1038 2
(0.3080784929 0.0671349427 0.2788258109 0.3459607536) 543 1030 2
(0.1467361741 0.426631913 0.3399122245 0.08671968848) 384 728 1
(0.4525786287 0.2195654111 0.05414527452 0.2737106856) 422 800 2
(0.6988730818 0.1505634591 0.03434588816 0.1162175709) 392 762 1
(0.3347739722 0.03707891922 0.3326130139 0.2955340947) 411 798 2
(0.1083609627 0.4458195186 0.2261821756 0.219637343) 375 2215 2
(0.2320752726 0.3839623637 0.3448516274 0.03911073633) 384 744 2
(0.1450293807 0.02144876118 0.4274853096 0.4060365485) 395 767 2
(0.02383953244 0.3594665395 0.4880802338 0.1286136943) 461 890 1
(0.4422751096 0.08219374516 0.2788624452 0.1966687) 415 805 2
(0.2467633842 0.3766183079 0.05280415293 0.3238141549) 394 766 1
(0.07469931269 0.4626503437 0.2905713593 0.1720789844) 475 919 1
(0.552604923 0.1195972585 0.2236975385 0.1041002801) 473 913 1
(0.2588410192 0.3705794904 0.3283796902 0.04219980014) 443 840 1
(0.1041606049 0.4479196975 0.01561584442 0.4323038531) 384 746 2
(0.15046531 0.424767345 0.09064166367 0.3341256813) 504 956 1
(0.4914433524 0.2542783238 0.1448881158 0.109390208) 435 841 2
(0.167070298 0.416464851 0.3273236403 0.08914121068) 465 898 2
(0.5579805249 0.10555789 0.2210097375 0.1154518476) 524 1013 2
(0.5067767496 0.2466116252 0.1682994812 0.07831214404) 492 951 2
(0.04788003805 0.1226934298 0.3533665512 0.476059981) 474 899 2
(0.05231524462 0.001297250293 0.4738423777 0.4725451274) 475 917 1
(0.3236501562 0.180063081 0.3381749219 0.1581118409) 472 911 1
(0.01891496696 0.4078311627 0.08271135378 0.4905425165) 474 899 2
(0.2943844079 0.3528077961 0.2920132889 0.06079450715) 519 1002 2
(0.1487891406 0.218989343 0.4256054297 0.2066160867) 521 1004 1
(0.5883079788 0.2058460106 0.1535403922 0.05230561846) 424 820 2
(0.3122173907 0.3438913046 0.03000217333 0.3138891313) 464 880 1
(0.836815927 0.08159203649 0.03569780814 0.04589422835) 522 1008 2
(0.3038773631 0.2860002931 0.06206102538 0.3480613184) 433 839 1
(0.1453767774 0.1968466773 0.230464934 0.4273116113) 395 748 2
(0.2940949405 0.0386736947 0.314278835 0.3529525297) 421 816 1
(0.5130436051 0.2434781975 0.2174790598 0.02599913766) 413 802 1
(0.6153097227 0.06200655094 0.1303385877 0.1923451386) 380 738 1
(0.4847943433 0.2321110348 0.2576028283 0.02549179355) 382 743 2
(0.1666945122 0.2460178257 0.4166527439 0.1706349182) 361 703 2
(0.5271240327 0.132093128 0.1043448556 0.2364379836) 474 899 2
(0.4601790354 0.2699104823 0.004742903918 0.2651675784) 434 841 2
(0.2871215118 0.176004297 0.1804349471 0.3564392441) 531 1025 1
(0.7886562178 0.1056718911 0.03333752702 0.07233436406) 484 936 2
(0.462880966 0.06702518735 0.2015343297 0.268559517) 462 876 2
(0.002309821083 0.4988450895 0.1910845064 0.3077605831) 465 898 2
(0.07330627627 0.3396237088 0.4633468619 0.1237231531) 481 931 2
(0.1990434872 0.4004782564 0.04896158919 0.3515166672) 404 782 2
(0.2531699994 0.003569221589 0.3698457787 0.3734150003) 495 938 2
(0.6013709525 0.1993145238 0.07818509432 0.1211294294) 454 861 1
(0.3703154115 0.01627455323 0.298567741 0.3148422943) 405 767 2
(0.7608871506 0.009009017522 0.1105474072 0.1195564247) 485 919 2
(0.2063384184 0.2295938968 0.3968307908 0.167236894) 443 859 2
(0.7568266129 0.1215866936 0.09917530805 0.02241138551) 445 860 2
(0.2877802268 0.3561098866 0.2335655926 0.1225442939) 453 877 2
(0.4861508469 0.2569245766 0.008591806777 0.2483327698) 541 1086 1
(0.1367495541 0.4316252229 0.3174106827 0.1142145402) 484 918 1
(0.05934882649 0.4703255868 0.1655473349 0.3047782518) 490 929 1
(0.06508647419 0.42673456 0.04072220292 0.4674567629) 522 1008 1
(0.5930222477 0.2034888761 0.1193672514 0.08412162474) 454 877 2
(0.1223392729 0.4388303635 0.4051986283 0.03363173523) 513 973 1
(0.125212624 0.4127102935 0.02468339455 0.437393688) 514 975 2
(0.2974085938 0.3512957031 0.2545867101 0.09670899297) 531 1026 1
(0.2473539901 0.07598754027 0.3003354647 0.3763230049) 471 893 2
(0.3056101408 0.3471949296 0.2448499562 0.1023449734) 529 1022 1
(0.08466223157 0.320356435 0.4576688842 0.1373124492) 544 1041 1
(0.7211307608 0.1394346196 0.0304328068 0.1090018128) 363 704 2
(0.110446632 0.1102795727 0.444776684 0.3344971113) 412 797 1
(0.1066543693 0.437140671 0.009532144335 0.4466728153) 393 763 1
(0.08247813798 0.2493615448 0.2093993862 0.458760931) 383 744 1
(0.3712588457 0.3143705772 0.2424427833 0.07192779386) 373 726 1
(0.6340378949 0.1829810526 0.115806839 0.06717421353) 441 855 1
(0.1834761102 0.4082619449 0.3875862718 0.02067567312) 370 701 1
(0.152498742 0.423750629 0.3498083828 0.07394224623) 431 835 2
(0.4595377866 0.2702311067 0.2198422908 0.05038881586) 371 722 1
(0.2246399188 0.1573021137 0.3876800406 0.2303779269) 444 861 2
(0.5934240198 0.2032879901 0.05804779297 0.1452401971) 413 802 1
(0.2411937341 0.0556859827 0.3794031329 0.3237171502) 371 719 1
(0.009847966566 0.3432792919 0.4950760167 0.1517967248) 413 802 2
(0.4417172877 0.1578669795 0.1212743767 0.2791413562) 454 861 2
(0.2882109611 0.3558945195 0.05450471782 0.3013898016) 415 803 2
(0.1287093325 0.4356453338 0.1117165231 0.3239288107) 401 778 2
(0.3121382276 0.3439308862 0.1203806256 0.2235502606) 395 2217 2
(0.456968431 0.2715157845 0.2008676151 0.07064816941) 471 911 2
(0.4446295393 0.2557327102 0.02195252012 0.2776852303) 423 802 2
(0.3669241105 0.07450950669 0.2420284381 0.3165379448) 443 858 1
(0.6994540321 0.107165637 0.150272984 0.04310734692) 441 855 2
(0.2940841905 0.3529579047 0.2845777597 0.06838014502) 375 729 1
(0.6453243789 0.07152877669 0.1058090339 0.1773378106) 477 922 1
(0.6303534337 0.1848232832 0.1639260052 0.02089727797) 453 878 1
(0.2125692976 0.3937153512 0.2258934455 0.1678219057) 533 1027 2
(0.7852447325 0.1073776338 0.1051372652 0.002240368544) 502 952 1
(0.826747169 0.05918763433 0.02743878118 0.08662641551) 401 778 1
(0.04119366712 0.3896687781 0.08973438831 0.4794031664) 432 837 1
(0.1585502748 0.03506700237 0.3856578602 0.4207248626) 404 766 2
(0.8275076364 0.08624618178 0.05895509742 0.02729108437) 484 918 1
(0.1234757999 0.08465013842 0.3536119616 0.4382621001) 495 2227 1
(0.4079128357 0.06289854678 0.2960435821 0.2331450354) 493 954 2
(0.7272984494 0.09466996116 0.1363507753 0.04168081412) 451 871 1
(0.126261091 0.005043741589 0.4368694545 0.4318257129) 512 990 2
(0.2026653624 0.3986673188 0.2311145794 0.1675527394) 501 969 1
(0.07044956091 0.4647752195 0.1622875281 0.3024876915) 505 974 2
(0.1515502245 0.4242248878 0.02457287248 0.3996520153) 502 970 2
(0.07002155533 0.4649892223 0.0115728814 0.4534163409) 544 1089 1
(0.03981190803 0.124639288 0.355454758 0.480094046) 544 1042 1
(0.09000570218 0.4549971489 0.07171358594 0.383283563) 510 967 1
(0.3900324368 0.2256784303 0.3049837816 0.07930535131) 534 1029 1
(0.8482640952 0.07586795242 0.04537427247 0.03049367995) 523 1011 1
(0.7690169088 0.1154915456 0.07433272141 0.04115882421) 394 763 2
(0.08179441403 0.2591381275 0.1999646655 0.459102793) 365 2214 1
(0.8312012919 0.08439935403 0.05538801621 0.02901133782) 420 814 2
(0.1713484893 0.3764120444 0.03791371095 0.4143257553) 394 747 2
(0.1524079052 0.4237960474 0.3613474065 0.06244864091) 376 731 1
(0.8821456372 0.01722026383 0.04170691757 0.0589271814) 413 783 2
(0.4352593171 0.2823703414 0.1648983993 0.1174719422) 392 762 1
(0.7510511373 0.1244744313 0.1209260655 0.003548365841) 424 823 1
(0.3475292554 0.3262353723 0.1189723811 0.2072629912) 395 748 1
(0.3014068678 0.2960097454 0.05328682069 0.3492965661) 391 759 1
(0.6066413567 0.1966793217 0.1574783068 0.03920101481) 479 924 2
(0.09834027936 0.1698051196 0.4508298603 0.2810247407) 455 879 1
(0.1511729278 0.1253341481 0.4244135361 0.2990793879) 403 783 2
(0.7948083749 0.07450252853 0.02809328399 0.1025958125) 433 839 1
(0.1954350183 0.4022824908 0.09195451451 0.3103279763) 402 780 2
(0.2496579849 0.3751710076 0.3678726808 0.007298326724) 412 799 2
(0.5042333795 0.2181381712 0.2478833103 0.02974513905) 415 805 2
(0.1145759521 0.2294055088 0.442712024 0.2133065152) 469 905 1
(0.07483978334 0.2643913147 0.1981887937 0.4625801083) 431 835 1
(0.01402222154 0.2342477381 0.2587411511 0.4929888892) 405 767 2
(0.4527622973 0.2736188514 0.06216245632 0.211456395) 461 892 2
(0.1654891304 0.4172554348 0.05602375869 0.3612316761) 512 989 2
(0.1823167096 0.2008374622 0.2080041831 0.4088416452) 473 897 2
(0.4825841947 0.1338182837 0.2587079026 0.1248896189) 423 818 1
(0.7851967672 0.1074016164 0.1016137376 0.005787878828) 504 956 1
(0.1737160328 0.07689404734 0.3362479363 0.4131419836) 405 2218 1
(0.3058661322 0.0615325558 0.3470669339 0.2855343781) 523 1011 2
(0.03168012024 0.4841599399 0.03139367157 0.4527662683) 423 820 2
(0.296803531 0.02196068228 0.3515982345 0.3296375522) 474 918 2
(0.162980361 0.04313368719 0.4185098195 0.3753761323) 494 953 1
(0.5387183238 0.02119142823 0.2306408381 0.2094494099) 522 1009 2
(0.06901883838 0.2073904585 0.2581001223 0.4654905808) 525 2230 1
(0.09786202219 0.4510689889 0.3421740431 0.1088949458) 531 1007 1
(0.1808346132 0.4095826934 0.3132856129 0.09629708047) 494 956 1
(0.2840512785 0.3579743608 0.006933343976 0.3510410168) 468 887 1
(0.3705249731 0.3147375134 0.1251401849 0.1895973285) 529 1021 2
(0.04758316283 0.4762084186 0.119613757 0.3565946616) 535 1031 2
(0.00632083962 0.4968395802 0.3746006529 0.1222389273) 541 1086 1
(0.1255414214 0.3944904342 0.4372292893 0.04273885514) 515 993 1
(0.3391374833 0.2569078236 0.3304312583 0.07352343476) 515 993 1
(0.2759640815 0.2050818222 0.3620179592 0.1569361371) 508 982 2
(0.7463225617 0.09452953284 0.1268387191 0.03230918629) 451 874 2
(0.4845276506 0.2577361747 0.2157985068 0.04193766793) 503 972 2
(0.3486320143 0.1189071559 0.2067768369 0.3256839929) 492 951 1
(0.4532265713 0.2733867143 0.07360322645 0.1997834879) 535 1033 1
(0.2409404741 0.01806746082 0.3614623021 0.3795297629) 413 783 2
(0.4696388577 0.2481062745 0.01707429664 0.2651805711) 455 862 2
(0.06254571589 0.1895122373 0.2792149048 0.4687271421) 384 746 1
(0.01990502849 0.4900474858 0.03595991953 0.4540875662) 405 784 2
(0.3071618852 0.3464190574 0.133204329 0.2132147284) 405 767 1
(0.07763433324 0.4611828334 0.1685606854 0.292622148) 385 748 1
(0.3167050778 0.3416474611 0.1332446993 0.2084027618) 365 710 1
(0.7006169652 0.04982582927 0.1496915174 0.09986568815) 401 776 1
(0.1099134855 0.4450432572 0.2311224073 0.2139208499) 414 803 2
(0.4852219502 0.08628784843 0.2573890249 0.1711011765) 362 705 2
(0.1865652276 0.08397290698 0.4067173862 0.3227444792) 119 238 2
(0.1386176354 0.4306911823 0.1465630338 0.2841281485) 522 1008 2
(0.3105838601 0.3447080699 0.1885447343 0.1561633356) 432 835 2
(0.4296244824 0.04068695811 0.2445008007 0.2851877588) 430 833 1
(0.5132097047 0.01623800565 0.227157142 0.2433951477) 441 836 2
(0.2819082505 0.3041063467 0.05493952803 0.3590458748) 398 754 2
(0.2095541898 0.3952229051 0.3799966033 0.01522630183) 426 279 2
(0.5485468044 0.2257265978 0.1673214091 0.05840518876) 435 2221 2
(0.4292807315 0.2576271695 0.2853596343 0.02773246477) 455 879 1
(0.008328657972 0.495835671 0.2328576754 0.2629779956) 418 810 2
(0.4514034048 0.2274393188 0.2742982976 0.04685897875) 384 747 2
(0.2398449202 0.3800775399 0.2029315125 0.1771460274) 444 858 2
(0.3699555722 0.3150222139 0.1576580213 0.1573641926) 439 848 2
(0.6191496719 0.1356144434 0.05481072066 0.1904251641) 428 829 1
(0.03103795712 0.3658602891 0.4844810214 0.1186207323) 432 838 2
(0.4293483842 0.2570823386 0.2853258079 0.02824346927) 434 842 2
(0.04474466749 0.02365732845 0.4776276663 0.4539703378) 455 879 1
(0.8149745254 0.06558209137 0.09251273732 0.02693064595) 444 861 2
(0.5416386773 0.07860079613 0.1505798652 0.2291806614) 450 871 1
(0.4824787038 0.1597355514 0.09902509667 0.2587606481) 473 897 2
(0.3828191439 0.001210013026 0.307380415 0.3085904281) 473 897 2
(0.5078928792 0.2460535604 0.040163732 0.2058898284) 544 1032 1
(0.3457890935 0.2936957377 0.3271054532 0.03340971557) 453 875 1
(0.02990786828 0.4850460659 0.3957364787 0.08930958715) 413 802 1
(0.1015215189 0.4206023762 0.4492392406 0.02863686439) 179 356 1
(0.4671472409 0.2110506639 0.2664263796 0.05537571569) 455 879 1
(0.2120949042 0.3939525479 0.04550959876 0.3484429492) 505 976 1
(0.2378477414 0.3305745081 0.05050162115 0.3810761293) 491 931 2
(0.5122659203 0.2438670398 0.2206514083 0.02321563149) 501 969 1
(0.03705458503 0.4814727075 0.4565412446 0.02493146285) 531 1023 2
(0.4027221087 0.1521174413 0.1465215044 0.2986389456) 515 2229 1
(0.2629975789 0.3685012105 0.05780217716 0.3106990334) 534 1031 2
(0.04829175043 0.2863413395 0.4758541248 0.1895127853) 461 893 2
(0.1626926094 0.4186536953 0.2150651031 0.2035885922) 422 800 1
(0.7731146845 0.0892662206 0.1134426578 0.02417643717) 382 743 2
(0.2685364887 0.3657317557 0.2403509462 0.1253808095) 380 739 1
(0.1582515981 0.0537760847 0.3670981163 0.420874201) 373 707 2
(0.5731771601 0.03716978352 0.2134114199 0.1762416364) 402 781 2
(0.08548403176 0.4572579841 0.2833669731 0.173891011) 493 953 2
(0.704637755 0.1015727599 0.0461083626 0.1476811225) 392 743 2
(0.8027535178 0.06728196264 0.03134127848 0.09862324112) 384 728 2
(0.0813666787 0.4593166606 0.1463819889 0.3129346718) 385 729 1
(0.3536050815 0.3231974593 0.06447960897 0.2587178503) 395 748 1
(0.2270917812 0.3864541094 0.1974135549 0.1890405545) 384 744 2
(0.3962362651 0.2698452494 0.3018818674 0.03203661808) 410 796 2
(0.5884299091 0.05207817584 0.1537068696 0.2057850454) 410 795 1
(0.08576038954 0.1214786445 0.4571198052 0.3356411608) 405 784 1
(0.5139233159 0.2430383421 0.00767507703 0.235363265) 371 719 2
(0.3438182195 0.3280908902 0.293683437 0.03440745325) 414 803 2
(0.07829106727 0.3426763817 0.1181780847 0.4608544664) 438 848 1
(0.1480259938 0.4259870031 0.1089643514 0.3170226517) 417 808 2
(0.7235795073 0.134065803 0.004144443344 0.1382102463) 413 783 2
(0.4906581506 0.2546709247 0.2131084783 0.04156244635) 419 813 1
(0.520909091 0.1384020284 0.1011434261 0.2395454545) 474 899 2
(0.03395433774 0.4830228311 0.4250252216 0.05799760956) 473 916 1
(0.07506792726 0.4624660364 0.3296418532 0.1328241832) 490 947 2
(0.22375741 0.0675505163 0.3205707787 0.388121295) 410 777 2
(0.04835344788 0.4758232761 0.4564204913 0.0194027848) 438 846 2
(0.7019194295 0.1490402853 0.1455436885 0.003496596785) 491 950 1
(0.5549041975 0.06152047874 0.2225479013 0.1610274225) 394 766 2
(0.2080703252 0.3959648374 0.1078321016 0.2881327358) 512 989 2
(0.1395172165 0.4302413918 0.2719850029 0.1582563889) 460 891 1
(0.411176159 0.2944119205 0.166370556 0.1280413645) 457 885 1
(0.02734627299 0.2413326106 0.2449942529 0.4863268635) 480 910 2
(0.6304917408 0.1847541296 0.1173168532 0.06743727638) 489 943 2
(0.1231035023 0.4384482489 0.1366256161 0.3018226328) 518 998 2
(0.6253357774 0.1103321867 0.07699992456 0.1873321113) 504 956 2
(0.1110540685 0.1979000802 0.4444729657 0.2465728856) 414 804 2
(0.7893559303 0.09708139177 0.008240643055 0.1053220348) 485 919 2
(0.4177033871 0.2911483064 0.2330904796 0.05805782685) 461 892 2
(0.001587671233 0.4992061644 0.06597160328 0.4332345611) 462 892 2
(0.3125273028 0.2729040636 0.3437363486 0.07083228495) 449 867 1
(0.1215258075 0.2813242412 0.1579128551 0.4392370962) 505 2228 1
(0.48776848 0.2428471078 0.01326865222 0.25611576) 512 989 1
(0.4966103648 0.150670918 0.1010238996 0.2516948176) 515 976 2
(0.4889887778 0.07043236744 0.1850732437 0.2555056111) 513 991 1
(0.2232164998 0.02463001069 0.3637617394 0.3883917501) 527 999 2
(0.5385376814 0.1831057561 0.2307311593 0.04762540317) 514 991 1
(0.1011341815 0.4494329093 0.01123790359 0.4381950057) 521 1006 2
(0.1054672583 0.3390231921 0.4472663708 0.1082431787) 491 950 2
(0.0168763973 0.4915618013 0.01947426211 0.4720875392) 463 894 2
(0.4754600992 0.1140317735 0.2622699504 0.1482381769) 514 994 2
(0.4715837066 0.1053156682 0.1588924785 0.2642081467) 361 702 1
(0.319837813 0.1828907252 0.1571903683 0.3400810935) 445 2222 1
(0.4650935474 0.1805978514 0.2674532263 0.08685537494) 412 800 2
(0.3109923713 0.3445038143 0.3249300923 0.01957372203) 413 783 1
(0.1545444657 0.06149765766 0.4227277672 0.3612301095) 409 794 2
(0.6266189005 0.1452475942 0.1866905497 0.04144295555) 433 840 2
(0.4499442962 0.01943467766 0.2555931742 0.2750278519) 371 703 2
(0.3950949761 0.3024525119 0.06599275318 0.2364597587) 447 866 1
(0.2187778717 0.3906110641 0.1027908237 0.2878202404) 431 817 1
(0.5924430475 0.2037784763 0.1896244476 0.01415402864) 392 762 1
(0.4239776334 0.004419947761 0.2835912355 0.2880111833) 429 831 1
(0.3056730311 0.2574803831 0.08968310128 0.3471634844) 414 785 2
(0.02639174268 0.4260396476 0.4868041287 0.06076448101) 395 765 1
(0.1893223673 0.1372318607 0.2681069557 0.4053388164) 379 736 1
(0.05648757425 0.02088798502 0.4508682279 0.4717562129) 433 821 2
(0.5706076207 0.2146961896 0.1736459993 0.04105019034) 449 869 2
(0.4806679217 0.1519787355 0.2596660392 0.1076873037) 409 791 1
(0.6313339499 0.1272875072 0.1843330251 0.05704551792) 413 802 2
(0.02696451409 0.486517743 0.3183799816 0.1681377613) 471 911 2
(0.406862416 0.1180275545 0.1785412375 0.296568792) 434 841 1
(0.4404064185 0.2797967907 0.06123052278 0.2185662679) 373 726 1
(0.8031699438 0.02102294543 0.07739208266 0.0984150281) 217 395 2
(0.4546255612 0.2104697298 0.06221748956 0.2726872194) 450 871 1
(0.3944978459 0.174032913 0.128718164 0.3027510771) 405 2218 1
(0.463425134 0.268287433 0.1409316908 0.1273557422) 388 751 2
(0.2477483955 0.3761258022 0.2547888231 0.1213369791) 473 913 2
(0.04083752143 0.4795812393 0.237119675 0.2424615643) 453 878 1
(0.1188241927 0.009371031937 0.4312168717 0.4405879037) 461 874 2
(0.05218015616 0.4739099219 0.08851007533 0.3853998466) 472 895 1
(0.2310904505 0.228338722 0.3844547748 0.1561160527) 431 836 2
(0.08299435376 0.4585028231 0.3883222482 0.07018057494) 467 903 2
(0.06762427874 0.4661878606 0.01939437742 0.4467934832) 494 937 1
(0.2480149592 0.2213013434 0.3759925204 0.154691177) 456 399 1
(0.1959030154 0.4020484923 0.2810408201 0.1210076722) 535 1031 2
(0.6251235125 0.02172602705 0.1874382438 0.1657122167) 493 954 2
(0.1613474395 0.4193262803 0.1320722519 0.2872540284) 509 983 2
(0.5835180694 0.1717005427 0.03654042266 0.2082409653) 532 1027 1
(0.2388816996 0.05568858557 0.3805591502 0.3248705646) 544 1089 2
(0.07302689587 0.3506891808 0.1127973712 0.4634865521) 528 1001 2
(0.1911044273 0.2172609447 0.1871868416 0.4044477864) 545 1033 2
(0.7113749812 0.1443125094 0.07612384546 0.06818866397) 529 1019 2
(0.4227555649 0.2886222175 0.2333469452 0.05527527234) 523 1011 1
(0.7331134283 0.1334432858 0.07298959671 0.06045368913) 541 1026 1
(0.3363677864 0.3318161068 0.1599541881 0.1718619187) 493 935 1
(0.7684958028 0.1157520986 0.1077501753 0.008001923324) 530 1023 2
(0.4239207266 0.2407953538 0.04724428292 0.2880396367) 513 973 2
(0.2239920995 0.3880039503 0.2340579678 0.1539459825) 502 971 1
(0.440121134 0.251163989 0.279939433 0.02877544401) 515 995 2