/*--------------------------------*- C++ -*----------------------------------*\
| =========                 |                                                 |
| \\      /  F ield         | OpenFOAM: The Open Source CFD Toolbox           |
|  \\    /   O peration     | Version:  2406                                  |
|   \\  /    A nd           | Website:  www.openfoam.com                      |
|    \\/     M anipulation  |                                                 |
\*---------------------------------------------------------------------------*/
FoamFile
{
    version     2.0;
    format      ascii;
    arch        "LSB;label=32;scalar=64";
    class       scalarField;
    location    "0.002/lagrangian/dsmc";
    object      Ei;
}
// * * * * * * * * * * * * * * * * * * * * * * * * * * * * * * * * * * * * * //


5095
(
4.163713257e-22
5.232333174e-22
2.325103529e-21
2.001089214e-21
7.355246863e-21
2.422436288e-22
5.602588364e-21
5.879517535e-21
7.081953596e-21
1.456181079e-21
1.050928746e-20
2.731159786e-21
4.833329946e-21
2.316744199e-21
2.762658383e-22
4.264559337e-21
2.059368956e-21
8.134494467e-21
5.603730832e-22
7.837393479e-21
1.196284287e-20
2.830432651e-21
1.081147561e-21
5.638566316e-21
6.800790943e-21
1.924702454e-21
1.778746363e-22
7.117803908e-21
9.737585307e-22
3.75522977e-21
4.34189999e-21
6.066125074e-21
2.600771428e-21
1.179068745e-20
7.430030277e-21
1.920028185e-21
9.535349955e-21
4.795756891e-22
6.955053146e-21
5.512980305e-21
4.108375207e-22
4.112012222e-21
1.851175336e-22
1.227212394e-21
5.465345149e-22
1.915254555e-21
8.503518402e-21
7.129263869e-21
5.956756494e-22
2.058326068e-21
3.644575551e-22
9.643416926e-21
1.460348903e-21
2.807086741e-22
8.482648839e-22
4.482513705e-21
9.884769393e-22
2.615924771e-22
1.096313373e-20
5.524173933e-21
6.389230184e-21
2.739499926e-22
6.672956486e-22
1.640582146e-22
1.197349033e-21
2.941429196e-21
6.173804189e-21
1.340645519e-21
5.351116211e-21
3.061041525e-21
6.739263787e-21
3.21653665e-22
1.001905798e-20
1.575850901e-21
1.996422397e-21
1.327887983e-21
2.87697466e-21
3.319418934e-21
4.635327526e-21
2.210208517e-21
3.116825588e-21
2.445848395e-21
3.630783253e-22
2.154050394e-21
5.111252015e-21
2.28947293e-21
1.362650408e-20
2.172953717e-21
5.374281977e-21
3.877069313e-22
4.193874277e-21
2.580975113e-21
5.236520511e-21
2.273501413e-21
5.245452027e-21
1.092135725e-21
2.536074156e-21
1.584639795e-21
9.495310109e-22
1.3972594e-20
8.458200498e-22
1.206344675e-21
1.460444614e-21
5.769727722e-21
7.489047032e-21
2.380284287e-21
1.328420502e-21
7.208500105e-22
1.710363441e-21
6.497655633e-21
7.560314243e-21
1.328058012e-21
3.240948989e-21
1.672457431e-20
4.496145137e-21
6.367866128e-22
1.889396052e-21
5.575405445e-21
3.523454735e-21
2.307208312e-21
8.721749994e-21
3.116856021e-21
7.366218193e-22
1.39378217e-21
5.251181273e-21
1.080921392e-21
7.623037282e-22
4.696512401e-21
2.739646717e-21
7.477600344e-23
1.328942402e-20
2.613614631e-24
4.784777444e-21
9.50083189e-22
1.93129036e-21
3.64565133e-22
4.587643288e-21
1.054972244e-21
5.0516042e-21
2.855215998e-21
6.455181427e-21
6.883205745e-21
1.632607701e-21
1.198219292e-21
2.9227837e-21
2.00315194e-21
3.633617689e-21
7.877097934e-21
8.064629566e-22
1.896287039e-21
3.317604241e-21
4.759746934e-22
2.605003653e-21
8.662185351e-21
1.545074647e-21
6.69495916e-21
3.064094184e-21
9.360102397e-23
1.389543812e-20
1.262905939e-21
1.777218718e-20
2.812660912e-21
3.909768788e-21
2.391493022e-21
8.076814621e-22
1.512291986e-21
2.22215273e-21
2.153566237e-21
4.746033453e-22
2.024581333e-21
1.194462927e-21
8.612978946e-21
2.990099005e-21
3.282432366e-21
1.658769293e-21
1.535164778e-20
2.403725516e-22
5.128606904e-22
5.01288758e-22
5.842264401e-21
1.901027958e-21
6.87108589e-21
1.400893629e-21
3.109525428e-21
2.318823317e-21
5.208555245e-22
5.590053862e-22
7.897451954e-22
1.652132693e-21
1.015638771e-21
5.304344306e-21
1.648302748e-21
2.838131543e-21
8.833530552e-21
2.063774727e-22
6.734322958e-21
5.071741252e-21
1.306682734e-21
6.395995007e-22
4.139982044e-21
1.600309902e-23
7.759691734e-22
8.007224831e-22
5.595124304e-21
1.785008041e-21
2.011471121e-21
1.825917713e-21
5.747913393e-21
6.436681322e-21
5.14280883e-21
1.363431798e-21
3.598809829e-21
1.178226787e-21
4.283733669e-21
4.216403623e-21
4.697898726e-22
1.120284864e-21
2.433476384e-21
1.895045671e-21
3.708113922e-21
1.289597108e-21
2.996958658e-21
4.193821011e-21
2.072712227e-21
3.676835087e-22
2.234367901e-21
2.318292096e-21
2.752707006e-21
9.700897917e-21
2.732702418e-21
1.216331154e-20
9.496199578e-22
3.999702556e-22
1.017189123e-21
1.017510584e-20
3.816897512e-21
1.063643427e-20
2.253119147e-21
9.609103174e-23
4.532965303e-21
1.423126925e-21
2.52336943e-21
1.64366374e-21
1.65334946e-20
8.425515675e-21
2.169592148e-21
4.155281058e-22
1.9802708e-21
2.901701542e-21
6.045761612e-21
7.909559854e-21
8.236402595e-22
4.027090499e-21
1.027329097e-21
6.175792699e-21
6.37627904e-22
5.210413062e-21
8.067553769e-21
1.054209059e-20
7.047892242e-21
2.852957392e-22
5.994773463e-21
6.726133329e-22
6.171881809e-22
4.071482239e-22
1.907333143e-21
1.651974375e-21
1.304970206e-20
1.098445615e-20
7.601279398e-22
4.269429839e-22
3.480998385e-20
1.447530345e-21
8.66211776e-21
1.465068854e-21
4.062676596e-22
3.670380487e-21
3.105567662e-21
1.664933904e-21
4.943867952e-21
8.567028224e-22
4.340432509e-22
8.831535584e-21
5.551515038e-21
1.658849365e-21
5.200859004e-22
7.769628228e-21
3.841830806e-21
8.417609204e-22
7.155399664e-22
1.316678199e-20
2.286472718e-21
6.30231018e-21
2.663743161e-21
9.96372101e-21
1.019132013e-20
5.703076577e-21
1.191037886e-21
4.794026985e-21
2.224512459e-21
1.002604428e-21
1.266412436e-21
7.985405953e-21
7.890733385e-21
7.745868688e-22
1.897479131e-20
1.563695717e-21
8.858538616e-21
7.193711626e-22
2.208511164e-20
2.98725329e-21
1.338370196e-21
2.879278538e-21
9.680161653e-23
1.293353454e-21
2.206401759e-20
1.670605572e-21
4.293166797e-21
1.171060835e-20
2.74671572e-21
3.809970408e-21
2.227117763e-21
2.209090814e-21
1.070915707e-20
2.512241171e-21
2.841355309e-21
1.480535114e-20
2.421009939e-22
7.791411699e-21
6.264426464e-22
4.428605965e-21
9.041312689e-21
9.410908535e-22
5.736831864e-21
8.347765453e-21
4.680314655e-21
8.033473897e-21
8.026752206e-21
2.571874662e-21
8.707322635e-23
2.683903149e-21
1.037847116e-20
9.377408913e-22
4.668651556e-22
1.598211426e-22
9.297628665e-21
1.300482554e-20
4.139712317e-21
3.130798304e-21
1.324062965e-20
1.521168958e-22
1.1169319e-21
3.605643712e-21
1.279533619e-20
3.16978715e-22
3.694547136e-21
1.909291412e-21
3.728136266e-21
3.003610091e-22
1.41972149e-20
7.116281813e-21
1.113458787e-22
8.405287159e-21
4.618363641e-21
4.68315418e-22
4.188017501e-21
5.048805926e-21
5.533844426e-23
5.153635598e-22
4.445469045e-21
2.776464941e-21
8.019436193e-21
2.930590636e-21
2.976703496e-21
7.32228279e-21
3.276654488e-21
3.03864295e-22
6.466936571e-22
1.49374294e-20
8.423674608e-22
4.282863498e-21
1.357792243e-20
1.167229542e-20
1.641405455e-22
3.261623244e-21
3.403818671e-21
5.741663013e-22
3.638577438e-21
2.493216057e-24
1.58428244e-21
1.930064129e-21
3.245018347e-21
4.328653737e-21
1.775489614e-21
1.08313818e-22
7.960651154e-21
5.284514284e-21
1.404118891e-21
6.490924703e-21
8.960482304e-21
4.031954795e-21
2.14701921e-21
7.244705227e-22
5.09317317e-21
1.178538709e-21
3.833773316e-21
1.411067825e-20
9.433779322e-23
6.926387794e-21
3.629185401e-21
5.13431132e-22
1.11581944e-20
2.875417741e-22
5.326628859e-22
1.078287703e-21
2.99173268e-21
1.206368954e-21
1.093613331e-20
2.550701918e-21
1.264038684e-21
3.127194819e-21
6.989564786e-22
3.847612072e-21
6.018895162e-21
8.279963014e-21
2.971052763e-22
1.085364578e-20
3.655303684e-22
1.12166073e-21
9.87012037e-22
3.560880774e-21
3.045543348e-21
2.154369009e-21
6.710300159e-22
2.456967067e-21
4.781258037e-21
3.428711985e-21
4.568300046e-21
1.626654864e-21
1.037803343e-20
2.580267549e-21
2.108820282e-21
5.451361414e-21
1.364233139e-20
2.156480249e-21
2.686600881e-22
9.869637742e-22
1.672536975e-21
8.773168749e-21
5.12493345e-21
2.925386558e-21
7.270475026e-21
6.080774053e-22
1.418320753e-21
5.519835454e-21
8.021597207e-21
2.861940632e-21
1.439439964e-21
7.252426606e-21
1.549954172e-21
4.643972896e-21
2.009203032e-21
6.104511551e-21
4.445851213e-21
4.196176242e-21
9.398679959e-22
1.022531541e-22
5.408130364e-21
8.38659913e-21
3.771734387e-21
9.602011328e-22
1.419154911e-21
3.838745475e-21
2.814752775e-21
2.998794472e-21
2.352016987e-21
7.099192711e-21
2.93268639e-21
4.577397538e-22
3.826729028e-22
4.479821744e-21
4.394434618e-21
9.682812384e-21
1.86172353e-22
3.128892362e-22
2.166132958e-21
2.509333878e-21
3.028486998e-21
6.284476632e-21
9.677164909e-21
2.330198644e-23
1.288728808e-21
5.070789249e-21
6.617993851e-21
2.492445195e-21
1.791687844e-21
3.463015459e-21
4.33615769e-22
1.095631047e-20
1.680498126e-21
4.194556634e-21
1.119134949e-21
1.038461698e-21
6.041033791e-22
4.066217415e-21
1.789912752e-21
4.444914339e-22
1.407029378e-21
7.30392687e-21
5.261838571e-21
6.659955838e-22
9.84923278e-21
2.925770257e-21
1.291325839e-20
1.478612264e-21
7.733837662e-22
1.185992479e-20
2.102134364e-21
3.519304827e-21
1.625110079e-21
1.700935e-21
1.101386843e-20
2.230804924e-21
2.206811344e-21
3.226268251e-22
2.44826222e-22
1.669100532e-21
3.838922098e-21
4.678271226e-21
9.356518251e-23
8.213551543e-22
1.818284121e-21
2.04190513e-21
2.04269027e-20
5.704296237e-22
5.667493006e-21
2.366974771e-21
8.270345734e-22
5.944088706e-21
8.987229029e-23
3.503192928e-21
1.24804938e-21
6.882810201e-21
5.902601085e-21
4.549913886e-21
2.213527178e-21
9.260109306e-21
2.654370609e-21
5.812730336e-22
2.190647185e-21
8.259102104e-21
9.187369261e-21
1.196049927e-20
8.131905087e-21
2.760247628e-21
1.005921974e-21
9.898315697e-22
6.374104033e-21
8.158342495e-21
1.049936495e-20
7.848943263e-23
7.297424534e-21
3.200830593e-21
1.419451742e-21
2.180991695e-20
8.635016755e-22
1.015879573e-20
5.574606345e-21
2.954092662e-22
2.105104164e-20
6.119177683e-21
1.284980276e-21
1.862343438e-21
1.448030057e-20
6.783603794e-23
6.096887095e-22
5.370496333e-21
4.74819252e-23
2.612522047e-21
5.515098022e-22
5.014375343e-22
7.496460524e-21
7.985746574e-21
1.094671346e-21
5.823133884e-22
7.177646781e-21
2.808467143e-22
1.168588628e-20
2.875575572e-22
1.418654018e-21
2.37280507e-21
7.81631283e-22
5.014936223e-21
5.272698663e-21
4.723391047e-21
1.051308317e-21
8.502016179e-22
1.301150287e-21
2.241034413e-21
2.530573048e-21
6.378020727e-23
3.139774723e-21
2.755239218e-21
8.211301372e-21
3.412000676e-21
6.487975972e-21
1.920731625e-21
1.510241325e-21
6.070233917e-22
6.990543886e-21
1.761542684e-21
4.401559225e-21
2.33963883e-21
2.697769891e-21
2.134045686e-21
8.231523318e-22
1.374166735e-20
7.965807732e-21
2.055540738e-21
2.993508022e-21
4.183310884e-21
3.851892119e-21
6.679066598e-21
1.393205628e-21
3.595594369e-21
5.407416762e-22
1.065555031e-21
5.547736779e-21
1.155509775e-21
4.110471724e-21
1.801173139e-21
1.154407597e-21
1.108213219e-21
7.788643287e-21
3.290933084e-22
3.259585151e-23
5.961926404e-22
2.88727299e-21
3.243922019e-21
1.046106447e-21
1.582522795e-21
5.745068186e-21
6.979352537e-22
1.12532766e-20
1.30695686e-21
5.427755315e-23
9.114098612e-21
1.65282935e-21
1.029599373e-21
1.804211934e-21
7.527835962e-22
8.363941345e-22
3.475671906e-21
3.424632446e-21
1.189596995e-21
1.404867806e-21
6.210816686e-22
3.719638041e-21
2.66723246e-21
4.347328866e-21
4.099842286e-21
1.363853195e-21
2.842136142e-21
2.027665338e-20
4.376466592e-22
6.166786665e-21
1.738543536e-22
8.925781371e-22
1.966671159e-21
2.81492798e-21
4.788928123e-22
6.238538818e-21
6.057369407e-23
1.053263419e-21
9.534432988e-21
5.181747255e-21
2.063493391e-21
3.964317823e-22
1.42105864e-20
5.23901028e-21
3.713269854e-24
3.203237739e-21
7.698096133e-21
2.634254738e-21
4.191896534e-22
1.049372554e-20
4.327869034e-21
9.084261245e-21
1.049979748e-20
5.201078685e-21
1.784229047e-21
1.294500769e-21
1.666235013e-22
1.928515375e-21
6.312366636e-22
8.244749973e-22
4.473890258e-22
6.717977174e-22
1.177034714e-22
2.615101809e-21
3.122102165e-21
6.441834632e-21
1.538000672e-22
3.204698041e-21
1.295033912e-21
4.221377552e-21
4.951303289e-21
2.859803769e-22
9.932169273e-22
9.278221078e-21
1.162803929e-21
3.181798157e-21
1.794251244e-22
1.20291349e-20
2.421075472e-21
1.050738298e-21
1.997043764e-21
2.390536231e-21
1.34480657e-21
1.037670069e-21
1.810414618e-20
2.166193625e-21
2.381086728e-21
1.516857409e-21
2.166447691e-22
1.261737793e-21
4.191195482e-21
5.709527182e-21
1.503000391e-21
1.001874687e-21
7.574579644e-22
4.261275594e-23
1.231309552e-21
1.999507744e-21
2.581809094e-21
1.796346897e-21
2.775810426e-23
3.813639697e-21
1.915269536e-21
5.825069217e-21
3.962440045e-22
2.104949411e-22
2.869734892e-21
3.175186697e-23
1.049651625e-21
2.428581621e-22
1.24773323e-20
1.91016217e-21
5.009131033e-22
5.525326534e-21
4.349211743e-22
2.095573799e-22
6.254519185e-22
3.11770993e-21
1.208916137e-20
7.08219867e-21
9.714844546e-22
1.655704838e-21
9.145100862e-21
1.147264041e-21
8.882513616e-22
2.190671419e-21
4.605210248e-21
5.173673357e-22
5.097247859e-21
7.129454233e-23
6.745872675e-22
5.374755076e-21
3.206010999e-21
1.924018936e-22
3.947630274e-21
6.248824052e-21
1.01360172e-21
4.844113386e-21
1.300003438e-21
4.496969878e-21
8.77324286e-22
9.981603922e-21
4.613063278e-21
7.251638699e-22
5.270147641e-21
1.805894111e-21
8.332721055e-22
5.895708765e-21
1.201629322e-21
3.666335348e-21
2.664721291e-21
4.387716011e-21
2.942147668e-21
6.17800561e-22
1.067491733e-20
1.492777236e-22
7.667487782e-21
5.331410124e-22
7.717273855e-21
8.542510039e-22
3.301512103e-21
1.236968411e-21
6.630874969e-22
8.558868896e-21
2.609361201e-21
4.618912709e-21
1.015539713e-20
1.229072317e-20
1.998091239e-21
2.604747462e-21
6.687825478e-21
1.770274999e-21
7.63675003e-23
8.010523134e-21
4.792218389e-21
1.189114433e-22
1.406941445e-21
8.922192313e-21
3.700400387e-21
2.065248639e-21
3.109751705e-21
7.604260581e-21
1.895364878e-21
1.030324216e-20
1.455654972e-21
7.828684806e-22
6.098372144e-21
1.138075533e-20
3.70392306e-21
3.574445888e-21
3.260179695e-21
3.444489599e-21
1.200608385e-22
2.863279773e-21
1.505772369e-22
7.113466431e-21
9.263856873e-22
7.563805684e-21
9.067844586e-21
9.217102414e-21
7.740672561e-22
1.243474749e-20
2.771270953e-21
8.304688967e-21
1.657825229e-21
3.657575594e-22
2.566289897e-20
1.333099481e-20
5.802492024e-21
1.675623636e-21
2.843155472e-21
3.269343997e-21
7.054310494e-21
2.401384592e-21
3.466709142e-21
1.093083768e-21
1.079971064e-20
3.363365099e-22
1.796015754e-20
5.009984137e-21
1.82757377e-22
7.419722876e-21
6.043633876e-21
6.191562001e-22
8.331891989e-22
5.965983612e-21
1.750941626e-21
2.29848913e-21
1.193702911e-21
2.223775e-20
6.179232875e-21
1.451461118e-20
3.194746799e-21
4.710244211e-21
4.2302155e-22
1.90840384e-20
3.720018398e-21
1.538548007e-21
3.631821705e-21
2.966229531e-21
3.588844649e-21
3.230133458e-22
1.629690433e-21
1.064190959e-20
4.056868269e-22
3.187414741e-20
8.327970497e-23
7.030279011e-21
4.780232513e-21
6.238613806e-21
2.225675392e-21
3.422224377e-22
3.247257534e-21
3.28856287e-21
5.229180062e-21
5.986014975e-21
2.318228334e-21
1.017359425e-21
1.857860562e-21
1.781393718e-21
8.937048279e-21
6.751022216e-22
5.495371078e-21
2.560459882e-21
4.514927638e-21
3.28326435e-21
1.140948405e-20
2.073326829e-21
5.781234167e-21
3.819081742e-21
2.53535878e-21
4.892077206e-22
4.389243622e-22
3.00429667e-22
9.153153385e-22
5.483357862e-23
6.503285698e-21
2.213453656e-21
3.732710781e-21
1.325757052e-21
1.937251981e-21
7.389179631e-22
1.97384775e-21
4.24683768e-21
3.651734288e-23
2.70130889e-21
3.351764097e-21
1.149011594e-21
2.659496573e-23
6.541184623e-22
7.952978779e-21
1.260746577e-21
4.743592729e-21
5.335304936e-21
2.911888137e-21
4.542466697e-21
8.420316883e-23
9.855796408e-21
4.396981909e-21
1.013586897e-20
2.820957187e-21
4.593417614e-21
3.673742655e-21
6.127357802e-22
4.808432767e-21
7.901370879e-22
7.210307487e-22
6.000116721e-21
1.205019478e-20
8.248536077e-21
1.789846263e-21
1.52303599e-21
4.44778924e-21
1.815647751e-20
3.280015788e-21
2.519151834e-21
4.372876557e-22
1.62568668e-21
2.136983944e-21
2.149006528e-21
1.103430892e-20
1.642643106e-21
1.26676804e-21
1.335454458e-21
3.808179455e-22
7.442923078e-22
3.011484153e-21
1.370762345e-21
5.932033383e-22
6.510606443e-22
6.085330557e-21
5.492334805e-21
1.3152787e-21
7.861724079e-21
3.456491406e-22
6.604233292e-22
3.414138004e-21
1.000883444e-21
9.795877316e-22
9.760365398e-22
8.523362908e-21
1.613809363e-21
1.072095564e-20
1.70100224e-22
1.413297309e-21
3.648150365e-21
1.042528679e-20
2.770157977e-21
1.465972627e-20
8.918990836e-22
1.612287246e-22
1.694446762e-21
8.56869657e-21
1.463988798e-21
2.548797446e-21
1.536975221e-21
4.128672902e-21
2.917541597e-21
1.130551381e-20
2.515565108e-22
4.022890199e-21
8.448172042e-22
2.462669406e-21
3.906225148e-21
9.343916963e-21
3.131418879e-22
4.172351809e-21
8.546740706e-22
2.014200498e-21
1.416430202e-21
8.570428085e-21
3.84309815e-21
9.882285959e-21
7.744682456e-21
1.539917827e-21
3.968124752e-24
2.939530315e-21
2.338480349e-21
5.603162854e-21
7.88015137e-22
2.840122759e-21
1.176400703e-21
4.338855337e-21
1.602766389e-20
1.80571472e-21
2.827240719e-25
1.140213476e-20
1.253798391e-21
9.820648128e-21
5.579149547e-21
3.612994112e-22
1.746244108e-21
1.891523039e-21
5.262584722e-21
1.26226971e-20
1.721557654e-21
2.019330686e-21
3.776819741e-22
3.669954836e-21
4.830715039e-21
7.473060627e-22
5.283521219e-21
1.260654993e-21
6.190670865e-21
2.436780099e-21
2.961334439e-21
7.195933379e-22
1.357177538e-20
1.169236832e-20
8.036468545e-21
3.90000923e-21
1.655554176e-21
2.208195759e-21
8.302510055e-21
1.382959116e-20
2.925807869e-22
5.389173556e-21
1.01473136e-21
4.164054886e-21
2.912865252e-21
2.822798461e-21
3.300034955e-21
1.964138569e-21
5.344142831e-22
2.088048883e-21
3.05574622e-22
1.197604622e-20
1.135522209e-21
4.969345322e-21
3.069585687e-21
1.081987486e-20
1.852524417e-21
3.432179408e-21
5.208622926e-21
2.074845189e-21
3.897949299e-21
7.122216681e-21
5.858813572e-21
1.735493517e-22
1.321015515e-20
4.40134184e-21
4.33002071e-21
7.576457159e-21
2.933932913e-21
1.184763689e-21
3.667797398e-21
2.606716183e-21
8.116034154e-23
2.62786481e-22
3.425873598e-21
1.171477207e-21
3.116981525e-22
8.825925194e-22
5.169060978e-21
2.11001609e-21
3.252673966e-21
5.448536522e-21
9.380914678e-21
4.062913654e-21
1.609090411e-21
5.194020184e-22
5.503189413e-21
6.51696893e-21
6.38300351e-21
3.101314302e-21
3.625604691e-21
2.510177167e-21
1.040769143e-20
6.565508803e-22
8.739050383e-21
3.487824444e-21
7.481231248e-21
1.426181353e-21
1.975356604e-21
5.59967012e-21
2.578490484e-21
1.018742034e-21
3.386114835e-21
5.473016142e-22
2.197327334e-21
6.615241831e-22
4.176235208e-21
1.058711202e-20
3.342040168e-21
2.38717493e-24
1.473365099e-21
1.584646119e-21
1.995606875e-22
7.154705995e-21
2.977010998e-21
3.957517955e-22
2.517826301e-22
1.915120126e-21
9.568005271e-21
1.589561676e-21
1.770568115e-21
4.66849777e-22
1.269663879e-21
4.586475976e-21
5.076435199e-21
2.067582204e-21
1.206180256e-21
1.614499027e-21
7.679160623e-21
2.238784624e-21
2.649089283e-21
3.762703134e-21
5.340091152e-21
1.774131777e-21
4.342443112e-21
3.088017188e-21
1.325721277e-21
2.032936062e-22
3.049085126e-21
3.803766598e-21
4.345440525e-21
4.428090935e-21
1.594374184e-21
7.482904436e-22
7.360117052e-22
4.339431158e-21
2.289736824e-21
3.503436143e-21
3.845349167e-21
2.599350701e-21
6.91464857e-21
1.376936664e-21
5.400492781e-21
5.803229863e-22
1.60429988e-21
9.890273446e-22
4.255384644e-21
1.562083391e-21
1.601670116e-21
2.220078632e-22
1.713460779e-21
3.062418748e-22
1.759699599e-21
6.480974751e-21
6.012059842e-21
1.273000039e-21
4.833415158e-25
9.547454497e-22
4.097251213e-22
2.695240797e-21
1.5794525e-20
1.490778677e-21
1.635177616e-22
6.513450384e-21
1.837057955e-21
1.478746983e-21
5.01290613e-22
4.646446e-22
6.855390417e-21
3.940360885e-21
2.458461131e-21
1.254553997e-21
1.966925987e-21
1.284561027e-21
6.208858303e-21
7.537272142e-22
6.389733208e-22
2.028972178e-21
2.392041647e-21
2.349603152e-21
4.293538723e-21
4.968382686e-22
8.08084051e-22
5.930469598e-21
6.528252756e-21
1.503420867e-22
4.108265211e-21
9.973913633e-22
4.539619787e-21
2.410473501e-21
8.418279881e-22
5.400108843e-22
2.309982313e-21
5.588553376e-22
4.519546475e-23
1.360253504e-20
7.210757473e-21
3.047363063e-21
1.598356377e-21
2.39392577e-21
6.020138993e-22
1.404291049e-20
8.869322236e-22
1.392558799e-21
2.976696433e-23
3.41184283e-21
4.677825125e-21
9.80202206e-22
2.667656015e-21
4.118714147e-21
1.349503912e-20
5.347620065e-21
1.698246674e-21
9.972003346e-22
1.076519362e-20
2.165515631e-21
2.983492304e-22
4.654163485e-21
8.835024992e-21
1.433471911e-21
3.886342523e-21
1.271876655e-21
2.083074026e-21
5.149008487e-22
1.408594168e-20
2.68743767e-22
7.219286432e-21
8.278825127e-21
1.381852459e-21
1.779994677e-20
2.463346758e-21
1.066158888e-20
2.693959215e-21
1.956226276e-21
1.431666131e-20
3.491207308e-21
3.78346115e-21
3.438440084e-21
1.325036336e-21
2.625701377e-20
4.577032905e-21
2.303584308e-21
6.612255602e-21
4.655340011e-21
5.742228173e-21
4.202545927e-21
1.000082239e-20
3.944778987e-21
7.253225669e-21
1.355405149e-21
1.037198221e-21
4.332509026e-21
5.769040217e-21
8.256221546e-22
3.014824373e-21
2.429564959e-21
1.441637685e-21
9.155990884e-22
3.674158431e-21
4.685346129e-21
1.017434413e-21
1.827068248e-22
1.957964668e-21
3.072986289e-21
1.546810844e-20
9.706438115e-22
5.450692246e-21
2.182523121e-21
2.655670349e-21
1.081920589e-20
1.121875378e-21
2.23717209e-21
5.374232501e-21
4.57409717e-22
4.580154794e-21
4.678405563e-21
4.725461114e-21
6.02932229e-21
7.958664035e-21
9.010461269e-21
1.510294475e-21
6.767541584e-22
4.75438264e-22
1.529943973e-21
1.029066303e-21
3.637567551e-21
9.365958246e-21
6.810294867e-21
9.923720817e-21
4.707177596e-22
1.419524877e-21
4.565556226e-21
4.989897824e-21
3.207398143e-21
8.007052092e-21
2.920840996e-22
3.373784237e-21
3.022968154e-21
2.216083389e-21
2.435595742e-21
9.019206464e-22
4.272568515e-21
7.076547499e-22
5.669930382e-21
4.914922349e-21
6.780205358e-21
5.913090361e-21
2.274329226e-21
2.226660108e-21
1.463994756e-21
2.27028493e-21
4.466804855e-21
4.910612072e-21
1.017483305e-20
5.046838304e-21
2.452267088e-21
4.831065157e-21
2.418672923e-21
4.640298528e-21
6.194694709e-22
1.144753574e-21
2.747258782e-22
3.485499809e-21
6.342350782e-22
4.783901126e-23
8.851149158e-22
3.847164961e-21
1.287353672e-20
2.520314996e-20
3.374682542e-21
4.296060318e-22
1.276787344e-20
3.884556787e-21
6.570837e-21
1.169074002e-20
9.998531246e-23
5.343800749e-22
1.062449972e-20
1.01658495e-21
3.234348836e-21
9.228306862e-22
8.553447986e-22
1.784975363e-21
2.48485655e-21
8.948651851e-22
3.063120052e-21
5.837156443e-21
1.186440267e-21
1.8938389e-21
1.643813883e-22
1.93548388e-21
8.284066946e-21
4.615346642e-22
8.472186414e-21
4.707939175e-21
2.269360798e-22
2.418008624e-21
8.322628316e-21
7.330044697e-21
1.455869871e-20
2.423329399e-21
8.112761097e-21
8.348748117e-21
7.564217681e-21
2.030753105e-21
2.481274149e-21
1.900393284e-21
4.260449031e-22
3.583726364e-22
4.020333517e-21
2.226083777e-21
5.879034688e-21
1.88882366e-21
3.453169781e-21
1.041284889e-20
1.171556504e-21
4.407183408e-22
1.906519896e-21
8.430249294e-21
2.850899299e-21
6.972279472e-21
2.730073398e-21
1.654210307e-21
1.43771481e-21
4.834083291e-22
1.660108437e-20
8.045464796e-21
6.073263968e-21
4.080962408e-21
2.524957212e-20
7.495427591e-21
1.384124913e-21
1.402135211e-21
1.833709283e-22
8.404023659e-21
3.934428888e-21
1.200592883e-20
4.053805843e-21
8.154742065e-21
5.682993076e-22
7.980232663e-21
5.600881758e-22
9.135711887e-22
1.846221909e-21
8.745389278e-21
6.656819353e-22
2.074243486e-21
4.940626179e-21
1.321555714e-21
8.777622199e-21
9.165588926e-21
1.000970645e-20
2.737888293e-21
2.41857394e-21
1.487394599e-21
4.469334147e-21
1.083579352e-20
9.999672692e-22
2.064478058e-21
2.360392039e-21
6.308236156e-21
3.105921781e-21
1.055272595e-20
4.526203082e-21
5.982326484e-21
5.309147689e-21
8.379362626e-22
3.807442542e-22
9.647224015e-22
2.411169256e-22
7.012288673e-22
1.856844166e-21
9.071721036e-21
1.053278256e-20
1.631574549e-21
3.935599923e-21
7.075162812e-21
1.357614567e-22
1.401250972e-21
3.870620231e-21
2.427340238e-21
5.142294047e-21
1.246010723e-22
1.202741862e-20
4.820051461e-22
2.698186757e-21
1.264249715e-20
9.562986535e-21
4.334742815e-23
5.805695084e-22
5.354105026e-21
5.257777211e-21
1.229750459e-20
4.472500091e-21
6.064357229e-21
1.530043672e-21
4.058958499e-21
8.548325807e-21
2.892829868e-21
4.607835971e-21
6.993222692e-21
2.866098125e-21
1.837999512e-20
1.082849583e-20
4.022304246e-21
9.81702021e-21
1.51339957e-20
1.134510984e-21
3.479827119e-21
4.160559758e-21
1.642029962e-21
8.791634271e-22
7.465546656e-22
1.216072693e-20
6.583424776e-22
5.911389056e-22
5.733734608e-23
3.457203035e-21
3.100178396e-21
7.52293417e-22
3.356151692e-21
1.175636865e-20
1.326148123e-21
1.964806428e-22
3.168210751e-21
2.430490216e-21
3.145323553e-22
6.958158279e-21
1.615213003e-21
1.160491259e-21
2.943661302e-21
1.722014592e-21
1.963484402e-21
4.521339713e-21
2.11872754e-21
3.614788039e-21
4.283397361e-22
5.075998339e-21
3.060733115e-21
5.185468466e-21
7.880949988e-22
8.17374841e-21
3.3719358e-21
1.753253551e-20
1.217767087e-20
2.805292253e-21
4.413318721e-22
7.092063391e-22
1.030759603e-20
1.282881912e-21
5.198431509e-22
2.172617129e-21
2.374955275e-21
1.397362893e-21
1.28337848e-21
7.496215092e-21
1.587944285e-20
9.936768375e-22
3.255644265e-21
1.92185934e-21
6.146820332e-21
2.899920049e-22
5.380764462e-21
2.891884108e-21
4.89865972e-21
1.219361898e-21
6.103385636e-21
9.68002338e-21
6.890796967e-21
3.096534612e-21
2.399351031e-21
1.148892106e-20
1.000762055e-21
1.984510505e-21
9.68751208e-22
2.28449381e-21
1.323928618e-20
1.698579711e-21
2.148269319e-21
4.130457159e-21
5.859629587e-21
1.389353005e-21
8.352968083e-21
1.829774621e-20
1.091597782e-21
1.361311859e-20
1.68579683e-20
1.079492881e-23
3.565167144e-21
6.793788663e-22
9.547083296e-21
8.715501387e-21
5.376487283e-21
3.714396841e-21
1.49643795e-21
9.059111874e-21
5.311449907e-21
2.984711342e-21
5.502198426e-21
4.002885643e-21
1.728224121e-21
2.253529184e-21
8.868763507e-22
1.88912626e-22
4.361333902e-21
4.588091909e-21
7.390005087e-22
1.084055858e-21
3.939218615e-22
2.490387337e-22
7.383905529e-21
5.480840312e-22
4.622360902e-21
3.095397738e-21
9.284844822e-21
9.458930065e-21
5.880945919e-22
1.008204797e-20
1.107681384e-21
2.724125548e-21
1.402641726e-21
2.521327507e-21
4.211194271e-21
2.119809483e-21
1.031551719e-21
1.070647746e-20
5.761330717e-21
5.013236207e-21
2.857657332e-21
2.826103678e-21
2.031202729e-21
1.443722382e-21
2.030593585e-21
8.955942593e-22
4.973863386e-22
3.962090776e-22
4.749521336e-22
5.667162345e-21
1.959856272e-21
2.2950584e-22
6.310568381e-22
3.9751328e-22
9.235743234e-22
1.075182968e-20
4.069041225e-22
4.153318385e-21
4.384398358e-22
6.524589851e-21
2.719539115e-21
3.133691854e-21
5.89986812e-21
5.431696782e-21
1.542346864e-21
2.829286739e-21
2.722928982e-21
5.3686516e-21
1.269296288e-20
4.335982546e-21
6.974094963e-21
1.193789054e-21
4.436095762e-21
7.101134723e-21
1.591800861e-21
1.356147955e-21
1.723953485e-21
1.131738356e-20
2.158699756e-22
8.288908232e-21
2.464135698e-21
1.608878958e-20
1.588475036e-20
1.923454619e-22
1.015621135e-20
6.205221385e-21
3.39662149e-21
1.006526383e-22
6.452764077e-21
2.335488671e-21
6.742180732e-21
8.960153068e-22
1.194353346e-20
4.603002046e-21
3.068117377e-21
6.531220328e-22
2.327988016e-21
4.51814747e-21
2.321008243e-22
3.088077801e-21
6.188826793e-22
3.469208616e-21
9.67002601e-22
5.511641843e-22
1.676281496e-21
2.716900891e-21
1.176401304e-21
5.42110188e-21
2.374739994e-21
3.533082694e-21
1.819786983e-21
2.886284e-21
2.859301774e-22
5.471294233e-23
5.155052661e-21
6.869121692e-22
2.779543324e-21
1.34267838e-21
8.299918909e-21
7.462350914e-22
8.316874915e-22
1.649758209e-21
3.548026811e-22
4.83531833e-21
1.360679273e-21
8.20992466e-21
1.22637903e-20
1.372378191e-21
3.643166558e-21
4.387913943e-21
2.598862604e-21
7.021502127e-21
5.648079969e-21
8.863285683e-21
6.851760012e-22
6.028908804e-21
1.54332123e-20
6.181833407e-21
3.048099076e-21
6.977256346e-22
5.78463966e-22
4.91026438e-21
8.896138877e-21
2.90661444e-21
2.20946297e-21
7.116557011e-21
5.171538213e-21
1.435543906e-21
9.803643913e-21
1.829921107e-21
6.528967718e-21
1.677922897e-21
7.690985877e-21
8.671699078e-21
9.02071376e-22
1.632077605e-20
1.185810147e-21
1.219281346e-21
3.836182261e-21
5.80894803e-21
4.513057361e-21
5.027042455e-21
1.385085891e-21
2.705926611e-21
6.766779944e-21
3.753195643e-21
8.81396215e-22
1.787408734e-21
3.90120792e-21
4.07558002e-21
3.82313545e-21
7.639292166e-21
1.254533713e-20
1.888129744e-22
1.287612909e-21
4.383920294e-21
1.49957844e-21
3.574519123e-23
2.95786463e-21
3.390926688e-21
7.861099812e-21
1.943775875e-21
3.614941819e-21
2.530592964e-22
8.821625985e-21
5.591429793e-21
1.045803768e-20
7.324404365e-21
1.241412974e-20
1.927905056e-21
1.945809053e-21
3.867839598e-21
8.308492747e-22
8.871622242e-21
1.214532683e-20
1.039305074e-21
1.453510124e-22
6.997581146e-21
7.421938713e-22
1.302466321e-21
1.95136034e-21
1.917392084e-20
1.88805012e-21
8.399270158e-22
2.569970968e-21
4.050679206e-21
5.183574082e-21
5.343478827e-21
7.170333743e-21
5.509879453e-21
6.221952464e-21
2.65017538e-21
3.214745896e-21
1.087315683e-20
5.471575779e-21
1.450800563e-21
1.68056282e-21
2.950854226e-22
2.788323215e-21
4.925793407e-21
1.781992795e-21
2.305778999e-21
4.003213504e-22
1.318414795e-21
3.546876495e-21
2.278137528e-22
1.305581918e-20
2.255196426e-21
3.940874469e-21
6.025619848e-21
1.573921647e-21
8.125983621e-21
5.0680185e-21
3.683498357e-22
3.109159441e-21
1.099566876e-20
2.819965147e-21
1.629656235e-21
8.074946673e-22
4.166212126e-21
5.144569333e-22
3.012792958e-21
1.857508608e-22
3.2399096e-21
6.790635129e-22
4.752237829e-21
2.669131688e-21
3.267173244e-23
3.617454295e-21
7.085220922e-21
5.088515715e-21
4.709630352e-21
6.39983309e-21
2.051760301e-21
4.114522556e-21
5.797921872e-22
4.491534318e-21
6.348711341e-21
1.137291605e-21
1.285722323e-22
2.280957626e-21
1.317069061e-20
9.374219711e-21
5.809724839e-21
4.885311316e-21
6.886860919e-21