/*--------------------------------*- C++ -*----------------------------------*\
| =========                 |                                                 |
| \\      /  F ield         | OpenFOAM: The Open Source CFD Toolbox           |
|  \\    /   O peration     | Version:  2406                                  |
|   \\  /    A nd           | Website:  www.openfoam.com                      |
|    \\/     M anipulation  |                                                 |
\*---------------------------------------------------------------------------*/
FoamFile
{
    version     2.0;
    format      ascii;
    arch        "LSB;label=32;scalar=64";
    class       Cloud<dsmcParcel>;
    location    "0.002/lagrangian/dsmc";
    object      positions;
}
// * * * * * * * * * * * * * * * * * * * * * * * * * * * * * * * * * * * * * //

5095
(
(0.07495326908 0.227525849 6.505213035e-19) 445
(0.06896489696 0.2177409609 2.168404345e-19) 435
(0.06426166353 0.2013969925 -3.252606517e-19) 414
(0.06796126321 0.2571438154 4.33680869e-19) 484
(0.06107317464 0.2544628038 4.33680869e-19) 484
(0.06018859871 0.2742921831 -1.084202172e-19) 513
(0.01172981241 0.2993155774 -1.897353802e-19) 537
(0.07270385363 0.2287473219 1.355252716e-19) 445
(0.05321472922 0.2892719229 -4.49774495e-19) 532
(0.05940084243 0.275850673 -2.168404345e-19) 513
(0.07170438903 0.180515962 -2.168404345e-19) 375
(0.06148816056 0.2046370708 5.421010862e-20) 414
(0.07618425141 0.1936870715 0) 395
(0.07418595753 0.2198547714 0) 435
(0.04181831781 0.2283332724 -2.303929617e-19) 451
(0.0681494549 0.2458202114 2.168404345e-19) 474
(0.06637650649 0.2886605569 -5.421010862e-20) 534
(0.04214002789 0.1898738559 -1.626303259e-19) 391
(0.05643645089 0.2441217658 -5.421010862e-20) 473
(0.06192355283 0.2258643868 -2.981555974e-19) 444
(0.06647839832 0.2112809091 -5.421010862e-20) 424
(0.06175635838 0.2998684336 -1.626303259e-19) 544
(0.05698715808 0.2639986798 -2.168404345e-19) 493
(0.05390692446 0.1915390132 2.168404345e-19) 393
(0.07043164375 0.205259126 -1.626303259e-19) 415
(0.06309975875 0.2600402074 1.084202172e-19) 494
(0.0705889122 0.2107609414 -2.168404345e-19) 425
(0.06040290126 0.2159053929 -2.168404345e-19) 433
(0.07240027866 0.2806347539 0) 525
(0.04900045382 0.2176943618 -4.472333962e-19) 432
(0.0581021389 0.2211271311 1.084202172e-19) 433
(0.06080071062 0.2699596218 0) 503
(0.0593352504 0.2807098425 0) 523
(0.06791380033 0.2591357183 2.168404345e-19) 494
(0.06385401792 0.1820804647 0) 384
(0.04996259427 0.2548307464 2.981555974e-19) 482
(0.04558036749 0.2296442921 -4.33680869e-19) 451
(0.07332774298 0.2475314509 1.084202172e-19) 475
(0.06859323477 0.1976180475 0) 405
(0.07368060119 0.2788733079 2.168404345e-19) 515
(0.06024817766 0.2630683521 -2.168404345e-19) 493
(0.05057595217 0.2435376023 0) 472
(0.06394057491 0.2261999712 5.421010862e-19) 444
(0.04624589932 0.2651027056 1.084202172e-19) 502
(0.05839015042 0.2524085142 1.084202172e-19) 483
(0.05623730343 0.2096542406 1.084202172e-19) 423
(0.06647481905 0.2192372212 -2.168404345e-19) 434
(0.02918813293 0.1989381161 0) 409
(0.05909947872 0.2167442121 0) 433
(0.04130389288 0.2420273624 -4.33680869e-19) 461
(0.06826662163 0.2322570281 1.084202172e-19) 454
(0.07143757401 0.2081430605 0) 415
(0.05368277263 0.244234602 0) 473
(0.07216212723 0.2688281053 -1.490777987e-19) 505
(0.06992484091 0.2177321758 2.168404345e-19) 435
(0.06464599711 0.1809292465 5.421010862e-20) 384
(0.06230178745 0.2025527918 0) 414
(0.07476459022 0.1973894379 -1.084202172e-19) 405
(0.07573586531 0.2435606633 -2.168404345e-19) 465
(0.06040209903 0.2155683517 2.168404345e-19) 433
(0.05446936015 0.2535973407 0) 483
(0.07542049787 0.2028749536 0) 415
(0.05541394395 0.2333116715 0) 453
(0.0276746373 0.2096158299 1.084202172e-19) 419
(0.05305945234 0.2454581282 -1.084202172e-19) 472
(0.04074785564 0.1672965745 2.168404345e-19) 361
(0.06201297367 0.2307233645 1.084202172e-19) 454
(0.06786358917 0.2514920051 2.168404345e-19) 484
(0.05157958728 0.2320152455 -1.812650507e-19) 452
(0.06297239412 0.2180111057 -2.168404345e-19) 434
(0.05528193484 0.2560123664 -3.252606517e-19) 483
(0.06474426946 0.1665302298 -1.660184577e-19) 364
(0.05767187902 0.1850944667 1.626303259e-19) 383
(0.02280447692 0.2070989833 0) 418
(0.06255651186 0.1927328352 -1.626303259e-19) 394
(0.07521317903 0.1854989655 -2.168404345e-19) 385
(0.04777589013 0.2075371289 -1.084202172e-19) 422
(0.03622777407 0.2634889269 0) 490
(0.06089138221 0.2617258456 -4.33680869e-19) 493
(0.0719025548 0.2242729106 4.33680869e-19) 445
(0.06848130981 0.2440878917 -2.168404345e-19) 474
(0.072085891 0.1953363025 -8.131516294e-20) 405
(0.06603073541 0.2324825982 0) 454
(0.05022196538 0.2582751754 -2.168404345e-19) 492
(0.03860118121 0.2481425541 2.168404345e-19) 471
(0.07214096652 0.2606669689 2.710505431e-20) 495
(0.0700652246 0.2580833153 2.168404345e-19) 495
(0.06396856824 0.196023405 5.421010862e-20) 404
(0.07406663222 0.194492951 0) 395
(0.07361040425 0.187229159 -1.084202172e-19) 385
(0.07226133546 0.2430131599 0) 465
(0.03534001685 0.2010776155 1.084202172e-19) 410
(0.06257561725 0.1972943881 4.33680869e-19) 404
(0.06636253004 0.282839674 -1.084202172e-19) 524
(0.0553277961 0.2313557862 0) 453
(0.0583928172 0.2765351611 -1.084202172e-19) 513
(0.0756190281 0.2558265366 0) 485
(0.067505001 0.269900511 0) 504
(0.01212125674 0.2796000946 0) 517
(0.05833797638 0.2584090047 0) 493
(0.05064696952 0.2537123865 1.084202172e-19) 482
(0.067971411 0.2729871952 0) 514
(0.05294132618 0.2579102692 2.168404345e-19) 492
(0.05142032249 0.197934858 2.168404345e-19) 402
(0.06350990084 0.1951369429 -1.084202172e-19) 404
(0.06936309991 0.1856768421 0) 385
(0.05086033402 0.1822593137 0) 382
(0.05761693647 0.2134034026 -4.878909776e-19) 423
(0.06564298949 0.1833230784 -4.065758147e-20) 384
(0.06068008673 0.2154701835 -2.168404345e-19) 433
(0.0662690543 0.2250572721 2.168404345e-19) 444
(0.04794012059 0.200005297 -2.168404345e-19) 412
(0.05847352278 0.2413496409 1.084202172e-19) 463
(0.06020870961 0.2846158382 4.33680869e-19) 523
(0.06655517476 0.1730719402 0) 374
(0.06147010915 0.1710178463 -2.168404345e-19) 364
(0.06863954576 0.1849307443 -1.084202172e-19) 385
(0.03833130634 0.2052781854 -4.33680869e-19) 411
(0.05490060362 0.1671268141 -3.252606517e-19) 363
(0.06277273571 0.1717000615 8.131516294e-19) 364
(0.06880597466 0.1768415833 2.032879073e-19) 375
(0.004458248721 0.224896309 3.794707604e-19) 436
(0.07102572111 0.2242816987 -3.252606517e-19) 445
(0.03807347921 0.2522793761 -7.047314121e-19) 480
(0.07346726284 0.1812300742 -2.168404345e-19) 385
(0.0726724569 0.2346216931 5.421010862e-20) 455
(0.05024388125 0.1897770834 -1.626303259e-19) 392
(0.066477572 0.2428394141 -3.252606517e-19) 464
(0.07408600299 0.2291174264 -5.421010862e-19) 445
(0.05656747011 0.2347264194 2.168404345e-19) 453
(0.06331260574 0.296765692 -1.897353802e-19) 544
(0.07435724684 0.2008418791 0) 405
(0.07559325291 0.2327239675 -3.252606517e-19) 455
(0.07409142138 0.2438661822 4.33680869e-19) 465
(0.0593897076 0.2698106145 -2.168404345e-19) 503
(0.04635481158 0.2392075848 0) 462
(0.06700946756 0.2804958638 0) 524
(0.06239384174 0.1974579101 2.303929617e-19) 404
(0.05682207864 0.1762728709 -1.084202172e-19) 373
(0.05991109852 0.2039516278 -2.981555974e-19) 413
(0.07387187195 0.1985065386 -1.084202172e-19) 405
(0.05917810767 0.1976929042 2.168404345e-19) 403
(0.05062060944 0.2238085256 -2.168404345e-19) 442
(0.07091841755 0.2018303305 3.252606517e-19) 415
(0.07367201724 0.1793153999 3.252606517e-19) 375
(0.004395804443 0.222144729 0) 436
(0.04601965161 0.1949756565 0) 402
(0.07015104187 0.1875225101 2.168404345e-19) 395
(0.04975829384 0.2208643946 2.981555974e-19) 432
(0.0542800391 0.2604173657 0) 493
(0.04572728196 0.1958261066 5.421010862e-20) 402
(0.06891163137 0.217802312 4.33680869e-19) 435
(0.05658528532 0.1860314086 -4.33680869e-19) 383
(0.07220438471 0.2148416769 0) 425
(0.07393196267 0.2427359668 2.168404345e-19) 465
(0.07465539958 0.290510692 2.168404345e-19) 535
(0.05530108324 0.244777189 0) 473
(0.04923565274 0.2900947077 1.084202172e-19) 532
(0.07320903534 0.2842824556 1.084202172e-19) 525
(0.03917639694 0.2948061347 1.084202172e-19) 541
(0.05927324962 0.2939933833 -2.168404345e-19) 543
(0.06410852288 0.1803190066 0) 384
(0.04994054053 0.2084710931 4.33680869e-19) 422
(0.04926512417 0.1899453606 -1.084202172e-19) 392
(0.04416046673 0.2051372329 0) 411
(0.07578664405 0.1760991317 -1.084202172e-19) 375
(0.06184314223 0.1806398978 1.084202172e-19) 384
(0.07548332839 0.1945759378 -2.168404345e-19) 395
(0.03819072158 0.239356327 -3.252606517e-19) 461
(0.07388657196 0.2073829962 5.421010862e-19) 415
(0.06436650042 0.1930957729 2.168404345e-19) 394
(0.07017550109 0.2505285951 3.252606517e-19) 475
(0.05544290807 0.247279034 -2.710505431e-19) 473
(0.0568272587 0.2226084864 5.692061406e-19) 443
(0.0681826703 0.1807424862 2.168404345e-19) 384
(0.0622232721 0.2651156899 0) 504
(0.07045012846 0.2181570539 1.626303259e-19) 435
(0.06921576589 0.2378865354 5.421010862e-20) 465
(0.06564718356 0.2839081173 -1.084202172e-19) 524
(0.05140688905 0.2600846254 2.168404345e-19) 492
(0.06746243349 0.2437844648 4.33680869e-19) 474
(0.06877907936 0.2505324952 4.33680869e-19) 475
(0.04695164362 0.2472462873 1.084202172e-19) 472
(0.06540017375 0.2435716128 0) 474
(0.0293570921 0.2812980922 5.421010862e-20) 519
(0.03866621859 0.2833944241 1.084202172e-19) 521
(0.06319875476 0.2104530383 1.084202172e-19) 424
(0.06237673264 0.237363692 0) 464
(0.05014794741 0.2817620106 -5.421010862e-20) 522
(0.05980084333 0.2187968963 0) 433
(0.07414547108 0.1884568047 2.168404345e-19) 395
(0.04459817784 0.2122452276 0) 421
(0.05549047305 0.2055065874 -8.131516294e-20) 413
(0.03575292672 0.1811460109 -1.084202172e-19) 380
(0.04972205533 0.1835916322 -1.355252716e-20) 382
(0.04320948965 0.1696083688 0) 361
(0.06556268982 0.2453758638 0) 474
(0.06682460698 0.2170309207 2.168404345e-19) 434
(0.04462477791 0.290496395 0) 531
(0.06557160215 0.2535958245 5.421010862e-20) 484
(0.05106359854 0.2372375727 0) 462
(0.06858878975 0.2388100412 4.33680869e-19) 465
(0.0428524413 0.2564577321 -1.084202172e-19) 481
(0.06171744265 0.1968974946 4.33680869e-19) 404
(0.07520705506 0.2589107582 0) 495
(0.06384423519 0.2314014427 1.084202172e-19) 454
(0.07466337515 0.1963011483 -2.168404345e-19) 405
(0.07322885557 0.2536026357 -3.252606517e-19) 485
(0.05842340542 0.2281793504 4.33680869e-19) 443
(0.07146001248 0.225578005 -5.149960319e-19) 445
(0.05986224672 0.231690469 4.33680869e-19) 453
(0.0418423477 0.2982451689 0) 541
(0.06389905792 0.2509794444 1.084202172e-19) 484
(0.03196732513 0.2565005856 0) 490
(0.05309172623 0.2824299839 0) 522
(0.0632166945 0.2319264696 -5.421010862e-20) 454
(0.05689316902 0.2719598043 5.421010862e-20) 513
(0.0649575131 0.2721829172 -2.168404345e-19) 514
(0.03996871396 0.2916942007 2.168404345e-19) 531
(0.04419744567 0.2432613936 2.168404345e-19) 471
(0.02480289033 0.2915474047 -3.252606517e-19) 529
(0.06128217475 0.2974290276 0) 544
(0.05608422401 0.1679829496 -3.252606517e-19) 363
(0.04614030225 0.2053288825 0) 412
(0.06055316113 0.1901048522 -2.168404345e-19) 393
(0.06064538267 0.1844380622 2.168404345e-19) 383
(0.0553008952 0.1774764165 2.168404345e-19) 373
(0.04102470517 0.2254594836 2.168404345e-19) 441
(0.03413163338 0.1697824606 -2.710505431e-20) 370
(0.0451382951 0.2166953254 3.794707604e-19) 431
(0.0402327385 0.1754228727 0) 371
(0.06652444935 0.228662623 1.084202172e-19) 444
(0.05670497324 0.2053263087 1.084202172e-19) 413
(0.03901786521 0.1756692364 0) 371
(0.05830664619 0.2075425011 1.084202172e-19) 413
(0.06569208454 0.2309611564 -2.168404345e-19) 454
(0.06967675208 0.2046673215 -4.33680869e-19) 415
(0.04522903956 0.1933129105 0) 401
(0.07500931112 0.189975723 -2.168404345e-19) 395
(0.04397689857 0.2454511961 1.084202172e-19) 471
(0.05731525326 0.2090734704 4.33680869e-19) 423
(0.05956034808 0.227155656 0) 443
(0.04223533756 0.2253044517 -1.897353802e-19) 441
(0.07022015866 0.1794650433 5.963111949e-19) 375
(0.01277849642 0.2525891639 -1.084202172e-19) 477
(0.05589801307 0.233626836 1.897353802e-19) 453
(0.05414892094 0.2876806067 0) 533
(0.04950937768 0.2669726619 2.879912021e-20) 502
(0.04256638134 0.1955819273 5.421010862e-20) 401
(0.05318286586 0.2184879079 0) 432
(0.0677079856 0.1948635329 0) 404
(0.06455824606 0.2534508559 -6.776263578e-20) 484
(0.07572898668 0.264011675 2.168404345e-19) 495
(0.05892470745 0.2630220052 -4.33680869e-19) 493
(0.04086774165 0.2316527069 2.710505431e-19) 451
(0.05281994101 0.2781089445 0) 512
(0.04014799697 0.2703442127 0) 501
(0.06884808731 0.2671827746 0) 505
(0.05276190837 0.2649858796 0) 502
(0.06468149345 0.2997526085 2.168404345e-19) 544
(0.06842813401 0.298981806 0) 544
(0.03136897798 0.2711677148 0) 510
(0.06244423446 0.289939851 -5.421010862e-20) 534
(0.05680038486 0.282742349 -5.421010862e-20) 523
(0.06388642686 0.1898562063 -1.084202172e-19) 394
(0.07588798535 0.1720521969 0) 365
(0.03492941734 0.2089646034 2.846030703e-19) 420
(0.06505811648 0.1875782953 4.33680869e-19) 394
(0.001055871843 0.179543581 4.878909776e-19) 376
(0.05746378923 0.2035282842 0) 413
(0.04827150604 0.1907903445 1.084202172e-19) 392
(0.06384509822 0.2124786512 -1.6093626e-19) 424
(0.07080905025 0.1888082691 2.168404345e-19) 395
(0.04457028657 0.188761078 2.168404345e-19) 391
(0.02516861784 0.2511889133 5.421010862e-20) 479
(0.06895422208 0.2351166873 4.33680869e-19) 455
(0.05942829646 0.2000353536 -4.33680869e-19) 403
(0.05792816037 0.2184117462 -5.421010862e-20) 433
(0.05259450886 0.1941420114 -2.168404345e-19) 402
(0.05238767418 0.2034354371 3.659182332e-19) 412
(0.07261432815 0.2070548827 2.168404345e-19) 415
(0.02329602713 0.246487538 0) 469
(0.04543452441 0.2186757839 2.168404345e-19) 431
(0.07436154278 0.195021102 0) 405
(0.04399294283 0.237233762 0) 461
(0.05270873811 0.2724056198 0) 512
(0.05873416156 0.2437963463 2.168404345e-19) 473
(0.05517644798 0.2117621993 1.084202172e-19) 423
(0.06472229457 0.2674419465 6.776263578e-20) 504
(0.07553733926 0.2009372854 -2.168404345e-19) 405
(0.05932437898 0.284706341 2.168404345e-19) 523
(0.06083915446 0.2081334554 4.33680869e-19) 423
(0.06728047668 0.2496062264 4.33680869e-19) 474
(0.06158020757 0.2636808348 0) 494
(0.05112356853 0.2837540942 0) 522
(0.07593671932 0.2843257044 4.33680869e-19) 525
(0.04107978113 0.2859036117 1.084202172e-19) 531
(0.06238193412 0.263950496 0) 494
(0.0163738186 0.2419245427 0) 468
(0.02906665946 0.2876587961 -2.168404345e-19) 529
(0.06876107199 0.288598765 0) 535
(0.03905551465 0.299977184 4.33680869e-19) 541
(0.06905773275 0.2756700041 -1.084202172e-19) 515
(0.06987054683 0.2759058029 -2.710505431e-19) 515
(0.02024464007 0.2768895788 3.252606517e-19) 508
(0.04215284514 0.2323473766 2.168404345e-19) 451
(0.05911174301 0.2677344741 4.065758147e-19) 503
(0.05201013559 0.2621431529 0) 492
(0.07182704928 0.2913914329 1.084202172e-19) 535
(0.05990324545 0.2014752698 -4.33680869e-19) 413
(0.07251793618 0.2315050647 -6.505213035e-19) 455
(0.06834141392 0.1857695517 0) 384
(0.06865574619 0.1976654618 2.168404345e-19) 405
(0.07076388453 0.1956878094 1.084202172e-19) 405
(0.07110520887 0.1873487266 -2.168404345e-19) 385
(0.07137321206 0.1724951171 -2.168404345e-19) 365
(0.040766205 0.1959331908 -2.168404345e-19) 401
(0.06816072543 0.2034078375 1.084202172e-19) 414
(0.05083159689 0.1693900342 2.168404345e-19) 362
(-0.001350864324 0.2093003804 -2.168404345e-19) 119
(0.05281124001 0.2801049813 2.168404345e-19) 522
(0.04690192011 0.2160067671 0) 432
(0.03646121533 0.2183301582 2.168404345e-19) 430
(0.04363863321 0.2225680615 2.168404345e-19) 441
(0.01946739978 0.1904952756 0) 398
(0.0007974927278 0.2109614606 -1.355252716e-20) 426
(0.07410750212 0.2190506741 -1.084202172e-19) 435
(0.0702135761 0.2334135001 -3.388131789e-19) 455
(0.0228282312 0.2062294375 -2.168404345e-19) 418
(0.06512499478 0.1853852329 5.963111949e-19) 384
(0.06187270895 0.2241628016 2.168404345e-19) 444
(0.02426789286 0.2217986301 -2.168404345e-19) 439
(0.02049831762 0.215731783 -1.084202172e-19) 428
(0.05043374963 0.2211050189 -2.168404345e-19) 432
(0.06498324576 0.2207714364 -2.57498016e-19) 434
(0.06875027044 0.2363213492 0) 455
(0.06497147314 0.2264728957 3.930232875e-19) 444
(0.03603394185 0.2321340434 1.084202172e-19) 450
(0.05790237392 0.2448199271 0) 473
(0.05949049532 0.2445503859 2.168404345e-19) 473
(0.06319878974 0.2947177763 -3.252606517e-19) 544
(0.05465588165 0.2324668226 -1.084202172e-19) 453
(0.05413435183 0.207107778 0) 413
(-0.007234152252 0.2289647765 -4.065758147e-20) 179
(0.07035767254 0.2336172952 1.897353802e-19) 455
(0.07204223687 0.2711864314 4.33680869e-19) 505
(0.04229375446 0.2575584321 4.33680869e-19) 491
(0.04022633629 0.2692287642 9.486769009e-20) 501
(0.0382410116 0.2858267092 9.486769009e-20) 531
(0.07466376799 0.2765246538 2.168404345e-19) 515
(0.06757677282 0.2872415099 0) 534
(0.0433538706 0.2421490109 -4.33680869e-19) 461
(0.04797791927 0.2072611946 -2.168404345e-19) 422
(0.0497107286 0.1825570432 -6.776263578e-20) 382
(0.03245732857 0.1825025915 -2.168404345e-19) 380
(0.05994656694 0.1727913393 2.168404345e-19) 373
(0.05087036948 0.1977163997 -2.168404345e-19) 402
(0.06063391653 0.2597507628 6.505213035e-19) 493
(0.04987815949 0.1878714321 -1.084202172e-19) 392
(0.06500513822 0.1827388715 1.084202172e-19) 384
(0.07000506185 0.180757463 -2.168404345e-19) 385
(0.07041693615 0.1887875537 0) 395
(0.06182417799 0.1816833802 0) 384
(0.03453235249 0.2040668134 -2.710505431e-20) 410
(0.03585545865 0.2031060836 -3.252606517e-19) 410
(0.06890635083 0.2003060984 0) 405
(0.04005574041 0.173390041 -2.168404345e-19) 371
(0.06726847545 0.204591031 2.439454888e-19) 414
(0.02256136682 0.2237051299 -2.168404345e-19) 438
(0.01467537463 0.2051335242 4.33680869e-19) 417
(0.05717828532 0.2029372357 -1.084202172e-19) 413
(0.02504394114 0.2102170051 2.439454888e-19) 419
(0.06553832344 0.2453526001 2.168404345e-19) 474
(0.05391115318 0.2499071238 2.439454888e-19) 473
(0.03781365652 0.2591808873 3.252606517e-19) 490
(0.03673175176 0.1992581803 8.67361738e-19) 410
(0.01542401405 0.2189583154 -5.421010862e-20) 438
(0.0407978056 0.2613327887 -5.251604273e-19) 491
(0.06599448355 0.192170669 -1.084202172e-19) 394
(0.05254631121 0.2729239347 4.33680869e-19) 512
(0.03221685227 0.2412193278 1.084202172e-19) 460
(0.01016046103 0.239018322 4.33680869e-19) 457
(0.03615673429 0.2492948375 0) 480
(0.02525938221 0.2588187204 1.626303259e-19) 489
(0.01570848311 0.280502323 -2.168404345e-19) 518
(0.06535387093 0.2668982991 1.084202172e-19) 504
(0.06664837597 0.2079116105 0) 414
(0.07244914649 0.2536659301 -1.626303259e-19) 485
(0.04412667469 0.2383448851 -1.626303259e-19) 461
(0.04572604185 0.2383790222 0) 462
(0.0240493454 0.230800846 5.421010862e-20) 449
(0.07573642516 0.2696367612 0) 505
(0.0514793965 0.2750517368 -2.168404345e-19) 512
(0.07315750753 0.2737021376 0) 515
(0.0590947258 0.2764479824 -4.33680869e-19) 513
(0.01420088982 0.2860187755 -2.168404345e-19) 527
(0.06300935823 0.2755650318 -2.168404345e-19) 514
(0.04533422469 0.278856946 4.33680869e-19) 521
(0.04273433949 0.2635506298 -2.710505431e-19) 491
(0.05340422221 0.2391516952 0) 463
(0.06589739392 0.2771444494 2.168404345e-19) 514
(0.04392114875 0.1678360245 2.168404345e-19) 361
(0.07497994012 0.2276225298 -2.168404345e-19) 445
(0.0501897349 0.2052037456 2.710505431e-19) 412
(0.05699943191 0.2014522303 1.084202172e-19) 413
(0.02942188923 0.2044964218 2.168404345e-19) 409
(0.05746294157 0.2195043305 2.710505431e-19) 433
(0.04385559982 0.171912121 0) 371
(0.01092541011 0.2316921909 -2.168404345e-19) 447
(0.0397158275 0.2139822572 0) 431
(0.0480823828 0.1902079757 8.809142651e-20) 392
(0.02886276818 0.218042486 0) 429
(0.06545198307 0.2022181985 -4.33680869e-19) 414
(0.0686804306 0.191308929 5.421010862e-20) 395
(0.02975784361 0.1814951668 2.168404345e-19) 379
(0.06058535864 0.215071156 0) 433
(0.02830345877 0.2302516787 -8.131516294e-20) 449
(0.02468921676 0.2017738806 -1.084202172e-19) 409
(0.05758181161 0.2052677606 2.710505431e-20) 413
(0.04561714414 0.2448322886 4.33680869e-19) 471
(0.06702798787 0.220170565 0) 434
(0.05668141771 0.1773875597 0) 373
(-0.01846269494 0.2430118873 -1.084202172e-19) 217
(0.03636584975 0.2315149995 0) 450
(0.07469514043 0.1994049401 0) 405
(0.01700361229 0.1844728902 1.084202172e-19) 388
(0.05428279309 0.2446573157 0) 473
(0.05534296209 0.2356912236 -4.33680869e-19) 453
(0.04519533906 0.2356536752 -4.33680869e-19) 461
(0.04659301722 0.2426839323 -4.33680869e-19) 472
(0.04309856677 0.2198416081 -5.421010862e-19) 431
(0.01492342913 0.2439805705 -3.794707604e-19) 467
(0.06136512346 0.2577053321 0) 494
(0.0009438614758 0.2374639266 1.084202172e-19) 456
(0.06932548532 0.2874678927 3.252606517e-19) 535
(0.05840988014 0.2622317961 -3.252606517e-19) 493
(0.02986455194 0.2723544365 -2.168404345e-19) 509
(0.05111415761 0.2895245968 -1.084202172e-19) 532
(0.06724441792 0.2991560126 2.168404345e-19) 544
(0.0199091949 0.285535925 2.168404345e-19) 528
(0.07381548074 0.2936647792 0) 545
(0.02556718927 0.2884476298 -8.131516294e-19) 529
(0.05536997095 0.2842373994 1.626303259e-19) 523
(0.04144605134 0.2954239138 -4.878909776e-19) 541
(0.05583888029 0.2584412955 -4.33680869e-19) 493
(0.03516860481 0.2890454053 2.100641709e-19) 530
(0.05750807081 0.273049488 0) 513
(0.04774546544 0.2704765211 -1.084202172e-19) 502
(0.07260723531 0.2774153797 1.355252716e-19) 515
(0.02443030915 0.1681402565 0) 369
(0.03980798304 0.1787565441 -3.997995511e-19) 381
(0.04853875584 0.1742539278 -1.084202172e-19) 372
(0.04503114852 0.2257724771 -4.33680869e-19) 441
(0.03211118577 0.1795839109 0) 380
(0.06305120328 0.2083072134 1.084202172e-19) 424
(0.03884391054 0.2326578564 -1.084202172e-19) 451
(0.01453842998 0.197297388 0) 407
(0.04076480396 0.1671234111 5.421010862e-20) 361
(0.01576465586 0.2453864697 0) 468
(0.04632324757 0.2120320871 -2.168404345e-19) 422
(0.03214287378 0.2186003996 8.131516294e-20) 430
(0.04816541124 0.2472765865 3.252606517e-19) 472
(0.02984249096 0.2353628211 -4.33680869e-19) 459
(0.01867551347 0.182113247 -1.084202172e-19) 388
(0.02532742003 0.1788667949 2.168404345e-19) 379
(0.04669721639 0.2143888492 -2.168404345e-19) 432
(0.0209230206 0.2486770814 4.33680869e-19) 478
(0.05597222799 0.2502275455 1.084202172e-19) 483
(0.05693028654 0.2185475715 1.897353802e-19) 433
(0.02725507432 0.2350634996 0) 459
(0.05765157727 0.2344816626 2.168404345e-19) 453
(0.07063953713 0.250957597 -3.252606517e-19) 485
(0.03526374876 0.2263790423 1.084202172e-19) 440
(0.002118553879 0.2213412418 0) 436
(0.06835833159 0.2696098732 0) 504
(0.05562154344 0.2026141794 1.897353802e-19) 413
(0.05411568375 0.2362788893 2.168404345e-19) 463
(0.05787235657 0.1738897627 -4.33680869e-19) 373
(0.06816080631 0.2727644248 -4.33680869e-19) 514
(0.04141283258 0.2738757696 3.252606517e-19) 511
(0.05028878408 0.237832698 0) 462
(0.05823227504 0.2143133943 1.084202172e-19) 423
(0.03580787106 0.2799007912 0) 520
(0.03231230717 0.2805875325 3.252606517e-19) 520
(0.04498648562 0.2357314264 2.168404345e-19) 461
(0.04908888526 0.2457412675 -3.523657061e-19) 472
(0.045657635 0.2391302421 8.67361738e-19) 461
(0.05221162147 0.2156143314 2.168404345e-19) 432
(0.05927793633 0.2844311726 -2.168404345e-19) 523
(0.05932117858 0.2396814216 0) 463
(0.03721321097 0.2513085378 -1.084202172e-19) 480
(0.03780092907 0.2750287037 2.168404345e-19) 510
(0.06753347254 0.2824756535 -2.168404345e-19) 524
(0.009120736092 0.2830505685 0) 517
(0.06774683096 0.257170532 2.168404345e-19) 484
(0.005747592405 0.2877662891 -2.168404345e-19) 526
(0.06010118377 0.2960111984 5.421010862e-20) 543
(0.04102717372 0.2920358413 2.168404345e-19) 531
(0.06343675454 0.20613946 2.168404345e-19) 414
(0.06132623835 0.2272763194 2.168404345e-19) 444
(0.06003426458 0.1764883471 0) 373
(0.03738920615 0.1919516543 -2.168404345e-19) 400
(0.05509931635 0.2136956216 0) 423
(0.05478867038 0.1784488148 0) 373
(0.02222810424 0.2160736619 2.168404345e-19) 428
(0.008458758526 0.1966491264 -4.743384505e-20) 407
(0.05264636565 0.221047145 -2.168404345e-19) 432
(0.03188965861 0.2529198512 -4.065758147e-19) 480
(0.05531390209 0.1820689295 -2.168404345e-19) 383
(0.04783553637 0.1856552441 0) 392
(0.03179856904 0.1927124696 -3.252606517e-19) 400
(0.03533699089 0.2501886434 4.33680869e-19) 480
(0.06451819598 0.2366477614 -8.131516294e-20) 464
(0.05311037328 0.1745329105 -2.168404345e-19) 372
(0.04148496821 0.1941351141 -8.131516294e-20) 401
(0.02888119168 0.209777384 -2.168404345e-19) 419
(0.07237175746 0.1835233976 -3.388131789e-21) 385
(0.0378444297 0.2405717549 0) 460
(0.02421042279 0.1902052721 2.168404345e-19) 399
(0.05921635541 0.2095149513 -2.168404345e-19) 423
(0.02816971204 0.2315130632 0) 449
(0.07270575565 0.2307246498 4.33680869e-19) 455
(0.002248324485 0.2946331369 0) 536
(0.05575541904 0.2110900273 1.355252716e-19) 423
(0.03031618392 0.289577425 0) 529
(0.006245495873 0.2197092391 0) 436
(0.04801066258 0.2532665695 -6.505213035e-19) 482
(0.04478538602 0.2173187343 0) 431
(0.0458542231 0.2492929909 0) 472
(0.03639255532 0.2330461349 4.33680869e-19) 450
(0.05819028746 0.2144193046 2.168404345e-19) 423
(0.03132173514 0.2477545726 0) 470
(0.05639044127 0.2687282499 -3.320369153e-19) 503
(0.04339872304 0.2592269249 0) 491
(0.0371173339 0.2736684641 -1.084202172e-19) 510
(0.01116506684 0.2550801353 0) 477
(0.0729933554 0.2422718732 1.084202172e-19) 465
(0.0396568992 0.2216909475 0) 441
(0.05170835626 0.2602048466 -2.168404345e-19) 492
(0.06987727872 0.2913679333 0) 535
(0.03871697191 0.2902795461 2.168404345e-19) 531
(0.05945542784 0.2668288643 -1.084202172e-19) 503
(0.06789971464 0.2457716134 -3.252606517e-19) 474
(0.06678154332 0.2824215903 -2.168404345e-19) 524
(0.05333759851 0.2901054218 -4.33680869e-19) 532
(0.06708385296 0.279508021 2.168404345e-19) 524
(0.03435312038 0.2982671883 -6.776263578e-21) 540
(0.05241652017 0.2978892106 -2.168404345e-19) 542
(0.06283461483 0.2729897504 -2.168404345e-19) 514
(0.04125657734 0.2997788625 2.168404345e-19) 541
(0.04720673399 0.2906238046 -1.084202172e-19) 532
(0.06590787717 0.1833429224 1.76182853e-19) 384
(0.0354651083 0.1793389211 -1.084202172e-19) 380
(0.02270748197 0.1812342182 -4.33680869e-19) 378
(0.05213059735 0.176584814 8.67361738e-19) 372
(0.0702806105 0.1823460196 -1.355252716e-19) 385
(0.04549366111 0.1948782613 1.626303259e-19) 401
(0.03344578743 0.2847199291 2.168404345e-19) 520
(0.06451018838 0.2181995977 -4.065758147e-19) 434
(0.04534144716 0.1673738369 -4.33680869e-19) 361
(0.06501223286 0.2171300438 2.168404345e-19) 434
(0.07158700549 0.1839756023 0) 385
(0.04512121718 0.1705118505 -4.33680869e-19) 371
(0.07373769747 0.2204953984 1.084202172e-19) 435
(0.01787236705 0.1931580589 0) 398
(0.06239122944 0.2043405377 2.168404345e-19) 414
(0.05974583673 0.235454086 0) 453
(0.07570658602 0.2163099735 4.33680869e-19) 435
(0.0714655256 0.2138555982 0) 425
(0.03707508224 0.1793595822 -2.168404345e-19) 380
(0.01025277455 0.2364051672 2.168404345e-19) 457
(0.0542219797 0.1734453632 1.084202172e-19) 373
(0.03273295924 0.2493690289 1.084202172e-19) 480
(0.06496755789 0.2485981258 -8.131516294e-20) 474
(0.04113113474 0.2173670469 -4.33680869e-19) 431
(0.04118401183 0.2598245664 2.710505431e-20) 491
(0.04631488252 0.2452480028 -4.33680869e-19) 472
(0.04544422513 0.2334059978 -6.505213035e-19) 451
(0.06197227022 0.2628400844 -2.168404345e-19) 494
(0.05641518058 0.2016508982 -5.421010862e-19) 413
(0.05506778374 0.2270159292 4.33680869e-19) 443
(0.00530695923 0.2074794518 3.252606517e-19) 416
(0.03664803571 0.2189751482 0) 430
(0.03741326376 0.2328410522 -2.168404345e-19) 450
(0.0334157041 0.248334768 -2.168404345e-19) 470
(0.04397231953 0.2599646166 2.168404345e-19) 491
(0.03487633747 0.1965180512 -1.19262239e-18) 400
(0.02594006358 0.248928239 1.084202172e-19) 479
(0.02876688187 0.2097112893 0) 419
(0.06132550681 0.2544467592 0) 484
(0.04399045817 0.2603647572 1.135024149e-19) 491
(0.05870928989 0.2666713782 -6.505213035e-19) 503
(0.02975436895 0.2865903254 0) 529
(0.02459073941 0.2843065752 0) 519
(0.02234168742 0.2704448456 4.33680869e-19) 498
(0.03712872355 0.2537323599 0) 480
(0.01847144848 0.2757448113 -3.252606517e-19) 508
(0.04602940096 0.2742149636 0) 512
(0.03797725014 0.2852948532 0) 520
(0.007251906009 0.2640285866 0) 496
(0.04158001749 0.2710502375 2.168404345e-19) 501
(0.02169119341 0.2719002832 0) 508
(0.06416942291 0.2570048804 0) 484
(0.0428020098 0.2624920838 0) 491
(0.06607894686 0.2807093085 2.168404345e-19) 524
(0.03592285481 0.2663738843 1.084202172e-19) 500
(0.03877872447 0.283753505 2.168404345e-19) 521
(0.01394399864 0.2775553732 -2.168404345e-19) 507
(0.03976739196 0.2933208614 4.33680869e-19) 541
(0.04018149459 0.2763907213 -2.236166981e-19) 511
(0.05318563779 0.1761705584 0) 372
(0.05200118837 0.1982288747 0) 402
(0.01011786603 0.1954027454 0) 397
(0.06646905713 0.1864993477 -1.084202172e-19) 384
(0.03875070659 0.1937664514 0) 401
(0.03516203993 0.1779600438 0) 380
(0.05404630116 0.190613815 0) 393
(0.03539050474 0.1892467198 -4.33680869e-19) 390
(0.06939480179 0.1757723531 0) 375
(0.03802162073 0.2092457628 1.355252716e-20) 420
(0.04359320224 0.1926577412 0) 401
(0.06411569774 0.1868535064 0) 384
(0.06730313971 0.1702993315 4.33680869e-19) 364
(0.06532996196 0.2139039469 3.252606517e-19) 424
(-0.01490183031 0.2001337129 -2.168404345e-19) 98
(0.06285214823 0.2645361741 0) 494
(0.02557638291 0.2203230599 1.084202172e-19) 439
(0.07478979988 0.2148160481 -2.168404345e-19) 425
(0.03396442181 0.2048698069 -2.168404345e-19) 410
(0.05599227879 0.2473325173 1.084202172e-19) 473
(0.01446391967 0.235465395 -3.252606517e-19) 457
(0.04412444599 0.2036471927 0) 411
(0.02623882619 0.1975500878 -5.692061406e-19) 409
(0.05910470858 0.2180736292 -5.421010862e-20) 433
(0.03893372608 0.2368534029 2.168404345e-19) 461
(0.0468754667 0.2048630398 -2.168404345e-19) 412
(0.05637189158 0.2565560598 -2.168404345e-19) 483
(0.01890045611 0.2488111176 3.930232875e-19) 478
(0.06267216267 0.2224260207 2.168404345e-19) 444
(0.04203415093 0.2547570902 -2.710505431e-19) 481