/*--------------------------------*- C++ -*----------------------------------*\
| =========                 |                                                 |
| \\      /  F ield         | OpenFOAM: The Open Source CFD Toolbox           |
|  \\    /   O peration     | Version:  2406                                  |
|   \\  /    A nd           | Website:  www.openfoam.com                      |
|    \\/     M anipulation  |                                                 |
\*---------------------------------------------------------------------------*/
FoamFile
{
    version     2.0;
    format      ascii;
    arch        "LSB;label=32;scalar=64";
    class       vectorField;
    location    "0.002/lagrangian/dsmc";
    object      U;
}
// * * * * * * * * * * * * * * * * * * * * * * * * * * * * * * * * * * * * * //


5095
(
(1299.953163 -49.57730469 453.6832072)
(1048.908797 118.8681313 -294.5234902)
(1396.419161 -141.0149147 25.33571472)
(1397.185975 -13.32780476 48.2458048)
(1722.974378 33.40476442 150.7287582)
(1406.962055 310.5450123 40.81147766)
(972.7396177 390.160032 -394.3742391)
(1386.271805 215.9703535 400.0096252)
(1241.921579 405.0834327 -762.9964276)
(1793.151609 317.1348794 -492.4918106)
(1828.052518 354.5140231 346.658896)
(1461.354159 -33.941979 -153.5382455)
(1956.14008 120.9594109 -129.3793307)
(880.7595443 23.32046074 -14.46984942)
(2051.107029 190.4687637 169.8778849)
(1222.287291 172.5960941 271.8219717)
(1659.431882 -53.84413149 -166.9826502)
(997.5667777 -102.4460713 576.7469721)
(1310.363381 264.1518474 19.01629602)
(1475.715821 -147.9637376 -87.27307925)
(1262.879856 -393.0083161 241.0612481)
(1372.925374 270.1491436 161.8904799)
(1213.392183 -189.3095361 285.2105085)
(2153.340582 -168.8777641 -711.3586599)
(1663.762332 -296.9508484 -75.02739111)
(1903.482044 481.0831497 -570.9566537)
(1466.159131 -222.9078169 98.12263083)
(1546.691374 -191.6318585 -66.63559747)
(1233.889024 30.49165756 -626.9424154)
(1410.510521 -230.4304205 -555.2776871)
(2029.901192 24.88368894 196.3034295)
(1969.88876 -333.8580401 487.063415)
(1031.125891 -439.124662 131.5317792)
(1721.836229 153.1715734 70.113705)
(1691.81604 -134.3481687 -34.45964818)
(1630.368605 -680.153321 277.3769606)
(1248.066191 185.5989614 -84.04290973)
(1730.565178 -268.8405969 -60.16978151)
(1310.580522 344.3046579 128.9107744)
(1585.441941 557.4842628 376.8903059)
(1515.044044 124.7001231 -49.20926508)
(1499.244231 60.90381453 198.5972106)
(1724.728745 -485.2091969 253.9674973)
(1952.546537 16.65168221 -149.436296)
(988.290212 -356.3981001 -115.0625594)
(1093.256715 -74.36462724 53.57320487)
(1653.746514 282.6681102 -448.3388189)
(1716.215018 -393.9010052 -102.4909396)
(1677.047037 230.7387207 -12.25443411)
(1629.038282 -240.0060363 113.9773942)
(1512.755755 -25.72958786 42.54538725)
(1500.960697 -442.5378883 -275.0108391)
(1311.579541 20.62873392 -424.7749815)
(1255.135987 -72.45001332 68.4159281)
(1773.354916 356.831128 -174.2118071)
(1551.618819 -14.0322027 355.4227187)
(803.2228175 238.0071115 -22.38707599)
(1638.727187 234.5091843 271.4922043)
(2018.287756 118.3187825 -616.7980929)
(1395.700448 342.7546678 503.0996984)
(1815.562765 -110.0011952 166.2672214)
(1636.572391 -166.6869086 -578.437819)
(1304.91077 396.4531332 191.6588049)
(1212.69297 -49.8756444 -73.25767558)
(1515.292183 336.3067987 245.7081345)
(1364.381241 -467.102757 -354.6241658)
(1620.284169 -480.0917402 249.441834)
(1551.407886 -282.1176013 -224.7993352)
(1498.461048 -428.8593242 -16.61751945)
(1694.582379 -305.0060052 -41.71233032)
(1718.616897 -462.575303 207.4944343)
(1490.956714 -385.728649 132.650534)
(1519.826344 204.00872 388.9919103)
(1027.874971 480.6599645 -186.4411606)
(1433.811352 -399.3436424 -819.1099405)
(1911.601386 -163.630649 688.472129)
(1346.77199 -217.841505 -178.7403251)
(1079.414873 53.68068815 -492.1016145)
(1292.138125 171.9592309 564.82742)
(1766.908123 143.5530653 339.3783692)
(1686.966996 133.4939815 52.83006773)
(1587.924977 -340.2395425 -258.2264137)
(1541.679094 -283.0273481 466.8058503)
(1555.365062 77.52098184 -59.03185735)
(1679.105689 247.5277086 47.79291049)
(1601.257057 -54.69057437 -626.9586463)
(1636.629555 -178.9355967 -71.66949053)
(1512.997869 269.0796329 163.6458857)
(2106.694703 62.24399591 288.4070524)
(2053.893493 -207.0404495 202.4297126)
(1633.906673 234.9910455 -192.0589656)
(1863.780149 -216.5949887 -393.1094809)
(1406.354818 -472.3778388 174.3213097)
(1579.410051 163.8320534 -432.487816)
(1463.587642 57.60199746 145.9240322)
(1474.281752 87.60805251 -404.955243)
(1368.646648 517.0675357 116.7476148)
(1640.114707 -171.8783243 -163.2130681)
(1911.68662 287.5454662 -389.8096411)
(1494.444085 198.26968 -498.2029819)
(1396.293248 -176.1091521 -139.718962)
(2207.496961 235.9017734 76.83142818)
(1200.129114 -540.2589208 -241.2361365)
(1690.914454 446.9812685 200.5204892)
(1664.12082 243.1743651 146.3945102)
(1774.062358 73.21940594 -298.7926107)
(1955.97493 465.7323073 522.5431601)
(1351.848392 166.7963795 428.5249644)
(2220.690157 -247.8534417 -307.1074368)
(1418.551038 116.5787873 -279.5787648)
(1416.081594 -11.97769111 -93.79452623)
(1714.946394 -450.3083933 613.8766478)
(1523.835047 -96.29233558 360.2102761)
(1528.417188 -93.39449224 -136.0849198)
(1807.355291 -85.7519172 -107.8954945)
(1413.896705 -98.85186828 -40.54462562)
(1778.663173 -116.6700373 552.86758)
(1584.621343 -11.56902534 142.9640873)
(1648.860707 -131.721466 474.5888138)
(1754.598995 146.3915324 -312.2395544)
(1579.449684 -114.2636124 -243.3516826)
(977.4387841 -166.6848019 100.8062486)
(2062.511238 -196.2500965 122.2935207)
(1603.275067 664.279152 475.0143651)
(1930.455101 104.0035921 86.79728473)
(1389.711716 538.7234714 82.7041956)
(1559.470875 -95.51520555 320.7164366)
(1467.948286 188.9702828 -385.489077)
(1470.362421 -269.3801633 -287.5735353)
(1364.767699 -179.3185594 134.7567234)
(1773.627041 133.0331312 -248.172057)
(2030.456997 -143.597845 429.454296)
(1405.744147 -548.9302174 -286.5728381)
(1992.891833 -812.7471736 -266.2751017)
(1495.188972 -311.6874012 235.5063199)
(1793.430759 -215.0994126 -30.46318022)
(1919.062011 -112.1252771 73.42692226)
(1775.532137 -358.6771863 -46.25731722)
(1558.171433 -106.0751145 289.6789509)
(1279.792587 -78.64651228 225.8368064)
(1461.310647 -286.4256866 50.83623195)
(1473.56791 -264.2554311 63.96936268)
(2067.407391 -192.7880292 256.0975419)
(1959.154931 116.6491359 -170.1133546)
(1118.126144 -156.7210946 364.3248421)
(1792.211502 690.4942687 -154.5220808)
(1746.918645 16.81391407 151.1927519)
(1162.972028 97.14152513 759.392575)
(1275.919523 -577.6250583 -498.088808)
(1743.769245 177.3157424 -163.097491)
(1328.970489 -51.38159888 380.3538093)
(1549.546095 358.1819677 -285.2990837)
(1516.633615 -471.1634509 -144.7071047)
(1457.166383 59.45977503 348.8839534)
(1731.700946 124.8839527 -401.223705)
(1278.263615 -36.28213692 190.7257074)
(1185.123663 398.9582256 201.4817843)
(1504.892931 206.0976214 -180.9234777)
(1340.027109 284.5185872 780.3021297)
(1363.98268 -162.4777083 -65.74242322)
(1394.073637 399.7151048 146.2763461)
(1710.326113 -152.1482543 202.374347)
(1607.106252 335.776701 14.66850312)
(1602.090218 -42.43115445 666.0240996)
(1622.73757 -202.7396502 235.2096115)
(1726.042368 -78.61707272 -243.0190607)
(1855.042463 -45.96678712 444.0097058)
(2019.135397 104.9838137 77.92915619)
(1152.745331 313.5774479 -352.0922518)
(1198.669626 -251.4433532 81.64556748)
(1730.110565 -36.28749749 97.74877314)
(1320.706791 -69.77688331 328.9025675)
(997.064117 -86.63703873 -308.6833907)
(1950.810046 -524.6343343 291.0867283)
(1818.147473 218.4398622 224.0567124)
(1747.898944 -420.5402194 -814.9599545)
(1510.498107 -91.49525576 -134.9563235)
(1330.517097 -29.26656986 156.9428831)
(1651.744668 308.0758525 -27.63078065)
(1470.428027 36.1879037 427.7737604)
(1870.954411 237.5219504 -150.4964348)
(1573.875021 -269.9938392 344.4425005)
(1740.291033 191.4256335 -715.3847328)
(1436.657885 -175.6646496 -302.7932538)
(1092.446881 -15.90646619 -236.858829)
(1621.372121 -496.3770392 276.3641212)
(1271.301503 -858.5867527 -16.17899283)
(1823.551305 -336.3886789 99.18816941)
(1707.279004 -106.9795994 94.1576764)
(1494.198684 -342.3722246 -567.8226295)
(1674.97833 -134.4453208 -128.5439175)
(1639.771547 164.701551 393.2714112)
(1534.817797 -0.5224375372 -226.5726098)
(1695.205191 -152.9855872 223.5082503)
(1672.400746 85.94915131 83.06871303)
(1610.220308 -99.70212257 -18.42906664)
(1541.176881 393.1836305 24.84659004)
(1793.250369 -316.4843698 -234.2304758)
(1827.291779 330.0684835 -62.70162631)
(1781.826355 99.88683 45.96399883)
(1411.777309 97.75435026 211.5300045)
(1453.132872 282.0211188 463.0311535)
(1613.75303 75.18987308 -50.42264456)
(1447.969024 -69.08724158 -69.47469085)
(1511.368195 -373.5669396 375.52687)
(1401.490646 39.81778228 -88.67780156)
(1872.137132 -314.6652757 16.10690571)
(1401.76337 -49.99234897 69.12343602)
(2361.688176 293.9881678 47.85401584)
(1910.287877 -229.8143744 -30.31988353)
(2695.118073 -46.35612481 365.671653)
(1006.001743 192.3309154 -421.4917852)
(1313.362637 206.1614952 -9.782155139)
(1566.640228 91.10034 -117.1593407)
(1975.860927 -349.1666926 406.7666372)
(1669.981318 430.8246004 138.9683674)
(2010.033858 226.375985 32.52047602)
(1869.25275 56.81110718 415.7467001)
(1157.027413 13.3471027 -102.7640978)
(1434.059308 62.62123921 378.4968693)
(1522.096776 53.91930476 -926.5572334)
(1507.343988 -73.53419171 56.25994304)
(1714.509863 -232.6956606 61.93690745)
(1474.1959 -116.9732391 563.1396487)
(1085.292449 -77.08207323 408.8349297)
(1593.019444 -325.9643516 -154.9985846)
(2176.377954 -79.55735322 -262.063828)
(1448.520513 363.2535335 -173.4150048)
(1750.811117 -70.69621435 -484.8088119)
(1709.361155 27.39673815 -202.2903671)
(1740.668515 -392.5426127 -139.7639206)
(1681.882162 424.1013057 15.64693791)
(1013.290694 183.7800446 32.30374392)
(1360.427976 -217.2430188 68.17152962)
(1798.951015 -46.80698511 -387.0659266)
(2183.915432 464.5791509 -399.369465)
(1605.721796 -98.15440249 24.7173384)
(1547.98518 31.16440822 -210.1878682)
(1528.800432 -302.2931448 -26.08713715)
(1514.116136 91.15543797 530.8129573)
(1368.107659 -320.5924703 -57.64612419)
(1762.612261 -300.6793102 -325.7883964)
(1362.662355 -342.5196198 -177.2754481)
(1895.472702 -260.8689405 587.1362535)
(1770.804853 -106.9488766 226.2672382)
(1464.380334 104.3343775 -82.1943731)
(1610.81012 363.1822805 125.6359968)
(1081.528569 -18.83035963 -23.63016226)
(1571.846509 -456.4702264 319.1523941)
(1768.94363 -163.989241 -616.8906757)
(1658.667793 -478.5393956 79.34380599)
(2186.335477 87.41635327 417.8235538)
(1825.322716 101.7048579 199.8122707)
(1598.310815 -232.3808711 -70.20605119)
(2044.312876 240.7745782 -79.60132775)
(1967.576686 225.8684589 270.31607)
(1504.437476 -32.96427533 -212.3543051)
(1619.215191 154.8541133 -30.17447355)
(2291.58108 -94.37423633 -463.1632571)
(1972.204064 183.2554903 94.91790752)
(1477.863347 171.6548921 -200.0241973)
(1421.263011 -161.0881224 218.5117426)
(1642.933567 119.6420195 468.5153507)
(1578.444455 26.78397624 -249.7836197)
(1653.2454 476.6244208 -166.8279751)
(1871.888829 3.69235953 75.09543479)
(1613.016805 114.9194714 -61.87211238)
(2167.647146 333.9142631 -483.0243499)
(1590.475469 -209.1581589 482.411468)
(1640.263322 37.74703967 233.0054718)
(1895.770921 -26.32325006 166.5232928)
(1242.781746 -82.26930086 -30.92257922)
(1541.400885 -270.3753703 46.91938921)
(1702.893288 -189.2458764 -504.8922787)
(1174.370093 282.2993258 133.1706557)
(1796.016186 244.641772 -478.8149903)
(1266.412838 38.90911916 113.9412435)
(1653.211201 5.023472061 -5.513238565)
(2275.509967 -495.8319783 -96.42017104)
(1388.76408 320.9607693 26.7504833)
(1972.955301 -113.8233474 -120.1737654)
(1343.767436 -302.463863 51.82543948)
(1741.540862 -6.224033654 -355.030884)
(2258.757484 192.7015594 239.1527079)
(1451.928166 -147.6933423 -288.7406836)
(1618.60683 412.7135396 249.0499176)
(1661.089534 174.6216264 -42.69364789)
(2408.167634 -111.276237 -375.3086747)
(1928.890986 178.6390939 210.2293411)
(1986.606277 -97.24635447 -53.71029696)
(1609.742832 -48.05550924 -35.3180145)
(1786.161774 -451.1374007 -195.3607522)
(2053.653922 -141.1310944 -280.9787459)
(1574.620545 110.5590382 -243.1390292)
(2086.172137 218.9742641 440.1319078)
(2261.564332 440.6581533 336.0836014)
(1676.553631 98.83103197 59.96677775)
(1874.03265 27.67634437 -564.924754)
(1197.955263 -55.46461388 84.49097693)
(1238.168603 157.109159 -156.3971168)
(2130.24556 -0.3284306144 -234.7999953)
(1833.567287 65.22720254 76.98276992)
(1456.967011 366.2837948 241.5946804)
(1812.209671 49.70153869 -753.1653211)
(1577.393872 114.8558467 -221.6865016)
(1904.799043 -250.9181439 216.8299443)
(2080.626297 -405.5237402 250.092958)
(1640.39371 -18.69399184 54.01430072)
(1775.271952 -32.6985171 280.377719)
(1797.819714 337.3212103 192.0345732)
(1682.044608 618.1404278 -68.2450165)
(1831.990552 289.1828438 4.598335123)
(1565.088335 205.174183 -469.4212667)
(1460.963423 246.5593843 47.19937621)
(1720.613856 -336.3276124 609.4457336)
(1897.412014 59.21044362 -192.1998544)
(1272.316589 -307.0471608 701.6644653)
(1513.204213 -101.2380716 97.4777793)
(1213.194714 -288.5518454 245.5432599)
(990.5583029 -244.8734401 275.2547854)
(1311.269411 795.1069058 318.3534801)
(1551.31096 75.90978048 -317.1359474)
(1610.017759 -45.94530317 74.67049518)
(1221.433672 38.38855013 386.8568197)
(1236.84265 -431.2282044 272.6445406)
(1246.048355 -278.6973939 -150.0936636)
(1799.33035 123.5125334 -39.60367697)
(1164.437412 386.9832258 88.45666369)
(1378.569363 -238.1878082 68.33362241)
(1727.126816 -194.0928754 114.3308816)
(1652.322935 -197.9258455 -121.8438075)
(1426.46992 71.22373153 134.3593359)
(1681.455214 -130.2873003 -366.1463809)
(1868.619677 7.827460208 -267.2433348)
(1891.779559 -668.0789028 164.2193392)
(1539.099508 12.75350467 -280.8802141)
(1611.645613 283.9581008 -479.2640643)
(1559.644877 18.61572452 -426.7881568)
(2228.783494 268.7510739 -168.5762724)
(1704.645565 -66.66618099 -421.6683506)
(1823.279238 312.4161392 -276.7174756)
(1870.094374 348.2692847 281.6953148)
(1430.567822 -598.8169365 429.2971959)
(1398.31567 -273.4226554 939.143158)
(1948.621594 -290.0143537 460.9595151)
(1853.492099 -55.26897691 80.80411783)
(1486.826102 318.5707933 170.1998251)
(1781.520505 109.1307314 -699.8068492)
(1409.170786 -2.442411568 470.7623835)
(1962.777712 119.7043456 36.79135757)
(1656.042058 26.02368001 177.9298106)
(1263.692565 -273.9876968 102.27669)
(1448.255247 202.0557299 -106.5545402)
(1722.141994 118.9936385 35.46895693)
(1291.53486 162.5303574 8.523319905)
(1853.321374 -224.4622104 129.3974094)
(2076.043493 58.47477554 -289.2989702)
(1748.290803 852.366231 173.2115847)
(2031.674132 397.5833919 87.96415774)
(2021.493275 63.32568636 174.7239353)
(1445.598393 46.99167142 -309.3178942)
(1746.799736 -9.086656327 423.9065884)
(1845.785099 -226.6327646 281.7214043)
(1826.655653 -269.3682468 398.3344278)
(1657.189635 -333.3404172 54.45834843)
(1516.807176 271.984866 788.4579711)
(1808.328436 -150.1442998 242.7294589)
(1521.545081 -377.2324493 -90.84873685)
(1378.124784 171.2224946 491.6461608)
(1331.356277 -272.1608065 16.14743186)
(1644.865929 -110.9950521 -112.3425452)
(905.7854633 -107.3698654 267.0753828)
(1852.675413 206.3001181 173.6286926)
(2120.848574 59.49015759 266.9798798)
(1291.637801 651.6987186 -437.4916781)
(1927.809136 155.5425906 -211.0675245)
(1468.73254 -374.9830745 -238.5854645)
(1539.394362 -48.84681845 -69.14398696)
(1578.957725 -319.7666899 -186.5239824)
(1683.245294 347.2599322 -531.2432152)
(1446.703573 -36.49522694 -441.9981524)
(1594.136157 -329.0444277 -415.02788)
(1608.845705 -78.09915498 -192.4772192)
(1459.194172 248.6797696 430.6357676)
(1999.820818 -162.7770523 -446.8571111)
(1699.745354 242.1497355 -128.6340443)
(1574.875996 -209.2623139 -805.1756673)
(1795.029828 -373.1998388 35.46026074)
(1453.463647 -22.31534185 -152.5980601)
(1611.221151 -260.1347902 -247.8204935)
(1176.539502 -259.9631616 -63.90629749)
(2020.12593 300.7763637 185.8232361)
(1177.557115 170.4829729 -50.1766251)
(1557.633074 388.4235118 -3.629004311)
(1538.494559 208.8551368 -22.23782819)
(1090.898823 206.3137967 63.43080091)
(1844.359374 145.3012144 -510.6546725)
(1462.231622 -227.613204 229.8706407)
(1762.984794 -216.1988075 374.8882793)
(1437.323397 -213.2055752 -370.3802886)
(1438.361621 -182.8817231 -218.7250983)
(1675.098993 -146.4834787 10.77270198)
(2062.54554 427.4113285 357.1733099)
(2001.970868 588.9991148 -63.16563165)
(1286.836548 -117.5893117 -342.5647409)
(1575.778766 125.0082823 30.92188824)
(1605.135784 58.48692422 299.0453903)
(1753.675232 -241.8433319 -149.7427972)
(1452.732965 326.0698531 1043.454441)
(1363.813766 330.1819303 -201.3881722)
(1530.625075 395.9956957 -320.3851892)
(1862.284058 -178.8898312 -220.6909572)
(1405.352567 -217.9969572 -443.9594678)
(1622.985784 210.9599643 59.8838246)
(1616.104768 219.9362282 367.4441858)
(1508.123355 258.0226874 84.47102493)
(1365.867886 421.2393117 348.8096992)
(1621.018014 -84.91061504 -100.2828961)
(2126.784817 -0.8441867608 -771.287876)
(1765.606181 -200.8048372 -407.7716836)
(1726.365482 -50.37684588 -454.3901137)
(1725.279535 -364.5948087 595.850171)
(1251.287024 -83.98909777 -202.9314583)
(1734.752246 -14.54532511 -117.6383352)
(1791.622551 -462.8265653 -1090.875792)
(987.6888362 -28.5376346 484.8723936)
(1768.087049 -159.44954 -90.3534694)
(2028.311422 -161.6497954 80.8611986)
(1700.669948 484.1518756 -104.1293362)
(1600.286455 580.3864269 358.5478167)
(1538.516818 -225.5070653 270.4700884)
(1629.116895 -95.77647872 393.5480144)
(2197.490876 62.2186216 117.805708)
(1612.845791 90.94673882 -13.33845882)
(1558.741003 505.0260661 -405.7195125)
(1647.089376 -194.764055 108.4963511)
(1874.922713 506.3219592 -134.1305109)
(1428.312628 -207.2091613 -414.8272913)
(1869.309774 0.5347273638 5.203027694)
(1357.338963 207.9491359 427.9883096)
(2054.742786 -58.92029833 323.9604077)
(1383.942446 245.1126451 -151.8429726)
(2078.430871 0.9379703423 -167.7144732)
(1867.654379 -441.5492036 -239.8219174)
(1773.272286 -134.5467314 197.0043805)
(1741.514586 -125.6131863 296.964355)
(1522.275177 -322.4418797 -61.62083665)
(1354.309517 -67.35517888 -221.5288033)
(1777.578497 -231.7620193 -344.6443778)
(1794.478095 -72.9168132 12.43159855)
(1828.554118 -158.1458755 175.41321)
(1722.213893 131.909984 147.0215468)
(1723.300442 706.9524963 -153.8479633)
(1408.715842 312.5254356 -197.8058525)
(1806.741772 -79.02961042 149.1582007)
(1145.139516 -33.10040561 52.52747653)
(1483.410632 -465.4199474 -61.16303938)
(1495.94158 -237.7491123 -264.8302043)
(1361.377365 408.8556919 -133.9753684)
(1789.460496 -130.0221011 -209.4578092)
(1465.74792 143.6467967 -329.6339938)
(1907.402216 94.68692228 -27.65184112)
(1490.053046 223.8977026 66.16173035)
(1327.913407 79.82495578 81.00913249)
(1510.26912 -281.7053229 -75.80073982)
(1526.253537 -308.510103 433.1254239)
(1436.084626 179.4150977 -129.4811813)
(1893.640066 272.3041077 -239.9640297)
(1165.480719 -632.550184 -220.7947973)
(1904.030163 -151.7649193 57.1580397)
(1757.170619 44.94590198 323.4282044)
(1949.739533 156.3339008 514.4803134)
(714.7897809 -743.5706714 60.78017586)
(1802.525135 100.0189892 62.03865381)
(1793.934331 755.3434775 271.9885661)
(1687.727371 -184.5106575 -72.75725098)
(1369.251343 -79.16740753 -251.3926653)
(1599.473021 -359.0846983 -491.7043581)
(1717.031432 158.840967 15.41641678)
(1347.715299 65.03343319 88.85954471)
(1930.515448 -72.29104768 -642.4288789)
(2067.359033 -48.16637539 202.6237663)
(1660.148647 214.580753 -14.77538592)
(1307.210472 514.681921 -270.4116408)
(1664.739039 -89.38981843 -205.224312)
(1592.79023 -26.18602446 -234.7676775)
(1711.968953 -697.1136727 -465.6690595)
(2025.287212 -406.2794322 -320.1100774)
(1787.324292 55.62944534 -387.5801984)
(2331.327768 -270.9735478 -21.28991204)
(2276.180159 -509.4626163 288.8724527)
(1149.598434 820.9835098 -233.0650814)
(2244.147111 374.8824056 -28.55355256)
(1073.054525 201.5291859 -56.3629809)
(1980.002266 -438.4852473 -290.1317243)
(1791.237311 42.05152188 -568.4535052)
(1986.653192 221.8054384 67.12925404)
(1758.264686 -486.3514213 -629.2105968)
(1534.771353 434.5541452 277.2336199)
(1587.998015 746.2325079 99.36259186)
(1823.94296 -40.22222526 -159.2012256)
(1718.55016 -127.7784024 -726.7978407)
(1855.635411 30.84860463 320.6579315)
(2037.630746 70.03722099 36.93498365)
(1629.206234 -129.354929 -311.8230572)
(1573.648568 367.4767384 464.7721598)
(1851.206538 25.53571072 -78.70962327)
(1296.845747 506.8150645 200.6386617)
(1587.391368 -228.3059717 -491.4267701)
(1868.369198 95.14517451 317.6133348)
(1656.715648 103.2550156 -23.24196331)
(1500.894487 307.3677838 -14.82113877)
(2107.374173 -181.7596818 206.0725423)
(1632.290412 -483.7421871 137.9460514)
(1608.243805 -45.28528644 197.6882589)
(1650.867668 90.9066749 -70.50189913)
(1539.549403 -65.83335418 91.27549801)
(1241.054671 -146.66907 -11.17269559)
(1595.71867 206.6485129 107.0865874)
(1484.221759 -9.724490253 -149.9261928)
(2129.086958 44.01444609 -24.76318873)
(1753.532534 -25.05579337 -143.3633884)
(1365.659903 603.5518806 232.9981798)
(1750.083026 -145.2756511 145.2091816)
(1275.965472 -241.4276581 -42.41063715)
(1709.998075 38.11938747 221.1811851)
(1781.161382 281.4981719 -117.9756288)
(1653.78429 35.80643904 -128.9728778)
(1578.649682 82.4097293 -40.37563281)
(1627.694442 -23.15175203 -74.93214993)
(1746.406818 -642.4156987 323.593384)
(1713.244032 39.83944989 215.3293726)
(1589.306235 370.4003067 -123.7114597)
(1712.821788 30.63408356 -300.5616413)
(1905.534751 239.509239 -517.4791331)
(1156.168701 -5.539613968 168.8459105)
(1210.799293 -256.0925518 332.8039433)
(1848.572101 -184.339722 143.3205287)
(1130.102658 611.2494793 -335.5465364)
(1543.820218 -331.7454741 -217.7002064)
(1701.352827 -38.40687697 132.5841538)
(1870.605586 226.5186087 -164.8197891)
(2002.329332 -346.1923062 471.4880419)
(1810.031165 244.8548121 632.861392)
(1773.66893 72.16296659 735.6869325)
(1943.245294 328.0906332 -300.6882133)
(1602.530531 234.7574068 153.6433699)
(1973.402917 278.9840552 -360.2515704)
(1394.83813 -184.4015811 -141.7817947)
(1812.384746 275.3629109 376.2402731)
(1879.60015 83.757056 174.3753515)
(1850.228557 -319.8448308 240.6441748)
(1838.755656 -156.1245147 -17.18830543)
(1470.944587 96.55508953 -79.11388085)
(1883.60553 74.33497603 93.35592283)
(1834.885499 -61.23593115 -90.04364819)
(1973.892909 500.7743052 -80.51825398)
(1907.805503 228.8673467 272.7748304)
(1360.777532 462.8070319 64.92426167)
(1525.501352 -245.1921294 175.8513435)
(1880.333642 -486.7462849 -107.4650852)
(1783.376709 -203.1172041 -68.50214148)
(1563.776271 158.8675258 -243.2340551)
(1868.948696 181.4614983 -15.47994306)
(1701.821992 -294.0292759 228.8524108)
(1902.026403 72.80767081 -396.6583799)
(1754.106408 650.3235875 -365.9064713)
(2039.338581 -237.6623394 -118.4802883)
(2110.608723 410.8805214 -110.4239233)
(2182.412604 -478.2628765 90.6966195)
(1270.02111 194.722232 -42.0802321)
(1908.361596 -532.5163564 -111.087479)
(2059.106376 162.9981146 -765.864623)
(1745.995896 331.8598161 260.7729665)
(1900.290084 -499.0748717 9.681473647)
(1466.325353 294.411413 191.3561434)
(2092.320759 425.9803768 210.8160514)
(1545.313269 -395.9305025 148.2927234)
(1812.225733 213.6422883 93.39462969)
(1884.277891 -513.8780825 278.4353558)
(1638.347769 -176.8402389 -354.8730487)
(1428.967582 -386.0943084 -72.32322683)
(1593.396695 -188.2809902 62.0562977)
(1398.724537 -87.08883894 -311.4735086)
(1619.790798 146.5469987 -43.80878328)
(1645.733428 137.8616793 -63.73997637)
(1698.700294 -510.0513965 -225.8890917)
(1754.142384 -261.6339027 216.6680848)
(1632.50581 -370.9346649 2.237179231)
(1141.552158 -168.7131111 -62.44607376)
(1197.833674 31.73952682 86.35822445)
(2026.574306 231.3841065 169.3894507)
(1791.724744 -265.0688316 222.1377205)
(1191.28091 -0.4840855552 -160.8962085)
(1701.153147 292.8109284 -382.4506132)
(1305.969462 -39.00836074 -178.7049175)
(1323.598472 183.653925 222.9938703)
(1747.423161 37.41483879 138.4658922)
(1733.327087 27.90886342 -240.8794344)
(1425.544505 85.01610301 -58.34921973)
(1760.708735 -71.66429513 37.85124328)
(1994.465008 -108.5438185 -73.6354181)
(1921.832203 82.28705171 -77.9590869)
(1756.430779 -103.4819808 12.99227187)
(1896.369537 62.67559187 -30.95101868)
(1718.715472 -23.96176788 82.33855502)
(1677.181794 -36.11241877 86.77816736)
(1459.333321 -147.3062147 -54.08458235)
(1512.987447 -361.1558036 -159.4650485)
(1554.264691 -0.5770502718 87.12163008)
(2470.798613 -165.3926849 344.6393582)
(1798.646098 260.8554951 -608.2058951)
(1351.900765 526.4848741 -43.30794248)
(1954.366582 191.7454596 357.7974126)
(1704.026392 99.26409556 -142.7822321)
(1000.133661 -184.586794 111.2498574)
(1867.051347 157.2480021 473.5309914)
(1884.423771 649.4705228 -202.3577571)
(2507.950843 48.73852762 369.9949282)
(1887.634313 437.5789402 724.7575778)
(1806.372771 178.4716145 449.7436394)
(1808.255832 2.740967722 529.9695644)
(1941.519643 -148.8344696 645.2037546)
(2075.776234 105.2560119 -308.1979316)
(1594.447394 214.0944597 -706.6315309)
(2088.535196 464.6339686 129.8595759)
(1532.528374 112.092941 305.4501535)
(2028.658928 22.68627643 -332.5614662)
(1631.96149 569.6680373 -152.6978247)
(1542.099786 111.885392 -142.5114009)
(1567.223597 194.3780377 -642.9520872)
(1923.558978 -285.1252166 81.99049371)
(1660.829096 810.6917282 39.4924688)
(1724.022857 -12.82783065 -101.1168399)
(1521.624914 182.203163 -369.4041739)
(1649.39622 -230.4294928 418.5094927)
(1838.436485 427.3809183 -500.7881969)
(1426.963619 240.4044766 -35.59736129)
(1514.410855 -218.6197019 124.6598263)
(1943.018544 428.3852501 181.0917524)
(1763.228091 88.42724305 -391.8704459)
(1560.102221 227.6666593 -205.2974196)
(1239.991145 -246.0126556 218.616431)
(1735.262896 89.92699217 115.3412345)
(1403.847704 -136.2238345 -72.2018966)
(1200.497546 149.0261814 -305.4300287)
(1670.520607 -336.3581773 -205.1026607)
(2132.143236 134.0853745 -517.5504358)
(1513.559671 -311.7703334 30.47828154)
(1530.954993 -339.7016796 444.6908997)
(1675.066681 -129.4628069 -120.8766462)
(1705.489945 -119.5012522 185.6157214)
(2018.421216 -106.5396225 936.8822934)
(1403.043602 219.8027224 -107.139429)
(1790.249877 175.0258725 46.64031997)
(1870.968838 -12.4289443 -489.7684038)
(1639.936228 -516.5351081 -772.4455446)
(1732.185007 110.4345561 -122.0327284)
(1361.95176 -486.3109946 242.9369197)
(1666.058961 29.82483029 195.4879618)
(1675.153397 202.1297417 -217.4911666)
(1550.427611 -164.7941402 -8.965770023)
(1551.742193 -312.0045869 108.2992394)
(1999.811709 68.1886335 95.05471341)
(1928.777767 150.1346508 -204.5180244)
(1584.739712 -241.267399 -223.2157093)
(1664.907424 -63.91928442 -927.9157831)
(1932.849333 -139.1984572 195.0484534)
(1694.91544 21.7710792 107.3953876)
(1721.450066 -425.6877529 239.657859)
(1455.095006 494.3966873 296.6575412)
(1551.17528 -388.2148153 60.6714538)
(1931.965781 -219.9529885 -104.4969561)
(1802.933428 290.1158975 681.7071516)
(1246.491963 209.7307915 115.6802703)
(2105.117438 17.25334956 -572.7670803)
(1713.054518 613.0196038 268.9637804)
(1370.139246 -7.392970244 -145.912067)
(1738.575799 -44.99403959 54.64277077)
(1673.131108 196.3891569 -193.2233415)
(1327.332881 194.7131858 -79.50176859)
(1503.075618 -9.680853303 461.7640158)
(1891.687123 -498.9742344 -489.6372194)
(1094.555138 62.15277638 -179.6242802)
(1710.643109 -234.8732349 -367.5221029)
(1877.395681 -329.149375 276.8531507)
(1717.212074 -344.7213724 -59.0197159)
(1752.004225 277.8843354 -175.5804152)
(1957.445834 -29.02052966 -62.13736229)
(1472.173313 15.33189433 32.76443769)
(1572.335504 478.2874694 -412.2922723)
(1355.418858 -17.8645254 118.0893149)
(1545.355752 -237.6729133 479.8086284)
(1719.26542 181.0855281 72.91329411)
(1673.260342 -50.76298349 -503.8579599)
(2126.632454 -55.55866519 -439.9063648)
(2020.021801 291.4067166 -345.9218761)
(1560.953839 -195.8406859 -342.6939818)
(1469.019781 -58.4575922 -500.5008039)
(1499.694934 -420.2759133 551.4701148)
(1883.784864 593.7650398 -498.9913831)
(2080.258825 -138.5784116 -535.4635469)
(1766.144643 -89.40095795 148.9860702)
(1221.003169 -18.99274168 593.3961846)
(1376.10222 4.460887258 561.4180068)
(1322.083474 568.5762784 -336.9941634)
(1210.484125 509.3404553 -2.204172406)
(1467.763492 37.35334009 195.308789)
(1418.593158 240.2656703 -348.9007276)
(1718.227545 -248.7190734 201.5152099)
(2019.72461 115.9636783 99.16888303)
(1543.905664 -102.3349788 79.20656423)
(1796.338419 182.4502798 42.61064814)
(1031.574961 -740.0048794 14.58008389)
(1772.873221 226.9253098 432.7103489)
(1770.944609 251.4732524 74.14306254)
(2116.272187 664.4583522 632.5506412)
(1643.818887 609.173417 -307.4990784)
(2316.933177 190.5733677 -100.65712)
(1718.32348 -130.6455245 43.98720806)
(1632.295972 15.39880016 465.8223543)
(1715.364965 -510.3757231 287.4754856)
(1667.996131 127.5039585 -629.45123)
(1393.433682 -485.0499001 -65.97506451)
(1814.841002 -25.99602377 91.56316748)
(1748.508701 -463.9491901 -225.407962)
(1606.381478 -75.14673465 738.8201238)
(1317.765676 -589.5714408 367.9071155)
(1836.365231 -245.4293085 -676.6089491)
(1849.552717 -181.1930214 340.3988166)
(1286.289469 101.3915252 23.61780564)
(1753.103117 -405.757271 -89.4381649)
(1528.379061 -789.0607524 -131.9098435)
(1741.85384 267.511243 135.623798)
(2065.762848 13.98284054 -382.4410991)
(1428.231422 254.7740368 167.8730818)
(1927.597038 -15.52917788 -200.2391394)
(1624.163276 499.5106862 -169.5801288)
(1869.09501 143.8951637 -60.48904225)
(1558.747714 845.1032452 292.5615379)
(1502.597789 446.7298592 98.08450947)
(1245.128919 -447.6205994 -23.76970446)
(1481.705177 206.9345127 -111.673928)
(1427.288878 -26.12984447 365.3544423)
(1489.519074 -422.5721341 -138.1209997)
(1329.464411 258.0888883 -162.4708959)
(2080.592423 57.26799579 -178.5000002)
(1669.022525 -806.4490981 165.303015)
(1661.983289 133.5550688 75.6712128)
(2316.994863 409.7118598 365.0074048)
(1855.207208 351.4200591 -415.2309538)
(1500.641357 -199.6322759 155.8463941)
(1731.887855 -73.28033002 -268.9912071)