/*--------------------------------*- C++ -*----------------------------------*\
| =========                 |                                                 |
| \\      /  F ield         | OpenFOAM: The Open Source CFD Toolbox           |
|  \\    /   O peration     | Version:  2406                                  |
|   \\  /    A nd           | Website:  www.openfoam.com                      |
|    \\/     M anipulation  |                                                 |
\*---------------------------------------------------------------------------*/
FoamFile
{
    version     2.0;
    format      ascii;
    arch        "LSB;label=32;scalar=64";
    class       volScalarField;
    location    "0.009";
    object      dsmcRhoNMean;
}
// * * * * * * * * * * * * * * * * * * * * * * * * * * * * * * * * * * * * * //

dimensions      [0 -3 0 0 0 0 0];

internalField   nonuniform List<scalar> 
654
(
16.94911111
17.68044444
17.81488889
17.65866667
17.46755556
17.42
15.11044444
15.60733333
16.21222222
16.59888889
17.04822222
17.44777778
17.41422222
17.44044444
17.598
17.45644444
17.27555556
11.38444444
11.96133333
12.36466667
12.90666667
13.46533333
14.11466667
14.68911111
15.16577778
15.75577778
16.188
16.62266667
17.02488889
17.08488889
17.19044444
17.31066667
17.16066667
9.333555556
9.445111111
9.508888889
9.726888889
9.938
10.25133333
10.52288889
10.94666667
11.44666667
11.92555556
12.47022222
12.97088889
13.55733333
14.11311111
14.64688889
15.19466667
15.70377778
16.202
16.67444444
16.84977778
16.87622222
17.01333333
9.003111111
8.971333333
8.921111111
8.939111111
9.024222222
9.024888889
9.069777778
9.083555556
9.228666667
9.368888889
9.489111111
9.648666667
9.852
10.13288889
10.38444444
10.684
11.116
11.52666667
12.03977778
12.63066667
13.22555556
13.766
14.26755556
14.86733333
15.38644444
15.86688889
16.244
16.56933333
16.75555556
9.087777778
9.038888889
9.030444444
9.020666667
8.977555556
8.914666667
8.928666667
8.974444444
8.992444444
9.015777778
9.040666667
9.167333333
9.267333333
9.460888889
9.604222222
9.888666667
10.108
10.38822222
10.73177778
11.12111111
11.67311111
12.13866667
12.70888889
13.20022222
13.82133333
14.46577778
14.86733333
15.39044444
15.70222222
16.02044444
8.987777778
8.912
8.885777778
8.871333333
8.842
8.830666667
8.836666667
8.829777778
8.837333333
8.912222222
8.962222222
8.961555556
9.030888889
9.151333333
9.306666667
9.382666667
9.527777778
9.706444444
10.04577778
10.30844444
10.58511111
11.14533333
11.70644444
12.286
12.88422222
13.33333333
13.98844444
14.56533333
15.11977778
15.47955556
9.028444444
9.021333333
8.95
8.908666667
8.888
8.795333333
8.724666667
8.693555556
8.673111111
8.640888889
8.602
8.712
8.732666667
8.747555556
8.877111111
9.028222222
9.208444444
9.459555556
9.526444444
9.764888889
10.12777778
10.41622222
10.75488889
11.29866667
11.80311111
12.27355556
12.85844444
13.36955556
13.94733333
14.452
9.028222222
8.958666667
8.916
8.872
8.766666667
8.715777778
8.696444444
8.663777778
8.634
8.612
8.569111111
8.612
8.616222222
8.604222222
8.636
8.723555556
8.773333333
8.925777778
9.139333333
9.383555556
9.612222222
9.974222222
10.25733333
10.52111111
10.94266667
11.50622222
11.97844444
12.52111111
13.084
13.67377778
8.920666667
8.853333333
8.789777778
8.716666667
8.733555556
8.702222222
8.708666667
8.659111111
8.630666667
8.536222222
8.579555556
8.494888889
8.442666667
8.487111111
8.52
8.527777778
8.603777778
8.782
8.942444444
9.019555556
9.194444444
9.410666667
9.789333333
10.04622222
10.414
10.84222222
11.248
11.726
12.17733333
12.64866667
8.893333333
8.830888889
8.841555556
8.777333333
8.724
8.661555556
8.578222222
8.521777778
8.516444444
8.502888889
8.462666667
8.433777778
8.424222222
8.439555556
8.383333333
8.356
8.340222222
8.429333333
8.501333333
8.654222222
8.815555556
9.029111111
9.195111111
9.531777778
9.824888889
10.12266667
10.48577778
10.86911111
11.406
11.99022222
9.094888889
8.980444444
8.835777778
8.777111111
8.709777778
8.686888889
8.621777778
8.564
8.537555556
8.425777778
8.412
8.431333333
8.362222222
8.292444444
8.347333333
8.430888889
8.419777778
8.404444444
8.477777778
8.455777778
8.583111111
8.632
8.76
8.917111111
9.132
9.453333333
9.834666667
10.19844444
10.65933333
11.12422222
8.846888889
8.868222222
8.810444444
8.741111111
8.647111111
8.598888889
8.529333333
8.445777778
8.376666667
8.376444444
8.333555556
8.251555556
8.292666667
8.290666667
8.253777778
8.282888889
8.291111111
8.288444444
8.299555556
8.360666667
8.386444444
8.426
8.493111111
8.607777778
8.756666667
8.957777778
9.197555556
9.593777778
9.906444444
10.30355556
8.888888889
8.806222222
8.75
8.705555556
8.656666667
8.535777778
8.544222222
8.450222222
8.416666667
8.426222222
8.336222222
8.330666667
8.258666667
8.252
8.271555556
8.234666667
8.205111111
8.167111111
8.098444444
8.174888889
8.137111111
8.216444444
8.321111111
8.424222222
8.550222222
8.706666667
8.876444444
9.079111111
9.395333333
9.716666667
8.843555556
8.742444444
8.687333333
8.652
8.586
8.612666667
8.610666667
8.557111111
8.478222222
8.408666667
8.368
8.335111111
8.246444444
8.202444444
8.072222222
8.07
8.004666667
7.944888889
7.950444444
7.927333333
7.895777778
7.936888889
7.945333333
8.012666667
8.113333333
8.263777778
8.443777778
8.669333333
8.767777778
9.032
8.906444444
8.828
8.762
8.711111111
8.645333333
8.610222222
8.519111111
8.517333333
8.491777778
8.402222222
8.328444444
8.273333333
8.210222222
8.096666667
8.028666667
7.977555556
7.868888889
7.856
7.838222222
7.836666667
7.841777778
7.901555556
7.965777778
8.017111111
7.993777778
7.998666667
8.1
8.252444444
8.530222222
8.713111111
8.949777778
8.954444444
8.934444444
8.789555556
8.683555556
8.578222222
8.471777778
8.391111111
8.297555556
8.230444444
8.171333333
8.100444444
8.079333333
8.063333333
8.039333333
8.021777778
8.041777778
8.035777778
8.053777778
7.988888889
8.034444444
7.947777778
7.827777778
7.837333333
7.870888889
7.862444444
7.905111111
7.983777778
8.062444444
8.288
8.961777778
8.873333333
8.815111111
8.765111111
8.684888889
8.641555556
8.576444444
8.512888889
8.381555556
8.320888889
8.239333333
8.217555556
8.158666667
8.134
8.099777778
8.035777778
7.990444444
7.961555556
7.865333333
7.818
7.786444444
7.725333333
7.771111111
7.738888889
7.813333333
7.818222222
7.893333333
7.903111111
7.937333333
8.006
8.872888889
8.735111111
8.693555556
8.653555556
8.605111111
8.556
8.474222222
8.483555556
8.443777778
8.360222222
8.337777778
8.289111111
8.217777778
8.100222222
8.017777778
7.952666667
7.844444444
7.826444444
7.764
7.728666667
7.697333333
7.721555556
7.663555556
7.685555556
7.648222222
7.615333333
7.618444444
7.664888889
7.753333333
7.753777778
8.892
8.798666667
8.783777778
8.696666667
8.659111111
8.585333333
8.544666667
8.432
8.399333333
8.301333333
8.269555556
8.134444444
8.074666667
8.086
8.042444444
8.008222222
8.002
7.9
7.885333333
7.836
7.757333333
7.692
7.601777778
7.628444444
7.634222222
7.678888889
7.572666667
7.547333333
7.607555556
7.632666667
8.930888889
8.898888889
8.756
8.704
8.624444444
8.586888889
8.576444444
8.551777778
8.485333333
8.436888889
8.367555556
8.324222222
8.302888889
8.196222222
8.125777778
8.089111111
8.008444444
7.892666667
7.834
7.775333333
7.757777778
7.774222222
7.756666667
7.684888889
7.569333333
7.574
7.632222222
7.676888889
7.684666667
7.712444444
9.000666667
8.938888889
8.910666667
8.848222222
8.774666667
8.689333333
8.577555556
8.459555556
8.419777778
8.352
8.238888889
8.230888889
8.153333333
8.080444444
8.046666667
7.990666667
7.952222222
7.9
7.833777778
7.795555556
7.7
7.611333333
7.562
7.517111111
7.509111111
7.536888889
7.460444444
7.426
7.383555556
7.416444444
8.949777778
8.854666667
8.794444444
8.764444444
8.709333333
8.629333333
8.572888889
8.471777778
8.436444444
8.389333333
8.327333333
8.290888889
8.242666667
8.212444444
8.08
8.019111111
7.935111111
7.914444444
7.868888889
7.789555556
7.716888889
7.621333333
7.612222222
7.545333333
7.488888889
7.397555556
7.445777778
7.405333333
7.413555556
7.378222222
8.724
8.715333333
8.642222222
8.613111111
8.515777778
8.440222222
8.432666667
8.402
8.308
8.233777778
8.219777778
8.043777778
7.966666667
7.891333333
7.847333333
7.846888889
7.800222222
7.700888889
7.601777778
7.588222222
7.572222222
7.577777778
7.472666667
7.412666667
7.327111111
7.272222222
7.225555556
7.193777778
7.162666667
7.214888889
)
;

boundaryField
{
    flow
    {
        type            calculated;
        value           nonuniform List<scalar> 
55
(
16.94911111
17.42
17.27555556
17.16066667
17.01333333
16.75555556
16.02044444
15.47955556
14.452
13.67377778
12.64866667
11.99022222
11.12422222
10.30355556
9.716666667
9.032
8.713111111
8.288
8.006
7.753777778
7.632666667
7.712444444
7.416444444
7.378222222
7.214888889
8.724
8.715333333
8.642222222
8.613111111
8.515777778
8.440222222
8.432666667
8.402
8.308
8.233777778
8.219777778
8.043777778
7.966666667
7.891333333
7.847333333
7.846888889
7.800222222
7.700888889
7.601777778
7.588222222
7.572222222
7.577777778
7.472666667
7.412666667
7.327111111
7.272222222
7.225555556
7.193777778
7.162666667
7.214888889
)
;
    }
    obstacle
    {
        type            calculated;
        value           nonuniform List<scalar> 0();
    }
    frontAndBack
    {
        type            empty;
    }
    procBoundary3to1
    {
        type            processor;
        value           nonuniform List<scalar> 
36
(
16.79222222
18.02444444
17.90977778
17.65333333
17.32888889
17.32888889
16.10933333
16.64644444
17.232
17.44755556
17.71
17.61133333
17.61133333
12.29466667
12.80555556
13.30533333
13.92933333
14.48133333
14.48133333
9.655333333
9.752444444
10.09155556
10.31666667
10.60955556
10.95066667
10.95066667
9.104444444
9.067333333
9.066222222
9.138888889
9.086666667
9.134666667
9.236
9.236
9.016
9.016
)
;
    }
    procBoundary3to2
    {
        type            processor;
        value           nonuniform List<scalar> 
19
(
9.122
9.023333333
9.106444444
9.059777778
8.99
8.985777778
9.118444444
8.917777778
8.916888889
8.955777778
8.956888889
9.042
9.004222222
8.940666667
8.893111111
9.060222222
9.013555556
9.006444444
8.836
)
;
    }
}


// ************************************************************************* //
