/*--------------------------------*- C++ -*----------------------------------*\
| =========                 |                                                 |
| \\      /  F ield         | OpenFOAM: The Open Source CFD Toolbox           |
|  \\    /   O peration     | Version:  2406                                  |
|   \\  /    A nd           | Website:  www.openfoam.com                      |
|    \\/     M anipulation  |                                                 |
\*---------------------------------------------------------------------------*/
FoamFile
{
    version     2.0;
    format      ascii;
    arch        "LSB;label=32;scalar=64";
    class       volScalarField;
    location    "0.009";
    object      iDof;
}
// * * * * * * * * * * * * * * * * * * * * * * * * * * * * * * * * * * * * * //

dimensions      [0 -3 0 0 0 0 0];

internalField   nonuniform List<scalar> 
654
(
4.558354881e+20
6.31741779e+20
3.603048699e+20
4.195354554e+20
5.92766434e+20
4.273457662e+20
5.734000597e+20
4.468873938e+20
2.916674972e+20
6.151796274e+20
3.50775609e+20
4.900091856e+20
3.845384674e+20
4.711679026e+20
3.91566425e+20
9.032631376e+20
5.982840782e+20
1.74994531e+20
3.276661727e+20
2.541438081e+20
3.075261144e+20
3.876534743e+20
4.952091466e+20
4.731748876e+20
3.446979483e+20
4.279510451e+20
4.317238265e+20
2.722273253e+20
5.218736389e+20
3.880206291e+20
6.432876982e+20
6.49220386e+20
5.413046422e+20
2.859757706e+20
2.88219929e+20
2.420829896e+20
2.440129979e+20
1.229870137e+20
4.215436117e+20
1.74994531e+20
3.276661753e+20
3.303869532e+20
4.356619954e+20
4.134970393e+20
5.473364207e+20
4.731748876e+20
2.916674972e+20
3.209632838e+20
4.317238265e+20
4.627864571e+20
4.12005508e+20
3.603048667e+20
4.195354516e+20
5.080855149e+20
5.982840782e+20
1.807964028e+20
2.73211953e+20
2.523212449e+20
2.311150415e+20
2.328734922e+20
2.346589066e+20
2.128247171e+20
2.621444564e+20
3.362565865e+20
1.694580953e+20
3.416181997e+20
2.213766247e+20
1.487800994e+20
2.249929703e+20
2.016407216e+20
2.287294254e+20
3.587804609e+20
4.134970358e+20
4.691455034e+20
4.731748836e+20
3.977283985e+20
4.012041014e+20
4.047410873e+20
3.538955229e+20
3.57071434e+20
4.157363846e+20
5.593806071e+20
3.669506496e+20
3.703663307e+20
1.570373143e+20
9.039820007e+19
2.049089618e+20
2.52321243e+20
2.542265456e+20
1.862987924e+20
3.285224643e+20
1.891775234e+20
1.668191983e+20
1.200916371e+20
1.210414948e+20
1.708090972e+20
1.967792189e+20
1.983734627e+20
2.749914081e+20
3.780763592e+20
3.049725721e+20
3.84407643e+20
2.842792168e+20
2.606363951e+20
1.840124578e+20
3.712131782e+20
4.012041048e+20
2.968101333e+20
2.722273301e+20
2.472033048e+20
4.434521475e+20
6.153186678e+20
3.951776227e+20
5.128149242e+20
1.570373143e+20
2.259955018e+20
1.82141302e+20
2.293829499e+20
1.386690249e+20
1.862987924e+20
2.815906858e+20
2.128247171e+20
2.621444564e+20
7.205498226e+19
1.452497938e+20
2.196116981e+20
1.229870137e+20
1.983734643e+20
2.999906246e+20
2.52050902e+20
1.779006656e+20
1.793902334e+20
3.101227794e+20
2.867000299e+20
2.102999483e+20
4.507588555e+20
3.477102242e+20
3.237928699e+20
1.905591277e+20
2.472033026e+20
5.265994252e+20
4.195354554e+20
2.82269733e+20
3.418766161e+20
2.019051199e+20
3.389932527e+20
1.138383129e+20
1.605680649e+20
3.004495539e+20
2.328734922e+20
2.815906858e+20
1.891775249e+20
1.429878853e+20
2.401832742e+20
3.147078889e+20
2.196116998e+20
2.459740275e+20
2.479668304e+20
2.499921872e+20
2.016407233e+20
1.524862861e+20
2.818989382e+20
3.876534743e+20
2.345727517e+20
2.365874438e+20
2.386370432e+20
1.872285822e+20
2.968101307e+20
2.994500605e+20
5.218736389e+20
4.711679026e+20
3.91566425e+20
3.387236766e+20
3.988560521e+20
2.692068246e+20
3.163937025e+20
6.830298825e+19
2.752595399e+20
2.080035373e+20
1.630114433e+20
2.815906858e+20
1.655303355e+20
2.14481828e+20
3.362565865e+20
2.178746923e+20
1.952103968e+20
9.838961021e+19
2.727635134e+20
3.249898459e+20
3.528712657e+20
2.795581866e+20
2.562717599e+20
2.325920846e+20
2.60636393e+20
3.154499277e+20
2.651522679e+20
1.872285806e+20
3.50775609e+20
2.722273253e+20
6.042747398e+20
2.49441833e+20
3.635973946e+20
3.387236766e+20
2.27917742e+20
3.365085307e+20
1.807964001e+20
1.821412993e+20
2.52321243e+20
6.933451296e+19
2.095861446e+20
1.877271253e+20
2.364719079e+20
9.532525688e+19
3.362565839e+20
1.69458094e+20
2.440129998e+20
2.459740275e+20
1.239834152e+20
4.749851556e+20
3.528712657e+20
2.795581911e+20
1.793902334e+20
2.584356495e+20
2.867000299e+20
2.628749353e+20
2.651522679e+20
1.337347016e+20
2.428446524e+20
3.266727904e+20
3.021373672e+20
3.325891047e+20
3.356283613e+20
3.104967035e+20
4.273457701e+20
2.019051199e+20
1.581968524e+20
9.1070651e+19
2.064446534e+20
1.848920318e+20
1.630114433e+20
1.642612322e+20
1.891775234e+20
2.859757684e+20
2.88219929e+20
2.178746906e+20
2.928155952e+20
2.21376623e+20
1.487800982e+20
1.74994531e+20
2.268458118e+20
2.795581889e+20
2.050174096e+20
1.550613897e+20
3.38827308e+20
7.886248126e+19
1.325761351e+20
3.477102242e+20
2.968101307e+20
1.633363966e+20
3.021373726e+20
3.048733514e+20
1.398451518e+20
3.66950653e+20
4.558354881e+20
1.12169511e+20
1.581968513e+20
2.504442902e+20
2.293829499e+20
3.004495539e+20
1.164367452e+20
1.407953429e+20
2.364719079e+20
1.429878853e+20
2.401832742e+20
2.904995898e+20
2.440129998e+20
2.459740275e+20
1.983734643e+20
1.249960946e+20
1.512305437e+20
2.033150464e+20
1.537630559e+20
3.101227794e+20
3.648909501e+20
2.628749375e+20
2.651522679e+20
2.407224629e+20
2.158619151e+20
2.177818622e+20
1.648022018e+20
2.771575922e+20
3.635973979e+20
3.387236796e+20
3.41876613e+20
1.794712164e+20
1.807964001e+20
1.593736381e+20
1.835063599e+20
3.235610581e+20
1.862987938e+20
1.642612334e+20
1.891775249e+20
1.191565711e+20
1.441099645e+20
2.178746906e+20
7.320389936e+19
2.705714281e+20
2.727635113e+20
1.74994531e+20
1.008203608e+20
2.541438081e+20
1.793902334e+20
7.75306955e+19
4.170182287e+20
1.05149975e+20
2.651522702e+20
2.407224629e+20
8.094821746e+19
1.088909311e+20
1.922692354e+20
1.940103128e+20
3.076593339e+20
3.669506496e+20
3.133868981e+20
1.12169511e+20
2.033959531e+20
1.366059755e+20
1.376297689e+20
1.61780529e+20
9.314939619e+19
1.407953429e+20
9.458876315e+19
3.098070848e+20
9.607331042e+19
1.210414967e+20
2.440129979e+20
2.705714281e+20
4.959336608e+19
2.249929685e+20
2.520509041e+20
1.779006671e+20
1.025087048e+20
5.168712991e+19
2.60636393e+20
1.840124563e+20
1.325761328e+20
2.94216341e+20
2.698273915e+20
2.722273253e+20
1.373351681e+20
2.217260738e+20
1.957832125e+20
2.540427574e+20
2.564074597e+20
6.730170614e+19
2.711946002e+20
1.593736381e+20
1.835063599e+20
2.542265456e+20
2.794481907e+20
2.11193016e+20
2.601190987e+20
2.14481828e+20
2.88219929e+20
2.662912886e+20
1.952103983e+20
1.96779222e+20
2.231701474e+20
1.249960936e+20
1.26025451e+20
2.541438081e+20
1.793902334e+20
2.584356495e+20
3.38827308e+20
1.314374688e+20
2.916674972e+20
2.674694032e+20
2.698273915e+20
2.177818603e+20
3.296044006e+20
1.385787949e+20
1.678141821e+20
1.411348665e+20
2.848971827e+20
1.121695102e+20
2.48595052e+20
4.098179295e+20
2.293829499e+20
1.848920346e+20
1.862987938e+20
9.386356124e+19
2.837662873e+20
2.621444564e+20
1.681282919e+20
1.452497938e+20
1.220064989e+20
2.213766247e+20
2.975601965e+20
2.749914081e+20
3.024610873e+20
1.779006656e+20
2.562717599e+20
3.101227794e+20
1.303181954e+20
2.891624313e+20
1.590913621e+20
1.872285822e+20
1.618964349e+20
2.722273277e+20
8.240110161e+19
2.494418308e+20
2.237522409e+20
2.258157844e+20
1.13958871e+20
1.346034132e+20
2.48595052e+20
1.821413007e+20
2.064446549e+20
1.61780529e+20
1.630114433e+20
1.877271239e+20
1.891775249e+20
1.906505123e+20
2.401832742e+20
2.178746923e+20
1.464077987e+20
2.705714281e+20
9.918673216e+19
1.74994531e+20
2.268458118e+20
1.779006656e+20
7.68815286e+19
2.842792145e+20
1.303181965e+20
2.1029995e+20
1.060609072e+20
1.337347016e+20
2.158619151e+20
1.633363966e+20
2.746703363e+20
3.048733514e+20
2.237522429e+20
2.258157844e+20
3.418766161e+20
4.486780409e+20
1.807964015e+20
2.73211951e+20
2.52321243e+20
1.848920332e+20
1.630114445e+20
2.111930144e+20
2.364719061e+20
1.429878853e+20
1.921466208e+20
2.178746923e+20
1.708090985e+20
2.459740275e+20
2.231701491e+20
7.499765675e+19
2.268458137e+20
1.01657524e+20
1.281358799e+20
2.067485179e+20
1.563818345e+20
1.840124563e+20
2.121218143e+20
2.94216341e+20
1.349136958e+20
2.994500605e+20
2.19736269e+20
1.385787949e+20
2.796903036e+20
1.411348652e+20
3.41876613e+20
1.570373143e+20
3.389932503e+20
2.276766258e+20
2.293829499e+20
1.386690249e+20
1.164367452e+20
2.111930144e+20
2.364719079e+20
2.14481828e+20
1.681282919e+20
1.936663932e+20
1.464077999e+20
4.919480549e+19
1.487800982e+20
2.249929703e+20
2.520509041e+20
1.016575224e+20
3.075261119e+20
2.842792145e+20
2.345727517e+20
2.365874418e+20
2.651522679e+20
1.604816419e+20
2.428446524e+20
2.450045928e+20
2.19736269e+20
2.217260738e+20
1.398451518e+20
1.129078932e+20
2.564074644e+20
1.79471219e+20
2.485950538e+20
1.366059765e+20
1.835063599e+20
2.773380498e+20
2.328734905e+20
1.407953429e+20
2.128247171e+20
1.906505138e+20
1.921466194e+20
2.178746906e+20
1.464077976e+20
2.705714281e+20
3.967469286e+20
2.499921872e+20
1.764356329e+20
1.524862861e+20
2.306445858e+20
2.584356495e+20
3.388273108e+20
2.365874458e+20
2.121218161e+20
1.337347016e+20
1.888791741e+20
8.16681976e+19
1.922692354e+20
3.603048699e+20
1.678141821e+20
2.258157844e+20
3.41876613e+20
2.692068246e+20
2.485950502e+20
2.504442884e+20
1.376297699e+20
1.386690249e+20
2.09586143e+20
1.642612334e+20
2.601190967e+20
1.906505138e+20
2.642016016e+20
1.210414957e+20
3.660194997e+20
1.721818179e+20
2.479668284e+20
1.74994531e+20
2.016407216e+20
1.779006656e+20
1.025087048e+20
2.067485213e+20
1.563818358e+20
2.102999483e+20
2.386370411e+20
1.604816419e+20
2.428446524e+20
2.450045949e+20
2.19736269e+20
2.217260718e+20
2.517212732e+20
1.129078922e+20
1.4244859e+20
2.243390205e+20
1.581968513e+20
9.107065033e+19
2.064446534e+20
6.933451296e+19
1.862987938e+20
1.642612334e+20
1.891775249e+20
2.621444544e+20
2.642016037e+20
3.873327864e+20
1.952103983e+20
2.705714302e+20
1.239834152e+20
1.999937497e+20
1.008203616e+20
2.033150481e+20
1.28135881e+20
2.067485196e+20
2.345727517e+20
1.314374688e+20
3.977284019e+20
2.94216341e+20
1.079309575e+20
8.166819831e+19
2.472033026e+20
1.385787949e+20
1.678141806e+20
1.693618383e+20
2.564074597e+20
2.467729243e+20
2.259955018e+20
1.366059755e+20
2.752595399e+20
2.542265456e+20
2.328734922e+20
2.581247953e+20
2.601190967e+20
1.429878853e+20
9.607330968e+19
2.904995898e+20
2.196116981e+20
7.379220766e+19
3.223568795e+20
9.999687567e+19
3.276661753e+20
1.779006642e+20
2.562717599e+20
2.842792145e+20
1.303181965e+20
1.840124563e+20
2.386370411e+20
3.744571645e+20
1.618964349e+20
2.994500605e+20
8.240110088e+19
3.048733487e+20
3.076593339e+20
1.693618398e+20
2.564074644e+20
1.570373143e+20
1.807964015e+20
1.138383137e+20
2.064446549e+20
2.542265456e+20
1.862987924e+20
2.111930144e+20
2.128247171e+20
1.668191995e+20
1.681282919e+20
2.178746906e+20
7.320389936e+19
2.213766247e+20
1.239834152e+20
1.499953123e+20
3.276661753e+20
1.524862861e+20
2.56271762e+20
2.067485196e+20
2.085091126e+20
2.628749375e+20
1.325761351e+20
2.674694032e+20
1.618964349e+20
3.266727904e+20
5.493406725e+19
1.940103145e+20
1.398451518e+20
1.693618383e+20
2.848971775e+20
)
;

boundaryField
{
    flow
    {
        type            zeroGradient;
    }
    obstacle
    {
        type            calculated;
        value           nonuniform List<scalar> 0();
    }
    frontAndBack
    {
        type            empty;
    }
    procBoundary3to1
    {
        type            processor;
        value           nonuniform List<scalar> 
36
(
3.988560521e+20
5.493406677e+20
5.543151795e+20
4.754735161e+20
4.234045957e+20
4.234045957e+20
7.558455333e+20
4.994623771e+20
6.628806642e+20
4.814449216e+20
5.126720484e+20
4.627864611e+20
4.627864611e+20
3.249898459e+20
3.276661779e+20
2.541438081e+20
2.818989359e+20
4.910277341e+20
4.910277341e+20
2.383131422e+20
7.205498226e+19
1.936663932e+20
2.440129979e+20
3.443636357e+20
1.487800982e+20
1.487800982e+20
3.389932503e+20
2.73211951e+20
1.376297699e+20
2.311150432e+20
9.314939689e+19
1.877271239e+20
1.891775263e+20
1.891775263e+20
2.467729243e+20
2.467729243e+20
)
;
    }
    procBoundary3to2
    {
        type            processor;
        value           nonuniform List<scalar> 
19
(
2.227066471e+20
1.55894653e+20
2.004359824e+20
2.004359809e+20
2.227066471e+20
1.336239882e+20
1.336239892e+20
1.781653177e+20
2.895186412e+20
2.004359824e+20
2.672479765e+20
1.781653177e+20
8.908265883e+19
2.4497731e+20
1.558946541e+20
1.781653177e+20
2.227066471e+20
2.004359824e+20
1.55894653e+20
)
;
    }
}


// ************************************************************************* //
