/*--------------------------------*- C++ -*----------------------------------*\
| =========                 |                                                 |
| \\      /  F ield         | OpenFOAM: The Open Source CFD Toolbox           |
|  \\    /   O peration     | Version:  2406                                  |
|   \\  /    A nd           | Website:  www.openfoam.com                      |
|    \\/     M anipulation  |                                                 |
\*---------------------------------------------------------------------------*/
FoamFile
{
    version     2.0;
    format      ascii;
    arch        "LSB;label=32;scalar=64";
    class       volScalarField;
    location    "0.009";
    object      iDofMean;
}
// * * * * * * * * * * * * * * * * * * * * * * * * * * * * * * * * * * * * * //

dimensions      [0 -3 0 0 0 0 0];

internalField   nonuniform List<scalar> 
654
(
4.828753961e+20
4.856293664e+20
4.93753171e+20
4.938957841e+20
4.930562199e+20
4.962908832e+20
3.938331703e+20
4.102776775e+20
4.298707527e+20
4.439694905e+20
4.600077333e+20
4.749761878e+20
4.783170232e+20
4.833751546e+20
4.921989962e+20
4.927425869e+20
4.921757062e+20
2.846022166e+20
3.014864856e+20
3.142403472e+20
3.307614208e+20
3.479922166e+20
3.678795808e+20
3.861399166e+20
4.021240373e+20
4.214188479e+20
4.367965814e+20
4.525144087e+20
4.676231956e+20
4.735206667e+20
4.808000625e+20
4.886277259e+20
4.889025542e+20
2.224308952e+20
2.268557712e+20
2.30194025e+20
2.373487318e+20
2.444489885e+20
2.541990634e+20
2.630640009e+20
2.75911723e+20
2.90909948e+20
3.056183135e+20
3.22274998e+20
3.380685665e+20
3.563883153e+20
3.74212345e+20
3.91759463e+20
4.099937272e+20
4.274997459e+20
4.450208827e+20
4.621448832e+20
4.71271942e+20
4.763646698e+20
4.847050691e+20
2.034662628e+20
2.042562917e+20
2.046350783e+20
2.065963035e+20
2.101502143e+20
2.117770559e+20
2.144747655e+20
2.164730667e+20
2.216571394e+20
2.268048667e+20
2.315466467e+20
2.3733214e+20
2.442969232e+20
2.533143076e+20
2.617408589e+20
2.715272423e+20
2.84871686e+20
2.978901562e+20
3.138004226e+20
3.320285683e+20
3.50678602e+20
3.681983773e+20
3.849777299e+20
4.047294388e+20
4.226199832e+20
4.397628681e+20
4.543289291e+20
4.677021254e+20
4.773610485e+20
2.038743165e+20
2.042748216e+20
2.056021106e+20
2.069187115e+20
2.074848125e+20
2.075989543e+20
2.095191126e+20
2.122203968e+20
2.143017675e+20
2.165439026e+20
2.188591615e+20
2.236948472e+20
2.279523268e+20
2.345986612e+20
2.400980539e+20
2.492447394e+20
2.568885633e+20
2.662208013e+20
2.773473984e+20
2.89856631e+20
3.06856838e+20
3.218595024e+20
3.399238926e+20
3.561781561e+20
3.762544671e+20
3.973320082e+20
4.120594309e+20
4.304558079e+20
4.432262035e+20
4.564179446e+20
2.016309263e+20
2.014071912e+20
2.023083917e+20
2.034932609e+20
2.043519197e+20
2.05642817e+20
2.073602523e+20
2.087994397e+20
2.106052675e+20
2.140566714e+20
2.169601549e+20
2.186736037e+20
2.221364112e+20
2.269227121e+20
2.326593955e+20
2.364909597e+20
2.421425727e+20
2.48748762e+20
2.596187105e+20
2.686755755e+20
2.782560399e+20
2.95521041e+20
3.131115709e+20
3.315099333e+20
3.507437355e+20
3.66227115e+20
3.877003581e+20
4.073782502e+20
4.267855637e+20
4.410081727e+20
2.025432398e+20
2.038780754e+20
2.037705801e+20
2.04349624e+20
2.054150489e+20
2.048199989e+20
2.047320725e+20
2.055781653e+20
2.066916361e+20
2.075396985e+20
2.082397893e+20
2.125841254e+20
2.148009191e+20
2.169103625e+20
2.219208422e+20
2.275571573e+20
2.340269156e+20
2.42421697e+20
2.461972858e+20
2.545085396e+20
2.662338951e+20
2.761884969e+20
2.876603713e+20
3.048689755e+20
3.213129396e+20
3.371181632e+20
3.56381547e+20
3.739335052e+20
3.936910021e+20
4.117334047e+20
2.02538253e+20
2.024618369e+20
2.029964811e+20
2.035085531e+20
2.02610853e+20
2.029673593e+20
2.040698129e+20
2.048740061e+20
2.05759567e+20
2.068458373e+20
2.074436052e+20
2.101439921e+20
2.119366865e+20
2.133561712e+20
2.158932546e+20
2.198780065e+20
2.229688325e+20
2.28742478e+20
2.361929546e+20
2.445696073e+20
2.526812338e+20
2.644687643e+20
2.743522802e+20
2.838883967e+20
2.978892879e+20
3.160417927e+20
3.31991682e+20
3.502033368e+20
3.693217154e+20
3.895620695e+20
2.001253622e+20
2.000813495e+20
2.001226932e+20
1.999454699e+20
2.01845607e+20
2.026516894e+20
2.043566198e+20
2.047636525e+20
2.056801293e+20
2.050257803e+20
2.076964474e+20
2.072863321e+20
2.076676723e+20
2.104522041e+20
2.129933435e+20
2.149434099e+20
2.186596866e+20
2.250578614e+20
2.311046438e+20
2.350824406e+20
2.416988989e+20
2.495259609e+20
2.618347144e+20
2.710745937e+20
2.834975366e+20
2.978036798e+20
3.117468542e+20
3.27964847e+20
3.437292598e+20
3.603569465e+20
1.995121703e+20
1.99574118e+20
2.013015551e+20
2.013370597e+20
2.016247607e+20
2.017046675e+20
2.012956217e+20
2.015161019e+20
2.02958062e+20
2.042251693e+20
2.048667647e+20
2.057951383e+20
2.072139852e+20
2.092729841e+20
2.095767836e+20
2.106137338e+20
2.119615836e+20
2.160200106e+20
2.197047602e+20
2.255605245e+20
2.317388616e+20
2.394089309e+20
2.459410881e+20
2.571934735e+20
2.674603247e+20
2.780396282e+20
2.906212921e+20
3.039984986e+20
3.219568575e+20
3.4159805e+20
2.040338479e+20
2.029540049e+20
2.011700086e+20
2.013319638e+20
2.012960652e+20
2.022946137e+20
2.023176931e+20
2.025145419e+20
2.034611691e+20
2.023730894e+20
2.036402124e+20
2.057354939e+20
2.056889479e+20
2.056251165e+20
2.086768134e+20
2.125013184e+20
2.139834387e+20
2.153821769e+20
2.190960007e+20
2.20388342e+20
2.256284797e+20
2.288794377e+20
2.343031972e+20
2.406080852e+20
2.485979957e+20
2.596550246e+20
2.725752533e+20
2.852406048e+20
3.008807174e+20
3.169259513e+20
1.984702388e+20
2.004178317e+20
2.005932263e+20
2.005061852e+20
1.998477443e+20
2.002453285e+20
2.001484019e+20
1.99718917e+20
1.996269754e+20
2.011881853e+20
2.017412043e+20
2.013486808e+20
2.039780602e+20
2.055810319e+20
2.063379959e+20
2.087709616e+20
2.107134551e+20
2.124094262e+20
2.144901049e+20
2.179094003e+20
2.20458606e+20
2.234173028e+20
2.27164736e+20
2.322614225e+20
2.383803966e+20
2.460435834e+20
2.549172329e+20
2.683286619e+20
2.796289403e+20
2.935453923e+20
1.994124641e+20
1.990166625e+20
1.992170476e+20
1.996905999e+20
2.000685876e+20
1.987756365e+20
2.004977829e+20
1.998240171e+20
2.00580228e+20
2.023837658e+20
2.018057629e+20
2.032790948e+20
2.031417486e+20
2.046222284e+20
2.067824265e+20
2.075555178e+20
2.0852782e+20
2.092999955e+20
2.09292675e+20
2.130673553e+20
2.139042575e+20
2.17860886e+20
2.225642604e+20
2.273085908e+20
2.327604127e+20
2.391463061e+20
2.460173969e+20
2.539339343e+20
2.652018208e+20
2.768250908e+20
1.983954591e+20
1.975753105e+20
1.977902741e+20
1.984621282e+20
1.984353746e+20
2.005661764e+20
2.020569625e+20
2.02351639e+20
2.020471778e+20
2.019621092e+20
2.025750457e+20
2.03387545e+20
2.028411152e+20
2.03393415e+20
2.017992489e+20
2.03405078e+20
2.034336469e+20
2.036050674e+20
2.054678274e+20
2.066151549e+20
2.07560209e+20
2.104484107e+20
2.125133565e+20
2.162036946e+20
2.208671033e+20
2.269814601e+20
2.340257097e+20
2.424728472e+20
2.474878293e+20
2.573191354e+20
1.998063023e+20
1.99508829e+20
1.99490261e+20
1.998180364e+20
1.998066587e+20
2.005092518e+20
1.999085269e+20
2.014110048e+20
2.023702245e+20
2.018073244e+20
2.01617473e+20
2.018800869e+20
2.019501426e+20
2.00770477e+20
2.007103956e+20
2.010750106e+20
1.999829387e+20
2.013270946e+20
2.025676051e+20
2.042520516e+20
2.061406844e+20
2.095115393e+20
2.130601828e+20
2.163236179e+20
2.176124763e+20
2.196996482e+20
2.244976477e+20
2.308128671e+20
2.407823528e+20
2.482340763e+20
2.007784395e+20
2.023664166e+20
2.034164165e+20
2.016174182e+20
2.006900303e+20
1.997640551e+20
1.987978095e+20
1.984262039e+20
1.977416522e+20
1.976815095e+20
1.978140818e+20
1.976613733e+20
1.987306144e+20
1.999439209e+20
2.009770523e+20
2.021896325e+20
2.043768028e+20
2.05934293e+20
2.081383291e+20
2.082195184e+20
2.112054082e+20
2.107371303e+20
2.093691051e+20
2.114727228e+20
2.142671049e+20
2.159580259e+20
2.190961562e+20
2.23298523e+20
2.27578402e+20
2.361227829e+20
2.010476448e+20
2.005333419e+20
2.006994754e+20
2.010567028e+20
2.007208456e+20
2.01238922e+20
2.012539061e+20
2.013059062e+20
1.997434841e+20
1.998538353e+20
1.994602461e+20
2.005190366e+20
2.006820099e+20
2.016962214e+20
2.024881178e+20
2.025425054e+20
2.030721996e+20
2.040321854e+20
2.032682512e+20
2.037655303e+20
2.046861097e+20
2.048389654e+20
2.078534433e+20
2.088164202e+20
2.127002854e+20
2.147433727e+20
2.187697242e+20
2.210423546e+20
2.240468941e+20
2.280886803e+20
1.990535202e+20
1.974095805e+20
1.979319395e+20
1.9849781e+20
1.988770611e+20
1.992465585e+20
1.988551706e+20
2.006122568e+20
2.012263214e+20
2.007985546e+20
2.018434187e+20
2.022650868e+20
2.021359897e+20
2.00858643e+20
2.004381819e+20
2.004476823e+20
1.993616967e+20
2.005696691e+20
2.006494383e+20
2.014371786e+20
2.023436002e+20
2.047387967e+20
2.049766631e+20
2.073773408e+20
2.082055079e+20
2.091706167e+20
2.111509719e+20
2.1437951e+20
2.18853133e+20
2.209029444e+20
1.994822599e+20
1.988459103e+20
1.999860901e+20
1.994867054e+20
2.001250824e+20
1.99929654e+20
2.005082122e+20
1.993931127e+20
2.001671519e+20
1.99384142e+20
2.001918732e+20
1.984910159e+20
1.986158265e+20
2.005059791e+20
2.010548277e+20
2.018479651e+20
2.033658769e+20
2.02454692e+20
2.037851242e+20
2.042346775e+20
2.039208533e+20
2.039551262e+20
2.033242966e+20
2.058363266e+20
2.078243897e+20
2.109162993e+20
2.09882206e+20
2.110915951e+20
2.147382656e+20
2.17452519e+20
2.003546865e+20
2.011108846e+20
1.993536536e+20
1.996549196e+20
1.993238836e+20
1.999658803e+20
2.012539061e+20
2.022255192e+20
2.022166449e+20
2.026399597e+20
2.02564288e+20
2.031218435e+20
2.042295004e+20
2.03239123e+20
2.031380959e+20
2.038867752e+20
2.035296568e+20
2.022667593e+20
2.024584895e+20
2.026534834e+20
2.039325332e+20
2.061352654e+20
2.074671004e+20
2.073593523e+20
2.060579386e+20
2.080353127e+20
2.115328315e+20
2.147151384e+20
2.169148789e+20
2.197253674e+20
2.019200744e+20
2.02014868e+20
2.028750521e+20
2.0296313e+20
2.027957466e+20
2.023515398e+20
2.012799793e+20
2.000447227e+20
2.006543683e+20
2.006010722e+20
1.994494869e+20
2.008443873e+20
2.005508237e+20
2.003682197e+20
2.011603799e+20
2.014054758e+20
2.021008054e+20
2.02454692e+20
2.024527448e+20
2.031805464e+20
2.024137019e+20
2.018162295e+20
2.02260361e+20
2.028322501e+20
2.044185251e+20
2.070159806e+20
2.067718801e+20
2.076980176e+20
2.084154237e+20
2.112924089e+20
2.007784395e+20
2.001114837e+20
2.002289437e+20
2.010414121e+20
2.012857935e+20
2.009542989e+20
2.011704718e+20
2.003337439e+20
2.010515584e+20
2.014977548e+20
2.015905764e+20
2.023084653e+20
2.027481901e+20
2.036413819e+20
2.019936889e+20
2.021224205e+20
2.016659339e+20
2.028248606e+20
2.033601411e+20
2.030241663e+20
2.028576685e+20
2.020813818e+20
2.036036535e+20
2.035937612e+20
2.03868021e+20
2.031889072e+20
2.063653823e+20
2.071199928e+20
2.092622348e+20
2.102034724e+20
1.957133615e+20
1.96962613e+20
1.96763201e+20
1.975700834e+20
1.968124334e+20
1.965504009e+20
1.978800325e+20
1.98683697e+20
1.979905585e+20
1.977615706e+20
1.989868378e+20
1.96278633e+20
1.959593086e+20
1.956788914e+20
1.961772023e+20
1.977815439e+20
1.982378195e+20
1.973520364e+20
1.964570378e+20
1.977766852e+20
1.990547444e+20
2.009264981e+20
1.998709694e+20
2.000140511e+20
1.99463986e+20
1.997463723e+20
2.00261758e+20
2.01202989e+20
2.02180399e+20
2.05550148e+20
)
;

boundaryField
{
    flow
    {
        type            calculated;
        value           nonuniform List<scalar> 
55
(
4.828753961e+20
4.962908832e+20
4.921757062e+20
4.889025542e+20
4.847050691e+20
4.773610485e+20
4.564179446e+20
4.410081727e+20
4.117334047e+20
3.895620695e+20
3.603569465e+20
3.4159805e+20
3.169259513e+20
2.935453923e+20
2.768250908e+20
2.573191354e+20
2.482340763e+20
2.361227829e+20
2.280886803e+20
2.209029444e+20
2.17452519e+20
2.197253674e+20
2.112924089e+20
2.102034724e+20
2.05550148e+20
1.957133615e+20
1.96962613e+20
1.96763201e+20
1.975700834e+20
1.968124334e+20
1.965504009e+20
1.978800325e+20
1.98683697e+20
1.979905585e+20
1.977615706e+20
1.989868378e+20
1.96278633e+20
1.959593086e+20
1.956788914e+20
1.961772023e+20
1.977815439e+20
1.982378195e+20
1.973520364e+20
1.964570378e+20
1.977766852e+20
1.990547444e+20
2.009264981e+20
1.998709694e+20
2.000140511e+20
1.99463986e+20
1.997463723e+20
2.00261758e+20
2.01202989e+20
2.02180399e+20
2.05550148e+20
)
;
    }
    obstacle
    {
        type            calculated;
        value           nonuniform List<scalar> 0();
    }
    frontAndBack
    {
        type            empty;
    }
    procBoundary3to1
    {
        type            processor;
        value           nonuniform List<scalar> 
36
(
4.784056759e+20
4.950780173e+20
4.963830842e+20
4.937466159e+20
4.891420796e+20
4.891420796e+20
4.198678498e+20
4.375933007e+20
4.569103842e+20
4.666687232e+20
4.778643146e+20
4.794286253e+20
4.794286253e+20
3.073570635e+20
3.227651881e+20
3.381468081e+20
3.569694767e+20
3.742492786e+20
3.742492786e+20
2.300992826e+20
2.342374038e+20
2.442993958e+20
2.517400761e+20
2.609675089e+20
2.715402104e+20
2.715402104e+20
2.057563476e+20
2.064419859e+20
2.079636798e+20
2.1121347e+20
2.116043799e+20
2.143530876e+20
2.184054541e+20
2.184054541e+20
2.022640623e+20
2.022640623e+20
)
;
    }
    procBoundary3to2
    {
        type            processor;
        value           nonuniform List<scalar> 
19
(
2.031530035e+20
2.009556312e+20
2.028065709e+20
2.017672718e+20
2.002132757e+20
2.00119244e+20
2.030738203e+20
1.986048388e+20
1.985850427e+20
1.994511241e+20
1.994758693e+20
2.013713503e+20
2.005300141e+20
1.991145882e+20
1.980554972e+20
2.017771713e+20
2.007378736e+20
2.005795044e+20
1.967835934e+20
)
;
    }
}


// ************************************************************************* //
