/*--------------------------------*- C++ -*----------------------------------*\
| =========                 |                                                 |
| \\      /  F ield         | OpenFOAM: The Open Source CFD Toolbox           |
|  \\    /   O peration     | Version:  2406                                  |
|   \\  /    A nd           | Website:  www.openfoam.com                      |
|    \\/     M anipulation  |                                                 |
\*---------------------------------------------------------------------------*/
FoamFile
{
    version     2.0;
    format      ascii;
    arch        "LSB;label=32;scalar=64";
    class       volScalarField;
    location    "0.009";
    object      internalEMean;
}
// * * * * * * * * * * * * * * * * * * * * * * * * * * * * * * * * * * * * * //

dimensions      [1 -1 -2 0 0 0 0];

internalField   nonuniform List<scalar> 
654
(
2.33417626
2.186392345
2.25952012
2.319682698
2.332496794
2.369923132
1.465731889
1.584290535
1.707314487
1.808446923
1.926864867
2.029167484
2.084529359
2.142433729
2.222387695
2.260333232
2.297650561
0.8485631859
0.9257421282
1.010574865
1.087531588
1.199020369
1.312168213
1.422930353
1.518937481
1.643826588
1.749398838
1.857344944
1.969507465
2.019504441
2.09183635
2.169181615
2.198866102
0.5323525721
0.5493893875
0.5698539521
0.5992332969
0.6364133826
0.6847377896
0.73371108
0.7978387275
0.8687864877
0.9529765967
1.042937365
1.116853663
1.228656599
1.337459567
1.436666452
1.558018942
1.673505073
1.786734616
1.905322008
1.975112562
2.020503181
2.11260255
0.4312988298
0.4394872328
0.4393323049
0.4494780484
0.4624071082
0.4711190005
0.482924291
0.5011775987
0.5209219505
0.5440388265
0.562527465
0.5993411692
0.6353431921
0.6819839759
0.7170784258
0.7605897899
0.8274098792
0.9028994991
0.9897117496
1.078822699
1.186743507
1.294463587
1.395185105
1.503752902
1.624550643
1.742603679
1.841329555
1.945342467
2.007853071
0.427476418
0.4296049877
0.4349418528
0.4404255139
0.4451601668
0.4541838689
0.4628550415
0.4761216213
0.48915827
0.5031181111
0.5116190321
0.5316588363
0.5537360261
0.5798867592
0.6089387858
0.6511059204
0.6945059984
0.7360151239
0.7927132413
0.867232317
0.9391538998
1.021286295
1.122655171
1.232384694
1.346999568
1.447197177
1.544905813
1.658352317
1.754526017
1.85935387
0.4212512101
0.4231232882
0.4290231075
0.4330111972
0.4341913437
0.4404393951
0.4474343682
0.4560451934
0.4628715556
0.4804402122
0.4887900122
0.4976902192
0.5180931811
0.5409091102
0.5681264771
0.5909645363
0.6176650486
0.6473855043
0.6929556035
0.7335337424
0.8012196268
0.88701954
0.9863003755
1.078744708
1.180449408
1.275007238
1.395161144
1.499148143
1.609659984
1.725634187
0.4268687004
0.4277627301
0.4276033685
0.4328402192
0.439991434
0.4411429052
0.4410292482
0.4443798408
0.4479516806
0.4479599569
0.4605031003
0.4744771001
0.4805568488
0.4926599169
0.5079039223
0.5379593658
0.5692165204
0.6160559674
0.6460032142
0.6812888418
0.72275595
0.7753484048
0.8351030625
0.9236791272
1.010004342
1.095446704
1.21086733
1.320352715
1.42573309
1.533208742
0.4196579636
0.4216818497
0.4257910366
0.4288212521
0.424892808
0.4269159806
0.4330694377
0.4369737617
0.4412782692
0.4476422849
0.4530381995
0.4660881475
0.4776180854
0.4873468742
0.4994507644
0.5144873123
0.5318862572
0.558598654
0.5830866152
0.6286484201
0.6668833394
0.71300518
0.7614191263
0.8077866727
0.8880812742
0.9802848617
1.056028696
1.152478547
1.271360623
1.380789688
0.4139609315
0.4146393905
0.4122496269
0.4132574157
0.4190363885
0.4202973017
0.4253295981
0.4310169068
0.4371406156
0.4407198979
0.4482454593
0.4509647176
0.4534130993
0.4657517391
0.4773651906
0.4881506396
0.5031721749
0.5260957924
0.5509606834
0.5679519635
0.603218752
0.638681041
0.691029879
0.7430564826
0.7980836621
0.8785600995
0.9580616439
1.042758243
1.12767001
1.222046323
0.4122505832
0.4146594915
0.417603198
0.4194978052
0.4174975892
0.4178160275
0.4191030399
0.4256650637
0.4313876362
0.4349621789
0.4397877087
0.4438389523
0.4511500987
0.453709163
0.4600358368
0.4695428076
0.4757489769
0.494075821
0.5081741539
0.5286193058
0.5585279362
0.5914525536
0.6146161589
0.6650494488
0.7165835274
0.7682666948
0.8285404645
0.90392771
1.002299928
1.101086191
0.4218158912
0.4218515186
0.4215119351
0.4216231177
0.426559019
0.4290049029
0.4278051249
0.4262383195
0.4285997074
0.4272984444
0.4301172064
0.4372549689
0.4385150301
0.4410349567
0.4488064053
0.4615857381
0.4683678333
0.4762290177
0.4963198892
0.510429026
0.5306242467
0.5418038462
0.5723129218
0.6012827857
0.6356802442
0.6836933022
0.7460053229
0.8098214469
0.8837763101
0.9594106344
0.4142122775
0.4185931066
0.4204518489
0.418957828
0.4147342988
0.41527737
0.4133127871
0.4183915532
0.4142377489
0.4197723423
0.422320874
0.4230326337
0.4273411443
0.4347586893
0.4419379085
0.4497398391
0.4558551622
0.465831723
0.4753580275
0.4875960148
0.5006025741
0.5155220616
0.5306260682
0.5548051429
0.5892492012
0.6209690464
0.6634205139
0.7140155157
0.7774676292
0.8447104804
0.4147335308
0.4132542597
0.4111904965
0.4152920588
0.416087379
0.4108582337
0.4164683874
0.4165314452
0.417803776
0.4229407647
0.4237874716
0.4265156819
0.4285513647
0.433017349
0.4419452793
0.4469362512
0.4506643817
0.4540741635
0.4538766611
0.4709549403
0.4784150681
0.4916534907
0.5128757656
0.5314719877
0.5554471406
0.5847739485
0.6155956398
0.6526263009
0.6954245542
0.748412872
0.4143638337
0.412752021
0.4107910157
0.4138429574
0.4133986775
0.4194815314
0.4221842754
0.4214513143
0.4191656544
0.4209316856
0.4213408929
0.4238450073
0.4256742194
0.4281541012
0.4266797783
0.4305970476
0.4352634331
0.442040382
0.4489284133
0.455205111
0.4599113458
0.469302676
0.4806274976
0.4983139008
0.5111846685
0.5367515699
0.5639249292
0.6025103952
0.6372919206
0.6835342814
0.4141951117
0.4130898678
0.4157416619
0.4172654236
0.4175174634
0.4177476319
0.4160957412
0.4189292445
0.4231654537
0.4188998889
0.4201538932
0.4239551323
0.4206474669
0.4172401843
0.4189532747
0.4223242927
0.4224124291
0.4277559496
0.4351153767
0.4426092154
0.4546725793
0.4675192397
0.4770932409
0.4922293472
0.5057700774
0.513725378
0.5319427386
0.5566811609
0.5949825685
0.6279918641
0.416308824
0.4226430125
0.4246758797
0.4228121001
0.4165936343
0.4188084109
0.4181146243
0.418932172
0.4176968275
0.4176477878
0.4151536672
0.4128892572
0.4178885032
0.4219920177
0.4275858937
0.430830563
0.4370681709
0.4409162516
0.4470369828
0.4472629764
0.4528537273
0.4539255233
0.4562622751
0.4623931231
0.4754472715
0.4898027876
0.5066366964
0.5255915299
0.5422143592
0.5789146767
0.4195975804
0.4178908114
0.4157745633
0.417608949
0.4205056703
0.422083277
0.4234409303
0.4214853059
0.4164221926
0.4179455116
0.4181087279
0.4225747851
0.4201282076
0.4226746056
0.4206260949
0.4224272508
0.4224135505
0.4251431735
0.4228855921
0.4300244185
0.4328182545
0.4357925805
0.4508233899
0.4552612183
0.4694834289
0.4735622539
0.4851325632
0.5003534592
0.5180087985
0.5333503637
0.41705217
0.4144305401
0.4155825065
0.4176539464
0.4149858071
0.4116289376
0.4140949206
0.4197266947
0.4222796892
0.423260694
0.4221837544
0.4202160899
0.4223368002
0.4187387237
0.4216737629
0.4212442719
0.4163582573
0.4229261995
0.4256976805
0.4272473181
0.4340551931
0.4370315595
0.4367679484
0.4490783358
0.4561714065
0.4615295146
0.4693917814
0.4829144102
0.4999341348
0.511477966
0.4171543043
0.4162267689
0.4173085802
0.4155790406
0.4188545374
0.4220491817
0.4235464462
0.4201421001
0.4178934826
0.4134958244
0.4183860321
0.416993022
0.4193526323
0.4213253741
0.4201712719
0.4230204567
0.4290761859
0.4242735512
0.4287555115
0.43298567
0.4352181642
0.4370169554
0.4372386365
0.4438677157
0.4494422858
0.4574033968
0.4620927575
0.4711711239
0.4851096332
0.4997947926
0.4122469754
0.4147555567
0.411078591
0.4118545589
0.4115892434
0.4134391778
0.41545394
0.4193213808
0.42187911
0.4241683421
0.4231793138
0.4227674553
0.4253441347
0.424549975
0.4243860155
0.4261933944
0.4266263836
0.4228396422
0.4224820413
0.4249491371
0.428567974
0.434526977
0.4356062016
0.4359164714
0.4371713288
0.4426359236
0.4502690463
0.4626126126
0.473598606
0.4848279321
0.4168341175
0.4188441964
0.4204460326
0.4176362466
0.4191832074
0.4191523978
0.4205509221
0.4165871891
0.4178004745
0.4187486726
0.4199437789
0.4218999041
0.4160400687
0.416404116
0.4165967616
0.4151018097
0.4165121792
0.4207963963
0.4235709555
0.42144727
0.4200767453
0.4238187842
0.4252172851
0.4325164985
0.4352054445
0.4464455622
0.4496999722
0.4508087873
0.4515947293
0.4659595769
0.420312974
0.4189283663
0.4157633601
0.4171307191
0.418207364
0.4158730148
0.4130326818
0.4116430095
0.4136901588
0.4143228409
0.4142340217
0.4197149429
0.4212884328
0.4230338452
0.4223467884
0.4230852691
0.421622808
0.4238149866
0.4241774869
0.4288393061
0.4259557338
0.4229935604
0.4301874135
0.4276705731
0.4284393345
0.4277151972
0.4387919026
0.4435559927
0.4528881282
0.4534451905
0.4050158722
0.4066893617
0.4080870049
0.4119484949
0.4110559052
0.4074569974
0.4119267435
0.4157415883
0.4125085311
0.4109716236
0.4110973145
0.4048795473
0.4030290182
0.4032031105
0.4053836154
0.4112381859
0.4133236353
0.4107707151
0.4091558142
0.4130981825
0.4146642957
0.4165854406
0.4182053316
0.4186386598
0.4205582442
0.4227583458
0.4259687402
0.4288640113
0.4291551353
0.4416338758
)
;

boundaryField
{
    flow
    {
        type            calculated;
        value           nonuniform List<scalar> 
55
(
2.33417626
2.369923132
2.297650561
2.198866102
2.11260255
2.007853071
1.85935387
1.725634187
1.533208742
1.380789688
1.222046323
1.101086191
0.9594106344
0.8447104804
0.748412872
0.6835342814
0.6279918641
0.5789146767
0.5333503637
0.511477966
0.4997947926
0.4848279321
0.4659595769
0.4534451905
0.4416338758
0.4050158722
0.4066893617
0.4080870049
0.4119484949
0.4110559052
0.4074569974
0.4119267435
0.4157415883
0.4125085311
0.4109716236
0.4110973145
0.4048795473
0.4030290182
0.4032031105
0.4053836154
0.4112381859
0.4133236353
0.4107707151
0.4091558142
0.4130981825
0.4146642957
0.4165854406
0.4182053316
0.4186386598
0.4205582442
0.4227583458
0.4259687402
0.4288640113
0.4291551353
0.4416338758
)
;
    }
    obstacle
    {
        type            calculated;
        value           nonuniform List<scalar> 0();
    }
    frontAndBack
    {
        type            empty;
    }
    procBoundary3to1
    {
        type            processor;
        value           nonuniform List<scalar> 
36
(
2.388819646
2.336469769
2.363631728
2.383233703
2.368249216
2.368249216
1.66475902
1.766701968
1.898823208
2.004047329
2.070547788
2.123569618
2.123569618
0.9615320061
1.038649666
1.135572305
1.25613179
1.355201379
1.355201379
0.575436601
0.5954106471
0.634606844
0.6791885159
0.7228002207
0.7820006541
0.7820006541
0.450184119
0.449928033
0.4593645689
0.474540416
0.4818651632
0.4922307043
0.5101892494
0.5101892494
0.4278741016
0.4278741016
)
;
    }
    procBoundary3to2
    {
        type            processor;
        value           nonuniform List<scalar> 
19
(
0.424873556
0.4192843941
0.4281393144
0.4167202844
0.4112621012
0.4164335461
0.4210651353
0.4104692907
0.4121791152
0.4166054197
0.4131815622
0.4147355826
0.4212871467
0.4168563999
0.4151020021
0.417141657
0.4153800755
0.4177578464
0.406110973
)
;
    }
}


// ************************************************************************* //
