/*--------------------------------*- C++ -*----------------------------------*\
| =========                 |                                                 |
| \\      /  F ield         | OpenFOAM: The Open Source CFD Toolbox           |
|  \\    /   O peration     | Version:  2406                                  |
|   \\  /    A nd           | Website:  www.openfoam.com                      |
|    \\/     M anipulation  |                                                 |
\*---------------------------------------------------------------------------*/
FoamFile
{
    version     2.0;
    format      ascii;
    arch        "LSB;label=32;scalar=64";
    class       volScalarField;
    location    "0.009";
    object      internalT;
}
// * * * * * * * * * * * * * * * * * * * * * * * * * * * * * * * * * * * * * //

dimensions      [1 2 -2 0 0 0 0];

internalField   nonuniform List<scalar> 
654
(
700.2368611
652.1831222
662.9071658
680.3613944
685.2846627
691.7423438
539.1239726
559.3753669
575.3366312
590.0638912
606.7817691
618.8600604
631.3040522
642.0509181
654.0719105
664.50579
676.2545572
431.9090524
444.8038903
465.8573423
476.2921565
499.1182259
516.6902047
533.8083264
547.1750208
565.0520352
580.1709795
594.5748761
610.1097765
617.8062145
630.2452607
643.0788214
651.5126859
346.6974484
350.8139319
358.6046496
365.7256498
377.135537
390.208521
404.0266895
418.8816721
432.6143125
451.6991351
468.7896463
478.5616347
499.4056592
517.7366981
531.2303186
550.4804749
567.0711732
581.6022245
597.2231495
607.1089924
614.4214838
631.3739169
307.0663806
311.6859448
310.9993314
315.1609045
318.7432985
322.253848
326.1739309
335.3776982
340.4374528
347.4752887
351.9262274
365.817059
376.7357045
389.996625
396.8638412
405.7733129
420.7438868
439.0658488
456.8794249
470.6748809
490.2233529
509.277356
524.9798351
538.2178313
556.8389736
574.0192655
587.0938505
602.5222962
609.3002395
303.735841
304.6497833
306.4432291
308.332357
310.7966881
316.9224045
320.0130956
324.9953746
330.6511563
336.5661154
338.6322835
344.2892436
351.8885604
358.0668054
367.3934383
378.4182231
391.6315123
400.4895151
414.036296
433.4096848
443.3506597
459.6503201
478.4219401
501.2165619
518.599615
527.6191534
543.1109355
558.0776478
573.4304925
590.1273457
302.6428476
304.3255072
307.1943226
308.244612
307.7859829
310.2551588
312.572111
316.3916054
318.3740503
325.1299526
326.3538491
329.6925566
337.8582464
345.2969395
353.7291356
361.9872504
369.5117671
377.0061556
386.6480471
395.4925498
417.1126659
434.8016439
456.3063156
471.3771547
487.5328168
504.3227421
521.2842082
533.0808865
546.3498467
566.8243474
305.297296
303.9336714
303.9807165
306.8316559
310.2832721
311.9990977
312.0526734
313.1293393
313.9457915
312.6687022
320.3430021
323.3187004
324.0820925
329.0132041
331.5353738
342.4564666
352.336865
368.1248033
380.0999536
387.7709901
393.25543
406.6658555
420.5391554
438.8885966
455.3458929
470.7122488
492.1842946
511.4956924
524.6010297
539.4256353
300.1475534
301.7089086
303.8466159
305.2390072
303.782725
304.6930926
307.4150803
308.9689942
310.669703
313.495071
316.3597106
321.2902002
326.4532688
330.886748
335.1197375
338.9528398
345.5580447
353.7524544
357.6123691
372.3503279
382.3167074
390.5392585
402.0329107
412.1880911
431.8612376
449.3183732
460.7813737
476.7151661
498.6666342
513.448949
299.6426457
300.199765
298.40791
299.4025432
300.7314407
300.4365538
301.4972072
304.9213519
307.8755647
311.3870764
312.6318562
315.150715
316.2798808
320.5881055
324.661742
328.9850227
333.3452677
338.6234571
345.349105
349.9756371
361.5318473
370.7786221
382.3103002
397.0812774
407.798411
427.3540403
445.1821804
460.5775165
475.2388389
491.2484223
299.3217559
300.9773336
300.5128757
301.8230263
299.9552761
300.0651412
301.6010718
305.9881809
307.8986502
308.5237697
310.96963
312.4184705
315.3903433
314.0586659
317.9764029
322.9497135
325.1375329
331.3187517
335.0576241
339.4894813
349.1342295
357.8705514
362.0089288
374.5763838
388.1091229
400.2687692
412.9834924
430.7335095
450.9687185
466.9305951
299.479511
301.0983597
303.5240023
303.3598382
306.9659764
307.2022093
306.308125
304.8896455
305.15236
305.8615947
305.9635374
307.8732302
308.8303155
310.7014288
311.5525059
314.6568215
317.0686451
320.2967196
328.150921
335.5004784
340.6744569
342.9112271
353.8357705
362.0053192
370.4140831
381.4266142
396.4623038
411.2674364
425.4949386
438.5237546
302.3249389
302.5534512
303.6312038
302.6836299
300.6194674
300.4154545
299.1390522
303.4660447
300.5916031
302.2440401
303.2454806
304.348721
303.4852928
306.3455863
310.2618991
312.0596859
313.3870219
317.688631
321.040608
324.1384719
328.9367673
334.2541818
338.3717254
346.0268467
358.0757109
365.5984174
376.9954417
385.4668037
402.7602458
416.8492393
301.2751058
300.7975527
298.9943402
301.2606462
301.2673276
299.4161629
300.8976979
301.9579764
301.7384385
302.726383
304.2012175
303.9405774
305.5977093
306.5482811
309.600227
311.9303962
313.0658024
314.2707565
314.14505
320.1907934
323.9901592
326.9085353
333.8129268
338.6966709
345.6845864
354.2180909
362.4733775
372.2975935
379.8568108
391.6356298
302.5495513
302.6236979
300.858581
302.0677239
301.7841219
302.9713402
302.6736625
301.7081796
300.5240964
301.9173836
301.2964844
301.8763679
303.9959216
304.9366455
306.2872466
306.6589578
309.9386928
314.4993565
316.5043353
319.1474325
320.9788543
323.0381234
327.6187747
333.8768363
335.2688332
342.5542313
349.0632446
359.9546851
373.0190096
384.7996033
300.2909093
299.9361563
301.8896665
302.4991164
302.6990699
301.8046861
301.5146027
301.3032948
302.9074749
300.6905083
301.8746353
304.2095282
301.731403
301.0458718
302.3723818
304.2526443
305.9779572
307.7798836
311.157903
313.9065826
319.5077878
323.2495572
324.3749938
329.6172745
336.6787757
338.7256285
343.2412608
349.3758702
357.9529837
366.4704967
300.3619674
302.5391973
302.4252124
303.784602
300.6998625
303.6997596
304.6703291
305.8377485
305.9915381
306.0486972
304.0171424
302.5925096
304.6085199
305.733079
308.1933725
308.6697144
309.7875629
310.1514615
311.1270619
311.1629717
310.5984688
312.0253936
315.6809417
316.7403613
321.4350683
328.5476022
334.971828
340.9642971
345.1329069
355.159197
302.3294011
301.8718587
300.0945285
300.8829919
303.4769963
303.8313349
304.7859305
303.2999369
302.0004875
302.9378766
303.6541922
305.277199
303.263259
303.5671632
300.9144664
302.1218584
301.3240298
301.8442639
301.3698045
305.7094027
306.3117072
308.1865328
314.1923563
315.822021
319.7411949
319.4505996
321.2325947
327.9048248
334.9227181
338.7312475
303.5057486
304.1094562
304.1499688
304.7945998
302.2699321
299.2688177
301.6542259
303.0787771
303.9917543
305.3470691
302.9935076
300.9526353
302.6646349
301.9944761
304.7491642
304.4243362
302.5323769
305.4539391
307.3333812
307.2459125
310.7433776
309.2139309
308.6688049
313.6947148
317.3819643
319.6282822
322.0244113
326.3121836
330.9073556
335.4067691
302.9276027
303.2213262
302.2761785
301.7769582
303.1852711
305.7963143
305.9956663
305.2336761
302.4260427
300.4186657
302.7451067
304.322688
305.8524193
304.3944192
302.7319428
303.5871553
305.6347467
303.5739569
304.7780147
307.1075106
309.1660316
310.3916719
311.5126241
312.3761974
313.2736126
314.1489707
318.9333539
323.3360461
327.2478908
332.9459085
298.0604624
298.7466441
298.7081405
298.820412
299.1238724
299.5036555
299.0370242
300.370617
302.2160458
303.2211983
302.6271909
301.5027771
301.6951802
302.5992909
302.6328624
302.8057068
303.6451914
302.8290811
302.2864351
303.7590857
304.424498
305.3590852
304.1523773
304.5271726
307.3326632
308.2165792
308.3476963
312.1053422
316.2768984
319.6346345
299.0406026
300.3416528
300.2119759
298.076289
299.4273267
300.0625805
302.6665378
301.6651978
301.6245648
302.3894199
305.0033624
304.2959173
300.5087401
301.0458001
299.9990233
298.5587139
298.5424271
301.0860015
303.0741542
300.4744296
300.6319481
304.2079165
304.5415338
308.8958463
308.4043305
312.4000083
315.0487658
314.4172899
313.8812745
319.455777
303.2509149
303.2593184
300.791636
300.5612904
300.9712072
299.784958
297.4175427
297.6548996
298.06717
297.8619737
297.6610004
300.5292686
301.0016993
300.9230659
302.8850196
303.2213746
302.8572349
302.6924036
302.1538822
305.9801459
304.1721429
303.2172128
306.0684268
304.2925373
304.429425
304.9306541
308.0123688
310.2221671
313.5064469
312.4865378
299.7767627
299.1061986
300.4382922
302.0425552
302.5483292
300.2992482
301.5535281
303.1151454
301.8108526
301.0345426
299.2724146
298.8128107
297.93177
298.4875992
299.3395167
301.1993778
302.0300307
301.5117631
301.6945981
302.5691107
301.76614
300.3400654
303.1002153
303.1972261
305.4274426
306.5912017
308.124409
308.7674944
307.4833917
311.23683
)
;

boundaryField
{
    flow
    {
        type            calculated;
        value           nonuniform List<scalar> 
55
(
700.2368611
691.7423438
676.2545572
651.5126859
631.3739169
609.3002395
590.1273457
566.8243474
539.4256353
513.448949
491.2484223
466.9305951
438.5237546
416.8492393
391.6356298
384.7996033
366.4704967
355.159197
338.7312475
335.4067691
332.9459085
319.6346345
319.455777
312.4865378
311.23683
299.7767627
299.1061986
300.4382922
302.0425552
302.5483292
300.2992482
301.5535281
303.1151454
301.8108526
301.0345426
299.2724146
298.8128107
297.93177
298.4875992
299.3395167
301.1993778
302.0300307
301.5117631
301.6945981
302.5691107
301.76614
300.3400654
303.1002153
303.1972261
305.4274426
306.5912017
308.124409
308.7674944
307.4833917
311.23683
)
;
    }
    obstacle
    {
        type            calculated;
        value           nonuniform List<scalar> 0();
    }
    frontAndBack
    {
        type            empty;
    }
    procBoundary3to1
    {
        type            processor;
        value           nonuniform List<scalar> 
36
(
723.3249356
683.6485886
689.7778373
699.2120406
701.356417
701.356417
574.3612792
584.8426371
602.0047267
622.079196
627.6637641
641.6363222
641.6363222
453.1760452
466.1533361
486.4698155
509.742122
524.5528626
524.5528626
362.2668676
368.2194704
376.2952681
390.8268328
401.2159918
417.176047
417.176047
316.9445781
315.7122427
319.9752594
325.4602798
329.8733838
332.648336
338.3874299
338.3874299
306.4387437
306.4387437
)
;
    }
    procBoundary3to2
    {
        type            processor;
        value           nonuniform List<scalar> 
19
(
302.9582982
302.2420707
305.808453
299.1853456
297.5584017
301.4416456
300.3597556
299.389968
300.6670569
302.5762427
300.0523037
298.3458587
304.3303205
303.270238
303.6087792
299.4731778
299.752449
301.7063564
298.9525319
)
;
    }
}


// ************************************************************************* //
