/*--------------------------------*- C++ -*----------------------------------*\
| =========                 |                                                 |
| \\      /  F ield         | OpenFOAM: The Open Source CFD Toolbox           |
|  \\    /   O peration     | Version:  2406                                  |
|   \\  /    A nd           | Website:  www.openfoam.com                      |
|    \\/     M anipulation  |                                                 |
\*---------------------------------------------------------------------------*/
FoamFile
{
    version     2.0;
    format      ascii;
    arch        "LSB;label=32;scalar=64";
    class       volScalarField;
    location    "0.009";
    object      internalE;
}
// * * * * * * * * * * * * * * * * * * * * * * * * * * * * * * * * * * * * * //

dimensions      [1 -1 -2 0 0 0 0];

internalField   nonuniform List<scalar> 
654
(
1.48336925
3.633802187
2.011796613
2.313800393
3.183439149
3.534558485
1.818003793
1.758771871
1.27851357
2.038190676
1.820536903
1.256484779
1.020384282
2.016647481
0.8625039567
4.458372378
2.150781813
0.6438233685
1.013387867
0.9939561857
0.9700710205
1.542320137
1.957624487
1.937163702
1.552172395
1.474455828
1.337833527
1.242804261
1.943224245
1.282644194
3.994520568
2.373280933
2.348062142
0.5386022024
0.4874997938
0.6244593894
0.7073093011
0.2106183663
1.109193304
0.6147697678
0.9557781499
2.298504264
1.053220524
1.720548625
1.809066583
1.651160929
1.033971543
1.690102003
1.461698811
2.744261651
1.800283572
1.475521646
2.368889959
2.070790216
2.975483037
0.4005350252
0.724797935
0.6017307419
0.4572521015
0.1517903987
0.6573139894
0.4195611386
0.6446106836
0.6170126765
0.3690035872
0.96972922
0.5608325011
0.5368541956
0.3930710037
0.5810490056
0.606979913
1.267431364
0.4940107962
1.874801264
1.121990081
1.107529046
1.628691614
1.28336481
2.099925781
1.76376187
2.087774735
2.388519557
1.42221292
0.9788828666
0.4150067999
0.2142965101
0.2432947587
0.6545159929
0.2220572417
0.3172371545
0.591063205
0.2266504886
0.3223880735
0.4598222902
0.2059296823
0.1868411911
0.3474628845
1.21332876
0.5103780081
1.173411249
1.01598
1.910556916
1.126930608
1.015303296
0.3520633669
1.174711899
1.972859218
1.317676522
0.9064078156
0.7528046589
1.702883923
2.15317079
1.459004612
1.010006426
0.4009471818
0.3608743166
0.1758302344
0.5239296099
0.3014275505
0.3432222993
0.5309860829
0.8073659366
0.5332142796
0.2569292993
0.1922091958
0.6797414144
0.1209119125
0.4084612305
0.6669965059
0.5521542023
0.3205678455
0.300590131
0.6535449072
0.6972742919
0.515424149
1.866956649
0.5999712258
0.6953151256
0.211441454
0.7553842979
1.911669345
2.094056216
0.6924008017
0.628269501
0.4997970874
0.368546513
0.1248585572
0.37823564
0.8228409822
0.4573545692
0.5861096564
0.2491119219
0.2592640923
0.4047484531
0.4160188951
0.5394108246
0.6471264248
0.759873987
0.3478812192
0.4816635997
0.3787192578
0.8086290221
1.146776506
0.624978934
0.6963341746
0.8791546736
0.3984058878
1.124266419
1.35237333
2.143141963
1.457012562
0.973205183
1.243546988
1.938870419
0.456279364
0.6697509393
0.1206757812
0.6143445241
0.4066154906
0.4027187767
0.5467912768
0.299251378
0.3540667086
1.28909787
0.5487106896
0.2091094706
0.3001494798
0.5602023973
1.079336807
1.880340664
0.3598773376
0.6434142291
0.1602712252
1.260442041
1.13529965
0.7926061834
0.5432724946
1.719384046
0.8101116021
1.628890921
0.6532218172
1.820111613
1.160341966
0.9944021636
0.7122354566
0.3059535658
0.420037617
0.5320278394
0.3021551429
0.5248240784
0.4087919072
0.6204998496
0.3649576963
0.4870341856
0.3568241214
0.5008431857
0.5528339139
0.2571292407
1.159962733
0.8889250114
0.7088504413
0.5898178474
0.5983830779
0.5461124431
0.7484531881
0.7488293251
0.5170461983
0.6474657872
1.089033523
0.5881202087
1.139022928
0.953767711
1.495757671
1.414533547
0.3343793936
0.3453366342
0.08599624918
0.5450323427
0.3794535437
0.2232551969
0.1648179181
0.376789842
0.3902511404
0.8113529357
0.3010978732
0.8747092806
0.4490946862
0.4691125353
0.2398308462
0.6286677048
0.493682346
0.6254445306
0.6442317538
0.7208684527
0.09176104799
0.3594945094
0.8949075633
0.873135676
0.1919402999
0.2045702144
1.132320551
0.83479501
1.111231454
1.258297011
0.2729802941
0.209376705
0.4975881284
0.533606333
0.7022180048
0.1906605954
0.2405554541
0.8208459935
0.1588851373
0.6377147691
0.6668911952
0.6345159195
0.3561020204
0.3714099792
0.1233392614
0.2515995941
0.2645414001
0.4740250114
1.233420802
0.6846204727
0.7675408905
0.848374087
0.6295567718
0.7225003385
0.7075371208
0.3285946267
0.8545448773
1.676104839
1.123590198
0.6733851256
0.2177019344
0.4732540108
0.3158678995
0.3068641568
0.3714751994
0.3371746542
0.360259736
0.3429926024
0.3224957106
0.2341010202
0.2610829351
0.06911222393
0.7451436579
0.6744951289
0.2198331097
0.1037927574
0.8023289692
0.2272592138
0.1295522106
1.581944694
0.1893796349
0.6890210761
0.4040722191
0.03715673919
0.1364184332
0.5920351475
0.2531095869
0.2690344873
0.8538785161
1.110036356
0.1710470079
0.2345781594
0.3965912048
0.2704728515
0.4872424284
0.2163334379
0.2405905357
0.1141586547
0.7370971667
0.2195323128
0.4065116103
0.6688262129
0.4676973226
0.0881637723
0.4692888515
0.6438748743
0.2841530294
0.1589305589
0.1725363718
1.011224775
0.4626704498
0.6835161871
0.7478547494
0.632173876
0.4180877523
0.2903059317
0.8404543705
0.3997526247
0.7559026389
0.6703663363
0.128897712
0.4753793723
0.349288443
0.3294495547
0.4913711713
0.3437848811
0.3823909556
0.3642754468
0.3343167123
0.453687481
0.8831963753
0.2880693488
0.5716944025
0.4882967383
0.3041196815
0.2249137079
0.2819887424
0.316135132
0.7796322696
0.5860703073
0.1916856595
0.5584424492
0.8389231202
0.4481612406
0.1426125018
0.9731965514
0.3870830448
0.4576272855
0.349116191
0.6210915664
0.2596427877
0.6737826302
1.011944006
0.4541001542
0.4323189445
0.579256216
0.2480863034
0.7658179971
0.6809326733
0.365004168
0.2373521984
0.6261916794
0.4896911416
0.4572558068
0.5232701272
0.7668472698
0.5214374016
0.5009504364
0.4195429812
0.2907849993
0.7723943538
0.3118980693
0.6250798761
0.25630034
0.5748318665
0.1781339664
0.8916942045
0.5948457485
1.01392218
0.1882508186
0.5867222655
0.3298666103
0.4182293749
0.3683396848
0.3033157698
0.1700660771
0.2362648587
0.3733510189
0.3967090991
0.5710289754
0.5068202618
0.2117324935
0.4804815637
0.08817331749
0.4842961572
0.6548726978
0.4748296424
0.1388004251
0.7311450832
0.4630713879
0.403690464
0.1758394392
0.1858578168
0.6219559539
0.477067728
0.7282168004
0.8286640303
0.1961291107
0.6827588965
1.322688246
0.8192345461
0.2500611968
0.2708701366
0.3797860156
0.3270680923
0.2858146725
0.5440184165
0.4424221448
0.334390413
0.3605214654
0.4603045491
0.2511324888
0.6248754504
0.4413236406
0.1032784596
0.561947933
0.1135368034
0.5326472782
0.3271105084
0.2206580434
0.1359806407
0.2591917184
0.955879791
0.2430980475
0.477423787
0.6165542981
0.2388638699
0.5104659166
0.4130954377
1.058275066
0.2569861984
0.7593101434
0.5993408634
0.5712294491
0.2402847625
0.1757909086
0.1628723161
0.4217496274
0.3186419731
0.5123778344
0.3532918622
0.3497004375
0.2783846383
0.2098337641
0.4698367674
0.7239246778
0.07104545996
0.4350177385
0.5598045687
0.2090485625
0.4514551554
0.3261311102
0.3694590392
0.4474071471
0.425283329
0.5495481093
0.6563733684
0.5227340226
0.1730692165
0.273335507
0.3960826363
0.6189244704
0.2919667431
0.3363492779
0.6846934302
0.502418945
0.3494355075
0.4419496698
0.4503594696
0.4365501849
0.3535977394
0.445180634
0.4635911265
0.4803458828
0.6929133925
0.3016997302
0.2198920935
0.4477555295
0.3055126306
0.5729746054
0.5012397863
0.3308576844
0.1831545079
0.5010481006
0.1659178224
0.398405758
0.9476614839
0.1761975951
0.288203435
0.5133348431
0.8381470051
0.5774430856
0.4800293543
0.4864054789
0.1513332433
0.617792207
0.1045112411
0.6038429366
0.3057449162
0.3992523371
0.201740233
0.6660404738
0.3374527186
0.7301431461
0.2273418054
0.3892395241
0.4965506304
0.1485486526
0.3388019692
0.1892009955
0.4708811169
0.3980565687
0.1563762661
0.4297530531
0.3239066864
0.4409395535
0.6103414463
0.1314455951
0.4374135628
0.1736381406
0.3538355597
0.2826334673
0.1297575382
0.3579914348
0.02532184338
0.2114172239
0.3479917379
0.4913584682
0.7931499137
0.5940765962
0.7728001235
0.3855354508
0.72564263
0.1635723524
0.2688439371
0.1284667407
0.6076987328
0.3437818283
0.6386092238
0.5056292396
0.1990644625
1.088434821
0.4329340226
0.3571232757
0.0539523355
0.7179481192
0.3230999198
0.558863651
0.2038818615
0.3092605534
0.5392614981
0.3981001133
0.225414865
0.8803785306
0.3909716365
0.3773409751
0.3713869055
0.4485823801
0.4396048337
0.2820212619
0.8027501642
0.3707455208
0.02299690782
0.8242496011
0.09302645825
0.5208840952
0.4965146806
0.8543059518
0.8582674384
0.2403465952
0.3276671642
0.5085948971
0.6427432759
0.4197621754
0.5900834962
0.03144746774
0.5157691488
0.5747235702
0.446300044
0.6508196231
0.5011110628
0.4870266725
0.08916541466
0.477138835
0.3560709646
0.3639300168
0.5148552518
0.5680124992
0.3039630799
0.2314495017
0.3846784632
0.1032727321
0.3458366427
0.1894019382
0.30090555
0.9747337075
0.2453391787
0.4719179915
0.2341696891
0.2958197586
0.3919243082
0.3260140304
0.8204217783
0.4361089277
0.8870792304
0.08683392892
0.3254911872
0.2161254716
0.2110546261
0.5517444907
)
;

boundaryField
{
    flow
    {
        type            zeroGradient;
    }
    obstacle
    {
        type            calculated;
        value           nonuniform List<scalar> 0();
    }
    frontAndBack
    {
        type            empty;
    }
    procBoundary3to1
    {
        type            processor;
        value           nonuniform List<scalar> 
36
(
1.568970548
2.05767898
3.200008061
1.952783822
2.537391531
2.537391531
3.417773958
1.281134998
2.371912628
1.744561519
2.916284647
1.903887496
1.903887496
0.9863400065
1.199117171
0.7119594138
0.934363216
1.743123953
1.743123953
0.3049681468
0.1220365614
0.2673625847
0.6250906338
0.9265415623
0.1648483958
0.1648483958
0.8468316312
0.5441325911
0.09295089454
0.2839914507
0.2957219601
0.6456600687
0.450630576
0.450630576
0.7181214782
0.7181214782
)
;
    }
    procBoundary3to2
    {
        type            processor;
        value           nonuniform List<scalar> 
19
(
0.4475048764
0.1885139954
0.4395973548
0.5607458814
0.5611004319
0.2944273429
0.1256002588
0.5412993919
0.6964135967
0.2987667028
0.5026812111
0.4454791926
0.1169015932
0.4231758366
0.2535526472
0.1996108807
0.6243484401
0.5668644402
0.6515662658
)
;
    }
}


// ************************************************************************* //
