/*--------------------------------*- C++ -*----------------------------------*\
| =========                 |                                                 |
| \\      /  F ield         | OpenFOAM: The Open Source CFD Toolbox           |
|  \\    /   O peration     | Version:  2406                                  |
|   \\  /    A nd           | Website:  www.openfoam.com                      |
|    \\/     M anipulation  |                                                 |
\*---------------------------------------------------------------------------*/
FoamFile
{
    version     2.0;
    format      ascii;
    arch        "LSB;label=32;scalar=64";
    class       volScalarField;
    location    "0.009";
    object      linearKEMean;
}
// * * * * * * * * * * * * * * * * * * * * * * * * * * * * * * * * * * * * * //

dimensions      [1 -1 -2 0 0 0 0];

internalField   nonuniform List<scalar> 
654
(
14.68030192
15.61805819
15.71635325
15.561836
15.49084253
15.43269659
13.45496396
13.94726264
14.49876383
14.85682299
15.2818775
15.53034896
15.61038174
15.73291321
15.90662757
15.81692258
15.66194042
10.36367098
10.88200141
11.25033937
11.73636167
12.19481896
12.82857547
13.29924637
13.72301049
14.29692197
14.76340917
15.22818673
15.53146112
15.63423766
15.72950761
15.91288804
15.87864986
8.498766252
8.652625158
8.736083492
8.982393044
9.247818691
9.509122916
9.755627964
10.12623511
10.63734836
11.07413313
11.56371917
11.99377092
12.5562431
13.05026938
13.50927383
14.01772002
14.57081895
15.04345178
15.4402566
15.69496832
15.76365818
15.96287704
7.953591955
7.956884859
7.967008088
8.04249497
8.173253045
8.23911118
8.30135526
8.336867406
8.502914487
8.663138007
8.794354373
8.967792741
9.211373535
9.511613528
9.740208215
10.00863969
10.41048838
10.83388148
11.30366313
11.8298078
12.46524263
12.95649875
13.45950055
13.9965139
14.55898976
15.05958115
15.37600826
15.76176163
15.9753313
7.983867594
8.010152418
8.040369155
8.107475673
8.111150603
8.092463995
8.143847279
8.237291345
8.294273025
8.34393946
8.40752108
8.581260576
8.70971095
8.90955254
9.066944598
9.378114977
9.621346922
9.926030913
10.27301338
10.62876971
11.11962037
11.59317186
12.14504184
12.63410484
13.24525472
13.83577812
14.26830599
14.8506761
15.17555888
15.55185149
7.916779258
7.909559211
7.941542376
7.966731916
7.996123908
8.026252472
8.080986846
8.148398493
8.216345341
8.305190534
8.377015016
8.413757126
8.549313602
8.689159551
8.839213431
8.950938813
9.127440126
9.337771397
9.667925789
9.969523607
10.29988912
10.78991229
11.32595305
11.88062549
12.44623814
12.92729161
13.58849477
14.20048316
14.76846081
15.12508957
7.947852752
7.988295291
7.974437237
7.981250958
8.024308004
8.013185373
7.988130801
7.999010184
8.047962441
8.067432589
8.070929399
8.209908304
8.284934563
8.355284996
8.509827035
8.718118406
8.92577082
9.189597765
9.314193514
9.560450931
9.928316838
10.24973539
10.59157058
11.08143126
11.56460665
12.09209307
12.66660747
13.22960265
13.74866997
14.29522738
7.940482365
7.91542751
7.953427417
7.961769268
7.940105296
7.945936807
7.98626355
8.017673429
8.040892435
8.08350707
8.098546742
8.193801973
8.238921326
8.26943507
8.366694772
8.482330567
8.546941699
8.727687688
8.978143518
9.249105039
9.499241405
9.822393768
10.14079109
10.46847161
10.89756115
11.44125342
11.92841428
12.45663577
13.07149316
13.72940026
7.839331709
7.847701014
7.834607604
7.826219575
7.893289965
7.928161287
7.993085881
8.023507426
8.03636608
8.005965322
8.102992907
8.075769555
8.083914666
8.176044361
8.248676775
8.313576272
8.440619703
8.666917755
8.857634383
8.934906524
9.140811999
9.383432529
9.79773267
10.07014427
10.4661423
10.90810655
11.35914086
11.87457354
12.3949176
12.82329127
7.822227648
7.819518829
7.882167373
7.889799685
7.895586375
7.910597133
7.886360143
7.889616998
7.940407184
7.981886518
8.012946957
8.017339213
8.064332162
8.168930061
8.157400828
8.204024503
8.234344873
8.346506591
8.456462803
8.664134577
8.874598793
9.15687666
9.336307872
9.692115222
9.975287015
10.3037772
10.76184326
11.15484019
11.70389973
12.33660179
7.992369351
7.960383528
7.894899444
7.907422271
7.899578676
7.943451248
7.942141313
7.925235646
7.957530218
7.9375352
7.978164562
8.052987845
8.041542037
8.025140625
8.134149698
8.264569112
8.317225471
8.357935486
8.497440956
8.516066112
8.670538153
8.769848088
8.96698693
9.180861651
9.436079824
9.762357599
10.14088272
10.58849346
11.09853682
11.57334284
7.813908619
7.887872587
7.879162874
7.849602497
7.807446278
7.831582964
7.844527285
7.829573187
7.831837922
7.877640904
7.906618512
7.896381795
7.987774933
8.03636167
8.05067898
8.14923905
8.197657955
8.257306954
8.303523655
8.424245952
8.493488876
8.606989521
8.695567056
8.85700172
9.061348325
9.315685595
9.612714662
10.03392503
10.38374455
10.8254414
7.800014821
7.784184686
7.800329441
7.825262826
7.858330017
7.795472372
7.841120891
7.827287597
7.865476261
7.932449463
7.908944791
7.959589716
7.951261236
8.015946734
8.066327057
8.094697746
8.1040508
8.133480276
8.125119843
8.23809405
8.274379929
8.397961208
8.572152103
8.703924642
8.878045132
9.111830101
9.317298844
9.555276889
9.922872312
10.31383297
7.781599484
7.776592523
7.776622611
7.809976795
7.789414729
7.872774393
7.914544027
7.92363525
7.899039844
7.905414316
7.929371599
7.963102057
7.947078224
7.972759882
7.903606765
7.933779653
7.956509727
7.941706317
8.012087085
8.061904155
8.076734969
8.158029795
8.214511899
8.326986901
8.476641211
8.669332402
8.912505078
9.188101975
9.339523627
9.668750888
7.842934952
7.805186385
7.822640866
7.820343734
7.828449586
7.884981209
7.857906716
7.908880337
7.943238453
7.915547509
7.905611446
7.906896574
7.904148471
7.841388326
7.832226552
7.839307799
7.814151889
7.883241682
7.900607803
7.983141547
8.071302819
8.178503408
8.292009478
8.399246575
8.413151724
8.488979427
8.609534438
8.81232355
9.147252252
9.371259579
7.883757202
7.934333976
7.972959479
7.912189037
7.876055405
7.835210419
7.802267138
7.778614239
7.735372111
7.748846557
7.736789285
7.735059978
7.767228338
7.822055745
7.874350461
7.922479005
7.980677864
8.02347648
8.12518548
8.117630921
8.209649115
8.196140904
8.143826048
8.219962392
8.314784865
8.38880298
8.499534478
8.622143168
8.732739363
8.965418971
7.891579042
7.877639917
7.886113676
7.904468369
7.8906731
7.902381712
7.891637223
7.884080781
7.830396447
7.834885588
7.811197461
7.857082423
7.873473541
7.908533422
7.927682587
7.928284949
7.959536006
7.982661246
7.938909557
7.9448246
7.978976664
8.001865956
8.090937722
8.144117922
8.296038119
8.332823216
8.474986059
8.563436415
8.669645253
8.807844355
7.803243151
7.750885828
7.753437211
7.769272918
7.785913395
7.786519645
7.777456789
7.854521633
7.874130511
7.847303074
7.896506017
7.905147947
7.902995751
7.869972878
7.862823667
7.858818998
7.81318006
7.853202556
7.853350796
7.905098038
7.939824716
8.013750593
8.025080844
8.083816644
8.082097107
8.128306065
8.209077572
8.298125535
8.456147706
8.524330629
7.843161312
7.790010497
7.828318528
7.79817903
7.823400086
7.808303203
7.834269994
7.795827843
7.851640085
7.799016908
7.842412786
7.784928138
7.770481867
7.817399423
7.833512948
7.880850046
7.961590387
7.902277891
7.966725878
7.976155448
7.959941423
7.936353246
7.904239844
8.00194879
8.092187697
8.192711611
8.150581735
8.217111418
8.316924175
8.395721878
7.852742282
7.884254696
7.838391326
7.852240771
7.816481294
7.855089818
7.88871249
7.926153636
7.923347521
7.936952867
7.933177217
7.924469037
7.969363174
7.937371234
7.943572657
7.977342756
7.970724853
7.937059658
7.9453072
7.934610405
7.956472117
8.071286055
8.122889482
8.110359695
8.049595335
8.121619537
8.224521388
8.337355445
8.382219283
8.473360287
7.900050577
7.915956388
7.928047341
7.938009302
7.941376755
7.924898031
7.881393651
7.844171108
7.85785015
7.872206347
7.832131233
7.899601246
7.883231404
7.899483114
7.905902796
7.897241803
7.903669277
7.90949991
7.909526994
7.95633469
7.947208997
7.902808554
7.914352315
7.94194628
8.007316096
8.071303263
8.053813019
8.090837585
8.082767867
8.186439778
7.878286802
7.845969241
7.865754691
7.885379149
7.896603242
7.883807878
7.904174555
7.886071134
7.911179842
7.929157944
7.918905744
7.952639284
7.961664979
7.997302324
7.93938626
7.951884996
7.920183243
7.949443502
7.953793982
7.951007673
7.92500642
7.89103706
7.944433496
7.943607019
7.967853588
7.929809178
8.025779916
8.027389408
8.130331933
8.168303482
7.672055295
7.736420526
7.726748945
7.75772141
7.73633074
7.723907976
7.780578732
7.790451194
7.78663179
7.773548903
7.813435037
7.718086972
7.683018802
7.694421631
7.712819677
7.757711681
7.777920885
7.763652354
7.725132409
7.773942609
7.817948722
7.878194719
7.830745715
7.842833688
7.818337446
7.837051902
7.858158987
7.90535485
7.937237096
8.034478128
)
;

boundaryField
{
    flow
    {
        type            calculated;
        value           nonuniform List<scalar> 
55
(
14.68030192
15.43269659
15.66194042
15.87864986
15.96287704
15.9753313
15.55185149
15.12508957
14.29522738
13.72940026
12.82329127
12.33660179
11.57334284
10.8254414
10.31383297
9.668750888
9.371259579
8.965418971
8.807844355
8.524330629
8.395721878
8.473360287
8.186439778
8.168303482
8.034478128
7.672055295
7.736420526
7.726748945
7.75772141
7.73633074
7.723907976
7.780578732
7.790451194
7.78663179
7.773548903
7.813435037
7.718086972
7.683018802
7.694421631
7.712819677
7.757711681
7.777920885
7.763652354
7.725132409
7.773942609
7.817948722
7.878194719
7.830745715
7.842833688
7.818337446
7.837051902
7.858158987
7.90535485
7.937237096
8.034478128
)
;
    }
    obstacle
    {
        type            calculated;
        value           nonuniform List<scalar> 0();
    }
    frontAndBack
    {
        type            empty;
    }
    procBoundary3to1
    {
        type            processor;
        value           nonuniform List<scalar> 
36
(
14.21027116
15.46196713
15.35328041
15.21914731
14.95613363
14.95613363
14.11381105
14.59290991
15.02695224
15.25684437
15.51075396
15.53012699
15.53012699
11.01435528
11.46706766
11.93730716
12.46790239
12.95210742
12.95210742
8.704192506
8.823993079
9.180056495
9.398021016
9.660065048
9.953616403
9.953616403
8.048664766
8.057678953
8.065591169
8.1842038
8.170296468
8.244322592
8.364589792
8.364589792
7.909515432
7.909515432
)
;
    }
    procBoundary3to2
    {
        type            processor;
        value           nonuniform List<scalar> 
19
(
7.971877757
7.899774044
7.942956831
7.904830157
7.844863284
7.838580277
7.934944355
7.81996596
7.764257862
7.82652404
7.826112084
7.907156385
7.884077815
7.824248557
7.770177518
7.912126247
7.852376237
7.862470126
7.743187752
)
;
    }
}


// ************************************************************************* //
