/*--------------------------------*- C++ -*----------------------------------*\
| =========                 |                                                 |
| \\      /  F ield         | OpenFOAM: The Open Source CFD Toolbox           |
|  \\    /   O peration     | Version:  2406                                  |
|   \\  /    A nd           | Website:  www.openfoam.com                      |
|    \\/     M anipulation  |                                                 |
\*---------------------------------------------------------------------------*/
FoamFile
{
    version     2.0;
    format      ascii;
    arch        "LSB;label=32;scalar=64";
    class       volScalarField;
    location    "0.009";
    object      linearKE;
}
// * * * * * * * * * * * * * * * * * * * * * * * * * * * * * * * * * * * * * //

dimensions      [1 -1 -2 0 0 0 0];

internalField   nonuniform List<scalar> 
654
(
13.45384186
16.00785963
9.328107732
12.36493857
16.62667292
12.13464758
16.84271791
15.53634203
8.843371006
19.32521653
11.77301256
14.55975294
9.430423946
16.48994461
11.42677184
25.41675604
16.22226385
5.000426701
11.3408495
8.537327585
8.544211018
13.31979049
18.90825234
17.87844435
10.71604092
16.32831799
13.52610956
8.178316827
16.81049139
17.01021827
22.22988749
21.46526808
15.93027417
10.6289428
11.85859886
8.806062555
10.09253773
3.585161788
14.53474915
6.228287769
9.179289297
9.765142823
11.96800653
15.21620322
19.97857451
14.95161759
11.95607809
10.29260647
14.73741012
14.02109895
13.25109688
10.15201779
13.45502058
15.05930558
19.57991203
5.782334091
11.87831109
9.966358215
8.219820915
10.40610997
10.28486169
7.058135523
10.55653447
13.97506042
7.452537051
11.49627602
9.364482279
5.45954865
7.312105694
7.662998835
8.990764531
13.93682219
14.96951494
16.82038354
16.57622378
10.49307962
14.58827178
17.7436447
10.57664305
8.332251995
14.5898181
22.3430466
11.1831982
14.69571041
5.873551257
3.435382309
8.844202337
9.66036952
8.272588757
8.229485728
11.84801632
6.276398074
6.093535133
2.646676812
5.985720139
7.268124755
7.741585359
7.380953379
8.884620777
16.64936599
11.30307222
14.64050353
9.590916652
9.91046476
7.203992421
10.01767119
14.26744935
11.40502528
7.802084902
7.293569747
17.2185065
21.65379803
12.09259777
21.17641147
6.191567921
8.549764012
8.689381658
7.188011481
4.851877045
7.822819291
11.73644249
7.864813198
10.22248495
2.219761069
5.918899594
7.852612477
3.936389689
6.87173958
10.95705564
7.765545773
8.10587529
6.876994517
9.928531985
10.0472211
9.426035015
18.96206618
14.09076594
9.270282345
6.408864926
8.002317757
16.6458542
15.49257607
11.20806343
11.31901327
6.227060703
16.59162257
4.804212236
5.116615356
10.85532751
8.860202009
11.97290114
6.866252084
5.642581297
7.463056182
13.80732769
7.697118412
8.582455438
9.183595491
9.704078883
6.563507808
6.151574526
9.455004396
13.85339852
8.121300955
7.117026913
10.56976333
6.709812673
10.47181597
12.71362683
18.58039626
17.29558165
13.93912534
10.55253282
17.30559962
12.14280806
12.6803023
2.602989488
11.75832085
8.489066524
6.349854388
10.73059608
7.589494027
7.975952617
11.75595407
9.284319018
7.558058954
3.591889213
11.00217789
11.29412963
15.30114803
10.65095907
10.82243159
8.714595607
9.32074315
9.774673037
7.055242034
6.998394228
12.78436721
9.523833003
21.22019425
9.871024035
12.42627023
11.27146934
7.761637121
11.61063299
5.367566907
7.532271295
9.905602199
2.852327068
8.075192608
7.84976458
9.963677576
3.229593695
12.47678452
6.019044901
8.083486092
8.303758482
5.726135341
19.88362108
15.58768148
8.645998302
4.940256979
11.78833218
11.19069096
10.49105106
9.863542536
4.753932712
7.330519874
14.26945181
9.928137328
11.75105117
12.17541448
9.155652036
13.11853053
7.457514138
6.383238318
3.708965263
9.218387174
8.215942838
6.642168369
6.871654137
8.380882004
11.87449481
10.50748617
8.976794262
13.34690093
8.370072811
6.552109108
5.566493706
9.12446131
12.92313569
7.709194829
3.877067675
13.62086932
2.815261294
4.229758259
11.57497587
12.70853275
6.559686799
11.86794827
8.733472015
4.147723519
14.34125174
13.85789546
5.533618402
5.812737502
10.70614531
10.46530379
11.81634989
4.464986352
6.430022044
8.241786531
5.909663631
9.619029182
11.29570475
9.926306028
10.22589977
8.45491785
4.010483397
4.940616076
6.752455418
6.536213826
12.7822597
15.1612162
11.3891341
11.44373224
10.51076287
8.244806735
8.79168089
5.670817652
10.50147144
13.89595926
11.35386675
11.21597786
7.587433964
7.367492479
5.131773916
7.680564546
12.45754529
7.897070137
7.208612818
5.803512882
4.579839853
5.531545856
8.777958574
2.888308654
9.5961093
9.274272847
5.395676501
3.848158192
10.36767219
6.652690724
2.378863988
14.74802616
4.216304372
9.58700921
9.246242219
3.395619145
3.84485994
5.705134446
8.721530791
13.03023044
14.61280539
15.52219037
4.995485077
9.291944501
4.96333288
6.508903121
6.054149429
3.747053467
6.209982365
3.302639212
12.29147889
2.970718224
4.61404669
8.012818793
11.57448921
1.955707354
9.222834891
9.621576497
6.872225835
4.205705863
2.303798091
10.60763689
7.960758851
6.079630928
9.616198171
11.26791617
11.98099711
4.913448192
10.10022446
6.68070031
8.372554071
10.41713521
2.542681151
9.580373358
7.412546539
8.540440169
11.10710862
10.12204601
8.260260617
10.76617147
8.403974229
11.40747664
10.71729105
6.938955543
6.332252164
8.331369624
5.296001457
4.545632259
8.377709664
6.493133819
10.47712088
13.45965255
5.400694649
11.8119933
9.78133792
12.36942604
7.938401386
12.80915465
6.758650502
5.437438548
4.547550816
11.01932847
5.180396223
9.171946863
14.60528431
9.338709631
7.01020678
7.120174667
3.231987617
13.02166131
11.3553016
5.63240932
6.498792495
4.792094916
9.274095554
10.47886914
11.88811925
13.05378512
5.884269338
7.694387888
11.2939588
4.615656723
12.01269171
6.96772174
8.029725952
6.44806227
9.576320572
2.849897928
10.06937589
8.057772332
8.678997412
4.210600911
5.710141974
9.577945782
6.604354095
8.176538321
5.355751798
6.008015265
7.605191418
6.096634618
7.04834402
9.517946868
9.111533069
6.562030306
9.495584431
5.00057237
6.429322343
8.819100138
8.470639143
2.341371639
11.25879941
4.798595464
7.60412106
3.229184014
7.814586441
6.711395549
6.269969369
10.23647304
11.13975947
9.53695816
8.154269639
15.78116665
19.67441094
5.912773342
11.73256497
11.73926812
8.341463262
6.124981554
9.215429699
7.324333293
6.298432022
7.549911411
8.011385874
7.659252145
10.37460138
10.11624226
2.701860401
7.642933292
4.360493907
4.251773913
7.832984195
7.106964168
6.571141965
8.089299301
12.29135894
3.913927621
11.9138037
8.869523622
4.782839912
11.34133798
6.347740703
14.68431849
6.45758564
11.57091578
7.9864616
7.19318551
5.21241754
5.37032491
7.052997784
9.148593136
9.740282548
7.078078576
7.07085086
5.407825915
2.363902584
4.400634401
9.840326939
8.767039456
3.882014081
9.503639483
12.99924289
9.689250687
9.269959008
12.36514618
8.221593387
9.528910094
11.85409307
8.512402449
9.669395601
4.762400188
4.365020041
10.82403965
6.825753192
10.75082911
5.15476155
8.421076353
9.58843626
8.875725058
5.71360791
6.733686804
7.136952523
5.675251263
8.650752881
6.741566234
10.42004572
16.14852876
8.668254644
8.121518366
6.518563665
9.395428086
9.992458933
14.62644611
8.872365658
7.620807511
5.090149362
7.976753076
2.758410751
7.939884619
14.03082598
7.129211502
11.51871061
13.84012411
10.50580262
8.973756796
9.13404198
5.448797268
5.059250791
11.34545606
6.737591986
10.73111712
7.615788899
13.14018966
3.980805332
14.92025562
7.462625067
9.815608797
6.961473815
8.177177822
7.648161514
3.563990618
7.879089271
5.744257738
8.213257593
9.017717048
4.962254304
8.454700381
6.932595505
8.259530722
9.592240298
7.559682687
4.869629107
4.825645951
9.882809632
6.911291551
3.675784157
7.384371046
3.13031423
6.63019466
6.907806734
7.118052351
12.11504904
11.85357084
16.10760911
7.760711663
11.29244118
4.377216675
6.784802266
3.671986594
7.203412964
4.12149312
7.384238063
8.308552244
4.995560252
17.13681822
12.03474816
4.479760408
2.776081388
9.00165271
5.793151137
7.053138246
7.185267812
10.88081669
10.41040494
8.000877511
5.840036725
8.90238557
8.208228744
7.206728932
10.36294744
11.08935734
3.400789417
2.350975028
12.04195453
8.513926038
3.746718478
12.91774185
3.424189054
13.86319345
6.998632174
9.723988149
10.74939677
4.249098486
7.387419195
8.828278378
14.1917641
6.363030784
11.46294751
3.212178318
12.499553
12.40554053
6.279609034
11.09391808
5.392572916
6.335278836
4.8870488
7.92186384
10.75065407
7.0918451
8.382545098
7.78600395
6.760079556
6.649843836
9.316754948
2.237031685
9.084892893
3.824032597
5.633489519
13.09629823
4.796310546
11.17135727
6.492867308
7.601204027
11.10083407
6.372852831
11.26463387
6.302430109
15.41464468
2.23344227
7.075338587
5.438306572
6.279753885
12.10429603
)
;

boundaryField
{
    flow
    {
        type            zeroGradient;
    }
    obstacle
    {
        type            calculated;
        value           nonuniform List<scalar> 0();
    }
    frontAndBack
    {
        type            empty;
    }
    procBoundary3to1
    {
        type            processor;
        value           nonuniform List<scalar> 
36
(
10.30638341
19.62725472
14.9190997
18.26443742
12.45392341
12.45392341
25.45596098
16.66103906
19.29077104
13.95391338
15.59474824
14.86345932
14.86345932
11.00857427
9.283699801
10.55760286
8.942704898
17.96966814
17.96966814
9.841656598
2.871037455
8.603015311
10.92388312
12.01705087
6.11767346
6.11767346
13.46687667
11.11577394
4.100490522
9.354979837
2.969740796
6.819373073
8.917019622
8.917019622
9.801751234
9.801751234
)
;
    }
    procBoundary3to2
    {
        type            processor;
        value           nonuniform List<scalar> 
19
(
8.191485896
5.776069243
7.579398226
8.698365314
8.339239084
5.132847516
5.078150479
6.671988296
12.02062253
6.349200049
10.35687002
6.599073161
3.578371185
10.80191968
6.243615686
6.720880037
9.874921931
7.320380745
5.924726483
)
;
    }
}


// ************************************************************************* //
