/*--------------------------------*- C++ -*----------------------------------*\
| =========                 |                                                 |
| \\      /  F ield         | OpenFOAM: The Open Source CFD Toolbox           |
|  \\    /   O peration     | Version:  2406                                  |
|   \\  /    A nd           | Website:  www.openfoam.com                      |
|    \\/     M anipulation  |                                                 |
\*---------------------------------------------------------------------------*/
FoamFile
{
    version     2.0;
    format      ascii;
    arch        "LSB;label=32;scalar=64";
    class       volVectorField;
    location    "0.009";
    object      momentumMean;
}
// * * * * * * * * * * * * * * * * * * * * * * * * * * * * * * * * * * * * * //

dimensions      [1 -2 -1 0 0 0 0];

internalField   nonuniform List<vector> 
654
(
(0.01515758431 0.004806660883 -8.963985971e-06)
(0.01573170915 0.005090459513 -1.690481499e-05)
(0.01588845979 0.005192649599 6.612660316e-06)
(0.01581326053 0.005138894107 -1.023414513e-05)
(0.01580894504 0.005077502884 -4.844204122e-06)
(0.01582789169 0.005050615513 -2.078838481e-06)
(0.01352655317 0.00358979431 7.300642733e-06)
(0.01398968235 0.003843921939 -1.488232798e-06)
(0.01450178845 0.004218295716 -2.725231334e-05)
(0.01489314311 0.004443779269 -6.387731389e-05)
(0.0152975297 0.004745866622 -5.46021817e-06)
(0.01560511813 0.004950582029 -5.640510167e-05)
(0.01572870829 0.004957883043 -3.535597919e-05)
(0.01583141219 0.005071590478 -3.59336541e-05)
(0.01605499382 0.005194082365 -2.908758591e-05)
(0.01604202791 0.005148851798 -9.33195473e-07)
(0.01596090511 0.005071167886 2.107482353e-05)
(0.0105996242 0.001626479709 2.812802467e-06)
(0.01107678176 0.001888673974 -1.744252852e-05)
(0.01142697683 0.002154395681 4.976597024e-06)
(0.0118724343 0.002446942291 -3.307482623e-05)
(0.01233858306 0.002739813414 -3.026733169e-05)
(0.01291074196 0.003137442238 -3.600639004e-05)
(0.01338890474 0.003422873078 -2.493950565e-05)
(0.01380239765 0.003703801588 -5.410941996e-05)
(0.01434815227 0.004067399826 -5.967366051e-05)
(0.01479594919 0.004332001934 -3.041482171e-05)
(0.01522016752 0.004639122757 -4.297094462e-06)
(0.01556277634 0.004883742195 -2.896414329e-05)
(0.01572123557 0.004938134501 -1.468726737e-05)
(0.01586374195 0.004986455363 -1.21900616e-06)
(0.01605438423 0.005114287596 -4.431041631e-05)
(0.01606707462 0.005076169353 -2.625408672e-05)
(0.008892385949 0.0004371221112 5.649845087e-06)
(0.009023334215 0.0005148989039 1.006613786e-06)
(0.009091297328 0.0006282203578 6.760151534e-06)
(0.009297614677 0.0007539125394 2.911628434e-05)
(0.009531658621 0.0009023711966 3.153442029e-05)
(0.009790664057 0.001061614982 -1.02753272e-05)
(0.01001632508 0.001222775136 -5.717276775e-06)
(0.01036210158 0.001462646783 -2.149605667e-05)
(0.01083545059 0.001714180446 -2.970791631e-05)
(0.01123236779 0.002008895248 -2.842230058e-05)
(0.01170442428 0.002288135612 -3.844149689e-05)
(0.01212265117 0.002580307738 -3.558612425e-06)
(0.01263248141 0.002951831301 -2.35741955e-05)
(0.01312589552 0.003254874401 1.12118159e-05)
(0.01360100824 0.003538529572 -8.605000199e-06)
(0.01410338669 0.003871982336 -3.810000243e-05)
(0.01460655668 0.004204015576 -4.457644609e-05)
(0.01505861585 0.004530758727 -4.70592994e-05)
(0.01549771414 0.00473897883 6.092505113e-08)
(0.01575949769 0.004897185558 2.260210523e-05)
(0.01586248889 0.004983934811 8.544983441e-06)
(0.01610643638 0.005034030479 -4.161876901e-06)
(0.008405635324 7.453692814e-05 1.153560466e-05)
(0.008410911591 9.504496797e-05 1.168381405e-05)
(0.008416343082 0.0001223531305 1.667897144e-05)
(0.008476768139 0.0001475273943 1.031665991e-05)
(0.008594522413 0.0001916093038 7.383808734e-07)
(0.008648486339 0.000232046786 5.763003446e-06)
(0.008714816275 0.0002825594434 1.073614865e-05)
(0.008753359735 0.0003282300401 1.311189029e-05)
(0.008905821695 0.0003981583705 -6.171077146e-06)
(0.009051894628 0.0004885077749 -1.782859316e-05)
(0.009184312432 0.0005760276783 -2.89521167e-05)
(0.009339667293 0.0006969257157 -1.785382093e-05)
(0.009550523448 0.0008192743751 -1.861929634e-06)
(0.009826630897 0.0009928997162 -7.771783071e-06)
(0.01003212849 0.001172781559 -7.936036375e-06)
(0.0102835382 0.001352854543 -1.211574827e-05)
(0.01067251295 0.0015665501 -7.132907068e-06)
(0.01105502899 0.001851554416 -7.562308579e-06)
(0.01149504466 0.002121294596 5.916842422e-06)
(0.01199154828 0.002448259611 1.275496933e-05)
(0.01254811206 0.00279879486 -2.753242528e-05)
(0.01303048464 0.003115516044 9.617666193e-06)
(0.01353033997 0.003426578691 8.197477907e-07)
(0.01405375907 0.003760002353 -1.898846267e-05)
(0.01457527806 0.004067494701 -1.586061118e-05)
(0.01507395517 0.004381493125 -2.676868401e-06)
(0.01541431342 0.004602866008 -3.297526041e-05)
(0.0158299473 0.004773232352 2.208993648e-05)
(0.01607222028 0.00497556105 2.159647898e-05)
(0.008448528001 5.671084798e-05 -3.760536613e-06)
(0.008466085268 7.771792367e-05 -2.617588163e-06)
(0.0084963767 9.044991935e-05 1.182878766e-05)
(0.00855685049 8.870375419e-05 6.401711972e-06)
(0.008554663331 0.0001015269959 1.112467851e-05)
(0.008534811962 0.0001334536088 1.420237926e-05)
(0.008580775103 0.00018704121 1.236018322e-05)
(0.008662221196 0.0002316117123 -6.948234353e-08)
(0.008724343976 0.0002585258459 -1.132052684e-05)
(0.008768194435 0.0003003319501 -7.749085437e-07)
(0.008820179319 0.0003527933027 2.570437351e-06)
(0.008972768085 0.0004403101846 8.295389493e-06)
(0.009091786906 0.000521438995 7.747563854e-06)
(0.009281436201 0.0006331077009 1.949024763e-05)
(0.009420609693 0.0007479466974 3.087123133e-05)
(0.009710304074 0.0009001191047 2.374556035e-05)
(0.00992412863 0.001078646941 3.818338588e-06)
(0.01019559093 0.001274108522 -7.108874742e-06)
(0.01052249001 0.001466153338 -1.696145362e-05)
(0.0108601961 0.001708594616 -2.051977796e-05)
(0.01133545732 0.00198497386 -2.206277994e-05)
(0.01175697618 0.002286755026 -2.465586631e-05)
(0.0122757247 0.002624810046 -1.694560559e-05)
(0.01273865248 0.002922821989 3.10522696e-05)
(0.01330731336 0.003258181185 1.107714589e-05)
(0.01390537264 0.003631782642 -1.388234804e-05)
(0.01431460371 0.003906508809 -5.732163922e-06)
(0.01486871636 0.004231398008 -2.315809159e-05)
(0.01521218611 0.004470909244 -3.290241998e-05)
(0.01558614388 0.004678178237 -2.472071665e-05)
(0.008375387004 4.662557834e-05 9.704496627e-06)
(0.008364188217 3.761613678e-05 5.900575936e-06)
(0.00838782797 6.176126027e-05 7.745409884e-06)
(0.008418186852 7.18327515e-05 6.021318159e-06)
(0.008441649405 8.959865387e-05 -5.106136675e-06)
(0.008476730361 0.0001074247025 3.631032443e-06)
(0.008533976448 0.0001201136432 7.508273812e-06)
(0.008584486917 0.0001439500914 4.900388956e-06)
(0.008641613531 0.0001891300383 1.054539859e-05)
(0.008736039248 0.0002384047144 -2.1281796e-06)
(0.008810748832 0.0002892624732 -1.272772217e-05)
(0.008837603701 0.0003288643822 -2.123526961e-05)
(0.008950189055 0.0004025903249 -2.196919946e-05)
(0.009080746195 0.0004926900058 -2.896885487e-05)
(0.009215878724 0.0006048221776 -2.655597503e-05)
(0.009319544881 0.0006991515802 -2.373009929e-05)
(0.009467212086 0.0008377608332 1.16422087e-05)
(0.009652692819 0.0009900689666 6.176860704e-06)
(0.00997685345 0.001159753592 1.740436308e-05)
(0.01024285729 0.001343737373 5.076380216e-06)
(0.01054114348 0.001538759017 1.279384563e-05)
(0.01100549745 0.001861097526 5.119094818e-06)
(0.0115255911 0.002144069909 -2.894334903e-05)
(0.01205621309 0.002433174633 -2.347424721e-05)
(0.01259523665 0.002761153387 -4.037446667e-06)
(0.01304206061 0.003074651467 1.00868788e-05)
(0.01366790998 0.003446833563 3.788168427e-06)
(0.01426059143 0.003788195322 -4.966307931e-06)
(0.0148232144 0.004113628094 -5.515372947e-05)
(0.01521157805 0.004361522569 -5.393594691e-05)
(0.008412450503 4.098578624e-05 6.278050062e-06)
(0.008455395626 4.214212121e-05 7.028117779e-06)
(0.008447129093 3.855177187e-05 -5.167071451e-08)
(0.00845676114 5.371936854e-05 -8.966027102e-06)
(0.00849541146 6.530583277e-05 -8.474410748e-06)
(0.008469571696 8.275504362e-05 -1.854802654e-05)
(0.008446885464 0.000104003824 -1.294555571e-05)
(0.008463709806 0.0001214178367 -1.178236937e-05)
(0.008492215371 0.0001452655921 -8.972084295e-06)
(0.008503329244 0.0001661760627 8.644587849e-07)
(0.008500301067 0.000186748157 -4.053668535e-06)
(0.008639755942 0.0002408911975 -9.582895863e-06)
(0.008717559336 0.0002906409642 6.367582761e-06)
(0.008772170404 0.0003662010835 -1.119817753e-07)
(0.008909652716 0.0004584650794 -3.801720041e-06)
(0.009103819814 0.0005565237457 -4.23251097e-06)
(0.009288026633 0.0006583517464 -7.785006965e-06)
(0.00952731562 0.0007937616206 -1.057502233e-05)
(0.009627579923 0.0009266755496 -2.046230067e-05)
(0.009860133403 0.001088933982 -1.567068048e-05)
(0.01021226289 0.001274805361 -1.922005301e-05)
(0.01048950351 0.001475142806 -2.499450373e-05)
(0.01082299338 0.001663424146 -8.544559451e-06)
(0.01128997157 0.001976161527 -2.962317899e-05)
(0.01175162273 0.002287268939 -1.782355713e-05)
(0.01224280971 0.00258081214 -2.407500374e-05)
(0.01278318605 0.002939606028 -3.52812204e-05)
(0.01329762002 0.003278163545 -4.390680436e-06)
(0.01381371365 0.003628777861 1.090458387e-05)
(0.01436980888 0.003896332834 -1.959032562e-05)
(0.008407472332 2.015652626e-05 1.394781986e-06)
(0.008390509243 2.77157651e-05 5.722875669e-07)
(0.008417844803 3.859342585e-05 -5.64350405e-06)
(0.008434170441 4.608382293e-05 -8.320851556e-06)
(0.008404372719 6.805941547e-05 5.470133474e-07)
(0.008403333159 7.874553029e-05 -3.670454431e-06)
(0.008436454598 8.592071778e-05 -2.131801413e-05)
(0.008466193834 9.031873559e-05 -1.631293159e-05)
(0.008481383704 0.0001083005202 -1.398910083e-05)
(0.008517617559 0.0001280533435 -9.704079487e-06)
(0.008524683104 0.0001741112167 -2.156749205e-06)
(0.008620103974 0.0002078975957 -1.089219467e-05)
(0.008661236221 0.0002502416145 -6.665814472e-06)
(0.008694641108 0.0002775945499 2.573968989e-06)
(0.008765476756 0.0003285241141 9.942877226e-07)
(0.008879441564 0.0003960191458 -1.98333388e-05)
(0.00894201704 0.0004888712577 -2.706254196e-05)
(0.009100160458 0.0006187540106 -2.959014956e-05)
(0.009333243634 0.0007265391373 -2.835673187e-05)
(0.009583847702 0.0008620053522 -3.176931996e-05)
(0.009824715052 0.000993467503 -2.74511799e-05)
(0.01013151404 0.00118210317 -1.560721142e-05)
(0.01041781131 0.001391478874 -1.814345372e-05)
(0.01072068353 0.001594213415 -1.325077999e-05)
(0.01111486833 0.001852768211 -1.502475391e-05)
(0.01162979692 0.002199759463 -3.319864825e-05)
(0.01209724403 0.002464660175 -1.712615588e-05)
(0.01260483491 0.002773130963 -1.409757379e-05)
(0.01319859379 0.003101148278 -1.367894166e-06)
(0.01380628527 0.003480929872 -1.24128587e-06)
(0.008313446433 -3.178230404e-06 -2.825712331e-06)
(0.008316989911 4.922265362e-06 -3.099838752e-06)
(0.008305980787 2.621387752e-05 4.080260587e-06)
(0.008293115642 3.82491679e-05 2.050305712e-06)
(0.008359638668 4.569825786e-05 6.398990422e-06)
(0.008392623886 5.425368156e-05 1.059992417e-05)
(0.008457206794 5.934940242e-05 2.002567086e-05)
(0.008477499465 8.475043096e-05 1.067757024e-05)
(0.008494796508 0.0001007502753 1.006722811e-05)
(0.008462185331 0.0001070765605 8.963971419e-06)
(0.008554824322 0.0001311453745 4.099795344e-06)
(0.008516029861 0.000157445779 8.854797178e-06)
(0.008521132791 0.0001757112065 -5.115305234e-06)
(0.008607161006 0.0002278727666 -1.603513201e-05)
(0.008678852039 0.0002755708601 -2.099107463e-05)
(0.008736756969 0.0003153280826 -1.850236991e-05)
(0.008855578288 0.0003789545029 -1.025805004e-05)
(0.009068285382 0.0004475437609 3.911801864e-06)
(0.009247316117 0.0005501911165 6.411880054e-06)
(0.009324422438 0.0006656566142 -1.573025082e-05)
(0.009507428423 0.0007995614536 -4.494512802e-06)
(0.009738034098 0.0009215023927 -1.350677811e-05)
(0.0101153775 0.001134619716 -4.156595754e-06)
(0.01038948127 0.001287106036 7.65099533e-07)
(0.01075383692 0.001523005316 -6.32247792e-06)
(0.01117405137 0.001752399465 -8.415735324e-06)
(0.01159039856 0.002045777188 -5.006624931e-06)
(0.01206219958 0.002379199388 3.383428161e-06)
(0.01252276687 0.002720250573 1.203916937e-05)
(0.01295503788 0.003000605159 2.330856178e-05)
(0.008292071216 1.049359901e-05 9.821437462e-06)
(0.008289700992 1.346022315e-05 2.809799531e-07)
(0.008358422858 1.190748375e-05 -5.912471479e-06)
(0.008359636901 7.20534426e-06 -2.246846891e-06)
(0.008369377645 1.510953654e-05 -7.45854026e-06)
(0.008371258464 2.455743824e-05 -4.651643961e-06)
(0.008351047637 3.99709407e-05 1.365746953e-06)
(0.008350845867 5.629064046e-05 7.49270263e-06)
(0.008401359398 7.673536033e-05 -3.22838752e-06)
(0.008444787689 8.562370331e-05 -7.493055245e-06)
(0.008465129248 0.0001052956638 -9.236354566e-06)
(0.008473374647 0.0001348040491 -5.573821428e-06)
(0.00851952674 0.0001721060165 1.308155741e-05)
(0.008600811344 0.0001864947392 7.394838954e-06)
(0.008579072024 0.0002074903555 5.234074313e-07)
(0.008607053009 0.0002330932372 -4.688503061e-07)
(0.00863586522 0.0002716818851 8.872515029e-06)
(0.008747393743 0.0003405479866 -7.546220428e-06)
(0.008861826652 0.0004048653684 -1.062351887e-06)
(0.009050196604 0.0004942634783 4.101204874e-06)
(0.009253969175 0.0005744292997 -1.231240265e-05)
(0.009514857989 0.0007132311618 -1.641499292e-05)
(0.009685829867 0.0008386733675 -1.074295365e-05)
(0.01002619259 0.001017497019 -2.125555124e-05)
(0.01031336153 0.001194388324 -2.749347392e-05)
(0.0106071627 0.00144628483 -1.306987173e-05)
(0.01100742025 0.001707569811 -8.807507224e-06)
(0.01138958565 0.00196153774 1.000338813e-05)
(0.01191658157 0.002250997552 -1.419994279e-05)
(0.01252353054 0.002560140589 -2.962030744e-05)
(0.008481022824 2.485990028e-05 -2.021302247e-05)
(0.008443866769 2.175557689e-05 -1.301365073e-05)
(0.008372657161 1.838088758e-05 -7.608713286e-06)
(0.008378104639 1.36938453e-05 -1.237171783e-06)
(0.008371020796 2.04581099e-05 -3.273073971e-06)
(0.00840943449 3.833493745e-05 -3.070995721e-07)
(0.008406346163 4.176366236e-05 -2.864563534e-06)
(0.008394539901 4.497995659e-05 -3.036189778e-06)
(0.008423815448 5.604349542e-05 -7.857590151e-06)
(0.008392573176 7.418769977e-05 4.573498522e-06)
(0.00843200982 8.956740223e-05 5.902140866e-06)
(0.008502001377 0.0001101612305 -7.592938585e-06)
(0.008487174569 0.0001203844239 -1.056286585e-05)
(0.008476668977 0.0001238214368 -7.250370447e-06)
(0.00858135586 0.0001626439615 -8.422610506e-06)
(0.008710176015 0.0002001199927 -5.00105578e-06)
(0.008759836875 0.0002282720814 -1.531431105e-05)
(0.00878816282 0.0002579535026 1.513636708e-05)
(0.00890725697 0.0003097906666 -8.220655568e-06)
(0.008918837131 0.0003832857728 1.183907191e-05)
(0.009078157431 0.0004531739681 1.404265207e-05)
(0.009170327695 0.0005349865056 1.193165171e-05)
(0.009327032445 0.0006660224344 1.392096205e-05)
(0.009525091177 0.0007985674377 1.323880163e-05)
(0.009762672914 0.0009426679108 7.919407789e-06)
(0.01008024701 0.001134033219 7.349124283e-06)
(0.01045454948 0.001349504589 3.484784916e-06)
(0.01085468011 0.001590974451 -9.948057372e-06)
(0.01134056013 0.00183417706 -1.641266529e-05)
(0.01178997061 0.002115589491 -2.050810627e-05)
(0.008272729655 1.471531372e-06 5.211205367e-06)
(0.008351621532 9.772825382e-06 4.35197403e-07)
(0.008345552304 2.004192482e-05 -7.525225678e-06)
(0.008323985101 2.485839761e-05 -1.890674167e-05)
(0.008288689284 2.853443448e-05 -1.098909247e-05)
(0.008310322803 1.692513096e-05 -8.106139926e-06)
(0.00831284173 2.3097414e-05 -2.716410639e-06)
(0.008290403778 3.487190775e-05 -1.224925626e-05)
(0.00828952003 5.539628593e-05 -4.177028658e-06)
(0.008337772061 6.139552403e-05 -1.21108269e-06)
(0.008366179402 6.084941046e-05 -2.014889448e-06)
(0.008346522695 5.445966125e-05 5.946107019e-06)
(0.008443138355 7.305214843e-05 1.402574799e-08)
(0.008492560713 9.938130611e-05 2.149447322e-05)
(0.008502631686 0.0001351207058 2.501112545e-05)
(0.008591363023 0.0001478035151 1.849860712e-05)
(0.008650082774 0.0001607543142 1.51462324e-05)
(0.008707177341 0.0001840808788 9.293112412e-07)
(0.008751673912 0.0002487971953 -8.175563918e-06)
(0.008865096573 0.0003017224784 -2.928799698e-06)
(0.00891989999 0.0003727813672 -5.564665597e-06)
(0.009017608235 0.0004309211859 -1.622691943e-06)
(0.009098641444 0.0005206787543 -2.258405302e-06)
(0.009244256587 0.0006385027691 -2.821044126e-06)
(0.009430506552 0.0007373185308 6.965762497e-06)
(0.00966845055 0.0008664231602 3.564082995e-06)
(0.009943036543 0.001036383864 1.774210706e-07)
(0.01034252471 0.001247894322 -2.583177277e-05)
(0.01066762838 0.001468848845 -8.208671223e-06)
(0.01108574393 0.001742890168 1.615053457e-06)
(0.008284181061 -4.716465228e-06 -1.65459269e-05)
(0.008269664455 3.424381476e-06 -1.647417856e-05)
(0.008280637517 9.100375927e-06 -1.49216482e-05)
(0.008298168643 1.576499609e-05 -1.089030422e-05)
(0.008323092828 2.67556501e-05 -8.261522544e-06)
(0.008263194097 2.880604331e-05 -8.693787689e-06)
(0.008317820533 3.106485415e-05 -9.709902616e-06)
(0.008295902539 2.537081314e-05 2.17264672e-06)
(0.008327471795 2.440649914e-05 4.780847048e-06)
(0.008396599374 3.272561466e-05 -4.876647477e-06)
(0.00836615654 4.980435219e-05 -6.633413248e-06)
(0.008420712907 5.729326476e-05 4.105439938e-06)
(0.008413050733 4.927144666e-05 1.091643751e-06)
(0.008474068603 4.403264611e-05 -1.311365397e-05)
(0.008537594327 6.097781475e-05 -1.059835811e-05)
(0.008553019958 0.00010726207 -1.778821869e-05)
(0.008568209753 0.0001386197331 -1.265116363e-05)
(0.008589488759 0.0001722059121 2.425729717e-07)
(0.008573456151 0.0001955291041 1.939308358e-06)
(0.008686004795 0.0002266350169 -6.844135986e-06)
(0.008720678418 0.0002641230955 -3.147307217e-06)
(0.008838215336 0.000346838932 -1.109877018e-05)
(0.008995997326 0.0004257070363 -2.909083342e-06)
(0.009127274844 0.0004750864007 1.512812718e-05)
(0.009292949478 0.000591148397 1.521284594e-05)
(0.009509474699 0.0006862905924 2.03572382e-05)
(0.009699185688 0.0008332145916 1.950447559e-05)
(0.009918408286 0.000993909245 2.960640806e-05)
(0.01027071809 0.001173327128 2.060550899e-05)
(0.01062011015 0.001402311397 1.783927016e-05)
(0.008258197475 4.829541936e-06 -4.051440093e-06)
(0.008236899445 -3.694954238e-06 -1.869958958e-06)
(0.008241395837 1.728926581e-06 2.67146527e-06)
(0.008273299207 7.416847334e-06 -1.078926771e-07)
(0.00825655448 3.754782416e-06 3.127986286e-06)
(0.008343958302 9.736651137e-06 5.455949842e-07)
(0.008392097759 1.067897578e-05 3.227263813e-06)
(0.008401203762 1.814004619e-05 -3.871272132e-06)
(0.008380232112 2.15744553e-05 -1.352898139e-05)
(0.008378119112 2.555683222e-05 -2.293807653e-05)
(0.008398293647 1.80593634e-05 -1.324420862e-05)
(0.00843588415 2.253146935e-05 -1.154923942e-05)
(0.008408293703 4.847090507e-05 -5.039008867e-06)
(0.008430135946 5.989396367e-05 2.66680796e-06)
(0.008359127618 7.011754827e-05 8.271788013e-06)
(0.008397222492 6.819855949e-05 2.587005728e-06)
(0.008405032235 8.588500366e-05 8.683964623e-06)
(0.00838915432 0.000121600671 -1.054316777e-05)
(0.008455664434 0.0001544887208 -2.225408867e-06)
(0.008490914977 0.000202104513 1.215763173e-05)
(0.008504209843 0.0002162431979 1.39493737e-05)
(0.008584030454 0.0002520402 1.668314487e-05)
(0.008634158908 0.0002913885766 -6.479839367e-07)
(0.008728262039 0.0003680459135 -7.206180208e-06)
(0.008891949893 0.0004073687001 -1.563946184e-05)
(0.009079155921 0.0005167122989 -1.367652523e-05)
(0.009305411481 0.0006383186473 -1.438174141e-05)
(0.009560635089 0.0007847537219 4.0438539e-08)
(0.009700284791 0.0009242294048 6.460091246e-06)
(0.0100006012 0.001129574197 8.62454406e-06)
(0.008317820422 1.770088308e-05 1.802523171e-05)
(0.008290899671 1.878304488e-05 1.862111474e-05)
(0.008302175625 5.231822476e-06 2.047152729e-05)
(0.008304531623 -3.931430257e-06 8.772759964e-06)
(0.008301481363 -3.413323158e-06 1.084354931e-06)
(0.008350301598 -1.107986702e-05 -3.582009219e-06)
(0.008320981303 -1.311089062e-05 -1.028741723e-05)
(0.008381161311 -2.368059728e-06 -8.018427315e-06)
(0.00841850555 -1.128150468e-06 -5.074214731e-06)
(0.008389839008 6.122956736e-06 -7.47273735e-06)
(0.008370882063 2.710336456e-05 -1.95021802e-05)
(0.008374525661 3.416729685e-05 -2.643963732e-05)
(0.00836926492 3.778011671e-05 -1.857440932e-05)
(0.008312600721 5.643904659e-05 -2.212256706e-05)
(0.008297853864 7.583307726e-05 -2.179236537e-05)
(0.008302403541 0.0001015118009 -1.533856106e-05)
(0.008265482586 0.0001049842377 -8.225227407e-06)
(0.008322337899 0.0001090833979 -7.366030282e-07)
(0.008348723515 0.0001086662033 -1.823616884e-09)
(0.008418187363 0.0001192384105 -9.750039844e-06)
(0.008488152793 0.0001564310194 -1.587022562e-05)
(0.008602400284 0.0001897088646 -7.820843695e-06)
(0.008714928932 0.0002354594217 9.214129684e-06)
(0.008814488209 0.0003010781488 3.118190351e-06)
(0.00883802885 0.0003429815568 6.646506089e-06)
(0.008900710423 0.000400964461 -4.759520146e-06)
(0.009024769974 0.0004727562448 -1.514442508e-06)
(0.00921740622 0.0005768975158 -1.026913914e-05)
(0.009533077298 0.0007386006339 -1.743892034e-05)
(0.009752861737 0.0008714160385 -2.002251362e-05)
(0.008355044229 1.210026952e-05 -1.004722562e-05)
(0.008415872467 4.954620391e-06 -1.6426294e-05)
(0.008457042161 6.42342893e-06 -1.859022738e-05)
(0.008390897015 7.194637645e-06 -2.365755411e-05)
(0.008355701156 8.137262924e-06 -1.657058459e-05)
(0.008310262106 1.00672403e-05 -9.042436711e-06)
(0.008269800191 1.268105201e-05 -9.168307942e-07)
(0.008248581482 -5.455524931e-06 -1.353391153e-06)
(0.008207342088 1.817417587e-06 -4.742190333e-06)
(0.008212679942 3.294298216e-06 -1.60598983e-06)
(0.008207283038 1.709491696e-05 3.860432493e-06)
(0.00819965633 3.786296453e-05 9.733897942e-07)
(0.008234669188 5.272637657e-05 -4.715324887e-06)
(0.008290166609 4.952408634e-05 -1.484866283e-05)
(0.008337645189 5.377911852e-05 -1.852197213e-05)
(0.0083844049 4.742825637e-05 -1.660980365e-05)
(0.008449054454 6.161127779e-05 -1.596100736e-05)
(0.008502449335 7.40765414e-05 -1.782614393e-05)
(0.008596244511 9.24907663e-05 -1.313673408e-05)
(0.00858826076 9.699996438e-05 -7.254163465e-06)
(0.008687875782 0.0001206172283 -4.416870228e-06)
(0.008663217382 0.0001481418256 -1.687140398e-05)
(0.008597591132 0.0001921493736 -2.505102636e-05)
(0.008661463373 0.000243749659 -2.573229488e-05)
(0.008745425699 0.0002857914283 -1.981771474e-05)
(0.00879672447 0.0003268866721 -1.435412309e-05)
(0.008899571218 0.0003882489279 -2.115471547e-05)
(0.009010375924 0.0004652174987 -1.671438658e-05)
(0.009123004383 0.0005499290985 -9.318135436e-06)
(0.009366341228 0.0006739381059 -2.444134729e-06)
(0.00837065695 -4.878343221e-06 -1.868363494e-05)
(0.008349638313 5.148947901e-06 -1.092815668e-05)
(0.008357700113 1.457443961e-05 -9.661604363e-06)
(0.008373755979 1.855215663e-05 -7.23060787e-06)
(0.008362151034 2.235467812e-05 -9.608361508e-06)
(0.008379586063 2.560540151e-05 -1.310459585e-05)
(0.008372951633 1.980332848e-05 -1.326246364e-05)
(0.008368859149 2.456302066e-05 -1.559853358e-05)
(0.008311577364 2.671215633e-05 8.329980085e-07)
(0.008315765255 1.569404545e-05 1.519313252e-05)
(0.008292979029 2.596384422e-05 1.425074011e-05)
(0.008339738933 1.458288206e-05 1.74814907e-05)
(0.008345997273 2.548431662e-05 1.766159937e-05)
(0.008382345433 2.977259036e-05 1.175800586e-05)
(0.008406521147 9.501430421e-06 1.110203585e-05)
(0.008404049965 2.226534974e-05 9.30442109e-06)
(0.008427444829 4.260563935e-05 9.444722456e-06)
(0.008450321435 5.248853948e-05 1.044577618e-06)
(0.008408127031 5.75313836e-05 -9.836116256e-06)
(0.008419289069 8.549357486e-05 -1.206746965e-05)
(0.00845044998 0.0001228231053 -2.04548627e-05)
(0.008452709368 0.000140616536 -1.737280782e-05)
(0.008550882487 0.0001549816878 -2.491602341e-05)
(0.008588122196 0.0001683195457 -2.421923178e-05)
(0.008727081723 0.0002275586044 -1.878865601e-05)
(0.008778399405 0.0002569439863 -1.600337464e-05)
(0.008911675993 0.000318609237 9.716800226e-06)
(0.008984173315 0.00037237579 1.377179583e-05)
(0.009076262824 0.0004333422525 1.293803864e-05)
(0.009190275374 0.0005535256898 1.74966248e-06)
(0.00828508003 4.24940475e-06 2.298253962e-06)
(0.008226167007 1.142593644e-05 -3.676311922e-06)
(0.00823759179 1.747203338e-05 -5.12399942e-06)
(0.00825494278 1.161721506e-05 -3.512800818e-06)
(0.008267600631 3.971948665e-07 -1.404370979e-07)
(0.008274947918 6.319956754e-06 1.488356222e-06)
(0.008260705354 2.487016751e-05 8.908437304e-07)
(0.00833773487 2.066035851e-05 1.062707791e-06)
(0.008362308732 1.745464994e-05 -1.33221214e-05)
(0.008338904316 1.8714583e-05 5.257574631e-07)
(0.008384796071 2.026759472e-05 1.766632237e-06)
(0.008393596933 1.65472497e-05 1.924062396e-06)
(0.008389048129 2.768575592e-06 8.211167534e-06)
(0.008343758999 1.495785356e-05 1.237522224e-05)
(0.008329072745 2.763594553e-05 1.522297483e-05)
(0.008327694082 3.706282202e-05 1.193006545e-05)
(0.008276114833 2.965704704e-05 -3.767045849e-06)
(0.008317985407 4.050259162e-05 6.701136224e-07)
(0.008316583008 5.816449522e-05 1.450760402e-05)
(0.00835662411 5.223799697e-05 1.645088193e-05)
(0.008390198553 5.84585375e-05 1.93477043e-05)
(0.008467390661 8.358944144e-05 3.347152156e-05)
(0.008471552422 0.0001121858753 3.650361228e-05)
(0.008532520869 0.0001453896559 2.583809246e-05)
(0.008543181508 0.0001677875333 1.968402347e-05)
(0.0085658398 0.0002155537113 2.343505254e-05)
(0.008640330297 0.0002358634883 1.621393337e-05)
(0.008734381111 0.0002872201968 1.211565981e-05)
(0.008885378477 0.0003621157089 1.008399004e-05)
(0.008944470469 0.0003961950308 1.114206555e-05)
(0.008316051814 2.984044987e-06 1.180299849e-06)
(0.008273080862 -7.934432212e-06 2.962098839e-07)
(0.008316488592 -1.282702467e-05 3.863639536e-07)
(0.008287316172 -1.150437411e-05 -3.257984278e-06)
(0.008310832567 2.203605936e-06 -8.894063217e-06)
(0.008298432666 8.641126513e-06 -5.456780061e-06)
(0.008327141921 5.903065774e-06 -4.469640125e-06)
(0.008284831537 1.856767863e-05 1.839794871e-06)
(0.008328980454 1.552763978e-05 7.577142349e-07)
(0.008285018026 1.447493689e-05 -1.097485048e-05)
(0.008323483568 1.007865017e-05 -1.465352135e-05)
(0.008259631418 7.262990061e-06 -1.316147527e-06)
(0.008253972785 2.451800773e-05 -1.527689691e-05)
(0.008313903171 2.391597156e-05 -7.71494616e-06)
(0.00832996089 2.806152291e-05 -1.959316969e-05)
(0.008370923347 2.219562715e-05 -1.744288093e-05)
(0.008443576146 2.977961197e-05 -5.448091922e-06)
(0.008394363828 3.249896004e-05 -2.095105707e-06)
(0.008448392425 4.368488393e-05 -1.187459316e-05)
(0.008459145718 4.349222997e-05 -5.863667928e-06)
(0.008438700525 6.370485596e-05 4.155897163e-06)
(0.008419691558 6.680006168e-05 2.813842285e-06)
(0.008389028062 8.586403952e-05 1.557214833e-06)
(0.008479651216 0.0001049071462 1.094974086e-06)
(0.008559211579 0.0001229605691 8.401661806e-06)
(0.008659867656 0.0001594874725 1.036182163e-05)
(0.008605682984 0.0002089520829 2.531574326e-06)
(0.008657769627 0.0002402430611 -5.420237308e-06)
(0.008755352935 0.0002815571901 4.543730334e-06)
(0.008838068916 0.0003249356206 8.023265509e-06)
(0.008335505145 1.942104273e-05 -7.027020578e-06)
(0.008366550821 1.828535272e-05 -2.574932451e-07)
(0.008311069773 6.786525197e-06 3.993337263e-06)
(0.008326794592 5.295585593e-06 1.309456e-05)
(0.008301839431 3.688373739e-06 1.535198357e-05)
(0.008335887188 -3.892387481e-08 2.19746663e-05)
(0.008378711424 -1.047227777e-05 1.627567563e-05)
(0.008418123645 -6.580645885e-06 1.063123994e-05)
(0.008414030077 1.438212382e-05 -2.431072242e-06)
(0.008428855281 1.38394031e-05 7.056295426e-06)
(0.008426345857 1.706456904e-05 4.194478119e-06)
(0.008429751882 2.512032752e-05 1.553356557e-06)
(0.00847997761 8.482581933e-06 -1.716772956e-06)
(0.008441719961 9.457492732e-06 -4.445213975e-06)
(0.008439064974 1.193725656e-05 5.149053577e-06)
(0.008470274075 1.652912325e-05 8.098918885e-06)
(0.008458026548 2.163277076e-05 1.320168996e-05)
(0.008411535566 2.595373357e-05 2.509085812e-05)
(0.00841868329 1.999730039e-05 1.838841745e-05)
(0.008413093715 6.037858444e-05 1.004343346e-05)
(0.008448322128 6.196561552e-05 5.075195737e-06)
(0.00855340948 5.52382098e-05 6.365824773e-06)
(0.008601583493 6.455631542e-05 3.372823026e-06)
(0.008588383285 8.558139274e-05 3.833056277e-06)
(0.008525869677 0.0001037243227 1.115167527e-05)
(0.008590317237 0.0001278352249 8.472969395e-06)
(0.008700883836 0.0001479502345 -6.437656714e-06)
(0.008807557926 0.0001775678057 5.326445877e-06)
(0.008861198438 0.0002164393752 3.179627266e-06)
(0.008942324101 0.0002666589667 -8.535246992e-06)
(0.008390941742 1.098391688e-05 -3.65376504e-06)
(0.008402930692 8.664838816e-06 -3.592924294e-06)
(0.008424971843 1.207816191e-05 -6.175674104e-06)
(0.008434264754 1.406320665e-05 -9.582099091e-06)
(0.008432897625 1.004556978e-05 -4.468283614e-06)
(0.008415412304 1.03779172e-05 -6.229786323e-06)
(0.008371160811 1.292088787e-05 -1.313908471e-06)
(0.008325423666 5.888405862e-06 2.461689185e-06)
(0.00834717306 -1.165576633e-05 2.820305342e-06)
(0.008351217598 -1.021689577e-05 3.314691694e-06)
(0.008307567546 -1.140530658e-05 2.492778861e-06)
(0.008366869285 2.503038524e-06 1.404377912e-05)
(0.008348673326 1.215377778e-05 1.801129396e-05)
(0.008356793423 1.823991019e-05 1.750093108e-05)
(0.00837426951 8.809447722e-06 1.997529613e-05)
(0.008374472133 1.771992494e-05 1.711299257e-05)
(0.008388786282 3.675745583e-05 4.147551277e-06)
(0.008399876338 3.097584225e-05 -3.021226555e-06)
(0.008404728738 2.55306543e-05 -1.687921986e-06)
(0.008438015466 2.326889166e-05 -1.087459486e-05)
(0.008411055103 2.947702275e-05 -2.089733858e-06)
(0.008370170975 4.646658119e-05 5.659971417e-08)
(0.008386141869 4.153029627e-05 1.742959952e-06)
(0.008406067169 4.94427295e-05 -8.401211457e-06)
(0.008471435298 5.960784345e-05 -3.644884387e-06)
(0.008544128944 8.935247112e-05 -3.152036063e-06)
(0.008523630006 0.000117243086 8.127933418e-06)
(0.008550940029 0.00014741509 -8.637694692e-06)
(0.008547510094 0.0001862145756 -9.764572639e-06)
(0.008644884108 0.0002161838444 1.868113056e-05)
(0.00835957998 -1.568205158e-06 8.718276979e-07)