/*--------------------------------*- C++ -*----------------------------------*\
| =========                 |                                                 |
| \\      /  F ield         | OpenFOAM: The Open Source CFD Toolbox           |
|  \\    /   O peration     | Version:  2406                                  |
|   \\  /    A nd           | Website:  www.openfoam.com                      |
|    \\/     M anipulation  |                                                 |
\*---------------------------------------------------------------------------*/
FoamFile
{
    version     2.0;
    format      ascii;
    arch        "LSB;label=32;scalar=64";
    class       volVectorField;
    location    "0.009";
    object      momentum;
}
// * * * * * * * * * * * * * * * * * * * * * * * * * * * * * * * * * * * * * //

dimensions      [1 -2 -1 0 0 0 0];

internalField   nonuniform List<vector> 
654
(
(0.01363921677 0.005394061753 0.0004970383498)
(0.01830961952 0.005171102407 -0.0003373638754)
(0.01013681175 0.002147858828 -0.0001967434121)
(0.01318320833 0.003649173032 0.002017542508)
(0.01745996196 0.00533000641 -0.0003586071356)
(0.01277915267 0.004526648426 -0.0005178344213)
(0.0189933675 0.003861206981 -0.00149106684)
(0.01599230979 0.002504470828 0.0004972019479)
(0.01003913942 0.0003299125509 -0.001720956563)
(0.0191203611 0.006924940708 0.0005073302136)
(0.01218512146 0.003229848557 0.0007788391279)
(0.01608396033 0.004930048928 0.001698215807)
(0.0108216013 0.00313010511 0.0001099481192)
(0.01663127066 0.004363259712 0.0007210096637)
(0.01136819012 0.004895629789 -0.0006586354819)
(0.02793452846 0.008305735582 0.0004375930579)
(0.01687642813 0.006380552179 0.002061083592)
(0.005802562263 0.001746616401 -7.396019731e-05)
(0.01217058276 0.002607483256 0.0001601544292)
(0.008922663239 0.002491958368 -3.746398771e-05)
(0.01061294809 0.0007441229129 -0.0001710010982)
(0.01353498216 0.0018155596 0.0004190766846)
(0.01851806461 0.004441872133 0.0007866736794)
(0.01786739089 0.003185160016 0.001243705455)
(0.01166424623 0.003580363708 0.0002991165557)
(0.01626629339 0.004624057239 0.0002991839003)
(0.01378036826 0.005232564261 0.0002244826186)
(0.008869496867 0.001951893203 -0.0002605852455)
(0.01587255356 0.00747479338 0.000466013362)
(0.01486068611 0.006993330782 -9.557123043e-05)
(0.02188463148 0.007262616423 -0.00204443051)
(0.02252108766 0.002761455609 -0.0006406388268)
(0.01622460431 0.004365525541 0.0005064177343)
(0.01049215054 0.001940454799 0.0003155331012)
(0.01189976408 0.0001872527798 0.000622634611)
(0.009482736628 0.001148771095 0.0008739154423)
(0.009079580296 0.002340541512 -3.761302159e-05)
(0.004318377962 0.0001404664675 6.827989103e-05)
(0.01642854107 0.0004646153441 0.0006431728091)
(0.006713866108 0.001525800689 0.0005965395326)
(0.01042482447 0.001839736033 -0.0004155945072)
(0.01083704304 0.002127771957 -0.000436900348)
(0.01364854317 0.002718136388 0.0005286672872)
(0.0151877404 0.00198336364 -0.002835471218)
(0.01886289028 0.00540147064 0.0003970883519)
(0.01609218541 0.002812580856 0.0006353300095)
(0.01143684553 0.002618804275 0.0002399771658)
(0.01024452393 0.002074228404 -0.001217110788)
(0.01508584389 0.002445762501 -0.0001590723271)
(0.01539277089 0.003626439117 0.00109906454)
(0.01263599567 0.003557081164 0.0005899156518)
(0.01175698415 0.002461217456 0.0002395170253)
(0.01294816816 0.005471740613 0.001729381295)
(0.01597816489 0.002889775477 -0.000731069473)
(0.01978215508 0.008086144142 0.0004841483161)
(0.006778605616 0.0002473227916 -0.0002801407374)
(0.01207543144 0.0002235777108 -0.000347299397)
(0.01045127124 -0.0002034900443 0.0002817925896)
(0.008991623749 0.0005698282328 -0.000414589334)
(0.01038291706 -0.0002352712333 -0.0004349630357)
(0.01035799043 -0.0007395192253 0.0001087330403)
(0.007753310357 -0.000627372461 -0.0005883953157)
(0.01054871052 0.001206480756 0.0002648844895)
(0.0145522492 0.0001223406741 0.0002539244336)
(0.007370036617 2.023453125e-05 -0.0006719440736)
(0.01260229189 0.0005064516533 -0.0006988630134)
(0.008697470079 0.001450866148 0.000232363248)
(0.005972913031 -0.0001745972375 -8.385341416e-05)
(0.008128220977 0.001531305364 0.0008807858427)
(0.007789268849 0.001115231402 0.0008310255378)
(0.008524866592 0.001326744683 -0.0003095435677)
(0.01449705115 0.002626634243 0.0002925674224)
(0.01591028663 0.001996137032 9.525697968e-05)
(0.01706703839 0.003007536992 -0.0009009092022)
(0.01778807838 0.00199912012 0.001486443224)
(0.01229841818 0.002934350382 0.0002093706808)
(0.01447522271 0.002026151614 -0.0007264499732)
(0.01598644368 0.004934245964 0.0001022688553)
(0.00979889784 0.00307305268 -0.0009121330438)
(0.009054067648 0.003534847834 -0.003151937797)
(0.01420926121 0.004632458659 0.0003576174044)
(0.02084460192 0.007763809944 -0.0005163454365)
(0.01237499499 0.00428637586 -0.000442385453)
(0.0134787225 0.003740358631 -0.0005279352538)
(0.006352582316 0.0005958278318 0.0001057942905)
(0.003616231631 -0.0003768725428 0.000344979747)
(0.009081316573 0.0004778016966 -0.000380215247)
(0.01040125427 0.0007924742219 0.0003645789511)
(0.009646568526 -0.0003722068717 0.0003022453295)
(0.008266006932 0.0001621978323 0.000383442376)
(0.01296090226 0.0003532844309 -0.0002002947767)
(0.007047560937 -0.0002318678117 0.000259517788)
(0.006794382261 0.0002928279176 -0.0005497139356)
(0.00310852158 0.001218208939 0.0001572977723)
(0.00579049293 -0.0001847908719 0.000316907082)
(0.007112355266 0.0001375921191 6.866819435e-05)
(0.008270982888 0.0007222252087 0.0001668524922)
(0.007335281559 3.96065928e-05 0.0006125640868)
(0.01053110619 0.0001347006841 -0.0009846438112)
(0.01561933036 0.002743554251 -0.0007112721096)
(0.01141877884 0.00112489409 2.103024795e-05)
(0.01490217991 0.002856411841 -0.001328811708)
(0.01043821892 0.001596559375 0.00140615326)
(0.009776028819 0.002439451311 -0.0009356315894)
(0.007402767918 0.0002868625663 0.0003318310851)
(0.0116515428 0.002940113258 -0.001257788569)
(0.01386108683 0.005005211585 0.002089718497)
(0.01134722667 0.00247945379 -0.000299770115)
(0.007409478155 0.00311552957 -0.001286250486)
(0.007771753724 0.001171964862 -0.000931199924)
(0.01623043135 0.006338924409 0.001121534706)
(0.02160808755 0.006085335147 0.0001928160049)
(0.01279266323 0.002772372671 -0.001177854033)
(0.01997572829 0.004230354582 0.0005611924645)
(0.006576399191 0.0006526862903 -0.0002296387069)
(0.009029104347 -0.000606124589 0.0004824623134)
(0.008333778121 -0.0009944462935 -0.0003768334346)
(0.008678052229 -0.0003977036943 0.0005218153662)
(0.005479295707 -0.0001085001778 4.90031384e-05)
(0.008236402743 -0.0003228401049 0.00016522435)
(0.01190280351 -0.001333810575 -8.103921456e-05)
(0.008125493575 0.0003748173663 -0.0002055143097)
(0.01096034807 0.0001477365469 4.410586237e-05)
(0.002699342674 -0.0003100148236 0.000394986596)
(0.006051786145 0.0003472406748 0.0002446816185)
(0.008545218168 0.0006751870525 -0.0004461689476)
(0.004608904588 0.0006714919507 0.0001815070043)
(0.007669648755 6.116851253e-05 0.0007014391014)
(0.01196775793 0.001295447632 0.000569682912)
(0.009129762902 -5.701950482e-05 0.0006712238331)
(0.007627983157 -0.0005009040887 -0.0005641330075)
(0.007103225417 0.001546640007 3.540953163e-05)
(0.01118344469 0.00151397748 0.001248505027)
(0.01054879185 0.001322306131 0.0002254233922)
(0.009399695023 0.0007787660733 -0.0002266753294)
(0.01714410507 0.00512385396 -0.001740942428)
(0.01387341308 0.0001951613054 -0.0004743167173)
(0.01053612933 0.0006597771633 -0.0007480073666)
(0.00746415102 0.00018852041 0.0003771442587)
(0.008746205455 0.001808741296 0.000364600558)
(0.01789292399 0.003539399387 -0.001018707018)
(0.01436404121 0.005502155056 -0.0005887305811)
(0.01090601594 0.002888288518 0.0003061035978)
(0.01202863078 0.003670978577 -0.0005943817242)
(0.007480421383 0.0007219806936 -8.549783688e-05)
(0.01601364008 0.0009134341886 0.001261736021)
(0.004935914987 0.0001968550362 -5.586723348e-05)
(0.005790406452 -0.0001467598379 -0.001149836865)
(0.01185169979 -0.0001211212591 0.00193351525)
(0.009606600387 0.000592390405 -0.0005209121356)
(0.01204293266 -0.0005766180336 0.0004245469014)
(0.007364582955 0.0001321955778 0.0009744024325)
(0.00586154496 -0.0005138071451 -0.0004811480959)
(0.008849634919 -4.793390834e-05 0.0005318937961)
(0.01394840885 0.0006603663255 0.0002645160543)
(0.008353218202 -5.877985966e-05 -0.0002812617217)
(0.009186683917 -0.0002566203137 -0.001054045191)
(0.009759389055 0.0007864903119 -0.0009168348926)
(0.01017658054 0.0006036369841 0.0001695309902)
(0.007605237988 0.0006744625304 2.506358268e-05)
(0.00659561623 0.0003865399197 -0.0001261345298)
(0.009855776162 0.001150766299 0.00138841736)
(0.01380746531 0.002149815558 0.0009241912266)
(0.008680040788 0.001127926907 8.743346819e-05)
(0.00760817836 0.001206829611 -0.0009659696211)
(0.01032781937 0.001384751705 -0.0009769824784)
(0.007478907456 0.0008844338646 7.052997062e-05)
(0.01107744981 0.001296907915 0.0004161689694)
(0.01132010704 0.004344335799 0.001297482063)
(0.01934897495 0.002946124506 -0.0005734197915)
(0.01738798216 0.005629851799 0.0008588875576)
(0.0147549382 0.003375346321 0.000557680432)
(0.01089849191 0.00210569098 -0.0009734265135)
(0.01515274254 0.0040630778 -0.001218997062)
(0.01201207573 0.0007544098534 6.99470667e-05)
(0.01316277851 -0.0001111890136 -0.0004978521766)
(0.002806602141 -0.0001762218524 -0.0001602734732)
(0.01214502593 -0.0003159604952 -0.0003952634744)
(0.008972079753 -0.000526940289 -0.0005466094579)
(0.006848219577 -0.000266562225 0.000157807947)
(0.01160320044 4.626840095e-05 0.0001205120858)
(0.007416059242 0.001285265238 0.0001228247885)
(0.008538403011 3.95426432e-05 0.001010932188)
(0.01301040285 0.0002738500595 0.0009023490248)
(0.009078655612 0.00108033347 -0.0009835618794)
(0.008202985366 8.154026946e-05 -0.0007492983853)
(0.003846255811 0.000208405502 0.000710116979)
(0.01115984402 0.0005206350406 -0.0002141701522)
(0.01221659916 0.0004901771555 0.001341884216)
(0.01512139941 4.839671195e-05 0.00121998249)
(0.0114571286 0.001063455975 8.006748725e-05)
(0.01086290138 -0.0007770057294 -3.983005161e-05)
(0.009515755834 0.000620151789 9.183522198e-08)
(0.00995988668 -8.214106891e-05 0.0007378912725)
(0.01051240925 0.001401031647 -0.0006562362447)
(0.008312072008 0.001736814094 0.0004939058158)
(0.006981316348 0.0009771834693 -9.899764517e-05)
(0.01309651187 0.002565670823 -0.00080296155)
(0.009854383272 0.003257144095 -0.0002195634707)
(0.02105844194 0.005704487834 -0.0007252518371)
(0.009977986538 0.0001826309231 -0.0007705507117)
(0.01292342049 0.003518422699 0.0004514666831)
(0.01175650187 0.0025353379 -0.0007211388161)
(0.007680898276 0.002752118763 -0.000318108024)
(0.01307954713 0.0001202844807 -0.0001027521538)
(0.006516696175 -1.926189024e-06 -0.0003075323223)
(0.007545144084 -0.0006462235969 -0.0002769552304)
(0.01041593886 -0.00025139642 0.000345960738)
(0.002943336039 -4.247951299e-05 -0.0006662023529)
(0.008584112635 -0.0005893023808 0.0006339714754)
(0.008060577544 0.0007698571883 -0.0001568053664)
(0.01037149614 -0.000549723515 0.0002797897391)
(0.003790169716 -7.795080963e-05 0.0001756251213)
(0.01371806388 0.0003939911945 0.001462327117)
(0.00661303648 -0.0004812555018 -0.0006927772953)
(0.009261646517 0.0004714392398 -0.0003837825617)
(0.009399671723 7.924212445e-05 0.000133248364)
(0.005217994716 0.001057962682 0.0005075875718)
(0.02025012986 0.0008113651427 -0.0008919703499)
(0.01572602244 0.0003353282886 0.0001729418884)
(0.009672567259 0.0004201405184 0.0004283839931)
(0.006034425314 4.236975348e-05 0.0009624990296)
(0.01156311386 0.0006206344073 -8.936226389e-05)
(0.01168925756 0.001087498062 0.0001562134447)
(0.01036096919 0.00156175833 -0.0002247925824)
(0.009980904125 0.002563737563 0.0005247271349)
(0.00514875696 -0.00041235284 -0.0006664534529)
(0.008411386621 0.0006035435562 0.001273838887)
(0.01328579662 0.002835597329 -0.0003674318581)
(0.01144644182 -0.0004283566232 0.0006580699634)
(0.01272195215 0.001471443511 -0.0002887322306)
(0.01331503091 0.0008925992297 -0.001403788827)
(0.009807823903 0.003094663824 1.610899605e-05)
(0.01404992331 0.003189109824 -0.000378567921)
(0.008395805583 0.0001254689646 2.694927938e-05)
(0.00670905955 -0.0002582882603 -0.0002234258136)
(0.003995834234 0.0002601610966 1.908288836e-05)
(0.00896143628 9.857286809e-05 0.0007962313395)
(0.008145859055 -0.0008029890551 -0.0008372743295)
(0.006942889342 -6.902214478e-05 0.0002515536848)
(0.007180473208 0.0004723539285 -0.0003073442871)
(0.008397875854 -0.0006706465128 0.0001167525688)
(0.01222746403 -0.0002226324462 0.0002532557884)
(0.01153533606 0.000694748739 0.0005903738766)
(0.009282270802 0.0003832939356 -0.0002316685819)
(0.01328925779 5.55372216e-05 -0.000168738896)
(0.009075821083 -8.951167324e-06 0.0004191262929)
(0.006444017713 -0.0007103628908 0.001079751725)
(0.006540522387 0.0005759545446 -0.0008388244005)
(0.00966168368 3.889364271e-05 8.506723709e-05)
(0.01228531906 0.0009732772545 0.000910782287)
(0.008126830114 0.0009663336877 -0.00020443777)
(0.004715241226 0.0007825265583 -0.0004304681977)
(0.01380927912 0.002123609299 0.0001648004243)
(0.002847044535 -0.0006846788932 -0.0005469178832)
(0.004435758508 0.001490202445 0.0008860350564)
(0.01285578051 0.0009268785464 -0.0006823710707)
(0.01285276237 -0.0003407940911 0.0004101419423)
(0.006636499361 0.0003608893266 -0.000129551612)
(0.01155539211 0.002293429515 0.0002783728335)
(0.01041247343 0.001651450254 -0.0005229260519)
(0.004632235635 -0.0001791551113 0.0002493897136)
(0.01465109166 0.002087813647 0.0002495733184)
(0.0157894764 0.001422167904 0.0001585580764)
(0.005306823511 -0.0001912582564 -0.0001580078645)
(0.006550854576 4.581078756e-05 0.0002274892665)
(0.01098798448 -0.0003677760702 -0.0002770389311)
(0.01036485886 -0.0001668727254 0.0003998414451)
(0.01240274427 -0.0002303487639 -7.109623412e-06)
(0.004919087044 -5.193660496e-05 -8.028560388e-05)
(0.006399080357 0.000380648686 -3.243809719e-05)
(0.009267206378 5.511931908e-05 0.0003465400604)
(0.006145876186 0.0008032482042 0.0008968679659)
(0.01030763342 -0.0002352766701 -0.0001231348289)
(0.01172367426 0.0007237942977 -0.0005910883687)
(0.0104877643 3.853623562e-05 -0.0005037344166)
(0.01047414649 0.0001459458286 4.39245205e-05)
(0.008698142442 0.0005301978227 0.0006340724221)
(0.004563676694 0.0006159158187 -0.0004388703048)
(0.00518287813 0.00183713473 0.0003024827471)
(0.006908455375 0.0004560776459 -0.0002354484412)
(0.006731803582 5.21796063e-05 0.0008185052825)
(0.01260248629 0.0005072482268 0.001023804581)
(0.01502276255 0.0002658749083 -0.0009965331664)
(0.01103343562 0.002178279168 -0.0003119227521)
(0.01156029187 0.001968268808 -0.0002180068654)
(0.01083948291 0.0005600648701 0.0004533708632)
(0.00875831434 0.0005912041568 -0.001246975978)
(0.009031162944 0.0004773295848 -0.0002171741482)
(0.006342641526 0.0007864310209 0.0003741956029)
(0.01058945091 0.0005375130812 0.0004403285444)
(0.01460663819 0.00162049154 -7.509049663e-05)
(0.01185899214 0.003236074437 0.001784883595)
(0.01198699972 0.002686051361 -0.001141636881)
(0.007817201013 -0.0007847891182 -0.0004808520058)
(0.007728711886 -0.0005329382015 -0.0001835962207)
(0.00608666471 0.000378688873 0.0003316626388)
(0.007625056035 0.0002668127014 -0.0008391937894)
(0.01329879337 -0.0001204962609 -0.0001506386275)
(0.007942327496 -0.0001331330975 0.001149057551)
(0.00732620875 -0.0001822460279 0.001064412122)
(0.007081460129 0.0003793671974 -0.0004138005172)
(0.004922720719 -5.606942854e-05 0.0003242594618)
(0.005864949325 -7.404528368e-05 -0.0002932214225)
(0.009453904234 0.00119493719 0.0003030301781)
(0.003236051466 0.0002018966022 -0.0002349911913)
(0.01096156676 -0.000804202063 0.000570121998)
(0.01061996249 -1.101155758e-06 0.000101069682)
(0.00631813965 0.00014951487 0.0005536140582)
(0.003758463981 0.0002955851506 0.0003638417905)
(0.01104439458 0.0007425306349 0.0006353592531)
(0.007035467898 -0.0004509050482 4.185118349e-05)
(0.002736787007 -0.0001292598274 -0.0007546034734)
(0.01588867004 0.0004022102127 -0.001671815482)
(0.00466135589 0.0001072867902 -2.366236139e-05)
(0.01068749652 -0.0001200057656 -0.0005184219519)
(0.009707797185 -0.0002842474647 -0.001571945232)
(0.003362463481 9.427670085e-06 0.0005264720676)
(0.00424703623 0.0001091660479 -8.176399961e-05)
(0.006448913025 0.001335664879 0.000233996868)
(0.008588666874 0.0004969426238 0.0003205881975)
(0.01332901002 0.001769610943 0.001473432159)
(0.0148785552 0.001736954566 0.0006078802138)
(0.01416297914 0.002705449652 -0.0001051217884)
(0.004737771362 0.0001846811841 0.0004407533068)
(0.009203265949 0.0001269461838 0.000135400605)
(0.005197648972 -3.161199981e-05 -0.001133368668)
(0.00634152463 -0.0002027658434 0.0004386006517)
(0.006820150467 0.0007902048643 1.627011642e-05)
(0.003851350575 -0.001002635398 -0.0005585645331)
(0.006405963474 0.0003152794254 -0.0004420287828)
(0.003743888419 0.0002145429666 -1.832645802e-05)
(0.01318771862 -0.0001532321168 -0.0004175161062)
(0.003675520016 0.0003870819109 9.745621845e-05)
(0.004921762248 0.0007130195596 0.0006601723897)
(0.00960129661 -0.0001103194031 5.208483948e-05)
(0.0118572274 -0.0002642711614 0.0004055641636)
(0.00213802867 1.400827381e-05 -0.0003066204635)
(0.009794393916 -5.092260047e-05 -0.0001968650657)
(0.01023200348 0.0006318485529 -0.0001051691397)
(0.007370346019 0.0002269147155 0.0001542685704)
(0.004221425286 0.0004990494696 0.0008398109832)
(0.002203625953 0.0003172328108 -0.0004750106784)
(0.0102999406 0.001275621115 5.526810679e-05)
(0.007920679349 -0.0006040440624 0.00113025896)
(0.0054099132 0.001189594722 -0.0001573330071)
(0.01075704381 0.0007614757497 -0.001441395231)
(0.01152711042 -0.0001612540597 -0.001470616835)
(0.01246703369 0.0005530478773 -0.0001259640974)
(0.00548451305 -9.356646465e-05 0.0002826816448)
(0.01003443118 -0.0008727063843 -0.0003015740031)
(0.007514266989 0.0002696630432 -0.0010166708)
(0.009102027292 0.002044308711 -0.0005287620735)
(0.009930204432 0.002192856696 -0.0007220216359)
(0.002820349902 -0.0001719211712 6.690295939e-05)
(0.01060939316 0.0003869788121 0.0002555738265)
(0.007337249161 -0.0004655510423 0.0004797448156)
(0.00840875701 0.0007469341366 -0.0005612250899)
(0.011098496 0.0001951376343 0.0002421942982)
(0.01084371409 3.992194007e-05 0.00128613338)
(0.008789388154 -0.0002257991302 0.000561700033)
(0.01101018524 0.0008747534493 -0.0002379400784)
(0.008894229978 -0.0004616654111 0.0005924920504)
(0.01164919535 -2.740041092e-05 -0.0003761281406)
(0.01065809163 0.0004477500003 0.0006906647967)
(0.007681578199 5.913138024e-05 -0.0009468540145)
(0.007604162025 0.0008227547551 -0.0003603910826)
(0.009058299833 -0.0004224327743 -9.355770977e-05)
(0.005512454538 0.0001415116889 -0.0004132765998)
(0.00524457611 -0.0004674370861 -0.0006049261389)
(0.009678105533 -0.0004693106951 -0.0001165491338)
(0.007149313459 0.0001388181482 0.0008371565702)
(0.01104211749 -2.330188257e-05 -0.001489304716)
(0.01391744089 0.0005394653883 -8.653552098e-05)
(0.00551907875 -0.0001525963237 0.0002802225863)
(0.01203472404 -0.0006328548844 0.0005379119877)
(0.01042631653 0.0008743390068 0.0003934422881)
(0.01149220017 -0.0001810270892 -0.000477972921)
(0.00854815883 -0.0008156558116 0.0008921587179)
(0.01308300471 0.001684079056 0.0004759872698)
(0.006551399823 -0.0001766859359 0.0005121185608)
(0.006216153016 0.000966304164 -0.0007177176477)
(0.004715671159 0.001317053081 -0.0009049773255)
(0.01193120341 0.0003356400612 0.0004874120699)
(0.005032931388 -3.424991444e-05 0.0008544709986)
(0.01021339643 0.000146669634 0.0001626399889)
(0.01621368599 0.0001894129516 -0.0009975237553)
(0.009808179056 -0.0006673115106 -0.0002674682589)
(0.007515098981 0.0002245409418 -0.0002615205513)
(0.007653235585 6.968473962e-05 1.416546114e-05)
(0.003723577244 0.0002118352215 0.0004197380293)
(0.01302802986 -0.001417659953 -2.157827809e-06)
(0.011532792 0.0007774530532 0.0008400208812)
(0.006440255094 0.0004098040486 0.0002807667833)
(0.006615660223 -4.196886565e-05 0.0001910717413)
(0.005150840913 -0.0006750692816 -0.000860969754)
(0.009515486765 -0.0005909700505 -0.0004117639895)
(0.01055818835 0.001069823856 -0.0009731192316)
(0.0121484358 0.0006928475996 -0.0004813787994)
(0.01293095782 0.001061950805 0.0002893860525)
(0.006768439183 -0.0003469234181 0.0006005047566)
(0.009436056582 0.001022102973 -0.0003096924212)
(0.01151026158 0.0008217647273 -0.0006926960238)
(0.005133960703 0.0007757615233 0.0001521137242)
(0.01260121666 -0.0007542454138 0.0002504544044)
(0.006832826263 0.0003099273466 -9.481345871e-05)
(0.008157203654 -0.0006330800736 0.0008424068543)
(0.006586399452 0.0006728260721 0.0003916925013)
(0.01043456879 0.001173656816 -0.000924639687)
(0.00314182319 0.0003816009828 0.0001373615469)
(0.01039346815 0.001059995724 0.001462496498)
(0.009136494625 0.0002648228307 0.0003041408817)
(0.008636542401 0.001997063436 -0.001002205453)
(0.004460885439 3.483340437e-05 -1.843710516e-05)
(0.005680199686 -0.001289970543 0.000321816804)
(0.01012229808 0.0001063655539 -0.0009175332983)
(0.00741520217 0.0001498379039 -0.0003615477793)
(0.008552116849 0.0001373916659 -0.0002876218146)
(0.006149413179 0.000103055938 -0.0009291271982)
(0.006679272157 -0.0001781936993 -7.435090279e-05)
(0.007806516934 0.0001496603152 -0.0002038313536)
(0.007101069916 0.0003634829203 -7.829580074e-05)
(0.00797094156 -0.0001070393519 0.0005314535491)
(0.009998936556 0.0008727405511 0.000278484529)
(0.009558520579 0.0001106872967 -0.0002985174846)
(0.006528138657 -0.0005654473289 0.0002994238282)
(0.01062145298 0.001029001821 0.0002823989514)
(0.004829866617 0.0001589802276 0.0004923679332)
(0.007119703652 0.0002169292482 -0.0005856458267)
(0.009342852 5.28489883e-05 0.0005475103221)
(0.008413801403 0.0005939644212 0.0001901036327)
(0.002782202869 3.38830183e-05 0.0001729418167)
(0.01181504665 -0.0009858010196 -0.0007086247047)
(0.005221405106 -0.0002581836866 0.0008038158431)
(0.008236453817 0.0003812213159 0.0005169464625)
(0.003838639727 0.0001684057709 0.0004405985528)
(0.006656493441 0.0005263427202 0.0001762380959)
(0.008089855585 0.0005831091321 0.0006130371334)
(0.006802135124 -8.275890636e-05 5.534874472e-05)
(0.01035117207 0.000832573823 -0.000984364065)
(0.01185706419 -0.00163523244 0.0002992388716)
(0.009420793782 0.001290123777 -0.000850554122)
(0.008182191454 0.0004110868357 -0.001042158714)
(0.01540169667 0.001739712946 -0.001204031124)
(0.01987250863 -0.0004092115877 0.0005556588123)
(0.00661484927 5.703365954e-05 4.898980914e-05)
(0.01222850624 0.000261750185 -0.0002203051396)
(0.01168216691 -0.0002193273626 0.0008087232653)
(0.008412694247 -0.0003330747841 0.0003603997478)
(0.006534580258 0.0004221536539 -0.000273286136)
(0.009321034462 0.000351636819 -0.0001669332336)
(0.008539115539 -0.0003965144173 -0.0003260416365)
(0.006407027482 0.0002592037278 -0.0001515468576)
(0.008078278369 -3.195117853e-05 -0.0001986375068)
(0.008690196511 7.91183871e-05 -0.0002494264726)
(0.007796968633 -0.0003191046922 -5.182808268e-05)
(0.01084383075 0.0004570446285 -0.000164641091)
(0.009755946171 -0.0003100350772 -0.0004085082218)
(0.002977151199 0.0003853387328 -0.0003792736066)
(0.008629329885 -0.0003227663519 -0.0009582017285)
(0.004379731526 -0.0001883514118 -0.0002281674378)
(0.004810296321 -0.0004543873372 0.0007557129529)
(0.008399495512 -0.0002408406997 0.0002885698378)
(0.007039314311 -8.127919012e-05 -1.162974676e-05)
(0.007298713807 0.0003875063725 -0.000334258386)
(0.008911072861 -0.0003438963649 0.000150015459)
(0.01251571373 0.0009274768855 -9.296767259e-05)
(0.004864260495 5.501091165e-05 -0.0002141528921)
(0.01236168122 0.0007904955441 -8.871827936e-05)
(0.009184735516 -0.0006127102907 -0.0002436587811)
(0.005388296487 -0.000484930458 -8.137604888e-06)
(0.0116609589 -0.0008241069672 -0.001275667918)
(0.006238505415 0.0001206328383 -0.0002837760515)
(0.01425361032 0.002031932542 0.001354855697)
(0.006711771369 -0.0007509343737 0.0005040466102)
(0.0134068734 0.0005011708174 0.0004082781993)
(0.008894118645 -0.0004352399581 -0.0005872433707)
(0.008414091493 0.0008402831438 0.0007442515103)
(0.005547462653 0.0003638817523 -0.0002628538283)
(0.005127552276 0.0004216496971 -0.0002979493946)
(0.008093164249 0.0001267422366 0.0005771355532)
(0.01015261268 -0.0002784500485 -0.0003557309656)
(0.009830679223 0.0005524846029 -3.502077918e-05)
(0.007402771516 -0.0007511051277 -5.474596846e-05)
(0.007762993825 -0.0004353636612 -0.0001086684025)
(0.006101044125 9.372529806e-05 -0.0002405385376)
(0.002121556245 0.0003050255095 -0.0003573979929)
(0.005095760129 0.0006293575192 0.0001428434243)
(0.01031184573 0.0006433609478 0.0001962507646)
(0.009870695589 -0.0001127381944 0.0007319987402)
(0.004223301845 -0.0003325537365 0.0001147197089)
(0.01127179966 0.0002102840103 -3.509462076e-05)
(0.01294301499 0.0001711588975 0.0003466760268)
(0.01025678086 -7.340580686e-05 0.0004275870749)
(0.009658760577 -0.0008261694962 -0.001330026549)
(0.01217510683 0.0003453435195 0.0005291998843)
(0.007773691763 0.0005950394724 -0.000805576419)
(0.01021550299 -0.0004150341236 -0.0003133645684)
(0.01127393036 6.689310023e-05 0.0004645409487)
(0.009038076588 6.629023065e-05 -0.000143147672)
(0.009779892653 -0.0005573938059 0.0003916534689)
(0.004794736191 0.0004822651745 0.0003442667683)
(0.004486805011 -0.0002131822024 -0.0003817448103)
(0.01141627718 0.0004701574673 -0.0002595841814)
(0.007504461832 0.0002169369281 0.0002782927134)
(0.01089995964 -0.000125729619 -0.0007542099238)
(0.005434960528 -5.56464377e-05 0.0002378112748)
(0.008222514782 0.0008053098436 0.0004984681919)
(0.01089038558 0.0007091949138 -8.83522353e-05)
(0.009667792873 -0.0004872392287 0.0002490528828)
(0.005761013151 0.0002340575558 -0.000368789788)
(0.007967573396 0.0002269648128 -0.0001730473991)
(0.007724803053 0.0003082403228 8.313792241e-05)
(0.006940013357 -0.0002111369021 0.0001978064967)
(0.009227277565 -0.000456468556 -0.0002111763808)
(0.00666932161 0.0005818013455 -0.0001358053071)
(0.01120847401 0.0009122189033 0.0001340151773)
(0.01674356294 0.000532123956 -9.54801824e-05)
(0.009690301672 -0.0009478198213 0.0001998662276)
(0.007896338631 -0.0006433928325 -0.001301274616)
(0.006704186188 -0.0003695184211 -0.0005203953133)
(0.009777718096 -0.0003180868091 -0.0002680919911)
(0.0104436412 0.0005856571324 -0.0001998825921)
(0.01469889643 -0.0005078116733 0.0002011920058)
(0.009605101968 0.0001186189155 -0.000170217114)
(0.008460608828 0.0004088179738 -0.0003105236267)
(0.005439677468 -0.0001167613716 0.0006424777275)
(0.00829845052 0.0006928436362 -2.755908001e-05)
(0.00327336973 1.083803506e-05 -9.236320277e-05)
(0.00824949443 -0.0007460540847 -0.0008545848459)
(0.01499622756 0.0009215517461 -0.0004627082303)
(0.007322614858 0.000454819091 -0.0004340507778)
(0.01066673698 0.001506188376 -0.0003882230636)
(0.01444717251 0.001314119916 -0.0008419373201)
(0.0109607768 0.001118066444 0.0001728214883)
(0.009723281696 -0.0001986252234 3.234497762e-05)
(0.009971008762 0.0006887349909 -0.0003175828008)
(0.005568645116 0.000377513098 0.0007548045005)
(0.005456929602 0.0004664040246 -0.0006115015069)
(0.01064136519 -0.0001220374144 0.0002811207971)
(0.006946481672 -2.650856461e-05 -0.0002462714352)
(0.01111927158 0.0006444682338 0.0006084970956)
(0.008048074366 -0.0001936618216 -0.0002261368665)
(0.01279370957 0.0002470936655 -0.0008135312196)
(0.004585249995 0.0002295120554 3.903543222e-05)
(0.01552432338 -0.0003294983681 0.0004711655532)
(0.007359950241 -0.0004511059021 -0.0007106101928)
(0.01037226015 3.165767116e-05 -0.0003860476853)
(0.0073497497 -0.0006805543531 0.0002975433778)
(0.00858416935 -0.0001043228892 3.904911209e-05)
(0.007662785614 -0.0001054840659 0.0009077806908)
(0.004046630642 0.0004040413218 -0.0003489689839)
(0.008386798955 -0.0004882535706 -0.0003160188541)
(0.006204344257 0.0002429845149 0.0001968913899)
(0.008592686679 -0.0003180972167 0.0001438142772)
(0.009503229573 -0.000360006818 -7.468656317e-05)
(0.0059283281 0.0001139249876 0.0002990142961)
(0.009513904313 0.0001543054856 -0.0001848305254)
(0.008644101004 -0.0009529076488 0.000128015947)
(0.009094847619 -0.0004368749726 -4.799115973e-07)
(0.009838414399 0.0009388212271 0.00037948333)
(0.009001367673 3.208069438e-05 -0.0005078704023)
(0.004759777449 4.667927968e-05 -0.0006397965643)
(0.005277932385 0.00061071237 0.000476451932)
(0.009897392983 -0.0001867219951 0.0003968534224)
(0.006984218564 -3.279783605e-05 0.0005773809867)
(0.003798311997 -0.0001794963783 0.0005587025169)
(0.008041824393 0.0005690564203 -0.001293004243)
(0.003131504244 6.775977533e-06 0.0006961578495)
(0.007370077817 -0.000458260444 -0.0001653289576)
(0.00722112517 -0.0004737091618 -0.0005578717893)
(0.007744261523 -0.0004765686304 0.0002273610772)
(0.0121667824 0.0005240519094 0.0002039011252)
(0.01185291247 0.000357181627 -3.413600589e-05)
(0.01668414088 -0.0005670248513 -1.137506859e-05)
(0.008159447805 0.0001159621176 0.0007157357463)
(0.01139595085 -1.084494438e-05 0.001027845447)
(0.005058399546 -0.0002773903973 -0.0004410611972)
(0.007452230544 -0.001336244788 0.001148619079)
(0.004070749536 9.998282309e-05 2.62018808e-05)
(0.007985845829 0.0002870450618 -0.0001722440084)
(0.005042873455 0.0004892724764 0.0001414204868)
(0.008099120689 -0.0004605106876 0.0005879103493)
(0.009148486524 -0.0003772624737 9.090199097e-05)
(0.005325131458 6.121590118e-05 0.0005867667757)
(0.0179817959 0.0001004328304 -0.0001030356239)
(0.01276051368 -0.0003350641004 -0.0002729308507)
(0.004497940568 0.0002563031498 -0.0009475457693)
(0.003133478666 -0.000204214 -0.0005761432129)
(0.01024472178 0.0003780884433 0.0004607647781)
(0.006060740947 -0.0008848387313 0.0003303574266)
(0.007325030592 0.0006554007876 0.0002544888816)
(0.007462980039 -0.0009831336347 0.000742003122)
(0.01117432478 0.0007116238263 -0.0002214563455)
(0.01083567117 -0.0003276280796 0.0003028339427)
(0.008471088017 0.0001038472335 -0.000366259596)
(0.005943173885 0.0002523151418 0.0002280531732)
(0.01033593021 0.0002764099339 -0.000367008695)