/*--------------------------------*- C++ -*----------------------------------*\
| =========                 |                                                 |
| \\      /  F ield         | OpenFOAM: The Open Source CFD Toolbox           |
|  \\    /   O peration     | Version:  2406                                  |
|   \\  /    A nd           | Website:  www.openfoam.com                      |
|    \\/     M anipulation  |                                                 |
\*---------------------------------------------------------------------------*/
FoamFile
{
    version     2.0;
    format      ascii;
    arch        "LSB;label=32;scalar=64";
    class       volScalarField;
    location    "0.009";
    object      overallT;
}
// * * * * * * * * * * * * * * * * * * * * * * * * * * * * * * * * * * * * * //

dimensions      [1 2 -2 0 0 0 0];

internalField   nonuniform List<scalar> 
654
(
731.6334382
723.9718739
725.7362867
729.2513046
725.7946844
725.5551674
669.7890932
682.8260943
692.9708306
694.6999357
703.2913736
707.6502584
708.158998
714.4347021
714.9352651
713.9475182
716.7213303
567.2959771
590.8140388
606.4123391
623.6908655
637.1103209
651.2588584
661.3431389
669.6954145
678.1357836
685.050465
694.6972484
699.3860348
697.7838897
703.0235151
707.4642404
707.2851712
417.4232164
433.3556446
450.1811229
473.1878685
489.5642808
510.3022469
532.4490657
555.7790548
573.5356521
595.5285609
611.4604789
623.2106211
639.9539713
650.0057184
655.7895793
663.9167594
673.8161102
682.4765625
688.7269636
691.0133642
691.8180235
696.7729712
325.6543868
333.2526599
337.1763537
348.5331952
361.4569385
368.575493
377.4868035
388.4844435
404.4487031
421.643794
432.7892284
454.2518082
476.0207187
495.3017503
515.1975694
534.0626819
552.1365657
571.7198767
592.9634894
611.0196127
631.3540275
642.2696782
646.6812977
657.2219287
669.0565166
674.6685655
681.2147241
683.8143949
682.3351541
317.2448551
320.7804499
327.219958
328.6321196
336.0975414
343.4569335
353.1765136
364.3233438
370.1744811
383.6225925
395.588968
412.5702
426.6897871
442.9310048
462.7366172
481.8721305
502.8629153
520.908128
538.37288
559.8780678
577.4366681
597.2844153
613.9468043
629.6591666
645.3793469
648.8116954
657.0424854
664.3923267
667.6523577
674.6970425
313.1683885
315.0367498
321.7685402
325.2433989
329.5479093
333.6685532
337.537662
346.1675081
354.1960202
365.9369529
374.2247945
385.5052103
400.6095016
417.0426933
439.0802481
450.9687715
470.0612402
488.2370819
504.8794696
522.9181076
541.2845693
567.1350734
585.2348914
602.470743
618.6612401
629.3198287
642.0601519
648.488585
654.0977947
658.9174487
312.0316097
314.6187623
313.695814
316.7488576
321.656564
327.1380104
330.5579963
333.5873273
343.6161277
349.6154553
360.4646152
370.6599854
373.6810148
385.8782673
404.3435009
418.143086
439.3832752
464.2486791
478.5167328
496.0032319
513.4272941
536.0974367
551.3881895
573.8572573
590.3054222
602.4425108
619.5306974
633.263536
642.8819452
647.0885778
309.0275979
310.0091515
313.3853164
314.2952785
313.8299132
318.5444394
325.0803727
326.5105668
333.8582966
339.609919
347.2257777
354.0222085
363.856352
370.8570162
384.7922611
396.2187863
410.7033346
430.8039793
447.0257355
468.8908942
484.1161701
509.2587862
527.4763416
539.472785
563.5706438
582.1548548
594.4096821
609.591361
620.8044077
633.4330314
306.4085257
306.9872952
307.6339306
309.544011
313.4826041
314.7772467
317.8468453
322.1723521
327.0562887
330.0555751
336.730164
343.3684664
346.4704156
356.3022174
364.7006292
373.5738148
384.9509264
400.3470518
416.9121571
430.6745325
451.9240785
469.1774556
493.6815314
507.833588
527.7959562
550.2585563
567.4525982
584.2229976
600.2020193
612.5360753
304.8048223
306.0306627
305.7583334
308.5281133
308.0692373
311.5208555
312.1815361
316.4927539
320.1212223
322.1855463
327.4069295
334.226617
338.1183477
345.6124336
356.5405118
366.4202573
372.5745616
385.3287907
393.5651404
410.1905026
423.7191266
439.6515892
455.9861988
477.1072184
494.4602228
514.825615
534.6803359
552.0260716
572.2921275
587.5657226
302.6666205
302.5056861
303.6630034
306.3320664
308.8832911
311.3569753
311.5836011
313.6660768
316.9387394
316.7390029
320.65541
327.3904268
331.4671204
332.5774161
339.7647347
348.2992068
353.2957388
363.7188487
379.9515481
390.5733616
401.8618869
411.1775896
434.9160442
449.190709
466.3044063
487.3083522
507.2915946
527.03038
544.5768398
563.6613294
304.1116248
304.8375742
306.8463154
307.1411492
304.7147852
306.2803186
306.7987257
311.4074628
310.6025873
314.5915042
314.3312263
317.4872218
320.0023719
324.5875559
332.9863587
340.1804429
343.4708653
349.5813998
359.6064197
368.3078824
382.6435307
393.4203439
408.2353913
424.1807363
443.4059705
458.8420904
476.9592527
498.8674852
520.4624835
537.0830907
301.8014282
300.9584833
301.3194827
305.4648369
305.6855025
304.085439
306.6645267
307.5029375
309.1201006
312.2765621
316.1173979
317.1934095
317.1304919
319.8550184
323.7060173
331.8251091
335.1071055
340.4104231
345.7674894
359.4547364
361.9114565
373.7022471
388.4322141
401.2195216
414.2842704
429.0605397
448.0563788
468.0687862
484.2086849
506.9752583
301.1763095
301.4362587
300.514883
301.4620294
303.2165398
304.4058278
306.8438334
306.7751793
306.9881586
309.5035958
312.573351
311.8613633
317.3210005
318.9657436
320.309747
324.5094975
328.6525535
335.6556582
339.5791694
347.2430616
353.0801124
363.3571523
373.8458505
392.5306768
395.5620299
409.672578
426.0951518
448.238411
463.1323308
483.456715
300.9148076
300.1808486
300.9087477
301.9071188
304.4559509
303.8561291
304.9407001
305.0754941
306.2353981
306.2223307
309.9207157
311.4013839
312.6495347
312.2885428
316.5457782
320.7439378
323.1632767
327.6413932
332.8144127
338.2470763
347.5827041
352.806706
361.5691089
373.7759585
379.3054989
388.4483656
400.9655173
417.1839255
438.9554482
454.333871
302.6243457
303.0354987
303.3728718
302.5424385
300.8984936
303.7389992
304.8460558
304.7272082
305.7949897
306.8550866
307.5937579
309.0435918
311.9729222
311.1267435
313.4849807
315.7698878
320.1877884
321.0890707
323.9531793
326.5069855
330.8155719
335.2298369
341.1419999
350.1268246
360.7766487
373.2027497
383.6829948
399.4193483
410.7592229
429.2646502
301.6356607
302.8401879
302.1069138
303.1318359
303.2658441
302.9861616
304.6912635
304.2660589
302.5276886
303.2698323
303.6247133
304.6828881
306.0503858
308.105963
307.3656923
308.934765
310.8784262
314.6226419
316.5958856
318.7195761
322.3063509
329.5915317
336.2720245
342.1456132
353.1660672
356.2820992
366.5836673
377.1963128
389.4906231
404.4425409
300.6434657
299.7993059
300.2718512
302.3914117
303.0548549
301.6708184
302.4961482
303.6248396
303.0399132
302.7354246
303.0835757
303.6299047
305.408627
305.6517816
308.0140038
308.1187409
309.5178066
313.5894891
315.8124774
317.7615903
320.6531256
324.6195229
327.5165025
338.1433172
341.7991016
352.3602594
357.3414263
365.530007
375.5100258
384.7318002
301.1545196
301.408557
300.9982877
301.710774
302.367142
303.8660369
302.9787695
301.834665
302.5176515
301.1946498
302.9346355
303.0445751
303.526086
304.6031785
306.4213248
307.498224
309.1455028
307.3370162
311.3574085
313.5909563
316.5171273
318.9882998
320.3955621
326.814952
331.5334415
339.8017955
346.4194687
352.8571747
367.2979909
374.4307968
300.3393386
300.9346017
299.2029826
298.3227085
297.4290695
297.5720467
298.2162935
299.1631871
301.7290678
302.2556328
301.5342515
301.8446408
300.7227182
302.3698978
304.2636827
304.9516028
306.3315225
307.3733979
307.6755636
309.8484591
311.4649071
313.7962087
315.6281619
318.0226689
320.213107
325.7365216
331.0692373
340.8648769
347.1611453
357.7540967
300.6496958
300.7369176
300.5134786
299.3349119
301.0054312
300.7843716
300.9337761
300.8999309
299.8633258
301.3147728
302.9908403
305.448209
305.3317167
304.0523444
303.7992681
303.9478033
305.3028858
305.4182043
305.0862686
306.9304458
309.9355184
314.0136592
313.3202401
318.5198521
318.7066692
326.2635926
330.3388368
334.1249252
339.5432122
348.6423261
301.2061994
301.4837588
300.3729124
300.5044384
301.9411115
302.255034
300.6447335
300.2448876
300.8846244
299.5310958
299.4507683
300.5400313
301.5051895
302.6000521
304.3615393
303.4948231
302.939955
304.8260716
304.7232309
306.5860434
309.1361298
309.7863307
312.2709795
311.9261228
314.2868734
315.9704045
321.4696925
325.9115627
332.1608155
338.4486904
298.4204993
299.8865641
301.993628
301.7900201
301.0321389
299.6775714
301.4226887
302.2956263
301.8979905
301.5969326
301.8677587
301.3683991
301.1210486
300.2904637
300.7259055
303.7921296
303.4647611
304.8616347
303.3711622
303.3891991
303.6572781
306.2669339
309.5427763
309.6325752
312.918854
311.4137222
314.0067528
320.1154194
320.9309388
329.0626855
)
;

boundaryField
{
    flow
    {
        type            calculated;
        value           nonuniform List<scalar> 
55
(
731.6334382
725.5551674
716.7213303
707.2851712
696.7729712
682.3351541
674.6970425
658.9174487
647.0885778
633.4330314
612.5360753
587.5657226
563.6613294
537.0830907
506.9752583
483.456715
454.333871
429.2646502
404.4425409
384.7318002
374.4307968
357.7540967
348.6423261
338.4486904
329.0626855
298.4204993
299.8865641
301.993628
301.7900201
301.0321389
299.6775714
301.4226887
302.2956263
301.8979905
301.5969326
301.8677587
301.3683991
301.1210486
300.2904637
300.7259055
303.7921296
303.4647611
304.8616347
303.3711622
303.3891991
303.6572781
306.2669339
309.5427763
309.6325752
312.918854
311.4137222
314.0067528
320.1154194
320.9309388
329.0626855
)
;
    }
    obstacle
    {
        type            calculated;
        value           nonuniform List<scalar> 0();
    }
    frontAndBack
    {
        type            empty;
    }
    procBoundary3to1
    {
        type            processor;
        value           nonuniform List<scalar> 
36
(
744.5020275
738.1212742
737.7447316
741.3353622
737.2897349
737.2897349
691.810681
695.7190196
705.2856388
710.4423822
716.211611
718.378203
718.378203
604.4645902
620.217506
637.5623001
653.2579159
662.3555874
662.3555874
450.4086836
464.5488069
488.82949
508.7008853
525.2689329
546.6298296
546.6298296
338.9053997
342.1929377
350.2063799
367.0917004
381.5577857
385.7895085
398.0264933
398.0264933
322.872201
322.872201
)
;
    }
    procBoundary3to2
    {
        type            processor;
        value           nonuniform List<scalar> 
19
(
312.7955922
308.9104573
309.3902292
306.0581978
302.7348652
304.0749705
301.0290335
302.3268863
301.2359391
301.6553769
300.7424192
300.8354669
301.901412
300.5717354
300.3543241
300.0337712
300.481804
300.6137863
298.069071
)
;
    }
}


// ************************************************************************* //
