/*--------------------------------*- C++ -*----------------------------------*\
| =========                 |                                                 |
| \\      /  F ield         | OpenFOAM: The Open Source CFD Toolbox           |
|  \\    /   O peration     | Version:  2406                                  |
|   \\  /    A nd           | Website:  www.openfoam.com                      |
|    \\/     M anipulation  |                                                 |
\*---------------------------------------------------------------------------*/
FoamFile
{
    version     2.0;
    format      ascii;
    arch        "LSB;label=32;scalar=64";
    class       volScalarField;
    location    "0.009";
    object      p;
}
// * * * * * * * * * * * * * * * * * * * * * * * * * * * * * * * * * * * * * //

dimensions      [1 -1 -2 0 0 0 0];

internalField   nonuniform List<scalar> 
654
(
2.508605678
2.587502534
2.61644205
2.597498478
2.562302743
2.562995484
2.057803607
2.167029278
2.289114666
2.342933486
2.437649731
2.514388064
2.507480313
2.544991262
2.567054105
2.540628711
2.526801213
1.291883215
1.432211566
1.518746695
1.648464445
1.751512491
1.881744554
1.989529345
2.085790898
2.192124387
2.276473489
2.378618741
2.449831564
2.45522702
2.494431466
2.531147786
2.512587871
0.7133511375
0.7648290495
0.8123922427
0.8926906996
0.9526178154
1.035971843
1.12240207
1.23241664
1.340455871
1.458719122
1.571947706
1.679483213
1.804960345
1.906939727
1.998099365
2.093114759
2.198536739
2.303226426
2.391863292
2.430057173
2.444696123
2.477315665
0.4748126856
0.4901701724
0.5009637963
0.5288032011
0.5656829565
0.5839855457
0.6095450406
0.6334459399
0.6841671374
0.737580391
0.7779497868
0.8408215513
0.9144073435
0.9888943582
1.073433069
1.161370148
1.258058246
1.357551331
1.481030284
1.614957402
1.756163924
1.857855736
1.934240946
2.0579051
2.170199356
2.251854416
2.333322293
2.382784016
2.408978187
0.4591639578
0.4675163601
0.4840899935
0.4887528742
0.5055583439
0.5175619222
0.5427989325
0.5721480981
0.5866082099
0.6203559276
0.6550397138
0.7073936992
0.7499161936
0.8089484168
0.8723174671
0.9477770262
1.023262641
1.104855077
1.189470955
1.288994423
1.412546668
1.530962923
1.652688309
1.758739675
1.895824516
2.001225284
2.085045658
2.184883571
2.235010621
2.303452912
0.4456688633
0.4479441685
0.4629466734
0.4728100279
0.4853569836
0.4958356336
0.5069963334
0.5275765756
0.5496718194
0.5809401492
0.608286279
0.6381110005
0.6784710799
0.7282258194
0.7965980299
0.8330767622
0.897790973
0.9657237606
1.046115397
1.127434741
1.198749975
1.336965469
1.450762873
1.578756617
1.709611974
1.801694406
1.93390086
2.040070548
2.138739662
2.192912997
0.4425619702
0.4528267714
0.4503800788
0.4561568256
0.4668709098
0.4768183498
0.4846190507
0.4927683515
0.5185099178
0.5361825484
0.5566298932
0.5902676787
0.6031343394
0.6345748764
0.6938043131
0.7361175245
0.803595698
0.8841610899
0.9247788149
0.9982173922
1.09085822
1.186638447
1.268167886
1.39710122
1.508928027
1.606386887
1.733028102
1.844229733
1.961495843
2.043225798
0.4403510156
0.4410165001
0.4480692354
0.450026065
0.4483140326
0.4592619786
0.474545923
0.478322069
0.4961737758
0.5097916417
0.5267070171
0.545227407
0.568822507
0.5854639558
0.6228344245
0.6593580211
0.6990066825
0.7613811249
0.8260672914
0.9003015289
0.9628350301
1.074247728
1.157385995
1.22353085
1.33949424
1.463303881
1.566449097
1.687868003
1.790348477
1.918567216
0.429539544
0.4302644161
0.433492493
0.4365874154
0.4486486424
0.4537339482
0.4637709988
0.4716583853
0.4825305635
0.4847571508
0.505831599
0.5182616737
0.5255474377
0.5522277576
0.5754835731
0.5984193238
0.6330001843
0.68592191
0.7412436346
0.7862199954
0.8545856751
0.9211742669
1.026537661
1.088473685
1.189486529
1.299674654
1.396618421
1.509318666
1.621867942
1.724911823
0.4248368013
0.4262628616
0.4297519836
0.4350299164
0.4363201687
0.4444012607
0.4436072895
0.4500201968
0.4599287731
0.4670631962
0.4785316973
0.4954753835
0.505335553
0.5296834689
0.553024247
0.5748805756
0.5914339595
0.6283123844
0.65606915
0.7121003211
0.7573900794
0.8167183816
0.880539382
0.9684502951
1.04385165
1.134729665
1.235460519
1.32816414
1.451711899
1.575209734
0.4292976129
0.4251377248
0.4218336595
0.4285080112
0.4309995105
0.4386750536
0.4400851109
0.4466875289
0.4561905083
0.4526252572
0.4645397568
0.4834535897
0.4920858675
0.4927892253
0.5165415315
0.5438385513
0.5575578012
0.5838317323
0.6268984323
0.6500751166
0.6894637353
0.7215732971
0.7908855488
0.8426377755
0.9099480021
1.000008562
1.09357616
1.189733665
1.296009037
1.415707923
0.4182921441
0.4238600443
0.4278720327
0.4292409114
0.4241507923
0.4287894652
0.4309514124
0.4366397357
0.4372308926
0.4483536831
0.4480521825
0.4534692909
0.4661042939
0.4779063365
0.4958858807
0.5172858103
0.5287888107
0.5437731514
0.5705306615
0.5983348419
0.6368280673
0.6676092232
0.7132234878
0.763653003
0.8232815848
0.8849264009
0.956607272
1.064109849
1.156144856
1.250783727
0.4159410847
0.4136227538
0.4165198978
0.4249512859
0.4262574543
0.4215368521
0.4297713688
0.4292796356
0.4348388739
0.4451784481
0.4514551669
0.4575115474
0.4555061355
0.4643449217
0.4755046185
0.4944450786
0.503545864
0.5170206673
0.5300234772
0.5672076971
0.5717415653
0.6089456854
0.6527390769
0.6949867516
0.739157474
0.7907012921
0.8578411202
0.9324329229
1.013828987
1.115768206
0.4112292411
0.4100527507
0.4100088761
0.4124599209
0.4166690045
0.4227917512
0.4318788783
0.4332479986
0.4341922523
0.4385594498
0.4476240022
0.4472104801
0.4567719094
0.4609839582
0.4592370015
0.4723719546
0.4790648872
0.4916003122
0.503477159
0.5219938563
0.5365712907
0.5669270055
0.5936552272
0.6442161263
0.6643998138
0.7120322246
0.7713382157
0.8488000201
0.8938851507
0.9756149619
0.4156293633
0.4136515425
0.4134902388
0.4159044273
0.4215562849
0.4224801928
0.4239758711
0.427670628
0.4309140361
0.4317441021
0.4388183298
0.44065976
0.4460159702
0.4432101695
0.4516832859
0.4604761049
0.4619539078
0.4737621991
0.4855885731
0.4998094962
0.5212588261
0.5387672656
0.5682688928
0.6021356025
0.612495551
0.6394113305
0.6810409707
0.7367521112
0.8193838008
0.8789328663
0.4215350075
0.423798556
0.426893773
0.4199306628
0.417052278
0.4188985982
0.4185165555
0.4163968348
0.4172496603
0.4194818464
0.423293806
0.4275601565
0.4347270508
0.4343998092
0.4398218102
0.4473475259
0.4615236801
0.4668313836
0.4777519194
0.4840218987
0.5019814136
0.5101874456
0.5175948781
0.5436251189
0.572433407
0.6007568554
0.6294274437
0.6757708892
0.7140492772
0.7802362945
0.4179928639
0.4201249594
0.4204214248
0.4228110674
0.4200180403
0.4201264153
0.4232217279
0.4237229491
0.4176337703
0.4187088109
0.4180410777
0.421203677
0.4265634888
0.4332073401
0.4356555813
0.4383036117
0.4447367314
0.4551401002
0.4584946136
0.4605255643
0.4704856241
0.4862389753
0.503625602
0.518504173
0.5512809571
0.5645622813
0.5992828834
0.6257108021
0.6586713721
0.705793574
0.4104969878
0.404640984
0.4067509103
0.4121655453
0.4167818387
0.4171353192
0.4160211643
0.4209870767
0.4200759936
0.4172270873
0.4223929189
0.4264464816
0.4287183896
0.4271906192
0.4292028905
0.4297644341
0.4323810128
0.4417001007
0.4452721438
0.4516186493
0.4571255563
0.4733210517
0.4812172636
0.5074117894
0.5146624419
0.5403021306
0.5551902281
0.579646175
0.6122435015
0.6368414991
0.4130848542
0.4120795063
0.4143682516
0.4154271361
0.4169707767
0.4176090151
0.4165866749
0.4123444258
0.4181044583
0.4152759299
0.4188225721
0.4140741677
0.4140365936
0.421806962
0.4287056225
0.4321033075
0.4372906853
0.4330389416
0.4441817737
0.4482205035
0.4524652637
0.4571897056
0.4580187664
0.4780620467
0.4931034758
0.5196545911
0.528465739
0.5428689933
0.584059542
0.6035850811
0.4175001591
0.4198181943
0.4122135841
0.4107112776
0.4077025447
0.4089951433
0.4135535298
0.416512067
0.4207461132
0.4219171675
0.4206321241
0.4235663911
0.4230590965
0.4240135735
0.4281975499
0.4312272422
0.4329169476
0.4334150097
0.4350353116
0.4391471978
0.4450870884
0.4545370675
0.4629988471
0.4681134294
0.4677080589
0.4845704829
0.5055681278
0.5336597972
0.5506762995
0.5811951487
0.4205723218
0.4197628966
0.4211497888
0.4205753518
0.4228653191
0.4208328277
0.4165381753
0.4148258522
0.4137344567
0.4162683882
0.4153255449
0.424562618
0.4271687052
0.4233351624
0.4253921774
0.4275896982
0.4322319627
0.4308875073
0.4282577799
0.4365393496
0.441743402
0.4465875209
0.4456461223
0.4549757478
0.4594357239
0.4794659183
0.4860749998
0.497903182
0.513129651
0.5369122881
0.4155896001
0.4148403782
0.4147987392
0.4169992168
0.4204535429
0.4215839859
0.4205021766
0.4176127329
0.4202074434
0.4181923927
0.4183851799
0.4197399946
0.4224629255
0.4269629885
0.4257782521
0.4237211741
0.4218147393
0.4287940811
0.4301891029
0.4302546085
0.4375414906
0.4382669599
0.4447171716
0.4455517209
0.4515608325
0.4535236282
0.4707438915
0.4809438511
0.4978013041
0.5162340994
0.4019618872
0.4084577767
0.4116080404
0.4113744507
0.4076226302
0.4060511411
0.4116288625
0.4138682179
0.4127070279
0.4122512462
0.417039164
0.4106507496
0.4102195451
0.4072620204
0.4085128341
0.4171381456
0.4165959808
0.4183769919
0.4129453859
0.4149642963
0.418995395
0.4302868378
0.4330206371
0.4334479747
0.4377504063
0.4338412948
0.439522219
0.4551335979
0.4604364123
0.4837909563
)
;

boundaryField
{
    flow
    {
        type            calculated;
        value           nonuniform List<scalar> 
55
(
2.508605678
2.562995484
2.526801213
2.512587871
2.477315665
2.408978187
2.303452912
2.192912997
2.043225798
1.918567216
1.724911823
1.575209734
1.415707923
1.250783727
1.115768206
0.9756149619
0.8789328663
0.7802362945
0.705793574
0.6368414991
0.6035850811
0.5811951487
0.5369122881
0.5162340994
0.4837909563
0.4019618872
0.4084577767
0.4116080404
0.4113744507
0.4076226302
0.4060511411
0.4116288625
0.4138682179
0.4127070279
0.4122512462
0.417039164
0.4106507496
0.4102195451
0.4072620204
0.4085128341
0.4171381456
0.4165959808
0.4183769919
0.4129453859
0.4149642963
0.418995395
0.4302868378
0.4330206371
0.4334479747
0.4377504063
0.4338412948
0.439522219
0.4551335979
0.4604364123
0.4837909563
)
;
    }
    obstacle
    {
        type            calculated;
        value           nonuniform List<scalar> 0();
    }
    frontAndBack
    {
        type            empty;
    }
    procBoundary3to1
    {
        type            processor;
        value           nonuniform List<scalar> 
36
(
2.505383795
2.646750482
2.63757518
2.622526207
2.570474147
2.570474147
2.232128253
2.324930543
2.441765215
2.478488548
2.557386334
2.546879835
2.546879835
1.496529313
1.610774352
1.723400626
1.845563005
1.948565289
1.948565289
0.8087821976
0.8550181061
0.950914247
1.020595912
1.095274129
1.186437995
1.186437995
0.5021722469
0.5128250079
0.5316988366
0.5757088887
0.6076958302
0.623288611
0.6600530166
0.6600530166
0.466116931
0.466116931
)
;
    }
    procBoundary3to2
    {
        type            processor;
        value           nonuniform List<scalar> 
19
(
0.447866853
0.4347022257
0.4364969384
0.4326750371
0.4231862773
0.4224966589
0.4226288691
0.4171802413
0.4134788993
0.4144922462
0.4147654138
0.4205036595
0.4156832144
0.4106744103
0.4076860395
0.4184430916
0.417064574
0.4152364668
0.4041107493
)
;
    }
}


// ************************************************************************* //
