/*--------------------------------*- C++ -*----------------------------------*\
| =========                 |                                                 |
| \\      /  F ield         | OpenFOAM: The Open Source CFD Toolbox           |
|  \\    /   O peration     | Version:  2406                                  |
|   \\  /    A nd           | Website:  www.openfoam.com                      |
|    \\/     M anipulation  |                                                 |
\*---------------------------------------------------------------------------*/
FoamFile
{
    version     2.0;
    format      ascii;
    arch        "LSB;label=32;scalar=64";
    class       volScalarField;
    location    "0.009";
    object      rhoM;
}
// * * * * * * * * * * * * * * * * * * * * * * * * * * * * * * * * * * * * * //

dimensions      [1 -3 0 0 0 0 0];

internalField   nonuniform List<scalar> 
654
(
1.097537897e-05
1.496074401e-05
8.468827387e-06
1.003193181e-05
1.406211343e-05
1.040729389e-05
1.384917526e-05
1.056415512e-05
6.956800112e-06
1.456852345e-05
8.334158643e-06
1.157292805e-05
9.213267009e-06
1.141334955e-05
9.381651853e-06
2.202861204e-05
1.428730868e-05
4.316865088e-06
7.951953909e-06
6.077086738e-06
7.574111926e-06
9.098485477e-06
1.185869524e-05
1.100131614e-05
8.2775235e-06
1.048105603e-05
1.030551757e-05
6.689714293e-06
1.249722563e-05
9.296697115e-06
1.523417145e-05
1.602868679e-05
1.29625368e-05
6.648936667e-06
6.780614014e-06
6.029076856e-06
5.673302201e-06
2.859448069e-06
9.965043013e-06
4.316865088e-06
7.785096274e-06
7.933861464e-06
1.02987933e-05
9.784890563e-06
1.307065436e-05
1.126235095e-05
6.869034711e-06
7.550928722e-06
1.02162047e-05
1.112021411e-05
9.851875708e-06
8.835783961e-06
9.939354229e-06
1.218671334e-05
1.428730868e-05
4.427929899e-06
6.502899834e-06
6.094246213e-06
5.67942103e-06
5.645552072e-06
5.688835873e-06
4.948174672e-06
6.252621912e-06
8.135968293e-06
4.020030188e-06
8.104159749e-06
5.147006525e-06
3.623291355e-06
5.313833973e-06
4.771575627e-06
5.48620234e-06
8.935427379e-06
9.784890482e-06
1.142525683e-05
1.143637406e-05
9.773777665e-06
9.5050601e-06
9.588856013e-06
8.228070908e-06
8.392826721e-06
9.941088429e-06
1.346848657e-05
8.811896446e-06
9.365424916e-06
3.79962999e-06
2.176562662e-06
4.914855286e-06
6.018320412e-06
5.987266265e-06
4.408528048e-06
8.02650778e-06
4.633194021e-06
4.115191308e-06
2.871631226e-06
2.974473693e-06
4.052079811e-06
4.900786446e-06
4.694260029e-06
6.890034726e-06
9.0405619e-06
7.174733903e-06
9.361607466e-06
6.695033992e-06
6.23233748e-06
4.452312855e-06
8.806237197e-06
9.770657299e-06
7.258087068e-06
6.419392671e-06
5.838392719e-06
1.058547992e-05
1.476904648e-05
9.46817357e-06
1.239445182e-05
3.725373774e-06
5.254395417e-06
4.385507199e-06
5.636856611e-06
3.377052986e-06
4.562690299e-06
6.779999738e-06
5.104719076e-06
6.489266862e-06
1.754779001e-06
3.457187175e-06
5.186740283e-06
2.940865472e-06
4.694260066e-06
7.305771678e-06
6.02704117e-06
4.136190476e-06
4.425300786e-06
7.466981222e-06
6.92458763e-06
5.063497004e-06
1.091897039e-05
8.261327457e-06
7.796122824e-06
4.700821454e-06
5.929308549e-06
1.242691496e-05
1.003193181e-05
6.562771293e-06
8.420136158e-06
4.768550253e-06
8.330420193e-06
2.722101738e-06
3.73320751e-06
7.138450286e-06
5.568470946e-06
6.70232764e-06
4.398377453e-06
3.403349984e-06
5.822763116e-06
7.477217358e-06
5.10597202e-06
5.881730945e-06
6.175613911e-06
5.895065766e-06
4.938433364e-06
3.713549353e-06
6.638976266e-06
9.012943277e-06
5.453816477e-06
5.587669673e-06
5.811607458e-06
4.618661655e-06
7.079461272e-06
7.232535643e-06
1.267905739e-05
1.150508871e-05
9.659384324e-06
7.968756762e-06
9.462005145e-06
6.704595966e-06
7.430958095e-06
1.588044477e-06
6.703487328e-06
5.065579479e-06
3.944178308e-06
6.70232764e-06
4.005124704e-06
4.9867025e-06
8.056467628e-06
5.065586597e-06
4.78094663e-06
2.36897584e-06
6.58798275e-06
7.887003576e-06
8.287685777e-06
6.920335837e-06
6.04314437e-06
5.664392566e-06
6.146066782e-06
7.595245634e-06
6.25255563e-06
4.3530645e-06
8.512784376e-06
6.599607048e-06
1.423121946e-05
5.89126178e-06
8.638794406e-06
8.062188042e-06
5.393388467e-06
7.97233577e-06
4.203516303e-06
4.23478521e-06
6.018320412e-06
1.688526506e-06
4.949958987e-06
4.442327761e-06
5.654516261e-06
2.374075523e-06
8.13596823e-06
4.100159627e-06
5.915607154e-06
5.718896139e-06
2.882614403e-06
1.145714194e-05
8.454543476e-06
6.583849545e-06
4.425300786e-06
6.179713252e-06
6.92458763e-06
6.19885385e-06
6.340321031e-06
3.197864185e-06
5.646138168e-06
7.955571356e-06
7.38835731e-06
8.007914169e-06
7.988514379e-06
7.4993422e-06
1.021869206e-05
4.917062686e-06
3.902490354e-06
2.268114563e-06
4.875763947e-06
4.528236974e-06
3.944178308e-06
3.896745745e-06
4.633194021e-06
6.727818266e-06
6.780614014e-06
5.225845497e-06
7.050267493e-06
5.147006484e-06
3.459137284e-06
4.15137026e-06
5.441022822e-06
6.836214293e-06
5.021132633e-06
3.605177311e-06
8.050276202e-06
1.833552689e-06
3.170160542e-06
8.172795084e-06
7.079461272e-06
3.797571222e-06
7.115609794e-06
7.271783746e-06
3.343977269e-06
8.625033963e-06
1.097537897e-05
2.682197348e-06
3.902490325e-06
5.973551675e-06
5.485005098e-06
7.291448444e-06
2.861316577e-06
3.506508015e-06
5.654516261e-06
3.561113284e-06
5.822763116e-06
6.914374403e-06
5.915607154e-06
5.963148348e-06
4.776337087e-06
2.906159199e-06
3.68296784e-06
4.72707483e-06
3.659817003e-06
7.466981222e-06
8.483714591e-06
6.372877111e-06
6.515851832e-06
5.950926752e-06
5.108102393e-06
5.153535541e-06
3.922567072e-06
6.535653182e-06
8.823949466e-06
8.249050678e-06
8.231534149e-06
4.321218212e-06
4.427929835e-06
3.780798049e-06
4.266522868e-06
7.5227946e-06
4.408528081e-06
4.052089969e-06
4.476649654e-06
2.849271928e-06
3.430057339e-06
5.386104436e-06
1.944295567e-06
6.697872715e-06
6.505905678e-06
4.234117674e-06
2.427502238e-06
6.245329939e-06
4.170822926e-06
1.80258867e-06
9.954485756e-06
2.705771732e-06
6.252555683e-06
5.685329634e-06
1.882046056e-06
2.531714148e-06
4.561175604e-06
4.694218097e-06
7.430811985e-06
8.811896446e-06
7.569148281e-06
2.682197348e-06
4.878564933e-06
3.251449893e-06
3.351743639e-06
4.143892694e-06
2.242804587e-06
3.428835918e-06
2.277460945e-06
7.518541323e-06
2.392705796e-06
2.974473739e-06
6.077143712e-06
6.453620508e-06
1.235122782e-06
5.479328758e-06
6.027041218e-06
4.220312111e-06
2.383327387e-06
1.20172577e-06
6.318608075e-06
4.626336026e-06
3.257925888e-06
7.017594672e-06
6.36279972e-06
6.779821538e-06
3.28395854e-06
5.430348704e-06
4.551959691e-06
5.999925391e-06
6.244376336e-06
1.639020884e-06
6.380078966e-06
3.931519975e-06
4.418374381e-06
6.063765344e-06
6.497170433e-06
5.065581817e-06
6.126041246e-06
5.1444658e-06
6.780614014e-06
6.191272459e-06
4.700178365e-06
4.81936912e-06
5.270782947e-06
2.98890659e-06
3.180378282e-06
5.992965138e-06
4.170822926e-06
6.265255452e-06
8.050276202e-06
3.142932753e-06
6.956800112e-06
6.307195997e-06
6.452112587e-06
5.243642741e-06
7.936049956e-06
3.405435305e-06
4.179412206e-06
3.281385647e-06
7.001063367e-06
2.607941113e-06
6.079053003e-06
9.754349752e-06
5.485005098e-06
4.375238883e-06
4.485609207e-06
2.259999896e-06
6.988927185e-06
6.252621912e-06
3.988483451e-06
3.697575583e-06
2.998187705e-06
5.391258734e-06
7.000351589e-06
6.807287311e-06
7.28250683e-06
4.220312077e-06
6.297622228e-06
7.381439022e-06
3.029898043e-06
6.984061341e-06
3.874404972e-06
4.44159691e-06
3.853404979e-06
6.419392615e-06
1.915825612e-06
6.074740052e-06
5.387394579e-06
5.250216987e-06
2.743844716e-06
3.203785574e-06
6.004248492e-06
4.385507167e-06
5.027615496e-06
3.837896379e-06
3.867097183e-06
4.36465563e-06
4.398377453e-06
4.748151009e-06
5.663761789e-06
5.386104477e-06
3.40398132e-06
6.453620508e-06
2.388168544e-06
4.15137026e-06
5.441022822e-06
4.388555277e-06
1.78749554e-06
6.695033937e-06
3.029898068e-06
4.976485443e-06
2.465916092e-06
3.109331812e-06
5.286728128e-06
3.887678467e-06
6.567917081e-06
7.180044583e-06
5.294817137e-06
5.250216987e-06
8.325835191e-06
1.087730175e-05
4.203516334e-06
6.728982676e-06
6.094246168e-06
4.528237008e-06
3.790016086e-06
4.987909682e-06
5.497971817e-06
3.403349984e-06
4.626410263e-06
5.065586597e-06
4.132848145e-06
6.044565751e-06
5.35286001e-06
1.743695519e-06
5.274165168e-06
2.363537434e-06
3.063985161e-06
4.97798744e-06
3.722148297e-06
4.278289609e-06
5.107362985e-06
6.9290623e-06
3.31536916e-06
7.052321152e-06
5.199784136e-06
3.313696143e-06
6.780532029e-06
3.281385617e-06
8.514437047e-06
3.873886206e-06
8.180811111e-06
5.444203477e-06
5.485005098e-06
3.300553908e-06
2.707154327e-06
5.065581779e-06
5.889332866e-06
5.223347451e-06
4.147484779e-06
4.663002582e-06
3.565517953e-06
1.225196631e-06
3.459137284e-06
5.562076217e-06
6.110470068e-06
2.363537396e-06
7.404459959e-06
6.951660537e-06
5.712628413e-06
5.587669626e-06
6.340321031e-06
3.90826292e-06
5.824763901e-06
5.966678517e-06
5.290700017e-06
5.338609541e-06
3.343977269e-06
2.625108517e-06
6.432978385e-06
4.395474491e-06
6.079053047e-06
3.176088953e-06
4.418374381e-06
6.677606894e-06
5.64555203e-06
3.273491723e-06
5.104719076e-06
4.590387745e-06
4.546909564e-06
5.225845497e-06
3.484749595e-06
6.372203106e-06
9.552674174e-06
5.895065766e-06
4.185557313e-06
3.713549353e-06
5.616964479e-06
6.094171052e-06
8.136546915e-06
5.58766972e-06
5.107363028e-06
3.109331812e-06
4.570066531e-06
1.988892839e-06
4.652091485e-06
8.652305713e-06
4.086834716e-06
5.53051083e-06
8.137233184e-06
6.407571103e-06
5.929443938e-06
5.898190669e-06
3.275817907e-06
3.224054829e-06
5.181202328e-06
3.896745774e-06
6.282585601e-06
4.669269395e-06
6.460689893e-06
2.894344246e-06
8.752258276e-06
4.16606207e-06
6.093536842e-06
4.234117674e-06
4.771575627e-06
4.136190476e-06
2.383327387e-06
4.977987522e-06
3.635877682e-06
4.976485401e-06
5.548311206e-06
3.819730547e-06
5.824763901e-06
5.876571323e-06
5.290700017e-06
5.430348656e-06
6.037674583e-06
2.625108494e-06
3.311929719e-06
5.290138442e-06
3.678076792e-06
2.11739262e-06
4.951689703e-06
1.688526506e-06
4.331446955e-06
4.052089969e-06
4.554921855e-06
6.410385163e-06
6.301688614e-06
9.245875694e-06
4.53864176e-06
6.290785753e-06
3.128845466e-06
4.815349509e-06
2.510931106e-06
4.727074868e-06
3.233637093e-06
4.977987481e-06
5.712628413e-06
3.142932753e-06
1.003707395e-05
7.194659415e-06
2.509394763e-06
1.898785611e-06
6.111140312e-06
3.405435305e-06
3.994257189e-06
4.124525302e-06
6.055774405e-06
5.960239139e-06
5.404004439e-06
3.326810857e-06
6.703487328e-06
5.987266265e-06
5.49138982e-06
6.312089882e-06
6.2043134e-06
3.482231634e-06
2.23370445e-06
6.994503873e-06
5.105971981e-06
1.797086231e-06
7.905182553e-06
2.490422189e-06
7.701667425e-06
4.472676842e-06
6.127970323e-06
6.866118337e-06
3.288710006e-06
4.278289609e-06
5.723842008e-06
9.060258564e-06
3.853404979e-06
7.322642888e-06
1.915825595e-06
7.547001169e-06
7.430811985e-06
4.031094058e-06
6.150075483e-06
3.873886206e-06
4.203516334e-06
2.722101758e-06
4.799838227e-06
6.216763501e-06
4.485609174e-06
5.143253877e-06
5.104719076e-06
4.036309689e-06
3.908982788e-06
5.065586558e-06
1.70199066e-06
5.309841331e-06
2.964691424e-06
3.570138425e-06
7.868525124e-06
3.629427752e-06
6.212796326e-06
4.806903081e-06
5.19291945e-06
6.198853902e-06
3.257925944e-06
6.395728369e-06
3.853404979e-06
7.865464111e-06
1.277217064e-06
4.602478976e-06
3.251399779e-06
4.031094021e-06
6.623859377e-06
)
;

boundaryField
{
    flow
    {
        type            zeroGradient;
    }
    obstacle
    {
        type            calculated;
        value           nonuniform List<scalar> 0();
    }
    frontAndBack
    {
        type            empty;
    }
    procBoundary3to1
    {
        type            processor;
        value           nonuniform List<scalar> 
36
(
9.650607078e-06
1.304491817e-05
1.353000206e-05
1.133249172e-05
1.021788197e-05
1.021788197e-05
1.809103252e-05
1.178652348e-05
1.602633324e-05
1.145919154e-05
1.218756373e-05
1.103010696e-05
1.103010696e-05
7.887003576e-06
8.118811737e-06
6.161208339e-06
6.893454069e-06
1.192964802e-05
1.192964802e-05
5.777425506e-06
1.834279665e-06
4.663002582e-06
5.915607107e-06
8.413541543e-06
3.623291326e-06
3.623291326e-06
8.106006601e-06
6.57826075e-06
3.351743664e-06
5.602921992e-06
2.242804603e-06
4.597671923e-06
4.476649688e-06
4.476649688e-06
5.811726706e-06
5.811726706e-06
)
;
    }
    procBoundary3to2
    {
        type            processor;
        value           nonuniform List<scalar> 
19
(
5.251645445e-06
3.845698382e-06
4.881284291e-06
4.881284256e-06
5.251645445e-06
3.180473627e-06
3.106757749e-06
4.363491336e-06
6.878740208e-06
4.66013659e-06
6.360947254e-06
4.216059536e-06
2.144887718e-06
5.769438358e-06
3.698266608e-06
4.363491336e-06
5.399077245e-06
4.80756839e-06
3.698266581e-06
)
;
    }
}


// ************************************************************************* //
