/*--------------------------------*- C++ -*----------------------------------*\
| =========                 |                                                 |
| \\      /  F ield         | OpenFOAM: The Open Source CFD Toolbox           |
|  \\    /   O peration     | Version:  2406                                  |
|   \\  /    A nd           | Website:  www.openfoam.com                      |
|    \\/     M anipulation  |                                                 |
\*---------------------------------------------------------------------------*/
FoamFile
{
    version     2.0;
    format      ascii;
    arch        "LSB;label=32;scalar=64";
    class       volScalarField;
    location    "0.009";
    object      rhoMMean;
}
// * * * * * * * * * * * * * * * * * * * * * * * * * * * * * * * * * * * * * //

dimensions      [1 -3 0 0 0 0 0];

internalField   nonuniform List<scalar> 
654
(
1.158043967e-05
1.16471114e-05
1.184761488e-05
1.184970441e-05
1.183543437e-05
1.19099945e-05
9.444899364e-06
9.838855999e-06
1.030703735e-05
1.064838489e-05
1.103349694e-05
1.139707755e-05
1.147651351e-05
1.159656087e-05
1.180910202e-05
1.18214984e-05
1.181240967e-05
6.824090732e-06
7.22847809e-06
7.53532878e-06
7.931165292e-06
8.348434124e-06
8.821348592e-06
9.257408357e-06
9.638522103e-06
1.010183132e-05
1.047200562e-05
1.085631914e-05
1.121945715e-05
1.136028838e-05
1.153346126e-05
1.17157996e-05
1.172272954e-05
5.335066268e-06
5.441807411e-06
5.523541566e-06
5.692189349e-06
5.861942116e-06
6.095677009e-06
6.307090333e-06
6.61500994e-06
6.975250158e-06
7.326229818e-06
7.725055234e-06
8.106809046e-06
8.543853383e-06
8.973796992e-06
9.39432773e-06
9.831691192e-06
1.024691513e-05
1.066960813e-05
1.107943107e-05
1.130072029e-05
1.142709163e-05
1.162574573e-05
4.878936269e-06
4.898659151e-06
4.909532721e-06
4.9575522e-06
5.044728215e-06
5.082768183e-06
5.146039651e-06
5.193742074e-06
5.31468517e-06
5.437229273e-06
5.55129607e-06
5.690957097e-06
5.860108126e-06
6.075316403e-06
6.274191026e-06
6.507011487e-06
6.82571797e-06
7.14073309e-06
7.52225317e-06
7.961382448e-06
8.406529435e-06
8.825225694e-06
9.225657072e-06
9.69994459e-06
1.01287049e-05
1.054724544e-05
1.08954185e-05
1.121516088e-05
1.144944397e-05
4.892369106e-06
4.903669748e-06
4.935358679e-06
4.965023071e-06
4.977190045e-06
4.979484736e-06
5.02512738e-06
5.087885614e-06
5.137404596e-06
5.191368044e-06
5.247167467e-06
5.365869966e-06
5.466996292e-06
5.622713243e-06
5.75553445e-06
5.97633305e-06
6.161652293e-06
6.383885063e-06
6.648324677e-06
6.949954617e-06
7.356745803e-06
7.715421675e-06
8.151416255e-06
8.544277683e-06
9.022743462e-06
9.532516444e-06
9.88124545e-06
1.03247537e-05
1.063181109e-05
1.094573124e-05
4.839038686e-06
4.833140756e-06
4.8543083e-06
4.882597403e-06
4.902905306e-06
4.934192964e-06
4.975296348e-06
5.009774659e-06
5.053774834e-06
5.137037947e-06
5.205455062e-06
5.244477391e-06
5.328772859e-06
5.443298981e-06
5.579238969e-06
5.670667576e-06
5.804712969e-06
5.967330234e-06
6.228300819e-06
6.445819779e-06
6.674123555e-06
7.091194366e-06
7.510382322e-06
7.951291143e-06
8.412618712e-06
8.780113373e-06
9.295427918e-06
9.771433667e-06
1.023553076e-05
1.057890408e-05
4.857972785e-06
4.890888031e-06
4.888119964e-06
4.900618135e-06
4.927385062e-06
4.91513096e-06
4.91384596e-06
4.934619119e-06
4.961275388e-06
4.979529279e-06
4.995174392e-06
5.0995586e-06
5.154332725e-06
5.206043216e-06
5.328078152e-06
5.462956672e-06
5.615070566e-06
5.811762227e-06
5.900665004e-06
6.102364495e-06
6.386603622e-06
6.623925596e-06
6.899518937e-06
7.309858367e-06
7.705044971e-06
8.084035872e-06
8.545309318e-06
8.963416211e-06
9.438218918e-06
9.869346765e-06
4.854837088e-06
4.852657677e-06
4.865985683e-06
4.881299452e-06
4.859773538e-06
4.865770696e-06
4.892579866e-06
4.909794021e-06
4.930068865e-06
4.957513958e-06
4.973707225e-06
5.039989634e-06
5.082781901e-06
5.119158504e-06
5.176057889e-06
5.271494212e-06
5.347744681e-06
5.483842872e-06
5.662076351e-06
5.861391953e-06
6.052941773e-06
6.335702549e-06
6.571750106e-06
6.803681308e-06
7.14270395e-06
7.57558464e-06
7.95606447e-06
8.391693057e-06
8.849437882e-06
9.341080199e-06
4.802862723e-06
4.802098833e-06
4.801397447e-06
4.795285755e-06
4.839516597e-06
4.859510508e-06
4.900922392e-06
4.91218554e-06
4.93477788e-06
4.919755668e-06
4.9836457e-06
4.970120874e-06
4.978388979e-06
5.044801517e-06
5.104552749e-06
5.153131052e-06
5.243874386e-06
5.396290517e-06
5.539515025e-06
5.633894504e-06
5.791531007e-06
5.978667184e-06
6.273260311e-06
6.494745135e-06
6.793698598e-06
7.140093111e-06
7.476218688e-06
7.864094335e-06
8.242204936e-06
8.638066736e-06
4.784893202e-06
4.785385229e-06
4.826461425e-06
4.828045158e-06
4.836744891e-06
4.837012631e-06
4.829115547e-06
4.833253403e-06
4.867843731e-06
4.897608101e-06
4.912139672e-06
4.936419836e-06
4.969125339e-06
5.017950071e-06
5.024897072e-06
5.048943529e-06
5.080310833e-06
5.175076561e-06
5.265799454e-06
5.407487085e-06
5.554430071e-06
5.73901896e-06
5.896001672e-06
6.163057955e-06
6.408979314e-06
6.661708819e-06
6.963969753e-06
7.288896131e-06
7.719241241e-06
8.191172081e-06
4.894164053e-06
4.868405998e-06
4.826517889e-06
4.83111556e-06
4.830666704e-06
4.85352093e-06
4.852257332e-06
4.856536711e-06
4.878419099e-06
4.85223289e-06
4.882803233e-06
4.933004924e-06
4.932401729e-06
4.932042789e-06
5.004947346e-06
5.095258581e-06
5.132216713e-06
5.165506135e-06
5.255675783e-06
5.2839939e-06
5.409559985e-06
5.488220691e-06
5.618888987e-06
5.770262955e-06
5.959397032e-06
6.226892495e-06
6.536000121e-06
6.835349961e-06
7.20806399e-06
7.591686364e-06
4.761592369e-06
4.808941274e-06
4.811751203e-06
4.807951196e-06
4.790210324e-06
4.803699649e-06
4.800147046e-06
4.789955592e-06
4.788134694e-06
4.824507201e-06
4.837671932e-06
4.827170538e-06
4.890633388e-06
4.927515867e-06
4.948344853e-06
5.006822127e-06
5.054376305e-06
5.096238881e-06
5.146117488e-06
5.226761102e-06
5.286614721e-06
5.35810551e-06
5.445797827e-06
5.567251912e-06
5.716411396e-06
5.897981115e-06
6.110324376e-06
6.430955696e-06
6.70301833e-06
7.035850199e-06
4.781700458e-06
4.773172432e-06
4.777979878e-06
4.790034925e-06
4.798115897e-06
4.76613774e-06
4.807027402e-06
4.790416275e-06
4.806967258e-06
4.852516451e-06
4.839422213e-06
4.874780835e-06
4.869416051e-06
4.905570236e-06
4.956728702e-06
4.975225906e-06
4.996344527e-06
5.015593973e-06
5.016475901e-06
5.110004222e-06
5.131615771e-06
5.226402874e-06
5.341020565e-06
5.451523003e-06
5.580200166e-06
5.734548481e-06
5.900528698e-06
6.090970503e-06
6.35938661e-06
6.640690722e-06
4.759259692e-06
4.736884919e-06
4.741993918e-06
4.759060208e-06
4.757593726e-06
4.809069608e-06
4.845884658e-06
4.851722984e-06
4.844877689e-06
4.842589265e-06
4.858946239e-06
4.879456124e-06
4.867980803e-06
4.880374602e-06
4.842855761e-06
4.879988881e-06
4.88069036e-06
4.885467772e-06
4.927890362e-06
4.955178576e-06
4.975918217e-06
5.046046919e-06
5.095119584e-06
5.18418456e-06
5.296291929e-06
5.439755321e-06
5.608817326e-06
5.813185201e-06
5.935327954e-06
6.172089108e-06
4.791665763e-06
4.783750896e-06
4.784968473e-06
4.791597415e-06
4.788320095e-06
4.807968789e-06
4.793655145e-06
4.83282758e-06
4.85628002e-06
4.842470881e-06
4.834350016e-06
4.839597523e-06
4.840716113e-06
4.81448491e-06
4.812262478e-06
4.821958551e-06
4.797582568e-06
4.829017612e-06
4.859927932e-06
4.899488746e-06
4.943707041e-06
5.022645876e-06
5.108167751e-06
5.188461324e-06
5.219120065e-06
5.271241135e-06
5.381540896e-06
5.533367806e-06
5.773134585e-06
5.953044978e-06
4.813310874e-06
4.852084854e-06
4.876971702e-06
4.834175427e-06
4.814723413e-06
4.791311002e-06
4.766173964e-06
4.755308043e-06
4.737359342e-06
4.736775937e-06
4.742413281e-06
4.739107331e-06
4.765373575e-06
4.79254982e-06
4.817965761e-06
4.847354394e-06
4.897552745e-06
4.936172678e-06
4.98775543e-06
4.989968595e-06
5.062157962e-06
5.051472422e-06
5.01912368e-06
5.069942144e-06
5.134331839e-06
5.174469907e-06
5.251450807e-06
5.349524995e-06
5.451276775e-06
5.656306385e-06
4.82258965e-06
4.809731841e-06
4.813702341e-06
4.822404223e-06
4.81542287e-06
4.827862706e-06
4.830424042e-06
4.831253729e-06
4.794805132e-06
4.797705933e-06
4.786544956e-06
4.813086378e-06
4.814778206e-06
4.840021124e-06
4.857566395e-06
4.856986251e-06
4.869688289e-06
4.891175815e-06
4.875077389e-06
4.886375029e-06
4.910158883e-06
4.913598958e-06
4.9854978e-06
5.008222802e-06
5.101948099e-06
5.151401322e-06
5.248081264e-06
5.302006545e-06
5.374276792e-06
5.469471588e-06
4.775137162e-06
4.736190108e-06
4.749775804e-06
4.764647824e-06
4.772775879e-06
4.781214798e-06
4.769734209e-06
4.8122564e-06
4.826651712e-06
4.814653282e-06
4.840012805e-06
4.848459029e-06
4.846900611e-06
4.815112101e-06
4.804977316e-06
4.806650117e-06
4.780091618e-06
4.811143568e-06
4.813144475e-06
4.83116726e-06
4.852350424e-06
4.908754096e-06
4.914323759e-06
4.97260085e-06
4.994080518e-06
5.016541422e-06
5.064278895e-06
5.140368111e-06
5.245652858e-06
5.295278269e-06
4.786904012e-06
4.771679305e-06
4.798556365e-06
4.786019892e-06
4.797899419e-06
4.794287591e-06
4.809099492e-06
4.781650104e-06
4.801184616e-06
4.782669196e-06
4.801703403e-06
4.761537511e-06
4.764640682e-06
4.81034166e-06
4.825106649e-06
4.844193883e-06
4.879432501e-06
4.857929834e-06
4.888558409e-06
4.898739718e-06
4.890355737e-06
4.888973484e-06
4.876063628e-06
4.93595853e-06
4.982996873e-06
5.059795408e-06
5.035514001e-06
5.066639696e-06
5.156377043e-06
5.221195917e-06
4.807385946e-06
4.824539433e-06
4.783467037e-06
4.79090947e-06
4.782892503e-06
4.797801998e-06
4.829353893e-06
4.852843456e-06
4.85421681e-06
4.863437333e-06
4.861776657e-06
4.874481117e-06
4.901997661e-06
4.880106869e-06
4.87709158e-06
4.893654129e-06
4.885633175e-06
4.854936466e-06
4.859272924e-06
4.864277505e-06
4.896389394e-06
4.950544627e-06
4.980312384e-06
4.978791769e-06
4.946992917e-06
4.990691098e-06
5.071363121e-06
5.148336053e-06
5.198885923e-06
5.264462856e-06
4.84290664e-06
4.845340947e-06
4.864117029e-06
4.867639764e-06
4.866095289e-06
4.854861593e-06
4.828475695e-06
4.798765536e-06
4.813669328e-06
4.811316159e-06
4.786686548e-06
4.819430283e-06
4.811945241e-06
4.806719251e-06
4.824618609e-06
4.83281216e-06
4.849757879e-06
4.857307777e-06
4.860241902e-06
4.875745698e-06
4.85591388e-06
4.843261839e-06
4.853038751e-06
4.867046575e-06
4.903470119e-06
4.965254123e-06
4.960344815e-06
4.979612771e-06
4.997536338e-06
5.065735187e-06
4.816231618e-06
4.802383873e-06
4.80673149e-06
4.824714553e-06
4.831566872e-06
4.823746072e-06
4.82979599e-06
4.808650956e-06
4.824148576e-06
4.834902386e-06
4.834525967e-06
4.8522137e-06
4.860700043e-06
4.883823434e-06
4.845721543e-06
4.846162513e-06
4.836525266e-06
4.865951897e-06
4.876548502e-06
4.870518646e-06
4.866758172e-06
4.847476287e-06
4.882971828e-06
4.883441785e-06
4.889449444e-06
4.87342597e-06
4.950730649e-06
4.969938514e-06
5.021958549e-06
5.045153421e-06
4.696587396e-06
4.725116564e-06
4.71999012e-06
4.739349382e-06
4.721288327e-06
4.714332496e-06
4.746647997e-06
4.765712791e-06
4.749316714e-06
4.745492081e-06
4.775128662e-06
4.711499592e-06
4.704468803e-06
4.696433854e-06
4.708005809e-06
4.747035485e-06
4.75768152e-06
4.733996183e-06
4.712629662e-06
4.74406698e-06
4.775072418e-06
4.820410704e-06
4.795026165e-06
4.798645589e-06
4.785774104e-06
4.792174822e-06
4.803133559e-06
4.828006748e-06
4.85005975e-06
4.928937566e-06
)
;

boundaryField
{
    flow
    {
        type            calculated;
        value           nonuniform List<scalar> 
55
(
1.158043967e-05
1.19099945e-05
1.181240967e-05
1.172272954e-05
1.162574573e-05
1.144944397e-05
1.094573124e-05
1.057890408e-05
9.869346765e-06
9.341080199e-06
8.638066736e-06
8.191172081e-06
7.591686364e-06
7.035850199e-06
6.640690722e-06
6.172089108e-06
5.953044978e-06
5.656306385e-06
5.469471588e-06
5.295278269e-06
5.221195917e-06
5.264462856e-06
5.065735187e-06
5.045153421e-06
4.928937566e-06
4.696587396e-06
4.725116564e-06
4.71999012e-06
4.739349382e-06
4.721288327e-06
4.714332496e-06
4.746647997e-06
4.765712791e-06
4.749316714e-06
4.745492081e-06
4.775128662e-06
4.711499592e-06
4.704468803e-06
4.696433854e-06
4.708005809e-06
4.747035485e-06
4.75768152e-06
4.733996183e-06
4.712629662e-06
4.74406698e-06
4.775072418e-06
4.820410704e-06
4.795026165e-06
4.798645589e-06
4.785774104e-06
4.792174822e-06
4.803133559e-06
4.828006748e-06
4.85005975e-06
4.928937566e-06
)
;
    }
    obstacle
    {
        type            calculated;
        value           nonuniform List<scalar> 0();
    }
    frontAndBack
    {
        type            empty;
    }
    procBoundary3to1
    {
        type            processor;
        value           nonuniform List<scalar> 
36
(
1.147683301e-05
1.187396478e-05
1.190908654e-05
1.184691516e-05
1.173544045e-05
1.173544045e-05
1.007115984e-05
1.049573581e-05
1.095971749e-05
1.119357309e-05
1.146485785e-05
1.149953547e-05
1.149953547e-05
7.370701763e-06
7.738317817e-06
8.110389802e-06
8.56276469e-06
8.975829162e-06
8.975829162e-06
5.519736923e-06
5.617405403e-06
5.857527857e-06
6.036964911e-06
6.257070481e-06
6.510021152e-06
6.510021152e-06
4.936120442e-06
4.952892902e-06
4.990600887e-06
5.068845275e-06
5.076070969e-06
5.140520622e-06
5.239393663e-06
5.239393663e-06
4.85006279e-06
4.85006279e-06
)
;
    }
    procBoundary3to2
    {
        type            processor;
        value           nonuniform List<scalar> 
19
(
4.876128582e-06
4.822811819e-06
4.864552043e-06
4.838078573e-06
4.803111239e-06
4.800728426e-06
4.86847221e-06
4.764945159e-06
4.761356068e-06
4.786865531e-06
4.782657514e-06
4.826236008e-06
4.81391548e-06
4.773897338e-06
4.75333604e-06
4.842076439e-06
4.813227713e-06
4.811232905e-06
4.722077e-06
)
;
    }
}


// ************************************************************************* //
