/*--------------------------------*- C++ -*----------------------------------*\
| =========                 |                                                 |
| \\      /  F ield         | OpenFOAM: The Open Source CFD Toolbox           |
|  \\    /   O peration     | Version:  2406                                  |
|   \\  /    A nd           | Website:  www.openfoam.com                      |
|    \\/     M anipulation  |                                                 |
\*---------------------------------------------------------------------------*/
FoamFile
{
    version     2.0;
    format      ascii;
    arch        "LSB;label=32;scalar=64";
    class       volScalarField;
    location    "0.009";
    object      rhoN;
}
// * * * * * * * * * * * * * * * * * * * * * * * * * * * * * * * * * * * * * //

dimensions      [0 -3 0 0 0 0 0];

internalField   nonuniform List<scalar> 
654
(
2.279177441e+20
3.158708895e+20
1.801524349e+20
2.097677277e+20
2.96383217e+20
2.136728831e+20
2.867000299e+20
2.234436969e+20
1.458337486e+20
3.075898137e+20
1.753878045e+20
2.450045928e+20
1.922692337e+20
2.355839513e+20
1.957832125e+20
4.516315688e+20
2.991420391e+20
8.749726551e+19
1.638330863e+20
1.27071904e+20
1.537630572e+20
1.938267371e+20
2.476045733e+20
2.365874438e+20
1.723489741e+20
2.139755226e+20
2.158619132e+20
1.361136627e+20
2.609368195e+20
1.940103145e+20
3.216438491e+20
3.24610193e+20
2.706523211e+20
1.429878853e+20
1.441099645e+20
1.210414948e+20
1.220064989e+20
6.149350687e+19
2.107718058e+20
8.749726551e+19
1.638330877e+20
1.651934766e+20
2.178309977e+20
2.067485196e+20
2.736682103e+20
2.365874438e+20
1.458337486e+20
1.604816419e+20
2.158619132e+20
2.313932286e+20
2.06002754e+20
1.801524333e+20
2.097677258e+20
2.540427574e+20
2.991420391e+20
9.039820138e+19
1.366059765e+20
1.261606224e+20
1.155575207e+20
1.164367461e+20
1.173294533e+20
1.064123585e+20
1.310722282e+20
1.681282932e+20
8.472904767e+19
1.708090998e+20
1.106883124e+20
7.439004971e+19
1.124964851e+20
1.008203608e+20
1.143647127e+20
1.793902305e+20
2.067485179e+20
2.345727517e+20
2.365874418e+20
1.988641993e+20
2.006020507e+20
2.023705437e+20
1.769477615e+20
1.78535717e+20
2.078681923e+20
2.796903036e+20
1.834753248e+20
1.851831654e+20
7.851865717e+19
4.519910004e+19
1.024544809e+20
1.261606215e+20
1.271132728e+20
9.314939619e+19
1.642612322e+20
9.458876172e+19
8.340959913e+19
6.004581855e+19
6.05207474e+19
8.540454859e+19
9.838960944e+19
9.918673137e+19
1.37495704e+20
1.890381796e+20
1.524862861e+20
1.922038215e+20
1.421396084e+20
1.303181976e+20
9.200622892e+19
1.856065891e+20
2.006020524e+20
1.484050666e+20
1.36113665e+20
1.236016524e+20
2.217260738e+20
3.076593339e+20
1.975888113e+20
2.564074621e+20
7.851865717e+19
1.129977509e+20
9.1070651e+19
1.146914749e+20
6.933451245e+19
9.314939619e+19
1.407953429e+20
1.064123585e+20
1.310722282e+20
3.602749113e+19
7.262489688e+19
1.09805849e+20
6.149350687e+19
9.918673216e+19
1.499953123e+20
1.26025451e+20
8.895033282e+19
8.96951167e+19
1.550613897e+20
1.433500149e+20
1.051499741e+20
2.253794277e+20
1.738551121e+20
1.618964349e+20
9.527956387e+19
1.236016513e+20
2.632997126e+20
2.097677277e+20
1.411348665e+20
1.709383081e+20
1.009525599e+20
1.694966264e+20
5.691915646e+19
8.028403246e+19
1.50224777e+20
1.164367461e+20
1.407953429e+20
9.458876244e+19
7.149394266e+19
1.200916371e+20
1.573539445e+20
1.098058499e+20
1.229870137e+20
1.239834152e+20
1.249960936e+20
1.008203616e+20
7.624314304e+19
1.409494691e+20
1.938267371e+20
1.172863759e+20
1.182937219e+20
1.193185216e+20
9.361429112e+19
1.484050653e+20
1.497250302e+20
2.609368195e+20
2.355839513e+20
1.957832125e+20
1.693618383e+20
1.994280261e+20
1.346034123e+20
1.581968513e+20
3.415149412e+19
1.376297699e+20
1.040017687e+20
8.150572167e+19
1.407953429e+20
8.276516776e+19
1.07240914e+20
1.681282932e+20
1.089373462e+20
9.760519839e+19
4.919480511e+19
1.363817567e+20
1.62494923e+20
1.764356329e+20
1.397790933e+20
1.281358799e+20
1.162960423e+20
1.303181965e+20
1.577249639e+20
1.32576134e+20
9.361429032e+19
1.753878045e+20
1.361136627e+20
3.021373699e+20
1.247209165e+20
1.817986973e+20
1.693618383e+20
1.13958871e+20
1.682542654e+20
9.039820007e+19
9.107064967e+19
1.261606215e+20
3.466725648e+19
1.047930723e+20
9.386356265e+19
1.182359539e+20
4.766262844e+19
1.681282919e+20
8.472904702e+19
1.220064999e+20
1.229870137e+20
6.19917076e+19
2.374925778e+20
1.764356329e+20
1.397790956e+20
8.96951167e+19
1.292178248e+20
1.433500149e+20
1.314374677e+20
1.32576134e+20
6.68673508e+19
1.214223262e+20
1.633363952e+20
1.510686836e+20
1.662945524e+20
1.678141806e+20
1.552483518e+20
2.136728851e+20
1.009525599e+20
7.909842621e+19
4.55353255e+19
1.032223267e+20
9.244601591e+19
8.150572167e+19
8.213061608e+19
9.458876172e+19
1.429878842e+20
1.441099645e+20
1.089373453e+20
1.464077976e+20
1.106883115e+20
7.439004912e+19
8.749726551e+19
1.134229059e+20
1.397790944e+20
1.025087048e+20
7.753069486e+19
1.69413654e+20
3.943124063e+19
6.628806754e+19
1.738551121e+20
1.484050653e+20
8.166819831e+19
1.510686863e+20
1.524366757e+20
6.992257589e+19
1.834753265e+20
2.279177441e+20
5.608475552e+19
7.909842564e+19
1.252221451e+20
1.146914749e+20
1.50224777e+20
5.821837262e+19
7.039767146e+19
1.182359539e+20
7.149394266e+19
1.200916371e+20
1.452497949e+20
1.220064999e+20
1.229870137e+20
9.918673216e+19
6.249804729e+19
7.561527183e+19
1.016575232e+20
7.688152797e+19
1.550613897e+20
1.824454751e+20
1.314374688e+20
1.32576134e+20
1.203612314e+20
1.079309575e+20
1.088909311e+20
8.240110088e+19
1.385787961e+20
1.817986989e+20
1.693618398e+20
1.709383065e+20
8.973560819e+19
9.039820007e+19
7.968681904e+19
9.175317996e+19
1.61780529e+20
9.314939689e+19
8.21306167e+19
9.458876244e+19
5.957828555e+19
7.205498226e+19
1.089373453e+20
3.660194968e+19
1.35285714e+20
1.363817556e+20
8.749726551e+19
5.041018041e+19
1.27071904e+20
8.96951167e+19
3.876534775e+19
2.085091144e+20
5.257498751e+19
1.325761351e+20
1.203612314e+20
4.047410873e+19
5.444546554e+19
9.61346177e+19
9.700515641e+19
1.53829667e+20
1.834753248e+20
1.566934491e+20
5.608475552e+19
1.016979766e+20
6.830298775e+19
6.881488446e+19
8.089026452e+19
4.65746981e+19
7.039767146e+19
4.729438158e+19
1.549035424e+20
4.803665521e+19
6.052074834e+19
1.220064989e+20
1.35285714e+20
2.479668304e+19
1.124964842e+20
1.26025452e+20
8.895033354e+19
5.12543524e+19
2.584356495e+19
1.303181965e+20
9.200622814e+19
6.628806642e+19
1.471081705e+20
1.349136958e+20
1.361136627e+20
6.866758407e+19
1.108630369e+20
9.789160625e+19
1.270213787e+20
1.282037299e+20
3.365085307e+19
1.355973001e+20
7.968681904e+19
9.175317996e+19
1.271132728e+20
1.397240953e+20
1.05596508e+20
1.300595493e+20
1.07240914e+20
1.441099645e+20
1.331456443e+20
9.760519915e+19
9.838961099e+19
1.115850737e+20
6.249804679e+19
6.301272551e+19
1.27071904e+20
8.96951167e+19
1.292178248e+20
1.69413654e+20
6.571873439e+19
1.458337486e+20
1.337347016e+20
1.349136958e+20
1.088909301e+20
1.648022003e+20
6.928939743e+19
8.390709107e+19
7.056743326e+19
1.424485913e+20
5.608475512e+19
1.24297526e+20
2.049089647e+20
1.146914749e+20
9.244601728e+19
9.314939689e+19
4.693178062e+19
1.418831437e+20
1.310722282e+20
8.406414597e+19
7.262489688e+19
6.100324947e+19
1.106883124e+20
1.487800982e+20
1.37495704e+20
1.512305437e+20
8.895033282e+19
1.281358799e+20
1.550613897e+20
6.51590977e+19
1.445812157e+20
7.954568105e+19
9.361429112e+19
8.094821746e+19
1.361136639e+20
4.12005508e+19
1.247209154e+20
1.118761204e+20
1.129078922e+20
5.69794355e+19
6.730170662e+19
1.24297526e+20
9.107065033e+19
1.032223275e+20
8.089026452e+19
8.150572167e+19
9.386356194e+19
9.458876244e+19
9.532525615e+19
1.200916371e+20
1.089373462e+20
7.320389936e+19
1.35285714e+20
4.959336608e+19
8.749726551e+19
1.134229059e+20
8.895033282e+19
3.84407643e+19
1.421396072e+20
6.515909824e+19
1.05149975e+20
5.303045358e+19
6.68673508e+19
1.079309575e+20
8.166819831e+19
1.373351681e+20
1.524366757e+20
1.118761214e+20
1.129078922e+20
1.709383081e+20
2.243390205e+20
9.039820073e+19
1.366059755e+20
1.261606215e+20
9.24460166e+19
8.150572227e+19
1.055965072e+20
1.18235953e+20
7.149394266e+19
9.607331042e+19
1.089373462e+20
8.540454926e+19
1.229870137e+20
1.115850746e+20
3.749882838e+19
1.134229068e+20
5.082876202e+19
6.406793997e+19
1.03374259e+20
7.819091724e+19
9.200622814e+19
1.060609072e+20
1.471081705e+20
6.745684789e+19
1.497250302e+20
1.098681345e+20
6.928939743e+19
1.398451518e+20
7.056743262e+19
1.709383065e+20
7.851865717e+19
1.694966251e+20
1.138383129e+20
1.146914749e+20
6.933451245e+19
5.821837262e+19
1.055965072e+20
1.182359539e+20
1.07240914e+20
8.406414597e+19
9.683319659e+19
7.320389993e+19
2.459740275e+19
7.439004912e+19
1.124964851e+20
1.26025452e+20
5.08287612e+19
1.537630559e+20
1.421396072e+20
1.172863759e+20
1.182937209e+20
1.32576134e+20
8.024082096e+19
1.214223262e+20
1.225022964e+20
1.098681345e+20
1.108630369e+20
6.992257589e+19
5.645394661e+19
1.282037322e+20
8.973560948e+19
1.242975269e+20
6.830298825e+19
9.175317996e+19
1.386690249e+20
1.164367452e+20
7.039767146e+19
1.064123585e+20
9.532525688e+19
9.607330968e+19
1.089373453e+20
7.320389879e+19
1.35285714e+20
1.983734643e+20
1.249960936e+20
8.821781643e+19
7.624314304e+19
1.153222929e+20
1.292178248e+20
1.694136554e+20
1.182937229e+20
1.060609081e+20
6.68673508e+19
9.443958704e+19
4.08340988e+19
9.61346177e+19
1.801524349e+20
8.390709107e+19
1.129078922e+20
1.709383065e+20
1.346034123e+20
1.242975251e+20
1.252221442e+20
6.881488497e+19
6.933451245e+19
1.047930715e+20
8.21306167e+19
1.300595484e+20
9.532525688e+19
1.321008008e+20
6.052074787e+19
1.830097498e+20
8.609090894e+19
1.239834142e+20
8.749726551e+19
1.008203608e+20
8.895033282e+19
5.12543524e+19
1.033742607e+20
7.819091789e+19
1.051499741e+20
1.193185206e+20
8.024082096e+19
1.214223262e+20
1.225022975e+20
1.098681345e+20
1.108630359e+20
1.258606366e+20
5.64539461e+19
7.122429502e+19
1.121695102e+20
7.909842564e+19
4.553532517e+19
1.032223267e+20
3.466725648e+19
9.314939689e+19
8.21306167e+19
9.458876244e+19
1.310722272e+20
1.321008018e+20
1.936663932e+20
9.760519915e+19
1.352857151e+20
6.19917076e+19
9.999687487e+19
5.041018082e+19
1.01657524e+20
6.40679405e+19
1.033742598e+20
1.172863759e+20
6.571873439e+19
1.988642009e+20
1.471081705e+20
5.396547877e+19
4.083409916e+19
1.236016513e+20
6.928939743e+19
8.390709032e+19
8.468091915e+19
1.282037299e+20
1.233864621e+20
1.129977509e+20
6.830298775e+19
1.376297699e+20
1.271132728e+20
1.164367461e+20
1.290623977e+20
1.300595484e+20
7.149394266e+19
4.803665484e+19
1.452497949e+20
1.09805849e+20
3.689610383e+19
1.611784398e+20
4.999843783e+19
1.638330877e+20
8.89503321e+19
1.281358799e+20
1.421396072e+20
6.515909824e+19
9.200622814e+19
1.193185206e+20
1.872285822e+20
8.094821746e+19
1.497250302e+20
4.120055044e+19
1.524366744e+20
1.53829667e+20
8.468091991e+19
1.282037322e+20
7.851865717e+19
9.039820073e+19
5.691915687e+19
1.032223275e+20
1.271132728e+20
9.314939619e+19
1.055965072e+20
1.064123585e+20
8.340959977e+19
8.406414597e+19
1.089373453e+20
3.660194968e+19
1.106883124e+20
6.19917076e+19
7.499765615e+19
1.638330877e+20
7.624314304e+19
1.28135881e+20
1.033742598e+20
1.042545563e+20
1.314374688e+20
6.628806754e+19
1.337347016e+20
8.094821746e+19
1.633363952e+20
2.746703363e+19
9.700515727e+19
6.992257589e+19
8.468091915e+19
1.424485887e+20
)
;

boundaryField
{
    flow
    {
        type            zeroGradient;
    }
    obstacle
    {
        type            calculated;
        value           nonuniform List<scalar> 0();
    }
    frontAndBack
    {
        type            empty;
    }
    procBoundary3to1
    {
        type            processor;
        value           nonuniform List<scalar> 
36
(
1.994280261e+20
2.746703339e+20
2.771575897e+20
2.37736758e+20
2.117022979e+20
2.117022979e+20
3.779227666e+20
2.497311886e+20
3.314403321e+20
2.407224608e+20
2.563360242e+20
2.313932306e+20
2.313932306e+20
1.62494923e+20
1.63833089e+20
1.27071904e+20
1.409494679e+20
2.455138671e+20
2.455138671e+20
1.191565711e+20
3.602749113e+19
9.683319659e+19
1.220064989e+20
1.721818179e+20
7.439004912e+19
7.439004912e+19
1.694966251e+20
1.366059755e+20
6.881488497e+19
1.155575216e+20
4.657469844e+19
9.386356194e+19
9.458876315e+19
9.458876315e+19
1.233864621e+20
1.233864621e+20
)
;
    }
    procBoundary3to2
    {
        type            processor;
        value           nonuniform List<scalar> 
19
(
1.113533235e+20
7.794732648e+19
1.002179912e+20
1.002179905e+20
1.113533235e+20
6.681199412e+19
6.68119946e+19
8.908265883e+19
1.447593206e+20
1.002179912e+20
1.336239882e+20
8.908265883e+19
4.454132941e+19
1.22488655e+20
7.794732703e+19
8.908265883e+19
1.113533235e+20
1.002179912e+20
7.794732648e+19
)
;
    }
}


// ************************************************************************* //
