/*--------------------------------*- C++ -*----------------------------------*\
| =========                 |                                                 |
| \\      /  F ield         | OpenFOAM: The Open Source CFD Toolbox           |
|  \\    /   O peration     | Version:  2406                                  |
|   \\  /    A nd           | Website:  www.openfoam.com                      |
|    \\/     M anipulation  |                                                 |
\*---------------------------------------------------------------------------*/
FoamFile
{
    version     2.0;
    format      ascii;
    arch        "LSB;label=32;scalar=64";
    class       volScalarField;
    location    "0.009";
    object      rhoNMean;
}
// * * * * * * * * * * * * * * * * * * * * * * * * * * * * * * * * * * * * * //

dimensions      [0 -3 0 0 0 0 0];

internalField   nonuniform List<scalar> 
654
(
2.41437698e+20
2.428146832e+20
2.468765855e+20
2.46947892e+20
2.4652811e+20
2.481454416e+20
1.969165852e+20
2.051388388e+20
2.149353763e+20
2.219847452e+20
2.300038666e+20
2.374880939e+20
2.391585116e+20
2.416875773e+20
2.460994981e+20
2.463712934e+20
2.460878531e+20
1.423011083e+20
1.507432428e+20
1.571201736e+20
1.653807104e+20
1.739961083e+20
1.839397904e+20
1.930699583e+20
2.010620186e+20
2.10709424e+20
2.183982907e+20
2.262572043e+20
2.338115978e+20
2.367603334e+20
2.404000313e+20
2.443138629e+20
2.444512771e+20
1.112154476e+20
1.134278856e+20
1.150970125e+20
1.186743659e+20
1.222244943e+20
1.270995317e+20
1.315320004e+20
1.379558615e+20
1.45454974e+20
1.528091567e+20
1.61137499e+20
1.690342833e+20
1.781941577e+20
1.871061725e+20
1.958797315e+20
2.049968636e+20
2.13749873e+20
2.225104414e+20
2.310724416e+20
2.35635971e+20
2.381823349e+20
2.423525345e+20
1.017331314e+20
1.021281459e+20
1.023175391e+20
1.032981518e+20
1.050751072e+20
1.058885279e+20
1.072373828e+20
1.082365333e+20
1.108285697e+20
1.134024333e+20
1.157733234e+20
1.1866607e+20
1.221484616e+20
1.266571538e+20
1.308704295e+20
1.357636212e+20
1.42435843e+20
1.489450781e+20
1.569002113e+20
1.660142842e+20
1.75339301e+20
1.840991886e+20
1.92488865e+20
2.023647194e+20
2.113099916e+20
2.198814341e+20
2.271644646e+20
2.338510627e+20
2.386805243e+20
1.019371582e+20
1.021374108e+20
1.028010553e+20
1.034593557e+20
1.037424062e+20
1.037994772e+20
1.047595563e+20
1.061101984e+20
1.071508838e+20
1.082719513e+20
1.094295807e+20
1.118474236e+20
1.139761634e+20
1.172993306e+20
1.200490269e+20
1.246223697e+20
1.284442816e+20
1.331104006e+20
1.386736992e+20
1.449283155e+20
1.53428419e+20
1.609297512e+20
1.699619463e+20
1.78089078e+20
1.881272336e+20
1.986660041e+20
2.060297155e+20
2.152279039e+20
2.216131017e+20
2.282089723e+20
1.008154631e+20
1.007035956e+20
1.011541959e+20
1.017466305e+20
1.021759598e+20
1.028214085e+20
1.036801261e+20
1.043997199e+20
1.053026338e+20
1.070283357e+20
1.084800775e+20
1.093368018e+20
1.110682056e+20
1.13461356e+20
1.163296978e+20
1.182454798e+20
1.210712863e+20
1.24374381e+20
1.298093553e+20
1.343377877e+20
1.391280199e+20
1.477605205e+20
1.565557855e+20
1.657549666e+20
1.753718677e+20
1.831135575e+20
1.93850179e+20
2.036891251e+20
2.133927818e+20
2.205040863e+20
1.012716199e+20
1.019390377e+20
1.018852901e+20
1.02174812e+20
1.027075244e+20
1.024099994e+20
1.023660363e+20
1.027890826e+20
1.033458181e+20
1.037698493e+20
1.041198946e+20
1.062920627e+20
1.074004595e+20
1.084551812e+20
1.109604211e+20
1.137785787e+20
1.170134578e+20
1.212108485e+20
1.230986429e+20
1.272542698e+20
1.331169475e+20
1.380942484e+20
1.438301856e+20
1.524344877e+20
1.606564698e+20
1.685590816e+20
1.781907735e+20
1.869667526e+20
1.968455011e+20
2.058667023e+20
1.012691265e+20
1.012309184e+20
1.014982405e+20
1.017542766e+20
1.013054265e+20
1.014836797e+20
1.020349065e+20
1.02437003e+20
1.028797835e+20
1.034229187e+20
1.037218026e+20
1.050719961e+20
1.059683432e+20
1.066780856e+20
1.079466273e+20
1.099390032e+20
1.114844162e+20
1.14371239e+20
1.180964773e+20
1.222848037e+20
1.263406169e+20
1.322343821e+20
1.371761401e+20
1.419441984e+20
1.489446439e+20
1.580208963e+20
1.65995841e+20
1.751016684e+20
1.846608577e+20
1.947810347e+20
1.000626811e+20
1.000406747e+20
1.000613466e+20
9.997273493e+19
1.009228035e+20
1.013258447e+20
1.021783099e+20
1.023818263e+20
1.028400646e+20
1.025128901e+20
1.038482237e+20
1.03643166e+20
1.038338361e+20
1.052261021e+20
1.064966717e+20
1.074717049e+20
1.093298433e+20
1.125289307e+20
1.155523219e+20
1.175412203e+20
1.208494494e+20
1.247629805e+20
1.309173572e+20
1.355372969e+20
1.417487683e+20
1.489018399e+20
1.558734271e+20
1.639824235e+20
1.718646299e+20
1.801784733e+20
9.975608515e+19
9.978705902e+19
1.006507775e+20
1.006685299e+20
1.008123804e+20
1.008523338e+20
1.006478109e+20
1.00758051e+20
1.01479031e+20
1.021125847e+20
1.024333823e+20
1.028975691e+20
1.036069926e+20
1.046364921e+20
1.047883918e+20
1.053068669e+20
1.059807918e+20
1.080100053e+20
1.098523801e+20
1.127802623e+20
1.158694308e+20
1.197044654e+20
1.229705441e+20
1.285967367e+20
1.337301624e+20
1.390198141e+20
1.453106461e+20
1.519992493e+20
1.609784288e+20
1.70799025e+20
1.02016924e+20
1.014770024e+20
1.005850043e+20
1.006659819e+20
1.006480326e+20
1.011473068e+20
1.011588466e+20
1.01257271e+20
1.017305846e+20
1.011865447e+20
1.018201062e+20
1.028677469e+20
1.028444739e+20
1.028125583e+20
1.043384067e+20
1.062506592e+20
1.069917194e+20
1.076910884e+20
1.095480003e+20
1.10194171e+20
1.128142399e+20
1.144397188e+20
1.171515986e+20
1.203040426e+20
1.242989978e+20
1.298275123e+20
1.362876267e+20
1.426203024e+20
1.504403587e+20
1.584629756e+20
9.923511938e+19
1.002089158e+20
1.002966132e+20
1.002530926e+20
9.992387216e+19
1.001226642e+20
1.00074201e+20
9.985945848e+19
9.981348772e+19
1.005940926e+20
1.008706021e+20
1.006743404e+20
1.019890301e+20
1.027905159e+20
1.03168998e+20
1.043854808e+20
1.053567275e+20
1.062047131e+20
1.072450524e+20
1.089547001e+20
1.10229303e+20
1.117086514e+20
1.13582368e+20
1.161307112e+20
1.191901983e+20
1.230217917e+20
1.274586165e+20
1.34164331e+20
1.398144702e+20
1.467726961e+20
9.970623204e+19
9.950833123e+19
9.96085238e+19
9.984529996e+19
1.000342938e+20
9.938781825e+19
1.002488915e+20
9.991200855e+19
1.00290114e+20
1.011918829e+20
1.009028814e+20
1.016395474e+20
1.015708743e+20
1.023111142e+20
1.033912132e+20
1.037777589e+20
1.0426391e+20
1.046499977e+20
1.046463375e+20
1.065336776e+20
1.069521288e+20
1.08930443e+20
1.112821302e+20
1.136542954e+20
1.163802063e+20
1.195731531e+20
1.230086985e+20
1.269669671e+20
1.326009104e+20
1.384125454e+20
9.919772954e+19
9.878765525e+19
9.889513704e+19
9.923106412e+19
9.921768731e+19
1.002830882e+20
1.010284813e+20
1.011758195e+20
1.010235889e+20
1.009810546e+20
1.012875229e+20
1.016937725e+20
1.014205576e+20
1.016967075e+20
1.008996244e+20
1.01702539e+20
1.017168234e+20
1.018025337e+20
1.027339137e+20
1.033075774e+20
1.037801045e+20
1.052242053e+20
1.062566782e+20
1.081018473e+20
1.104335516e+20
1.134907301e+20
1.170128549e+20
1.212364236e+20
1.237439146e+20
1.286595677e+20
9.990315113e+19
9.97544145e+19
9.97451305e+19
9.990901818e+19
9.990332934e+19
1.002546259e+20
9.995426343e+19
1.007055024e+20
1.011851123e+20
1.009036622e+20
1.008087365e+20
1.009400435e+20
1.009750713e+20
1.003852385e+20
1.003551978e+20
1.005375053e+20
9.999146937e+19
1.006635473e+20
1.012838026e+20
1.021260258e+20
1.030703422e+20
1.047557697e+20
1.065300914e+20
1.081618089e+20
1.088062381e+20
1.098498241e+20
1.122488238e+20
1.154064336e+20
1.203911764e+20
1.241170381e+20
1.003892197e+20
1.011832083e+20
1.017082082e+20
1.008087091e+20
1.003450151e+20
9.988202755e+19
9.939890477e+19
9.921310193e+19
9.887082609e+19
9.884075474e+19
9.890704089e+19
9.883068665e+19
9.936530718e+19
9.997196046e+19
1.004885262e+20
1.010948162e+20
1.021884014e+20
1.029671465e+20
1.040691646e+20
1.041097592e+20
1.056027041e+20
1.053685651e+20
1.046845525e+20
1.057363614e+20
1.071335524e+20
1.07979013e+20
1.095480781e+20
1.116492615e+20
1.13789201e+20
1.180613914e+20
1.005238224e+20
1.00266671e+20
1.003497377e+20
1.005283514e+20
1.003604228e+20
1.00619461e+20
1.00626953e+20
1.006529531e+20
9.987174204e+19
9.992691765e+19
9.973012306e+19
1.002595183e+20
1.003410049e+20
1.008481107e+20
1.012440589e+20
1.012712527e+20
1.015360998e+20
1.020160927e+20
1.016341256e+20
1.018827652e+20
1.023430549e+20
1.024194827e+20
1.039267217e+20
1.044082101e+20
1.063501427e+20
1.073716863e+20
1.093848621e+20
1.105211773e+20
1.12023447e+20
1.140443402e+20
9.95267601e+19
9.870479024e+19
9.896596977e+19
9.924890502e+19
9.943853057e+19
9.962327923e+19
9.942758531e+19
1.003061284e+20
1.006131607e+20
1.003992773e+20
1.009217093e+20
1.011325434e+20
1.010679948e+20
1.004293215e+20
1.002190909e+20
1.002238412e+20
9.968084835e+19
1.002848346e+20
1.003247191e+20
1.007185893e+20
1.011718001e+20
1.023693984e+20
1.024883315e+20
1.036886704e+20
1.04102754e+20
1.045853084e+20
1.055754859e+20
1.07189755e+20
1.094265665e+20
1.104514722e+20
9.974112993e+19
9.942295515e+19
9.999304505e+19
9.974335271e+19
1.000625412e+20
9.996482701e+19
1.002541061e+20
9.969655636e+19
1.000835759e+20
9.969207101e+19
1.000959366e+20
9.924550797e+19
9.930791324e+19
1.002529895e+20
1.005274138e+20
1.009239826e+20
1.016829384e+20
1.01227346e+20
1.018925621e+20
1.021173388e+20
1.019604266e+20
1.019775631e+20
1.016621483e+20
1.029181633e+20
1.039121948e+20
1.054581497e+20
1.04941103e+20
1.055457976e+20
1.073691328e+20
1.087262595e+20
1.001773433e+20
1.005554423e+20
9.967682679e+19
9.982745979e+19
9.966194178e+19
9.998294014e+19
1.00626953e+20
1.011127596e+20
1.011083225e+20
1.013199799e+20
1.01282144e+20
1.015609218e+20
1.021147502e+20
1.016195615e+20
1.01569048e+20
1.019433876e+20
1.017648284e+20
1.011333797e+20
1.012292448e+20
1.013267417e+20
1.019662666e+20
1.030676327e+20
1.037335502e+20
1.036796762e+20
1.030289693e+20
1.040176563e+20
1.057664158e+20
1.073575692e+20
1.084574394e+20
1.098626837e+20
1.009600372e+20
1.01007434e+20
1.01437526e+20
1.01481565e+20
1.013978733e+20
1.011757699e+20
1.006399896e+20
1.000223613e+20
1.003271842e+20
1.003005361e+20
9.972474344e+19
1.004221936e+20
1.002754119e+20
1.001841099e+20
1.0058019e+20
1.007027379e+20
1.010504027e+20
1.01227346e+20
1.012263724e+20
1.015902732e+20
1.01206851e+20
1.009081148e+20
1.011301805e+20
1.01416125e+20
1.022092626e+20
1.035079903e+20
1.0338594e+20
1.038490088e+20
1.042077118e+20
1.056462045e+20
1.003892197e+20
1.000557418e+20
1.001144719e+20
1.00520706e+20
1.006428967e+20
1.004771494e+20
1.005852359e+20
1.00166872e+20
1.005257792e+20
1.007488774e+20
1.007952882e+20
1.011542326e+20
1.013740951e+20
1.018206909e+20
1.009968444e+20
1.010612103e+20
1.008329669e+20
1.014124303e+20
1.016800706e+20
1.015120831e+20
1.014288342e+20
1.010406909e+20
1.018018267e+20
1.017968806e+20
1.019340105e+20
1.015944536e+20
1.031826911e+20
1.035599964e+20
1.046311174e+20
1.051017362e+20
9.785668073e+19
9.848130651e+19
9.838160048e+19
9.878504172e+19
9.840621672e+19
9.827520046e+19
9.894001625e+19
9.93418485e+19
9.899527927e+19
9.888078528e+19
9.949341892e+19
9.813931649e+19
9.797965428e+19
9.783944571e+19
9.808860117e+19
9.889077193e+19
9.911890977e+19
9.867601822e+19
9.822851888e+19
9.888834262e+19
9.952737219e+19
1.00463249e+20
9.993548468e+19
1.000070256e+20
9.973199301e+19
9.987318616e+19
1.00130879e+20
1.006014945e+20
1.010901995e+20
1.02775074e+20
)
;

boundaryField
{
    flow
    {
        type            calculated;
        value           nonuniform List<scalar> 
55
(
2.41437698e+20
2.481454416e+20
2.460878531e+20
2.444512771e+20
2.423525345e+20
2.386805243e+20
2.282089723e+20
2.205040863e+20
2.058667023e+20
1.947810347e+20
1.801784733e+20
1.70799025e+20
1.584629756e+20
1.467726961e+20
1.384125454e+20
1.286595677e+20
1.241170381e+20
1.180613914e+20
1.140443402e+20
1.104514722e+20
1.087262595e+20
1.098626837e+20
1.056462045e+20
1.051017362e+20
1.02775074e+20
9.785668073e+19
9.848130651e+19
9.838160048e+19
9.878504172e+19
9.840621672e+19
9.827520046e+19
9.894001625e+19
9.93418485e+19
9.899527927e+19
9.888078528e+19
9.949341892e+19
9.813931649e+19
9.797965428e+19
9.783944571e+19
9.808860117e+19
9.889077193e+19
9.911890977e+19
9.867601822e+19
9.822851888e+19
9.888834262e+19
9.952737219e+19
1.00463249e+20
9.993548468e+19
1.000070256e+20
9.973199301e+19
9.987318616e+19
1.00130879e+20
1.006014945e+20
1.010901995e+20
1.02775074e+20
)
;
    }
    obstacle
    {
        type            calculated;
        value           nonuniform List<scalar> 0();
    }
    frontAndBack
    {
        type            empty;
    }
    procBoundary3to1
    {
        type            processor;
        value           nonuniform List<scalar> 
36
(
2.392028379e+20
2.475390087e+20
2.481915421e+20
2.468733079e+20
2.445710398e+20
2.445710398e+20
2.099339249e+20
2.187966503e+20
2.284551921e+20
2.333343616e+20
2.389321573e+20
2.397143126e+20
2.397143126e+20
1.536785318e+20
1.613825941e+20
1.69073404e+20
1.784847384e+20
1.871246393e+20
1.871246393e+20
1.150496413e+20
1.171187019e+20
1.221496979e+20
1.258700381e+20
1.304837545e+20
1.357701052e+20
1.357701052e+20
1.028781738e+20
1.032209929e+20
1.039818399e+20
1.05606735e+20
1.0580219e+20
1.071765438e+20
1.092027271e+20
1.092027271e+20
1.011320312e+20
1.011320312e+20
)
;
    }
    procBoundary3to2
    {
        type            processor;
        value           nonuniform List<scalar> 
19
(
1.015765017e+20
1.004778156e+20
1.014032854e+20
1.008836359e+20
1.001066379e+20
1.00059622e+20
1.015369102e+20
9.930241941e+19
9.929252134e+19
9.972556204e+19
9.973793463e+19
1.006856751e+20
1.00265007e+20
9.955729409e+19
9.902774859e+19
1.008885856e+20
1.003689368e+20
1.002897522e+20
9.839179668e+19
)
;
    }
}


// ************************************************************************* //
