/*--------------------------------*- C++ -*----------------------------------*\
| =========                 |                                                 |
| \\      /  F ield         | OpenFOAM: The Open Source CFD Toolbox           |
|  \\    /   O peration     | Version:  2406                                  |
|   \\  /    A nd           | Website:  www.openfoam.com                      |
|    \\/     M anipulation  |                                                 |
\*---------------------------------------------------------------------------*/
FoamFile
{
    version     2.0;
    format      ascii;
    arch        "LSB;label=32;scalar=64";
    class       volScalarField;
    location    "0.009";
    object      translationalT;
}
// * * * * * * * * * * * * * * * * * * * * * * * * * * * * * * * * * * * * * //

dimensions      [1 2 -2 0 0 0 0];

internalField   nonuniform List<scalar> 
654
(
752.5644897
771.8310417
767.6223673
761.8445782
752.8013655
748.0970498
756.8991737
765.1265793
771.3936303
764.4572987
767.6311099
766.8437238
759.3956286
762.6905581
755.5108348
746.9086703
743.699179
657.553927
688.1541379
700.1156704
721.9566714
729.1050509
740.9712942
746.3663472
751.375677
753.5249493
754.970122
761.4454966
758.9035403
751.1023398
751.5423513
750.387853
744.4668281
464.5737283
488.383453
511.2321051
544.8293475
564.5167767
590.3647309
618.0639831
647.0439766
667.4832118
691.4148448
706.5743673
719.6432788
733.6528461
738.1850652
738.8290865
739.5409491
744.9794014
749.7261211
749.7295063
746.949612
743.4157165
740.3723407
338.046391
347.63047
354.627702
370.7813891
389.9326985
399.4565896
411.6953851
423.8889404
447.12287
471.0894642
486.6978958
513.2083076
542.2107281
565.5051671
594.0867216
619.5889279
639.731685
660.1558954
683.686199
704.5827671
725.4411438
730.9312264
727.8156061
736.5579935
743.8682119
741.7680989
743.9619732
738.0091274
731.0250972
326.2508644
331.5342276
341.0711106
342.1652946
352.9647769
361.1466194
375.285459
390.54199
396.5233643
414.9935772
433.560091
458.0908376
476.5572716
499.5071377
526.2987365
550.8414021
577.0171839
601.1872033
621.263936
644.1903231
666.8273403
689.0404788
704.2967138
715.2875697
729.8991682
729.6067234
732.9968521
735.2687794
730.4669345
731.0768404
320.1854158
322.1775782
331.4846852
336.5759235
344.0558602
349.2774828
354.1813626
366.01811
378.0773335
393.1416197
406.138758
422.713646
442.4436717
464.8731959
495.9809899
510.2897856
537.0942222
562.3910327
583.7004179
607.8684795
624.0658383
655.3573597
671.1872753
689.8664686
706.0801889
712.6512198
722.5774477
725.4270507
725.92976
720.3128495
316.5211521
321.7421562
320.1725457
323.3603254
329.2387586
337.2306188
342.8948782
347.2259859
363.3963519
374.2466241
387.2123573
402.2208421
406.746963
423.7883095
452.8822523
468.6008322
497.4142154
528.331263
544.127919
568.1580597
593.5418702
622.3851575
638.6208789
663.8363644
680.2784418
690.2626855
704.4282992
714.4420984
721.7358889
718.8638728
314.9476275
315.5426467
319.7444501
320.3327928
320.5280388
327.7786706
336.8572343
338.2049485
349.317359
357.0198176
367.8031558
375.8435474
388.7917407
397.5038617
417.9072769
434.396084
454.1335279
482.1716626
506.6346464
533.2512717
551.9824785
588.405138
611.1052955
624.3292476
651.3769146
670.7125091
683.495221
698.175491
702.22959
713.4224197
310.9191124
311.5123154
313.7846111
316.3049895
321.9833797
324.3377086
328.7466039
333.6730188
339.8434381
342.5012409
352.7957025
362.1803006
366.5974388
380.1116254
391.3932206
403.2996761
419.3546989
441.496115
464.6208586
484.4737961
512.1855659
534.776678
567.9290189
581.6684618
607.7943197
632.1949003
648.96621
666.6533183
683.5108062
693.3945106
308.4602
309.3995487
309.2553052
312.9981713
313.4785447
319.1579984
319.235179
323.4958026
328.2696038
331.2933974
338.3651291
348.7653814
353.2703506
366.6482786
382.2499177
395.4006198
404.1992475
421.3354834
432.5701513
457.3245169
473.4423914
494.172281
518.6377121
545.4611082
565.360956
591.1968455
615.8115649
632.8877797
653.1744002
667.9891409
304.7913601
303.4439037
303.7556709
308.3135518
310.1615009
314.1268193
315.1005851
319.517031
324.7963258
323.9906084
330.4499917
340.4018911
346.5583237
347.1614076
358.5728872
370.7274637
377.4471346
392.6669348
414.4852995
427.2886171
442.6535068
456.688498
488.96956
507.3143022
530.2312884
557.8961775
581.1777884
604.2056758
623.9647739
647.0863793
305.3027488
306.3603228
308.9897231
310.1128288
307.444997
310.190228
311.9051747
316.7017416
317.2765768
322.823147
321.7217234
326.2462224
331.013758
336.7488689
348.1359985
358.9276142
363.526761
370.8432456
385.3169608
397.754156
418.4480397
432.8644519
454.8111686
476.2833294
500.2928102
521.004539
543.6017933
574.4679396
598.9306421
617.2389917
302.1523098
301.0657704
302.8695777
308.2676307
308.6309525
307.1982898
310.5090792
311.1995782
314.0412087
318.6433483
324.0615182
326.0286309
324.8190137
328.7261767
333.1098775
345.0882511
349.8013075
357.8368674
366.8491157
385.6306984
387.1923214
404.898055
424.8450723
442.901422
460.0173932
478.9555056
505.111713
531.9162479
553.7766009
583.8683439
300.2608149
300.6446326
300.285751
301.058233
304.171485
305.3621529
309.6239474
310.1531791
311.2975334
314.5610706
320.0912621
318.5180269
326.2043864
328.3184757
329.6580806
336.4098572
341.1284606
349.7598594
354.9623922
365.973481
374.480951
390.2365048
404.663901
431.6332372
435.7574944
454.4181425
477.4497567
507.0942284
523.2078782
549.2281229
301.3307398
300.3439769
300.2548018
301.5124538
305.6272049
305.2237577
307.2247651
307.5902937
308.4540135
309.9102123
315.2847693
316.1959544
319.9282892
319.7836567
325.9947092
331.7381334
334.6201563
340.8823996
347.2520859
354.474072
366.2993151
372.5114718
386.3651857
403.2150811
407.7233144
421.5968571
439.448355
462.3892958
492.9570912
512.9094539
304.1325978
303.3663663
304.0046448
301.7143295
301.0309143
303.765159
304.9632069
303.9868479
305.6639575
307.3926795
309.9781682
313.3443133
316.8825237
314.7225199
317.0127195
320.5033368
327.1212722
328.3808101
332.5039241
336.736328
344.2936406
350.6994657
358.1160386
372.3844667
387.004369
402.9728481
416.157106
438.3893825
454.5101002
478.6682856
301.1731671
303.4857406
303.448504
304.6310652
303.125076
302.4227127
304.6281522
304.9101402
302.879156
303.491136
303.6050608
304.2866808
307.9084704
311.1318295
311.6665095
313.4767027
317.2480237
323.1415605
326.7466064
327.393025
332.9694467
343.8615309
350.9918033
359.6946747
375.4493154
380.8364323
396.8177158
410.0573049
425.8692264
448.2500699
298.7352772
296.9258723
297.6864394
300.7892862
303.5781367
303.2721522
303.0574297
303.9888813
302.4053524
300.9943282
303.1436211
305.414751
307.2379551
308.0899853
310.1905635
310.5816774
314.1747598
319.0131891
321.4652083
324.7720421
327.2596242
334.8899176
340.0816342
354.4423854
358.0771931
374.1815775
380.886103
391.6752225
405.2451393
417.6151543
299.9724642
300.2000442
300.1463605
301.6666511
301.8217225
302.5791854
300.967505
299.5686576
302.578724
301.7119724
303.060988
302.1924999
301.9751971
304.7423514
308.8809128
310.1056032
311.4860069
309.8457224
315.743671
317.9132535
321.4178578
324.7193852
326.3175208
336.4407885
343.7066608
356.9036786
364.7435452
372.5379272
393.9980577
402.087389
301.8585894
302.3932402
299.5328774
297.9909061
296.299201
296.2843076
297.6691397
298.3582338
301.4044157
301.6119225
300.8056253
302.0725499
300.0744102
302.2169691
305.3508963
306.3822002
308.1224099
310.4029424
311.2683159
313.9080413
316.1585131
319.4209577
323.278685
327.0196665
328.8000696
337.4164831
346.2169314
360.0379001
367.7506433
383.1670715
301.7224246
301.0004275
300.7144805
300.1739939
302.0575009
301.2655657
299.7786017
300.3897529
298.6891664
300.5983414
301.6491589
306.2164035
308.5470345
306.0567073
306.3327647
307.5405296
309.8098583
308.3063396
306.4276781
311.2344566
316.1378986
320.5508211
319.172711
324.935856
325.574895
335.5059822
340.5322176
347.2633487
356.6511706
368.1000255
299.8430557
300.3000524
300.0937633
300.4665371
302.5877143
303.9017514
302.7961941
301.9715463
302.7629273
300.6438438
300.6439469
300.5472064
301.8408496
303.7180429
305.3458858
303.677122
302.9951017
306.2485168
306.43613
306.989975
312.4454545
314.1657426
316.4060147
317.0151799
320.8585056
323.3302382
330.4412416
336.3711599
344.5970613
355.7567922
297.5163236
300.4068077
303.0305186
301.6216633
300.0213454
299.2631202
301.3354624
301.7492803
301.9560823
301.9718594
303.5979881
303.0721248
303.2472344
301.4923734
301.6501647
305.5206307
304.4212479
307.0948825
304.4888717
303.9359247
304.9180369
310.2181796
313.837817
313.9228079
317.9131284
314.6287358
317.9283154
327.6807028
329.8959702
340.9465892
)
;

boundaryField
{
    flow
    {
        type            calculated;
        value           nonuniform List<scalar> 
55
(
752.5644897
748.0970498
743.699179
744.4668281
740.3723407
731.0250972
731.0768404
720.3128495
718.8638728
713.4224197
693.3945106
667.9891409
647.0863793
617.2389917
583.8683439
549.2281229
512.9094539
478.6682856
448.2500699
417.6151543
402.087389
383.1670715
368.1000255
355.7567922
340.9465892
297.5163236
300.4068077
303.0305186
301.6216633
300.0213454
299.2631202
301.3354624
301.7492803
301.9560823
301.9718594
303.5979881
303.0721248
303.2472344
301.4923734
301.6501647
305.5206307
304.4212479
307.0948825
304.4888717
303.9359247
304.9180369
310.2181796
313.837817
313.9228079
317.9131284
314.6287358
317.9283154
327.6807028
329.8959702
340.9465892
)
;
    }
    obstacle
    {
        type            calculated;
        value           nonuniform List<scalar> 0();
    }
    frontAndBack
    {
        type            empty;
    }
    procBoundary3to1
    {
        type            processor;
        value           nonuniform List<scalar> 
36
(
758.6200887
774.4363979
769.7226612
769.4175767
761.2452802
761.2452802
770.1102823
769.636608
774.1395801
769.351173
775.2435089
769.5394568
769.5394568
705.3236203
722.9269526
738.2906231
748.9351119
754.2240706
754.2240706
509.1698943
528.7683647
563.8523046
587.2835869
607.9708936
632.9323514
632.9323514
353.5459475
359.8467343
370.3604602
394.8459808
416.0140536
421.2169568
437.785869
437.785869
333.8278391
333.8278391
)
;
    }
    procBoundary3to2
    {
        type            processor;
        value           nonuniform List<scalar> 
19
(
319.3537882
313.3560483
311.7780801
310.6400993
306.1858409
305.8305204
301.4752188
304.2848318
301.6151939
301.0414665
301.2024962
302.4952057
300.2821397
298.7727337
298.1846874
300.4075001
300.9680406
299.8854062
297.480097
)
;
    }
}


// ************************************************************************* //
