/*--------------------------------*- C++ -*----------------------------------*\
| =========                 |                                                 |
| \\      /  F ield         | OpenFOAM: The Open Source CFD Toolbox           |
|  \\    /   O peration     | Version:  2406                                  |
|   \\  /    A nd           | Website:  www.openfoam.com                      |
|    \\/     M anipulation  |                                                 |
\*---------------------------------------------------------------------------*/
FoamFile
{
    version     2.0;
    format      ascii;
    arch        "LSB;label=32;scalar=64";
    class       volVectorField;
    location    "0.009";
    object      UMean;
}
// * * * * * * * * * * * * * * * * * * * * * * * * * * * * * * * * * * * * * //

dimensions      [0 1 -1 0 0 0 0];

internalField   nonuniform List<vector> 
654
(
(1308.895408 415.0672184 -0.774062663)
(1350.696203 437.0576823 -1.451416958)
(1341.068219 438.2864948 0.558142747)
(1334.485653 433.6727675 -0.8636624825)
(1335.730024 429.0085792 -0.4092966907)
(1328.958774 424.0653102 -0.1745457129)
(1432.154293 380.0775606 0.7729719981)
(1421.880995 390.6878949 -0.1512607561)
(1406.979325 409.2636492 -2.644049151)
(1398.629301 417.3195573 -5.998779583)
(1386.462495 430.1325907 -0.4948764839)
(1369.221018 434.3729352 -4.949084659)
(1370.512768 432.0025449 -3.080724748)
(1365.181657 437.3357354 -3.098647477)
(1359.544001 439.8371998 -2.463149684)
(1357.021535 435.5498451 -0.07894054046)
(1351.198067 429.3085009 1.784125689)
(1553.265427 238.3437989 0.4121871437)
(1532.380899 261.2823821 -2.413029175)
(1516.45365 285.9059961 0.6604352868)
(1496.934418 308.5224177 -4.170235396)
(1477.951778 328.1829111 -3.625510035)
(1463.57916 355.6646929 -4.081733043)
(1446.290822 369.7442033 -2.694005135)
(1432.003527 384.2706951 -5.613871026)
(1420.3516 402.639848 -5.907212132)
(1412.905008 413.6745233 -2.90439318)
(1401.963899 427.3200425 -0.3958150462)
(1387.123827 435.2922009 -2.581599351)
(1383.876451 434.6839037 -1.292860435)
(1375.453699 432.3468255 -0.1056930034)
(1370.319123 436.5291121 -3.782107738)
(1370.591598 433.0194035 -2.239588197)
(1666.780786 81.9337735 1.059001857)
(1658.150231 94.61909711 0.184977841)
(1645.918152 113.7350648 1.223879906)
(1633.398699 132.4468483 5.115129269)
(1626.024009 153.9372411 5.379517516)
(1606.165163 174.1586669 -1.685674484)
(1588.105538 193.873097 -0.9064840477)
(1566.452911 221.1102926 -3.249587962)
(1553.413905 245.7518235 -4.25904672)
(1533.17164 274.2058736 -3.879526208)
(1515.124996 296.196667 -4.976209972)
(1495.366561 318.2889499 -0.4389658624)
(1478.546137 345.491802 -2.759199443)
(1462.691381 362.7087178 1.249394867)
(1447.789414 376.6666093 -0.9159782846)
(1434.482269 393.8266836 -3.875223671)
(1425.45893 410.2713374 -4.350230826)
(1411.356038 424.6415307 -4.410593046)
(1398.782487 427.7276334 0.005498933182)
(1394.556921 433.3516299 2.000058815)
(1388.147519 436.1507699 0.747782876)
(1385.411031 433.007103 -0.3579879517)
(1722.841796 15.27729079 2.364368794)
(1716.982409 19.40224152 2.385104513)
(1714.285974 24.92154293 3.397262506)
(1709.869669 29.75811214 2.080998746)
(1703.664112 37.98208658 0.1463668293)
(1701.530746 45.65362369 1.133831652)
(1693.499636 54.90813568 2.086293418)
(1685.366661 63.19721608 2.524555533)
(1675.700707 74.9166428 -1.161136916)
(1664.799142 89.8449836 -3.278984988)
(1654.444713 103.7645391 -5.215379676)
(1641.141751 122.4619522 -3.137226415)
(1629.752087 139.8053342 -0.3177295698)
(1617.468169 163.4317705 -1.279239229)
(1598.951713 186.9215576 -1.264870059)
(1580.378062 207.9072007 -1.861952802)
(1563.573678 229.5070068 -1.045004657)
(1548.164432 259.294724 -1.059038124)
(1528.138497 282.0025527 0.7865784743)
(1506.214323 307.5168951 1.602104838)
(1492.662597 332.9310724 -3.275123878)
(1476.504408 353.0239511 1.089792661)
(1466.599058 371.4183894 0.08885522022)
(1448.849417 387.6313228 -1.957584653)
(1439.00708 401.5809269 -1.565907126)
(1429.18407 415.4158684 -0.2537978675)
(1414.751845 422.4588534 -3.026525361)
(1411.477506 425.6053394 1.969649541)
(1403.755529 434.5679199 1.886246968)
(1726.8787 11.59169448 -0.768653495)
(1726.479494 15.84893104 -0.5338018866)
(1721.531757 18.32691912 2.396743261)
(1723.426129 17.8657285 1.289361979)
(1718.773696 20.39845676 2.235132356)
(1713.995004 26.80068639 2.852178491)
(1707.57365 37.22118782 2.459675602)
(1702.518856 45.52219328 -0.01365642799)
(1698.20068 50.32226703 -2.203549794)
(1688.994955 57.85217838 -0.1492686585)
(1680.941074 67.23499964 0.4898714148)
(1672.192607 82.05755776 1.545954253)
(1663.031475 95.37943088 1.41715184)
(1650.704171 112.5982552 3.466342101)
(1636.79147 129.9526054 5.36374712)
(1624.792995 150.6139463 3.973265906)
(1610.627825 175.0580672 0.6196939403)
(1597.082471 199.5819959 -1.113565591)
(1582.728059 220.5297438 -2.551237259)
(1562.628348 245.8425573 -2.952505317)
(1540.824928 269.8168339 -2.998986308)
(1523.828077 296.3875627 -3.195660244)
(1505.962193 322.006626 -2.07885416)
(1490.898699 342.0794708 3.634276735)
(1474.863317 361.1075942 1.227691549)
(1458.730517 380.9888672 -1.456315142)
(1448.663915 395.345792 -0.5801054078)
(1440.103735 409.8304068 -2.242967946)
(1430.817946 420.5218854 -3.094714504)
(1423.947249 427.3975065 -2.258480143)
(1730.795628 9.635297705 2.005459608)
(1730.590653 7.78295909 1.220857458)
(1727.914144 12.72297853 1.595574365)
(1724.120618 14.7119956 1.233220285)
(1721.764725 18.2746042 -1.041451213)
(1717.956801 21.77148386 0.7358918611)
(1715.269976 24.14200779 1.509110872)
(1713.547515 28.73384556 0.9781655444)
(1709.93244 37.42351895 2.086637997)
(1700.598543 46.40898448 -0.4142814637)
(1692.599154 55.5691039 -2.445073874)
(1685.125713 62.70679758 -4.049072581)
(1679.596652 75.55028814 -4.122750216)
(1668.243142 90.51312586 -5.321929766)
(1651.816453 108.4058562 -4.759784475)
(1643.465211 123.2926407 -4.184709996)
(1630.952665 144.3242478 2.00564761)
(1617.58985 165.9148946 1.035112934)
(1601.857993 186.2070612 2.794399882)
(1589.069761 208.466482 0.787546098)
(1579.404905 230.5559681 1.916932692)
(1551.994895 262.4519129 0.7218945856)
(1534.621089 285.480794 -3.853778382)
(1516.258539 306.0100038 -2.952256029)
(1497.183824 328.2156819 -0.4799274524)
(1485.409135 350.1835724 1.14883241)
(1470.390616 370.8095629 0.4075302891)
(1459.41649 387.6806056 -0.5082476227)
(1448.211601 401.896901 -5.388458181)
(1437.916246 412.2849148 -5.098443702)
(1731.679216 8.436808532 1.292318903)
(1728.805806 8.616455938 1.436981942)
(1728.093655 7.886830142 -0.01057067234)
(1725.651929 10.96175361 -1.829570649)
(1724.12169 13.25364914 -1.71985965)
(1723.162977 16.83679322 -3.773658666)
(1718.996797 21.16546283 -2.634505806)
(1715.169824 24.60531073 -2.387695806)
(1711.700058 29.27988888 -1.808422954)
(1707.657244 33.37184168 0.1736025107)
(1701.702563 37.38571317 -0.8115169195)
(1694.216425 47.2376565 -1.879161829)
(1691.307062 56.38769939 1.235384501)
(1684.997615 70.34153739 -0.02150995885)
(1672.207588 86.04698848 -0.7135255777)
(1666.463851 101.8722606 -0.7747656121)
(1654.12465 117.2472792 -1.386448643)
(1639.31614 136.5784748 -1.819589639)
(1631.609304 157.0459514 -3.46779569)
(1615.788996 178.4445984 -2.567968612)
(1599.013105 199.6061501 -3.009432579)
(1583.5781 222.6991811 -3.773367223)
(1568.659131 241.092772 -1.238428292)
(1544.48568 270.3419722 -4.052496984)
(1525.185482 296.8534185 -2.313232071)
(1514.442774 319.2479822 -2.978092146)
(1495.930174 344.0022963 -4.128723618)
(1483.543741 365.727025 -0.4898445339)
(1463.593266 384.4769752 1.155364584)
(1456.004052 394.7913602 -1.984966796)
(1731.772288 4.151844006 0.287297382)
(1729.054428 5.711461006 0.1179328123)
(1729.936204 7.931265805 -1.159786407)
(1727.85352 9.440892405 -1.704638619)
(1729.375382 14.00464753 0.1125594317)
(1727.030245 16.18356787 -0.7543418423)
(1724.336613 17.56143387 -4.357213312)
(1724.348068 18.39562621 -3.32252871)
(1720.337775 21.96734431 -2.837506172)
(1718.122759 25.83015289 -1.957448747)
(1713.949519 35.00632604 -0.4336301087)
(1710.341608 41.2496078 -2.16115418)
(1704.034599 49.23319933 -1.311450029)
(1698.45124 54.22659792 0.5028109576)
(1693.46575 63.46994588 0.1920936249)
(1684.425934 75.12464774 -3.762375144)
(1672.10994 91.41634219 -5.060552359)
(1659.449527 112.8321918 -5.395878447)
(1648.378272 128.3167326 -5.008186063)
(1635.080503 147.0649564 -5.420098198)
(1623.130607 164.1296976 -4.535179906)
(1599.114536 186.5780725 -2.463375025)
(1585.241548 211.7364251 -2.760825264)
(1575.718063 234.3162977 -1.947589752)
(1556.11494 259.3931127 -2.103510662)
(1535.168237 290.3748777 -4.382321606)
(1520.506033 309.7838366 -2.152591391)
(1502.061005 330.461439 -1.679943927)
(1491.461262 350.4344931 -0.1545741305)
(1478.018064 372.6474667 -0.1328846176)
(1730.935676 -0.661736674 -0.5883391831)
(1731.948925 1.025023752 -0.645517483)
(1729.909027 5.459634994 0.8498068807)
(1729.430959 7.976410552 0.4275669515)
(1727.370596 9.442731923 1.32223752)
(1727.051289 11.16443343 2.18127405)
(1725.635731 12.10984334 4.086102422)
(1725.81011 17.25310053 2.173690338)
(1721.414158 20.41637492 2.040056991)
(1720.041787 21.76460942 1.822035895)
(1716.579556 26.31514806 0.8226498413)
(1713.445222 31.67846074 1.781606002)
(1711.624549 35.29479261 -1.027502121)
(1706.144628 45.16981804 -3.178545669)
(1700.217917 53.98530952 -4.11222602)
(1695.426893 61.1915512 -3.59051026)
(1688.747219 72.26612901 -1.956196751)
(1680.46649 82.93544602 0.7249057204)
(1669.33677 99.32117054 1.157480398)
(1655.058048 118.1521262 -2.79207408)
(1641.608827 138.0570099 -0.7760491649)
(1628.79682 154.1317428 -2.259162067)
(1612.45939 180.8660345 -0.6625893949)
(1599.674976 198.1765272 0.1178028571)
(1582.913455 224.1791115 -0.9306385659)
(1564.972781 245.4308981 -1.178659045)
(1550.302237 273.6379544 -0.6696734192)
(1533.832005 302.539528 0.4302374841)
(1519.3467 330.0391818 1.460673383)
(1499.761264 347.3699904 2.698353983)
(1732.968922 2.193068596 2.052592827)
(1732.295436 2.812777344 0.05871626622)
(1731.791083 2.467125022 -1.225011651)
(1731.474464 1.492393717 -0.4653740421)
(1730.374008 3.123906031 -1.542057815)
(1730.667067 5.076984517 -0.9616770341)
(1729.312036 8.277072749 0.2828151324)
(1727.789787 11.64653201 1.550239974)
(1725.889298 15.76372714 -0.6632068938)
(1724.267747 17.48275925 -1.529941778)
(1723.307929 21.43580412 -1.880311877)
(1716.502026 27.30806001 -1.129122241)
(1714.492221 34.63507252 2.632567407)
(1714.008953 37.16552308 1.473677269)
(1707.312986 41.29245884 0.1041628164)
(1704.723564 46.16673484 -0.09286107151)
(1699.869457 53.47741389 1.746451215)
(1690.292625 65.80540067 -1.458185273)
(1682.902422 76.88583129 -0.2017456032)
(1673.641835 91.403543 0.7584308219)
(1666.051972 103.4182251 -2.216681547)
(1657.924125 124.2775406 -2.860243717)
(1642.779362 142.244425 -1.822074389)
(1626.821078 165.0961303 -3.44886441)
(1609.204995 186.3617068 -4.289836583)
(1592.258531 217.1041799 -1.961939809)
(1580.624363 245.2006357 -1.264725083)
(1562.59404 269.113142 1.372414691)
(1543.750376 291.6086545 -1.839551627)
(1528.905804 312.5487492 -3.616125647)
(1732.884867 5.079498768 -4.130025527)
(1734.42124 4.46872691 -2.673082469)
(1734.72001 3.808312329 -1.576439467)
(1734.196695 2.834509987 -0.2560840799)
(1732.891402 4.23504894 -0.6775615399)
(1732.646178 7.898376869 -0.06327356502)
(1732.460912 8.607058427 -0.5903568871)
(1728.503335 9.261735114 -0.6251759142)
(1726.75108 11.48804444 -1.610683706)
(1729.631155 15.28939386 0.942555443)
(1726.878889 18.34343879 1.208760744)
(1723.49339 22.33146575 -1.539211637)
(1720.698158 24.40685705 -2.141525858)
(1718.693316 25.10550741 -1.470054247)
(1714.574653 32.49663788 -1.682856966)
(1709.466924 39.27572851 -0.9815116741)
(1706.833005 44.47826235 -2.983956427)
(1701.316888 49.93770133 2.930277631)
(1694.788137 58.94402155 -1.564148153)
(1687.896939 72.53713385 2.240553668)
(1678.169288 83.77279656 2.595895435)
(1670.910886 97.47904389 2.174047362)
(1659.942467 118.5327626 2.477529292)
(1650.72047 138.3935956 2.294315134)
(1638.198103 158.1817599 1.328894139)
(1618.824641 182.1186442 1.180223408)
(1599.533245 206.4725465 0.533167817)
(1588.021121 232.7568392 -1.455383767)
(1573.315685 254.461817 -2.276986624)
(1553.01076 278.6718773 -2.701390085)
(1737.387204 0.3090418621 1.094424924)
(1736.686114 2.032219739 0.09049754992)
(1734.410603 4.165203888 -1.563926596)
(1731.295673 5.17026829 -3.932390513)
(1730.339322 5.956822883 -2.294073062)
(1729.983848 3.523353289 -1.68747851)
(1731.788975 4.811813842 -0.5659015471)
(1730.789278 7.280215252 -2.557279713)
(1731.262915 11.56949198 -0.8723707507)
(1728.21217 12.72576068 -0.2510272323)
(1729.381306 12.57824245 -0.4164998116)
(1729.071436 11.28190124 1.231799658)
(1726.389546 14.93715489 0.002867879655)
(1723.497385 20.16864254 4.36213171)
(1718.277917 27.30624275 5.054442687)
(1715.931344 29.52042461 3.694680307)
(1711.404583 31.80497543 2.996657053)
(1708.549686 36.12092821 0.1823523706)
(1700.636243 48.34658283 -1.588685827)
(1696.097526 57.726472 -0.5603469608)
(1687.261217 70.51419234 -1.05259526)
(1682.984446 80.42416954 -0.3028480758)
(1670.763722 95.61110619 -0.4147060493)
(1660.470324 114.6890386 -0.5067211204)
(1649.724958 128.982762 1.218555141)
(1639.281368 146.9016504 0.6042886413)
(1627.251833 169.6119223 0.0290362769)
(1608.240703 194.0449259 -4.016785995)
(1591.46639 219.1324524 -1.22462312)
(1575.608294 247.7156448 0.2295463109)
(1732.475953 -0.9863573156 -3.460260015)
(1732.530004 0.7174225371 -3.451410733)
(1733.08338 1.904649278 -3.123003567)
(1732.381658 3.291206919 -2.273533364)
(1734.658563 5.576282581 -1.721826384)
(1733.729604 6.043896522 -1.824073949)
(1730.345979 6.462383413 -2.019939103)
(1731.770698 5.296160434 0.4535402762)
(1732.375393 5.077317533 0.9945661769)
(1730.359796 6.744050225 -1.004972889)
(1728.751113 10.29138397 -1.370703558)
(1727.403383 11.75299294 0.8421793875)
(1727.732986 10.11855347 0.2241837091)
(1727.438034 8.976050489 -2.673217044)
(1722.42518 12.30202789 -2.138175952)
(1719.121929 21.55923611 -3.575358994)
(1714.895702 27.74423027 -2.532083918)
(1712.556639 34.33410142 0.04836375771)
(1709.059571 38.97738333 0.3865877951)
(1699.803839 44.35123868 -1.339360143)
(1699.402061 51.46977235 -0.6133170052)
(1691.070426 66.3628389 -2.123596372)
(1684.321792 79.70518576 -0.5446680661)
(1674.261456 87.14746327 2.77502767)
(1665.343393 105.9367728 2.726218681)
(1658.277845 119.6764828 3.549928694)
(1643.782479 141.2101583 3.30554711)
(1628.378972 163.1774845 4.860704554)
(1615.048544 184.503192 3.240172403)
(1599.247819 211.1695087 2.686357626)
(1735.185304 1.014767474 -0.8512752727)
(1738.885277 -0.7800388444 -0.3947655452)
(1737.960018 0.3645990717 0.5633632847)
(1738.431296 1.558468901 -0.02267100485)
(1735.447572 0.7892188009 0.6574723413)
(1735.046273 2.02464342 0.1134512554)
(1731.798908 2.203720586 0.6659803195)
(1731.591806 3.738887454 -0.7979169761)
(1729.709737 4.453044366 -2.792429915)
(1730.090795 5.277513913 -4.736737988)
(1728.418722 3.716724267 -2.725736809)
(1728.857466 4.617619009 -2.366911215)
(1727.265173 9.957086321 -1.035133266)
(1727.354278 12.27241115 0.5464350952)
(1726.074042 14.47855392 1.70803931)
(1720.746235 13.97514649 0.5301253324)
(1722.09905 17.59689661 1.779249242)
(1717.165011 24.89028209 -2.158067203)
(1715.879172 31.3498697 -0.4515946386)
(1713.543689 40.78652463 2.453520402)
(1709.073476 43.45794856 2.803376803)
(1701.139643 49.94804924 3.306181083)
(1694.593967 57.18974243 -0.1271773755)
(1683.632583 70.99398359 -1.390031571)
(1678.901015 76.91583198 -2.952907817)
(1669.037555 94.98815083 -2.51418022)
(1659.068381 113.8062822 -2.564130828)
(1644.646568 134.9954792 0.006956347958)
(1634.330043 155.7166532 1.088413529)
(1620.294365 183.0132678 1.397346005)
(1735.893285 3.694098034 3.761788197)
(1733.137835 3.926426205 3.89257617)
(1735.05336 1.093387032 4.278299306)
(1733.144692 -0.8204842596 1.830863323)
(1733.693905 -0.7128435631 0.2264583215)
(1736.762854 -2.304479813 -0.7450150732)
(1735.832272 -2.735050858 -2.146048666)
(1734.21484 -0.4899946644 -1.659158574)
(1733.52968 -0.2323075406 -1.044876883)
(1732.553321 1.264428199 -1.543166192)
(1731.542407 5.60641337 -4.034085273)
(1730.417792 7.059945934 -5.463189282)
(1728.931159 7.804654483 -3.837120146)
(1726.58153 11.72275906 -4.595001848)
(1724.314478 15.7583003 -4.528507218)
(1721.790731 21.05198537 -3.180981525)
(1722.843217 21.88273703 -1.714452496)
(1723.401853 22.5891489 -0.1525368278)
(1717.869819 22.35963266 -0.0003752353759)
(1718.176691 24.33690875 -1.990011683)
(1716.961123 31.64245335 -3.210187313)
(1712.722835 37.77070279 -1.557116286)
(1706.077278 46.09469249 1.803803268)
(1698.863624 58.02840765 0.6009855632)
(1693.394431 65.71635689 1.273491701)
(1688.541692 76.06642358 -0.9029221057)
(1676.986229 87.84774732 -0.2814142896)
(1665.785927 104.2579377 -1.855856957)
(1651.282706 127.9375395 -3.020702201)
(1638.29801 146.3815647 -3.363407079)
(1735.820612 2.51391814 -2.087383483)
(1734.485839 1.021132264 -3.385409467)
(1734.076529 1.317093746 -3.811838272)
(1735.745246 1.488286421 -4.893813737)
(1735.4478 1.690078999 -3.441648287)
(1734.44431 2.10114524 -1.88725731)
(1735.102465 2.660635577 -0.192362008)
(1734.605078 -1.147249533 -0.2846064106)
(1732.471931 0.3836351553 -1.001019764)
(1733.812207 0.6954726717 -0.3390470336)
(1730.613203 3.604687308 0.8140227906)
(1730.211147 7.989471832 0.2053951781)
(1728.021751 11.06447915 -0.9894974262)
(1729.802907 10.33355692 -3.098280329)
(1730.532263 11.16220438 -3.844355283)
(1729.686798 9.78435916 -3.426570928)
(1725.15844 12.58001312 -3.258976103)
(1722.4781 15.00687805 -3.611329078)
(1723.469531 18.54356486 -2.633796758)
(1721.105173 19.43899296 -1.453749323)
(1716.239566 23.82723519 -0.8725271438)
(1714.988553 29.3264643 -3.339898265)
(1712.966581 38.28345062 -4.991115573)
(1708.394914 48.07740445 -5.075461248)
(1703.323037 55.66282767 -3.859842987)
(1700.024278 63.17297771 -2.774027745)
(1694.688105 73.93174614 -4.0283564)
(1684.331961 86.96426302 -3.124461816)
(1673.553694 100.8807883 -1.709349171)
(1655.911224 119.1480906 -0.4321079098)
(1735.718267 -1.011560919 -3.874191315)
(1735.988323 1.070527021 -2.272092716)
(1736.231184 3.027698553 -2.007104652)
(1736.427639 3.847076224 -1.499378222)
(1736.535141 4.642308417 -1.995330788)
(1735.671989 5.303672261 -2.71436796)
(1733.37818 4.099708082 -2.745610639)
(1732.233416 5.084191815 -3.228671987)
(1733.454673 5.571061928 0.1737292727)
(1733.279482 3.271156187 3.166749428)
(1732.560564 5.424339363 2.977249819)
(1732.721642 3.029840089 3.632074999)
(1733.412613 5.292936772 3.66820622)
(1731.881993 6.151334797 2.42932945)
(1730.603447 1.95600629 2.285513968)
(1730.30137 4.584190399 1.915677873)
(1730.592253 8.749151245 1.939492201)
(1727.66667 10.73127229 0.2135637027)
(1724.716627 11.80112212 -2.017632844)
(1723.013281 17.49631872 -2.469615939)
(1721.013552 25.01407964 -4.165825015)
(1720.268471 28.61782924 -3.535658479)
(1715.15119 31.08650208 -4.997700212)
(1714.80434 33.60863771 -4.835893438)
(1710.539103 44.60229699 -3.6826435)
(1704.079891 49.87846417 -3.106606075)
(1698.082698 60.7096615 1.851495764)
(1694.485519 70.23299327 2.59746866)
(1688.83427 80.63266357 2.407400873)
(1680.285787 101.2027727 0.3198960726)
(1735.045455 0.8899021339 0.4812959051)
(1736.874327 2.412474199 -0.7762171362)
(1734.311709 3.678496438 -1.078787638)
(1732.539966 2.438210649 -0.7372634763)
(1732.241538 0.08322093402 -0.02942461609)
(1730.720804 1.321830753 0.3112924821)
(1731.900561 5.214162136 0.186770099)
(1732.604038 4.293278826 0.2208335762)
(1732.527895 3.616306082 -2.760116576)
(1731.984388 3.887005336 0.1091994444)
(1732.391299 4.187508491 0.3650056948)
(1731.188587 3.412888425 0.3968399826)
(1730.806716 0.5712053566 1.694106852)
(1732.82757 3.10643932 2.570079778)
(1733.426028 5.751524661 3.168167886)
(1732.535941 7.71073848 2.48199165)
(1731.371592 6.204284229 -0.7880698008)
(1728.899853 8.418495736 0.139283647)
(1727.889751 12.08451056 3.014163422)
(1729.731897 10.81270719 3.405156775)
(1729.099884 12.04746822 3.98728505)
(1724.957188 17.02864715 6.818740745)
(1723.849066 22.8283444 7.428003133)
(1715.907053 29.23815129 5.196092194)
(1710.661548 33.59728235 3.941470988)
(1707.519001 42.96858994 4.671555674)
(1706.132399 46.57395322 3.201627261)
(1699.174246 55.87541409 2.356963461)
(1693.855601 69.03158076 1.922351767)
(1689.140781 74.82043636 2.104151092)
(1737.250589 0.6233768173 0.2465685223)
(1733.788114 -1.662817575 0.06207665372)
(1733.123039 -2.67310076 0.08051670631)
(1731.567432 -2.403745569 -0.6807293642)
(1732.181491 0.4592855631 -1.853741073)
(1730.900057 1.802379676 -1.138183715)
(1731.538708 1.227478405 -0.9294131121)
(1732.630234 3.883111107 0.384761501)
(1734.776127 3.234126787 0.1578181835)
(1732.300037 3.026539428 -2.294712436)
(1733.44392 2.098973911 -3.051733961)
(1734.656379 1.525345552 -0.2764122984)
(1732.338981 5.145825126 -3.206306191)
(1728.339432 4.971782309 -1.603824989)
(1726.378606 5.815731123 -4.060670804)
(1728.032269 4.581903136 -3.600780924)
(1730.442248 6.103089234 -1.116542123)
(1727.971403 6.689878436 -0.4312754155)
(1728.197092 8.936148508 -2.429058255)
(1726.800403 8.878248789 -1.196974786)
(1725.580096 13.02663025 0.8498148981)
(1722.179837 13.66341256 0.5755486903)
(1720.450901 17.60929431 0.3193590059)
(1717.934048 21.25365228 0.22183616)
(1717.683514 24.67602774 1.68606604)
(1711.505497 31.52053782 2.047873638)
(1708.997926 41.49568104 0.5027439751)
(1708.779417 47.41664605 -1.069789374)
(1697.966007 54.60368545 0.8811865961)
(1692.728842 62.2339452 1.536671988)
(1733.89556 4.039834319 -1.461713425)
(1734.165704 3.790072187 -0.05337157021)
(1737.457311 1.418746099 0.8348206922)
(1738.040479 1.105340359 2.733209652)
(1735.736152 0.7711596563 3.209769729)
(1737.438767 -0.0081128556 4.580152809)
(1734.954946 -2.168463526 3.370155925)
(1734.67859 -1.356039185 2.190723859)
(1733.344514 2.962810352 -0.500816576)
(1733.106588 2.845601198 1.45088647)
(1733.182425 3.509945077 0.8627459496)
(1729.363943 5.153436216 0.3186711609)
(1729.902419 1.730433697 -0.3502190484)
(1729.822766 1.937968365 -0.9108845552)
(1730.347859 2.447617882 1.055763152)
(1730.868969 3.377664791 1.654983918)
(1731.203765 4.427833607 2.702145145)
(1732.573768 5.345844122 5.16811256)
(1732.498549 4.115286527 3.784191121)
(1729.566972 12.41265211 2.06473283)
(1725.418762 12.6553692 1.036517999)
(1727.771412 11.15800664 1.285883726)
(1727.117263 12.96230245 0.6772312188)
(1724.993469 17.189189 0.7698768003)
(1723.444893 20.96714599 2.254233118)
(1721.26807 25.614734 1.697754725)
(1715.689377 29.17366219 -1.269413481)
(1710.758163 34.49032928 1.03459561)
(1704.441792 41.63187621 0.611597814)
(1698.620419 50.65264473 -1.62129494)
(1732.625129 2.268042253 -0.7544570466)
(1734.228981 1.788282581 -0.74152146)
(1732.066024 2.483114989 -1.269639293)
(1732.72164 2.889122313 -1.96853086)
(1732.990647 2.064400547 -0.9182482768)
(1733.399015 2.137633999 -1.283205752)
(1733.706731 2.675976579 -0.272116617)
(1734.909447 1.227066798 0.5129838427)
(1734.056183 -2.421389076 0.5858951144)
(1735.744923 -2.123513698 0.6889365788)
(1735.557042 -2.382714318 0.5207733651)
(1736.070198 0.5193639864 2.913991551)
(1734.989263 2.525751472 3.743038015)
(1738.56491 3.794669344 3.640930575)
(1735.7371 1.825936605 4.140285016)
(1732.836257 3.666586731 3.541000974)
(1729.733008 7.579235241 0.8552079053)
(1729.327587 6.377162756 -0.6219961127)
(1729.28198 5.252959589 -0.3472917645)
(1730.610247 4.772375981 -2.230344964)
(1732.126086 6.070334745 -0.4303482125)
(1728.20947 9.594067538 0.01168628004)
(1728.018732 8.557585958 0.3591481629)
(1727.13925 10.15867195 -1.726141579)
(1727.640853 12.1562571 -0.7433275412)
(1720.783818 17.99554845 -0.634818679)
(1718.354333 23.6360758 1.638582341)
(1717.189754 29.60372559 -1.734611724)
(1710.344761 37.26127495 -1.953877267)
(1706.540865 42.67570973 3.687743214)
(1735.709709 -0.3256083351 0.1810186401)
(1734.468901 -0.3316109654 1.431718789)
(1736.064677 0.257349099 1.114840985)
(1734.777571 0.4317215873 1.204617726)
(1734.268366 0.8676760476 0.715793147)
(1733.942352 -0.3425325054 0.1730837269)
(1735.480584 -0.9084893759 -1.477920467)
(1737.644652 -0.3056891006 -2.036725887)
(1737.384611 2.000768873 -0.1074620109)
(1737.949067 3.959608802 -0.00993191307)
(1736.763232 2.92672443 -1.359452003)
(1737.361456 1.191070845 -1.391784245)
(1736.428959 -0.6166132665 -2.352493646)
(1735.723136 0.7956647662 -3.126794052)
(1735.869733 3.416394924 -2.913914422)
(1737.644571 2.413826794 -2.61722918)
(1735.94632 0.916568235 -0.7560306354)
(1732.913505 4.551564158 -0.7694571282)
(1731.298078 4.232622662 0.3973072897)
(1732.018723 6.951422277 -0.5653961899)
(1728.29763 8.094862609 -0.4533931046)
(1727.529643 11.70595047 0.4812596965)
(1726.43078 12.0034611 1.071305552)
(1726.111898 10.32057752 1.288351673)
(1726.846418 11.90932038 0.08779895952)
(1724.813678 11.65642811 2.467659284)
(1719.505789 17.20593457 2.712727791)
(1714.526709 21.16430849 4.029713534)
(1714.579556 27.44709539 1.266856806)
(1711.668169 36.09592213 0.3997178253)
(1735.023323 3.240418783 1.510999557)
(1736.444936 4.607749912 0.6717817798)
(1735.627416 5.52237747 2.040663846)
(1735.893614 4.68416009 1.277419286)
(1737.29527 2.320170668 0.09472947461)
(1737.339211 5.979725924 -0.1357081521)
(1737.27525 7.839010534 0.4141269907)
(1734.578314 8.761276899 2.775476435)
(1737.320476 8.439743654 2.293341252)
(1736.518544 8.135130115 1.748852925)
(1735.078796 6.466688824 2.72882407)
(1736.308384 5.440693831 1.431400263)
(1733.388631 5.867392229 0.01793272434)
(1736.801092 8.713089028 1.537209466)
(1736.685213 9.111532727 -1.373800438)
(1733.406907 10.98719038 -2.088072353)
(1734.015209 10.61252139 -4.089943049)
(1736.282619 11.64577114 -3.581050843)
(1736.515277 10.90110822 -0.8156314592)
(1736.319832 10.74653341 -0.2018413037)
(1735.238562 13.80511512 -1.095658766)
(1732.247793 14.37322125 -1.540970871)
(1730.584079 18.68716978 -2.47041894)
(1731.344808 15.27318808 0.3933410757)
(1729.916546 17.47441853 -0.4232607247)
(1731.713588 18.54945417 -0.9180324198)
(1731.250791 18.5627751 -0.8684975035)
(1729.548826 25.35178089 0.2584655955)
(1728.408687 29.09029212 1.336140891)
(1721.74817 35.30601244 1.70070638)
)
;

boundaryField
{
    flow
    {
        type            calculated;
        value           nonuniform List<vector> 
55
(
(1308.895408 415.0672184 -0.774062663)
(1328.958774 424.0653102 -0.1745457129)
(1351.198067 429.3085009 1.784125689)
(1370.591598 433.0194035 -2.239588197)
(1385.411031 433.007103 -0.3579879517)
(1403.755529 434.5679199 1.886246968)
(1423.947249 427.3975065 -2.258480143)
(1437.916246 412.2849148 -5.098443702)
(1456.004052 394.7913602 -1.984966796)
(1478.018064 372.6474667 -0.1328846176)
(1499.761264 347.3699904 2.698353983)
(1528.905804 312.5487492 -3.616125647)
(1553.01076 278.6718773 -2.701390085)
(1575.608294 247.7156448 0.2295463109)
(1599.247819 211.1695087 2.686357626)
(1620.294365 183.0132678 1.397346005)
(1638.29801 146.3815647 -3.363407079)
(1655.911224 119.1480906 -0.4321079098)
(1680.285787 101.2027727 0.3198960726)
(1689.140781 74.82043636 2.104151092)
(1692.728842 62.2339452 1.536671988)
(1698.620419 50.65264473 -1.62129494)
(1706.540865 42.67570973 3.687743214)
(1711.668169 36.09592213 0.3997178253)
(1721.74817 35.30601244 1.70070638)
(1735.023323 3.240418783 1.510999557)
(1736.444936 4.607749912 0.6717817798)
(1735.627416 5.52237747 2.040663846)
(1735.893614 4.68416009 1.277419286)
(1737.29527 2.320170668 0.09472947461)
(1737.339211 5.979725924 -0.1357081521)
(1737.27525 7.839010534 0.4141269907)
(1734.578314 8.761276899 2.775476435)
(1737.320476 8.439743654 2.293341252)
(1736.518544 8.135130115 1.748852925)
(1735.078796 6.466688824 2.72882407)
(1736.308384 5.440693831 1.431400263)
(1733.388631 5.867392229 0.01793272434)
(1736.801092 8.713089028 1.537209466)
(1736.685213 9.111532727 -1.373800438)
(1733.406907 10.98719038 -2.088072353)
(1734.015209 10.61252139 -4.089943049)
(1736.282619 11.64577114 -3.581050843)
(1736.515277 10.90110822 -0.8156314592)
(1736.319832 10.74653341 -0.2018413037)
(1735.238562 13.80511512 -1.095658766)
(1732.247793 14.37322125 -1.540970871)
(1730.584079 18.68716978 -2.47041894)
(1731.344808 15.27318808 0.3933410757)
(1729.916546 17.47441853 -0.4232607247)
(1731.713588 18.54945417 -0.9180324198)
(1731.250791 18.5627751 -0.8684975035)
(1729.548826 25.35178089 0.2584655955)
(1728.408687 29.09029212 1.336140891)
(1721.74817 35.30601244 1.70070638)
)
;
    }
    obstacle
    {
        type            calculated;
        value           nonuniform List<vector> 0();
    }
    frontAndBack
    {
        type            empty;
    }
    procBoundary3to1
    {
        type            processor;
        value           nonuniform List<vector> 
36
(
(1289.31931 398.8708656 -0.4561425329)
(1322.37611 432.3790056 2.566514459)
(1314.620361 430.9867851 3.250923861)
(1313.048584 425.5598076 0.08979543452)
(1308.745119 423.0387285 1.473713565)
(1308.745119 423.0387285 1.473713565)
(1406.33409 400.1662162 -1.350602333)
(1394.620172 413.7894681 -2.878613016)
(1377.463742 420.0220797 -2.593826395)
(1370.937895 426.9276354 0.8974781938)
(1359.267847 434.7308842 1.292467833)
(1358.16787 438.1180771 -1.751483507)
(1358.16787 438.1180771 -1.751483507)
(1517.862608 274.9711693 -7.544721346)
(1499.940574 299.0107917 -3.828456692)
(1484.356171 320.7711755 -4.599069558)
(1465.458505 343.4188753 -3.869799282)
(1449.510376 365.5620744 3.171802726)
(1449.510376 365.5620744 3.171802726)
(1644.106225 105.7368341 -1.094012085)
(1634.240794 119.5503358 -0.2264681469)
(1620.89136 141.902063 0.8851040215)
(1605.840074 166.1209345 0.3896354288)
(1590.16389 184.2889116 2.575503617)
(1570.66331 210.2500738 2.135532495)
(1570.66331 210.2500738 2.135532495)
(1719.151541 20.65678763 -4.301130846)
(1715.3185 27.95060736 -2.451576349)
(1706.360299 31.83873758 -3.651800984)
(1699.010778 42.95612925 -1.278108838)
(1690.3362 52.45935459 0.4614242335)
(1685.347007 58.62253565 -1.145883302)