/*--------------------------------*- C++ -*----------------------------------*\
| =========                 |                                                 |
| \\      /  F ield         | OpenFOAM: The Open Source CFD Toolbox           |
|  \\    /   O peration     | Version:  2406                                  |
|   \\  /    A nd           | Website:  www.openfoam.com                      |
|    \\/     M anipulation  |                                                 |
\*---------------------------------------------------------------------------*/
FoamFile
{
    version     2.0;
    format      ascii;
    arch        "LSB;label=32;scalar=64";
    class       volScalarField;
    location    "0.005";
    object      dsmcSigmaTcRMax;
}
// * * * * * * * * * * * * * * * * * * * * * * * * * * * * * * * * * * * * * //

dimensions      [0 3 -1 0 0 0 0];

internalField   nonuniform List<scalar> 
546
(
6.216209286e-16
5.935175517e-16
5.732062202e-16
6.059135872e-16
5.937390646e-16
5.950918012e-16
5.745206228e-16
5.912450245e-16
6.233426551e-16
6.08352801e-16
6.243320989e-16
5.914719671e-16
6.254698482e-16
6.084517887e-16
5.791647383e-16
6.191700398e-16
6.347343103e-16
7.249864719e-16
6.674069471e-16
5.786608414e-16
5.941024834e-16
5.625805317e-16
6.481570351e-16
5.857753487e-16
5.960330708e-16
5.742503215e-16
5.821940199e-16
5.676973264e-16
6.446257897e-16
6.081616634e-16
6.125136775e-16
5.856768912e-16
5.75250703e-16
7.515453606e-16
5.629533712e-16
5.856757162e-16
5.668831353e-16
5.875186957e-16
6.680235802e-16
6.533038172e-16
6.127539838e-16
5.930147804e-16
6.338217434e-16
6.493361007e-16
6.00223564e-16
6.248064259e-16
5.921131742e-16
6.024462993e-16
5.728778407e-16
6.856286553e-16
5.826893668e-16
6.525319323e-16
6.192901962e-16
6.157541755e-16
5.981060947e-16
6.555249531e-16
6.230758655e-16
6.427240187e-16
6.79104779e-16
5.717635755e-16
6.05007048e-16
6.106073124e-16
6.000033464e-16
5.717469945e-16
5.756614184e-16
5.978874256e-16
6.168698275e-16
5.881983159e-16
6.13250059e-16
5.579720648e-16
5.782954573e-16
6.769394982e-16
6.523124804e-16
6.655272477e-16
5.934150797e-16
6.300320478e-16
6.066508345e-16
6.022846312e-16
5.863491843e-16
5.908901417e-16
5.8638791e-16
6.154467551e-16
5.999807023e-16
5.933106904e-16
6.202094219e-16
6.289397081e-16
6.041013744e-16
6.227415767e-16
6.274589273e-16
5.864689035e-16
5.604272145e-16
5.993433114e-16
6.161743081e-16
5.981926187e-16
6.010961051e-16
6.055015778e-16
6.053483839e-16
6.81747623e-16
5.89494273e-16
5.676319922e-16
5.984113596e-16
6.005265503e-16
5.806516893e-16
5.99040522e-16
6.225286293e-16
6.049310031e-16
6.458080072e-16
5.629348408e-16
6.120427147e-16
5.83008452e-16
6.08550518e-16
6.180932227e-16
6.036022528e-16
7.107946559e-16
6.180827164e-16
5.888888185e-16
6.968197028e-16
6.244888917e-16
6.38759937e-16
6.058142106e-16
6.055103871e-16
6.166633471e-16
5.701878958e-16
5.776329124e-16
6.087113963e-16
5.916406498e-16
6.287184064e-16
6.009551523e-16
6.14127054e-16
6.323754651e-16
6.034507619e-16
5.956699396e-16
5.980563137e-16
5.981783082e-16
5.747488359e-16
5.836026359e-16
5.996820419e-16
6.028841099e-16
6.785880491e-16
6.248913565e-16
5.980344738e-16
5.766146698e-16
5.66930554e-16
6.134164622e-16
6.776048372e-16
6.169998749e-16
5.688338431e-16
6.023969077e-16
5.896057924e-16
5.754444536e-16
5.706467967e-16
6.032430236e-16
6.153710151e-16
5.814218171e-16
6.260850475e-16
5.918709569e-16
6.327369519e-16
6.159796598e-16
5.720765707e-16
5.76505054e-16
5.809247898e-16
6.418814901e-16
6.174566729e-16
5.91517801e-16
6.330973735e-16
6.180051271e-16
6.15097319e-16
5.88173507e-16
5.916014635e-16
5.713261816e-16
5.684853021e-16
5.899966075e-16
6.045649526e-16
6.268195274e-16
5.967136317e-16
5.832882993e-16
5.971133062e-16
5.936941807e-16
6.044891481e-16
5.710118111e-16
6.470097481e-16
5.80904229e-16
6.367964024e-16
6.284305609e-16
5.745873416e-16
6.282878779e-16
6.086256757e-16
5.853403867e-16
6.044740867e-16
5.682223173e-16
6.478639704e-16
6.025252349e-16
5.871732566e-16
6.479020388e-16
6.020091565e-16
6.102974093e-16
5.658159645e-16
5.899304759e-16
6.252554368e-16
5.86077856e-16
6.340793993e-16
6.138135621e-16
5.602581022e-16
6.142929935e-16
6.492566611e-16
5.974703629e-16
6.595359198e-16
5.643243187e-16
5.779300726e-16
6.114116926e-16
5.95935223e-16
6.224633351e-16
5.87709958e-16
5.948844746e-16
6.066383001e-16
5.868785286e-16
6.339933662e-16
5.946954053e-16
5.663540871e-16
5.92182448e-16
6.009809769e-16
6.017555258e-16
5.709922131e-16
5.784383937e-16
5.65795319e-16
6.093211551e-16
5.824596915e-16
6.008301077e-16
5.638486755e-16
6.824450846e-16
5.490088389e-16
5.848676173e-16
6.018419344e-16
5.740943411e-16
6.33329162e-16
6.140031276e-16
6.301490628e-16
6.284773328e-16
5.73490754e-16
5.852411675e-16
5.618595558e-16
5.841486681e-16
5.657213617e-16
6.021111143e-16
6.133431861e-16
5.783641774e-16
6.092375498e-16
5.877619461e-16
5.742475563e-16
6.25846442e-16
6.140631038e-16
6.038359395e-16
5.803155956e-16
6.020577259e-16
5.9292035e-16
5.924074275e-16
6.051729916e-16
5.718139481e-16
6.649076894e-16
6.000909655e-16
5.996016312e-16
5.992492152e-16
5.818139934e-16
5.996912119e-16
6.166998594e-16
6.045535253e-16
6.441612624e-16
6.129669198e-16
6.241980578e-16
5.839122242e-16
6.214169312e-16
6.239121504e-16
6.291916295e-16
6.218775237e-16
5.902814007e-16
5.910915517e-16
5.96730673e-16
5.753460942e-16
5.868512052e-16
5.67805397e-16
5.726320199e-16
6.281817853e-16
6.329719843e-16
5.779325987e-16
6.168199455e-16
6.101632458e-16
6.244201309e-16
6.600193041e-16
6.067084526e-16
5.850342997e-16
5.885928749e-16
6.265894065e-16
5.732837891e-16
6.452949496e-16
6.067783048e-16
6.145623605e-16
5.826445955e-16
6.201717658e-16
5.969935927e-16
5.990049183e-16
6.041943292e-16
6.023404791e-16
5.720522421e-16
6.031197092e-16
6.070161908e-16
6.087369975e-16
6.032103335e-16
6.186591093e-16
6.49546218e-16
6.371584236e-16
6.424359617e-16
5.905467166e-16
5.894226289e-16
6.239478525e-16
6.50151556e-16
6.099013796e-16
5.64355868e-16
5.638654071e-16
6.063695823e-16
5.636352465e-16
5.649829604e-16
6.161903563e-16
5.985524787e-16
6.165868341e-16
6.12552904e-16
5.85484016e-16
6.153465575e-16
6.251399418e-16
5.933982425e-16
6.004338795e-16
6.508073523e-16
5.917401493e-16
5.838282543e-16
6.091061637e-16
5.896615185e-16
5.771688651e-16
5.887365971e-16
6.006340312e-16
5.727225478e-16
5.709322234e-16
5.677857018e-16
6.05085416e-16
5.867551844e-16
5.871250405e-16
6.361384996e-16
6.085991561e-16
5.920658748e-16
5.934425012e-16
5.980571504e-16
5.701523419e-16
5.554513839e-16
6.075381225e-16
5.949560248e-16
6.053820671e-16
6.067492796e-16
6.210731119e-16
5.744452387e-16
5.8505565e-16
6.105243486e-16
5.627634832e-16
6.274127465e-16
6.659051421e-16
6.0273059e-16
6.549564637e-16
6.663314913e-16
6.94852537e-16
6.092597706e-16
6.175220492e-16
7.837507976e-16
6.222574966e-16
6.232136264e-16
6.597859251e-16
6.801209875e-16
6.42916433e-16
6.432639302e-16
6.930314524e-16
6.389576525e-16
6.127501821e-16
5.937617836e-16
5.732558562e-16
6.823188395e-16
6.726955921e-16
6.42284745e-16
6.822174605e-16
6.722784509e-16
6.355903735e-16
6.368932942e-16
6.585925071e-16
6.362384589e-16
5.889731337e-16
6.076508019e-16
5.712091173e-16
6.794182483e-16
6.457319294e-16
6.993905055e-16
6.318932112e-16
6.016037351e-16
6.430900368e-16
6.897778284e-16
5.746819666e-16
5.940179223e-16
6.261407011e-16
7.377503329e-16
6.620925029e-16
6.21235236e-16
8.138014578e-16
5.917313083e-16
6.055212876e-16
5.954780725e-16
6.283580514e-16
6.480599346e-16
6.098833449e-16
5.95193699e-16
6.359387141e-16
6.765524491e-16
6.103948201e-16
6.31624936e-16
6.145213395e-16
6.017344096e-16
6.092411936e-16
6.809855213e-16
6.846034059e-16
6.872742781e-16
5.959321153e-16
5.956089316e-16
5.868590264e-16
7.044039662e-16
5.899587039e-16
6.331672759e-16
5.962375328e-16
6.574836424e-16
6.459117453e-16
5.88287722e-16
6.346951178e-16
6.229317448e-16
6.027433136e-16
6.197453063e-16
6.25357945e-16
5.718112993e-16
5.780150032e-16
6.025263518e-16
6.282508959e-16
6.292105318e-16
6.801638994e-16
5.849762732e-16
6.014207267e-16
6.565076585e-16
6.157493681e-16
6.040863327e-16
5.903480222e-16
7.39745771e-16
5.930056645e-16
5.816991035e-16
6.361608299e-16
5.954569466e-16
6.432487934e-16
6.23757113e-16
6.183899874e-16
6.189740952e-16
5.932775842e-16
5.995177786e-16
5.960163507e-16
5.995177786e-16
5.841346265e-16
5.736570795e-16
6.261642539e-16
6.152297631e-16
6.032873522e-16
6.151420564e-16
6.01385998e-16
6.458757394e-16
5.906002674e-16
6.188258859e-16
5.945538434e-16
6.028456932e-16
6.586513849e-16
6.271402533e-16
5.69589935e-16
6.085889858e-16
5.705117349e-16
5.702248652e-16
5.67285936e-16
5.891371878e-16
6.202272058e-16
5.850294183e-16
5.714484348e-16
6.118619638e-16
5.780338308e-16
5.91025128e-16
6.234916998e-16
6.256873684e-16
6.026544022e-16
6.108857708e-16
6.696141274e-16
5.99300384e-16
5.75415477e-16
6.357114197e-16
5.965758027e-16
6.506976638e-16
5.775190593e-16
6.163490602e-16
6.059468316e-16
6.177398046e-16
6.243724147e-16
5.628349771e-16
5.805987508e-16
6.289762116e-16
5.923006985e-16
6.226125361e-16
6.261081196e-16
6.027606913e-16
6.026304975e-16
6.281311921e-16
5.697085145e-16
5.982818654e-16
5.930087405e-16
5.863534239e-16
5.732964561e-16
6.25876302e-16
6.533127605e-16
6.010533558e-16
5.808764104e-16
5.763075051e-16
6.238891302e-16
6.258460198e-16
6.048617585e-16
5.888389615e-16
6.179721007e-16
5.483339942e-16
5.831460113e-16
6.011185369e-16
6.020905704e-16
6.023727029e-16
5.779317832e-16
6.324685498e-16
6.049944151e-16
5.828862811e-16
5.934151203e-16
5.882257774e-16
5.862294895e-16
6.177127366e-16
6.682650626e-16
6.051941589e-16
6.047459533e-16
5.682900748e-16
6.047924544e-16
)
;

boundaryField
{
    flow
    {
        type            zeroGradient;
    }
    obstacle
    {
        type            zeroGradient;
    }
    frontAndBack
    {
        type            empty;
    }
    procBoundary2to0
    {
        type            processor;
        value           nonuniform List<scalar> 
31
(
5.568132691e-16
5.894371637e-16
6.251922248e-16
6.042668291e-16
5.802458115e-16
5.853279503e-16
5.98409612e-16
6.033673745e-16
5.789419764e-16
5.944463972e-16
5.864542384e-16
5.755553466e-16
7.457437284e-16
7.783538596e-16
6.87295892e-16
6.092778192e-16
6.419762031e-16
6.584704632e-16
6.063406896e-16
7.089255215e-16
7.941713625e-16
7.088169099e-16
6.342162608e-16
7.191390263e-16
7.376478844e-16
7.5292836e-16
5.884517588e-16
6.998634201e-16
6.998634201e-16
6.177376761e-16
6.177376761e-16
)
;
    }
    procBoundary2to3
    {
        type            processor;
        value           nonuniform List<scalar> 
19
(
6.847267215e-16
7.914683143e-16
7.337702345e-16
8.322312955e-16
6.062148316e-16
6.455371018e-16
7.099477119e-16
6.37448811e-16
5.849488958e-16
6.358749212e-16
6.072398871e-16
6.30590047e-16
5.987134286e-16
5.947374292e-16
6.083468139e-16
5.854388825e-16
5.892368893e-16
5.846818725e-16
5.781621167e-16
)
;
    }
}


// ************************************************************************* //
