/*--------------------------------*- C++ -*----------------------------------*\
| =========                 |                                                 |
| \\      /  F ield         | OpenFOAM: The Open Source CFD Toolbox           |
|  \\    /   O peration     | Version:  2406                                  |
|   \\  /    A nd           | Website:  www.openfoam.com                      |
|    \\/     M anipulation  |                                                 |
\*---------------------------------------------------------------------------*/
FoamFile
{
    version     2.0;
    format      ascii;
    arch        "LSB;label=32;scalar=64";
    class       volScalarField;
    location    "0.005";
    object      dsmcRhoNMean;
}
// * * * * * * * * * * * * * * * * * * * * * * * * * * * * * * * * * * * * * //

dimensions      [0 -3 0 0 0 0 0];

internalField   nonuniform List<scalar> 
546
(
7.4288
9.5684
9.6788
9.6152
9.6104
9.5708
9.584
9.5144
9.4544
9.4748
9.54
9.6172
9.5932
9.5516
9.5508
9.4936
9.5372
9.4536
9.3644
9.3412
7.4964
9.562
9.592
9.6248
9.646
9.6816
9.6604
9.6512
9.614
9.598
9.5676
9.5404
9.6028
9.512
9.5372
9.526
9.6204
9.7108
9.738
9.7476
7.4044
9.5268
9.552
9.5228
9.5596
9.6028
9.598
9.6084
9.6204
9.6948
9.6268
9.6816
9.5836
9.5852
9.568
9.514
9.432
9.4972
9.4884
9.4492
7.458
9.6352
9.706
9.6384
9.5672
9.5396
9.5932
9.5372
9.5684
9.4936
9.57
9.5192
9.6148
9.6292
9.7148
9.71
9.6536
9.6272
9.7792
9.7576
7.4416
9.6072
9.6152
9.6748
9.6892
9.6608
9.5576
9.566
9.5252
9.4504
9.4512
9.4816
9.4824
9.5136
9.538
9.5668
9.6568
9.688
9.5528
9.5508
7.4296
9.4976
9.5224
9.5248
9.532
9.5892
9.6092
9.6124
9.6864
9.722
9.7408
9.7028
9.6584
9.654
9.6596
9.7392
9.6892
9.6168
9.7112
9.7184
7.4036
9.532
9.6392
9.6528
9.608
9.6544
9.65
9.7072
9.6216
9.7084
9.6852
9.6876
9.7244
9.6764
9.6308
9.5784
9.5972
9.566
9.5556
9.5524
7.4512
9.5968
9.6748
9.674
9.6992
9.6532
9.6844
9.6944
9.76
9.6668
9.6776
9.6272
9.6448
9.718
9.7116
9.79
9.7532
9.7492
9.7848
9.8004
7.474
9.632
9.6336
9.5828
9.5848
9.5128
9.5236
9.5668
9.5464
9.646
9.6688
9.7068
9.6328
9.6208
9.5956
9.5444
9.5672
9.5708
9.5196
9.4724
7.3996
9.486
9.4984
9.596
9.5356
9.6196
9.592
9.6284
9.5888
9.518
9.5252
9.5384
9.606
9.6244
9.6036
9.604
9.564
9.5072
9.4484
9.4736
7.4928
9.6228
9.644
9.6324
9.608
9.5788
9.5928
9.4892
9.53
9.5872
9.5416
9.5904
9.5172
9.5276
9.4564
9.5036
9.5536
9.702
9.8216
9.8324
7.396
9.5688
9.5412
9.602
9.5636
9.5224
9.5736
9.5184
9.5068
9.4916
9.4764
9.522
9.5476
9.61
9.6852
9.6312
9.6644
9.548
9.5568
9.5796
7.426
9.6508
9.704
9.6764
9.668
9.6164
9.6052
9.6784
9.6828
9.6852
9.6312
9.5976
9.5988
9.5724
9.5312
9.5736
9.4912
9.4808
9.512
9.4932
7.3964
9.4492
9.5344
9.5436
9.5988
9.602
9.5984
9.5936
9.5844
9.6184
9.5492
9.5432
9.5048
9.5208
9.4696
9.524
9.55
9.5396
9.5596
9.5852
7.4816
9.5908
9.6092
9.5172
9.5328
9.56
9.552
9.6036
9.5584
9.5152
9.5288
9.5284
9.5892
9.5356
9.6364
9.5868
9.574
9.5776
9.5668
9.5708
7.4228
9.5708
9.592
9.6584
9.736
9.6664
9.5916
9.5672
9.5848
9.6156
9.5984
9.5888
9.5712
9.6264
9.6744
9.618
9.6
9.5048
9.4944
9.5448
7.4984
9.6936
9.7636
9.7184
9.6104
9.68
9.7616
9.7848
9.756
9.8276
9.7608
9.7812
9.7772
9.7016
9.5876
9.5872
9.606
9.612
9.6472
9.6256
7.2904
9.3068
9.3592
9.438
9.4644
9.4596
9.492
9.4828
9.494
9.5364
9.618
9.5936
9.6
9.6352
9.642
9.638
9.6068
9.578
9.5836
9.5324
9.284
9.228
9.1724
9.1456
9.0884
9.0748
9.4368
9.4144
9.4548
9.3064
9.2748
9.2612
9.2552
9.182
9.0948
9.0528
9.6996
9.5912
9.5492
9.4728
9.4452
9.328
9.2808
9.1712
9.1336
9.1776
9.452
9.4508
9.454
9.3656
9.3596
9.284
9.2248
9.2204
9.176
9.1632
9.7524
9.672
9.524
9.49
9.368
9.2952
9.2448
9.154
9.004
8.9724
9.5368
9.4596
9.4024
9.364
9.3084
9.214
9.2032
9.2356
9.1204
9.0424
9.6508
9.5372
9.4872
9.4212
9.4908
9.3712
9.1932
9.1084
9.0592
9.0336
9.5672
9.4836
9.418
9.3564
9.2432
9.2456
9.1932
9.122
8.9572
8.8556
9.8208
9.722
9.6288
9.4312
9.2992
9.1904
9.1356
9.058
9.0504
8.9556
9.3904
9.31
9.23
9.1548
9.1984
9.1664
9.1308
9.0184
8.9692
8.9396
9.4336
9.5084
9.4916
9.5124
9.358
9.2584
9.2624
9.1644
9.1216
8.9292
9.7364
9.6188
9.476
9.4072
9.4056
9.3404
9.2004
9.1556
9.1208
9.0828
9.5332
9.4576
9.3928
9.2804
9.1068
9.0448
9.008
9.01
8.9984
9.04
9.4492
9.3976
9.4096
9.384
9.3644
9.3532
9.2712
9.198
9.0704
8.952
9.5636
9.5932
9.49
9.4584
9.4112
9.316
9.1856
9.0864
8.9536
8.788
9.4596
9.3876
9.326
9.224
9.1852
9.0128
8.9768
8.9796
9.0072
9.0064
9.5316
9.454
9.3952
9.3308
9.298
9.2668
9.264
9.1296
9.1064
9.0632
9.5424
9.4868
9.4224
9.3616
9.3544
9.3152
9.2536
9.226
9.1636
9.1092
9.5804
9.4408
9.3536
9.326
9.168
9.084
9.0492
8.9376
8.8272
8.758
)
;

boundaryField
{
    flow
    {
        type            calculated;
        value           nonuniform List<scalar> 
48
(
7.4288
7.4964
7.4044
7.458
7.4416
7.4296
7.4036
7.4512
7.474
7.3996
7.4928
7.396
7.426
7.3964
7.4816
7.4228
7.4984
7.2904
7.2904
9.3068
9.3592
9.438
9.4644
9.4596
9.492
9.4828
9.494
9.5364
9.618
9.5936
9.6
9.6352
9.642
9.638
9.6068
9.578
9.5836
9.5324
9.5804
9.4408
9.3536
9.326
9.168
9.084
9.0492
8.9376
8.8272
8.758
)
;
    }
    obstacle
    {
        type            calculated;
        value           nonuniform List<scalar> 0();
    }
    frontAndBack
    {
        type            empty;
    }
    procBoundary2to0
    {
        type            processor;
        value           nonuniform List<scalar> 
31
(
7.4088
9.4948
9.5232
9.438
9.4832
9.442
9.5568
9.6588
9.7032
9.6852
9.5512
9.5532
9.5248
9.5308
9.536
9.5156
9.5184
9.4972
9.5876
9.5968
9.264
9.1256
9.0284
8.9784
9.0728
9.0256
9.5336
9.4288
9.3172
9.2868
9.2868
)
;
    }
    procBoundary2to3
    {
        type            processor;
        value           nonuniform List<scalar> 
19
(
9.0024
9.0668
9.0916
9.0804
8.9048
8.9548
9.0096
8.8284
8.858
8.86
8.8672
9.054
9.004
8.8756
8.7824
8.8572
9.1336
8.972
8.7184
)
;
    }
}


// ************************************************************************* //
