/*--------------------------------*- C++ -*----------------------------------*\
| =========                 |                                                 |
| \\      /  F ield         | OpenFOAM: The Open Source CFD Toolbox           |
|  \\    /   O peration     | Version:  2406                                  |
|   \\  /    A nd           | Website:  www.openfoam.com                      |
|    \\/     M anipulation  |                                                 |
\*---------------------------------------------------------------------------*/
FoamFile
{
    version     2.0;
    format      ascii;
    arch        "LSB;label=32;scalar=64";
    class       volScalarField;
    location    "0.005";
    object      iDofMean;
}
// * * * * * * * * * * * * * * * * * * * * * * * * * * * * * * * * * * * * * //

dimensions      [0 -3 0 0 0 0 0];

internalField   nonuniform List<scalar> 
546
(
1.547270179e+20
1.992905985e+20
2.015900092e+20
2.002653487e+20
2.001653743e+20
1.993405856e+20
1.996155152e+20
1.981658867e+20
1.969162069e+20
1.97341098e+20
1.986990834e+20
2.003070047e+20
1.998071328e+20
1.989406881e+20
1.989240257e+20
1.977326643e+20
1.98640765e+20
1.968995445e+20
1.950416872e+20
1.945584777e+20
1.561349904e+20
1.991572993e+20
1.997821392e+20
2.004652974e+20
2.00906851e+20
2.016483276e+20
2.012067741e+20
2.010151565e+20
2.002403551e+20
1.999071071e+20
1.992739361e+20
1.987074146e+20
2.000070815e+20
1.981158995e+20
1.98640765e+20
1.984074914e+20
2.003736543e+20
2.022565051e+20
2.028230266e+20
2.030229754e+20
1.542188148e+20
1.984241538e+20
1.989490193e+20
1.983408418e+20
1.991073121e+20
2.000070815e+20
1.999071071e+20
2.001237183e+20
2.003736543e+20
2.019232572e+20
2.005069534e+20
2.016483276e+20
1.99607184e+20
1.996405088e+20
1.992822673e+20
1.981575555e+20
1.964496598e+20
1.978076451e+20
1.976243588e+20
1.968079013e+20
1.553351954e+20
2.006819086e+20
2.021565307e+20
2.007485582e+20
1.992656049e+20
1.986907522e+20
1.998071328e+20
1.98640765e+20
1.992905985e+20
1.977326643e+20
1.993239232e+20
1.98265861e+20
2.002570175e+20
2.005569406e+20
2.023398171e+20
2.022398427e+20
2.010651437e+20
2.005152846e+20
2.0368114e+20
2.032312553e+20
1.549936162e+20
2.000987247e+20
2.002653487e+20
2.015066972e+20
2.018066204e+20
2.012151053e+20
1.990656561e+20
1.992406113e+20
1.98390829e+20
1.968328949e+20
1.968495573e+20
1.974827284e+20
1.974993908e+20
1.981492243e+20
1.986574274e+20
1.992572737e+20
2.011317933e+20
2.017816268e+20
1.989656817e+20
1.989240257e+20
1.547436803e+20
1.978159763e+20
1.983325106e+20
1.983824978e+20
1.985324594e+20
1.997238208e+20
2.001403807e+20
2.002070303e+20
2.01748302e+20
2.024897787e+20
2.02881345e+20
2.020898811e+20
2.011651181e+20
2.010734749e+20
2.011901117e+20
2.028480202e+20
2.018066204e+20
2.002986735e+20
2.022648363e+20
2.024147979e+20
1.542021524e+20
1.985324594e+20
2.007652206e+20
2.010484813e+20
2.001153871e+20
2.010818061e+20
2.009901629e+20
2.021815243e+20
2.003986478e+20
2.022065179e+20
2.017233084e+20
2.017732956e+20
2.025397659e+20
2.01540022e+20
2.005902654e+20
1.994988784e+20
1.998904447e+20
1.992406113e+20
1.990240001e+20
1.989573505e+20
1.55193565e+20
1.998821135e+20
2.015066972e+20
2.014900348e+20
2.020149003e+20
2.010568125e+20
2.01706646e+20
2.01914926e+20
2.032812425e+20
2.013400733e+20
2.015650156e+20
2.005152846e+20
2.008818574e+20
2.024064667e+20
2.022731675e+20
2.039060824e+20
2.031396121e+20
2.030563002e+20
2.037977768e+20
2.041226936e+20
1.556684433e+20
2.00615259e+20
2.006485838e+20
1.995905216e+20
1.996321776e+20
1.981325619e+20
1.983575042e+20
1.992572737e+20
1.988323825e+20
2.00906851e+20
2.013817293e+20
2.021731931e+20
2.006319214e+20
2.003819854e+20
1.998571199e+20
1.987907265e+20
1.992656049e+20
1.993405856e+20
1.982741922e+20
1.972911108e+20
1.541188404e+20
1.975743716e+20
1.978326387e+20
1.998654511e+20
1.986074402e+20
2.003569919e+20
1.997821392e+20
2.005402782e+20
1.997154896e+20
1.982408674e+20
1.98390829e+20
1.986657586e+20
2.000737311e+20
2.004569662e+20
2.000237439e+20
2.000320751e+20
1.991989553e+20
1.980159251e+20
1.967912389e+20
1.973161044e+20
1.560600096e+20
2.004236414e+20
2.00865195e+20
2.006235902e+20
2.001153871e+20
1.995072096e+20
1.997988016e+20
1.976410212e+20
1.984908034e+20
1.996821648e+20
1.987324082e+20
1.997488144e+20
1.98224205e+20
1.984408162e+20
1.969578629e+20
1.979409443e+20
1.989823441e+20
2.020732187e+20
2.045642471e+20
2.047891894e+20
1.540438596e+20
1.992989296e+20
1.98724077e+20
1.999904191e+20
1.991906241e+20
1.983325106e+20
1.99398904e+20
1.982491986e+20
1.980075939e+20
1.976910083e+20
1.973744228e+20
1.983241794e+20
1.988573761e+20
2.001570431e+20
2.017233084e+20
2.005985966e+20
2.012900861e+20
1.988657073e+20
1.990489937e+20
1.99523872e+20
1.546686995e+20
2.010068253e+20
2.021148747e+20
2.01540022e+20
2.013650669e+20
2.002903423e+20
2.000570687e+20
2.01581678e+20
2.016733212e+20
2.017233084e+20
2.005985966e+20
1.998987759e+20
1.999237695e+20
1.993739104e+20
1.98515797e+20
1.99398904e+20
1.976826771e+20
1.97466066e+20
1.981158995e+20
1.977243331e+20
1.540521908e+20
1.968079013e+20
1.985824466e+20
1.987740641e+20
1.999237695e+20
1.999904191e+20
1.999154383e+20
1.99815464e+20
1.996238464e+20
2.003319983e+20
1.988907009e+20
1.987657329e+20
1.979659379e+20
1.982991858e+20
1.972327924e+20
1.983658354e+20
1.989073633e+20
1.986907522e+20
1.991073121e+20
1.996405088e+20
1.558267361e+20
1.997571456e+20
2.001403807e+20
1.98224205e+20
1.985491218e+20
1.991156433e+20
1.989490193e+20
2.000237439e+20
1.990823185e+20
1.981825491e+20
1.984658098e+20
1.984574786e+20
1.997238208e+20
1.986074402e+20
2.007069022e+20
1.996738336e+20
1.994072352e+20
1.99482216e+20
1.992572737e+20
1.993405856e+20
1.546020499e+20
1.993405856e+20
1.997821392e+20
2.011651181e+20
2.027813706e+20
2.013317421e+20
1.99773808e+20
1.992656049e+20
1.996321776e+20
2.002736799e+20
1.999154383e+20
1.997154896e+20
1.993489168e+20
2.004986222e+20
2.01498366e+20
2.003236671e+20
1.999487631e+20
1.979659379e+20
1.977493267e+20
1.987990577e+20
1.561766464e+20
2.018982636e+20
2.033562233e+20
2.024147979e+20
2.001653743e+20
2.016150028e+20
2.033145673e+20
2.037977768e+20
2.031979305e+20
2.046892151e+20
2.032979049e+20
2.03722796e+20
2.03639484e+20
2.020648875e+20
1.99690496e+20
1.996821648e+20
2.000737311e+20
2.001986991e+20
2.009318445e+20
2.004819598e+20
1.518444232e+20
1.938419947e+20
1.949333817e+20
1.965746278e+20
1.971244869e+20
1.970245125e+20
1.976993395e+20
1.97507722e+20
1.977409955e+20
1.986241026e+20
2.003236671e+20
1.99815464e+20
1.999487631e+20
2.006819086e+20
2.00823539e+20
2.00740227e+20
2.000903935e+20
1.994905472e+20
1.99607184e+20
1.985407906e+20
1.995025769e+20
1.997012903e+20
1.999115517e+20
2.007570255e+20
2.009425769e+20
2.021018281e+20
1.972466492e+20
1.98131518e+20
2.003594519e+20
1.985896412e+20
1.993048794e+20
2.004197648e+20
2.017161709e+20
2.015560497e+20
2.010840781e+20
2.016118735e+20
2.027396587e+20
2.018523767e+20
2.023599101e+20
2.021404575e+20
2.029665797e+20
2.018653716e+20
2.022741204e+20
2.013189766e+20
2.019419392e+20
2.043912524e+20
1.975643574e+20
1.988975771e+20
2.003424988e+20
1.998529124e+20
2.011271347e+20
2.00913175e+20
2.010536059e+20
2.023989777e+20
2.028793927e+20
2.040705534e+20
2.038432755e+20
2.035528583e+20
2.018258894e+20
2.025074904e+20
2.013076411e+20
2.01155552e+20
2.014895026e+20
2.009414143e+20
1.990765095e+20
1.99821312e+20
1.99336835e+20
1.990827769e+20
1.99249028e+20
1.998187713e+20
2.000269051e+20
1.993983191e+20
2.005828361e+20
2.027326362e+20
2.0165009e+20
2.013802585e+20
2.017196467e+20
2.007159153e+20
2.010460498e+20
2.01039363e+20
2.039464732e+20
2.028002541e+20
2.003648871e+20
1.999404403e+20
2.002969711e+20
2.011842781e+20
1.999722528e+20
1.995878722e+20
1.995796122e+20
1.996565946e+20
1.986258314e+20
2.000821684e+20
2.003648871e+20
2.002389768e+20
1.980417716e+20
1.972200984e+20
2.052729625e+20
2.046051387e+20
2.040467385e+20
2.012527548e+20
1.998292076e+20
1.988875963e+20
1.991094994e+20
1.988340991e+20
2.00102405e+20
1.994471649e+20
1.96276803e+20
1.95934358e+20
1.955956475e+20
1.953546415e+20
1.976631291e+20
1.983682185e+20
1.990048866e+20
1.979648324e+20
1.983070904e+20
1.990908342e+20
1.971797633e+20
2.001098026e+20
2.011392929e+20
2.029854849e+20
2.010927539e+20
2.00359172e+20
2.018730928e+20
2.011697069e+20
2.016766203e+20
1.988592193e+20
2.035088471e+20
2.024332347e+20
2.008087073e+20
2.007406178e+20
2.021156223e+20
2.021337161e+20
2.005218103e+20
2.00976539e+20
2.016589339e+20
2.022799934e+20
1.992615883e+20
1.990406857e+20
1.990455902e+20
1.980348262e+20
1.956947509e+20
1.95736696e+20
1.9632847e+20
1.977804408e+20
1.989526962e+20
2.01326809e+20
1.975058322e+20
1.977779522e+20
1.994016067e+20
2.002455521e+20
2.012302812e+20
2.024107197e+20
2.020648908e+20
2.019072705e+20
2.005445993e+20
1.99366989e+20
1.998970047e+20
2.018944665e+20
2.011053841e+20
2.018331753e+20
2.022359599e+20
2.016056806e+20
2.001992444e+20
1.994575122e+20
1.979621764e+20
1.957146028e+20
1.977232116e+20
1.975674964e+20
1.976300145e+20
1.968313044e+20
1.973794762e+20
1.950441904e+20
1.956484704e+20
1.971131253e+20
1.991472623e+20
2.005785146e+20
1.992281466e+20
1.98964923e+20
1.990964507e+20
1.991103152e+20
1.998034209e+20
2.005409533e+20
2.019079647e+20
2.004058061e+20
2.01340553e+20
2.018434884e+20
1.994538854e+20
1.99655218e+20
1.996728539e+20
1.997675562e+20
2.010153926e+20
2.015883693e+20
2.016813005e+20
2.025219031e+20
2.026052313e+20
2.02867939e+20
2.00248156e+20
1.9868712e+20
1.982148929e+20
1.990078878e+20
1.970098691e+20
1.965850153e+20
1.972264199e+20
1.961911729e+20
1.951675008e+20
1.950464815e+20
)
;

boundaryField
{
    flow
    {
        type            calculated;
        value           nonuniform List<scalar> 
48
(
1.547270179e+20
1.561349904e+20
1.542188148e+20
1.553351954e+20
1.549936162e+20
1.547436803e+20
1.542021524e+20
1.55193565e+20
1.556684433e+20
1.541188404e+20
1.560600096e+20
1.540438596e+20
1.546686995e+20
1.540521908e+20
1.558267361e+20
1.546020499e+20
1.561766464e+20
1.518444232e+20
1.518444232e+20
1.938419947e+20
1.949333817e+20
1.965746278e+20
1.971244869e+20
1.970245125e+20
1.976993395e+20
1.97507722e+20
1.977409955e+20
1.986241026e+20
2.003236671e+20
1.99815464e+20
1.999487631e+20
2.006819086e+20
2.00823539e+20
2.00740227e+20
2.000903935e+20
1.994905472e+20
1.99607184e+20
1.985407906e+20
2.00248156e+20
1.9868712e+20
1.982148929e+20
1.990078878e+20
1.970098691e+20
1.965850153e+20
1.972264199e+20
1.961911729e+20
1.951675008e+20
1.950464815e+20
)
;
    }
    obstacle
    {
        type            calculated;
        value           nonuniform List<scalar> 0();
    }
    frontAndBack
    {
        type            empty;
    }
    procBoundary2to0
    {
        type            processor;
        value           nonuniform List<scalar> 
31
(
1.543104579e+20
1.977576579e+20
1.98349173e+20
1.965746278e+20
1.975160532e+20
1.966579397e+20
1.990489937e+20
2.011734493e+20
2.020982123e+20
2.017233084e+20
1.989323569e+20
1.989740129e+20
1.983824978e+20
1.985074658e+20
1.986157714e+20
1.981908803e+20
1.982491986e+20
1.978076451e+20
1.99690496e+20
1.998821135e+20
1.990727997e+20
1.974852725e+20
1.967730873e+20
1.970867838e+20
2.005976642e+20
2.010061114e+20
1.99269949e+20
1.98434573e+20
1.974435297e+20
1.981713974e+20
1.981713974e+20
)
;
    }
    procBoundary2to3
    {
        type            processor;
        value           nonuniform List<scalar> 
19
(
2.019589598e+20
2.034037031e+20
2.039600653e+20
2.037088041e+20
1.997694109e+20
2.008911075e+20
2.021204853e+20
1.980554608e+20
1.987195058e+20
1.987643721e+20
1.989258962e+20
2.031165506e+20
2.01994854e+20
1.99114341e+20
1.970235042e+20
1.987015572e+20
2.049022877e+20
2.012769706e+20
1.955877316e+20
)
;
    }
}


// ************************************************************************* //
