/*--------------------------------*- C++ -*----------------------------------*\
| =========                 |                                                 |
| \\      /  F ield         | OpenFOAM: The Open Source CFD Toolbox           |
|  \\    /   O peration     | Version:  2406                                  |
|   \\  /    A nd           | Website:  www.openfoam.com                      |
|    \\/     M anipulation  |                                                 |
\*---------------------------------------------------------------------------*/
FoamFile
{
    version     2.0;
    format      ascii;
    arch        "LSB;label=32;scalar=64";
    class       volScalarField;
    location    "0.005";
    object      internalT;
}
// * * * * * * * * * * * * * * * * * * * * * * * * * * * * * * * * * * * * * //

dimensions      [1 2 -2 0 0 0 0];

internalField   nonuniform List<scalar> 
546
(
301.727432
304.1446698
302.8326543
300.6890983
299.70707
298.6663806
298.2523007
297.7177271
297.6034703
296.396819
296.172211
296.7097712
296.8220952
295.6382843
296.9889239
296.1221067
294.4014422
294.0156688
295.4072455
294.9278651
302.6882521
302.8132856
301.9582814
303.7072886
301.1094626
300.2264448
299.4757503
299.5153169
299.988468
300.2182935
299.8937621
297.0663085
298.5078818
299.6305858
300.2715887
301.7834167
304.0580817
305.5146417
302.1024244
302.783698
299.6993012
299.6158886
299.1065139
297.4482108
302.4235729
304.3974396
305.2700318
304.3792661
303.6190106
301.3510261
300.7559959
301.713797
301.1113593
299.2969485
297.9254119
300.4655975
298.4532908
301.1320312
304.8575911
303.7771395
298.3621022
297.562784
300.056367
300.4204893
299.895675
297.1855029
299.9772479
299.9776332
299.7594317
299.7558549
301.1566625
301.6001233
302.6928847
305.1976289
302.4211917
302.115078
301.4593838
298.7616867
299.0263779
298.3549103
302.830086
302.4129358
300.8000361
301.2165401
300.6412919
302.2160625
299.5273811
297.5900325
299.9789362
300.9970747
300.3814236
300.0706695
297.5855865
298.1639067
297.5481863
297.6368777
297.5661418
300.6971717
298.1243486
299.7205956
299.4933408
300.3188657
300.4961902
303.4469696
303.002763
303.4548083
304.4132174
303.6871051
305.8352087
306.1608558
302.6168288
302.8399159
302.5367973
303.6911883
300.4250939
299.3753664
300.0838648
299.6451998
298.1412312
299.7161189
301.3158415
301.6289337
300.6965304
301.4577445
301.946913
299.9299914
303.1135008
303.7692852
300.9717952
299.5155614
303.7388652
303.1678559
302.7202578
303.7428198
303.4790595
303.7003322
301.7388468
302.1391632
305.14293
306.1000898
300.8959951
303.7061249
302.7763882
304.5989144
306.3486103
304.9000317
302.538911
298.5335738
297.6769404
300.11112
300.1948827
299.7250577
301.5869302
301.5244352
299.6462544
300.2331104
301.1092867
300.2367367
299.1023268
298.8352587
301.8332221
303.204579
302.5127456
300.6742856
299.858589
299.5010699
300.1456664
301.6112562
300.9575226
302.9685263
300.4205981
302.6646213
301.1013787
301.4883277
300.9162662
299.29101
299.5116312
297.1191677
299.2187004
298.1104459
300.1217664
300.8933533
299.102049
297.2994186
296.1983677
294.5964036
296.288026
299.172767
300.5308557
300.5795415
301.5885396
300.0937209
299.6074424
297.1077069
296.6563816
294.5045232
294.3771716
298.1792907
295.5665503
295.511876
295.318569
297.8074242
299.1820594
301.8156679
302.1162673
304.0357712
302.5354917
299.5314042
298.69023
298.4362912
296.088944
296.5873504
294.0510168
297.8987494
296.5457281
296.979638
299.0966967
298.1380424
300.2921144
301.4200155
301.4887156
300.9017606
298.8780352
298.6381965
293.8986387
295.342215
295.1496862
298.4484974
296.5954518
297.1186775
296.4181229
297.1912735
297.3825999
297.3077925
298.2825215
298.7541434
298.0382873
298.7106731
299.095291
300.0210296
296.8857313
299.2011873
298.8131502
301.1459244
303.2007546
304.2336184
301.1565644
297.3095501
296.7647022
294.5433687
297.5582094
296.6253907
297.1882558
300.1038475
298.9386832
298.7908396
300.2519954
301.3127547
300.951436
299.7262056
302.3935595
300.3228741
301.2183935
298.7552663
299.3064464
299.4401092
299.7969316
303.7233433
303.8188347
304.8119781
301.4327142
301.5778151
300.202886
297.0737767
299.0833811
297.905325
295.2445297
297.4183474
296.1382895
298.3098822
300.7977692
301.7708004
302.4012195
303.1452852
302.3938934
304.1657719
306.1498863
302.6260889
300.3067319
300.3037064
304.2244327
302.5634624
302.6117847
302.7318487
301.9116462
301.4673644
303.4997052
304.2306574
303.7521339
301.4344153
299.0400621
300.2784921
300.0144678
300.3518414
302.702628
301.6964382
303.1394156
301.1275514
302.4371209
301.5087639
302.9307365
300.977178
302.5399799
302.0550109
300.4088874
301.782133
301.001268
299.4490721
296.2507253
299.0581885
298.5455844
300.2655953
301.628173
299.1705989
299.3870377
298.5168291
297.389878
298.0116881
299.6828671
297.9318674
299.2743741
299.6426487
299.84373
300.3696059
300.4971739
300.2214954
300.9818586
299.7637241
297.7304449
298.5669262
299.7333686
298.075108
299.3573182
301.6018999
299.946099
298.623835
298.4761249
298.4829757
297.9674199
296.0228925
294.5702642
295.5821412
296.1854898
293.7346072
293.0223751
290.9891387
293.3407772
294.1806668
294.2689089
297.70764
304.5260311
304.6855954
303.5517113
302.2685201
300.7466783
299.4972738
295.8518225
296.7348644
295.9328294
295.3755423
296.1094849
297.4274579
297.9020172
297.8916884
298.5812827
301.2254219
296.8568923
300.0447166
299.3135286
300.1981056
301.7224666
303.7700819
303.7607743
303.545825
304.488912
307.1317684
308.5286552
305.8097733
302.367812
301.5754564
298.9050299
297.9234353
298.2985444
301.9922562
300.7872503
300.55374
296.4916266
297.4951627
299.5021189
300.5279002
299.092928
301.2122301
300.7056578
298.9666624
297.4517879
297.6393031
300.3799538
299.6819623
299.3988756
298.9529653
299.7947288
299.9723543
300.1263056
302.8051768
301.3576943
302.8054807
298.7919894
299.697783
299.8237844
300.0250654
296.9001489
298.098303
298.2903682
294.9724458
296.3774541
296.7148392
305.5803017
302.6335353
299.401705
298.9730014
300.5641185
301.7077302
298.7348264
301.2560673
300.8685209
300.8871747
297.6755723
299.1364407
303.0271347
301.7080289
302.9562299
299.7048221
302.3707333
302.1147191
300.4183222
300.3429255
300.0936367
299.2624512
299.0628927
298.3369262
297.6320233
299.0723832
301.4178873
299.8951584
301.6519391
303.1174558
295.5235788
296.0296247
296.3606641
298.5941827
297.1045031
298.9259375
298.3950133
299.6214671
299.38501
297.2210794
302.3908783
299.4549671
299.3624207
300.1972574
298.8405014
296.9575649
297.6731011
295.7612698
297.0098839
297.4302181
299.6116482
300.6629722
298.9921508
299.2213667
299.4561765
301.0842814
302.4605121
303.6568379
302.8952264
304.8714
299.4234774
298.524201
297.3228801
296.162114
301.7243702
300.8298081
302.3265004
302.7942806
304.8680293
301.8924323
298.6817172
300.0311496
300.9716415
301.2264933
300.02466
298.9445575
299.9684812
299.1227089
301.2138968
304.0924295
298.4755024
299.0777615
298.3484148
298.1216296
297.1083722
297.1849256
297.3281379
299.8246866
297.8219688
297.7008582
300.1757855
299.9771466
299.9815322
301.3520648
301.5918399
302.3359245
301.52979
302.1078397
301.874361
300.9849096
302.3972412
300.9863227
299.278791
299.3096775
298.8790539
298.3627486
299.1215743
301.0001488
300.7406196
299.2094991
297.0511004
297.1401184
299.0553999
298.8491421
297.5743573
297.2103859
295.291389
293.8955172
297.4140288
297.9676515
)
;

boundaryField
{
    flow
    {
        type            calculated;
        value           nonuniform List<scalar> 
48
(
301.727432
302.6882521
299.6993012
298.3621022
302.830086
299.4933408
301.3158415
300.8959951
301.8332221
300.1217664
295.318569
301.4887156
296.8857313
302.3935595
300.7977692
299.0400621
298.5455844
299.7333686
299.7333686
298.075108
299.3573182
301.6018999
299.946099
298.623835
298.4761249
298.4829757
297.9674199
296.0228925
294.5702642
295.5821412
296.1854898
293.7346072
293.0223751
290.9891387
293.3407772
294.1806668
294.2689089
297.70764
297.0511004
297.1401184
299.0553999
298.8491421
297.5743573
297.2103859
295.291389
293.8955172
297.4140288
297.9676515
)
;
    }
    obstacle
    {
        type            calculated;
        value           nonuniform List<scalar> 0();
    }
    frontAndBack
    {
        type            empty;
    }
    procBoundary2to0
    {
        type            processor;
        value           nonuniform List<scalar> 
31
(
300.1209507
299.9633728
300.8033819
301.6206779
300.7665326
301.7091031
301.2264443
301.7162012
299.6932659
299.7076694
300.3371707
298.8457781
297.5288195
299.5151566
299.0220699
297.3508518
295.1054223
295.3961798
295.922371
297.1850261
303.3916209
301.6543615
305.6916626
306.1365164
306.4001219
305.7923425
297.8925042
295.9607313
298.3973161
301.5858005
301.5858005
)
;
    }
    procBoundary2to3
    {
        type            processor;
        value           nonuniform List<scalar> 
19
(
302.0095702
302.2600715
306.2789728
303.4141834
299.2255663
300.4336826
296.0846767
303.7470905
299.9708334
302.2744263
297.34723
298.9341007
303.9119412
301.5173178
304.1732627
295.8226711
300.6236803
300.6077964
300.6516482
)
;
    }
}


// ************************************************************************* //
