/*--------------------------------*- C++ -*----------------------------------*\
| =========                 |                                                 |
| \\      /  F ield         | OpenFOAM: The Open Source CFD Toolbox           |
|  \\    /   O peration     | Version:  2406                                  |
|   \\  /    A nd           | Website:  www.openfoam.com                      |
|    \\/     M anipulation  |                                                 |
\*---------------------------------------------------------------------------*/
FoamFile
{
    version     2.0;
    format      ascii;
    arch        "LSB;label=32;scalar=64";
    class       volScalarField;
    location    "0.005";
    object      internalE;
}
// * * * * * * * * * * * * * * * * * * * * * * * * * * * * * * * * * * * * * //

dimensions      [1 -1 -2 0 0 0 0];

internalField   nonuniform List<scalar> 
546
(
0.3373744218
0.6376545678
0.6735869734
0.1998139251
0.1822138422
0.7719970059
0.5034844442
0.5619489555
0.2005075026
0.3466334337
0.4335127223
0.308744047
0.2147828777
0.4617895679
0.2493462661
0.2471776753
0.2776195455
0.5034291723
0.452764149
0.2963860442
0.4871820806
0.3252744561
0.6102271327
0.7906751143
0.2988536111
0.4225177435
0.2028590783
0.423853312
0.6237955397
0.4700288399
0.6081535755
0.6193973169
0.3635781654
0.7267505915
0.2447473065
0.4241933243
0.3699990203
0.2916295253
0.2783701652
0.2676264175
0.6248238202
0.2670854701
0.2431773278
0.6678477791
0.9113956159
0.5125160213
0.2189555999
0.3363185549
0.520084666
0.3788090617
0.5689161803
0.557615732
0.5781705868
0.1897856152
0.2933920388
0.3323458354
0.2196335584
0.4255556555
0.4413053886
0.4525092832
0.3321792517
0.2556478367
0.318201061
0.1568821772
0.4484899914
0.3298017581
0.2992045228
0.7976751829
0.4517787207
0.4283455394
0.3593287914
0.4604572396
0.4344364605
0.3681103313
0.1632165456
0.7161756808
0.5227561971
0.5326411371
0.133510098
0.1575328121
0.3048808951
0.1355884855
0.3130491933
0.6176159295
0.4262274984
0.7744934933
0.3006055463
0.3375681423
0.5216216714
0.5212885822
0.26103546
0.4056084859
0.2983408865
0.3247688517
0.264124688
0.1636349493
0.4273298601
0.2530699332
0.4509530879
0.4207942363
0.513152831
0.4072868452
0.4383503159
0.4446363855
0.4316822965
0.1380807605
0.4402750351
0.500107488
0.1596292485
0.2046695022
0.3498073141
0.6076844029
0.7228786984
0.4099994226
0.3050272373
0.4057726528
0.5094862621
0.6608907204
0.3744318968
0.3654438534
0.4276018311
0.09937957323
0.7982447015
0.2185931942
0.4589400209
0.2819942103
0.3679223924
0.3252220365
0.1910681552
0.08755917704
0.2892700022
0.3434042414
0.3053754553
0.2626781493
0.5376818926
0.8052277882
0.2804508476
0.282716446
0.445596864
0.627726456
0.151661382
0.32401225
0.1864828663
0.3944615686
0.3887131014
0.4543564231
0.6029247448
0.3449147362
0.4708582734
0.7250755975
0.4328901559
0.1961047379
0.6414166382
0.3681738593
0.145469936
0.4653782525
0.3092787647
0.1943926173
0.450328275
0.3725280952
0.1402351851
0.4036879686
0.5867542249
0.4020130937
0.1418233492
0.7584086873
0.7279505235
0.3192214675
0.5257563498
0.9578705996
0.1277891057
0.1480707816
0.499517591
0.2298968075
0.4142027684
0.6729608984
0.4568282282
0.7003841318
0.4001770988
0.2414675433
0.2561783136
0.51072738
0.3928500582
0.4513781619
0.6406174319
0.4700969141
0.4023331353
0.9884607772
0.329170992
0.2752021252
0.2838545361
0.2449316123
0.5497558064
0.2833750934
0.4915817266
0.4514141008
0.3211118843
0.441708507
0.3617064299
0.4475746627
0.2186115844
0.3276423202
0.213832453
0.4598231585
0.177027233
0.3218491532
0.5476772404
0.4415253063
0.4368694564
0.2253207844
0.5098751798
0.4917573773
0.3590815233
0.4471817765
0.3948167608
0.2407559115
0.2646422349
0.711700588
0.4086985228
0.05456660813
0.1773899446
0.5750842622
0.4514225642
0.1689371044
0.5603120693
0.6047624148
0.2204130604
0.6544201432
0.4810274256
0.3562470103
0.9992262481
0.5241146385
0.5304811427
0.1179092137
0.4043556254
0.5014379929
0.2477541447
0.4427117086
0.1687170301
0.4884146286
0.3224167446
0.6241345368
0.7671733455
0.4410939629
0.5417339561
0.1319624369
0.4939947504
0.669560958
0.1934676881
0.4221943986
0.4574357082
0.1622957435
0.6923234499
0.7383765666
0.2699629369
0.9529681348
0.4994743005
0.2598542732
0.2300697704
0.2592572011
0.3168919186
0.3031473584
0.3190880132
0.2056662091
0.6707051553
0.459032096
0.1989509161
0.4447084559
0.3745225687
0.3995115909
0.3369801196
0.4588146427
0.196346568
0.4946506323
0.5120897462
0.445586076
0.2270240478
0.2407166443
0.3115778678
0.6796078912
0.2771383566
0.3436425101
0.1424775575
0.1086609091
0.2301488763
0.2073323812
0.3830704203
0.6089441629
0.2760451634
0.4106519229
0.266903856
0.2737896573
0.8521528819
0.3932977884
0.6596845054
0.2486391854
0.4769164808
0.227332521
0.5859064737
0.1775946955
0.1493670397
0.5940485185
0.9944092664
0.4081904767
0.4494072136
0.3525463657
0.5701194623
0.4276666892
0.7349072039
0.2471887687
0.3010187491
0.2762438535
0.4230837022
0.5307775974
0.7338618252
0.2181893882
0.5554486185
0.3106653426
0.2584425443
0.3199131228
0.5175653981
0.3142147659
0.2849194013
0.6192472777
0.4339576097
0.6553271383
0.4544287922
0.5407008213
0.1822200734
0.4746753962
0.7487051167
0.7907576157
0.5153329247
0.5526480627
0.1571223873
0.341382356
0.5504715541
0.4301056727
0.3016326061
0.5323245818
0.1940963163
0.2415403058
0.383110364
0.5961436926
0.223680405
0.2821813241
0.6633058875
0.4966971172
0.5726000387
0.3273935331
0.4754312417
0.2111268356
0.197609609
0.2329039178
0.5919048688
0.5692220802
0.2366962465
0.37734102
0.2055921269
0.5596772971
0.2392926121
0.7246531723
0.1645159658
0.636544953
0.5932612964
0.255945068
0.4554698988
0.3883845658
0.328235138
0.3125376932
0.3705292672
0.2873500728
0.6597613908
0.3639284713
0.2368832845
0.2951176893
0.1730468251
0.4281161984
0.2282589677
0.2955140745
0.5127722184
0.5865422412
0.2877282343
0.625374882
0.6687800817
0.400254769
0.2446296502
0.7051494129
0.7417658102
0.3700352248
0.319595434
0.4161662193
0.4891433305
0.1430761272
0.5524463399
0.2488594416
0.5234815616
0.1473907013
0.1725890978
0.6319783175
0.4320766169
0.4726220946
0.2187538897
0.6047961259
0.276986127
0.5652555353
0.5750258756
0.3030835787
0.5049254974
0.7836743122
0.4168823772
0.5123721579
0.4791173829
0.3070100724
0.238772577
0.2189974882
0.3180888122
0.3055318003
0.3963514904
0.373982063
0.6124822467
0.1656857071
1.069642806
0.3077233468
0.899594821
0.124198515
0.2156851922
0.5586303802
0.1883912576
0.1812623961
0.1667002765
0.5111475317
0.7408430896
0.3513217952
0.5804049693
0.07711993798
0.1708748485
0.5377247258
0.4449648007
0.6893919701
0.41527924
0.4640338762
0.4656316688
0.233814491
0.3041706716
0.6713572717
0.572583102
0.4220656609
0.6246946237
0.2591971729
0.1946429092
0.2568181289
0.4166249511
0.4218629233
0.6350714208
0.4908004282
0.637338841
0.2275886092
0.3027220493
0.4848532481
0.1654425035
0.5164520991
0.1829613683
0.2354889083
0.3088689744
0.1548773557
0.5374013407
0.2442241021
0.3380725466
0.2325703073
0.1483450148
0.3615607534
0.3559517311
0.3535541545
0.10792843
0.3545579493
0.1657114548
0.3671477881
0.7142632618
0.2218243172
0.4056453241
0.5645126156
0.2760087781
0.1687844441
0.5783282066
0.2990529166
0.6790535967
0.3016519404
0.2550485207
0.3636376505
0.2901208615
0.356917385
0.6110484584
0.8550052786
0.9600920817
0.4694673725
0.267450506
0.5309510422
0.6121180557
0.2320707046
0.1685129285
0.6576989424
0.2642498947
0.5082924836
0.3110557025
0.6058563003
0.3300698128
0.4366981071
0.3909285436
0.3300773724
0.1973736708
0.2767810784
0.1317620623
0.2491805086
0.696773416
0.3005885444
0.4811688398
0.1664915147
0.2111233561
0.2425876971
0.4243463442
0.2231896973
0.4497969509
0.3256366456
0.2266916399
0.400414248
0.5994583954
0.4738908055
0.3771131687
0.4848116864
0.3264459636
0.6447860015
0.3316680502
0.7355677847
0.2162183781
0.2345572994
0.5082231834
0.4804554053
0.341279184
0.2203640425
0.4131612136
0.4110054409
0.292550116
0.3178530268
0.1459621247
0.3334829539
)
;

boundaryField
{
    flow
    {
        type            zeroGradient;
    }
    obstacle
    {
        type            calculated;
        value           nonuniform List<scalar> 0();
    }
    frontAndBack
    {
        type            empty;
    }
    procBoundary2to0
    {
        type            processor;
        value           nonuniform List<scalar> 
31
(
0.2699449151
0.2382948896
0.3035672866
0.285378308
0.349922764
0.3621112859
0.2931654392
0.6932713941
0.3153309149
0.7666785639
0.2683192028
0.524154469
0.7138450804
0.4561709782
0.4867955738
0.4147709793
0.2478059907
0.3037639284
0.2402278991
0.1607214071
0.2621702128
0.5254756391
0.4268052679
0.2978533341
0.3206946422
0.3606969947
0.3719322276
0.373466393
0.2342190324
0.3921969748
0.3921969748
)
;
    }
    procBoundary2to3
    {
        type            processor;
        value           nonuniform List<scalar> 
19
(
0.4197897487
0.3450443881
0.6067585056
0.2640142344
0.4815406219
0.1374921535
0.360284961
0.3583563263
0.8141648049
0.5290199356
0.323553189
0.697436107
0.282553723
0.6677113012
0.6126007857
0.575005431
0.2844165715
0.4875572523
0.5166651751
)
;
    }
}


// ************************************************************************* //
