/*--------------------------------*- C++ -*----------------------------------*\
| =========                 |                                                 |
| \\      /  F ield         | OpenFOAM: The Open Source CFD Toolbox           |
|  \\    /   O peration     | Version:  2406                                  |
|   \\  /    A nd           | Website:  www.openfoam.com                      |
|    \\/     M anipulation  |                                                 |
\*---------------------------------------------------------------------------*/
FoamFile
{
    version     2.0;
    format      ascii;
    arch        "LSB;label=32;scalar=64";
    class       volScalarField;
    location    "0.005";
    object      internalEMean;
}
// * * * * * * * * * * * * * * * * * * * * * * * * * * * * * * * * * * * * * //

dimensions      [1 -1 -2 0 0 0 0];

internalField   nonuniform List<scalar> 
546
(
0.3222808892
0.4184278883
0.4214298654
0.4156971963
0.4141327179
0.4109941786
0.4109904193
0.4072744737
0.4045507907
0.4037798852
0.4062503729
0.4102811715
0.4094122336
0.4060110847
0.4078318074
0.4042060879
0.4037029415
0.3996398513
0.3977426747
0.396113431
0.3262491644
0.4163175847
0.4164445718
0.4202889954
0.4176117906
0.417923863
0.4159660262
0.4156247895
0.4146768286
0.4143038681
0.4125451949
0.4074938641
0.4121494997
0.4097878479
0.4117524789
0.4133396229
0.4205820867
0.4265678585
0.422985102
0.4243569102
0.3190631827
0.4104053171
0.4107913361
0.4072650243
0.4156774365
0.4202812056
0.4212753111
0.4205011914
0.4199747506
0.4200612489
0.4162912993
0.4199943
0.4149128725
0.4124815794
0.4098545924
0.4110162487
0.4047447782
0.4112004942
0.4159020767
0.4127159185
0.3199389594
0.4122308005
0.4187397834
0.4163279667
0.4125305786
0.4076231827
0.4137641944
0.4113493873
0.4123948846
0.409166147
0.4143864097
0.4127936964
0.4184499859
0.4225444998
0.4224226289
0.4217865445
0.4184265151
0.4135480594
0.4204495762
0.4185788603
0.3240159822
0.4177325207
0.4158505658
0.4190076018
0.4188298632
0.4197896481
0.4116105242
0.4093076369
0.4108335994
0.4089908164
0.4081888291
0.4090781353
0.4057245192
0.4078505461
0.4080521927
0.4094063038
0.4131595935
0.4188558292
0.4094767271
0.4115829999
0.3199290625
0.410107376
0.4114210246
0.415565763
0.4152711044
0.4183863341
0.4205831103
0.4197196257
0.4259424956
0.427963145
0.4238271685
0.4224849928
0.4201307634
0.4215417322
0.4172500899
0.4192184976
0.4180532995
0.4143229589
0.4162900489
0.4187993133
0.3207495105
0.413388245
0.4167450969
0.4183895647
0.4171235201
0.4163382132
0.4205655395
0.4239737099
0.4163649731
0.4180884243
0.422970472
0.4222799304
0.4232582088
0.4225916619
0.4202349647
0.4182532526
0.4163675376
0.4155645465
0.4192396641
0.4204138815
0.3223619086
0.4190647054
0.4211774302
0.4236776209
0.4272213221
0.4231846089
0.4212646806
0.4161167574
0.4177304188
0.417124704
0.4177072785
0.4148815644
0.4182219605
0.4213087684
0.4184087232
0.4226125286
0.4222526371
0.4208563665
0.420797194
0.4210917468
0.3243554681
0.4199071988
0.4190186735
0.4142760269
0.413238369
0.4096451664
0.410992895
0.4148731519
0.413091179
0.4201901451
0.4176412374
0.4224145129
0.4170291165
0.4170448666
0.4151632382
0.4107176765
0.4120022955
0.4088650621
0.4095515021
0.4060114803
0.3193058153
0.4103900334
0.4084801279
0.4101903034
0.4060988656
0.4074605291
0.4086244614
0.4141686981
0.4143376693
0.4113449867
0.413038018
0.4115603519
0.4138055108
0.4111389973
0.4096272583
0.4066728798
0.4048039915
0.4075972056
0.4015268985
0.4025233451
0.3181529733
0.4120387589
0.4148526222
0.4180010577
0.417357474
0.4187327018
0.4172754281
0.4086702779
0.4092748033
0.4113812676
0.4062042732
0.4089690437
0.4023768365
0.4080874944
0.4031982115
0.4058036163
0.4108466602
0.4158912241
0.4240599533
0.4261207831
0.3206040872
0.4139837523
0.4100134368
0.4122950743
0.4041290485
0.4043645165
0.4062736859
0.408445804
0.4054151137
0.4054809651
0.4038770983
0.4068790422
0.4082355867
0.4108003174
0.41537226
0.4137094385
0.4141408268
0.4100758948
0.4109823426
0.4132379162
0.3169898532
0.4151716772
0.416918901
0.4189786502
0.4214713032
0.4206499223
0.4159104542
0.4137266697
0.4131562204
0.4101653162
0.4120533304
0.4093285713
0.4101565736
0.4130413124
0.4096668197
0.4112857354
0.4097397686
0.4107367776
0.4115943003
0.4091084378
0.3215836925
0.4080229047
0.4129295344
0.4099481101
0.4130799388
0.4134021821
0.413739627
0.4189487213
0.4186785531
0.4215372461
0.4138647748
0.4138038304
0.410259774
0.4066669234
0.4072161623
0.4079423032
0.405402406
0.4079425549
0.4070383927
0.4111212359
0.3235714438
0.4161339414
0.4178032956
0.4148213538
0.4144714197
0.4180895605
0.4204646672
0.4178703131
0.4127160509
0.4108466063
0.4168054529
0.4145124243
0.4172240208
0.4150565086
0.4183076197
0.4155421302
0.4177849462
0.4189486174
0.417817978
0.4148032652
0.3191524803
0.4132126018
0.4137637689
0.4170965302
0.4237384242
0.4193107879
0.418056094
0.4142251235
0.4167918717
0.4168477095
0.4180644854
0.4149530076
0.4163420302
0.4180719585
0.4178668384
0.4173297902
0.4154709363
0.4092296056
0.4044157282
0.4104153746
0.3218698863
0.4184964309
0.4234313145
0.4180370474
0.4136904998
0.415475355
0.4173959981
0.4192628105
0.4203729835
0.4209839327
0.4200065234
0.4214022568
0.4215126002
0.4189868954
0.4142393858
0.4138420929
0.4157037982
0.4142799624
0.412976766
0.4132097855
0.314186516
0.3988661503
0.40283732
0.409274924
0.4081665357
0.4061611047
0.4073506539
0.4069651751
0.4067420736
0.4058923326
0.4073566097
0.4077189416
0.4088237354
0.4069274075
0.4062272023
0.4032411007
0.4051839914
0.4051259395
0.405484398
0.4080311586
0.4193981723
0.4200358849
0.4189133274
0.4189066683
0.417182813
0.4178464502
0.4028445428
0.4058595267
0.4093139845
0.4049344487
0.4074026519
0.4115050876
0.414827712
0.4144840526
0.4144707294
0.4192386639
0.4154697889
0.4180935356
0.4181233546
0.4189042757
0.4227521105
0.4233118492
0.4241559992
0.4218543963
0.4244745008
0.4333518419
0.4207825334
0.4198889592
0.4181790244
0.4160639394
0.4150089775
0.4132060633
0.4140155016
0.4219468247
0.4212607157
0.4234050955
0.4172174107
0.4180331427
0.4172826962
0.4201259331
0.415642555
0.4182714548
0.4182612449
0.4147112524
0.4087805304
0.4105685574
0.4133444456
0.411858369
0.4118129298
0.4123754013
0.413967274
0.4129108798
0.415576931
0.4237801056
0.4195022613
0.4209535992
0.416074165
0.4152588932
0.4161167784
0.4163822813
0.418003787
0.4173319168
0.4125859624
0.4071324278
0.4098011253
0.4120850957
0.4218409108
0.4169699917
0.4125000877
0.412068325
0.41212263
0.416723915
0.4132007232
0.4164261765
0.4113269404
0.4096457458
0.4218213419
0.422512401
0.4268396728
0.4191623851
0.4179193265
0.4114859691
0.4156093747
0.414683115
0.4149849305
0.4135222436
0.406611225
0.4047775605
0.403808371
0.4023317873
0.406124252
0.4095453563
0.4140820109
0.4098369422
0.4129504708
0.41659669
0.4022611398
0.4089376902
0.4115011752
0.4184079496
0.4124385559
0.4134532687
0.4158374503
0.4160917558
0.4168110348
0.4080176392
0.4248206137
0.4184725136
0.4149859793
0.416002153
0.416958605
0.4143685208
0.4120546413
0.4103366105
0.413468064
0.4153283933
0.4121315694
0.4131192263
0.4108335946
0.4090607172
0.4045442693
0.406830906
0.4099260962
0.414591131
0.4160024223
0.4237131051
0.4082435915
0.4075782706
0.4092706356
0.4093982494
0.4191382784
0.4203470242
0.4217165829
0.4220396236
0.4220621975
0.4154885672
0.4121625495
0.4181618068
0.4178331339
0.4197003394
0.4188600445
0.4160514287
0.4145640705
0.4118635748
0.4116336081
0.4108491954
0.4073989914
0.4078995437
0.407033579
0.4050804265
0.4048279447
0.4001413169
0.4015744466
0.407977802
0.409434724
0.4122095972
0.4128382726
0.4120199921
0.4122983897
0.4142109092
0.4159835033
0.418549118
0.4202786008
0.417951508
0.419576434
0.4193851678
0.4163647238
0.4148403841
0.4125233802
0.4127616288
0.4147423612
0.4152060497
0.4164539375
0.4208160656
0.4206262252
0.4190273743
0.4106324748
0.4075534823
0.4092055659
0.4105593104
0.4047036194
0.4033369351
0.4020401955
0.3980393671
0.4007029618
0.401199922
)
;

boundaryField
{
    flow
    {
        type            calculated;
        value           nonuniform List<scalar> 
48
(
0.3222808892
0.3262491644
0.3190631827
0.3199389594
0.3240159822
0.3199290625
0.3207495105
0.3223619086
0.3243554681
0.3193058153
0.3181529733
0.3206040872
0.3169898532
0.3215836925
0.3235714438
0.3191524803
0.3218698863
0.314186516
0.314186516
0.3988661503
0.40283732
0.409274924
0.4081665357
0.4061611047
0.4073506539
0.4069651751
0.4067420736
0.4058923326
0.4073566097
0.4077189416
0.4088237354
0.4069274075
0.4062272023
0.4032411007
0.4051839914
0.4051259395
0.405484398
0.4080311586
0.4106324748
0.4075534823
0.4092055659
0.4105593104
0.4047036194
0.4033369351
0.4020401955
0.3980393671
0.4007029618
0.401199922
)
;
    }
    obstacle
    {
        type            calculated;
        value           nonuniform List<scalar> 0();
    }
    frontAndBack
    {
        type            empty;
    }
    procBoundary2to0
    {
        type            processor;
        value           nonuniform List<scalar> 
31
(
0.3197019426
0.4095011633
0.4118762124
0.4093004057
0.4100959776
0.4095939192
0.4139107284
0.4190085596
0.4181124099
0.4173568446
0.4124469675
0.4104848048
0.4074609514
0.4104395955
0.4099874627
0.4068238965
0.4038705923
0.4033680995
0.4079329586
0.4100666572
0.4169357241
0.411242437
0.4152435499
0.4165107741
0.4242954817
0.4243160595
0.4097839899
0.4054198741
0.4067161525
0.4125774272
0.4125774272
)
;
    }
    procBoundary2to3
    {
        type            processor;
        value           nonuniform List<scalar> 
19
(
0.4210536457
0.4244174558
0.4312369103
0.4266770456
0.4126494667
0.416641893
0.4131234675
0.415291029
0.4115031174
0.4147568317
0.4083276808
0.4191547324
0.4237811857
0.4144464305
0.4137068165
0.4057759717
0.4252297059
0.4176840862
0.4059371519
)
;
    }
}


// ************************************************************************* //
