/*--------------------------------*- C++ -*----------------------------------*\
| =========                 |                                                 |
| \\      /  F ield         | OpenFOAM: The Open Source CFD Toolbox           |
|  \\    /   O peration     | Version:  2406                                  |
|   \\  /    A nd           | Website:  www.openfoam.com                      |
|    \\/     M anipulation  |                                                 |
\*---------------------------------------------------------------------------*/
FoamFile
{
    version     2.0;
    format      ascii;
    arch        "LSB;label=32;scalar=64";
    class       volScalarField;
    location    "0.005";
    object      linearKE;
}
// * * * * * * * * * * * * * * * * * * * * * * * * * * * * * * * * * * * * * //

dimensions      [1 -1 -2 0 0 0 0];

internalField   nonuniform List<scalar> 
546
(
7.027610922
8.260361078
8.572615433
5.559532021
3.28238449
8.400955554
7.211782817
11.00973764
5.634887664
9.206124184
7.756820087
7.171729356
4.49614541
9.865017201
4.883613522
7.216455383
6.645632119
5.90423996
7.523231005
6.30382019
8.445869831
5.903205283
7.720593527
9.782035203
8.298022659
10.87216839
7.046668633
8.829596161
7.900770523
4.204386559
8.319574081
11.28431114
7.80366654
10.59916594
5.852845691
7.969793937
8.225243253
4.982860597
8.186171925
7.927013391
7.184583727
7.852267586
4.905862631
8.235782392
9.222260402
11.47024992
6.688993094
5.998209488
7.93175312
8.372140121
10.44648226
13.18385951
11.37765778
4.681216755
10.05435433
5.393670923
6.973853911
9.747635532
12.44227093
8.567089435
5.571753768
7.286819902
8.983784332
8.864229244
7.122691775
5.26636554
7.047714235
11.86191139
6.287821891
10.52586578
6.563036493
6.583891996
10.96430219
8.793689336
4.928232126
9.204476634
8.067111493
7.560092054
4.930176324
4.172657568
5.336333223
3.409283994
6.638997808
9.524939893
10.67377194
12.54363678
6.76294746
5.843745273
12.17232125
10.31456622
3.411316647
7.718357957
6.597598271
6.739650106
2.76661131
6.18846344
7.580419477
7.239904386
8.097667678
7.597030132
8.122322209
8.252861212
7.0960531
6.762651079
11.83356347
5.38185064
9.203881779
9.871119535
4.757586673
5.080691382
12.30453002
8.719919201
10.80839287
6.697869689
8.37387646
11.00284541
8.261738418
9.204133507
6.978147502
10.14286748
5.83951489
6.10891788
10.82570987
5.963219651
5.955273031
7.018598874
5.963172983
6.067087006
5.717396808
4.748588756
9.043774557
10.55072431
11.48371893
6.871000248
9.791383379
10.38884739
6.472006914
7.272346982
6.472494751
4.89242189
3.977038438
7.030705426
7.2332224
7.803888727
11.53854899
6.198628269
10.07161636
7.939395509
4.66199255
9.738819622
5.4191381
11.00907941
8.052367426
8.445206285
4.268066802
7.695883542
7.467243208
6.467315549
12.34355762
5.616018323
3.414474367
7.019324651
9.300334659
7.182633083
7.502827922
13.4197643
9.740455832
7.506877745
10.18934614
11.27803242
7.113279511
4.21798143
9.684164652
6.240461222
7.788740068
10.21737449
9.701859655
9.067346687
8.893113337
6.740088786
5.544647954
9.926774868
8.23449354
7.334097177
11.42734948
6.500809949
9.791728984
10.838816
6.971556934
3.454244284
7.170007572
8.773938191
7.946175387
11.49165141
10.34589327
6.651394217
9.03935715
7.467329751
7.209151053
6.940202787
4.621933672
9.911533993
4.020814419
7.954664065
8.00497309
7.007014293
9.230061484
9.378220902
7.92939921
7.668773627
10.35432155
6.636455422
9.692011968
9.596654187
6.979215516
3.153540569
4.976858693
9.482293786
7.982755074
2.586800207
5.624718589
7.847423246
12.38043192
8.576116733
8.030045717
7.540583131
4.451009536
9.094659723
6.844186596
8.70233307
15.8970536
7.222336945
5.416468817
6.536060188
5.684964635
7.32659133
7.350176992
6.25701137
5.573156419
9.733418861
7.549472859
7.267598803
6.461932696
10.30928201
11.87333533
3.976327593
9.082495516
8.417737951
3.878550821
10.14565585
12.279769
2.423340068
11.39951672
9.149065878
9.6683958
13.00913929
10.03851879
6.164538679
4.605924135
8.430818588
6.813770346
6.538163555
6.525627605
7.311897796
11.59627881
8.662795234
5.540945222
5.35195777
4.02384476
6.970281655
9.193412305
10.28513411
4.208415852
7.585460729
9.369696452
10.5074183
7.634315146
6.375422923
7.644531386
14.84950874
5.702811665
7.630449202
6.901765094
5.668985943
5.28752677
5.485880191
8.466689143
7.597144502
4.06363073
4.600810563
4.643671593
7.341125709
9.204780167
8.302464336
7.7869905
6.850224842
4.371030439
7.234379867
9.330809395
4.404180729
6.145065885
9.31159505
12.45036721
9.979863997
6.99183457
9.498369257
10.64100965
6.500569634
10.22471287
7.332108656
11.464667
7.546600826
6.142419406
7.72663235
7.707522826
4.331662847
7.505713492
7.146250135
6.187674771
5.393852255
6.274421213
7.592099324
7.092633234
7.225933358
8.072274569
13.02959053
5.500477907
12.58303664
4.455774122
6.193336938
11.40230339
10.35369093
10.07082107
9.629848644
6.126860383
9.996934237
12.88972512
8.155761338
7.198705722
11.54793065
5.688538218
5.801512189
6.252808489
8.009861674
7.990482463
2.358473501
10.11048608
8.541600338
9.995607816
6.248821901
7.390739208
4.399770805
4.021517748
7.038236448
15.01687513
6.842089183
6.223847474
7.715953296
4.05016655
8.376077526
7.165537326
6.641604193
5.162920327
8.962145032
4.515188377
6.962204767
12.79925341
5.837906513
9.855649839
11.11813836
6.384458379
9.282879674
16.57203043
7.192494323
8.752475659
6.660978566
4.84215025
7.121861723
5.583398322
5.272587586
5.279808767
13.49256209
7.214596828
9.9568197
14.0665145
11.28787092
8.305221407
12.1601668
11.26743702
8.294175222
5.798304656
12.23154387
11.71046279
4.908877271
7.732770423
5.963021076
9.60209386
3.403237546
4.095386312
10.15859169
8.835780544
9.171039368
8.7995257
11.35239889
7.064698417
11.98703591
7.861120043
4.66977173
9.882093971
8.632932008
6.66678852
9.126216626
6.038812627
9.768912147
6.471057644
6.608048826
8.092935479
7.682753201
8.770683424
6.664274025
10.07915682
6.219505072
11.80822603
6.90796635
14.22240571
5.699538795
3.976576355
8.625710551
6.519820151
5.33762279
5.375386752
10.8912808
16.71075664
5.492352005
9.078145716
1.968497188
4.19522655
8.159035624
6.686345556
12.75500366
4.484430717
10.85103524
6.056360812
5.231332151
2.631418366
12.13363157
9.518215688
10.18628482
11.77129273
5.056947163
6.344927829
5.273226663
5.745695589
10.59928853
7.374410099
11.22805401
8.029832669
7.137092676
4.520101512
7.664581761
4.437323659
8.189025441
5.790870367
8.398131938
6.274291068
3.920158743
7.884796034
9.06520208
7.950487259
9.100331924
3.89107212
13.08615316
8.901915676
8.100068248
4.268151499
8.942917074
6.223579524
7.131367003
14.26878993
3.802438534
7.376050819
9.823987682
4.290875749
4.513094581
10.16225741
4.618504462
13.65929856
5.120704279
12.0993605
7.65718976
5.646014048
4.812562271
9.782642814
8.343654258
14.19705497
7.045046232
6.314189835
7.901703413
9.88394587
5.631877024
4.304442955
10.2526019
3.290991249
8.871404704
5.050470798
7.193845001
7.856841023
9.249919712
9.765948237
9.580646396
4.177792421
6.108010588
3.444378147
5.297140659
10.79369729
5.345609435
6.869472399
3.866106678
4.940750333
4.005222244
9.700592959
6.636823043
6.698226514
6.759085687
4.585070511
8.032203194
8.743555725
7.666483133
4.130941281
8.126057087
5.675636001
7.427444133
8.197687064
10.67830158
4.358055137
7.99600698
9.291884604
7.597919867
6.299623884
10.69134391
9.622083512
6.703270716
6.396911112
7.385521843
4.063751419
6.455877566
)
;

boundaryField
{
    flow
    {
        type            zeroGradient;
    }
    obstacle
    {
        type            calculated;
        value           nonuniform List<scalar> 0();
    }
    frontAndBack
    {
        type            empty;
    }
    procBoundary2to0
    {
        type            processor;
        value           nonuniform List<scalar> 
31
(
6.683287809
7.971906035
10.13045621
6.812710739
7.06470628
8.772654988
8.598420239
9.580184663
8.646183731
12.77147526
4.835832418
7.464281251
7.468684034
8.140186287
9.20822004
6.277702854
5.811942612
6.882990146
6.373487498
5.850747965
3.573409901
9.057825301
6.59468518
8.013988931
4.100520395
8.365781347
6.58379627
4.489989055
8.055333686
9.614251933
9.614251933
)
;
    }
    procBoundary2to3
    {
        type            processor;
        value           nonuniform List<scalar> 
19
(
5.133576883
7.027962074
7.708865002
6.326974607
11.31538293
4.735540889
7.224780371
8.759932107
10.29135493
9.07520207
7.197497737
15.6679785
5.972169084
9.631796864
9.475224031
13.0279329
4.863027911
8.068865646
10.73048218
)
;
    }
}


// ************************************************************************* //
