/*--------------------------------*- C++ -*----------------------------------*\
| =========                 |                                                 |
| \\      /  F ield         | OpenFOAM: The Open Source CFD Toolbox           |
|  \\    /   O peration     | Version:  2406                                  |
|   \\  /    A nd           | Website:  www.openfoam.com                      |
|    \\/     M anipulation  |                                                 |
\*---------------------------------------------------------------------------*/
FoamFile
{
    version     2.0;
    format      ascii;
    arch        "LSB;label=32;scalar=64";
    class       volScalarField;
    location    "0.005";
    object      linearKEMean;
}
// * * * * * * * * * * * * * * * * * * * * * * * * * * * * * * * * * * * * * //

dimensions      [1 -1 -2 0 0 0 0];

internalField   nonuniform List<scalar> 
546
(
5.878399862
7.873536383
7.878448544
7.805876136
7.812599389
7.801442833
7.815569666
7.763118993
7.733437837
7.768957706
7.820096212
7.902312286
7.897749057
7.842518457
7.83813202
7.794465334
7.828071845
7.776230806
7.714812254
7.674491692
5.925478451
7.912231945
7.871933496
7.889781758
7.885155784
7.889246356
7.88589701
7.872301865
7.841055361
7.832759583
7.824486782
7.810393811
7.850097612
7.807036229
7.825117391
7.812541515
7.883073092
7.92943397
7.94338895
7.960606229
5.851621157
7.849908048
7.823343276
7.779019084
7.854577183
7.902340847
7.88941032
7.900960729
7.909160179
7.950192117
7.893020129
7.930141164
7.8150248
7.833430867
7.818864491
7.793298023
7.716700881
7.770693073
7.783500156
7.751143798
5.919866903
7.991549702
7.953794828
7.90742829
7.855719726
7.835148753
7.883111419
7.841304318
7.864787995
7.802451088
7.866458553
7.837870609
7.917754673
7.90302845
7.967701556
7.96484913
7.922345737
7.878603966
7.997406902
7.978173063
5.931605497
7.984634891
7.893135634
7.915386115
7.937707176
7.890830273
7.801374043
7.820043933
7.787087777
7.734498263
7.757603413
7.783339429
7.793867171
7.812100894
7.812891883
7.833895549
7.906301895
7.933830163
7.822310175
7.810223984
5.893385006
7.868331406
7.809665473
7.811655948
7.81708293
7.868126634
7.88276403
7.879896132
7.922497218
7.948732086
7.945973567
7.91166902
7.876512219
7.897287002
7.910363478
7.965817305
7.93366704
7.87516685
7.936801875
7.978496049
5.860812311
7.885515898
7.873757663
7.886755825
7.847812739
7.874443251
7.875151504
7.938937871
7.870572187
7.918869673
7.928876414
7.912138542
7.940814031
7.907677978
7.854634706
7.812856509
7.809638827
7.785707031
7.778588017
7.793251933
5.894552625
7.905910816
7.884995945
7.883453448
7.893313326
7.876896725
7.897483199
7.910724766
7.963103102
7.903880816
7.904473288
7.858520729
7.873987034
7.92641397
7.920955666
7.966455984
7.963324433
7.959426729
7.967244769
7.979359536
5.898973999
7.951273481
7.861158253
7.815390622
7.819204853
7.754637821
7.766128614
7.806610649
7.785564147
7.85325063
7.851387025
7.89399371
7.831726913
7.827751113
7.816483908
7.772383202
7.781314636
7.782111183
7.755074183
7.739740542
5.860528051
7.828429872
7.747383925
7.847956142
7.803028748
7.853404014
7.834819668
7.841772935
7.827559561
7.77379115
7.77205888
7.786942148
7.83787184
7.843450556
7.834271702
7.853012601
7.821323705
7.773604714
7.722470842
7.75451473
5.928145033
7.953558743
7.913379942
7.885960968
7.865071039
7.822410724
7.831138067
7.770755426
7.798906977
7.81936263
7.796197336
7.835963255
7.77244025
7.791708671
7.741902394
7.758412529
7.818066052
7.935971508
8.058707415
8.061342719
5.864234771
7.933397207
7.818725526
7.864835827
7.852906885
7.804251005
7.852684871
7.811185157
7.81053187
7.796346173
7.781461777
7.802290842
7.843297224
7.893980696
7.941041482
7.890556412
7.890770621
7.793031009
7.773395872
7.770075122
5.911029377
7.995224955
7.933835498
7.915978998
7.905027233
7.878282196
7.864267421
7.92323766
7.912720619
7.921789542
7.870645295
7.852719388
7.871360041
7.836358551
7.797467368
7.825385101
7.765332956
7.752890956
7.792726366
7.761766242
5.842531787
7.829024889
7.796609222
7.791157188
7.84326889
7.808138123
7.814703583
7.800507482
7.812894943
7.854410117
7.786148253
7.77261428
7.738962779
7.739414351
7.703695014
7.755858057
7.785205504
7.784981599
7.821773609
7.826531836
5.901737519
7.882479995
7.808633972
7.750475875
7.767140089
7.779813336
7.78798721
7.81683471
7.783371228
7.731547399
7.732491014
7.735930263
7.785384297
7.750788977
7.835568879
7.801070626
7.807919002
7.796118777
7.79451542
7.812026778
5.866462254
7.898702505
7.852078076
7.899966938
7.954270264
7.919810221
7.828425071
7.813427274
7.856006203
7.863472364
7.88381693
7.850840501
7.835564525
7.86002963
7.894931237
7.859676572
7.853484746
7.766973565
7.763433447
7.80608613
5.917644623
8.019443937
7.996475139
7.966080625
7.887111703
7.943265837
8.004337983
8.040543738
7.974462802
8.040073116
7.970952514
7.999964562
7.996137428
7.936642045
7.863909567
7.843415147
7.874977429
7.867660221
7.900144695
7.893040934
5.792426192
7.708683525
7.656320239
7.708423146
7.731809799
7.733241224
7.740191401
7.73611373
7.734761316
7.781409436
7.841136518
7.819499035
7.84282523
7.882790845
7.876519905
7.878057761
7.843298156
7.809606769
7.836169882
7.811324691
7.847317207
7.83416951
7.855211195
7.877132899
7.882950551
7.933369037
7.769877281
7.819765746
7.91303565
7.814184128
7.826278931
7.867510912
7.914489909
7.914243597
7.90023503
7.924098849
7.954434519
7.905026363
7.908274685
7.911509221
7.954743389
7.913858047
7.957447607
7.909039051
7.943797766
8.0063306
7.776327496
7.819926856
7.874550519
7.870719047
7.916075624
7.911268431
7.918474978
7.963663804
7.982869476
8.020460992
8.00751335
8.010753861
7.945310371
7.96352051
7.910776703
7.883418337
7.885188086
7.858132143
7.784148181
7.789628519
7.808088943
7.799505446
7.813562982
7.851293625
7.88195707
7.841820922
7.874956397
7.958153481
7.909597202
7.906860312
7.960384596
7.913612228
7.915072803
7.879071337
7.979354052
7.925630026
7.848950385
7.843560461
7.871466838
7.877529341
7.794108977
7.768808298
7.768333794
7.788943811
7.760234336
7.835149226
7.853090828
7.846157081
7.753590969
7.74036114
8.024992736
7.993937734
7.989751098
7.871316115
7.825867405
7.787928198
7.801304643
7.795693902
7.855419554
7.800497152
7.699838657
7.667493803
7.707741382
7.668960969
7.743611435
7.774753665
7.749846778
7.711416795
7.725144131
7.767888403
7.764240612
7.876471672
7.88332716
7.942463642
7.849233586
7.846217183
7.906552041
7.901575421
7.908927521
7.79500637
7.991786083
7.952646366
7.899306221
7.90919757
7.970601771
7.963272297
7.886693284
7.895302604
7.916691258
7.949417255
7.79280692
7.783595231
7.777632696
7.741922249
7.643842307
7.652420548
7.701526808
7.762122379
7.813606868
7.905577143
7.739092836
7.732494034
7.812118457
7.826972163
7.884637772
7.918050618
7.890050289
7.894574775
7.844676196
7.80175271
7.856101375
7.920984248
7.885187429
7.903413096
7.909152995
7.892580029
7.839537655
7.814992066
7.776056771
7.690776579
7.759147013
7.750860139
7.754429375
7.729425298
7.770735153
7.681738899
7.691742903
7.752042374
7.791912443
7.856467232
7.806167165
7.792012371
7.80515624
7.8076491
7.844304121
7.849252379
7.903707107
7.834282596
7.877423406
7.88247485
7.820115857
7.816230496
7.83430006
7.838701867
7.88111791
7.899881006
7.925242913
7.957136204
7.964445702
7.976926342
7.876428173
7.833914329
7.826114187
7.864373402
7.794194048
7.769270095
7.79938333
7.753687401
7.701215504
7.717502513
)
;

boundaryField
{
    flow
    {
        type            calculated;
        value           nonuniform List<scalar> 
48
(
5.878399862
5.925478451
5.851621157
5.919866903
5.931605497
5.893385006
5.860812311
5.894552625
5.898973999
5.860528051
5.928145033
5.864234771
5.911029377
5.842531787
5.901737519
5.866462254
5.917644623
5.792426192
5.792426192
7.708683525
7.656320239
7.708423146
7.731809799
7.733241224
7.740191401
7.73611373
7.734761316
7.781409436
7.841136518
7.819499035
7.84282523
7.882790845
7.876519905
7.878057761
7.843298156
7.809606769
7.836169882
7.811324691
7.876428173
7.833914329
7.826114187
7.864373402
7.794194048
7.769270095
7.79938333
7.753687401
7.701215504
7.717502513
)
;
    }
    obstacle
    {
        type            calculated;
        value           nonuniform List<scalar> 0();
    }
    frontAndBack
    {
        type            empty;
    }
    procBoundary2to0
    {
        type            processor;
        value           nonuniform List<scalar> 
31
(
5.876453994
7.883183179
7.814676586
7.767772067
7.788067307
7.757416615
7.806724163
7.919771466
7.926005452
7.890317013
7.778889781
7.763443833
7.750413579
7.75536365
7.765822819
7.770530713
7.745330922
7.734907411
7.815445518
7.830222452
7.804093338
7.736066442
7.696242168
7.694204538
7.836992508
7.853611999
7.812283673
7.780273832
7.718700715
7.770320312
7.770320312
)
;
    }
    procBoundary2to3
    {
        type            processor;
        value           nonuniform List<scalar> 
19
(
7.92769027
7.980432113
8.009171768
8.016535756
7.782577214
7.903521144
7.933094423
7.754215001
7.774108437
7.74737839
7.811980287
7.964219382
7.922931752
7.776838339
7.758022171
7.783921373
8.012937225
7.915850507
7.70043774
)
;
    }
}


// ************************************************************************* //
