/*--------------------------------*- C++ -*----------------------------------*\
| =========                 |                                                 |
| \\      /  F ield         | OpenFOAM: The Open Source CFD Toolbox           |
|  \\    /   O peration     | Version:  2406                                  |
|   \\  /    A nd           | Website:  www.openfoam.com                      |
|    \\/     M anipulation  |                                                 |
\*---------------------------------------------------------------------------*/
FoamFile
{
    version     2.0;
    format      ascii;
    arch        "LSB;label=32;scalar=64";
    class       volVectorField;
    location    "0.005";
    object      momentum;
}
// * * * * * * * * * * * * * * * * * * * * * * * * * * * * * * * * * * * * * //

dimensions      [1 -2 -1 0 0 0 0];

internalField   nonuniform List<vector> 
546
(
(0.007268231282 -0.0004635044502 -0.0005222450235)
(0.00918418881 0.0005256622721 5.18391939e-05)
(0.009328445839 0.0002071336952 0.0001140175511)
(0.006395879644 4.945741918e-06 -0.000133975481)
(0.003893780575 -6.327047591e-05 0.0002734048754)
(0.00908505916 0.0007258138117 -0.0009170626291)
(0.007376868333 0.0004451016274 -8.49409541e-06)
(0.01132987547 -0.000257846094 -8.63232014e-05)
(0.006474149106 -0.0003028431757 -0.0002696526086)
(0.009537136243 4.324320108e-06 0.0004722163188)
(0.008398031441 -0.0004899191253 0.0005079401543)
(0.007559096269 -0.0006257563898 -0.0001396439367)
(0.005022793002 -0.0001402937326 -0.0001634503558)
(0.01015257601 7.775450207e-06 -0.0001433925625)
(0.005164009732 -1.231877218e-05 -0.0005797471154)
(0.007351253489 -0.0003917255187 0.0004657756503)
(0.006618302224 -0.000704533544 -0.0006335672471)
(0.006631861287 0.0002381108228 0.0001688163009)
(0.007706623933 0.0002595932573 0.0003231075057)
(0.006741187438 0.0001460272621 7.270208547e-05)
(0.008416233066 -0.0003419316871 -7.836335276e-05)
(0.007029905748 -0.000523448625 -1.883249309e-07)
(0.007931025657 0.001056018477 -0.0003492198756)
(0.01097709429 0.0001258888664 0.0001351424247)
(0.008274170325 -0.0004775299569 0.0005390062069)
(0.0112033664 0.0004470143205 -0.0007209919806)
(0.007153438798 -8.929539541e-05 -9.767060969e-06)
(0.00958728584 0.000190602136 0.0005290015357)
(0.008477314564 -0.0001759276237 -0.000322603221)
(0.004952596312 -0.0003682154531 0.0003566347092)
(0.009337916964 -0.0004569062678 0.0005750720118)
(0.01160915115 -0.0002766616564 -0.0006062932726)
(0.008764903971 0.0008039512243 0.0001554696931)
(0.01159900324 -0.0002127008296 -0.0004615689915)
(0.00628822848 -0.0003721954547 0.0001975740112)
(0.008600214847 0.0007597544166 -0.0001811495129)
(0.009337264015 0.0003704131501 -0.0003030253483)
(0.005197331139 0.0002273007241 -0.0007944995467)
(0.008779226172 0.0005462886664 7.784167398e-05)
(0.00770964716 9.362685502e-05 -0.0006119264371)
(0.007753614914 -0.0008816898532 0.0001359599938)
(0.00838188862 0.0001936858488 -0.0006395644026)
(0.004963844604 0.0001972831148 0.000487188045)
(0.008415530895 -0.0004255376667 8.278253438e-05)
(0.009912134179 0.0002693253221 -0.000184712233)
(0.01159682157 -0.0006104215976 0.0002505940378)
(0.007155207353 -0.00013422194 0.0002469758667)
(0.006504358893 -3.431111505e-05 -0.0003496740936)
(0.00815411549 -0.0002629642241 0.0005208729943)
(0.00912074896 -3.336207657e-05 0.0003208139666)
(0.01006717252 0.0001222322884 -4.479416727e-05)
(0.01322533947 -0.0001796547407 -0.0003100015901)
(0.01236563765 0.0003241399272 -0.0004524033488)
(0.005029261743 -0.0002163057258 -0.0004621539137)
(0.01060307849 0.0002460285677 -0.0002318352281)
(0.005443006086 0.0002358300419 -0.0004516832405)
(0.007255986274 3.7099982e-05 0.0003762892651)
(0.01027930134 0.0001364357404 1.699914533e-05)
(0.01298673173 0.0007962893984 -0.0003225409241)
(0.008494720891 -0.0006165440703 4.96915902e-06)
(0.006568384673 -0.0004425669023 -0.0001674184562)
(0.008397902552 0.000143347317 0.0002568223047)
(0.00878656891 0.0007124932023 -0.0002725542593)
(0.008070168894 -0.0001961373541 -0.0004614214549)
(0.007666225363 -0.0003227738741 -0.000252144136)
(0.005906127263 0.0006599145039 0.0001892250216)
(0.007350957608 0.0004750109626 0.0004152990413)
(0.01264949446 0.0001562464538 -0.0003763449045)
(0.007098130272 0.0003479779949 0.0010945347)
(0.01013426965 0.0006200030586 -0.0005223249071)
(0.00698955419 -7.980964428e-05 -0.0003495715622)
(0.007600510367 0.0003186444891 0.0007382957506)
(0.01095748058 6.900017385e-06 0.0009825141668)
(0.01007451266 0.0001034741518 7.074190405e-05)
(0.005265193905 0.0003830860977 8.026835148e-05)
(0.009122174534 -0.0006201014837 -0.0003310275594)
(0.008507036238 0.0005350857697 -0.0005728509478)
(0.008491832211 -0.0002140064806 -0.0002796294772)
(0.004902770252 0.0001961954881 -0.0002576911825)
(0.004781566349 0.0002203455588 -3.005795712e-05)
(0.005857026296 0.0001238801371 -0.0006571793659)
(0.003665344044 -7.683408737e-05 -0.0001283343846)
(0.006724485914 -0.0004844831005 -0.000261809368)
(0.01036326554 -0.0002112825312 0.0001415498711)
(0.0116707475 -0.000223447008 0.0006029659419)
(0.01329628673 -0.0006071125302 -0.0001523958461)
(0.007058488594 0.0001164540608 -0.0005135234631)
(0.005809726639 -0.0001912948191 0.0006377066702)
(0.01319572226 0.0007111997347 -9.77708653e-05)
(0.01098449381 0.0006200217296 0.0001788646269)
(0.004009109654 -0.0002619848831 0.0001414160041)
(0.008403042331 -0.0002148300415 -0.0004339219919)
(0.007433509068 -0.0002814702784 -3.325112257e-05)
(0.008142307135 -0.0002379324854 -0.0002414049888)
(0.003159689544 5.653048573e-05 0.0001567453671)
(0.00636195571 0.0006806817559 0.0005586925194)
(0.008077495334 2.95221771e-05 -0.0005134936993)
(0.007368044151 0.0008568662634 0.0002111698717)
(0.008895350219 0.0007950307792 0.0008136079051)
(0.008112210988 0.0003872196129 -0.0008973542652)
(0.008250769983 -6.85718825e-05 6.23567994e-05)
(0.009018837788 -4.585168496e-05 -0.0008924182055)
(0.007561453726 -2.040877408e-05 -0.0001720571612)
(0.007044441638 -0.0004068532374 0.0007724260525)
(0.01182706035 0.0002465647558 -0.0003332856921)
(0.00558548554 0.0003133189297 0.0001159028936)
(0.009104072187 0.0002552734619 0.0005440050127)
(0.01087630701 -0.0003849720873 0.0008226994925)
(0.005067902743 -4.072517104e-05 -0.0006811445586)
(0.00529162979 -0.0003591209523 0.0001319112727)
(0.01210759423 -9.995105537e-05 -0.0003814713241)
(0.009409889141 -0.0006269673933 -4.688873659e-05)
(0.0114190932 -0.0002036721697 0.0002043676338)
(0.007532897356 -4.845426854e-05 -7.533302328e-05)
(0.00882128095 0.0003159059778 0.0001246054764)
(0.01144390437 -0.0005238890882 0.0002126741608)
(0.009135144656 -0.0003271512793 0.000609367415)
(0.009737793506 0.0001482669482 0.0003314298178)
(0.008011254176 -0.001130837405 0.000288835539)
(0.009454921527 0.0006722951053 1.122142834e-05)
(0.006569873883 -0.0007220775031 0.000223748513)
(0.006372999156 -0.0002495534383 0.0004670071466)
(0.01147436545 6.846765855e-05 0.0001296706804)
(0.006131811968 -7.171008233e-05 -0.0004575601371)
(0.006037567164 -0.0006609398152 0.0006022324684)
(0.007687740654 0.0002578235091 0.0004964824767)
(0.006558899993 -0.0004620386345 0.0005349150384)
(0.006397308796 -0.0002678272383 0.000114540658)
(0.006327781169 -0.0007622018762 -0.0001944978064)
(0.004739346934 -0.0004934476115 0.0005622347525)
(0.0096062803 0.0005927991599 0.0004427612032)
(0.0122243153 -0.0003601213378 -0.0004353017085)
(0.01067314608 -0.0003865964159 8.79834034e-05)
(0.007451119881 0.0001910121087 9.775568715e-05)
(0.01035980965 0.0006238773902 0.0004963330002)
(0.01163335912 0.001003142673 -0.0001710955909)
(0.007378224567 0.0002627363797 -0.0006267087666)
(0.007475384428 -0.0002733934282 0.0002103801643)
(0.007762612068 -0.0002660571636 -0.0001640627847)
(0.005669492608 7.49439159e-05 -2.616021988e-05)
(0.004579650185 -0.0003946725981 -0.0003870332278)
(0.007629487958 0.0001066499874 0.0002116544853)
(0.006875781459 -0.0002618290531 0.0005816371541)
(0.008035744724 3.772585006e-05 -0.0004074098777)
(0.01096465681 0.0004622603375 -0.0002694086135)
(0.006629381969 3.357347167e-05 -0.0006417125697)
(0.01018687691 0.000630019164 -0.0008737772545)
(0.008167123312 0.0008681742242 0.0002357244354)
(0.005512021806 0.0004998825431 9.044698087e-05)
(0.01102153048 0.0001393133308 -0.000140225186)
(0.006301840722 0.0002898179928 3.766945057e-05)
(0.01112802307 0.0003188362738 0.0006283391159)
(0.008222056436 -0.0003283302201 0.0007349285031)
(0.008519879033 0.0004588883795 0.000108842143)
(0.004524552971 8.166954485e-05 0.0001833850582)
(0.008642705651 -0.0002792265604 0.0002483604334)
(0.007715034807 -0.0007128877312 -0.0006014766679)
(0.007416536068 -0.0002714318009 -4.243095353e-05)
(0.01233628378 0.0005688988765 -0.0005800785548)
(0.006416011922 5.088840853e-05 -9.841321676e-05)
(0.003921959857 -0.0006282670152 8.563621044e-05)
(0.007646582064 -0.0003048380727 4.552125447e-05)
(0.009855291413 -0.0002660623129 -3.293591597e-05)
(0.007230527459 -7.201600898e-05 0.00032941039)
(0.007906434242 -0.0001976779383 0.0008991018542)
(0.01417808777 -0.0005406866754 -0.0001771853542)
(0.01047384049 0.0001433287415 -0.0007584892756)
(0.007772576592 0.0006709100377 -0.0006218999767)
(0.01098990448 0.0001292572152 0.00126502259)
(0.01268652913 1.63688677e-05 -0.0003645725819)
(0.00746988677 6.331837077e-05 -0.0001686666012)
(0.004039844657 0.0001044690859 0.0005295106989)
(0.01020623585 0.0002286746754 0.0003230662453)
(0.006787157106 -0.001054797666 -0.0003814388866)
(0.008052444465 0.000525203393 -0.0008402676785)
(0.01109441731 -0.000283123221 -0.0009536483104)
(0.01026989642 0.000207876774 0.00135573566)
(0.01044070315 -0.0007696293206 0.0001428068432)
(0.009782109114 -0.0001408292233 -0.0003749328983)
(0.006194042827 -0.0003066248559 -4.597208833e-05)
(0.005920521937 0.0007260252852 0.00050902816)
(0.009654622813 -0.001261514397 -2.507409704e-05)
(0.008809918118 0.000114722118 8.36640561e-05)
(0.007909797641 0.0004324720566 5.013823022e-05)
(0.01177544526 -0.0004661321336 -0.0002314893723)
(0.006131179031 0.0001302460291 -0.0001087475086)
(0.0107809731 0.000223896992 0.0006992008358)
(0.01149362245 0.0001679143908 -0.0002790370134)
(0.006895675339 3.877007712e-05 -0.0002153522032)
(0.004007482507 8.513830971e-05 -0.0004688587376)
(0.007739584352 0.0003696209029 0.0001499352088)
(0.008887007516 -0.0003949911952 -0.0003772310023)
(0.008595246762 0.0006564956455 -1.168596816e-05)
(0.01183186035 0.0004589074608 -0.0007822398092)
(0.01153695846 -0.0004732845611 -0.0003806266472)
(0.00746098131 -0.0003874779722 -0.0002789157015)
(0.01008091735 -0.0006342922329 -0.0001941799631)
(0.008274454214 -0.0003630707284 0.0001010950604)
(0.007644949043 -0.0002668926575 -0.0003806281568)
(0.007493496881 -0.0003329377438 -0.0001641542514)
(0.00497966916 0.0003146657849 0.0003261960282)
(0.009660306857 9.983569952e-05 0.0006720530555)
(0.004408432091 0.0001028681768 0.0001251016147)
(0.008937317494 -0.0005242439287 -0.000279182436)
(0.008315563168 0.0003518956872 0.0006079710214)
(0.007643588921 0.0001950737756 0.0004051734132)
(0.0102439906 -0.0003399307921 -0.0001667213216)
(0.01017912301 0.0006075613024 0.0001475274447)
(0.007706064764 -0.0006697944042 0.0005471715731)
(0.008058973388 -0.000106298289 0.0001031223553)
(0.01168279096 -0.000442596452 -8.771236565e-05)
(0.006925167529 0.0004863413994 -0.0002930732093)
(0.01030996461 -0.0004541206512 0.0004190107749)
(0.01031540608 0.0007326904289 0.0006071809815)
(0.007627054863 0.0005826836393 -0.000221273215)
(0.003788716015 0.0002394354461 -0.0001088803697)
(0.005521582203 -0.0001449317182 -0.0004657593066)
(0.009222699942 0.000765524866 0.0002123189931)
(0.009069690079 0.0002977000259 0.0007215765683)
(0.003103503549 -0.0003133718206 0.0002699579479)
(0.005971417481 0.0001826394347 -9.41772966e-05)
(0.00742880173 0.0003288133525 0.001040512204)
(0.01221264747 0.0001261903503 0.0003661168575)
(0.00883435087 -0.00011319413 -0.0002764916216)
(0.00866878132 -0.0002712883181 9.022023987e-06)
(0.008075787484 0.000127458948 -0.0002894537364)
(0.00497522194 -0.0002535536543 -0.0003820229629)
(0.01015390715 -0.0006352616368 -0.0005094053069)
(0.007171579726 0.0001004994311 0.0004109169131)
(0.009584482837 -0.0007621730396 -0.0008593429226)
(0.01655144704 -0.0005764782324 -0.0003554909324)
(0.00769450274 4.842801237e-05 -0.000143976576)
(0.005539492196 -0.0001669153712 0.000129762335)
(0.007046837464 0.0001606857778 -0.0005526912326)
(0.006027455624 -0.0001443679334 -0.0007341350789)
(0.007855720237 -0.0005269494762 0.0006647293407)
(0.008361381112 -0.0003039016067 0.0007523154034)
(0.006672229159 -0.0001518292421 0.0005457120493)
(0.006125635159 -0.0001106197933 -0.0001327944732)
(0.01066735028 -0.0004329740466 -0.001083702422)
(0.007928051516 0.0009362925074 0.0003708028042)
(0.00781118833 -0.0001974334872 0.0006258631612)
(0.007222408242 -0.0003354942897 -0.0006686596207)
(0.01027650026 -0.0002722990425 5.929163504e-05)
(0.01275778188 0.001095970929 -0.0004364721335)
(0.0044074153 2.83274264e-05 -0.0002116218169)
(0.009546332641 -0.0003125278063 0.001163916434)
(0.008684732089 -0.0006481266057 -1.125585607e-05)
(0.004174760073 0.0003359444756 0.0007331182323)
(0.01103122748 -0.0002015361509 0.0002268406394)
(0.01253667116 -0.0001678573091 0.0007385940067)
(0.003035288049 -0.0001853970387 -0.0001703070152)
(0.01182648707 0.0001255747248 -0.0003640258614)
(0.009643488223 0.0003473098295 -0.0005523506138)
(0.0106601012 -0.000391825897 0.0009202000934)
(0.01286873762 0.0002118316065 0.0001217171811)
(0.01068026404 -0.000530521017 -0.0003968950513)
(0.006346602511 -2.887005732e-05 -0.0002330486976)
(0.004509866641 3.876765219e-05 -0.0005690077585)
(0.009215396738 -0.0004040805278 0.0003315878616)
(0.007179777155 4.454812465e-05 -0.000373234072)
(0.007008581718 -0.0004600027568 -5.326448146e-05)
(0.007186367478 0.0002346340753 0.0005846911628)
(0.007410474452 0.0007837012851 0.000173055546)
(0.01226748857 0.0002873113736 -7.429992746e-05)
(0.009387456367 0.0004007394256 0.0008487459593)
(0.005599782064 0.0007836651962 0.0002250047546)
(0.006343653893 -0.0002033485436 -0.0001206635244)
(0.004305456182 -0.0002089298047 -0.000289190976)
(0.00712860407 0.0001920363455 -0.0005492592619)
(0.00981094324 2.64454762e-05 0.0007147773841)
(0.01128115703 0.0009446933263 0.0009618200605)
(0.004444289881 -0.0005373606956 -0.0002559983139)
(0.008007992396 0.000399180025 0.0001404213578)
(0.01025430803 -1.690833905e-05 -0.0002461255062)
(0.01121906815 -5.950193522e-05 0.0005497286854)
(0.008186828537 0.0001226350712 0.0003063490786)
(0.006838853095 0.0006734766596 -1.596713589e-05)
(0.008023368555 -0.0003188556888 0.0002750205068)
(0.01526648652 0.0006660620333 0.0001338546574)
(0.00615556434 -0.000611033457 0.0001583646536)
(0.008158378451 6.861508672e-05 -0.0003753315813)
(0.007483395983 -0.0008464118677 0.0003081034017)
(0.0060797344 -0.0001635988539 -0.0003765024743)
(0.005836694278 0.0009889982412 0.000204504759)
(0.005964933405 -0.0004774896177 -0.0002052306263)
(0.008884086275 0.0005132473486 -0.0001939317308)
(0.008237696659 0.0002967534677 -0.0001299893119)
(0.004345820627 -8.209592102e-05 -0.0009920575224)
(0.004877742913 -0.0005678237107 -3.650078326e-05)
(0.005039031391 0.0006795301314 -0.0004218555685)
(0.007958478668 6.509890904e-05 0.0002404537766)
(0.00992377688 -0.0008209067426 -8.217338032e-05)
(0.009213667071 0.0001408458456 -0.0004952040087)
(0.0086087617 7.666880645e-05 0.0003367894709)
(0.007083394121 -0.0001924676588 0.0009346482463)
(0.004936010312 0.0002279498708 0.0002936802152)
(0.008500796692 0.000291690155 -0.0004109438031)
(0.009317241309 -0.0001151812817 0.0004632690165)
(0.005018032256 -0.0001613113163 -3.143664934e-05)
(0.006261752035 0.0003317927758 -0.0001599670813)
(0.009690346614 -0.0001246678177 -0.000965054124)
(0.01303453927 -5.561640535e-05 -0.0006037690712)
(0.01101443121 0.0005835917101 0.0002921738045)
(0.007455466206 0.0006536677401 -0.000688159278)
(0.009219157961 -0.0003216478418 0.0003933609965)
(0.01044703013 0.001217801959 -9.17298367e-07)
(0.007338021922 0.0002421350853 0.0006184803396)
(0.01108585813 0.001013208554 -0.0001830159731)
(0.007777392815 -1.426586103e-06 -0.0002145513367)
(0.0118285222 -0.000688812141 -0.0008785080883)
(0.008398478096 -0.000521744808 -0.0002125204429)
(0.007273801437 -0.0003974485988 -0.0007882456399)
(0.008913708063 -0.0004069886633 0.0003837005551)
(0.008394299756 0.0003906835057 0.0002767826432)
(0.005417298669 0.0002164344341 -0.0001386951707)
(0.008366575035 -0.000234887617 -0.0003904639803)
(0.007931703449 -1.084682161e-05 -7.437437661e-05)
(0.00633586831 7.588012152e-05 0.0002272397355)
(0.005875198656 -0.0003946246389 -0.0001460115595)
(0.006780537879 -5.137950698e-05 0.0003004844926)
(0.007493638315 0.001085500127 1.426317829e-05)
(0.006936076625 4.404937088e-05 -0.0003908491348)
(0.007741818298 -0.0006344848263 -0.0009423907733)
(0.008066442446 0.0003076584428 -8.687423468e-07)
(0.01314267367 -0.0002879845123 0.001031311901)
(0.005946626883 0.0004306029521 0.0001967067137)
(0.01332656929 -0.0007301781349 -0.0004327793297)
(0.004556856687 2.82867191e-05 -0.0001376882152)
(0.006735897309 -0.0002674926919 0.0001177313259)
(0.01182227396 0.0001375236322 0.0001788969598)
(0.0111966332 -0.0002824979702 -0.0003810251638)
(0.01054322389 -0.0002623626205 -0.0008620633929)
(0.009967328703 0.0003976381969 -0.0003385394371)
(0.006555931139 -0.0008409098888 -0.0001267434896)
(0.01048874667 -0.0003483107262 -0.0004346747807)
(0.01321407678 9.782025529e-05 0.0003306445174)
(0.009620508216 -3.291252916e-05 -0.0003864562136)
(0.007490211167 -1.115964508e-05 -0.0001869864865)
(0.01228482757 0.0003047948707 -0.000399917141)
(0.006583330672 0.0001141865788 0.0003918159034)
(0.00616093122 -7.43166608e-05 -0.0002453555784)
(0.006685951425 -0.0003660644267 4.971894319e-05)
(0.00967512577 7.50114192e-05 -0.0001369043214)
(0.007709981999 0.000706253605 -0.0008991001501)
(0.002851662947 0.0004617571794 0.0002918611856)
(0.01065316029 -0.000168460001 0.0003626741559)
(0.009276543579 0.0001112950085 -0.00016290009)
(0.01010452209 -6.047738419e-05 7.397744809e-05)
(0.006666782708 -0.0005647843032 0.0004421691352)
(0.007943252928 9.243191752e-05 0.0004046109433)
(0.004979484836 -3.823934486e-05 0.0001678890263)
(0.004259108306 -0.0001436827682 0.0004169341093)
(0.007249872817 -5.000723493e-05 0.0009147645258)
(0.01529905445 0.001322134496 -0.0004213175058)
(0.007781912063 -0.0003105331898 -3.928141602e-05)
(0.006621306461 -0.0003329267348 -7.019509002e-06)
(0.008458917678 9.072749533e-05 -0.000557388903)
(0.00434395636 0.0004730913005 3.567512136e-05)
(0.008940073987 -0.0005112756115 -0.0005093643156)
(0.007151094833 2.138205196e-05 -0.0003370234382)
(0.007471499689 -0.0003182810129 8.820464694e-05)
(0.005885637661 0.000240495212 -0.0001757687193)
(0.008447935196 -0.000159113962 -0.0008288557059)
(0.005129035597 0.000246287544 0.0001869107674)
(0.008267175605 1.52233533e-05 0.0004963979847)
(0.01387647482 -0.0002869342055 -0.0007767521515)
(0.006614622377 0.0005578753879 0.000879146019)
(0.01017114644 0.0005789783322 -0.0004761296294)
(0.01084879584 -0.001037020988 -0.0001459571566)
(0.006871334909 0.000302048808 -0.0001527493012)
(0.009450658932 -2.305331604e-05 -0.0004797510253)
(0.01667743341 -0.0003219559126 0.001486776492)
(0.008279305684 0.0002194906251 2.165797872e-05)
(0.008878912221 0.0002426153617 0.0009440619863)
(0.007231286827 -0.0005934239086 0.000105071207)
(0.005209357594 -9.447674664e-05 0.0001545099168)
(0.00787245636 0.0002864576383 -0.0001188636298)
(0.006391978297 8.99683098e-05 -0.0002088306015)
(0.00559018483 0.0004828890418 0.0005278364271)
(0.005510477951 -8.243951811e-05 -0.0006248653758)
(0.013598503 0.0007338373001 0.000953235692)
(0.007823449368 -0.0006285237474 0.0001433681745)
(0.01044403314 -0.0001799292572 1.146989235e-05)
(0.014149316 0.0005875133496 -5.41408416e-05)
(0.01102818686 0.000215797752 0.0001934003116)
(0.008585561117 0.000848877184 -0.0001146440666)
(0.01271662935 0.0001000703066 -7.967075187e-05)
(0.01236915565 0.0003063949087 -0.0004091419129)
(0.008986811107 -0.0003657741804 -0.0005219537004)
(0.006664348909 -0.000136010548 0.0001119081624)
(0.0133243893 -0.000602957027 0.0006293250901)
(0.01185643688 -0.0008582954268 0.0004253393722)
(0.004898524819 -0.0004662195005 -0.000292215662)
(0.008148934671 -3.897497389e-05 0.0004066808145)
(0.006014155913 0.0002275210068 -0.0001698577772)
(0.01117805732 -0.0003314063565 -0.0009454654684)
(0.003666582727 0.00012527864 0.0002477168168)
(0.004712107766 0.0005151367874 -2.183961019e-06)
(0.01110766759 0.000256840279 -0.0002118171011)
(0.009891530803 0.0006273942195 -0.001051602899)
(0.009203609045 0.0002300968841 0.001139221818)
(0.008894203563 -0.000807671657 -0.001062980413)
(0.01167950925 0.0003828075846 0.0002493186021)
(0.007524216835 0.0002469526497 -0.0005789973831)
(0.01227972724 0.0002045275495 -9.224791346e-05)
(0.008147971782 0.0005565735076 -2.734925533e-05)
(0.005434163141 -0.0005866072811 0.0003943990386)
(0.01104727432 0.001219876797 5.770193747e-05)
(0.01003052794 -0.0002297473849 -0.0007041061978)
(0.007558954864 -0.0002213674247 0.0004465137282)
(0.0102746101 -0.001029796698 0.0001085995693)
(0.006396096083 -0.0003003578806 -0.0003770308043)
(0.009632696765 -0.0001607049153 0.0001583885451)
(0.007056177439 -0.0001209873823 0.0002559522731)
(0.006766157034 0.0004968953488 0.0004375626131)
(0.008394972632 -2.559348753e-05 2.318911371e-05)
(0.008277195874 0.000167190741 -0.0002014939677)
(0.009425479867 -0.0002721195359 2.182839959e-05)
(0.006663383443 0.0004310443636 0.0002282846415)
(0.01068127234 0.0005243534484 -0.001193743783)
(0.006618283281 4.330422202e-06 -0.0001460595141)
(0.0130775036 -0.0007688922048 -0.0007342790437)
(0.006891936189 -0.0001800457752 -0.0004299776856)
(0.01448095369 0.0002369238648 -0.001458866188)
(0.006269123884 0.0005612914122 0.0002206134301)
(0.00424269298 3.915693245e-05 -0.000292589854)
(0.008963502471 -0.0002758357138 -0.0003624871277)
(0.006595302906 0.0001662766765 0.00034404844)
(0.00586372711 -0.000448274578 -0.0006532741048)
(0.006099769643 0.0007404921976 -0.0005747633122)
(0.01171605258 0.0001022838951 -0.0007667470432)
(0.01807814084 0.0004084899035 0.0004515032942)
(0.005936738647 -0.0007765541167 -0.0002054012534)
(0.009644317681 -0.0001620657979 -0.0003226551963)
(0.001827954926 -0.0004805397341 0.0003008283066)
(0.004373630805 6.756892558e-05 -0.0001260357622)
(0.007761930599 -0.0003786366808 -0.0008438783033)
(0.006861267113 -0.0009477911724 -0.0003706205504)
(0.01403479599 0.0005660405805 -0.0003593150892)
(0.005073905058 -0.0005191358514 -0.0005073906068)
(0.01114926873 -0.0005582758642 0.0007445798126)
(0.006786079126 0.0001734993579 0.0005946403342)
(0.005860066585 0.0001374857071 8.333528751e-05)
(0.002810095387 -0.0002513553283 -7.948815725e-05)
(0.01299678197 3.101572411e-05 0.0004082664401)
(0.01031882778 -0.0001232443839 -1.800644102e-06)
(0.01116554188 2.111149751e-05 -0.0003143621794)
(0.01258494991 -0.0002605415559 0.000446307339)
(0.005766118272 -0.0003832275133 -0.000266984254)
(0.006994505841 -0.0005629836859 -0.0003891007355)
(0.006358420893 7.922020288e-05 -0.0004678899788)
(0.00631884217 -0.0004509162432 4.51946021e-05)
(0.01115927825 -0.0005447771915 -0.0006314893624)
(0.007922295034 -0.0009178685523 -0.0005294384889)
(0.01227586376 -0.0002889112169 0.0005819009285)
(0.008573902066 0.0002482480535 0.0001040841891)
(0.007286144447 0.0006256459776 0.0002714626836)
(0.004675824537 0.0001567107721 -1.154363556e-05)
(0.008312907187 0.0001450565451 0.0006696017551)
(0.005099042579 -0.0001461476558 -0.0005619352992)
(0.008717664651 8.263022402e-05 -0.0008522192977)
(0.00600321793 -0.0005991564698 0.0003656023619)
(0.008698349163 0.0002565502791 0.000198743041)
(0.007039939401 0.0001530231757 -0.0001386305301)
(0.004288163228 -0.000200878159 0.0005183982377)
(0.008194844572 -0.0003125872181 0.0008470916814)
(0.009285442943 0.0003869251975 -0.0004588591052)
(0.008242320379 -0.0005078480702 0.0001261514327)
(0.009249682383 0.0003177002706 0.0001251238337)
(0.004217559414 0.0004131148829 0.0002105097672)
(0.01225523313 -0.0002560074802 0.0001081075719)
(0.009287473583 0.0004821509214 -0.000173946771)
(0.008800902556 -0.0002855120442 -0.0002022835723)
(0.004196854042 0.0004222217018 3.960795992e-05)
(0.00993262703 0.0005442586764 0.0005554920283)
(0.00654113836 -0.0001912269951 0.0004620364044)
(0.007766122078 -0.0008616849865 -0.0001681971604)
(0.01483021467 -0.0001410805807 -0.0008570779404)
(0.004271758741 4.095836753e-05 0.0003827840972)
(0.00805888788 0.0003817874571 -0.0006792003515)
(0.01052780341 1.720715292e-05 -0.000369086495)
(0.004965913398 -0.0003479105695 0.0003520855621)
(0.005212193843 -0.0003726332269 -0.0003490387)
(0.01019956834 0.0007486942287 -0.001275059928)
(0.005281648441 -0.0003506857099 -4.451106668e-05)
(0.01416189957 -3.287530943e-05 -0.0005433563904)
(0.005652220098 -0.0004104690666 -0.0001286101096)
(0.01249661823 0.0004341203429 -0.0001936145993)
(0.008179895331 0.0003673528434 -0.0006917081498)
(0.005578419555 -0.0001252952458 0.0007956827599)
(0.005211461799 0.000147778363 0.0002495117318)
(0.009902576692 0.0003296803636 0.001415669748)
(0.008500332061 0.0009429729079 -0.0003620628597)
(0.01527019879 -0.000740363918 -0.0001481522417)
(0.007807202759 0.0001020008423 0.0002574889548)
(0.007004380978 0.0001570962664 9.99404302e-05)
(0.008084790129 0.00081777832 -5.954584373e-05)
(0.01039877969 0.0004331125762 -0.0004729922648)
(0.0059399842 0.0002849350553 0.0005474042278)
(0.004957631265 0.0001643234576 0.0001724543191)
(0.01079322974 -0.0007370537519 0.0006221024483)
(0.003963599756 0.0004084738401 -8.916025729e-06)
(0.009189684302 0.0008733801265 -0.0005038379181)
(0.00493303153 0.0001425337525 0.0001310054393)
(0.007666538109 0.001119746828 -0.0004442036815)
(0.008149313251 -0.0004948219506 3.606228831e-05)
(0.009723216039 0.0008690640977 -5.066855085e-05)
(0.01004630791 -0.0003506385334 -5.938140604e-05)
(0.01000327806 -0.0001277660498 0.0002755770655)
(0.004869132718 -8.750952984e-06 -7.392178302e-05)
(0.006621681575 -0.0003186809488 -0.0004835309503)
(0.004028402787 7.303594165e-06 -0.0006035840068)
(0.006477744643 0.0002987694237 -0.0001175092232)
(0.01173586853 -0.0003854744899 -0.0002923893583)
(0.006206796434 0.0003494056234 -0.0005391033202)
(0.007821351847 0.000172600237 2.302327121e-05)
(0.004224741249 0.0004762276471 -0.0001872916932)
(0.005331620277 0.0001112346254 0.0003663147012)
(0.004515185955 0.0002880086791 0.0001457098159)
(0.01062513578 -0.0002382077938 -0.0003102552789)
(0.007214614264 0.0002565861552 0.0006987584033)
(0.007145618872 -0.0002104365043 -0.001096997447)
(0.006916370662 0.0002707053632 -0.000546621494)
(0.005190379595 -0.0002776361656 0.0002320590479)
(0.008445591302 0.0006758727539 0.0001240078435)
(0.009782331174 -0.0002967117818 0.0007369577528)
(0.008429570599 -0.000528406168 -0.000742816612)
(0.004838191645 0.0003473281416 0.0002607823461)
(0.008294220551 -0.000335565402 -0.0002352225814)
(0.006900656919 0.0003442774438 -0.0004598372025)
(0.007870610001 0.0001789278966 1.726867129e-05)
(0.008645764328 -0.0002354594315 0.0001823587544)
(0.01109666561 0.0001181826498 0.0002369465167)
(0.005068730901 0.0006367714988 -0.0003189119171)
(0.008629428 5.424590813e-05 -0.0005886994225)
(0.009258838179 0.0003087730166 -2.042275092e-05)
(0.008953570582 0.0005940682849 -0.0006831989622)
(0.006259395981 -5.071306562e-05 -4.207637806e-05)
(0.011527801 0.001382631195 0.000205954161)
(0.01003082946 2.363304972e-05 -0.001080692571)
(0.00688945296 0.0005618254602 0.0001506071031)
(0.006614848753 0.0006531554629 -0.0005535540259)
(0.008134142789 0.0003047072979 0.0008826039409)
(0.004566397574 -0.0002359147109 0.0001093343561)
(0.00722896238 0.0005160811298 0.0009352955599)
)
;

boundaryField
{
    flow
    {
        type            zeroGradient;
    }
    obstacle
    {
        type            calculated;
        value           nonuniform List<vector> 0();
    }
    frontAndBack
    {
        type            empty;
    }
    procBoundary2to0
    {
        type            processor;
        value           nonuniform List<vector> 
31
(
(0.00705471821 0.0003331623365 0.0002599957556)
(0.00808572036 0.0005409759393 6.113876205e-05)
(0.01020954402 -0.0004755399951 -0.0005018563382)
(0.007147758384 9.758558249e-05 -0.0001534447637)
(0.007354265614 -2.259435311e-05 -0.0008737227364)
(0.009047646704 0.0002409986904 0.0003042408826)
(0.009007381565 0.0005272885569 -0.0006129274477)
(0.01062443213 3.842770798e-05 -0.00107961838)
(0.009182555351 0.0008120979505 -0.000367837812)
(0.01470271358 0.0002772365712 -0.0003009491198)
(0.005156082465 -0.0004730544018 -7.480308897e-05)
(0.008417823017 -9.087812544e-06 7.787051048e-05)
(0.008312965009 4.207592626e-05 -0.0001544218403)
(0.008079266062 0.0007303409201 -0.0002438717988)
(0.009839983731 0.0006038037368 -0.0003083036945)
(0.006230972725 9.382748548e-06 -0.0008666262349)
(0.006077324475 -0.0003380870877 -0.0002842200259)
(0.007528284229 9.743074176e-05 -0.0001265301745)
(0.006728571012 5.775348533e-05 0.0007207426857)
(0.006314580899 -0.0001633926324 -8.580920418e-05)
(0.004052236179 -3.980321402e-05 -0.000581894538)
(0.009336636264 0.0007508947209 -0.0001580421581)
(0.007343801821 0.0001842771858 0.0003986379228)
(0.008895222805 0.000168401339 0.0001981598528)
(0.004948291501 -0.0002509175456 -0.0002011848594)
(0.008759187314 0.0002049484342 0.000411253503)
(0.007086932928 0.0003197115588 -0.0002387848595)
(0.005281121984 -1.731138224e-05 0.0004342778044)
(0.008724836082 -0.0007803695119 -5.041804042e-05)
(0.009519443285 -0.00013925012 -0.0001343431715)
(0.009519443285 -0.00013925012 -0.0001343431715)
)
;
    }
    procBoundary2to3
    {
        type            processor;
        value           nonuniform List<vector> 
19
(
(0.005658805165 0.0004372466533 7.661761988e-05)
(0.006923749466 6.831171983e-05 0.0003320247197)