/*--------------------------------*- C++ -*----------------------------------*\
| =========                 |                                                 |
| \\      /  F ield         | OpenFOAM: The Open Source CFD Toolbox           |
|  \\    /   O peration     | Version:  2406                                  |
|   \\  /    A nd           | Website:  www.openfoam.com                      |
|    \\/     M anipulation  |                                                 |
\*---------------------------------------------------------------------------*/
FoamFile
{
    version     2.0;
    format      ascii;
    arch        "LSB;label=32;scalar=64";
    class       volVectorField;
    location    "0.005";
    object      momentumMean;
}
// * * * * * * * * * * * * * * * * * * * * * * * * * * * * * * * * * * * * * //

dimensions      [1 -2 -1 0 0 0 0];

internalField   nonuniform List<vector> 
546
(
(0.006344660422 -1.157685652e-05 4.047699815e-06)
(0.008325012972 -4.251124037e-06 2.274977656e-06)
(0.008378489416 1.777144269e-05 3.736109383e-06)
(0.008308549174 1.553761581e-05 2.021227146e-06)
(0.008311090899 4.366179798e-06 -7.10224285e-07)
(0.008290117035 3.227472062e-06 3.539880647e-06)
(0.00830080381 1.11341113e-05 6.351618783e-06)
(0.008240657379 4.626357003e-06 -2.29704896e-06)
(0.008199971122 -9.137652787e-06 -8.881407309e-06)
(0.008230810039 -8.813852707e-06 -1.791082786e-05)
(0.00828170732 -1.873716732e-05 -2.62242644e-05)
(0.008360230193 5.88460614e-06 -9.611123375e-06)
(0.008348021955 1.08435734e-05 -9.03379679e-06)
(0.008300741204 2.6405937e-05 1.520117186e-06)
(0.008298050402 2.343120922e-05 1.138275215e-05)
(0.008251008872 1.17315895e-05 -3.374073277e-06)
(0.008286479021 -3.150720289e-07 -1.378480436e-05)
(0.008225859369 -8.683012872e-06 -8.401920719e-06)
(0.008155756893 5.912550699e-06 -5.148159605e-06)
(0.008118941068 1.628644018e-05 -1.392039922e-05)
(0.006393061913 1.707658838e-05 5.476229995e-06)
(0.008343376076 1.417535284e-05 1.273755403e-05)
(0.008341719916 1.501622634e-05 2.079585896e-05)
(0.008366475057 2.76856206e-06 6.676152055e-06)
(0.008370033028 8.933409341e-06 -3.980636211e-06)
(0.008387074648 4.982768814e-06 -1.290223658e-05)
(0.008374312066 -1.285767228e-05 -1.095707011e-05)
(0.008361462779 -1.820286095e-05 -1.714437433e-05)
(0.008327843664 -4.530458124e-06 -1.212885335e-05)
(0.008315574717 1.147168088e-05 -1.353930928e-06)
(0.008300094947 1.408839118e-05 -7.544067972e-06)
(0.008278619862 4.417052231e-06 -8.913700227e-06)
(0.008325930541 -3.187019206e-06 -1.74922524e-05)
(0.008264220563 -5.610635382e-06 -1.329972825e-05)
(0.008285153167 7.858086519e-06 -1.553155339e-05)
(0.008277509348 1.889745829e-05 3.128690858e-06)
(0.008356789046 1.871157341e-05 7.723100701e-06)
(0.00841743114 3.150136737e-05 3.220915004e-06)
(0.00843909867 1.489603269e-05 1.593476747e-05)
(0.008457710949 1.129436193e-05 1.787731648e-05)
(0.006315041717 1.055721848e-05 -1.638396551e-05)
(0.008290663841 1.533023921e-05 -2.551869275e-05)
(0.008296670611 3.957500275e-06 -1.153401086e-05)
(0.008258620266 -9.055350879e-06 -6.673685491e-06)
(0.008317080057 -1.438914262e-05 1.1884939e-05)
(0.008359683015 -1.614215738e-05 1.15816162e-05)
(0.008353673193 8.525505495e-06 7.178374916e-06)
(0.008365129896 2.209452346e-05 8.381308589e-06)
(0.008375416885 2.473145047e-05 4.186213612e-06)
(0.008426508423 8.49452578e-06 8.321235147e-07)
(0.008369347827 1.84038391e-05 -6.498316658e-06)
(0.008410173123 2.592781829e-05 1.759338464e-07)
(0.008307571166 2.473961085e-05 3.59857532e-06)
(0.008320519283 1.337865487e-05 8.888967745e-06)
(0.008306024106 1.041623016e-05 6.340398483e-06)
(0.008267959081 8.324319108e-06 -8.127470907e-07)
(0.008191309687 9.351688642e-06 -4.840779359e-06)
(0.008246687716 1.19866325e-06 -1.394175355e-06)
(0.008249179123 5.533174066e-06 2.693540566e-06)
(0.008214187404 -9.969996666e-06 -9.963435549e-06)
(0.006374093846 5.222089383e-06 1.132053606e-06)
(0.008413147746 -6.457443963e-07 1.106899306e-05)
(0.008427650726 2.974693237e-06 -2.780474373e-06)
(0.008376869195 4.827490104e-06 -3.238567409e-06)
(0.00832315123 5.225742137e-06 1.274184126e-06)
(0.00830001469 1.148664747e-05 1.230707994e-05)
(0.008348742821 -7.738772807e-06 5.578673614e-06)
(0.00830381446 -3.605943147e-06 -5.511348268e-07)
(0.008331144288 -8.169249056e-06 -1.404917453e-06)
(0.008268263344 8.696258334e-06 1.082793017e-07)
(0.008333807159 -4.551011318e-06 3.878006275e-06)
(0.008297183402 -7.66750197e-07 7.137709229e-06)
(0.008378865951 1.430598103e-05 -8.276774742e-06)
(0.008373983244 2.723958648e-05 -1.758299066e-06)
(0.008441484815 2.520137396e-05 -4.848301361e-06)
(0.008436850735 7.555399098e-06 -3.894483727e-06)
(0.008394055316 9.703723218e-06 2.857309213e-06)
(0.00835427061 -3.430844913e-06 -4.68805649e-06)
(0.00848230654 -1.105073007e-05 -8.410733497e-06)
(0.008464626552 -8.371471062e-06 -1.583293378e-06)
(0.006378025152 -1.425962592e-05 -9.736649949e-06)
(0.008400809202 -8.199488323e-06 -1.193617682e-05)
(0.008357658424 2.563488979e-07 -1.395018574e-05)
(0.008393009182 1.158126457e-05 -1.6734061e-05)
(0.008411466344 1.236409892e-05 -2.004151621e-05)
(0.008373964054 1.919995779e-05 -2.21052862e-05)
(0.008281821743 2.481741975e-05 -1.326697544e-05)
(0.008300511884 1.874093423e-05 7.240567329e-06)
(0.008262009892 -2.134091151e-07 4.195408611e-06)
(0.008203917455 -3.180421315e-06 3.004595012e-06)
(0.008216839223 2.073877529e-05 1.79893554e-06)
(0.008244176899 1.698970721e-06 6.784825751e-06)
(0.008247896945 -1.386566847e-06 1.721913724e-05)
(0.008270942239 -9.672587499e-06 1.339660051e-05)
(0.008281224403 -7.262792743e-06 4.142262767e-06)
(0.008302187767 -9.20875308e-06 7.434249166e-06)
(0.008376072456 -3.694435009e-06 9.51534297e-06)
(0.008405894394 -8.501397896e-06 9.619084182e-06)
(0.008291838054 -8.719619884e-06 9.218072883e-06)
(0.00828273143 1.641404464e-07 1.194084683e-05)
(0.006347043872 1.877251712e-06 4.270554769e-06)
(0.008286552544 5.175105858e-06 6.110613964e-06)
(0.0082759384 5.146049293e-06 8.954254094e-06)
(0.008278312115 2.065609593e-05 2.126591716e-05)
(0.008282517648 1.913998576e-05 2.223143606e-05)
(0.008333535957 1.272659237e-05 1.593365058e-05)
(0.008350486904 2.02548947e-05 1.438315684e-05)
(0.008346346183 1.069824657e-05 -4.789225495e-06)
(0.008401407085 3.339044359e-05 9.409804487e-06)
(0.008429983283 4.660167807e-07 1.018560735e-05)
(0.008433343141 -1.932821944e-05 1.723520779e-05)
(0.00840175639 -1.798318044e-05 3.355891406e-06)
(0.008364134348 -1.62677274e-05 1.476212859e-06)
(0.00837331517 -1.392982847e-05 -3.868604829e-06)
(0.008382565819 -2.085931552e-05 5.274299951e-06)
(0.008444224069 -1.140905222e-05 -2.103356672e-06)
(0.008405775182 -6.958002579e-06 -5.830268396e-06)
(0.008346142496 9.736454837e-07 -1.270054639e-05)
(0.008416858297 3.738674152e-07 -7.593116734e-06)
(0.00844412327 1.29225538e-06 -9.149083824e-06)
(0.006323381542 6.492551889e-06 4.729698527e-07)
(0.008320510611 1.521923662e-05 6.564918683e-06)
(0.008364379822 1.223628886e-05 1.107141707e-05)
(0.008373811513 2.925250464e-06 -4.780561793e-06)
(0.008334863685 -6.892093692e-06 -1.029301935e-05)
(0.008365472698 -5.915867348e-06 -8.490294226e-06)
(0.008363949024 -6.716527095e-06 6.26875682e-06)
(0.008420051899 -1.553397014e-05 7.060146541e-06)
(0.008346755122 -6.118502428e-06 3.62320115e-06)
(0.008410472266 1.886647059e-06 -1.296586077e-06)
(0.008409582214 2.213507177e-05 4.428104405e-06)
(0.008400252423 1.939867459e-05 4.555300103e-06)
(0.008428955481 7.967712655e-06 -4.912964739e-06)
(0.008394943033 4.113915925e-07 -8.264501031e-06)
(0.008342730477 8.806858289e-06 -8.560918103e-06)
(0.008297857599 5.233977409e-06 -6.216427327e-06)
(0.008303003357 -7.423593389e-06 -1.248724369e-06)
(0.008272296045 -1.74268167e-05 1.235297427e-05)
(0.008264269282 -1.468934144e-05 1.259720162e-05)
(0.008272254714 -1.432239742e-05 6.665180793e-06)
(0.006360068616 6.326615141e-06 6.239037192e-06)
(0.008353456714 -1.00959215e-05 -4.117906804e-06)
(0.008378953307 -1.799949102e-05 -1.246028601e-05)
(0.008378666625 -1.129039624e-05 -9.667239878e-06)
(0.008393381303 -1.62691045e-05 6.625947525e-06)
(0.008369607207 -3.508525183e-06 -2.255366369e-06)
(0.008392621402 1.644657482e-06 -1.909718534e-05)
(0.008402089191 1.2757527e-05 -1.497742923e-05)
(0.008459395663 2.437595669e-06 -2.186543362e-05)
(0.008386165744 7.58541115e-07 -1.957647221e-05)
(0.008389216676 -1.161129536e-06 -2.100985205e-05)
(0.008345276428 -9.948908045e-06 -2.682350325e-05)
(0.008361595547 -3.004796328e-06 -1.446196466e-05)
(0.008417322755 6.780862102e-07 -6.269987069e-06)
(0.00841458577 -7.412718484e-06 -7.191921773e-06)
(0.008469497623 -7.071468856e-06 -8.999498773e-06)
(0.008451387201 1.928053895e-06 -1.329424984e-05)
(0.008449040089 1.563400055e-05 -1.917306138e-05)
(0.008466863325 1.983938079e-06 -2.377889827e-05)
(0.008477086964 7.383118031e-06 -1.312572462e-05)
(0.006368443167 -3.615295967e-06 -3.618562831e-06)
(0.008391219061 -7.308823368e-06 -5.835009746e-06)
(0.008350164913 -2.159183056e-05 -1.19920156e-06)
(0.00830549255 -2.120677244e-05 -1.181077419e-05)
(0.008310359136 -3.283912048e-06 -1.127571022e-05)
(0.008240947953 -7.574746533e-07 -7.096917236e-06)
(0.008252539835 -2.866206752e-06 -3.825877873e-06)
(0.008292776739 -1.785791528e-05 -3.697285977e-08)
(0.008268701344 -8.819854899e-06 1.047797531e-05)
(0.008345330118 -6.342734016e-06 3.453626552e-06)
(0.00835386302 -1.818114475e-06 1.058267071e-07)
(0.008393761364 6.22250123e-06 1.452016662e-05)
(0.008326440987 6.747847377e-06 1.911241096e-05)
(0.008320716898 -2.427726355e-06 1.782174522e-05)
(0.008302530038 -5.577278263e-06 1.067686396e-05)
(0.008257540666 3.520205143e-06 1.502180244e-05)
(0.008273143512 -9.970491292e-06 1.765586655e-05)
(0.008274571332 -6.425344634e-06 4.815422359e-06)
(0.008239699162 5.224531809e-06 3.48954818e-06)
(0.008212046239 1.901477859e-06 -4.070107016e-06)
(0.006318377698 1.858991358e-06 3.732460775e-06)
(0.008259534292 2.603175656e-06 8.338805145e-06)
(0.008224432605 8.304035663e-06 4.034635049e-06)
(0.008321055574 1.200192783e-06 2.099218219e-05)
(0.008270301537 -7.62173994e-06 2.511388865e-05)
(0.008334742234 -1.137872999e-05 2.691202844e-05)
(0.008314142899 -9.648472687e-06 2.465635709e-05)
(0.008333163046 -6.226537261e-06 7.007243159e-06)
(0.00830725523 -1.003614808e-05 4.44219004e-06)
(0.00824869442 -1.603072976e-05 3.192162232e-06)
(0.008251739065 -1.035470116e-05 2.735238381e-06)
(0.008260897297 -2.110143259e-06 -7.940902877e-06)
(0.00832033316 -1.704292097e-06 -2.076893465e-05)
(0.008330088654 1.618238033e-05 -2.026707442e-05)
(0.008315208187 4.943449022e-06 -1.090046115e-05)
(0.008328417733 1.053532659e-05 -1.49682203e-05)
(0.008295385669 1.711763228e-05 -1.983399502e-05)
(0.008243011083 2.928637678e-05 -2.018069188e-06)
(0.008194882582 2.380472032e-05 -7.20295224e-06)
(0.008221605854 1.171449081e-05 -7.585833748e-06)
(0.006391580215 8.178721764e-07 -1.482981167e-06)
(0.00838800667 -4.091181115e-07 -3.741869942e-06)
(0.008386071656 1.133630394e-05 3.615059454e-06)
(0.008362849189 6.010715058e-06 4.503550737e-06)
(0.008339357456 6.618324145e-06 -1.36430173e-05)
(0.008301585142 1.067962557e-06 -1.458184261e-05)
(0.008311951274 9.254341073e-07 -3.370722669e-06)
(0.008239515981 -5.001133845e-06 -9.601432044e-07)
(0.008272771331 7.1252563e-07 -1.763818037e-07)
(0.008306277664 5.953367984e-06 3.445820528e-06)
(0.008277552618 -3.384289326e-06 6.643050147e-06)
(0.008319350316 -8.329068817e-06 1.014007051e-05)
(0.008251606068 -1.003372188e-05 1.300140166e-05)
(0.008269663842 -7.873272574e-06 -4.129505619e-06)
(0.008211961335 1.215900149e-05 -7.283129214e-06)
(0.008236898256 1.740330213e-05 -1.299807769e-06)
(0.008286653088 8.281930383e-06 -4.241364967e-06)
(0.008417897255 -7.941768141e-06 -1.566781588e-05)
(0.008532658128 -1.141564944e-06 -5.973965252e-06)
(0.008538452977 -4.435018223e-06 -1.955280673e-06)
(0.006320303011 6.809243669e-06 1.659803679e-06)
(0.008356889382 1.682732351e-05 2.248281834e-06)
(0.008290234473 -1.272987801e-06 -1.090432427e-05)
(0.008337678054 1.025195856e-05 -1.469333101e-05)
(0.008317451006 3.001598466e-06 -7.164984357e-06)
(0.008273864644 -6.45490066e-06 -1.601198317e-05)
(0.008320824921 -8.681856691e-06 -1.715100349e-05)
(0.008273806689 -3.380787892e-06 -2.448478706e-05)
(0.008270440011 -1.445896111e-05 -1.5763376e-05)
(0.008257509697 -2.849327377e-06 -2.005757901e-05)
(0.008242650512 -3.095804624e-06 -3.519368023e-05)
(0.008272886626 -3.167262897e-08 -2.241979162e-05)
(0.008303751121 -2.543596987e-06 -6.932807047e-06)
(0.008353832985 -1.896316318e-06 1.052623427e-05)
(0.008411418768 -1.688490911e-05 9.519692844e-06)
(0.008366241799 -2.461634502e-05 9.869380835e-06)
(0.008378471012 -1.742192745e-05 1.576002009e-05)
(0.008272430622 -3.977405406e-06 1.841864148e-05)
(0.008263282837 -8.018336253e-06 1.344724878e-05)
(0.008272119048 1.610072225e-06 1.491783635e-05)
(0.006357083739 6.558437476e-06 -1.587640543e-05)
(0.008422051046 -8.326351143e-06 -2.720802591e-05)
(0.008414638496 1.369703931e-06 -2.350247527e-05)
(0.008391047503 1.065953145e-05 -2.671685726e-05)
(0.008381478606 6.270204028e-06 -2.414353784e-05)
(0.008351545459 5.968649132e-06 -1.717480361e-05)
(0.008336867071 2.74599687e-06 -1.245698116e-05)
(0.008398970436 4.087321827e-06 -9.179729149e-06)
(0.008395177697 1.208058789e-05 -3.788458554e-06)
(0.008400713867 -1.203905256e-05 4.466664886e-06)
(0.008350230335 -3.82897509e-07 9.789882776e-06)
(0.0083244293 -1.296926235e-05 1.252523171e-05)
(0.008335791087 -9.575703732e-06 -6.351273098e-06)
(0.008308571234 -8.481790775e-06 -1.69717654e-05)
(0.00827236933 -6.344818818e-06 -1.493863405e-05)
(0.008302623666 2.802868895e-06 -1.328930875e-05)
(0.008237039747 4.011559397e-06 -7.87291636e-06)
(0.008228993784 9.41664898e-07 -4.971570011e-06)
(0.008264352879 1.975029724e-05 -1.818702994e-06)
(0.00823840582 2.283029782e-05 -1.929070849e-06)
(0.006307538507 3.140125358e-06 -1.104387876e-05)
(0.008249994519 1.159948739e-06 -7.361941448e-06)
(0.008273787612 -1.067861977e-06 -3.615857607e-07)
(0.008272653639 -5.856494345e-06 -2.689150029e-06)
(0.008324584228 -6.242438407e-06 4.524747163e-06)
(0.008304309636 1.341462533e-05 7.743673876e-06)
(0.008303780663 1.24970663e-05 5.158324594e-06)
(0.008292307123 1.846197188e-05 1.742174767e-06)
(0.008297200786 9.402065734e-06 -1.667140215e-05)
(0.008334556621 1.013283391e-05 -1.335408044e-05)
(0.008269183688 1.442160259e-06 -2.10158861e-05)
(0.00826130698 -2.056208781e-06 -2.695512277e-05)
(0.008228702557 7.021334533e-06 -2.318307183e-05)
(0.008236190107 1.079804333e-05 -1.260857481e-05)
(0.0081965696 2.413195947e-05 -8.024439866e-06)
(0.008245713035 1.457767836e-05 -1.269358392e-05)
(0.008272483745 2.334712902e-06 -1.339713868e-05)
(0.008268759598 2.843807629e-06 -2.139999254e-05)
(0.00829750983 -1.369000752e-05 -1.313544852e-05)
(0.008312865661 -1.436681952e-05 -1.48706372e-05)
(0.006370531722 -1.99923415e-06 -8.014357644e-06)
(0.008331734872 -4.230102773e-06 -6.85473879e-06)
(0.00830880487 -3.670209267e-06 -1.141289615e-05)
(0.008238805276 4.883563248e-06 -3.568952995e-07)
(0.00825262788 1.118884721e-05 -2.47097716e-06)
(0.008268137322 1.471454471e-05 -4.636003052e-06)
(0.008269436438 -2.784961772e-06 6.78297315e-06)
(0.008305113991 -3.005960494e-06 1.017618574e-05)
(0.008267711083 3.319396578e-06 9.250856149e-06)
(0.008221460161 1.867252674e-05 1.168281288e-05)
(0.008227718266 2.415655934e-05 1.070663141e-05)
(0.008232260909 2.440611042e-05 1.432978775e-05)
(0.008283404558 7.932416505e-06 2.179299806e-05)
(0.008240422947 -4.061583107e-06 2.349109885e-05)
(0.008329268603 -2.279802415e-05 3.631022864e-06)
(0.008291291784 -1.115521982e-05 -7.716951658e-06)
(0.008291102968 -1.25389004e-05 4.307007492e-07)
(0.00828381694 -1.576676239e-05 -9.891133209e-07)
(0.00827969949 -1.669875924e-05 -1.032888033e-05)
(0.008291684241 -1.039351704e-05 -7.94457379e-06)
(0.006329064097 1.158216531e-05 -7.540431246e-06)
(0.008336849899 2.189665101e-05 -1.117369375e-05)
(0.008324282753 2.745630026e-05 -5.741765413e-06)
(0.008374285014 2.535279401e-05 -5.022664158e-06)
(0.008437758696 1.558047629e-05 -8.753888919e-06)
(0.008393982761 6.115825344e-06 -1.423514697e-05)
(0.008311219133 1.724272294e-05 -1.039866625e-05)
(0.008296455629 2.899992429e-05 -7.927707871e-06)
(0.008327324955 2.04588674e-05 -6.005020024e-06)
(0.008340884081 4.015140645e-06 -3.902224087e-06)
(0.00834459323 -1.109775252e-06 -2.799147373e-07)
(0.008319128983 -4.871878025e-06 -1.630886337e-06)
(0.008303844688 4.357307264e-06 -2.122412783e-05)
(0.008338421772 6.776262846e-06 -1.157653807e-05)
(0.00837717658 3.098775308e-06 -8.805247052e-06)
(0.008336110706 -1.05593153e-05 -1.226278006e-06)
(0.008326379723 -1.067917616e-05 1.998921266e-06)
(0.008241591535 -5.715489796e-06 -3.256503682e-06)
(0.008236869619 8.314355994e-06 -1.134105419e-05)
(0.008279454422 1.221497207e-06 -6.620837358e-06)
(0.006389431472 2.278076746e-06 -9.636477117e-06)
(0.008453220532 5.132813804e-06 -1.3885682e-05)
(0.008478438034 -3.400882076e-06 -2.240341053e-05)
(0.008443631688 -1.324140469e-06 -1.645960999e-05)
(0.008354248654 8.396635578e-06 -9.733806439e-06)
(0.008416352304 1.091783973e-05 -9.430524212e-06)
(0.008481906388 1.427001056e-05 -1.617283446e-05)
(0.008513111713 5.060130006e-06 -2.198359042e-05)
(0.008464620471 1.49911735e-05 -1.306476519e-05)
(0.008529306291 1.450159875e-05 -1.179887937e-05)
(0.008462546416 5.205187091e-06 -1.729911708e-05)
(0.00848497124 4.067783856e-06 -1.684039324e-05)
(0.008482031855 8.333819258e-06 -2.253555477e-05)
(0.00842003168 1.427920394e-05 -2.041930872e-05)
(0.008333362477 1.649713611e-05 -2.673627281e-05)
(0.008322149468 1.933660286e-05 -2.779910211e-05)
(0.008349497783 1.95112112e-05 -3.444013263e-05)
(0.008345498242 1.334689891e-05 -9.327064709e-06)
(0.008374605084 3.636825601e-06 -2.0387277e-05)
(0.008364493358 9.727993028e-06 -1.990614506e-05)
(0.006234170953 1.686432516e-05 -2.422827312e-06)
(0.008126248296 7.846709151e-06 -8.090119607e-06)
(0.00812562054 1.916129989e-05 2.702984047e-06)
(0.008190005128 1.972974341e-05 1.273528252e-06)
(0.008218918862 2.348597847e-05 -6.405130718e-06)
(0.008214676291 2.817764576e-05 -8.923904808e-07)
(0.008228483276 2.53012303e-05 -9.759775902e-06)
(0.008220627606 2.398287478e-05 -3.824998553e-06)
(0.008221893359 1.6810429e-05 -1.033818783e-05)
(0.008264893009 3.04884416e-05 -1.847445016e-05)
(0.008331723069 5.181151133e-05 -1.908064772e-05)
(0.008312857293 6.558391801e-05 -4.365454378e-06)
(0.008327990637 4.535204269e-05 8.953512183e-07)
(0.008364005336 4.699724702e-05 5.359620277e-06)
(0.008361852096 5.423836924e-05 5.249185119e-06)
(0.008359265906 5.505061819e-05 1.318400292e-05)
(0.008326628642 3.892987213e-05 7.100089941e-06)
(0.008294947986 3.582469432e-05 -1.815785734e-07)
(0.008317770528 2.422155312e-05 6.738289843e-06)
(0.008282784004 2.781610446e-05 1.172737773e-05)
(0.008310587974 4.388480918e-05 -1.613339663e-05)
(0.008301496631 3.020695694e-05 -1.745961397e-05)
(0.008323709186 2.430960364e-05 -6.007051814e-06)
(0.008346383446 1.429174669e-05 -6.254571039e-06)
(0.008346594839 2.630765685e-05 -1.180391998e-05)
(0.008390103918 4.552422535e-05 -1.825847857e-05)
(0.00822581496 9.54761513e-06 -8.603059901e-06)
(0.008268907699 2.225771969e-05 -3.465581747e-06)
(0.008364231226 1.619346202e-05 5.093755532e-07)
(0.008274149099 1.539811525e-05 5.513382988e-06)
(0.008296906752 6.004542216e-06 6.635974969e-06)
(0.008342660346 6.007818698e-06 2.141671394e-05)
(0.008395838815 7.971352858e-06 1.456780712e-05)
(0.00838291982 4.098980698e-05 9.227649332e-06)
(0.008371583258 3.23735514e-05 3.216393272e-06)
(0.008389169324 4.42179886e-05 1.343568498e-06)
(0.008448763653 5.060258525e-06 2.270427503e-05)
(0.008404943368 8.487962928e-06 1.717317681e-05)
(0.008417063803 1.04773245e-05 3.120906807e-05)
(0.008408050568 2.236930993e-06 2.837953131e-05)
(0.008442725395 1.457746465e-05 1.471241874e-05)
(0.00839817612 2.449776825e-05 1.056910458e-05)
(0.008432680152 2.106088015e-05 3.369436799e-06)
(0.008385930699 1.74066923e-05 1.500480353e-05)
(0.00841878545 1.976226691e-05 1.479561207e-05)
(0.008493572404 2.506290769e-05 6.120836139e-06)
(0.008240658924 -1.121030094e-06 -1.236814677e-05)
(0.008291121087 -1.032109097e-05 -2.011990702e-05)
(0.008350551129 -9.668986246e-06 -2.344001068e-05)
(0.008344289877 -1.630538773e-05 -2.496469378e-05)
(0.008393094125 -2.830786768e-05 -1.779886868e-05)
(0.008383173595 -1.566473406e-05 -1.310687789e-05)
(0.00838629939 2.577907526e-06 -1.270102265e-05)
(0.008432903507 6.702101397e-08 -2.508653094e-05)
(0.008445671931 5.048131192e-06 -1.465381525e-05)
(0.008493344363 -1.822733946e-06 5.542996976e-07)
(0.008494216983 -1.23010235e-05 -1.729039079e-05)
(0.008487708765 2.112556631e-06 -1.686039876e-05)
(0.008415546628 7.573146597e-06 -1.1511615e-05)
(0.008438586319 1.067953627e-05 -1.616648589e-05)
(0.008388353043 1.259014365e-05 3.795841168e-06)
(0.008364794006 8.525422328e-06 5.126760398e-07)
(0.008373284274 -2.126614353e-05 1.4062392e-05)
(0.008351145354 -3.340313939e-05 1.196656164e-05)
(0.008268965309 -2.316960206e-05 5.035719966e-06)
(0.008283928931 -1.547081367e-05 -8.410212668e-06)
(0.008288799002 -3.558209545e-06 3.223080132e-05)
(0.008280132376 2.046481169e-06 1.631780142e-05)
(0.008290737201 -5.863731101e-06 1.71539665e-05)
(0.008323815087 -1.538166115e-05 1.455987701e-05)
(0.008344466765 -1.04225663e-05 6.413721283e-08)
(0.00830629559 -1.389845147e-05 1.073183023e-05)
(0.008344665968 -1.750837927e-06 9.428966948e-06)
(0.00843258856 9.75225126e-06 5.137489129e-06)
(0.008387448822 -7.725432715e-06 4.79850665e-06)
(0.008377940049 1.062354182e-05 5.399014135e-07)
(0.008421312607 -6.191559903e-07 -1.635555259e-05)
(0.008376375602 -3.68551061e-06 -8.268113355e-06)
(0.008379218601 -2.375288034e-06 -8.42677306e-06)
(0.008356200646 -4.315836759e-06 1.012715641e-06)
(0.008463419303 -1.610808374e-05 -3.973671482e-06)
(0.008416366342 -5.257681468e-06 -7.022074378e-06)
(0.008326702605 -1.345498319e-06 -1.424997458e-05)
(0.008316039887 -4.761502002e-06 -1.644320329e-05)
(0.008342694153 -2.734387303e-06 -1.544703955e-05)
(0.008361871953 -8.093300306e-07 -1.845992238e-05)
(0.008292452203 -7.234973166e-06 6.029064964e-06)
(0.008269375015 -1.230157606e-05 -2.207358156e-06)
(0.008266416252 -1.917795536e-05 -1.218852048e-05)
(0.008286687556 -6.933974793e-06 -2.382017171e-05)
(0.008250367574 -3.277298032e-06 -3.362514974e-05)
(0.008321084427 -1.110942871e-05 -2.658307159e-05)
(0.008338179614 -1.352335143e-05 -1.474480126e-05)
(0.008325017834 -1.376573855e-05 -1.42692964e-05)
(0.008233673711 3.96070595e-06 -7.822620352e-06)
(0.008210605325 2.101919572e-06 -1.496443808e-06)
(0.008527638857 5.553280525e-06 2.048250242e-07)
(0.008494775462 7.967267094e-06 -6.075428179e-06)
(0.008484284844 8.111042222e-06 1.290030258e-05)
(0.008360357882 -6.42026149e-07 2.180935044e-05)
(0.00830310389 3.956849074e-06 1.652936331e-05)
(0.008263727227 1.837144821e-05 1.088385843e-05)
(0.008276594546 1.978739292e-05 -1.562641768e-06)
(0.008267633107 2.355063479e-05 -4.201476516e-06)
(0.008326198048 -4.005676833e-06 -1.417201063e-05)
(0.008282932102 -2.292100892e-05 -2.346332048e-05)
(0.008172178421 6.508271702e-06 -1.33096232e-05)
(0.008142865955 1.347846363e-05 -1.440524454e-05)
(0.008158617732 1.967431486e-05 -2.220233982e-05)
(0.008137288666 2.647044634e-05 -2.106139609e-05)
(0.008221005099 1.303300628e-05 -1.402824488e-05)
(0.008255431388 3.466682187e-06 -2.213475748e-05)
(0.008253494142 -9.781895922e-06 -1.483659245e-05)
(0.008205830996 -1.221728976e-05 -1.003144691e-05)
(0.00822185429 3.440136151e-06 -2.714919307e-06)
(0.00826206591 1.108454765e-05 -5.370627166e-06)
(0.008222099182 5.510780407e-06 -9.727907422e-06)
(0.008343502479 3.849793058e-06 -1.173312261e-05)
(0.008365034995 2.078988843e-06 -1.359890288e-05)
(0.008431630252 -5.171187751e-06 -7.050395797e-06)
(0.008348818432 8.712021964e-06 -1.41923248e-05)
(0.008331316455 1.910782925e-06 -1.16103651e-05)
(0.008391516224 1.171452407e-05 -3.606528946e-06)
(0.008378384945 1.44386943e-05 -4.740914559e-06)
(0.008389518337 2.772342463e-05 2.069769553e-06)
(0.008270357636 2.486810229e-05 2.001175846e-05)
(0.008479321036 4.411835162e-06 -1.090500636e-06)
(0.008435756689 -2.050130219e-06 2.741516835e-06)
(0.008375284113 -5.334609367e-06 6.558739596e-06)
(0.008377009066 7.58237017e-06 1.165220371e-05)
(0.008434805744 1.319597009e-05 1.520730128e-05)
(0.008432319614 2.176252067e-05 1.595028973e-05)
(0.008358065681 2.48306756e-05 5.344764127e-06)
(0.008370245901 3.556303512e-05 1.264750433e-05)
(0.008395848109 3.525828839e-05 2.775292849e-06)
(0.008422126056 4.23451027e-05 -1.367847114e-05)
(0.008281278907 8.383343912e-06 1.574469697e-05)
(0.008270436415 2.120019944e-05 1.150772896e-05)
(0.008264737902 2.452492275e-05 8.91435923e-06)
(0.008224799026 1.617990738e-05 7.17655731e-06)
(0.008125961704 1.157200166e-05 1.321914074e-05)
(0.008130938237 7.099430901e-06 1.273074386e-05)
(0.008173092439 -1.200372607e-06 1.144763192e-05)
(0.008238210846 -9.341290587e-06 -1.692753468e-06)
(0.00828913746 -2.036724565e-05 -1.360174637e-05)
(0.008386865072 -7.994752495e-06 -1.559764259e-05)
(0.00821544465 1.910412135e-05 -7.505031201e-06)
(0.008215739865 8.393607462e-06 -1.668465157e-06)
(0.008290879397 2.180115704e-06 -1.117207455e-06)
(0.008318320278 1.517686734e-05 -4.406156788e-06)
(0.008370748042 -4.040429672e-06 -8.920100896e-06)
(0.008411857948 -2.591796521e-06 -1.347826952e-05)
(0.008389858273 -2.519090703e-06 -1.940147897e-05)
(0.008387991926 -1.30241099e-05 -1.3328566e-05)
(0.008334492641 -1.375295862e-05 8.073320332e-07)
(0.008292547535 -3.582648431e-05 1.025433265e-05)
(0.008336703508 -1.79362775e-05 -1.034301842e-05)
(0.008412440379 -9.058685863e-06 -1.271774309e-05)
(0.008380079149 -1.393022054e-05 -1.365453974e-05)
(0.008400807581 -4.185610252e-06 -1.482753058e-05)
(0.008407950616 1.22222353e-05 -1.120362447e-05)
(0.008390450036 5.932438447e-06 -9.797270323e-06)
(0.008333285509 1.077865994e-05 -4.493789176e-06)
(0.008302017614 1.108269925e-05 1.117490162e-06)
(0.008253969313 3.251347346e-05 5.128141684e-06)
(0.008160093612 3.51215869e-05 -3.225754639e-06)
(0.008230401524 -5.319598795e-06 -4.087926338e-06)
(0.008222334342 4.553955009e-07 -8.345411054e-06)
(0.008224136035 -1.600427666e-06 1.292395516e-06)
(0.008197083962 -1.043757834e-05 -3.061304857e-06)
(0.00823335702 -1.347459202e-08 2.431826007e-07)
(0.008137876674 5.220393393e-06 1.588753613e-06)
(0.008156303049 2.664943051e-05 -7.205731034e-06)
(0.008221771818 3.845592681e-05 -1.457035076e-05)
(0.008280712618 3.158322126e-05 -1.74635358e-05)
(0.008344935305 2.111790241e-05 -1.261606978e-05)
(0.008290960831 -3.939668206e-06 -2.133680859e-05)
(0.008276615909 -6.61184867e-06 -9.756229699e-06)
(0.008288620392 5.118154184e-06 -2.15187541e-05)
(0.008289373283 1.185803102e-06 -2.229350779e-05)
(0.008319890068 1.441677183e-05 -2.588272361e-05)
(0.008339252254 1.645481035e-05 -8.545269138e-06)
(0.008394186796 1.129129102e-05 -1.69042827e-05)
(0.008325179746 -9.683447239e-06 -1.596048664e-05)
(0.00836734639 -2.601182577e-05 -2.186452108e-05)
(0.008377124516 -6.395122036e-06 -1.872211406e-05)
(0.008303124422 1.538191861e-05 -1.83950851e-05)
(0.008306031886 3.875086493e-06 -2.817583889e-05)
(0.008320146094 -1.200064212e-05 -2.418742967e-05)
(0.008323431181 -6.568583618e-06 -1.442633672e-05)
(0.008372501453 -1.283182565e-05 -2.159132671e-05)
(0.00839115923 -1.956590072e-05 -3.65442379e-05)
(0.008402137838 -1.436313291e-05 -2.387693778e-05)
(0.008438795254 -2.146196532e-05 -2.057041456e-05)
(0.008442842102 -8.966332092e-06 -1.129467674e-05)
(0.008455943157 -1.066994374e-05 -9.642264572e-06)
(0.008348718735 2.324492715e-05 1.429615295e-05)
(0.008293686663 3.296590191e-05 1.502017963e-06)
(0.008277465259 3.09841554e-05 7.166825499e-06)
(0.00831595961 2.762678975e-05 1.466008004e-05)
(0.008237424132 1.169234887e-05 2.510552358e-06)
(0.008221230782 1.64799887e-05 2.086310569e-05)
(0.008252857982 1.325592467e-05 2.85184637e-05)
(0.008205907924 2.227551909e-05 1.824089051e-05)
(0.008159958067 3.047054462e-05 1.577811978e-05)
(0.008163488891 2.406180661e-05 1.894528085e-05)
)
;

boundaryField
{
    flow
    {
        type            calculated;
        value           nonuniform List<vector> 
48
(
(0.006344660422 -1.157685652e-05 4.047699815e-06)
(0.006393061913 1.707658838e-05 5.476229995e-06)
(0.006315041717 1.055721848e-05 -1.638396551e-05)
(0.006374093846 5.222089383e-06 1.132053606e-06)
(0.006378025152 -1.425962592e-05 -9.736649949e-06)
(0.006347043872 1.877251712e-06 4.270554769e-06)
(0.006323381542 6.492551889e-06 4.729698527e-07)
(0.006360068616 6.326615141e-06 6.239037192e-06)
(0.006368443167 -3.615295967e-06 -3.618562831e-06)
(0.006318377698 1.858991358e-06 3.732460775e-06)
(0.006391580215 8.178721764e-07 -1.482981167e-06)
(0.006320303011 6.809243669e-06 1.659803679e-06)
(0.006357083739 6.558437476e-06 -1.587640543e-05)
(0.006307538507 3.140125358e-06 -1.104387876e-05)
(0.006370531722 -1.99923415e-06 -8.014357644e-06)
(0.006329064097 1.158216531e-05 -7.540431246e-06)
(0.006389431472 2.278076746e-06 -9.636477117e-06)
(0.006234170953 1.686432516e-05 -2.422827312e-06)
(0.006234170953 1.686432516e-05 -2.422827312e-06)
(0.008126248296 7.846709151e-06 -8.090119607e-06)
(0.00812562054 1.916129989e-05 2.702984047e-06)
(0.008190005128 1.972974341e-05 1.273528252e-06)
(0.008218918862 2.348597847e-05 -6.405130718e-06)
(0.008214676291 2.817764576e-05 -8.923904808e-07)
(0.008228483276 2.53012303e-05 -9.759775902e-06)
(0.008220627606 2.398287478e-05 -3.824998553e-06)
(0.008221893359 1.6810429e-05 -1.033818783e-05)
(0.008264893009 3.04884416e-05 -1.847445016e-05)
(0.008331723069 5.181151133e-05 -1.908064772e-05)
(0.008312857293 6.558391801e-05 -4.365454378e-06)
(0.008327990637 4.535204269e-05 8.953512183e-07)
(0.008364005336 4.699724702e-05 5.359620277e-06)
(0.008361852096 5.423836924e-05 5.249185119e-06)
(0.008359265906 5.505061819e-05 1.318400292e-05)
(0.008326628642 3.892987213e-05 7.100089941e-06)
(0.008294947986 3.582469432e-05 -1.815785734e-07)
(0.008317770528 2.422155312e-05 6.738289843e-06)