/*--------------------------------*- C++ -*----------------------------------*\
| =========                 |                                                 |
| \\      /  F ield         | OpenFOAM: The Open Source CFD Toolbox           |
|  \\    /   O peration     | Version:  2406                                  |
|   \\  /    A nd           | Website:  www.openfoam.com                      |
|    \\/     M anipulation  |                                                 |
\*---------------------------------------------------------------------------*/
FoamFile
{
    version     2.0;
    format      ascii;
    arch        "LSB;label=32;scalar=64";
    class       volScalarField;
    location    "0.005";
    object      overallT;
}
// * * * * * * * * * * * * * * * * * * * * * * * * * * * * * * * * * * * * * //

dimensions      [1 2 -2 0 0 0 0];

internalField   nonuniform List<scalar> 
546
(
291.2292737
302.5500455
298.9773809
299.4792147
298.6685763
297.9331129
298.7998401
300.0161229
299.5993366
298.7238832
300.5759896
300.3167455
300.0243991
299.2490478
299.0029563
298.6361652
298.2581539
296.7212773
298.107479
299.0195113
295.1770151
303.5749827
298.8490477
298.7390972
298.5552398
299.1563445
299.1723979
299.3367159
299.5409921
299.5611967
298.605309
298.4396585
299.5276094
300.8802726
300.596423
299.8102941
300.3823256
302.3544856
299.4597459
298.8156194
292.8959643
302.293747
297.0868687
297.1835968
300.1616258
301.3865307
299.8310968
299.8108284
299.1543211
299.2957376
298.3070099
299.7565768
298.2134319
296.435807
295.906134
297.6168427
296.737378
297.9051227
300.4244161
300.1628885
294.5895026
303.9445503
301.4807452
300.1300718
297.8740662
296.7721873
298.2940734
297.8057406
297.1405931
295.857632
297.57543
297.8341939
299.2058035
300.6885978
301.1955622
301.2461203
299.345547
300.2799512
300.7416203
299.2006851
294.1466699
304.6632366
300.022844
301.5758161
300.5438579
301.014209
299.5680623
297.6205597
300.2260773
299.9536683
299.9554609
299.6202342
299.5360701
300.605583
300.2343133
301.8420832
303.3453283
303.4835925
300.6188435
301.4951728
294.6965604
304.2045142
298.7049059
298.8030522
300.2115792
300.206404
300.3481921
301.813191
301.3312298
301.929499
301.0553159
299.831307
300.5684135
301.8233132
300.924759
301.5363166
302.3961023
300.923086
302.0470063
303.3461342
292.7821433
301.3641389
297.2809703
298.9431914
298.6704691
298.8029951
300.7986151
302.257677
300.3595121
299.6500494
300.9292185
300.720903
301.5966559
300.0316247
301.1024633
300.8996566
300.3052286
302.9552549
303.3149543
302.5401473
292.8017552
304.0105099
300.0532341
301.0038002
302.205995
300.6508117
299.999807
298.9027198
298.455686
300.2862324
300.0621117
298.7252097
299.4912019
300.5838479
298.8023092
300.0678259
300.6464474
298.9603447
299.4402919
300.5806834
295.0847227
304.713931
299.7988445
298.1833817
297.2747216
298.057565
298.6951962
299.600575
300.6566263
302.5478472
300.9193392
302.6414665
302.1414209
301.4612834
301.396944
300.154824
300.5642398
299.1976525
299.5030711
299.674421
293.1415427
304.3769214
300.0726308
298.8265424
298.3227072
296.8085913
296.8314906
298.4775715
299.8096172
299.3666809
299.2213427
299.9214327
299.3475435
298.796625
300.5314978
299.1346374
298.2720199
300.7353678
297.7632288
298.0717476
293.7920817
303.3815225
298.459675
300.7303781
302.1119668
304.1708883
303.4278926
300.2858429
299.1608527
299.1866831
297.4850936
297.0320207
296.9859803
296.9384282
296.2588622
296.9058458
300.4077155
298.3767763
300.7238182
301.2504814
293.4385011
303.6539792
298.0727259
299.7964405
296.9137238
296.4018328
296.4489865
297.7501115
297.0957181
296.7629535
296.4591786
297.0909074
297.8756158
299.6968948
299.6293268
298.2306048
298.0470743
300.6555313
300.5134469
300.3507663
292.3333926
303.2938745
299.8287587
301.3055818
301.964619
301.2590542
301.0183273
299.5973487
298.6828603
298.1326195
299.8953161
300.0463017
300.5283388
299.7299284
299.1110927
299.9311127
299.1829867
298.9414347
299.0645595
299.3020463
294.3405865
303.7457325
300.0592685
299.8626414
300.526502
300.1794406
300.7966173
303.0379801
303.1676084
303.3708013
300.3644612
300.2549085
299.2896169
299.0157315
299.0280227
299.3005229
298.2224077
298.2378824
297.8818676
297.3832122
296.1391193
305.4830761
300.0008465
300.0932922
300.9818659
302.8194693
304.671066
304.3938878
303.3892071
303.3439425
303.7317384
302.3726829
302.2806864
301.6047431
301.1151413
301.4752221
302.2258111
302.9654223
302.3248609
300.1644029
294.0159719
302.7470854
299.5314044
302.2023506
302.8137513
301.4541179
301.5660865
298.8927722
299.8462818
301.4816088
302.8810513
302.6458982
302.7936726
303.9694285
302.5221989
300.6685493
300.264179
299.1322058
298.2448243
301.0682612
294.0241693
304.4841867
300.2165841
298.3934439
298.201055
296.9859634
297.2387751
297.1918542
297.166079
297.9262293
298.6293794
299.9238506
300.2646004
299.6726515
300.0050543
300.254408
300.048767
299.9879517
300.4402513
298.6419641
294.3435533
301.1749906
297.4554604
296.9290724
294.6991291
295.4058525
296.5786445
298.3104576
298.5796868
297.7075658
297.2352632
295.1446778
295.9463692
294.9135258
295.6287141
294.8315756
296.2462262
296.8369653
294.9441187
296.5977319
304.8457195
307.0638995
304.2495793
306.5560612
309.3415214
312.6377717
299.6553302
301.914925
300.9529095
300.3463248
301.3342554
300.877322
300.308692
304.9736405
303.6029398
308.1117966
295.9301568
296.2930002
296.076894
299.1174955
302.0685791
303.7902911
302.9519244
303.0337056
304.3661146
308.6044454
303.6387755
303.070514
301.548618
298.9906816
298.0029655
299.3440013
300.4327113
303.7623834
305.9982837
305.2300015
297.7287702
299.1535935
301.2109411
301.2995354
300.5043528
303.9265234
302.7737257
300.22702
301.2264236
301.5797281
302.4385301
301.9244058
301.9287379
301.8497717
303.1512447
303.6524077
305.2856627
305.9099336
304.543824
305.3886747
302.2659307
301.7657045
302.2564439
302.0836336
302.6159667
300.3625553
300.407289
299.0046179
298.5888732
299.3377337
302.5293613
301.6056278
301.8824938
299.6780085
301.2152908
302.3655276
300.5130395
304.1289926
301.8048015
301.6900565
298.8311536
300.0994346
300.8023265
300.9639039
302.8012661
301.0664468
302.0149376
303.5063459
303.2936135
302.0597977
299.9937974
301.4381974
302.3188564
299.4393572
301.1671172
300.7533429
300.5446421
301.9018274
302.073512
302.4753732
298.8677237
299.2799984
300.1969381
302.2426711
298.6668003
300.5483971
301.3808098
301.3209411
301.3114787
300.0659592
300.0277739
299.5142044
298.5168139
299.2408999
300.3079081
299.4389003
298.081587
297.474272
298.3336466
300.1341287
299.438718
300.2776731
300.3347077
301.1679918
299.2326043
299.2478626
300.2596927
300.5563295
301.3040521
302.4008104
301.0637981
300.1267758
300.2866057
299.1923813
301.0458584
301.0901209
300.4366849
300.3526443
300.0969274
297.5136797
297.0145155
297.9810296
297.1615816
298.8091081
299.0313018
297.4240758
298.6245774
299.7060752
298.4198114
300.7437343
298.4212824
299.419905
300.4042677
298.486265
298.3079267
298.9568244
297.8597366
298.2720299
298.8041184
298.9728368
300.3864225
300.1097965
298.6898973
300.0767406
300.6501575
299.3466886
301.0240759
300.9356849
300.5957289
300.8166337
299.5792098
299.195599
297.9043535
299.2010616
298.3215869
299.4115274
301.034832
301.0016912
302.2196483
300.2779109
298.9890364
299.1465571
300.527429
299.869301
300.0285238
297.7293956
296.3407531
295.4394741
295.50009
297.5308172
)
;

boundaryField
{
    flow
    {
        type            calculated;
        value           nonuniform List<scalar> 
48
(
291.2292737
295.1770151
292.8959643
294.5895026
294.1466699
294.6965604
292.7821433
292.8017552
295.0847227
293.1415427
293.7920817
293.4385011
292.3333926
294.3405865
296.1391193
294.0159719
294.0241693
294.3435533
294.3435533
301.1749906
297.4554604
296.9290724
294.6991291
295.4058525
296.5786445
298.3104576
298.5796868
297.7075658
297.2352632
295.1446778
295.9463692
294.9135258
295.6287141
294.8315756
296.2462262
296.8369653
294.9441187
296.5977319
298.9890364
299.1465571
300.527429
299.869301
300.0285238
297.7293956
296.3407531
295.4394741
295.50009
297.5308172
)
;
    }
    obstacle
    {
        type            calculated;
        value           nonuniform List<scalar> 0();
    }
    frontAndBack
    {
        type            empty;
    }
    procBoundary2to0
    {
        type            processor;
        value           nonuniform List<scalar> 
31
(
295.1741731
303.8554028
299.64265
300.3019373
299.4568991
300.160025
299.4467839
300.6297843
300.6730402
300.0257849
299.1418235
298.7659549
299.2595152
301.4294489
302.1543607
298.8390049
297.5658887
300.3839017
300.6770537
301.1931032
306.0732572
306.8654207
311.0187811
314.9168446
319.6399479
319.6550946
298.8179791
297.6840759
301.5311003
302.5874096
302.5874096
)
;
    }
    procBoundary2to3
    {
        type            processor;
        value           nonuniform List<scalar> 
19
(
315.814343
311.9770015
312.8258553
308.6392257
306.3737295
305.7472575
301.2951166
304.0835898
301.831732
302.1960959
299.0096581
301.9846868
301.4740987
297.5833653
303.109747
298.0440414
302.0651299
300.1474799
299.0132236
)
;
    }
}


// ************************************************************************* //
