/*--------------------------------*- C++ -*----------------------------------*\
| =========                 |                                                 |
| \\      /  F ield         | OpenFOAM: The Open Source CFD Toolbox           |
|  \\    /   O peration     | Version:  2406                                  |
|   \\  /    A nd           | Website:  www.openfoam.com                      |
|    \\/     M anipulation  |                                                 |
\*---------------------------------------------------------------------------*/
FoamFile
{
    version     2.0;
    format      ascii;
    arch        "LSB;label=32;scalar=64";
    class       volScalarField;
    location    "0.005";
    object      p;
}
// * * * * * * * * * * * * * * * * * * * * * * * * * * * * * * * * * * * * * //

dimensions      [1 -1 -2 0 0 0 0];

internalField   nonuniform List<scalar> 
546
(
0.3035920804
0.4147715402
0.4124880326
0.4129094596
0.4117410813
0.4093124316
0.4122479309
0.4125147727
0.4090726313
0.4090634648
0.4163179207
0.4185938606
0.4167738957
0.4142757449
0.4124413309
0.4099255626
0.412517243
0.4057691672
0.4038020955
0.4052724843
0.3127559923
0.418062928
0.4092977593
0.408830176
0.4117076612
0.4154411788
0.4152637752
0.4152117278
0.4136459118
0.412792536
0.4095911202
0.4106336328
0.4144960609
0.4126363915
0.4124948696
0.4088354557
0.4121080632
0.419214032
0.4168182439
0.4150880187
0.3069916701
0.4165187408
0.4061683857
0.4066611768
0.4104957395
0.413352608
0.4087656814
0.4099823327
0.4096819341
0.4152863795
0.4106416943
0.4154534552
0.408257597
0.4059096883
0.4052247403
0.4045214146
0.4008664116
0.4038565042
0.4058221425
0.4045319644
0.313196584
0.4269658456
0.4220527378
0.4156571905
0.4078957698
0.4066783349
0.4098948045
0.4063856468
0.4063900936
0.4002977026
0.4061735522
0.4042031169
0.4104156099
0.4121399502
0.4195693587
0.419764607
0.4135364954
0.4170507138
0.4244691376
0.420556502
0.3085311404
0.4229132063
0.4140598093
0.4198405539
0.4186036342
0.4170072808
0.4117036977
0.4093776159
0.4113977161
0.4066278718
0.4072240934
0.4080546916
0.4101566281
0.4134170537
0.4141917028
0.4190468969
0.4265332383
0.4253247327
0.4151870824
0.4156444813
0.3113889202
0.4189509379
0.407333496
0.4049661456
0.4088954861
0.4109218071
0.4112225827
0.4154031297
0.4154878675
0.4181052293
0.4201822313
0.4154895912
0.4155749617
0.4172205263
0.4184067027
0.4242618333
0.4234220127
0.4172678728
0.4253793391
0.4272531347
0.3056093644
0.412783401
0.4088555371
0.4125730348
0.4095797999
0.4137308734
0.4152124227
0.4204574331
0.4149532503
0.4184013066
0.4164495328
0.4165993638
0.4206398743
0.4139861354
0.4147500786
0.4118248123
0.4130704696
0.4174353114
0.4150538664
0.4122648626
0.307909104
0.4197647077
0.4148640192
0.4153433308
0.4175927841
0.4133551332
0.4153721337
0.4169743263
0.4195517765
0.4175303523
0.4173993707
0.4125749033
0.4133782513
0.4191183562
0.4164446625
0.4222247672
0.4211708864
0.4178743992
0.4215896472
0.4251909055
0.3122687012
0.423391028
0.4127535092
0.4085559846
0.4073036095
0.4063545559
0.4076826526
0.4102635889
0.4124028338
0.4192177383
0.4187968108
0.4223606529
0.4194299018
0.4169825165
0.4162685276
0.4126933661
0.4144155415
0.4136320596
0.4102002164
0.4095615731
0.3069284723
0.4183087949
0.4106893147
0.4137019785
0.4109531117
0.4125600436
0.4098736564
0.412564674
0.4126804004
0.4085786409
0.4076347275
0.4111665471
0.4132072414
0.4150342183
0.4185452821
0.4173288673
0.4137304657
0.4134206028
0.4065005414
0.4083347758
0.3154121113
0.4248923927
0.4131831646
0.415495929
0.4173475725
0.4190428514
0.4193268512
0.4103858279
0.4103495735
0.4131052377
0.4093965682
0.409990982
0.409070467
0.4058949426
0.4025481497
0.4056355624
0.4138480736
0.4164462654
0.4250760101
0.4257213294
0.3063363797
0.4202946371
0.4081721751
0.4149601626
0.4110389334
0.4067824565
0.4092544984
0.4068528277
0.4065548004
0.4046718647
0.4039703305
0.4066500268
0.409363576
0.4163021575
0.418498075
0.4125011269
0.4141611768
0.4145257944
0.4142301205
0.4139948615
0.3088888398
0.424636701
0.4192806133
0.4193488641
0.4186074379
0.4137952656
0.4155922683
0.419032718
0.4176069909
0.4184956468
0.4174473035
0.4171963884
0.4178394536
0.4121835869
0.4100606043
0.4139017128
0.407308392
0.4053493059
0.4072933427
0.4081435174
0.3073103242
0.4157734777
0.4102811961
0.4124806529
0.4158863185
0.4151033638
0.4160390146
0.4173730986
0.4171828455
0.4182154731
0.4114202698
0.4107784986
0.4081796386
0.4110975219
0.4070905405
0.4111265375
0.4122173158
0.4098160283
0.4110326033
0.4089927238
0.3152191761
0.4246658244
0.4122759603
0.4078608196
0.4112457977
0.4150053046
0.4170796603
0.4219386487
0.4197765373
0.4177788701
0.4156804191
0.4140768106
0.416463188
0.4124810031
0.4164683175
0.415560182
0.4148622977
0.4160447434
0.4145459004
0.4118904963
0.3102158245
0.4188743119
0.4126534106
0.4213795125
0.423997684
0.4187494759
0.4144398272
0.4091015932
0.4108410993
0.416785138
0.417950204
0.4187874095
0.4169238978
0.4224881757
0.4227661763
0.4147631945
0.4137752675
0.4085078854
0.408952679
0.4150129455
0.3137454578
0.4282958966
0.4201286227
0.416227157
0.4109591982
0.4119242601
0.4170425355
0.4173404817
0.4144890429
0.4209706547
0.4184978635
0.4220613703
0.4224986813
0.4173665873
0.4131087299
0.4139177072
0.4135558851
0.4147964415
0.4192413088
0.4133828701
0.3047703288
0.4057796106
0.3985718528
0.3987065162
0.3962664112
0.3988664239
0.4030346196
0.4065731433
0.4081350374
0.4097422374
0.4134989188
0.4067132307
0.4082736401
0.4096494469
0.4122493011
0.4121155928
0.4118726932
0.4112227339
0.4070350604
0.4054958016
0.4201319725
0.4255003872
0.4205184697
0.4288100017
0.4370534722
0.4484015999
0.4114762418
0.4176679185
0.4208863685
0.4162919739
0.4193834983
0.4194601738
0.4204131918
0.4309070027
0.4260886147
0.4352124956
0.4133080817
0.4093805657
0.4105877086
0.4163910898
0.4235603576
0.423358786
0.4222736049
0.4206681954
0.4241891902
0.4368149987
0.4096675422
0.4136204396
0.4162907628
0.4101205316
0.412921554
0.4164898291
0.4189522682
0.4260688926
0.4334243722
0.4343845683
0.4201188857
0.4219171222
0.4212507368
0.4219237914
0.4189115959
0.4245533565
0.4230554827
0.4176250917
0.4174261757
0.4196277027
0.4180656942
0.4169947536
0.417612495
0.4190351541
0.4216919358
0.4213535138
0.4274836391
0.4310220237
0.4268942997
0.4269387661
0.4241367263
0.4200343861
0.4217438083
0.4211438353
0.4314158914
0.4226150999
0.4174660608
0.4164080287
0.4148973408
0.4181563332
0.4148214167
0.4146095649
0.4181965906
0.4136878195
0.4136107365
0.4182381835
0.417300005
0.4230449163
0.4134603056
0.4114675645
0.4245505373
0.4247793535
0.4216166178
0.417439366
0.4175630464
0.4146017541
0.4147943043
0.4178666967
0.4216046032
0.4174619893
0.4063857632
0.4096823591
0.4111356226
0.4048096516
0.4141637509
0.4133818258
0.4120825988
0.4144074679
0.4139123338
0.4151259207
0.4098477852
0.4164211772
0.4203790475
0.4269287482
0.416053174
0.4171933882
0.422772363
0.4200252585
0.421281162
0.4145266052
0.4192875132
0.4186104821
0.4130322997
0.4137933454
0.4203709483
0.4201391955
0.4129970538
0.4142976178
0.4165394187
0.4216212466
0.4117351119
0.4122368736
0.4139081874
0.4134960503
0.4040408854
0.4026952315
0.4049547955
0.4075357804
0.4123601709
0.417990358
0.4119710346
0.4112249579
0.4160700107
0.416379708
0.4175673619
0.420953246
0.4173230628
0.416367636
0.4110535997
0.4054445831
0.4083281551
0.4133996242
0.4090174126
0.4140867483
0.4165486896
0.4125245843
0.411468555
0.4132023082
0.4052696951
0.4033086771
0.4072756468
0.4086772687
0.4117082095
0.4059061894
0.4075520526
0.4041175724
0.4027710842
0.4044565806
0.4116850962
0.4151449924
0.4133210953
0.4123236509
0.4093396574
0.4112893366
0.4138187434
0.4116520326
0.419103809
0.4152488093
0.4166144738
0.4189943817
0.4098979051
0.4107268832
0.4093658583
0.4125119849
0.4134530707
0.4176385434
0.420893513
0.4208196596
0.4240739261
0.4215211332
0.4150973602
0.4121401571
0.4125625944
0.4128951363
0.4102664309
0.4045108272
0.4044213835
0.4015244809
0.396405244
0.4002196262
)
;

boundaryField
{
    flow
    {
        type            calculated;
        value           nonuniform List<scalar> 
48
(
0.3035920804
0.3127559923
0.3069916701
0.313196584
0.3085311404
0.3113889202
0.3056093644
0.307909104
0.3122687012
0.3069284723
0.3154121113
0.3063363797
0.3088888398
0.3073103242
0.3152191761
0.3102158245
0.3137454578
0.3047703288
0.3047703288
0.4057796106
0.3985718528
0.3987065162
0.3962664112
0.3988664239
0.4030346196
0.4065731433
0.4081350374
0.4097422374
0.4134989188
0.4067132307
0.4082736401
0.4096494469
0.4122493011
0.4121155928
0.4118726932
0.4112227339
0.4070350604
0.4054958016
0.4150973602
0.4121401571
0.4125625944
0.4128951363
0.4102664309
0.4045108272
0.4044213835
0.4015244809
0.396405244
0.4002196262
)
;
    }
    obstacle
    {
        type            calculated;
        value           nonuniform List<scalar> 0();
    }
    frontAndBack
    {
        type            empty;
    }
    procBoundary2to0
    {
        type            processor;
        value           nonuniform List<scalar> 
31
(
0.3109194033
0.4183566378
0.4092273179
0.4063178458
0.4071198294
0.4060889262
0.4098350541
0.416493956
0.4203906048
0.4180951624
0.4097110573
0.4103020673
0.411411218
0.4148116689
0.4171452395
0.4102172853
0.4094827678
0.414719453
0.4188569485
0.4192841402
0.4230777854
0.423082747
0.4273039138
0.436420744
0.4548524666
0.4563758788
0.411905811
0.4093543946
0.4138350764
0.4148611406
0.4148611406
)
;
    }
    procBoundary2to3
    {
        type            processor;
        value           nonuniform List<scalar> 
19
(
0.4531307192
0.4471574462
0.446600123
0.438923263
0.4290790217
0.4289233495
0.4252402434
0.4160578134
0.4157577842
0.4145777006
0.4121325222
0.4262837707
0.4181155544
0.4054341643
0.4112959994
0.4108543444
0.4286279034
0.4166180966
0.4022501752
)
;
    }
}


// ************************************************************************* //
