/*--------------------------------*- C++ -*----------------------------------*\
| =========                 |                                                 |
| \\      /  F ield         | OpenFOAM: The Open Source CFD Toolbox           |
|  \\    /   O peration     | Version:  2406                                  |
|   \\  /    A nd           | Website:  www.openfoam.com                      |
|    \\/     M anipulation  |                                                 |
\*---------------------------------------------------------------------------*/
FoamFile
{
    version     2.0;
    format      ascii;
    arch        "LSB;label=32;scalar=64";
    class       volScalarField;
    location    "0.005";
    object      rhoMMean;
}
// * * * * * * * * * * * * * * * * * * * * * * * * * * * * * * * * * * * * * //

dimensions      [1 -3 0 0 0 0 0];

internalField   nonuniform List<scalar> 
546
(
3.711486182e-06
4.778805764e-06
4.834859234e-06
4.802902673e-06
4.800164624e-06
4.780960712e-06
4.786828875e-06
4.752601063e-06
4.722001737e-06
4.733976252e-06
4.765935479e-06
4.804064209e-06
4.791256407e-06
4.770946112e-06
4.768931711e-06
4.741177407e-06
4.762318323e-06
4.720207947e-06
4.678253697e-06
4.66404084e-06
3.745324594e-06
4.77769205e-06
4.793681119e-06
4.809840312e-06
4.819858245e-06
4.840517034e-06
4.82785178e-06
4.822045434e-06
4.802459453e-06
4.792974134e-06
4.777453194e-06
4.76309579e-06
4.795105504e-06
4.750749454e-06
4.762731967e-06
4.758632017e-06
4.806413523e-06
4.852616517e-06
4.865898447e-06
4.874187323e-06
3.698677714e-06
4.756730588e-06
4.770864049e-06
4.756916957e-06
4.77799139e-06
4.798249199e-06
4.795318116e-06
4.802091631e-06
4.808205981e-06
4.845337299e-06
4.812821881e-06
4.840020661e-06
4.791047377e-06
4.791380959e-06
4.783658521e-06
4.756075006e-06
4.714960041e-06
4.745898947e-06
4.742244217e-06
4.722130954e-06
3.727391189e-06
4.814324996e-06
4.850981519e-06
4.816894921e-06
4.781616544e-06
4.767423931e-06
4.794924051e-06
4.767419932e-06
4.783328272e-06
4.746196287e-06
4.785068243e-06
4.759916771e-06
4.807203904e-06
4.81304649e-06
4.855270504e-06
4.85198093e-06
4.824696755e-06
4.811361005e-06
4.887421432e-06
4.875913714e-06
3.719228864e-06
4.80076597e-06
4.802682063e-06
4.834383772e-06
4.839619681e-06
4.825949684e-06
4.773879193e-06
4.780676952e-06
4.760174955e-06
4.723401462e-06
4.723595829e-06
4.738813429e-06
4.73823566e-06
4.755908882e-06
4.76797279e-06
4.783022267e-06
4.827542442e-06
4.842430461e-06
4.77494667e-06
4.77293027e-06
3.712011464e-06
4.742259546e-06
4.757219629e-06
4.756341188e-06
4.76148237e-06
4.78838181e-06
4.798508049e-06
4.799754313e-06
4.835064931e-06
4.853103975e-06
4.860911808e-06
4.842593002e-06
4.822664109e-06
4.82108493e-06
4.824265532e-06
4.864301023e-06
4.840502121e-06
4.804504762e-06
4.853141133e-06
4.858751112e-06
3.700689448e-06
4.763826353e-06
4.818082033e-06
4.824006015e-06
4.802008235e-06
4.823732918e-06
4.822981028e-06
4.850514722e-06
4.805946726e-06
4.850737332e-06
4.841157287e-06
4.841657659e-06
4.859698702e-06
4.835875557e-06
4.811697919e-06
4.784806477e-06
4.794131004e-06
4.779022376e-06
4.77211098e-06
4.76876892e-06
3.722884927e-06
4.795067931e-06
4.833418603e-06
4.834575473e-06
4.847247393e-06
4.826488546e-06
4.841376564e-06
4.845088446e-06
4.878923526e-06
4.831833426e-06
4.834829658e-06
4.80992704e-06
4.819221991e-06
4.854338242e-06
4.852149053e-06
4.890996765e-06
4.871135688e-06
4.867764719e-06
4.886824085e-06
4.894130212e-06
3.734146458e-06
4.812113563e-06
4.813963838e-06
4.788702062e-06
4.790497852e-06
4.752432939e-06
4.759482883e-06
4.781560725e-06
4.769917125e-06
4.820078855e-06
4.830761284e-06
4.852003174e-06
4.812859455e-06
4.806441766e-06
4.792225576e-06
4.766108268e-06
4.779906816e-06
4.780216153e-06
4.754540066e-06
4.732207372e-06
3.696380886e-06
4.736862846e-06
4.742536642e-06
4.790130446e-06
4.758758318e-06
4.801172699e-06
4.787090391e-06
4.807033531e-06
4.786726568e-06
4.750869756e-06
4.754576973e-06
4.758762984e-06
4.795496904e-06
4.804875917e-06
4.797285362e-06
4.798857876e-06
4.778274484e-06
4.74930749e-06
4.720888689e-06
4.732209371e-06
3.744463731e-06
4.808403013e-06
4.821095844e-06
4.814816703e-06
4.803469778e-06
4.789963905e-06
4.796384926e-06
4.744093159e-06
4.763685139e-06
4.79146702e-06
4.770047009e-06
4.792409945e-06
4.755611541e-06
4.760454717e-06
4.723714798e-06
4.744558374e-06
4.770453071e-06
4.846011126e-06
4.905361501e-06
4.910922326e-06
3.695492447e-06
4.781481329e-06
4.768502071e-06
4.79932334e-06
4.780038698e-06
4.75788146e-06
4.782316615e-06
4.753324711e-06
4.749582586e-06
4.742221972e-06
4.734337409e-06
4.757935946e-06
4.768981532e-06
4.799943348e-06
4.837241457e-06
4.812746484e-06
4.828327241e-06
4.771381334e-06
4.773602098e-06
4.785801222e-06
3.70916511e-06
4.819866243e-06
4.846510832e-06
4.83127032e-06
4.826761392e-06
4.805221079e-06
4.799383825e-06
4.835217059e-06
4.83641017e-06
4.837655101e-06
4.812387992e-06
4.794324704e-06
4.795677941e-06
4.781928547e-06
4.763907749e-06
4.78405392e-06
4.741780086e-06
4.738812096e-06
4.755078928e-06
4.746581688e-06
3.696430706e-06
4.723040971e-06
4.766312216e-06
4.770822477e-06
4.799455889e-06
4.798689086e-06
4.794629376e-06
4.792194667e-06
4.789394134e-06
4.805886242e-06
4.769122079e-06
4.768422675e-06
4.750599576e-06
4.761849776e-06
4.735925502e-06
4.76191026e-06
4.774335327e-06
4.767809999e-06
4.777715627e-06
4.790222755e-06
3.737744036e-06
4.79042512e-06
4.80071415e-06
4.754232728e-06
4.762476449e-06
4.775703226e-06
4.77381471e-06
4.800649667e-06
4.777603322e-06
4.756793988e-06
4.761311581e-06
4.762662151e-06
4.791111861e-06
4.760550776e-06
4.810604199e-06
4.788819032e-06
4.783337603e-06
4.783977856e-06
4.778803098e-06
4.778313391e-06
3.708222185e-06
4.779912814e-06
4.790096205e-06
4.824594448e-06
4.864268115e-06
4.831474268e-06
4.792494673e-06
4.780155002e-06
4.789174191e-06
4.805716119e-06
4.797662766e-06
4.791028466e-06
4.781733514e-06
4.8108633e-06
4.832618225e-06
4.800728813e-06
4.792646551e-06
4.747124966e-06
4.744487892e-06
4.771265696e-06
3.747451299e-06
4.843239503e-06
4.879288016e-06
4.855469536e-06
4.799668252e-06
4.834916386e-06
4.875010362e-06
4.887265305e-06
4.872353709e-06
4.909783701e-06
4.876277537e-06
4.886404442e-06
4.886011709e-06
4.84896112e-06
4.793177415e-06
4.794665867e-06
4.804900411e-06
4.806289222e-06
4.8227006e-06
4.80995195e-06
3.642287331e-06
4.650415998e-06
4.67708683e-06
4.716817649e-06
4.732194042e-06
4.728959621e-06
4.744401164e-06
4.741573055e-06
4.745479971e-06
4.76570887e-06
4.806933473e-06
4.792884073e-06
4.796231466e-06
4.812587691e-06
4.816900919e-06
4.81278539e-06
4.797897372e-06
4.783096082e-06
4.787545192e-06
4.762227596e-06
4.785015757e-06
4.788551975e-06
4.795169181e-06
4.814981383e-06
4.819628268e-06
4.847714649e-06
4.730000399e-06
4.752734169e-06
4.803862279e-06
4.761072869e-06
4.782325523e-06
4.807777921e-06
4.838800253e-06
4.834634042e-06
4.826021146e-06
4.83959619e-06
4.866208808e-06
4.84459409e-06
4.857667823e-06
4.850890339e-06
4.869252484e-06
4.844883874e-06
4.854600511e-06
4.831272784e-06
4.849567041e-06
4.906841036e-06
4.741012417e-06
4.77416741e-06
4.809051518e-06
4.798269974e-06
4.82719667e-06
4.822458779e-06
4.823713038e-06
4.854522754e-06
4.863781034e-06
4.894696452e-06
4.89012443e-06
4.882263374e-06
4.841884971e-06
4.857022359e-06
4.831137383e-06
4.827778866e-06
4.834944178e-06
4.822029445e-06
4.776212929e-06
4.792038878e-06
4.783827615e-06
4.778417575e-06
4.781916828e-06
4.796402584e-06
4.802469868e-06
4.784802923e-06
4.813113916e-06
4.862716265e-06
4.838829645e-06
4.829729216e-06
4.841414239e-06
4.816583095e-06
4.820583227e-06
4.817350831e-06
4.88458078e-06
4.857250551e-06
4.799707087e-06
4.789950589e-06
4.800636758e-06
4.821958659e-06
4.794062534e-06
4.784086613e-06
4.784608716e-06
4.789750181e-06
4.766907524e-06
4.803223831e-06
4.810037696e-06
4.805203698e-06
4.751833264e-06
4.732032442e-06
4.92142747e-06
4.904416154e-06
4.891948505e-06
4.823640077e-06
4.787943915e-06
4.764819983e-06
4.770952169e-06
4.767425131e-06
4.798952612e-06
4.781511802e-06
4.709610052e-06
4.700619218e-06
4.693524686e-06
4.688401883e-06
4.744581597e-06
4.762801449e-06
4.775878319e-06
4.748784106e-06
4.757621374e-06
4.776765478e-06
4.727836472e-06
4.799760268e-06
4.823957592e-06
4.867966214e-06
4.823637546e-06
4.806569705e-06
4.84143871e-06
4.826872234e-06
4.836109311e-06
4.767724122e-06
4.88254269e-06
4.85765321e-06
4.817842684e-06
4.814049629e-06
4.846451892e-06
4.848228988e-06
4.806385481e-06
4.816045261e-06
4.833561148e-06
4.847227634e-06
4.778950961e-06
4.773092117e-06
4.772164647e-06
4.749416546e-06
4.691220321e-06
4.689899711e-06
4.708111192e-06
4.745485156e-06
4.77482721e-06
4.831965904e-06
4.738987529e-06
4.742953362e-06
4.781480151e-06
4.803584708e-06
4.826863507e-06
4.855442939e-06
4.845090034e-06
4.838963558e-06
4.805135358e-06
4.779795145e-06
4.797405044e-06
4.846631522e-06
4.828752608e-06
4.845582466e-06
4.852464733e-06
4.839275843e-06
4.807571613e-06
4.789563161e-06
4.75220745e-06
4.698710395e-06
4.738202372e-06
4.735803252e-06
4.738523023e-06
4.718185581e-06
4.73420265e-06
4.679844617e-06
4.69313804e-06
4.730289768e-06
4.778911771e-06
4.813447579e-06
4.782822686e-06
4.774674356e-06
4.776826256e-06
4.77798153e-06
4.791356002e-06
4.80818875e-06
4.842768897e-06
4.805507678e-06
4.826861352e-06
4.837108378e-06
4.784169068e-06
4.790946631e-06
4.793847019e-06
4.797811099e-06
4.827159279e-06
4.840449241e-06
4.839432339e-06
4.860432426e-06
4.863437094e-06
4.867708717e-06
4.804517695e-06
4.766432117e-06
4.753355964e-06
4.772661793e-06
4.726092958e-06
4.718276165e-06
4.734673248e-06
4.708011536e-06
4.684801557e-06
4.681879173e-06
)
;

boundaryField
{
    flow
    {
        type            calculated;
        value           nonuniform List<scalar> 
48
(
3.711486182e-06
3.745324594e-06
3.698677714e-06
3.727391189e-06
3.719228864e-06
3.712011464e-06
3.700689448e-06
3.722884927e-06
3.734146458e-06
3.696380886e-06
3.744463731e-06
3.695492447e-06
3.70916511e-06
3.696430706e-06
3.737744036e-06
3.708222185e-06
3.747451299e-06
3.642287331e-06
3.642287331e-06
4.650415998e-06
4.67708683e-06
4.716817649e-06
4.732194042e-06
4.728959621e-06
4.744401164e-06
4.741573055e-06
4.745479971e-06
4.76570887e-06
4.806933473e-06
4.792884073e-06
4.796231466e-06
4.812587691e-06
4.816900919e-06
4.81278539e-06
4.797897372e-06
4.783096082e-06
4.787545192e-06
4.762227596e-06
4.804517695e-06
4.766432117e-06
4.753355964e-06
4.772661793e-06
4.726092958e-06
4.718276165e-06
4.734673248e-06
4.708011536e-06
4.684801557e-06
4.681879173e-06
)
;
    }
    obstacle
    {
        type            calculated;
        value           nonuniform List<scalar> 0();
    }
    frontAndBack
    {
        type            empty;
    }
    procBoundary2to0
    {
        type            processor;
        value           nonuniform List<scalar> 
31
(
3.703731502e-06
4.744074914e-06
4.758875538e-06
4.71695553e-06
4.738457604e-06
4.7186995e-06
4.775615165e-06
4.826966673e-06
4.847998617e-06
4.839502711e-06
4.773206699e-06
4.773761557e-06
4.757526967e-06
4.761838862e-06
4.76344695e-06
4.753099435e-06
4.754841405e-06
4.743830727e-06
4.786200619e-06
4.790104202e-06
4.768365844e-06
4.731041207e-06
4.714322074e-06
4.725724706e-06
4.807832786e-06
4.81790474e-06
4.774164018e-06
4.755600545e-06
4.73410308e-06
4.751970265e-06
4.751970265e-06
)
;
    }
    procBoundary2to3
    {
        type            processor;
        value           nonuniform List<scalar> 
19
(
4.84278104e-06
4.883707835e-06
4.893732415e-06
4.884742128e-06
4.794161121e-06
4.817389128e-06
4.847576097e-06
4.749975217e-06
4.765087536e-06
4.767972232e-06
4.769113848e-06
4.868982167e-06
4.844387846e-06
4.776109008e-06
4.729130691e-06
4.768442447e-06
4.912757944e-06
4.829033669e-06
4.695630167e-06
)
;
    }
}


// ************************************************************************* //
