/*--------------------------------*- C++ -*----------------------------------*\
| =========                 |                                                 |
| \\      /  F ield         | OpenFOAM: The Open Source CFD Toolbox           |
|  \\    /   O peration     | Version:  2406                                  |
|   \\  /    A nd           | Website:  www.openfoam.com                      |
|    \\/     M anipulation  |                                                 |
\*---------------------------------------------------------------------------*/
FoamFile
{
    version     2.0;
    format      ascii;
    arch        "LSB;label=32;scalar=64";
    class       volScalarField;
    location    "0.005";
    object      rhoM;
}
// * * * * * * * * * * * * * * * * * * * * * * * * * * * * * * * * * * * * * //

dimensions      [1 -3 0 0 0 0 0];

internalField   nonuniform List<scalar> 
546
(
4.01188862e-06
5.395700685e-06
5.53358202e-06
3.942947953e-06
2.421254554e-06
5.395700685e-06
4.01188862e-06
6.364202506e-06
4.01188862e-06
5.326760018e-06
4.911449774e-06
4.496139531e-06
2.974446132e-06
5.671463354e-06
2.974446132e-06
3.942947953e-06
3.596578377e-06
4.01188862e-06
4.218710622e-06
3.942947953e-06
4.496139531e-06
4.496139531e-06
4.496139531e-06
6.502083841e-06
4.427198864e-06
6.086773598e-06
3.942947953e-06
5.464641352e-06
4.980390442e-06
3.389756375e-06
5.811010928e-06
6.433143174e-06
5.53358202e-06
6.917394084e-06
3.596578377e-06
4.980390442e-06
5.602522687e-06
2.974446132e-06
5.049331109e-06
3.942947953e-06
4.496139531e-06
4.980390442e-06
2.974446132e-06
4.634020865e-06
5.671463354e-06
6.364202506e-06
4.01188862e-06
4.01188862e-06
4.702961533e-06
5.395700685e-06
5.118271776e-06
7.055275419e-06
7.193156754e-06
2.974446132e-06
6.01783293e-06
2.905505464e-06
4.01188862e-06
5.879951596e-06
7.331038088e-06
4.565080198e-06
4.01188862e-06
5.395700685e-06
4.565080198e-06
3.874007286e-06
4.427198864e-06
3.458697042e-06
4.080829287e-06
7.055275419e-06
4.427198864e-06
5.187212443e-06
3.942947953e-06
4.634020865e-06
5.948892263e-06
6.01783293e-06
2.974446132e-06
4.911449774e-06
4.911449774e-06
5.118271776e-06
2.559135888e-06
2.905505464e-06
3.458697042e-06
2.074884977e-06
3.596578377e-06
5.948892263e-06
6.986334752e-06
7.677407664e-06
4.01188862e-06
3.112327466e-06
7.746348332e-06
6.433143174e-06
2.490195221e-06
4.980390442e-06
4.427198864e-06
5.395700685e-06
2.00594431e-06
3.458697042e-06
4.496139531e-06
4.080829287e-06
5.602522687e-06
4.911449774e-06
4.496139531e-06
5.53358202e-06
4.496139531e-06
3.942947953e-06
6.433143174e-06
3.043386799e-06
5.049331109e-06
6.364202506e-06
2.974446132e-06
2.974446132e-06
6.571024508e-06
5.53358202e-06
6.571024508e-06
4.427198864e-06
5.049331109e-06
6.364202506e-06
5.395700685e-06
5.602522687e-06
5.049331109e-06
4.565080198e-06
4.01188862e-06
3.458697042e-06
6.639965176e-06
3.52763771e-06
3.458697042e-06
4.496139531e-06
3.874007286e-06
3.52763771e-06
3.942947953e-06
2.490195221e-06
5.464641352e-06
7.608466997e-06
5.464641352e-06
4.565080198e-06
5.948892263e-06
7.055275419e-06
4.427198864e-06
4.080829287e-06
4.980390442e-06
3.458697042e-06
2.974446132e-06
4.496139531e-06
3.458697042e-06
4.565080198e-06
5.464641352e-06
3.874007286e-06
5.53358202e-06
4.565080198e-06
3.389756375e-06
6.986334752e-06
4.01188862e-06
6.01783293e-06
4.496139531e-06
4.565080198e-06
2.490195221e-06
5.395700685e-06
4.496139531e-06
4.565080198e-06
6.639965176e-06
4.01188862e-06
2.421254554e-06
4.496139531e-06
5.602522687e-06
3.874007286e-06
4.496139531e-06
7.954836573e-06
5.948892263e-06
4.358258196e-06
6.433143174e-06
7.677407664e-06
4.080829287e-06
2.074884977e-06
5.879951596e-06
4.01188862e-06
4.496139531e-06
6.433143174e-06
5.879951596e-06
6.502083841e-06
5.671463354e-06
2.974446132e-06
3.458697042e-06
4.980390442e-06
5.049331109e-06
4.427198864e-06
6.502083841e-06
3.181268133e-06
6.433143174e-06
6.433143174e-06
3.665519044e-06
2.421254554e-06
4.496139531e-06
5.049331109e-06
4.980390442e-06
6.502083841e-06
6.917394084e-06
4.427198864e-06
5.948892263e-06
4.980390442e-06
4.427198864e-06
4.427198864e-06
2.974446132e-06
4.980390442e-06
2.628076555e-06
5.53358202e-06
4.496139531e-06
4.496139531e-06
6.155714265e-06
5.948892263e-06
3.942947953e-06
4.496139531e-06
6.986334752e-06
4.080829287e-06
5.948892263e-06
5.879951596e-06
4.634020865e-06
2.490195221e-06
3.458697042e-06
4.911449774e-06
5.395700685e-06
2.00594431e-06
3.52763771e-06
4.01188862e-06
6.433143174e-06
4.911449774e-06
5.049331109e-06
4.634020865e-06
2.905505464e-06
6.01783293e-06
4.080829287e-06
5.879951596e-06
9.200767303e-06
4.496139531e-06
3.043386799e-06
4.01188862e-06
3.458697042e-06
4.427198864e-06
5.118271776e-06
3.942947953e-06
3.52763771e-06
6.502083841e-06
4.496139531e-06
4.427198864e-06
4.427198864e-06
5.464641352e-06
7.401644995e-06
2.559135888e-06
5.395700685e-06
4.980390442e-06
2.559135888e-06
6.502083841e-06
6.917394084e-06
2.00594431e-06
6.502083841e-06
5.464641352e-06
6.364202506e-06
6.77784651e-06
6.364202506e-06
3.458697042e-06
2.559135888e-06
5.395700685e-06
4.01188862e-06
4.01188862e-06
4.496139531e-06
4.01188862e-06
7.124216086e-06
5.53358202e-06
2.974446132e-06
4.080829287e-06
2.421254554e-06
4.080829287e-06
5.53358202e-06
6.639965176e-06
2.559135888e-06
4.427198864e-06
6.01783293e-06
6.433143174e-06
4.702961533e-06
4.01188862e-06
4.634020865e-06
8.508028151e-06
3.52763771e-06
4.565080198e-06
4.496139531e-06
3.52763771e-06
3.942947953e-06
3.458697042e-06
5.118271776e-06
4.842509107e-06
2.559135888e-06
2.905505464e-06
3.043386799e-06
4.496139531e-06
6.01783293e-06
5.53358202e-06
5.395700685e-06
3.874007286e-06
2.905505464e-06
5.53358202e-06
4.980390442e-06
3.043386799e-06
3.458697042e-06
5.53358202e-06
7.470585662e-06
6.571024508e-06
4.427198864e-06
4.980390442e-06
5.671463354e-06
4.565080198e-06
6.364202506e-06
4.427198864e-06
6.639965176e-06
4.980390442e-06
4.496139531e-06
5.53358202e-06
4.980390442e-06
3.596578377e-06
5.049331109e-06
4.911449774e-06
3.389756375e-06
3.458697042e-06
3.942947953e-06
4.01188862e-06
3.596578377e-06
4.565080198e-06
4.358258196e-06
7.055275419e-06
3.389756375e-06
7.332704328e-06
2.421254554e-06
3.942947953e-06
6.639965176e-06
6.502083841e-06
6.01783293e-06
5.464641352e-06
3.874007286e-06
6.01783293e-06
7.470585662e-06
5.879951596e-06
4.080829287e-06
7.124216086e-06
4.01188862e-06
3.52763771e-06
3.874007286e-06
6.433143174e-06
4.01188862e-06
2.00594431e-06
5.948892263e-06
5.464641352e-06
5.53358202e-06
3.942947953e-06
4.565080198e-06
2.974446132e-06
2.421254554e-06
3.942947953e-06
8.439087484e-06
4.911449774e-06
3.874007286e-06
4.911449774e-06
2.490195221e-06
5.049331109e-06
3.710696357e-06
4.671599213e-06
3.619261292e-06
4.300901418e-06
3.157498504e-06
5.399077245e-06
8.399829489e-06
4.12346069e-06
5.63010314e-06
5.66935613e-06
4.210312354e-06
5.606265308e-06
8.975140374e-06
5.248974363e-06
4.846022808e-06
4.289775436e-06
2.984994295e-06
4.612770449e-06
4.011723974e-06
3.188692737e-06
3.068824086e-06
7.258973155e-06
4.63272423e-06
5.831998615e-06
8.003521346e-06
5.843154299e-06
4.859681878e-06
7.268301862e-06
7.248482306e-06
5.173223451e-06
4.0680561e-06
7.618859586e-06
6.441483093e-06
2.69714572e-06
4.772839418e-06
3.180473604e-06
7.080295222e-06
2.026899895e-06
2.956185592e-06
6.590989309e-06
6.066520087e-06
5.031485695e-06
4.777006444e-06
6.415022822e-06
4.258786902e-06
6.878740208e-06
4.581269135e-06
3.494829161e-06
7.108195936e-06
6.236121073e-06
4.638800223e-06
6.324307009e-06
3.619261318e-06
5.17631588e-06
4.112420151e-06
3.771982481e-06
4.581269135e-06
4.752092195e-06
5.48981677e-06
3.684825416e-06
6.137648213e-06
3.665302099e-06
7.889536338e-06
3.717877166e-06
8.371207083e-06
3.771982508e-06
2.499026104e-06
5.032419334e-06
3.519026376e-06
3.543560996e-06
3.710696357e-06
7.042348709e-06
1.056747587e-05
3.572560127e-06
5.506442104e-06
1.035585909e-06
2.568211236e-06
3.91447807e-06
3.941580816e-06
8.2206518e-06
3.139952234e-06
6.181044922e-06
4.053851622e-06
3.572560127e-06
1.615340947e-06
7.470249063e-06
6.039173698e-06
6.709331185e-06
7.248482257e-06
3.543560947e-06
4.068056072e-06
4.168450672e-06
3.763543591e-06
6.342364392e-06
4.699656061e-06
7.249101362e-06
4.928867026e-06
4.053799817e-06
2.533631195e-06
4.747723027e-06
3.068824128e-06
5.103116774e-06
3.547120169e-06
4.738608597e-06
4.258786902e-06
2.662680672e-06
4.581269166e-06
5.171741081e-06
4.574564758e-06
5.031959041e-06
2.498079983e-06
6.252675965e-06
5.21159681e-06
5.32163292e-06
2.202576857e-06
6.064302e-06
3.956930651e-06
4.543109545e-06
8.796718228e-06
2.621927837e-06
4.70992835e-06
6.109413878e-06
3.184670963e-06
3.207511433e-06
5.800944489e-06
3.254189527e-06
8.052231598e-06
3.425168311e-06
6.825927939e-06
4.961326819e-06
3.068824107e-06
3.018891438e-06
5.646187182e-06
4.593291624e-06
8.885259539e-06
4.733852456e-06
4.095300947e-06
4.612770417e-06
6.122800697e-06
3.25932496e-06
2.99769598e-06
6.109413878e-06
2.605798387e-06
5.248974326e-06
2.570262576e-06
4.510923169e-06
4.512083987e-06
5.521729093e-06
5.700246364e-06
5.598723907e-06
3.068824086e-06
4.025188556e-06
2.533657282e-06
4.300901448e-06
6.902232918e-06
3.919414282e-06
5.136422506e-06
2.446548794e-06
3.026328777e-06
2.692560077e-06
6.279904467e-06
4.0968196e-06
4.270274991e-06
3.790535685e-06
3.157498504e-06
4.66013659e-06
5.900803402e-06
5.171741081e-06
3.026328777e-06
4.677090773e-06
4.638800223e-06
4.671599245e-06
5.067314598e-06
6.197047309e-06
3.157498482e-06
4.955000191e-06
4.998052174e-06
5.941377939e-06
3.589169561e-06
6.661621532e-06
5.638032217e-06
4.025188556e-06
3.691402415e-06
4.81126715e-06
2.643445985e-06
4.363491336e-06
)
;

boundaryField
{
    flow
    {
        type            zeroGradient;
    }
    obstacle
    {
        type            calculated;
        value           nonuniform List<scalar> 0();
    }
    frontAndBack
    {
        type            empty;
    }
    procBoundary2to0
    {
        type            processor;
        value           nonuniform List<scalar> 
31
(
3.942947953e-06
4.496139531e-06
5.53358202e-06
4.01188862e-06
4.149769955e-06
4.980390442e-06
5.118271776e-06
6.433143174e-06
5.187212443e-06
9.130160396e-06
3.043386799e-06
5.118271776e-06
4.980390442e-06
4.496139531e-06
5.602522687e-06
3.389756375e-06
3.458697042e-06
4.358258196e-06
3.874007286e-06
3.596578377e-06
2.640336237e-06
5.103116739e-06
4.198133897e-06
5.17631588e-06
3.157498504e-06
5.399077245e-06
3.956930651e-06
3.425168288e-06
5.067262357e-06
5.102591264e-06
5.102591264e-06
)
;
    }
    procBoundary2to3
    {
        type            processor;
        value           nonuniform List<scalar> 
19
(
3.278041767e-06
3.651117558e-06
5.29013848e-06
4.246961997e-06
6.407571103e-06
2.682197348e-06
4.917062686e-06
5.364394658e-06
6.407571149e-06
5.290138442e-06
4.246961997e-06
8.046592044e-06
3.79962999e-06
6.780646894e-06
6.481827412e-06
7.673516195e-06
3.203785551e-06
4.694294037e-06
6.333314887e-06
)
;
    }
}


// ************************************************************************* //
