/*--------------------------------*- C++ -*----------------------------------*\
| =========                 |                                                 |
| \\      /  F ield         | OpenFOAM: The Open Source CFD Toolbox           |
|  \\    /   O peration     | Version:  2406                                  |
|   \\  /    A nd           | Website:  www.openfoam.com                      |
|    \\/     M anipulation  |                                                 |
\*---------------------------------------------------------------------------*/
FoamFile
{
    version     2.0;
    format      ascii;
    arch        "LSB;label=32;scalar=64";
    class       volScalarField;
    location    "0.005";
    object      rhoNMean;
}
// * * * * * * * * * * * * * * * * * * * * * * * * * * * * * * * * * * * * * //

dimensions      [0 -3 0 0 0 0 0];

internalField   nonuniform List<scalar> 
546
(
7.736350893e+19
9.964529923e+19
1.007950046e+20
1.001326743e+20
1.000826871e+20
9.967029282e+19
9.98077576e+19
9.908294333e+19
9.845810344e+19
9.867054901e+19
9.934954168e+19
1.001535023e+20
9.990356638e+19
9.947034406e+19
9.946201286e+19
9.886633217e+19
9.932038249e+19
9.844977225e+19
9.752084362e+19
9.727923886e+19
7.80674952e+19
9.957864964e+19
9.989106958e+19
1.002326487e+20
1.004534255e+20
1.008241638e+20
1.00603387e+20
1.005075783e+20
1.001201775e+20
9.995355357e+19
9.963696803e+19
9.935370728e+19
1.000035408e+20
9.905794973e+19
9.932038249e+19
9.920374571e+19
1.001868271e+20
1.011282526e+20
1.014115133e+20
1.015114877e+20
7.710940738e+19
9.921207691e+19
9.947450966e+19
9.917042091e+19
9.955365604e+19
1.000035408e+20
9.995355357e+19
1.000618591e+20
1.001868271e+20
1.009616286e+20
1.002534767e+20
1.008241638e+20
9.9803592e+19
9.982025439e+19
9.964113363e+19
9.907877773e+19
9.822482989e+19
9.890382256e+19
9.881217938e+19
9.840395065e+19
7.766759768e+19
1.003409543e+20
1.010782654e+20
1.003742791e+20
9.963280243e+19
9.934537608e+19
9.990356638e+19
9.932038249e+19
9.964529923e+19
9.886633217e+19
9.966196162e+19
9.913293052e+19
1.001285087e+20
1.002784703e+20
1.011699085e+20
1.011199214e+20
1.005325719e+20
1.002576423e+20
1.0184057e+20
1.016156277e+20
7.749680811e+19
1.000493624e+20
1.001326743e+20
1.007533486e+20
1.009033102e+20
1.006075526e+20
9.953282805e+19
9.962030563e+19
9.919541451e+19
9.841644745e+19
9.842477865e+19
9.874136419e+19
9.874969539e+19
9.907461213e+19
9.932871368e+19
9.962863683e+19
1.005658967e+20
1.008908134e+20
9.948284086e+19
9.946201286e+19
7.737184013e+19
9.890798816e+19
9.916625531e+19
9.919124891e+19
9.92662297e+19
9.986191039e+19
1.000701903e+20
1.001035151e+20
1.00874151e+20
1.012448893e+20
1.014406725e+20
1.010449406e+20
1.005825591e+20
1.005367375e+20
1.005950559e+20
1.014240101e+20
1.009033102e+20
1.001493367e+20
1.011324182e+20
1.012073989e+20
7.710107618e+19
9.92662297e+19
1.003826103e+20
1.005242407e+20
1.000576935e+20
1.005409031e+20
1.004950815e+20
1.010907622e+20
1.001993239e+20
1.01103259e+20
1.008616542e+20
1.008866478e+20
1.012698829e+20
1.00770011e+20
1.002951327e+20
9.974943921e+19
9.994522237e+19
9.962030563e+19
9.951200005e+19
9.947867526e+19
7.759678249e+19
9.994105677e+19
1.007533486e+20
1.007450174e+20
1.010074502e+20
1.005284063e+20
1.00853323e+20
1.00957463e+20
1.016406213e+20
1.006700366e+20
1.007825078e+20
1.002576423e+20
1.004409287e+20
1.012032333e+20
1.011365838e+20
1.019530412e+20
1.015698061e+20
1.015281501e+20
1.018988884e+20
1.020613468e+20
7.783422165e+19
1.003076295e+20
1.003242919e+20
9.97952608e+19
9.981608879e+19
9.906628093e+19
9.917875211e+19
9.962863683e+19
9.941619127e+19
1.004534255e+20
1.006908646e+20
1.010865966e+20
1.003159607e+20
1.001909927e+20
9.992855997e+19
9.939536327e+19
9.963280243e+19
9.967029282e+19
9.913709612e+19
9.864555541e+19
7.705942019e+19
9.878718578e+19
9.891631936e+19
9.993272557e+19
9.930372009e+19
1.001784959e+20
9.989106958e+19
1.002701391e+20
9.985774479e+19
9.912043372e+19
9.919541451e+19
9.933287928e+19
1.000368656e+20
1.002284831e+20
1.00011872e+20
1.000160376e+20
9.959947763e+19
9.900796254e+19
9.839561946e+19
9.865805221e+19
7.803000481e+19
1.002118207e+20
1.004325975e+20
1.003117951e+20
1.000576935e+20
9.975360481e+19
9.989940078e+19
9.882051058e+19
9.92454017e+19
9.984108239e+19
9.936620408e+19
9.987440718e+19
9.911210252e+19
9.92204081e+19
9.847893144e+19
9.897047215e+19
9.949117205e+19
1.010366094e+20
1.022821235e+20
1.023945947e+20
7.70219298e+19
9.964946482e+19
9.936203848e+19
9.999520956e+19
9.959531203e+19
9.916625531e+19
9.969945202e+19
9.912459932e+19
9.900379694e+19
9.884550417e+19
9.86872114e+19
9.916208971e+19
9.942868807e+19
1.000785215e+20
1.008616542e+20
1.002992983e+20
1.00645043e+20
9.943285366e+19
9.952449685e+19
9.9761936e+19
7.733434974e+19
1.005034127e+20
1.010574374e+20
1.00770011e+20
1.006825334e+20
1.001451711e+20
1.000285344e+20
1.00790839e+20
1.008366606e+20
1.008616542e+20
1.002992983e+20
9.994938797e+19
9.996188477e+19
9.968695522e+19
9.92578985e+19
9.969945202e+19
9.884133857e+19
9.873303299e+19
9.905794973e+19
9.886216657e+19
7.70260954e+19
9.840395065e+19
9.929122329e+19
9.938703207e+19
9.996188477e+19
9.999520956e+19
9.995771917e+19
9.990773198e+19
9.981192319e+19
1.001659991e+20
9.944535046e+19
9.938286647e+19
9.898296895e+19
9.914959292e+19
9.861639622e+19
9.918291771e+19
9.945368166e+19
9.934537608e+19
9.955365604e+19
9.982025439e+19
7.791336803e+19
9.987857278e+19
1.000701903e+20
9.911210252e+19
9.927456089e+19
9.955782164e+19
9.947450966e+19
1.00011872e+20
9.954115924e+19
9.909127453e+19
9.92329049e+19
9.92287393e+19
9.986191039e+19
9.930372009e+19
1.003534511e+20
9.983691679e+19
9.970361761e+19
9.974110801e+19
9.962863683e+19
9.967029282e+19
7.730102495e+19
9.967029282e+19
9.989106958e+19
1.005825591e+20
1.013906853e+20
1.00665871e+20
9.988690398e+19
9.963280243e+19
9.981608879e+19
1.001368399e+20
9.995771917e+19
9.985774479e+19
9.967445842e+19
1.002493111e+20
1.00749183e+20
1.001618335e+20
9.997438156e+19
9.898296895e+19
9.887466337e+19
9.939952887e+19
7.80883232e+19
1.009491318e+20
1.016781117e+20
1.012073989e+20
1.000826871e+20
1.008075014e+20
1.016572837e+20
1.018988884e+20
1.015989653e+20
1.023446075e+20
1.016489525e+20
1.01861398e+20
1.01819742e+20
1.010324438e+20
9.984524799e+19
9.984108239e+19
1.000368656e+20
1.000993495e+20
1.004659223e+20
1.002409799e+20
7.59222116e+19
9.692099733e+19
9.746669083e+19
9.828731388e+19
9.856224343e+19
9.851225623e+19
9.884966977e+19
9.875386099e+19
9.887049777e+19
9.931205129e+19
1.001618335e+20
9.990773198e+19
9.997438156e+19
1.003409543e+20
1.004117695e+20
1.003701135e+20
1.000451968e+20
9.974527361e+19
9.9803592e+19
9.927039529e+19
9.975128845e+19
9.985064515e+19
9.995577586e+19
1.003785127e+20
1.004712884e+20
1.01050914e+20
9.862332461e+19
9.906575899e+19
1.001797259e+20
9.929482062e+19
9.965243969e+19
1.002098824e+20
1.008580855e+20
1.007780248e+20
1.00542039e+20
1.008059367e+20
1.013698294e+20
1.009261884e+20
1.01179955e+20
1.010702287e+20
1.014832899e+20
1.009326858e+20
1.011370602e+20
1.006594883e+20
1.009709696e+20
1.021956262e+20
9.878217872e+19
9.944878856e+19
1.001712494e+20
9.99264562e+19
1.005635674e+20
1.004565875e+20
1.00526803e+20
1.011994889e+20
1.014396963e+20
1.020352767e+20
1.019216377e+20
1.017764291e+20
1.009129447e+20
1.012537452e+20
1.006538206e+20
1.00577776e+20
1.007447513e+20
1.004707071e+20
9.953825477e+19
9.991065601e+19
9.966841748e+19
9.954138845e+19
9.962451401e+19
9.990938565e+19
1.000134525e+20
9.969915956e+19
1.00291418e+20
1.013663181e+20
1.00825045e+20
1.006901293e+20
1.008598234e+20
1.003579577e+20
1.005230249e+20
1.005196815e+20
1.019732366e+20
1.01400127e+20
1.001824435e+20
9.997022016e+19
1.001484856e+20
1.005921391e+20
9.998612639e+19
9.979393609e+19
9.978980611e+19
9.98282973e+19
9.93129157e+19
1.000410842e+20
1.001824435e+20
1.001194884e+20
9.902088579e+19
9.861004919e+19
1.026364813e+20
1.023025694e+20
1.020233692e+20
1.006263774e+20
9.991460378e+19
9.944379814e+19
9.955474968e+19
9.941704956e+19
1.000512025e+20
9.972358243e+19
9.813840151e+19
9.7967179e+19
9.779782376e+19
9.767732073e+19
9.883156456e+19
9.918410924e+19
9.95024433e+19
9.898241621e+19
9.915354521e+19
9.954541711e+19
9.858988163e+19
1.000549013e+20
1.005696464e+20
1.014927424e+20
1.00546377e+20
1.00179586e+20
1.009365464e+20
1.005848535e+20
1.008383102e+20
9.942960965e+19
1.017544235e+20
1.012166174e+20
1.004043537e+20
1.003703089e+20
1.010578111e+20
1.01066858e+20
1.002609052e+20
1.004882695e+20
1.00829467e+20
1.011399967e+20
9.963079414e+19
9.952034287e+19
9.952279512e+19
9.90174131e+19
9.784737545e+19
9.786834799e+19
9.816423498e+19
9.889022042e+19
9.947634808e+19
1.006634045e+20
9.875291612e+19
9.888897611e+19
9.970080335e+19
1.001227761e+20
1.006151406e+20
1.012053599e+20
1.010324454e+20
1.009536353e+20
1.002722997e+20
9.968349452e+19
9.994850237e+19
1.009472333e+20
1.00552692e+20
1.009165877e+20
1.011179799e+20
1.008028403e+20
1.000996222e+20
9.97287561e+19
9.898108818e+19
9.785730142e+19
9.886160578e+19
9.87837482e+19
9.881500723e+19
9.841565218e+19
9.868973808e+19
9.752209521e+19
9.78242352e+19
9.855656265e+19
9.957363114e+19
1.002892573e+20
9.961407332e+19
9.948246149e+19
9.954822535e+19
9.955515759e+19
9.990171047e+19
1.002704766e+20
1.009539823e+20
1.00202903e+20
1.006702765e+20
1.009217442e+20
9.972694268e+19
9.982760902e+19
9.983642696e+19
9.988377812e+19
1.005076963e+20
1.007941847e+20
1.008406503e+20
1.012609516e+20
1.013026157e+20
1.014339695e+20
1.00124078e+20
9.934355999e+19
9.910744643e+19
9.950394389e+19
9.850493456e+19
9.829250765e+19
9.861320994e+19
9.809558646e+19
9.758375042e+19
9.752324075e+19
)
;

boundaryField
{
    flow
    {
        type            calculated;
        value           nonuniform List<scalar> 
48
(
7.736350893e+19
7.80674952e+19
7.710940738e+19
7.766759768e+19
7.749680811e+19
7.737184013e+19
7.710107618e+19
7.759678249e+19
7.783422165e+19
7.705942019e+19
7.803000481e+19
7.70219298e+19
7.733434974e+19
7.70260954e+19
7.791336803e+19
7.730102495e+19
7.80883232e+19
7.59222116e+19
7.59222116e+19
9.692099733e+19
9.746669083e+19
9.828731388e+19
9.856224343e+19
9.851225623e+19
9.884966977e+19
9.875386099e+19
9.887049777e+19
9.931205129e+19
1.001618335e+20
9.990773198e+19
9.997438156e+19
1.003409543e+20
1.004117695e+20
1.003701135e+20
1.000451968e+20
9.974527361e+19
9.9803592e+19
9.927039529e+19
1.00124078e+20
9.934355999e+19
9.910744643e+19
9.950394389e+19
9.850493456e+19
9.829250765e+19
9.861320994e+19
9.809558646e+19
9.758375042e+19
9.752324075e+19
)
;
    }
    obstacle
    {
        type            calculated;
        value           nonuniform List<scalar> 0();
    }
    frontAndBack
    {
        type            empty;
    }
    procBoundary2to0
    {
        type            processor;
        value           nonuniform List<scalar> 
31
(
7.715522897e+19
9.887882897e+19
9.917458651e+19
9.828731388e+19
9.875802659e+19
9.832896987e+19
9.952449685e+19
1.005867247e+20
1.010491062e+20
1.008616542e+20
9.946617846e+19
9.948700645e+19
9.919124891e+19
9.92537329e+19
9.930788569e+19
9.909544013e+19
9.912459932e+19
9.890382256e+19
9.984524799e+19
9.994105677e+19
9.953639985e+19
9.874263626e+19
9.838654366e+19
9.854339192e+19
1.002988321e+20
1.005030557e+20
9.963497451e+19
9.921728651e+19
9.872176486e+19
9.908569871e+19
9.908569871e+19
)
;
    }
    procBoundary2to3
    {
        type            processor;
        value           nonuniform List<scalar> 
19
(
1.009794799e+20
1.017018515e+20
1.019800327e+20
1.018544021e+20
9.988470547e+19
1.004455537e+20
1.010602427e+20
9.902773042e+19
9.935975288e+19
9.938218607e+19
9.946294812e+19
1.015582753e+20
1.00997427e+20
9.95571705e+19
9.851175208e+19
9.935077861e+19
1.024511439e+20
1.006384853e+20
9.77938658e+19
)
;
    }
}


// ************************************************************************* //
