/*--------------------------------*- C++ -*----------------------------------*\
| =========                 |                                                 |
| \\      /  F ield         | OpenFOAM: The Open Source CFD Toolbox           |
|  \\    /   O peration     | Version:  2406                                  |
|   \\  /    A nd           | Website:  www.openfoam.com                      |
|    \\/     M anipulation  |                                                 |
\*---------------------------------------------------------------------------*/
FoamFile
{
    version     2.0;
    format      ascii;
    arch        "LSB;label=32;scalar=64";
    class       volScalarField;
    location    "0.005";
    object      rhoN;
}
// * * * * * * * * * * * * * * * * * * * * * * * * * * * * * * * * * * * * * //

dimensions      [0 -3 0 0 0 0 0];

internalField   nonuniform List<scalar> 
546
(
8.331198464e+19
1.145539789e+20
1.145539789e+20
8.331198464e+19
5.20699904e+19
1.145539789e+20
8.331198464e+19
1.35381975e+20
8.331198464e+19
1.145539789e+20
1.041399808e+20
9.372598272e+19
6.248398848e+19
1.145539789e+20
6.248398848e+19
8.331198464e+19
7.289798656e+19
8.331198464e+19
8.331198464e+19
8.331198464e+19
9.372598272e+19
9.372598272e+19
9.372598272e+19
1.35381975e+20
9.372598272e+19
1.24967977e+20
8.331198464e+19
1.145539789e+20
1.041399808e+20
7.289798656e+19
1.24967977e+20
1.35381975e+20
1.145539789e+20
1.457959731e+20
7.289798656e+19
1.041399808e+20
1.145539789e+20
6.248398848e+19
1.041399808e+20
8.331198464e+19
9.372598272e+19
1.041399808e+20
6.248398848e+19
9.372598272e+19
1.145539789e+20
1.35381975e+20
8.331198464e+19
8.331198464e+19
9.372598272e+19
1.145539789e+20
1.041399808e+20
1.457959731e+20
1.457959731e+20
6.248398848e+19
1.24967977e+20
6.248398848e+19
8.331198464e+19
1.24967977e+20
1.457959731e+20
9.372598272e+19
8.331198464e+19
1.145539789e+20
9.372598272e+19
8.331198464e+19
9.372598272e+19
7.289798656e+19
8.331198464e+19
1.457959731e+20
9.372598272e+19
1.041399808e+20
8.331198464e+19
9.372598272e+19
1.24967977e+20
1.24967977e+20
6.248398848e+19
1.041399808e+20
1.041399808e+20
1.041399808e+20
5.20699904e+19
6.248398848e+19
7.289798656e+19
4.165599232e+19
7.289798656e+19
1.24967977e+20
1.457959731e+20
1.562099712e+20
8.331198464e+19
6.248398848e+19
1.562099712e+20
1.35381975e+20
5.20699904e+19
1.041399808e+20
9.372598272e+19
1.145539789e+20
4.165599232e+19
7.289798656e+19
9.372598272e+19
8.331198464e+19
1.145539789e+20
1.041399808e+20
9.372598272e+19
1.145539789e+20
9.372598272e+19
8.331198464e+19
1.35381975e+20
6.248398848e+19
1.041399808e+20
1.35381975e+20
6.248398848e+19
6.248398848e+19
1.35381975e+20
1.145539789e+20
1.35381975e+20
9.372598272e+19
1.041399808e+20
1.35381975e+20
1.145539789e+20
1.145539789e+20
1.041399808e+20
9.372598272e+19
8.331198464e+19
7.289798656e+19
1.35381975e+20
7.289798656e+19
7.289798656e+19
9.372598272e+19
8.331198464e+19
7.289798656e+19
8.331198464e+19
5.20699904e+19
1.145539789e+20
1.562099712e+20
1.145539789e+20
9.372598272e+19
1.24967977e+20
1.457959731e+20
9.372598272e+19
8.331198464e+19
1.041399808e+20
7.289798656e+19
6.248398848e+19
9.372598272e+19
7.289798656e+19
9.372598272e+19
1.145539789e+20
8.331198464e+19
1.145539789e+20
9.372598272e+19
7.289798656e+19
1.457959731e+20
8.331198464e+19
1.24967977e+20
9.372598272e+19
9.372598272e+19
5.20699904e+19
1.145539789e+20
9.372598272e+19
9.372598272e+19
1.35381975e+20
8.331198464e+19
5.20699904e+19
9.372598272e+19
1.145539789e+20
8.331198464e+19
9.372598272e+19
1.666239693e+20
1.24967977e+20
9.372598272e+19
1.35381975e+20
1.562099712e+20
8.331198464e+19
4.165599232e+19
1.24967977e+20
8.331198464e+19
9.372598272e+19
1.35381975e+20
1.24967977e+20
1.35381975e+20
1.145539789e+20
6.248398848e+19
7.289798656e+19
1.041399808e+20
1.041399808e+20
9.372598272e+19
1.35381975e+20
6.248398848e+19
1.35381975e+20
1.35381975e+20
7.289798656e+19
5.20699904e+19
9.372598272e+19
1.041399808e+20
1.041399808e+20
1.35381975e+20
1.457959731e+20
9.372598272e+19
1.24967977e+20
1.041399808e+20
9.372598272e+19
9.372598272e+19
6.248398848e+19
1.041399808e+20
5.20699904e+19
1.145539789e+20
9.372598272e+19
9.372598272e+19
1.24967977e+20
1.24967977e+20
8.331198464e+19
9.372598272e+19
1.457959731e+20
8.331198464e+19
1.24967977e+20
1.24967977e+20
9.372598272e+19
5.20699904e+19
7.289798656e+19
1.041399808e+20
1.145539789e+20
4.165599232e+19
7.289798656e+19
8.331198464e+19
1.35381975e+20
1.041399808e+20
1.041399808e+20
9.372598272e+19
6.248398848e+19
1.24967977e+20
8.331198464e+19
1.24967977e+20
1.978659635e+20
9.372598272e+19
6.248398848e+19
8.331198464e+19
7.289798656e+19
9.372598272e+19
1.041399808e+20
8.331198464e+19
7.289798656e+19
1.35381975e+20
9.372598272e+19
9.372598272e+19
9.372598272e+19
1.145539789e+20
1.562099712e+20
5.20699904e+19
1.145539789e+20
1.041399808e+20
5.20699904e+19
1.35381975e+20
1.457959731e+20
4.165599232e+19
1.35381975e+20
1.145539789e+20
1.35381975e+20
1.35381975e+20
1.35381975e+20
7.289798656e+19
5.20699904e+19
1.145539789e+20
8.331198464e+19
8.331198464e+19
9.372598272e+19
8.331198464e+19
1.457959731e+20
1.145539789e+20
6.248398848e+19
8.331198464e+19
5.20699904e+19
8.331198464e+19
1.145539789e+20
1.35381975e+20
5.20699904e+19
9.372598272e+19
1.24967977e+20
1.35381975e+20
9.372598272e+19
8.331198464e+19
9.372598272e+19
1.770379674e+20
7.289798656e+19
9.372598272e+19
9.372598272e+19
7.289798656e+19
8.331198464e+19
7.289798656e+19
1.041399808e+20
1.041399808e+20
5.20699904e+19
6.248398848e+19
6.248398848e+19
9.372598272e+19
1.24967977e+20
1.145539789e+20
1.145539789e+20
8.331198464e+19
6.248398848e+19
1.145539789e+20
1.041399808e+20
6.248398848e+19
7.289798656e+19
1.145539789e+20
1.562099712e+20
1.35381975e+20
9.372598272e+19
1.041399808e+20
1.145539789e+20
9.372598272e+19
1.35381975e+20
9.372598272e+19
1.35381975e+20
1.041399808e+20
9.372598272e+19
1.145539789e+20
1.041399808e+20
7.289798656e+19
1.041399808e+20
1.041399808e+20
7.289798656e+19
7.289798656e+19
8.331198464e+19
8.331198464e+19
7.289798656e+19
9.372598272e+19
9.372598272e+19
1.457959731e+20
7.289798656e+19
1.562099712e+20
5.20699904e+19
8.331198464e+19
1.35381975e+20
1.35381975e+20
1.24967977e+20
1.145539789e+20
8.331198464e+19
1.24967977e+20
1.562099712e+20
1.24967977e+20
8.331198464e+19
1.457959731e+20
8.331198464e+19
7.289798656e+19
8.331198464e+19
1.35381975e+20
8.331198464e+19
4.165599232e+19
1.24967977e+20
1.145539789e+20
1.145539789e+20
8.331198464e+19
9.372598272e+19
6.248398848e+19
5.20699904e+19
8.331198464e+19
1.770379674e+20
1.041399808e+20
8.331198464e+19
1.041399808e+20
5.20699904e+19
1.041399808e+20
7.521101025e+19
9.73835941e+19
7.628215418e+19
8.78048572e+19
6.632935727e+19
1.113533235e+20
1.776657891e+20
8.418232409e+19
1.165521201e+20
1.173647196e+20
8.595544028e+19
1.190243928e+20
1.852566614e+20
1.097560715e+20
9.94940352e+19
8.908265883e+19
6.270557303e+19
9.47051146e+19
8.476517826e+19
6.40171198e+19
6.446657977e+19
1.514855919e+20
9.807705606e+19
1.207316786e+20
1.658233932e+20
1.224886559e+20
1.045092877e+20
1.473190672e+20
1.48339062e+20
1.066951997e+20
8.595544028e+19
1.623059902e+20
1.307694081e+20
5.487803613e+19
9.94940352e+19
6.681199365e+19
1.463130028e+20
4.209116176e+19
6.35738837e+19
1.387037605e+20
1.289331604e+20
1.082039934e+20
9.807705538e+19
1.317072849e+20
8.84391424e+19
1.447593206e+20
9.405835892e+19
7.365953308e+19
1.48339062e+20
1.280342405e+20
9.669987032e+19
1.298447921e+20
7.628215471e+19
1.097560723e+20
8.843914303e+19
7.794732648e+19
9.405835892e+19
9.47051146e+19
1.165521201e+20
7.468663977e+19
1.289331604e+20
7.574279594e+19
1.634617601e+20
7.682925005e+19
1.768782861e+20
7.794732703e+19
5.225464419e+19
1.052279051e+20
7.416953098e+19
7.468664028e+19
7.521101025e+19
1.406651915e+20
2.179490135e+20
7.682925005e+19
1.10548928e+20
2.227066471e+19
5.225464384e+19
8.418232409e+19
8.476517884e+19
1.707123206e+20
6.446658021e+19
1.298447921e+20
8.717960478e+19
7.682925005e+19
3.316467864e+19
1.55894653e+20
1.254111452e+20
1.367962757e+20
1.48339061e+20
7.468663926e+19
8.595543969e+19
8.656319536e+19
7.628215524e+19
1.317072867e+20
9.949403591e+19
1.55894653e+20
1.045092877e+20
8.418232409e+19
5.297823677e+19
9.602568036e+19
6.446658066e+19
1.082039942e+20
7.628215418e+19
9.878046365e+19
8.84391424e+19
5.567666177e+19
9.405835955e+19
1.052279051e+20
9.536082555e+19
1.066952004e+20
5.372215018e+19
1.298447921e+20
1.089745067e+20
1.097560723e+20
4.421957151e+19
1.224886559e+20
8.360743015e+19
9.470511396e+19
1.801260026e+20
5.334759983e+19
9.669987032e+19
1.298447921e+20
6.538470358e+19
6.58536429e+19
1.216038217e+20
6.681199412e+19
1.672148603e+20
7.365953358e+19
1.377434156e+20
1.066952004e+20
6.446658021e+19
6.492239652e+19
1.198719582e+20
9.878046504e+19
1.879331776e+20
1.002179905e+20
8.360743015e+19
9.470511396e+19
1.271477665e+20
6.40171198e+19
6.446658021e+19
1.298447921e+20
5.448725299e+19
1.097560707e+20
5.5274464e+19
8.908265946e+19
9.405835892e+19
1.157506956e+20
1.165521209e+20
1.173647196e+20
6.446657977e+19
8.656319476e+19
5.448725337e+19
8.780485781e+19
1.437136074e+20
7.794732648e+19
1.045092884e+20
5.261395256e+19
6.35738837e+19
5.33476002e+19
1.289331604e+20
8.656319476e+19
8.717960478e+19
7.682925005e+19
6.632935727e+19
1.002179912e+20
1.254111452e+20
1.052279051e+20
6.35738837e+19
9.60256797e+19
9.669987032e+19
9.738359478e+19
1.089745075e+20
1.317072858e+20
6.63293568e+19
1.002179912e+20
1.045092877e+20
1.262734853e+20
7.416953098e+19
1.387037605e+20
1.181887304e+20
8.656319476e+19
7.628215418e+19
9.878046435e+19
5.527446439e+19
8.908265883e+19
)
;

boundaryField
{
    flow
    {
        type            zeroGradient;
    }
    obstacle
    {
        type            calculated;
        value           nonuniform List<scalar> 0();
    }
    frontAndBack
    {
        type            empty;
    }
    procBoundary2to0
    {
        type            processor;
        value           nonuniform List<scalar> 
31
(
8.331198464e+19
9.372598272e+19
1.145539789e+20
8.331198464e+19
8.331198464e+19
1.041399808e+20
1.041399808e+20
1.35381975e+20
1.041399808e+20
1.874519654e+20
6.248398848e+19
1.041399808e+20
1.041399808e+20
9.372598272e+19
1.145539789e+20
7.289798656e+19
7.289798656e+19
9.372598272e+19
8.331198464e+19
7.289798656e+19
5.372215018e+19
1.082039934e+20
8.717960539e+19
1.097560723e+20
6.632935727e+19
1.113533235e+20
8.360743015e+19
7.365953308e+19
1.059564728e+20
1.066952004e+20
1.066952004e+20
)
;
    }
    procBoundary2to3
    {
        type            processor;
        value           nonuniform List<scalar> 
19
(
6.730170614e+19
7.851865717e+19
1.12169511e+20
8.973560819e+19
1.346034123e+20
5.608475552e+19
1.009525599e+20
1.121695102e+20
1.346034132e+20
1.121695102e+20
8.973560819e+19
1.682542666e+20
7.851865717e+19
1.458203633e+20
1.346034142e+20
1.570373143e+20
6.730170614e+19
1.009525599e+20
1.346034123e+20
)
;
    }
}


// ************************************************************************* //
