/*--------------------------------*- C++ -*----------------------------------*\
| =========                 |                                                 |
| \\      /  F ield         | OpenFOAM: The Open Source CFD Toolbox           |
|  \\    /   O peration     | Version:  2406                                  |
|   \\  /    A nd           | Website:  www.openfoam.com                      |
|    \\/     M anipulation  |                                                 |
\*---------------------------------------------------------------------------*/
FoamFile
{
    version     2.0;
    format      ascii;
    arch        "LSB;label=32;scalar=64";
    class       volScalarField;
    location    "0.005";
    object      translationalT;
}
// * * * * * * * * * * * * * * * * * * * * * * * * * * * * * * * * * * * * * //

dimensions      [1 2 -2 0 0 0 0];

internalField   nonuniform List<scalar> 
546
(
284.2305016
301.4869627
296.4071986
298.6726256
297.9762472
297.4442678
299.1648663
301.5483868
300.9299141
300.2752593
303.5118421
302.7213951
302.1592684
301.6562234
300.3456445
300.3122042
300.829295
298.5250162
299.9076347
301.7472755
290.1695237
304.0827807
296.7762251
295.4269695
296.8524246
298.4429442
298.9701629
299.2176486
299.2426749
299.1231322
297.7463403
299.3552251
300.2074278
301.7133971
300.8129792
298.4948789
297.9318215
300.2477149
297.6979602
296.1702338
288.3604064
304.0789859
295.7404386
297.0071875
298.653661
299.3792581
296.2051401
296.7652033
296.1778615
297.9255452
296.6743526
298.4517633
296.2814802
294.5283794
294.5599487
295.7176728
295.5934361
295.7538504
297.4689661
297.7533879
292.0744362
308.1990612
302.4303307
299.9364601
296.5263269
296.4966435
297.171957
296.3578122
295.3947007
293.2588167
295.1879418
295.3235744
296.8810827
297.682577
300.3784759
300.6668152
297.9363224
301.2921276
301.8851153
299.764535
288.3577258
306.163437
299.5047159
301.8153334
300.4789019
300.2129734
299.5951831
297.6409112
300.3908381
299.2580641
299.6714858
299.3199439
300.8363926
302.2333671
302.0250647
304.6455535
307.1981193
305.3412063
302.28184
302.6782242
291.4987068
306.7949465
297.5107163
295.7071073
298.35079
298.0408012
297.6381752
300.563915
298.3285772
299.1085945
300.0143073
297.8255677
299.2561576
300.5780631
301.2578691
302.97695
303.937594
301.7750102
304.6508564
305.7661444
287.0930112
301.187609
295.0039302
297.2668227
296.4861732
298.0516642
299.2553579
301.2499382
299.9513233
299.7397081
299.0561207
299.089601
300.8475879
297.5574946
299.5180658
299.0325396
299.3494831
303.4993161
302.0963038
300.1668522
287.4055953
304.2134332
298.237798
298.6070574
299.4442516
297.8179984
298.307071
299.1488172
298.9748497
300.4029741
299.9735977
298.0586444
298.0940496
299.9567897
298.239679
299.9576363
300.3378879
298.1094168
299.6656019
301.7442998
290.5857231
305.7201657
297.9895771
296.5227791
295.5521433
297.0952283
297.7282161
298.2601208
300.4560288
302.2673945
301.2518332
302.62603
302.8347823
301.4432539
301.7173958
300.7307
301.2659788
300.583309
299.6926516
300.7170711
288.4880602
306.6993001
300.7196853
299.844625
299.7389336
298.2833831
297.1938003
298.0141078
299.3287916
298.5581071
297.6432115
299.8065739
299.1742776
299.9225705
303.1149085
302.2213803
300.8685854
302.4394192
299.227681
299.7783287
292.7744235
307.097588
297.9780854
300.0068517
302.1090998
304.2609663
304.0228266
300.788802
299.4746012
299.6869443
298.41586
297.3284676
298.9426226
296.2982141
296.0676182
296.856651
301.281728
298.5359323
301.0116208
301.1374587
288.0716914
305.4887917
297.5358531
300.5686032
298.9237805
297.1082447
297.3151867
297.2845208
297.429229
296.5258042
296.486549
297.0239968
298.2042931
301.2896296
300.527197
297.8815791
298.0529323
301.9521035
301.4588841
300.5705907
289.2985001
306.0223326
300.5058311
301.4120201
301.1405286
299.2760114
300.9261693
301.1225478
299.9616323
300.5254533
301.4533872
302.326909
302.7550609
299.480649
299.2260324
300.6912947
298.4703142
297.3605546
297.8066419
299.0192734
288.9719379
306.0276381
299.2865186
300.6008914
301.3398725
300.6723283
301.4630744
302.5810714
302.7334575
302.4100167
299.6522926
299.3729708
298.6807708
300.310368
298.9911171
300.2306548
300.2076597
298.7842391
299.044253
296.7654322
293.0333527
307.9579265
298.4005978
298.0586302
300.0405143
301.9219343
303.6851858
305.5724204
305.4441905
305.3707666
303.4032755
302.2454966
302.0599542
300.8533394
300.584138
301.4804606
301.3765484
302.1219322
301.3733456
299.317728
290.6665784
304.3928143
299.2093622
303.4360235
302.8878334
301.2925711
300.5172004
297.4029194
298.1190557
301.4635055
302.8479278
303.7583784
302.9628011
305.2457069
303.9310732
299.9261602
299.7727863
298.9209616
299.5742236
302.4083096
291.0098926
307.2965809
299.2755249
297.8753405
297.4103998
295.9653863
297.1380399
296.6452983
295.4882202
297.9224705
298.199383
300.1113185
300.5451806
299.2080151
299.6769745
300.2763498
299.426706
300.1374368
302.2467888
298.6919894
290.750343
303.241579
296.1875553
293.8138541
291.2011491
293.2605308
295.3136575
298.1954455
298.9878648
298.8306814
299.0119293
294.8530356
295.7869556
295.6994716
297.3662735
297.3932002
298.1831921
298.607831
295.3942586
295.8577932
305.0588452
308.6494356
304.7148246
309.4144219
315.0714168
321.3981037
302.191002
305.3682987
304.2996296
303.6601799
304.8174357
303.1772314
301.9131419
309.6949419
306.9507111
312.7027131
295.3123331
293.791856
293.9191377
298.3970888
302.2993208
303.8037639
302.4126911
302.6922927
304.2842497
309.5862301
300.3788557
301.2443411
301.0024887
297.2674985
297.4015892
300.2910453
301.8554892
304.9424682
309.472306
308.3475092
298.5535325
300.2592141
302.3501559
301.8139588
301.4453026
305.7360522
304.1524376
301.0672584
303.7428475
304.2066781
303.8109142
303.4193681
303.6153127
303.780976
305.388922
306.1057766
308.7252341
307.9797715
306.6679104
307.110804
304.5818916
303.1443188
303.8782169
303.4560124
306.4265118
301.8720569
301.8185695
301.6927326
300.0631525
301.0863301
300.495401
300.9203562
303.536353
300.1480132
301.6494057
302.8040592
301.6985149
306.0442762
302.4289886
302.2253111
299.6015412
300.7414305
299.319121
300.4678205
302.6979569
301.9741967
301.7777404
304.434097
305.2104744
303.2043792
299.9272378
302.8886949
304.4894989
300.1743113
303.5238466
301.8739827
299.9624786
303.2396068
302.3545605
302.0473181
301.0971537
301.4469141
302.7544542
304.6749967
299.7083317
301.6300369
303.3713408
302.4539238
302.5957912
301.9625457
298.4523709
299.553696
297.9530761
298.6033282
301.2861791
301.0931239
298.353911
298.6162735
299.2161552
301.9367358
299.3234313
300.020807
301.2297457
302.4657419
299.0835561
298.0235833
298.7924798
298.4893239
300.2432693
300.7537507
302.1573451
301.195159
302.2624228
301.2125595
300.5935172
301.2636629
299.1768079
298.7248868
296.9161929
294.5945112
295.9030477
296.614283
294.6215416
297.1975179
298.3690629
296.4104214
297.7286415
300.0949861
296.5570879
298.5112709
298.3851356
299.6480006
301.7748363
298.7293553
299.1076297
300.1380903
298.2141356
297.2369255
299.4588849
299.8208226
300.5268472
300.1982298
297.8288073
299.2265246
300.0223693
297.3538648
300.6869331
300.1542484
299.7433075
300.7044497
297.7005221
298.0017832
296.9880618
299.1286509
297.9499423
300.1107132
302.3103371
301.0027195
303.2056674
300.9901854
300.2809938
300.4841828
301.5087817
300.5494069
301.6646347
298.075402
297.0403293
296.4687786
294.2241308
297.2395944
)
;

boundaryField
{
    flow
    {
        type            calculated;
        value           nonuniform List<scalar> 
48
(
284.2305016
290.1695237
288.3604064
292.0744362
288.3577258
291.4987068
287.0930112
287.4055953
290.5857231
288.4880602
292.7744235
288.0716914
289.2985001
288.9719379
293.0333527
290.6665784
291.0098926
290.750343
290.750343
303.241579
296.1875553
293.8138541
291.2011491
293.2605308
295.3136575
298.1954455
298.9878648
298.8306814
299.0119293
294.8530356
295.7869556
295.6994716
297.3662735
297.3932002
298.1831921
298.607831
295.3942586
295.8577932
300.2809938
300.4841828
301.5087817
300.5494069
301.6646347
298.075402
297.0403293
296.4687786
294.2241308
297.2395944
)
;
    }
    obstacle
    {
        type            calculated;
        value           nonuniform List<scalar> 0();
    }
    frontAndBack
    {
        type            empty;
    }
    procBoundary2to0
    {
        type            processor;
        value           nonuniform List<scalar> 
31
(
291.8763213
306.4500894
298.8688287
299.422777
298.58381
299.1273063
298.2603437
299.9055063
301.326223
300.2378619
298.3449254
298.7127394
300.4133123
302.7056437
304.2425545
299.8311069
299.2061997
303.7090496
303.8468422
303.8651545
307.8610147
310.3394601
314.5701935
320.7703967
328.4664985
328.8969293
299.4349623
298.8329723
303.6202898
303.2551491
303.2551491
)
;
    }
    procBoundary2to3
    {
        type            processor;
        value           nonuniform List<scalar> 
19
(
325.0175249
318.4549547
317.1904437
312.1225872
311.1391716
309.2896408
304.7687432
304.3079227
303.072331
302.1438757
300.1179435
304.0184108
299.8488703
294.9607303
302.4007366
299.5249548
303.0260963
299.8406022
297.9209406
)
;
    }
}


// ************************************************************************* //
