/*--------------------------------*- C++ -*----------------------------------*\
| =========                 |                                                 |
| \\      /  F ield         | OpenFOAM: The Open Source CFD Toolbox           |
|  \\    /   O peration     | Version:  2406                                  |
|   \\  /    A nd           | Website:  www.openfoam.com                      |
|    \\/     M anipulation  |                                                 |
\*---------------------------------------------------------------------------*/
FoamFile
{
    version     2.0;
    format      ascii;
    arch        "LSB;label=32;scalar=64";
    class       volVectorField;
    location    "0.005";
    object      UMean;
}
// * * * * * * * * * * * * * * * * * * * * * * * * * * * * * * * * * * * * * //

dimensions      [0 1 -1 0 0 0 0];

internalField   nonuniform List<vector> 
546
(
(1709.466265 -3.119196987 1.090587333)
(1742.069752 -0.8895787456 0.476055686)
(1732.933475 3.675689784 0.7727441901)
(1729.901632 3.235046986 0.4208345002)
(1731.417889 0.9095895953 -0.1479583182)
(1733.985601 0.6750676813 0.7404119925)
(1734.09245 2.325988998 1.326894892)
(1733.925753 0.973436849 -0.4833245899)
(1736.545554 -1.935122708 -1.880856426)
(1738.66737 -1.86182867 -3.783463817)
(1737.68767 -3.931477336 -5.502437981)
(1740.241144 1.224922458 -2.000623422)
(1742.345065 2.263200396 -1.885475546)
(1739.852224 5.534738054 0.3186196513)
(1740.022903 4.913303573 2.386855766)
(1740.286888 2.474404245 -0.7116530322)
(1740.009478 -0.06615938027 -2.89455753)
(1742.690039 -1.839540328 -1.779989529)
(1743.333607 1.263837124 -1.100444725)
(1740.752568 3.491916288 -2.984622068)
(1706.944686 4.5594415 1.462150972)
(1746.31935 2.966987551 2.666047517)
(1740.149106 3.132504221 4.338181545)
(1739.449652 0.5756037375 1.388019481)
(1736.572447 1.853458937 -0.8258824241)
(1732.681569 1.029387724 -2.665466621)
(1734.583506 -2.663228465 -2.269553957)
(1734.007465 -3.774925227 -3.555415345)
(1734.078912 -0.943362077 -2.525550392)
(1734.950885 2.393436843 -0.2824824191)
(1737.347203 2.948933377 -1.579098249)
(1738.075451 0.9273490238 -1.871408979)
(1736.339385 -0.6646400591 -3.647939004)
(1739.56144 -1.181000058 -2.799501085)
(1739.579977 1.649911558 -3.261059723)
(1739.472461 3.971195549 0.6574769487)
(1738.674587 3.89304277 1.606832343)
(1734.617007 6.491625138 0.6637481022)
(1734.335141 3.061311873 3.274784224)
(1735.20433 2.317178472 3.667753268)
(1707.378205 2.854322355 -4.429681842)
(1742.933237 3.22285211 -5.364754694)
(1739.028932 0.8295143676 -2.417593697)
(1736.128745 -1.903617608 -1.402943451)
(1740.706372 -3.011546369 2.48743416)
(1742.236109 -3.364176539 2.413717113)
(1742.047762 1.77788111 1.496954893)
(1741.976318 4.601020798 1.745345411)
(1741.900601 5.143592137 0.8706394088)
(1739.096352 1.753134045 0.1717369635)
(1738.968953 3.823918598 -1.350209257)
(1737.631657 5.356964382 0.0363498131)
(1733.978087 5.163716594 0.7511040983)
(1736.559742 2.792233593 1.855199539)
(1736.332991 2.177461061 1.325428739)
(1738.399641 1.750249754 -0.1708860961)
(1737.302038 1.983407825 -1.026685129)
(1737.64503 0.2525682202 -0.293764231)
(1739.509554 1.166783871 0.5679885815)
(1739.5086 -2.111334218 -2.109944778)
(1710.068389 1.401003844 0.3037120464)
(1747.523849 -0.1341297891 2.299178611)
(1737.308356 0.6132147123 -0.5731776882)
(1739.059982 1.002199588 -0.6723350753)
(1740.656356 1.092881892 0.2664755975)
(1740.985239 2.40940341 2.58149477)
(1741.162682 -1.613951071 1.16345401)
(1741.783728 -0.7563720416 -0.1156044222)
(1741.704482 -1.707858753 -0.2937112766)
(1742.082047 1.832258467 0.02281391143)
(1741.62765 -0.9510859798 0.8104390738)
(1743.136235 -0.1610847907 1.499544965)
(1742.981184 2.975946374 -1.721744055)
(1739.850895 5.659531137 -0.3653193604)
(1738.622968 5.190519033 -0.9985646232)
(1738.846639 1.557178234 -0.8026584983)
(1739.809928 2.011260751 0.5922256585)
(1736.363287 -0.7130716048 -0.9743722171)
(1735.538189 -2.261055287 -1.720893853)
(1736.008274 -1.716903037 -0.3247172675)
(1714.878375 -3.834027547 -2.617921699)
(1749.889341 -1.707954184 -2.486306747)
(1740.206475 0.05337619575 -2.904665677)
(1736.107346 2.395603062 -3.46146723)
(1738.042842 2.554766642 -4.141134539)
(1735.195061 3.978482795 -4.580504906)
(1734.820134 5.198585626 -2.779076491)
(1736.26287 3.92014236 1.514548547)
(1735.652569 -0.04483219988 0.8813559692)
(1736.866434 -0.6733328388 0.6361083292)
(1739.530544 4.390463546 0.3808402762)
(1739.713332 0.3585223909 1.431756251)
(1740.71058 -0.2926335764 3.634082066)
(1739.087616 -2.033804208 2.816832879)
(1736.843889 -1.523245426 0.868768122)
(1735.761889 -1.925300065 1.55429951)
(1735.059309 -0.7652827609 1.971053198)
(1735.883347 -1.755605571 1.986416586)
(1736.529982 -1.8261188 1.930508029)
(1735.355633 0.03438986893 2.501785309)
(1709.866452 0.505723576 1.150469176)
(1747.384862 1.091274277 1.288544818)
(1739.658676 1.081734646 1.882245259)
(1740.479034 4.342854122 4.471066376)
(1739.483002 4.019753571 4.669015725)
(1740.365803 2.657806515 3.327564762)
(1740.225674 4.221081738 2.997422677)
(1738.911127 2.228915456 -0.9978063841)
(1737.59964 6.905893522 1.946158867)
(1737.029193 0.09602447899 2.098782017)
(1734.930292 -3.97625388 3.54567383)
(1734.97058 -3.71354364 0.6929947249)
(1734.338979 -3.373182753 0.306099041)
(1736.81138 -2.889355544 -0.8024344904)
(1737.583838 -4.32383238 1.093285582)
(1735.958369 -2.345465908 -0.4324067656)
(1736.550253 -1.437454711 -1.204475951)
(1737.149386 0.2026526212 -2.643466293)
(1734.311463 0.07703617204 -1.564577771)
(1737.920522 0.2659645144 -1.883011419)
(1708.703643 1.75441684 0.1278058749)
(1746.602415 3.194750499 1.378076822)
(1736.039313 2.539659718 2.297888869)
(1735.862577 0.6063944478 -0.9909941609)
(1735.703746 -1.435252368 -2.143482237)
(1734.232148 -1.226408561 -1.76010869)
(1734.18659 -1.392609064 1.299768086)
(1735.908946 -3.202540561 1.455545843)
(1736.755648 -1.273110747 0.7538995658)
(1733.8544 0.3889402642 -0.2672966992)
(1737.10163 4.572268666 0.9146788964)
(1734.995123 4.006618385 0.9408554723)
(1734.460508 1.639548693 -1.010960769)
(1735.971684 0.08507075661 -1.708997871)
(1733.843358 1.830301577 -1.779188604)
(1734.209657 1.09387442 -1.299201411)
(1731.909985 -1.548475288 -0.260469388)
(1730.95989 -3.646523353 2.584832902)
(1731.784805 -3.078164256 2.639754539)
(1734.673005 -3.003374175 1.397673258)
(1708.370992 1.699385091 1.675860875)
(1742.093508 -2.105480392 -0.8587796595)
(1733.545963 -3.723966926 -2.577944729)
(1733.071843 -2.33534388 -1.999604708)
(1731.576836 -3.356359431 1.366950557)
(1734.098637 -0.7269312151 -0.4672892825)
(1733.519649 0.339708647 -3.944577558)
(1734.145679 2.63308444 -3.091260231)
(1733.865189 0.4996175194 -4.481610238)
(1735.607378 0.1569882585 -4.051561899)
(1735.162822 -0.2401593474 -4.345520635)
(1735.011022 -2.068411426 -5.576696492)
(1735.050919 -0.623502369 -3.000891988)
(1733.97945 0.1396866424 -1.291625502)
(1734.197708 -1.527718626 -1.482213694)
(1731.650629 -1.44581344 -1.840013233)
(1734.993181 0.3958119868 -2.72918898)
(1735.712504 3.211741211 -3.938781451)
(1732.59016 0.4059769791 -4.86592066)
(1732.092649 1.508565917 -2.681932038)
(1705.461539 -0.9681719792 -0.9690468415)
(1743.769957 -1.518838505 -1.212566925)
(1734.571591 -4.485249845 -0.2491089673)
(1734.393254 -4.42850112 -2.466383175)
(1734.758974 -0.6855053796 -2.353765845)
(1734.048236 -0.1593867106 -1.493322963)
(1733.915225 -0.6022096985 -0.8038431836)
(1734.324254 -3.734746103 -0.00773238319)
(1733.510484 -1.84905831 2.196678691)
(1731.367965 -1.315898392 0.7165083094)
(1729.305699 -0.3763618959 0.02190683847)
(1729.957929 1.282460255 2.992612762)
(1730.040336 1.402045383 3.97111346)
(1731.159411 -0.5050984643 3.707887474)
(1732.499839 -1.163817975 2.227955216)
(1732.554151 0.7385910988 3.151796307)
(1730.816903 -2.085917504 3.69376794)
(1731.003592 -1.344153576 1.007364982)
(1733.017084 1.098851148 0.7339402196)
(1735.35215 0.4018162582 -0.8600863605)
(1709.341622 0.5029220244 1.009760869)
(1743.671827 0.5495568988 1.760406712)
(1734.184304 1.750969215 0.8507335534)
(1737.125047 0.2505553442 4.382382155)
(1737.911653 -1.601623665 5.277403678)
(1735.980511 -2.369989729 5.605303147)
(1736.784188 -2.015519219 5.15059359)
(1733.535452 -1.295297239 1.45770632)
(1735.477285 -2.096662079 0.9280225174)
(1736.249328 -3.374272623 0.6719111227)
(1735.535908 -2.17783858 0.5752853297)
(1735.933755 -0.4434226429 -1.668690562)
(1735.030452 -0.3553942648 -4.330924421)
(1733.674042 3.367908061 -4.218022435)
(1733.315315 1.030467994 -2.272214455)
(1735.499977 2.19538208 -3.119121401)
(1736.063028 3.582387814 -4.150869752)
(1735.623794 6.166452024 -0.4249186207)
(1735.877103 5.042423553 -1.525761931)
(1737.371534 2.475480243 -1.603021581)
(1706.941414 0.2184217114 -0.396046343)
(1744.447511 -0.08508398949 -0.7781939101)
(1739.45342 2.351395679 0.7498418556)
(1736.898766 1.248378792 0.9353524785)
(1736.111153 1.377821544 -2.840242143)
(1733.120605 0.2229583725 -3.044248954)
(1732.961679 0.1929440863 -0.7027631686)
(1736.794726 -1.054181205 -0.202387089)
(1736.632689 0.1495744595 -0.0370263354)
(1733.556264 1.242493783 0.7191577263)
(1735.318877 -0.7094876255 1.392659262)
(1735.942962 -1.737970857 2.115860418)
(1735.130382 -2.109869949 2.733907417)
(1737.158388 -1.653890866 -0.8674603298)
(1738.454095 2.574033786 -1.541822385)
(1736.072698 3.668055225 -0.2739575883)
(1737.07884 1.736088849 -0.8890905966)
(1737.077575 -1.638825816 -3.233136588)
(1739.455517 -0.2327178015 -1.217844037)
(1738.665857 -0.9030927245 -0.3981493786)
(1710.273557 1.842580865 0.4491427605)
(1747.761584 3.51926994 0.4702061305)
(1738.540604 -0.2669575859 -2.286739967)
(1737.261164 2.136125832 -3.061542215)
(1740.038425 0.6279443862 -1.498938567)
(1738.980829 -1.356675385 -3.365359836)
(1739.915106 -1.815408178 -3.586337934)
(1740.635701 -0.7112469899 -5.151086565)
(1741.298285 -3.044259332 -3.318897126)
(1741.274395 -0.6008422621 -4.229574053)
(1741.035714 -0.6539045185 -7.433707652)
(1738.75536 -0.006656800204 -4.712083533)
(1741.2001 -0.5333627255 -1.453729061)
(1740.402413 -0.3950705625 2.192991355)
(1738.887513 -3.490607045 1.968000342)
(1738.350821 -5.114822712 2.050675403)
(1735.27406 -3.60827396 3.264074554)
(1733.760109 -0.8335962121 3.860232538)
(1731.037206 -1.67972447 2.817002445)
(1728.471089 0.3364268907 3.117103211)
(1713.885349 1.76817081 -4.280317796)
(1747.361985 -1.727506683 -5.644975305)
(1736.226079 0.2826165006 -4.849359897)
(1736.820121 2.206362043 -5.529986006)
(1736.460107 1.299049926 -5.002016027)
(1738.014822 1.242117487 -3.574196343)
(1737.070294 0.5721561288 -2.595537598)
(1737.041033 0.8453233386 -1.898514387)
(1735.828311 2.497841884 -0.7833203597)
(1736.526001 -2.488613245 0.923311975)
(1735.153181 -0.07956497058 2.034308703)
(1736.309035 -2.705128073 2.612512185)
(1738.188258 -1.996736197 -1.324374401)
(1737.493807 -1.773717589 -3.549146591)
(1736.467154 -1.331851739 -3.135794149)
(1735.478698 0.5858773631 -2.777834233)
(1737.119731 0.8460028353 -1.660329289)
(1736.509829 0.1987132806 -1.049117355)
(1738.005405 4.153516175 -0.3824758792)
(1735.650276 4.809839864 -0.4064126514)
(1706.386243 0.8495020216 -2.987714267)
(1746.754807 0.245593622 -1.55872911)
(1735.88872 -0.2240436482 -0.07586279378)
(1734.009949 -1.227564927 -0.5636659177)
(1734.484996 -1.300655439 0.9427625271)
(1730.537129 2.795477076 1.613706105)
(1731.892084 2.606471808 1.075854709)
(1730.37777 3.852508749 0.3635442398)
(1732.411356 1.963101275 -3.480900022)
(1734.239264 2.108421507 -2.77869258)
(1733.900611 0.3023953329 -4.406657189)
(1732.503082 -0.4312136152 -5.652838393)
(1732.139791 1.47798913 -4.880030713)
(1729.619895 2.267615283 -2.647831285)
(1730.721819 5.095510785 -1.694376287)
(1731.597738 3.061308921 -2.665649545)
(1732.698518 0.4890131804 -2.806074095)
(1734.288825 0.5964599323 -4.488432329)
(1736.710696 -2.865387686 -2.749315687)
(1735.381857 -2.999196541 -3.104372794)
(1704.378807 -0.534877223 -2.144169736)
(1739.247491 -0.8830328555 -1.430924943)
(1730.743512 -0.7645131854 -2.377332994)
(1732.941096 1.027203237 -0.07506895853)
(1732.84382 2.349375861 -0.5188429143)
(1731.292111 3.081126279 -0.9707477272)
(1732.249142 -0.5833828797 1.420870637)
(1729.997931 -0.626157021 2.119751794)
(1730.514345 0.6947827926 1.936296407)
(1728.361619 3.925443648 2.456026665)
(1728.036094 5.073509459 2.248672708)
(1728.49987 5.124468133 3.008776875)
(1728.910699 1.655652536 4.548630608)
(1730.981001 -0.8531750419 4.93453383)
(1731.439183 -4.739118664 0.754795596)
(1731.38549 -2.32943023 -1.611451927)
(1733.330084 -2.621370567 0.09004188811)
(1731.575101 -3.29574318 -0.2067554137)
(1732.588541 -3.49433925 -2.161394834)
(1735.274262 -2.175143443 -1.662631381)
(1706.76507 3.123374148 -2.033435666)
(1744.14267 4.580972889 -2.337635473)
(1737.811183 5.731889109 -1.198674341)
(1735.749005 5.254906767 -1.041054168)
(1734.640957 3.203046363 -1.799631252)
(1737.354334 1.265830056 -2.946336084)
(1734.215622 3.597859595 -2.169781493)
(1735.603893 6.06673304 -1.658462512)
(1738.780972 4.271898783 -1.253873796)
(1735.61731 0.8354926811 -0.8119963791)
(1739.303831 -0.2313158106 -0.05834397934)
(1736.397319 -1.016875199 -0.3404042261)
(1736.576215 0.9112400872 -4.43858441)
(1733.248536 1.408533651 -2.406332783)
(1733.46542 0.6412207967 -1.82204483)
(1736.426078 -2.199523388 -0.2554358003)
(1737.323968 -2.228241963 0.4170808853)
(1736.122726 -1.203989749 -0.6859949349)
(1736.092452 1.752424326 -2.390364238)
(1735.274233 0.2560111476 -1.387648012)
(1705.007207 0.6079002938 -2.571474943)
(1745.364962 1.059789383 -2.867023609)
(1737.638362 -0.6970037565 -4.591532711)
(1738.993855 -0.2727111063 -3.389911083)
(1740.588769 1.749419989 -2.028016506)
(1740.744127 2.258123793 -1.950504095)
(1739.874535 2.927175431 -3.317497454)
(1741.896783 1.035370435 -4.498137313)
(1737.275448 3.076782679 -2.681407379)
(1737.206119 2.953612549 -2.403136285)
(1735.452166 1.06745095 -3.547607156)
(1736.444729 0.8324697441 -3.446377277)
(1735.982711 1.705648646 -4.612259672)
(1736.46096 2.944796542 -4.211068765)
(1738.588363 3.441795427 -5.577985227)
(1735.709995 4.032940647 -5.797922709)
(1737.704649 4.060690031 -7.167709981)
(1736.37038 2.776965407 -1.940595807)
(1736.496992 0.7541056149 -4.22735697)
(1738.99728 2.022471977 -4.138533039)
(1711.608774 4.630146836 -0.6651938993)
(1747.423951 1.687313383 -1.739655036)
(1737.325142 4.096845021 0.5779204331)
(1736.341266 4.182850574 0.269997347)
(1736.809351 4.963021014 -1.353522417)
(1737.100113 5.958529575 -0.1887075705)
(1734.356559 5.332860656 -2.057114389)
(1733.73425 5.057999634 -0.8066940039)
(1732.573609 3.542408587 -2.178533656)
(1734.24211 6.397462042 -3.876537712)
(1733.271974 10.77849561 -3.969401246)
(1734.416515 13.68360198 -0.9108199386)
(1736.361286 9.455766056 0.1866780669)
(1737.943467 9.765483776 1.113667038)
(1735.940231 11.26001347 1.08974322)
(1736.887318 11.43841117 2.739370624)
(1735.474521 8.113944321 1.479833642)
(1734.221484 7.489854628 -0.0379625603)
(1737.376922 5.059284487 1.4074624)
(1739.266727 5.840985947 2.462582372)
(1736.794275 9.171298782 -3.371649636)
(1733.613141 6.308161027 -3.646115581)
(1735.853079 5.069602911 -1.252729901)
(1733.419671 2.968183166 -1.298981354)
(1731.792241 5.458441063 -2.449134939)
(1730.733867 9.390863251 -3.766409513)
(1739.072783 2.018523113 -1.818828578)
(1739.821207 4.683140041 -0.7291764327)
(1741.147173 3.370925535 0.1060345871)
(1737.874913 3.234169204 1.15801273)
(1734.910497 1.255569531 1.387604197)
(1735.242452 1.249604037 4.454597174)
(1735.107542 1.647382087 3.010623782)
(1733.930582 8.478368088 1.908655185)
(1734.676041 6.708124648 0.6664689555)
(1733.444072 9.13671035 0.2776199595)
(1736.21067 1.039876981 4.665700944)
(1734.911783 1.752048318 3.544812319)
(1732.737624 2.156863103 6.424701978)
(1733.300483 0.4611382316 5.850375771)
(1733.885319 2.993778756 3.021494323)
(1733.411231 5.05642011 2.181498022)
(1737.049245 4.33833435 0.6940708697)
(1735.760135 3.602920613 3.105766162)
(1735.987023 4.075057988 3.050914018)
(1730.965471 5.107748041 1.247408688)
(1738.164383 -0.2364537351 -2.608756461)
(1736.663249 -2.161861972 -4.214327922)
(1736.42372 -2.010580716 -4.874144223)
(1739.020506 -3.398180556 -5.202853093)
(1738.709794 -5.864245775 -3.687206032)
(1738.360861 -3.248287809 -2.717882826)
(1738.55686 0.5344238982 -2.633038606)
(1737.123077 0.0138058914 -5.167661624)
(1736.441643 1.037902643 -3.012844359)
(1735.213705 -0.372389578 0.1132449587)
(1737.014488 -2.51548272 -3.535777267)
(1738.478266 0.4327002599 -3.453398039)
(1738.072399 1.564090565 -2.377506914)
(1737.399109 2.198782605 -3.328476728)
(1736.310185 2.606041322 0.7857034208)
(1732.638184 1.765909865 0.1061929417)
(1731.826463 -4.398425865 2.908491076)
(1731.873571 -6.927195234 2.48164425)
(1731.28071 -4.851040439 1.054333222)
(1728.685669 -3.228440767 -1.755038488)
(1732.670921 -0.7437997 6.737450409)
(1732.818919 0.428275917 3.414896493)
(1733.768591 -1.226230257 3.587257394)
(1735.42878 -3.2069162 3.035582763)
(1737.536516 -2.170251263 0.01335504742)
(1735.974443 -2.904707194 2.242899112)
(1733.735397 -0.363764074 1.959015954)
(1734.131317 2.005515175 1.056506045)
(1733.363114 -1.596549844 0.9916667878)
(1734.660407 2.199614378 0.1117870981)
(1739.432362 -0.1278874229 -3.378259283)
(1739.070091 -0.7651711883 -1.71659311)
(1738.216769 -0.4927387251 -1.748081645)
(1734.60496 -0.8958942187 0.210222522)
(1732.680794 -3.297741294 -0.8135133109)
(1732.742887 -1.082439831 -1.445689141)
(1734.835575 -0.2803292565 -2.968925879)
(1736.143146 -0.9940607764 -3.432854469)
(1737.830745 -0.5695884611 -3.217706384)
(1734.123526 -0.1678425901 -3.828303742)
(1729.733841 -1.509152856 1.25761083)
(1728.516995 -2.571353124 -0.4613959435)
(1727.709985 -4.008259921 -2.547443521)
(1730.087633 -1.447669405 -4.973155343)
(1730.75889 -0.6875103021 -7.053870789)
(1732.395724 -2.31291089 -5.534422822)
(1733.49569 -2.81148554 -3.065423224)
(1732.500505 -2.864756504 -2.969550783)
(1732.736242 0.8335111376 -1.646232079)
(1735.111799 0.4441895946 -0.3162370135)
(1732.757195 1.128388168 0.0416190273)
(1732.06661 1.624508778 -1.238766856)
(1734.336499 1.658039167 2.637047909)
(1733.205162 -0.1330999284 4.521346968)
(1734.168996 0.8264192615 3.452288416)
(1734.320972 3.855643713 2.284211883)
(1734.788833 4.147472501 -0.3275324741)
(1734.192542 4.939906583 -0.8812884105)
(1735.003181 -0.834698143 -2.953146608)
(1732.283103 -4.793674024 -4.907092453)
(1735.213389 1.381913073 -2.826056309)
(1732.296444 2.867380446 -3.064541899)
(1738.270975 4.19179959 -4.730419314)
(1735.620979 5.645942264 -4.492233519)
(1732.714451 2.746924258 -2.956687453)
(1733.314201 0.7278661991 -4.647423941)
(1728.162568 -2.048187845 -3.106568354)
(1727.985693 -2.57271956 -2.112424294)
(1728.143886 0.7230790095 -0.5706463574)
(1729.636079 2.320513264 -1.124322974)
(1739.08282 1.165603007 -2.057581196)
(1738.316502 0.8020802798 -2.444522634)
(1734.060641 0.4309716251 -2.8190345)
(1732.064251 -1.062289162 -1.448324719)
(1730.8138 1.806110405 -2.942245279)
(1733.318555 0.3975356736 -2.415519968)
(1733.269122 2.419636965 -0.7449291753)
(1735.779308 2.99131479 -0.9821918479)
(1734.766069 5.732588502 0.4279823758)
(1734.655241 5.215927275 4.197339852)
(1736.660911 0.9035937712 -0.2233468718)
(1736.590968 -0.4220412884 0.5643706368)
(1738.388873 -1.107261012 1.361343661)
(1740.116889 1.57505027 2.420457745)
(1740.408433 2.722810497 3.137821569)
(1739.257703 4.488756765 3.289920869)
(1738.950343 5.166184796 1.112013206)
(1737.991536 7.384281748 2.626118246)
(1736.990151 7.294474469 0.5741714574)
(1737.514037 8.735942666 -2.821916398)
(1732.865429 1.754222628 3.294592704)
(1732.720889 4.441607018 2.410958909)
(1731.863528 5.139161066 1.867990711)
(1731.749352 3.406714746 1.511039775)
(1732.163733 2.466735918 2.817846921)
(1733.712603 1.513770302 2.714502366)
(1735.959944 -0.2549584234 2.431470169)
(1736.010245 -1.968458499 -0.3567081999)
(1736.007838 -4.265546115 -2.848636353)
(1735.704523 -1.654554824 -3.228011725)
(1733.586467 4.031266432 -1.583678192)
(1732.199167 1.769700611 -0.3517776858)
(1733.956669 0.4559499643 -0.2336530573)
(1731.69014 3.159487813 -0.9172643049)
(1734.200279 -0.8370714579 -1.848011837)
(1732.459439 -0.5337919844 -2.775909364)
(1731.620716 -0.5199264999 -4.004358811)
(1733.427381 -2.69150816 -2.754425786)
(1734.496954 -2.862137608 0.1680144206)
(1734.916933 -7.495401628 2.145349819)
(1737.752688 -3.738745703 -2.15596105)
(1735.729308 -1.869068408 -2.624037548)
(1735.454232 -2.88484867 -2.827757156)
(1733.704387 -0.8637991987 -3.060009954)
(1732.717511 2.518768496 -2.308852323)
(1733.82347 1.22589384 -2.024532314)
(1733.366901 2.242017551 -0.9347316146)
(1733.355911 2.313926944 0.2333177628)
(1736.870581 6.841762234 1.079107286)
(1736.666644 7.474729011 -0.6865191443)
(1737.030392 -1.122704008 -0.8627589151)
(1736.206912 0.09616013941 -1.762195474)
(1735.590604 -0.3377482093 0.272742268)
(1737.338182 -2.212201736 -0.648830955)
(1739.12222 -0.00284622206 0.05136717177)
(1738.920272 1.11550571 0.3394885392)
(1737.920977 5.678381987 -1.535375898)
(1738.111663 8.129719043 -3.080223723)
(1732.761142 6.608873059 -3.654291319)
(1733.671172 4.387271715 -2.621004918)
(1733.486975 -0.823711951 -4.461133098)
(1733.44092 -1.384774788 -2.043328816)
(1735.173094 1.07145496 -4.504822439)
(1734.911119 0.248180763 -4.665884046)
(1736.437465 3.00891268 -5.401962116)
(1734.385376 3.422247172 -1.777232464)
(1733.344493 2.331577505 -3.490623456)
(1732.424606 -2.015072681 -3.321290425)
(1733.49632 -5.388973055 -4.529759503)
(1731.845529 -1.322096082 -3.870517797)
(1735.541596 3.215170365 -3.844990601)
(1733.693261 0.8088352452 -5.881058809)
(1735.58857 -2.503342738 -5.045515548)
(1734.839286 -1.369079249 -3.006858007)
(1734.457259 -2.658256111 -4.472884664)
(1733.549679 -4.042166284 -7.54976162)
(1736.182521 -2.967937539 -4.933830274)
(1736.223141 -4.415649357 -4.232219021)
(1735.982586 -1.843620452 -2.322365133)
(1737.150608 -2.191984845 -1.980863099)
(1737.680921 4.838139566 2.975564636)
(1740.019885 6.916263801 0.3151241697)
(1741.393937 6.518374729 1.507740121)
(1742.415443 5.78854965 3.071677959)
(1742.967014 2.473998919 0.531210956)
(1742.422549 3.492798668 4.421764425)
(1743.068117 2.799754909 6.023322457)
(1742.966826 4.731407076 3.874436239)
(1741.793749 6.50412707 3.367937699)
(1743.635107 5.139348053 4.046512128)
)
;

boundaryField
{
    flow
    {
        type            calculated;
        value           nonuniform List<vector> 
48
(
(1709.466265 -3.119196987 1.090587333)
(1706.944686 4.5594415 1.462150972)
(1707.378205 2.854322355 -4.429681842)
(1710.068389 1.401003844 0.3037120464)
(1714.878375 -3.834027547 -2.617921699)
(1709.866452 0.505723576 1.150469176)
(1708.703643 1.75441684 0.1278058749)
(1708.370992 1.699385091 1.675860875)
(1705.461539 -0.9681719792 -0.9690468415)
(1709.341622 0.5029220244 1.009760869)
(1706.941414 0.2184217114 -0.396046343)
(1710.273557 1.842580865 0.4491427605)
(1713.885349 1.76817081 -4.280317796)
(1706.386243 0.8495020216 -2.987714267)
(1704.378807 -0.534877223 -2.144169736)
(1706.76507 3.123374148 -2.033435666)
(1705.007207 0.6079002938 -2.571474943)
(1711.608774 4.630146836 -0.6651938993)
(1711.608774 4.630146836 -0.6651938993)
(1747.423951 1.687313383 -1.739655036)
(1737.325142 4.096845021 0.5779204331)
(1736.341266 4.182850574 0.269997347)
(1736.809351 4.963021014 -1.353522417)
(1737.100113 5.958529575 -0.1887075705)
(1734.356559 5.332860656 -2.057114389)
(1733.73425 5.057999634 -0.8066940039)
(1732.573609 3.542408587 -2.178533656)
(1734.24211 6.397462042 -3.876537712)
(1733.271974 10.77849561 -3.969401246)
(1734.416515 13.68360198 -0.9108199386)
(1736.361286 9.455766056 0.1866780669)
(1737.943467 9.765483776 1.113667038)
(1735.940231 11.26001347 1.08974322)
(1736.887318 11.43841117 2.739370624)
(1735.474521 8.113944321 1.479833642)
(1734.221484 7.489854628 -0.0379625603)
(1737.376922 5.059284487 1.4074624)
(1739.266727 5.840985947 2.462582372)
(1737.680921 4.838139566 2.975564636)
(1740.019885 6.916263801 0.3151241697)
(1741.393937 6.518374729 1.507740121)
(1742.415443 5.78854965 3.071677959)
(1742.967014 2.473998919 0.531210956)
(1742.422549 3.492798668 4.421764425)
(1743.068117 2.799754909 6.023322457)
(1742.966826 4.731407076 3.874436239)
(1741.793749 6.50412707 3.367937699)
(1743.635107 5.139348053 4.046512128)
)
;
    }
    obstacle
    {
        type            calculated;
        value           nonuniform List<vector> 0();
    }
    frontAndBack
    {
        type            empty;
    }
    procBoundary2to0
    {
        type            processor;
        value           nonuniform List<vector> 
31
(
(1709.211308 2.825183813 2.690044534)
(1748.948848 1.388765842 1.146754853)
(1739.609973 -5.701822553 -0.8436922094)
(1742.161607 -2.555147164 0.2958675447)
(1740.521796 -1.52292863 0.9496233809)
(1740.62261 0.1518956028 1.12541868)
(1735.498635 0.4828842263 0.583681846)
(1738.563985 1.09439855 2.984275891)
(1734.832154 1.486443253 4.19243639)
(1732.516215 2.065365206 1.839538271)
(1732.584203 3.46457187 5.568720391)
(1730.51833 -0.4974291624 2.363303271)
(1731.686695 -1.161960256 1.153242712)
(1730.882295 -2.603422437 -1.595234239)
(1731.424082 -4.697505479 -4.666212318)
(1735.145054 -2.964032878 -4.013132159)
(1731.908897 -0.2306163674 -2.357034142)
(1731.686917 3.402744585 -4.321393702)
(1732.991839 3.471593206 -3.365623436)
(1733.977919 7.16147134 -2.856256321)
(1734.092444 4.404261579 2.01982445)
(1732.635204 5.996081295 1.575767579)
(1730.053327 6.437025746 1.651984453)
(1726.02186 9.975285346 -2.387675053)
(1725.128729 14.10001658 2.45664631)
(1725.046265 12.49735135 7.852517785)
(1736.051465 4.646518416 -1.757257064)
(1736.024056 5.573959718 -1.043368064)
(1731.645594 6.476237928 -2.636248787)
(1734.468047 7.17553745 -4.180407081)
(1734.468047 7.17553745 -4.180407081)
)
;
    }
    procBoundary2to3
    {
        type            processor;
        value           nonuniform List<vector> 
19
(
(1730.086977 10.37110363 -3.235332348)
(1730.14189 10.38249861 1.949210257)
(1731.870077 8.950108604 1.894281483)
(1735.711268 3.241496812 -1.973770693)
(1725.738257 -3.670207267 -1.698188899)
(1736.124543 2.296666323 1.895009259)
(1734.886331 0.2842965386 -4.186138477)
(1732.676714 -2.162823317 1.290728095)
(1732.391298 -0.9027071025 -3.430607045)
(1728.837273 4.822983474 -2.241135695)
(1736.886614 4.018146245 5.457786652)
(1734.551574 6.462885207 -6.836729946)
(1735.521701 -1.047074319 -2.979351461)
(1732.59173 -3.720099035 2.512431958)
(1737.821177 2.953948818 -2.691108498)
(1733.854884 5.150072038 -1.44713617)
(1732.148111 1.817091468 -3.016627478)
(1737.705201 -0.2923807882 -0.7505903018)
(1738.624798 3.945334575 2.306868778)
)
;
    }
}


// ************************************************************************* //
