/*--------------------------------*- C++ -*----------------------------------*\
| =========                 |                                                 |
| \\      /  F ield         | OpenFOAM: The Open Source CFD Toolbox           |
|  \\    /   O peration     | Version:  2406                                  |
|   \\  /    A nd           | Website:  www.openfoam.com                      |
|    \\/     M anipulation  |                                                 |
\*---------------------------------------------------------------------------*/
FoamFile
{
    version     2.0;
    format      ascii;
    arch        "LSB;label=32;scalar=64";
    class       Cloud<dsmcParcel>;
    location    "0.007/lagrangian/dsmc";
    object      coordinates;
}
// * * * * * * * * * * * * * * * * * * * * * * * * * * * * * * * * * * * * * //

6882
(
(0.7041184371 0.1479407814 0.1219865534 0.025954228) 489 952 2
(0.3709478852 0.06588105382 0.2486450036 0.3145260574) 476 929 1
(0.714286913 0.1428565435 0.133779868 0.009076675516) 479 2619 2
(0.1475818639 0.4262090681 0.07379594922 0.3524131188) 534 1039 2
(0.1120680762 0.2013904933 0.2425754686 0.4439659619) 456 891 1
(0.2395219184 0.3802390408 0.1373657538 0.242873287) 456 891 2
(0.1533364934 0.4233317533 0.3751560591 0.04817569419) 501 976 2
(0.3485261888 0.0948516752 0.2308852304 0.3257369056) 498 971 1
(0.03797043678 0.06051899589 0.4204957857 0.4810147816) 449 2616 1
(0.2089249217 0.3955375392 0.3370846254 0.05845291378) 479 933 2
(0.951701413 0.01199368832 0.01215560519 0.02414929351) 477 913 2
(0.6404572966 0.1797713517 0.06760790662 0.1121634451) 449 878 1
(0.6612922505 0.01141289491 0.1579409798 0.1693538747) 456 891 1
(0.1058832699 0.4320663904 0.4470583651 0.01499197467) 482 938 1
(0.08072619219 0.4596369039 0.3216637504 0.1379731535) 558 1067 1
(0.1991417206 0.4004291397 0.1679546591 0.2324744806) 448 874 2
(0.3282565098 0.3358717451 0.05055526229 0.2853164828) 443 1301 2
(0.8799523553 0.05405516434 0.06002382237 0.005968658031) 448 877 2
(0.3578220249 0.3210889875 0.2356576599 0.08543132764) 577 1119 2
(0.3531028518 0.07692864698 0.2465199271 0.3234485741) 519 2623 1
(0.05702731616 0.1025076996 0.4714863419 0.3689786423) 444 869 2
(0.05811607308 0.1747628184 0.296179145 0.4709419635) 519 2623 1
(0.7298205342 0.1350897329 0.1308301224 0.004259610501) 489 952 2
(0.1645387447 0.1680857157 0.2496449119 0.4177306276) 488 934 2
(0.2811714552 0.3594142724 0.12822644 0.2311878323) 598 1159 2
(0.4408845266 0.07111380739 0.2795577367 0.2084439293) 488 950 1
(0.5448108491 0.05408704248 0.2275945755 0.173507533) 448 874 1
(0.5897038932 0.2051480534 0.1542221002 0.05092595319) 478 934 1
(0.2147854992 0.2940131303 0.3926072504 0.09859412014) 485 944 1
(0.05846523636 0.01354001796 0.4572273639 0.4707673818) 449 1307 1
(0.4003059765 0.008863373645 0.2998470118 0.2909836381) 447 872 1
(0.7417559089 0.1075944477 0.0215275978 0.1291220455) 544 1058 1
(0.5188308775 0.06360481102 0.2405845612 0.1769797502) 468 915 2
(0.1723189289 0.4138405355 0.1722500147 0.2415905208) 555 1080 1
(0.07525109091 0.4448447694 0.4623744545 0.0175296851) 469 916 2
(0.1687910213 0.4156044893 0.2004712408 0.2151332486) 508 988 2
(0.07082305042 0.4645884748 0.44669181 0.0178966648) 498 972 1
(0.03339046627 0.4569367096 0.02636805723 0.4833047669) 459 878 2
(0.1291790768 0.4354104616 0.2224624024 0.2129480592) 478 915 1
(0.1850438287 0.4074780857 0.1875340778 0.2199440078) 467 910 2
(0.003437067757 0.4982814661 0.3816338497 0.1166476164) 482 938 2
(0.1684139901 0.4157930049 0.06544578858 0.3503472164) 447 872 2
(0.326149625 0.3369251875 0.001570569332 0.3353546182) 449 1307 2
(0.134794948 0.2436270329 0.1889754931 0.432602526) 463 904 1
(0.1689614756 0.4155192622 0.205861604 0.2096576581) 448 876 2
(0.1518116597 0.4100506875 0.01404348261 0.4240941701) 456 891 1
(0.1529460633 0.4235269683 0.1255832868 0.2979436816) 548 1048 1
(0.4145370978 0.2804673972 0.0122640539 0.2927314511) 467 912 1
(0.6108914991 0.1945542504 0.1419055769 0.05264867349) 445 1303 2
(0.02974791072 0.4851260446 0.009085220055 0.4760408246) 495 947 1
(0.01879915643 0.3885023302 0.1020980916 0.4906004218) 448 876 1
(0.7416122287 0.06042709702 0.06876678862 0.1291938856) 445 870 1
(0.3901424537 0.1976732749 0.1072554982 0.3049287732) 467 912 1
(0.5111469461 0.2444265269 0.2424409173 0.001985609628) 458 896 1
(0.1206056518 0.005188551607 0.4345086225 0.4396971741) 508 990 1
(0.2817784095 0.3591107952 0.2218813214 0.1372294738) 482 922 1
(0.3683863392 0.05091027652 0.3158068304 0.2648965539) 449 876 1
(0.02635731008 0.486821345 0.3353719853 0.1514493597) 476 929 2
(0.4679643342 0.1119176894 0.2660178329 0.1541001435) 445 871 2
(0.10491887 0.1191922637 0.447540565 0.3283483013) 499 973 2
(0.2680110295 0.3659944853 0.3461597627 0.01983472254) 558 1086 1
(0.3438360483 0.05776602294 0.2703159529 0.3280819759) 517 1007 1
(0.04300316052 0.4050358274 0.4784984197 0.07346259235) 459 895 1
(0.3702227588 0.1392237761 0.3148886206 0.1756648445) 447 875 2
(0.6953940093 0.079512961 0.1523029954 0.07279003435) 458 893 1
(0.09202000101 0.4539899995 0.1356136407 0.3183763588) 459 895 2
(0.6744873785 0.1627563107 0.03466687819 0.1280894325) 446 873 1
(0.01307357793 0.05828322299 0.4351799881 0.493463211) 489 2620 1
(0.5412238284 0.05102806423 0.1783600216 0.2293880858) 448 1306 1
(0.6144366095 0.1927816952 0.0368725874 0.1559091078) 453 883 2
(0.5120038 0.03185486276 0.2121432372 0.2439981) 468 896 2
(0.06244002562 0.4687799872 0.02171087964 0.4470691076) 469 897 1
(0.2516559891 0.3741720054 0.008610675342 0.3655613301) 539 1047 2
(0.1858602833 0.1805726971 0.2264971613 0.4070698584) 459 878 2
(0.0265472536 0.1487580594 0.4867263732 0.3379683138) 528 1026 1
(0.1207807929 0.3664674532 0.4396096036 0.07314215036) 465 906 1
(0.06402704092 0.4679864795 0.1914276594 0.2765588201) 465 890 1
(0.1466942066 0.03435073283 0.3923021639 0.4266528967) 457 893 1
(0.0886155984 0.08766840838 0.4556922008 0.3680237924) 449 876 1
(0.04903304461 0.4754834777 0.08028846658 0.3951950111) 494 963 2
(0.2080893793 0.1304659705 0.3959553103 0.2654893398) 517 1008 2
(0.1258571579 0.4370714211 0.4298012767 0.007270144405) 447 874 2
(0.6408756374 0.005658089219 0.1795621813 0.1739040921) 469 916 2
(0.4862874784 0.2568562608 0.215083697 0.04177256384) 455 871 1
(0.1880885479 0.1291966869 0.2767590392 0.4059557261) 506 986 1
(0.5094181397 0.1555269291 0.2452909302 0.08976400107) 458 896 2
(0.6163662699 0.1826078214 0.009209043644 0.1918168651) 556 1081 1
(0.12642268 0.3853213396 0.05146732041 0.43678866) 445 870 1
(0.5503461898 0.02916130823 0.2248269051 0.1956655969) 447 872 1
(0.6129320137 0.123251545 0.1935339932 0.07028244811) 445 871 2
(0.1385891452 0.08095789268 0.3497475347 0.4307054274) 479 916 2
(0.1469356113 0.08819142202 0.4265321943 0.3383407723) 474 923 1
(0.2126514794 0.1651163766 0.3936742603 0.2285578837) 449 878 2
(0.464045516 0.267977242 0.01237784586 0.2555993961) 449 2616 2
(0.2004440896 0.2345967593 0.1651811959 0.3997779552) 499 954 2
(0.1182500584 0.4408749708 0.05482411081 0.38605086) 518 1010 1
(0.405053657 0.2974731715 0.1784306868 0.1190424847) 468 915 1
(0.06742712015 0.0003675299931 0.4659189099 0.4662864399) 445 1303 1
(0.09565867704 0.4521706615 0.4388120346 0.01335862693) 458 877 1
(0.1466473809 0.4266763095 0.2272507808 0.1994255287) 447 875 1
(0.1952689058 0.3969890795 0.4023655471 0.005376467583) 519 1011 2
(0.2114766563 0.3942616718 0.3720638995 0.02219777235) 519 2623 2
(0.07586161387 0.1635609186 0.2985082744 0.4620691931) 447 874 1
(0.6169184679 0.1915407661 0.0601247613 0.1314160048) 456 891 2
(0.6630070343 0.07260697641 0.09588950643 0.1684964828) 479 916 2
(0.08121349206 0.3518397115 0.459393254 0.1075535425) 458 896 2
(0.0319458558 0.4840270721 0.06830267276 0.4157243993) 447 875 1
(0.08567954827 0.4571602259 0.09067450488 0.366485721) 447 874 2
(0.230032215 0.3374420058 0.3849838925 0.04754188676) 445 868 1
(0.6471992542 0.1764003729 0.06116095996 0.1152394129) 469 897 1
(0.3010497543 0.2421430273 0.3494751228 0.1073320956) 447 875 2
(0.1254820555 0.02941821389 0.4372589723 0.4078407584) 447 875 2
(0.4706290528 0.2646854736 0.05055799444 0.2141274791) 517 1005 2
(0.4632340711 0.2683829644 0.2312195752 0.03716338926) 549 1066 2
(0.6640775518 0.1679612241 0.1384998598 0.02946136427) 458 893 2
(0.4842787774 0.1954550167 0.2578606113 0.06240559455) 476 927 1
(0.5848430354 0.2075784823 0.1132475659 0.09433091639) 455 889 2
(0.2532069618 0.02360958239 0.3733965191 0.3497869367) 496 968 2
(0.0488201733 0.2312664364 0.2443234769 0.4755899134) 19 39 1
(0.03212162919 0.4839391854 0.3464833038 0.1374558816) 605 1174 2
(0.5011595472 0.06559302261 0.1838272038 0.2494202264) 499 954 2
(0.4706638291 0.2646680854 0.1152396001 0.1494284854) 449 876 2
(0.423605518 0.2436400782 0.04455716284 0.288197241) 458 895 1
(0.03451011392 0.482118563 0.0006263800571 0.482744943) 447 1305 1
(0.4574745924 0.2712627038 0.1469845763 0.1242781275) 497 969 2
(0.2952948959 0.3523525521 0.2954239071 0.05692864493) 453 867 1
(0.01758158978 0.4912092051 0.09641515922 0.3947940459) 444 868 2
(0.1540239947 0.003037854539 0.4229880026 0.4199501481) 469 914 1
(0.4032983721 0.2983508139 0.2463417017 0.05200911218) 472 922 1
(0.7452658331 0.1273670834 0.06417135878 0.06319572464) 529 1011 1
(0.9765103535 0.004903006403 0.006841816842 0.01174482325) 457 875 2
(0.1999661416 0.01870022406 0.3813167052 0.4000169292) 446 1304 1
(0.3891530265 0.3054234868 0.1112877476 0.1941357392) 457 875 1
(0.3050375386 0.3474812307 0.1573143966 0.1901668341) 458 895 2
(0.06096976672 0.4110349515 0.05848016514 0.4695151166) 482 940 1
(0.1394992671 0.11176772 0.4302503664 0.3184826464) 441 863 2
(0.346625436 0.031575741 0.295111541 0.326687282) 469 2618 1
(0.4267468093 0.256600354 0.2866265954 0.0300262414) 79 156 1
(0.4450303527 0.2664527433 0.01103208035 0.2774848237) 446 872 1
(0.7630002945 0.1184998528 0.0122182462 0.1062816066) 443 864 2
(0.6105794121 0.1947102939 0.0677565281 0.1269537658) 445 871 1
(0.5750885229 0.1304531176 0.2124557386 0.08200262094) 488 953 2
(0.4279194969 0.2860402516 0.005916082054 0.2801241695) 466 892 1
(0.3621211635 0.3189394182 0.1747437385 0.1441956797) 448 876 2
(0.7769869277 0.1053882324 0.1115065362 0.006118303794) 454 888 2
(0.4460476957 0.2769761521 0.03773126538 0.2392448868) 468 896 1
(0.3047938848 0.3476030576 0.3282112585 0.01939179907) 478 915 1
(0.06997174646 0.4024694103 0.06254471644 0.4650141268) 456 873 2
(0.3764346906 0.3117826547 0.2723732688 0.03940938584) 532 1033 2
(0.8229417056 0.05662562704 0.08852914718 0.03190352014) 485 947 2
(0.2783127483 0.2689347676 0.0919088583 0.3608436259) 448 1306 1
(0.05917032547 0.2322593281 0.2381555092 0.4704148373) 448 876 1
(0.3803101569 0.3098449215 0.1746504425 0.135194479) 516 1006 1
(0.03492110516 0.03532807634 0.4825394474 0.4472113711) 448 877 2
(0.213226034 0.393386983 0.143056385 0.250330598) 447 1305 2
(0.005561056437 0.4972194718 0.06589131079 0.431328161) 454 887 2
(0.251372405 0.2795198636 0.3743137975 0.09479393388) 453 886 2
(0.3655877606 0.1135243806 0.3172061197 0.2036817391) 459 895 1
(0.02705724897 0.3247843412 0.1616870343 0.4864713755) 459 878 2
(0.3062800609 0.1253586873 0.2215012823 0.3468599696) 528 1010 2
(0.3693009548 0.3153495226 0.1474191736 0.167930349) 442 865 1
(0.08633763349 0.139500397 0.4568311833 0.3173307862) 467 910 1
(0.2529841093 0.3735079453 0.2870590162 0.08644892917) 491 955 2
(0.415697628 0.292151186 0.1706378418 0.1215133442) 493 961 2
(0.1820156196 0.1754729405 0.2335192497 0.4089921902) 639 1220 2
(0.480725159 0.2596374205 0.2024799885 0.05715743201) 469 897 1
(0.1851807027 0.4074096486 0.2297867197 0.177622929) 509 973 1
(0.0231648061 0.4884175969 0.3472017636 0.1412158333) 459 897 1
(0.1582487058 0.02354290948 0.4208756471 0.3973327376) 465 906 1
(0.6837087046 0.1581456477 0.06112086014 0.09702478759) 512 979 1
(0.2178145405 0.3910927297 0.2198196544 0.1712730753) 498 971 2
(0.4344450156 0.2827774922 0.2757572727 0.007020219481) 519 992 1
(0.472982139 0.2635089305 0.2043270872 0.05918184333) 444 869 1
(0.1770402232 0.4114798884 0.1802005728 0.2312793156) 471 920 1
(0.2122621619 0.3938689191 0.01211506254 0.3817538565) 497 951 1
(0.8487635315 0.07561823426 0.0664583588 0.009159875458) 447 1305 2
(0.1705226528 0.4147386736 0.1003189325 0.3144197411) 467 894 1
(0.641271134 0.001646006228 0.1777184268 0.179364433) 508 990 1
(0.402477805 0.2987610975 0.2000209203 0.09874017718) 489 954 1
(0.1183563109 0.3731312027 0.4408218445 0.06769064183) 467 913 2
(0.7938263346 0.1030868327 0.07657188674 0.02651494595) 446 872 2
(0.6506783501 0.03204799222 0.174660825 0.1426128327) 56 110 1
(0.009233794867 0.3582718766 0.137111226 0.4953831026) 444 868 1
(0.563816441 0.2180917795 0.2069250158 0.01116676368) 499 971 2
(0.07870873983 0.4606456301 0.4478447369 0.01280089314) 458 877 1
(0.5884095543 0.07036123325 0.1354339896 0.2057952229) 447 874 1
(0.4764128405 0.2617935797 0.119581127 0.1422124528) 487 951 1
(0.8365643532 0.08171782341 0.07942940248 0.002288420935) 599 2631 2
(0.6035640923 0.1839028172 0.01431513667 0.1982179539) 459 878 2
(0.4106382438 0.2946808781 0.1715951729 0.1230857052) 454 885 2
(0.6500641197 0.1749679401 0.1061485402 0.06881939996) 457 875 1
(0.1380285619 0.430985719 0.333671869 0.09731384999) 488 952 2
(0.2348620677 0.3825689662 0.1014839429 0.2810850233) 448 1306 2
(0.482744889 0.2586275555 0.09927820033 0.1593493552) 477 913 1
(0.5708680994 0.2145659503 0.09658508221 0.1179808681) 457 891 2
(0.01037629086 0.4948118546 0.1361571607 0.3586546939) 509 2622 2
(0.5518435244 0.2240782378 0.09545102656 0.1286272112) 545 1060 2
(0.5928872179 0.203556391 0.0001716848794 0.2033847062) 474 926 1
(0.2555811059 0.3722094471 0.207360925 0.164848522) 451 863 1
(0.166003388 0.416998306 0.4152863809 0.001711925108) 473 924 1
(0.2187419046 0.237798358 0.3906290477 0.1528306897) 459 897 2
(0.5122491508 0.1589909585 0.2438754246 0.08488446606) 444 866 1
(0.2232820439 0.223187382 0.3883589781 0.165171596) 454 885 1
(0.3084872277 0.3457563861 0.09995285856 0.2458035276) 454 888 1
(0.1662326401 0.1197678596 0.2971158204 0.41688368) 449 1307 1
(0.5241382606 0.09721518148 0.2379308697 0.1407156882) 577 1122 2
(0.5628975058 0.1295656282 0.2185512471 0.08898561891) 477 929 1
(0.352710406 0.1316968342 0.323644797 0.1919479628) 544 1059 2
(0.4908367565 0.04182231719 0.2127593045 0.2545816217) 459 2617 1
(0.6330823849 0.1834588076 0.06412904317 0.1193297644) 508 988 2
(0.2754700028 0.3622649986 0.1680545321 0.1942104665) 628 1200 1
(0.1518476264 0.4240761868 0.01597751587 0.4080986709) 587 1138 2
(0.4139710505 0.00150723517 0.2915072396 0.2930144748) 459 2617 1
(0.7658561938 0.08238840271 0.03468350038 0.1170719031) 489 2620 1
(0.6531848629 0.1734075686 0.13859683 0.03481073859) 38 76 2
(0.09612963275 0.3351681867 0.1167669969 0.4519351836) 529 2624 1
(0.8591397301 0.06907466722 0.001355467757 0.07043013497) 513 981 2
(0.1851594834 0.2379536374 0.169466621 0.4074202583) 447 874 1
(0.1771532549 0.4114233726 0.02502614614 0.3863972264) 467 910 2
(0.1061126733 0.3880098316 0.05893383175 0.4469436634) 448 1306 1
(0.1335545015 0.4332227493 0.3531004909 0.08012225832) 606 1174 2
(0.0001151614248 0.4999424193 0.2539498931 0.2459925262) 449 1307 2
(0.6685389602 0.1234197035 0.04231081644 0.1657305199) 472 903 2
(0.6170422042 0.1752668702 0.1914788979 0.01621202768) 445 868 1
(0.5110581061 0.1794643536 0.06500659331 0.2444709469) 456 873 2
(0.1376195731 0.4172670579 0.01392315556 0.4311902135) 469 2618 1
(0.05465207611 0.4726739619 0.2524954489 0.220178513) 458 877 1
(0.6682257198 0.0773303373 0.1658871401 0.08855680279) 467 910 1
(0.5108045994 0.2445977003 0.1391707056 0.1054269947) 445 1303 2
(0.4140702807 0.2929648597 0.1091415063 0.1838233534) 499 2621 2
(0.4970477041 0.1473996073 0.1040765406 0.251476148) 457 893 1
(0.1131089652 0.2342133215 0.2092321959 0.4434455174) 579 2629 1
(0.5416379532 0.2291810234 0.1956682476 0.03351277579) 447 875 1
(0.8370921172 0.0736849374 0.007769003984 0.08145394139) 476 911 2
(0.1701417485 0.4149291258 0.2194642025 0.1954649233) 499 971 2
(0.5021129039 0.2489435481 0.1123913754 0.1365521727) 446 1304 2
(0.1177904702 0.4411047649 0.02109318534 0.4200115796) 448 1306 2
(0.4277734755 0.2861132622 0.1120224313 0.1740908309) 498 969 2
(0.419411114 0.290294443 0.2212201924 0.0690742506) 458 895 2
(0.1208740933 0.0127023979 0.4268605555 0.4395629533) 466 910 1
(0.594009389 0.2029953055 0.1558198625 0.04717544303) 468 896 1
(0.6549254222 0.1725372889 0.1271501996 0.04538708928) 458 896 1
(0.4433959985 0.1800216242 0.09828037654 0.2783020007) 447 1305 1
(0.4084471797 0.1833144859 0.2957764101 0.1124619242) 498 972 2
(0.1884593607 0.4057703196 0.1802493348 0.2255209848) 548 1048 1
(0.7070121044 0.1464939478 0.07015007934 0.07634386848) 599 1161 2
(0.1014264681 0.2711618124 0.1781249535 0.449286766) 567 1102 1
(0.08651916387 0.2809909798 0.1757494383 0.4567404181) 589 2630 1
(0.2319558196 0.0188944228 0.3840220902 0.3651276674) 440 861 2
(0.19273005 0.403634975 0.1051899386 0.2984450364) 543 1057 1
(0.1893945666 0.09639007039 0.3089126463 0.4053027167) 467 894 2
(0.2514448079 0.3742775961 0.1753913429 0.1988862532) 447 1305 2
(0.1416486776 0.4291756612 0.3561345764 0.07304108482) 469 916 1
(0.3090271387 0.3454864306 0.2856087289 0.05987770172) 490 239 2
(0.3030484681 0.348475766 0.1169015328 0.2315742332) 457 875 1
(0.6581800474 0.1709099763 0.1311948643 0.03971511199) 475 909 1
(0.685789056 0.05990958254 0.09719588946 0.157105472) 479 916 2
(0.4199499783 0.2900250109 0.2111276365 0.07889737435) 454 869 1
(0.6096920728 0.04481951977 0.1503344438 0.1951539636) 488 934 2
(0.03655563004 0.2659154239 0.481722185 0.2158067611) 487 951 2
(0.2944476508 0.3527761746 0.2041398415 0.1486363331) 446 873 1
(0.4753819353 0.2623090324 0.06585265649 0.1964563759) 499 973 1
(0.1083427029 0.4458286486 0.1996744031 0.2461542454) 494 964 1
(0.216082856 0.391958572 0.1352332863 0.2567252857) 598 1143 1
(0.06162873337 0.4691856333 0.3953043125 0.07388132081) 568 1086 1
(0.2793752109 0.2686289983 0.09168339623 0.3603123945) 446 1304 1
(0.1283608622 0.4329380553 0.4358195689 0.00288151361) 459 897 2
(0.1406171596 0.3612974847 0.06839393554 0.4296914202) 463 904 1
(0.1697418956 0.3533399498 0.06178910244 0.4151290522) 464 906 1
(0.1567014045 0.04837460062 0.3732746971 0.4216492977) 443 866 1
(0.6854006004 0.1512716915 0.006028008278 0.1572996998) 457 893 1
(0.7048294475 0.08579712011 0.06178815613 0.1475852762) 446 1304 1
(0.3088177145 0.09482781487 0.2507633279 0.3455911427) 445 1303 1
(0.88611254 0.01698302392 0.05694372999 0.03996070607) 477 929 1
(0.03322300242 0.2119307178 0.271457781 0.4833884988) 445 1303 1
(0.02468816954 0.4876559152 0.07465502258 0.4130008927) 475 909 1
(0.5675437272 0.07810297933 0.2162281364 0.1381251571) 485 944 1
(0.5502624904 0.2248687548 0.1034984121 0.1213703427) 455 889 2
(0.0561429753 0.1596074078 0.4719285123 0.3123211046) 552 1074 2
(0.3879674623 0.3060162689 0.2344048406 0.07161142825) 456 892 1
(0.2164040126 0.001912089399 0.3898859043 0.3917979937) 468 896 2
(0.06825856732 0.4658707163 0.1552234937 0.3106472226) 459 895 2
(0.6256419322 0.1871790339 0.07627186552 0.1109071684) 514 1002 1
(0.5896101583 0.2051949208 0.04220942127 0.1629854996) 486 930 1
(0.3547715515 0.3226142243 0.1254587961 0.1971554281) 488 934 1
(0.08903966401 0.455480168 0.3258064223 0.1296737457) 458 877 1
(0.6687598715 0.1656200642 0.1551215402 0.01049852404) 510 993 2
(0.5987870518 0.02652401721 0.1740824569 0.2006064741) 456 873 2
(0.08545461359 0.1773071773 0.2799655159 0.4572726932) 489 935 2
(0.7991159365 0.08533141237 0.1004420318 0.0151106194) 444 866 1
(0.08563687562 0.4571815622 0.1828477702 0.274333792) 444 869 1
(0.2896597929 0.3551701035 0.09707319325 0.2580969103) 474 923 2
(0.3814364879 0.3092817561 0.2353287022 0.07395305384) 537 1046 1
(0.09305232823 0.3288433876 0.4534738359 0.1246304483) 448 877 2
(0.4417822862 0.2791088569 0.1269946711 0.1521141859) 445 868 2
(0.5931549711 0.2034225145 0.09799094717 0.1054315673) 496 967 2
(0.6330836761 0.09384072885 0.1834581619 0.08961743308) 538 1048 2
(0.08180063572 0.4590996821 0.3303820014 0.1287176808) 488 952 2
(0.4995286342 0.04269985072 0.2075358322 0.2502356829) 594 1135 2
(0.008096468288 0.3392339301 0.1567178357 0.4959517659) 447 1305 1
(0.421639738 0.289180131 0.1207750021 0.1684051289) 466 908 2
(0.003409521952 0.04373315572 0.498295239 0.4545620833) 467 913 2
(0.3212784928 0.3393607536 0.1970174936 0.14234326) 453 886 1
(0.7881790034 0.03646114941 0.06944934888 0.1059104983) 464 906 1
(0.4518519376 0.0981226573 0.2740740312 0.1759513739) 467 910 1
(0.7249134537 0.1032934411 0.1375432731 0.03424983201) 458 896 2
(0.4911691808 0.2544154096 0.1021623473 0.1522530623) 468 914 2
(0.4789646153 0.2605176923 0.2314406422 0.02907705016) 459 895 2
(0.2216521104 0.3891739448 0.1106921381 0.2784818067) 538 1047 2
(0.5353456902 0.2323271549 0.02598102497 0.2063461299) 488 953 1
(0.08000801672 0.4599959916 0.06126317668 0.398732815) 517 1007 2
(0.03719798611 0.4814010069 0.4441022939 0.037298713) 487 932 1
(0.3117478609 0.1637437621 0.1803823074 0.3441260695) 529 1011 2
(0.08451024579 0.1241678967 0.3335769804 0.4577448771) 468 896 2
(0.07773946665 0.4611302667 0.02575899603 0.4353712706) 548 1066 2
(0.5783486033 0.2108256984 0.02262430525 0.1882013931) 465 908 2
(0.3238096737 0.2262096037 0.1118855595 0.3380951631) 518 1009 1
(0.3233958942 0.1606431611 0.3383020529 0.1776588917) 517 1005 1
(0.2565008913 0.137235533 0.3717495543 0.2345140214) 539 1049 2
(0.38573793 0.1581470207 0.1489840143 0.307131035) 567 1084 2
(0.5873071256 0.0219204769 0.2063464372 0.1844259603) 529 1030 2
(0.2342146925 0.02474076236 0.3581518914 0.3828926537) 638 1237 1
(0.5283529152 0.0681618633 0.1676616791 0.2358235424) 467 894 2
(0.8288533103 0.03535794363 0.05021540122 0.08557334485) 508 972 2
(0.2715886496 0.3642056752 0.1088374526 0.2553682225) 468 915 1
(0.08887599876 0.15020646 0.3053555406 0.4555620006) 446 872 1
(0.1584044643 0.4207977679 0.04069993158 0.3800978363) 451 882 1
(0.4704628597 0.08659487963 0.2647685701 0.1781736905) 496 968 2
(0.1857259118 0.06626689189 0.3408701522 0.4071370441) 442 1300 1
(0.00769366566 0.03477712262 0.4961531672 0.4613760446) 498 969 1
(0.1185993156 0.4407003422 0.02577568247 0.4149246597) 446 1304 2
(0.6517474475 0.1741262763 0.1283616885 0.04576458778) 459 897 1
(0.3963111334 0.3018444333 0.1030903836 0.1987540497) 469 916 1
(0.06826320811 0.4658683959 0.06896838937 0.3969000066) 448 877 1
(0.4323823523 0.2838088239 0.1720281478 0.1117806761) 459 895 2
(0.04141058735 0.1386235498 0.3406711565 0.4792947063) 527 1026 1
(0.03228167848 0.4838591608 0.3749955097 0.1088636511) 452 865 1
(0.5109306858 0.05595294899 0.1885817081 0.2445346571) 558 1067 2
(0.1961372246 0.4019313877 0.03052683359 0.3714045541) 587 1141 1
(0.3460992419 0.08030543635 0.326950379 0.2466449427) 629 1220 2
(0.5049425695 0.2475287153 0.1294494493 0.118079266) 446 1304 2
(0.3716565878 0.01390677367 0.3002649324 0.3141717061) 461 900 1
(0.08500958782 0.4574952061 0.317305762 0.1401894441) 497 967 2
(0.2479073531 0.3760463235 0.2014085265 0.1746377969) 479 2619 2
(0.2325795679 0.220586 0.1631242161 0.3837102161) 448 1306 1
(0.2736439371 0.3631780314 0.3418808236 0.02129720785) 452 881 2
(0.2415343488 0.3792328256 0.02995423682 0.3492785888) 443 866 2
(0.2867301653 0.3566349174 0.007453906377 0.349181011) 489 2620 2
(0.1228910917 0.4385544541 0.1002358149 0.3383186393) 477 931 2
(0.8258038616 0.03001234511 0.05708572408 0.08709806919) 445 870 1
(0.2296948776 0.1284913083 0.3851525612 0.256661253) 506 987 2
(0.2155415869 0.1357311482 0.2564980584 0.3922292066) 447 1305 1
(0.4303163684 0.2272063963 0.2848418158 0.05763541943) 508 991 2
(0.463844969 0.2680775155 0.004769648035 0.2633078675) 457 894 1
(0.2683331106 0.2252288041 0.1406046406 0.3658334447) 494 945 2
(0.317086436 0.341456782 0.1152361927 0.2262205893) 599 1144 1
(0.2357736264 0.03968551202 0.3821131868 0.3424276748) 488 950 1
(0.3693327086 0.3153336457 0.2854815867 0.02985205896) 509 992 1
(0.397430584 0.06595370249 0.2353310055 0.301284708) 516 987 2
(0.209656571 0.1863309585 0.208840756 0.3951717145) 568 1086 2
(0.2554756026 0.3722621987 0.2807086498 0.09155354893) 637 1217 1
(0.3068574945 0.1616769903 0.1848942625 0.3465712527) 479 916 2
(0.3729640668 0.2267686176 0.3135179666 0.08674934896) 528 1029 2
(0.4854079437 0.03449043083 0.2228055973 0.2572960282) 451 863 2
(0.3545091167 0.2692588801 0.05348656156 0.3227454417) 476 929 1
(0.1655480856 0.02287465136 0.3943513058 0.4172259572) 475 909 2
(0.3686629852 0.1889998242 0.1266686832 0.3156685074) 508 990 1
(0.2083348477 0.142659944 0.3958325761 0.2531726322) 467 910 1
(0.3315841867 0.03699799768 0.297209909 0.3342079066) 487 932 2
(0.03185909479 0.3167709397 0.4840704526 0.1672995129) 507 989 2
(0.2262006539 0.3868996731 0.330442363 0.05645731003) 508 991 1
(0.06053018198 0.2741461291 0.1955887799 0.469734909) 535 1023 2
(0.1011700575 0.01489422804 0.4345207432 0.4494149712) 496 949 2
(0.2360736994 0.1102367682 0.2717263821 0.3819631503) 458 895 1
(0.6020361805 0.1989819097 0.1071173798 0.0918645299) 457 891 2
(0.2784656683 0.3607671659 0.06956511665 0.2912020492) 525 1023 1
(0.4658145845 0.2670927078 0.1066507163 0.1604419915) 529 1030 1
(0.1880175411 0.0959590762 0.4059912294 0.3100321532) 556 1082 2
(0.6274611006 0.15000097 0.1862694497 0.03626847968) 519 1011 2
(0.1424137159 0.1947416769 0.2340514652 0.4287931421) 477 931 1
(0.05110808846 0.2522973052 0.4744459558 0.2221486505) 566 1101 2
(0.6164607 0.19176965 0.02301903286 0.1687506171) 566 1098 2
(0.2695151143 0.2836226875 0.3652424428 0.08161975536) 635 1229 1
(0.454676676 0.06021078303 0.272661662 0.212450879) 628 1219 2
(0.07817678097 0.4609116095 0.2499210116 0.210990598) 629 1218 2
(0.3658373872 0.3170813064 0.3119642315 0.005117074862) 628 1200 1
(0.3753317972 0.3123341014 0.1921921736 0.1201419278) 445 871 1
(0.2625335151 0.2556393538 0.3687332424 0.1130938886) 451 882 2
(0.1822048788 0.4088975606 0.3760240274 0.0328735332) 459 897 1
(0.1729809572 0.4135095214 0.3346058425 0.07890367895) 475 928 1
(0.08662771272 0.3691919619 0.08749418169 0.4566861436) 529 2624 1
(0.006682708757 0.4966586456 0.2665522037 0.2301064419) 475 909 1
(0.3587611746 0.06586349563 0.2547559171 0.3206194127) 498 953 2
(0.2706208666 0.2230053567 0.3646895667 0.14168421) 568 1105 2
(0.4454462308 0.2772768846 0.06707140078 0.2102054838) 549 1066 2
(0.6089446806 0.02778938841 0.1677382713 0.1955276597) 628 1218 1
(0.007702654505 0.4961486727 0.09686393932 0.3992847334) 485 928 1
(0.5267748083 0.2366125958 0.2078784471 0.02873414872) 467 913 1
(0.03903181075 0.2407764353 0.2397076593 0.4804840946) 506 968 2
(0.7004025423 0.1497987288 0.1063445441 0.04345418473) 445 1303 2
(0.2904843259 0.2918336956 0.354757837 0.06292414141) 444 869 2
(0.2539951752 0.3730024124 0.04291498683 0.3300874256) 446 870 2
(0.01840463184 0.1512608966 0.4907976841 0.3395367875) 445 871 2
(0.08704996311 0.4564750184 0.1111712103 0.3453038082) 497 951 1
(0.4662470072 0.1465545027 0.2668764964 0.1203219936) 442 865 2
(0.2327406109 0.242779738 0.3836296945 0.1408499566) 538 1045 1
(0.7538676381 0.1176476408 0.123066181 0.00541854015) 486 949 2
(0.1838002473 0.4080998763 0.1563009316 0.2517989447) 549 2626 2
(0.3681560024 0.1831676099 0.1327543889 0.3159219988) 508 990 1
(0.05460271062 0.2275273459 0.4726986447 0.2451712988) 538 1048 2
(0.8519634441 0.07401827797 0.008705073395 0.06531320457) 625 1194 1
(0.3723347295 0.07875760341 0.3138326353 0.2350750318) 519 1011 2
(0.4710594153 0.01323731176 0.2512329806 0.2644702923) 558 1067 2
(0.09520913191 0.452395434 0.3939900553 0.05840537871) 477 929 2
(0.330675505 0.3346622475 0.1776697695 0.156992478) 648 1251 2
(0.09513193886 0.4524340306 0.01960758354 0.432826447) 535 1042 1
(0.3037624997 0.01336077446 0.3347579757 0.3481187502) 619 1182 2
(0.2165691302 0.3917154349 0.3394000313 0.05231540355) 568 1102 2
(0.2048129353 0.3975935324 0.1545451031 0.2430484293) 578 1123 2
(0.3477711943 0.114106119 0.2120082839 0.3261144028) 629 1201 2
(0.2488835565 0.1472722613 0.2282859605 0.3755582218) 559 2627 1
(0.5021568211 0.1228786543 0.1260429352 0.2489215895) 487 932 2
(0.1043339273 0.4478330364 0.3766771007 0.07115593563) 482 940 2
(0.2798309918 0.07046044181 0.3600845041 0.2896240623) 462 903 2
(0.006075253924 0.496962373 0.04350529745 0.4534570756) 469 916 1
(0.08044864405 0.459775678 0.3520122487 0.1077634293) 447 872 2
(0.2618600553 0.2833761889 0.3690699724 0.08569378344) 479 933 1
(0.3542898048 0.3228550976 0.06573952927 0.2571155683) 469 2618 2
(0.4588097943 0.2705951028 0.07633828979 0.1942568131) 458 896 1
(0.1599498522 0.4081777602 0.4200250739 0.01184731374) 469 914 1
(0.7149368561 0.1425315719 0.07672331771 0.06580825423) 478 931 2
(0.7012207153 0.1145088026 0.1493896424 0.0348808398) 476 927 1
(0.3993550528 0.3003224736 0.1577896305 0.1425328431) 455 890 1
(0.1006111066 0.2338039832 0.4496944467 0.2158904635) 449 878 2
(0.09499252499 0.1103378197 0.4525037375 0.3421659178) 577 1119 1
(0.6859379785 0.1570310108 0.02269021509 0.1343407957) 529 1030 1
(0.5593114816 0.2203442592 0.04287858578 0.1774656734) 518 1010 1
(0.6402911372 0.1798544314 0.1675307962 0.0123236352) 569 1104 2
(0.1153212289 0.4423393856 0.03514988762 0.407189498) 609 1180 2
(0.3852441958 0.3073779021 0.2286165262 0.07876137597) 568 1105 1
(0.03102047678 0.004894978987 0.4844897616 0.4795947826) 554 1078 2
(0.3463245526 0.3268377237 0.1010472247 0.225790499) 528 1029 1
(0.3540252666 0.1911333064 0.1318540603 0.3229873667) 597 1159 1
(0.1763724944 0.003205325772 0.4086084271 0.4118137528) 469 2618 1
(0.562158285 0.2189208575 0.07924534096 0.1396755165) 489 954 1
(0.5131164656 0.2434417672 0.1839820276 0.05945973963) 457 891 2
(0.2124892607 0.2321628016 0.1615925681 0.3937553697) 486 948 1
(0.1462629018 0.403992706 0.4268685491 0.02287584306) 448 877 2
(0.1087904909 0.3341372498 0.4456047545 0.1114675048) 459 895 1