/*--------------------------------*- C++ -*----------------------------------*\
| =========                 |                                                 |
| \\      /  F ield         | OpenFOAM: The Open Source CFD Toolbox           |
|  \\    /   O peration     | Version:  2406                                  |
|   \\  /    A nd           | Website:  www.openfoam.com                      |
|    \\/     M anipulation  |                                                 |
\*---------------------------------------------------------------------------*/
FoamFile
{
    version     2.0;
    format      ascii;
    arch        "LSB;label=32;scalar=64";
    class       scalarField;
    location    "0.007/lagrangian/dsmc";
    object      Ei;
}
// * * * * * * * * * * * * * * * * * * * * * * * * * * * * * * * * * * * * * //


6882
(
1.719340351e-21
3.663841063e-20
1.918243281e-20
5.940913903e-22
5.575853859e-20
2.324196448e-20
3.769786518e-21
6.232104523e-21
3.741498695e-21
1.42071305e-20
5.975251327e-21
1.51407561e-20
1.327262995e-20
3.463892442e-21
1.417841356e-21
5.02495317e-21
1.004221028e-20
2.784922714e-20
3.108684005e-20
3.483458508e-20
1.529574811e-20
2.713281063e-21
7.635804627e-21
8.796922033e-21
1.26984126e-20
4.534174967e-21
1.173199193e-20
4.417225399e-21
4.779777719e-21
1.270672355e-20
1.130948689e-20
1.92704244e-20
1.785229924e-20
1.870176115e-20
6.277516192e-21
4.507026657e-20
1.283000761e-21
3.924418953e-22
1.038464348e-20
1.284303962e-20
3.700480946e-20
4.001257349e-21
9.507195362e-21
1.500624552e-20
4.915087712e-21
2.733124253e-21
2.695067086e-20
2.512621834e-21
8.749956865e-21
6.011960269e-21
1.02589698e-21
6.289417629e-21
7.252364115e-21
3.47148622e-20
1.241130024e-21
1.427755463e-21
2.729616336e-20
4.803007769e-21
5.878790206e-21
1.398731079e-20
2.432498337e-20
7.023492254e-21
1.514537757e-20
3.418540364e-21
5.568833842e-20
3.219843324e-21
9.848820849e-21
6.882879324e-21
6.606950054e-21
2.929782755e-21
1.420518626e-20
2.280224758e-21
1.563042067e-21
2.752433365e-21
1.347970337e-20
6.114505425e-21
1.095862423e-20
1.782440839e-21
3.762003059e-21
6.496229638e-21
4.287669725e-21
1.88238879e-20
2.409931735e-21
1.196237454e-22
1.585747567e-21
5.022489033e-21
8.086100672e-21
3.289013636e-21
8.978035138e-21
4.988085124e-21
2.798099781e-21
3.515643178e-20
2.866371131e-20
1.418313617e-20
1.970247379e-21
1.159104441e-20
1.112596027e-20
3.691886423e-21
3.287876925e-21
1.774926442e-20
6.261002075e-23
7.566163615e-21
2.401734955e-20
1.351385214e-20
3.58204557e-22
2.300026156e-21
1.461932081e-20
3.358164439e-20
2.969609831e-20
7.096198371e-21
5.590006488e-21
4.420792687e-22
1.27599533e-20
9.09366972e-21
2.861654818e-20
4.445468479e-21
3.934138686e-21
2.1661616e-20
1.062698467e-20
6.253303832e-21
9.063100424e-22
3.624920932e-20
3.793743321e-21
1.197907117e-20
1.315751213e-21
2.719575323e-21
4.375952529e-22
7.656768311e-21
1.733752639e-21
4.034187889e-20
1.7985823e-20
5.371246431e-22
1.891540368e-20
8.863871906e-22
4.248842448e-20
2.514733734e-21
1.673244642e-21
4.19446627e-20
2.917390505e-20
5.3951459e-21
2.884568766e-21
4.627433411e-20
3.834509297e-22
4.039485322e-21
9.189763734e-21
2.726099915e-21
5.992432511e-21
1.971999935e-20
3.027960249e-21
3.433558386e-21
6.741201145e-21
1.533646081e-20
4.474298831e-21
1.618649829e-21
2.944012452e-21
2.468873462e-20
1.029277524e-20
9.362884406e-21
1.734398575e-21
4.936914483e-21
5.240911329e-21
7.805434978e-21
4.258298769e-20
2.609821561e-20
2.69235522e-21
6.831238641e-21
7.452784384e-21
1.53072845e-21
1.697268767e-20
5.638992335e-21
2.835476641e-21
1.859092685e-21
1.844897302e-21
1.020454523e-20
2.241531643e-21
4.34371164e-21
1.075667621e-20
8.797136432e-21
1.225320741e-20
8.68461482e-21
1.885451765e-20
5.058143272e-21
4.49574482e-21
1.496949852e-22
6.98278049e-21
1.003243131e-20
2.152061872e-20
1.636579577e-20
1.128779801e-21
3.198818924e-20
1.142232045e-21
1.704276681e-20
2.966403537e-21
6.00830762e-21
4.053401162e-21
3.375207221e-22
2.169822959e-21
2.154990056e-22
9.447696171e-21
2.55417534e-21
1.236516081e-20
4.003318987e-20
1.839924945e-21
3.878547554e-22
5.361316116e-21
2.153465851e-20
1.26356253e-21
2.717419738e-21
3.180334295e-21
4.930227721e-21
6.984330756e-21
2.162278539e-20
1.819796586e-20
1.786602275e-20
1.573960985e-21
2.125809071e-21
1.332407721e-20
2.987284002e-21
1.103191925e-21
2.656551892e-21
4.417049845e-22
3.192285205e-21
1.390273335e-20
1.677836332e-20
7.195239999e-21
6.103069429e-21
9.765082918e-21
1.235681831e-21
3.389651585e-20
8.75075867e-22
2.043667982e-20
1.60090284e-21
8.82180618e-21
5.035854119e-21
2.984145957e-22
2.950839273e-21
4.200202783e-21
4.683237176e-21
1.141595495e-20
4.405288216e-21
1.872133825e-21
1.965469275e-20
4.928850565e-21
4.991401338e-20
1.883419813e-20
2.43288504e-21
2.331067315e-22
9.252356629e-21
9.70427831e-21
2.768343479e-20
5.95567557e-21
2.561371635e-20
4.520104481e-21
1.437078719e-20
2.730167599e-22
5.92338092e-22
4.048799288e-20
2.047885185e-20
7.27644267e-21
1.129825801e-20
3.085402903e-22
2.331809032e-20
4.209742528e-21
8.058239839e-21
6.209252152e-21
2.768420934e-21
5.638758324e-22
2.811132024e-21
1.966846193e-20
1.712045168e-20
2.452332089e-20
5.345880856e-21
1.255854298e-20
1.037655851e-21
2.16153083e-21
3.031616106e-20
4.457710065e-20
2.257176361e-22
2.730903677e-20
3.243129083e-20
6.444861206e-21
2.896714367e-21
1.497201565e-22
3.522565953e-20
1.372695923e-20
2.17201121e-21
2.596511871e-22
3.106739739e-20
3.538584099e-21
5.024107093e-21
1.184623433e-21
1.1373868e-20
1.984692576e-20
5.870475862e-21
3.149371795e-21
2.620153216e-21
5.134936795e-21
3.084922001e-21
8.333839619e-21
7.309147178e-21
5.414299785e-21
2.509824417e-21
9.484511604e-21
1.451000441e-21
2.233955336e-20
1.929878442e-21
2.86515983e-20
5.543256846e-22
1.893090512e-22
4.363959475e-20
9.344593797e-21
1.784410101e-20
8.874021042e-21
1.8513146e-22
8.77865146e-21
3.601931104e-21
1.123692317e-21
1.454038399e-21
4.344565662e-21
9.192840251e-22
2.680742361e-21
4.868281214e-21
1.062261605e-20
2.328665978e-20
2.235456703e-20
5.872987891e-21
2.367563953e-20
3.027237066e-21
4.792153322e-21
1.944487892e-20
5.312351916e-21
1.914096423e-21
4.694270187e-21
2.393783802e-20
1.40306618e-20
3.499020611e-21
2.206378911e-21
1.803301779e-20
1.079404304e-21
1.926284525e-21
1.619492845e-20
2.23296856e-21
5.683045853e-21
1.757944576e-21
2.32088308e-20
2.610859009e-21
2.110823414e-21
5.336648695e-22
1.310718753e-21
4.760853309e-20
8.470622036e-24
2.199640914e-22
1.833318697e-21
1.257108607e-22
8.821523897e-22
5.436452194e-22
1.558287382e-21
5.823187713e-22
8.056300567e-22
3.393365473e-21
1.537901102e-20
6.146452952e-20
5.127103936e-22
9.63639386e-22
1.256056568e-20
5.774481164e-21
2.128097663e-21
3.879987428e-21
5.899034111e-22
7.704689956e-22
6.136939084e-21
3.850622599e-21
8.729310487e-21
5.946802951e-21
2.38588282e-21
5.812132149e-22
9.259376819e-21
2.184216436e-21
2.549301638e-21
2.252475738e-20
3.967974812e-21
3.380004205e-21
1.623154814e-21
8.513970613e-22
2.798560008e-21
2.187118416e-21
5.412419671e-20
7.433627238e-21
4.238093185e-21
5.676729745e-21
3.180747932e-20
1.770386273e-20
6.101668417e-22
5.55273773e-21
2.739882271e-21
1.011809759e-20
7.680545783e-21
2.633412108e-21
7.065432279e-21
3.825280983e-22
2.471794183e-21
3.420226013e-21
8.601405407e-23
1.212657248e-20
2.890490791e-20
1.831305288e-21
2.534623008e-22
1.164102571e-21
3.013290002e-21
2.561847154e-22
1.533470579e-21
5.903019225e-21
6.310723137e-22
1.546224177e-22
1.153466708e-20
2.36194249e-21
5.206693575e-21
1.208909704e-20
1.81766047e-21
5.138841656e-21
2.023886282e-20
5.36626168e-20
2.646125418e-21
7.370371845e-23
6.081848218e-23
4.512070467e-21
5.321072833e-21
1.724332347e-21
5.74255046e-21
6.685666189e-21
2.883714262e-20
3.642301571e-20
3.828591762e-22
1.840533114e-21
1.1363993e-21
3.569152137e-21
1.841332648e-21
7.589827216e-21
1.334005013e-21
2.800286707e-21
7.705013379e-21
1.199584435e-21
1.134916368e-21
1.53040668e-20
6.8664836e-21
3.569285347e-21
2.716238796e-22
7.367477991e-21
2.627082723e-22
5.718682848e-21
7.566176359e-21
7.832052668e-21
1.037815295e-21
2.795047544e-21
5.601761908e-21
3.729957331e-21
3.659748312e-21
3.821408286e-21
1.895318493e-21
3.801934462e-20
8.135881878e-21
5.28225704e-21
5.262254119e-21
7.620735662e-21
2.875244325e-21
4.555194375e-21
5.567902836e-21
3.857429746e-22
2.119793357e-21
5.835745705e-21
2.871319866e-21
1.358367647e-20
3.525717635e-21
5.825354822e-21
2.018750294e-22
8.168264865e-22
5.992987783e-22
4.538505437e-21
1.624806267e-21
1.736534995e-20
2.147329772e-21
1.116196481e-21
2.60425726e-21
3.990719318e-21
4.562426515e-20
1.166451734e-20
5.019326906e-20
2.65098651e-21
3.848672517e-21
2.320245498e-21
9.509843756e-21
1.469587699e-21
2.226823144e-21
2.102141708e-20
5.456939318e-21
7.643955867e-21
9.608655021e-21
7.78759849e-21
8.293413538e-22
3.378990494e-20
2.368671611e-21
3.417012106e-21
1.459288184e-21
2.080325045e-21
5.947299847e-21
7.312043206e-22
6.850897075e-21
2.04265139e-20
4.358096655e-22
7.149582929e-21
1.408889741e-20
9.18358904e-21
9.868781435e-22
1.617413636e-20
1.509151092e-20
2.389674114e-21
8.411620862e-21
3.663838377e-20
1.244432015e-20
3.354500342e-21
8.487231068e-21
1.960596838e-21
3.323259667e-22
2.947956518e-21
6.426921336e-22
1.04056717e-20
4.539927409e-21
2.590762652e-21
3.030234505e-20
2.563131496e-21
1.203290927e-21
2.967654329e-21
6.88618434e-21
2.264096772e-21
8.529516495e-21
6.208430603e-21
1.209690536e-21
1.102031939e-21
3.377936665e-21
3.06058392e-21
7.073237967e-21
2.436298215e-21
1.119666698e-22
5.62264008e-22
2.158874594e-21
5.301426687e-22
2.025366148e-20
9.476772111e-21
2.136327449e-20
4.575046532e-21
3.465908437e-21
8.79455787e-22
1.899148456e-21
7.2031489e-21
5.134767598e-20
1.222070771e-20
1.61967284e-20
1.903659864e-20
1.003351523e-20
9.137205616e-21
1.148440788e-20
3.425830827e-21
9.464496173e-22
7.10535183e-22
1.621260788e-21
1.837120526e-21
1.547211026e-20
3.740656303e-21
1.735242716e-21
3.394017221e-21
2.05378702e-20
5.788822226e-21
6.315356461e-21
3.63443404e-21
8.493329218e-21
8.669301606e-22
4.88318057e-21
1.175488706e-20
8.993051185e-21
1.335138642e-22
9.399128063e-23
5.034986779e-21
1.225524744e-22
1.121766545e-20
2.564476245e-21
1.6842457e-20
3.866962227e-20
4.031425243e-21
4.165246946e-21
3.517979081e-21
7.66927922e-21
3.947024436e-22
3.118442461e-21
8.387278516e-22
1.022714742e-20
3.707802145e-20
6.589888114e-21
7.328439372e-21
1.621276599e-20
2.94154162e-21
1.297927043e-20
6.419292949e-21
6.554950782e-24
2.138673094e-21
4.455679919e-21
1.067209031e-21
5.805336221e-22
5.955334358e-21
2.015663648e-21
2.095448149e-20
7.971598491e-21
5.18279093e-21
3.742369267e-21
7.853306148e-22
3.439332171e-21
7.517569798e-21
2.639724382e-21
1.054503282e-21
1.085485975e-22
1.079584273e-21
5.225246992e-23
3.721350127e-21
2.096156136e-21
3.005770858e-21
1.335974938e-20
3.89851156e-21
5.223805955e-21
1.528015123e-21
2.751278647e-21
3.513038511e-21
3.167806147e-21
1.235957089e-20
4.375242953e-21
2.735349853e-21
6.600462904e-21
4.717895316e-21
1.2683296e-20
3.15953636e-21
3.706577119e-21
2.559614878e-20
1.743292023e-20
2.228367156e-21
1.576196513e-22
1.511213792e-20
1.487726789e-20
6.172465996e-21
6.106787578e-21
9.620117008e-21
3.979647586e-21
4.531723122e-22
9.226983503e-22
2.768809966e-20
1.204536059e-20
2.374193885e-20
6.908246366e-22
2.562126134e-21
1.779082509e-21
8.419505976e-21
5.475790005e-21
7.445036436e-21
2.72386646e-21
2.643322115e-21
3.613680532e-22
1.963236765e-21
6.831282278e-20
7.183551671e-21
2.108260156e-21
1.10119523e-21
3.575559162e-21
1.812920869e-21
5.342632582e-22
3.830742807e-21
5.810998609e-21
5.993841725e-22
1.985565019e-22
2.44015182e-24
4.876882927e-22
7.030638215e-21
4.899778595e-21
4.288821779e-21
4.802478285e-22
2.278708082e-21
3.279100584e-22
2.868551969e-21
1.210766582e-21
6.889589606e-21
3.981357192e-21
4.445498046e-20
1.212098602e-21
3.555233871e-21
8.906769811e-21
9.574282632e-22
4.774329285e-21
2.242978277e-20
5.366289458e-21
7.097078882e-21
4.635639344e-21
5.525658858e-21
6.217568497e-21
5.474868291e-21
4.357497865e-21
3.73173645e-21
1.59311311e-21
1.478411178e-22
2.512418235e-21
9.785489627e-21
1.053531471e-20
6.37093338e-20
4.606956214e-21
1.682484519e-20
1.340743289e-21
8.146628695e-22
1.713048772e-21
3.377696664e-21
1.795035892e-20
7.359963111e-21
1.823460463e-21
1.315276955e-20
2.260890515e-21
1.8225483e-21
9.470014516e-21
1.593875667e-21
1.617834241e-21
3.260090429e-21
1.028685512e-21
4.419018833e-22
1.553136943e-21
1.155775499e-20
5.759742292e-22
3.24493076e-22
4.689127319e-23
1.176193627e-21
2.832298933e-20
2.17073072e-21
1.023741942e-21
2.498953756e-21
4.815813332e-21
1.653014273e-20
7.33271984e-21
1.494005658e-21
1.745359028e-20
3.199348197e-20
3.659777505e-21
1.207893307e-20
1.104992103e-20
5.469959542e-21
1.215331643e-21
1.188812722e-20
1.080137038e-22
2.606508844e-21
4.457363137e-21
1.029429429e-20
2.81572066e-21
9.03633785e-21
3.717651569e-21
5.939365885e-21
1.631330953e-20
3.527571889e-21
7.640250809e-21
5.054356066e-21
8.126976352e-21
2.308924394e-21
2.867857552e-20
5.633929909e-23
1.826803681e-20
6.079745704e-21
2.440093654e-21
3.365378455e-21
2.87200447e-21
1.838954026e-21
1.990926748e-22
2.448041801e-21
1.017374913e-20
4.99092986e-21
7.32954921e-22
4.590020478e-22
2.861275557e-21
2.192084673e-21
1.453880846e-20
1.580953587e-21
1.370236577e-21
6.073762075e-21
1.312608188e-21
7.160209925e-22
5.368103838e-21
4.298053633e-22
2.601545814e-21
9.104744917e-22
7.522756533e-23
7.198076868e-21
7.851006968e-22
2.271001586e-20
2.567006088e-20
2.962934954e-20
3.936866517e-21
8.807544496e-22
2.700948232e-21
1.228245492e-20
4.276207593e-21
1.205592923e-20
3.943260607e-21
2.362293288e-20
5.23856331e-22
1.55666035e-20
3.456818075e-22
1.604268e-20
8.600389692e-21
1.790307639e-21
3.403458145e-21
2.873749385e-21
1.520306054e-21
5.764574437e-21
2.980229655e-21
1.557518278e-21
6.641535778e-21
5.208988125e-21
2.048156788e-21
1.05332491e-20
4.037817826e-21
2.751854979e-21
2.416337348e-21
1.713523192e-21
1.423010106e-21
2.61821887e-22
5.016544002e-21
4.436697871e-21
5.464888975e-21
1.198456677e-21
3.272880274e-23
2.604996601e-22
2.436477285e-21
1.13136108e-21
1.431149305e-21
2.566387501e-22
5.872863668e-21
1.55758925e-20
6.032486287e-22
2.690289469e-23
3.918637499e-21
2.396625084e-21
7.907464616e-21
1.001539866e-20
2.410604664e-21
1.123909845e-20
4.523225247e-21
2.675111513e-21
1.491049546e-20
1.112726006e-21
1.860990039e-20
1.065093277e-20
6.384224605e-21
1.999397053e-21
2.402572243e-20
5.705458871e-22
5.363811335e-22
3.384577157e-20
2.250218938e-21
5.883498375e-21
4.358934565e-22
8.427487666e-21
5.93772006e-21
1.325085462e-20
7.751608686e-21
4.15227639e-21
9.947859178e-21
1.206119359e-21
4.635573511e-21
7.109240826e-21
1.595866741e-21
1.004406362e-20
2.407065701e-21
1.594842786e-20
6.004719014e-21
2.306200411e-20
8.12588716e-21
1.916018417e-21
1.061406658e-21
7.372854254e-22
2.651836721e-21
2.142719137e-21
9.163668434e-21
1.550911705e-21
7.420164244e-21
1.067001754e-21
1.653609025e-21
3.16753989e-20
2.376612854e-21
2.947802069e-21
8.691750307e-22
1.723138746e-20
4.890124036e-21
2.901228101e-20
5.708061293e-21
1.790408769e-22
1.099075681e-20
3.846053863e-21
7.824218477e-23
3.083118013e-21
4.843809481e-21
6.511757319e-21
1.844282509e-21
5.53654356e-21
1.215059925e-20
1.062228414e-21
1.020469016e-20
7.781445855e-22
2.256352537e-21
1.559683775e-21
8.087291849e-21
1.215530353e-21
1.203261226e-20
3.008627186e-21
4.62657178e-21
2.118098102e-21
1.564515262e-20
1.699146272e-21
8.960089562e-22
3.665922194e-21
1.091477633e-20
3.672081303e-22
9.551377251e-21
5.991648355e-20
3.008137941e-21
8.476954195e-21
3.611705729e-21
2.103354176e-21
3.953520223e-22
2.853981208e-21
3.185818747e-21
1.358132634e-21
8.746047608e-22
2.557782182e-21
4.292106424e-21
9.007279804e-21
5.489984126e-22
6.858488831e-21
9.627953658e-21
3.750747808e-21
1.20135708e-20
3.823253716e-21
5.32145137e-21
4.207013421e-21
1.686067167e-21
5.846234693e-21
1.477118969e-21
3.667599616e-22
1.521646836e-20
2.215867963e-22
3.469094416e-21
6.331324983e-21
2.657676277e-21
7.275135372e-22
1.241055974e-21
2.358928871e-21
6.262092039e-21
3.797294804e-21
1.773640866e-22
1.177636676e-21
5.770305367e-21
7.702553125e-22
3.821806859e-22
4.856532678e-21
3.720395919e-22
1.228935852e-21
7.024776111e-21
3.494185239e-22
5.555881114e-22
8.260344488e-21
2.749264139e-21
6.287893484e-21
9.644526375e-21
2.301616649e-21
2.501023126e-21
6.434521193e-22
2.027081746e-21
2.423802297e-20
2.760219604e-21
5.303314472e-21
3.320535134e-21
1.920643139e-21
3.435106502e-21
2.178504966e-20
3.422665906e-21
3.290592207e-20
4.494342636e-22
1.464159038e-21
2.185563291e-20
1.321644604e-20
5.166777107e-21
9.884132986e-22
2.320838731e-21
1.168011752e-20
1.860042694e-21
2.103109827e-21
5.207438152e-21
3.813428562e-22
5.580729904e-21
1.782539159e-21
2.491310269e-20
1.275670487e-21
1.31584222e-21
6.806075853e-21
6.619390439e-21
1.940512853e-21
1.528321331e-20
2.076326707e-21
5.166619079e-21
5.870228629e-22
1.893525173e-21
3.412728673e-21
2.503945798e-21
2.587578588e-21
1.499511257e-21
7.390850301e-24
2.17423577e-20
1.168861802e-21
4.400475808e-21
1.689365416e-21
1.110646265e-20
1.710737126e-20
1.692147549e-21
2.83296151e-21
1.692835e-22
4.652084903e-21
2.817792782e-21
2.970159586e-22
1.413064072e-21
1.352744575e-21
3.910464462e-21
2.712611339e-21
1.149643216e-21
1.924080363e-21
1.000677819e-21
1.196692436e-20
1.211286764e-21
4.986111105e-21
1.880922584e-21
3.679623223e-21
2.282966598e-21
1.356533092e-20
6.012981318e-22
9.342415396e-22
3.74248152e-20
6.420677016e-22
1.332987961e-20
2.231199614e-20
9.382008014e-21
6.264306864e-21
8.623442515e-21
7.37947852e-22
1.632520246e-22
4.427962926e-21
6.64267389e-21
3.501508388e-20
8.363449841e-21
1.384604285e-21
1.315031444e-20
1.637191019e-20
4.269918292e-21
4.333586635e-21
6.092707964e-21
5.01892058e-21
2.713427024e-21
5.523990801e-21
7.500484579e-22
8.427108015e-21
4.903788488e-21
1.387466235e-21
4.586377349e-21
3.376641812e-21
1.243047691e-20
5.13666454e-21
8.55883917e-21
3.314621206e-21
7.580844664e-21
9.626450376e-21
9.232501461e-22
1.35669173e-21
1.86448722e-21
3.317649619e-21
2.585728431e-21
5.701903849e-21
5.766615553e-23
1.276479257e-21
1.704327033e-21
8.799575846e-22
9.634554172e-22
4.645709026e-21
6.170952726e-22
5.387028856e-21
1.656647582e-20
1.566252884e-20
5.913137856e-22
3.861315567e-21
3.423835021e-21
9.266004813e-24
5.847412577e-21
3.629368742e-21
1.763694189e-20
2.365291072e-21
1.503822661e-20
1.249541946e-21
7.364212011e-23
1.515826786e-21
2.095672386e-20
5.526184017e-21
1.570314265e-20
4.289747277e-22
3.05526606e-21
1.604755905e-20
2.107336599e-21
4.514012841e-21
8.864134692e-22
1.099489829e-20
2.270245896e-21
2.505529507e-20
6.947679169e-21
6.71606225e-21
1.668198126e-21
6.133696815e-21
6.438082636e-21
1.867084393e-20
1.126955689e-21
1.168641636e-21
2.258193752e-20
3.954099248e-20
1.058373594e-21
7.380357735e-21
1.034141816e-21
6.004513592e-21
2.569803914e-22
1.071864087e-21
1.193653676e-21
8.052253184e-21
3.28626663e-22
2.150855898e-20
5.567643805e-21
2.996635376e-20
7.413030391e-21
1.841463625e-21
9.53693169e-21
3.387346061e-21
1.772159191e-20
7.064577742e-21
2.852745285e-21
1.694674967e-20
3.054838221e-21
1.379681402e-20
3.303879222e-20
1.310164892e-21
4.059081655e-22
3.942917216e-21
1.964287602e-21
1.099552782e-20
1.179853946e-20
1.213605692e-20
1.29324532e-21
3.204397824e-21
1.403641528e-21
5.188902358e-21
4.480569423e-22
2.386392856e-20
3.873088283e-21
3.502720273e-21
1.966076367e-21
8.524912309e-21
2.985037722e-21
4.235834432e-22
2.538743941e-21
6.523385459e-22
2.839844643e-21
4.382816748e-22
5.418188875e-21
1.69340715e-21
3.605667242e-21
3.990035802e-21
1.751465909e-21
3.306467787e-21
1.326356528e-21
9.059572087e-21
5.132202057e-21
5.918214727e-21
9.717067694e-22
1.900436157e-20
4.476147505e-22
3.698041681e-21
9.19186532e-21
4.506961633e-21
4.608953121e-22
7.340064599e-22
2.196143824e-21
5.981188268e-20
2.642194873e-20
3.473847964e-21
2.848882888e-21
9.715956645e-21
1.422391868e-21
1.040364953e-20
3.475274558e-21
1.783723572e-21
1.089086338e-21
3.068113393e-22
1.845925687e-21
9.20607442e-22
2.179172279e-21
1.616951637e-20
1.575866291e-22
2.858649887e-21
2.87897468e-22
5.520433876e-21
1.109107099e-21
4.721680198e-21
9.371223977e-21
3.329459226e-21
3.249385912e-21
5.585605686e-21
7.911966492e-21
2.985826599e-21
6.073564142e-22
8.020399816e-21
1.733687168e-21
3.789128609e-21
1.253180113e-20
3.870508277e-21
1.17043487e-21
4.507171079e-21
4.899929174e-22
2.492548976e-21
1.205880064e-21
3.82036495e-21
1.42892273e-20
5.6085694e-21
3.425415882e-21
4.913249167e-21
1.792979488e-21
1.247888178e-21
5.057366163e-21
8.032198341e-21
3.396450156e-21
2.322151397e-21
7.454136431e-21
3.698292675e-21
1.86643082e-21
2.142496699e-21
4.260274562e-21
2.510958815e-21
5.171915756e-21
3.26950353e-21
1.174879429e-21
8.852712372e-21
4.187534668e-21
1.790124639e-21
2.867624947e-21
1.079517436e-20
2.893876549e-20
3.616025298e-21
9.401111121e-21
4.90810918e-21
4.621265606e-21
8.390299364e-22
2.888615224e-21
1.394396597e-21
4.136322418e-21
9.409012901e-23
1.343786725e-21
2.159948908e-20
7.813632375e-22
9.684517024e-21
7.641519912e-21
5.56198262e-21
5.937721201e-21
4.066288954e-21
1.320038925e-20
4.035920907e-21
8.985141051e-22
9.690952862e-22
2.693497313e-21
2.284654915e-21
1.069454719e-20
4.142901304e-22
1.303665513e-21
3.173213167e-22
1.818174927e-21
3.367414209e-21
8.002033897e-21
9.612782821e-21
2.665463605e-21
3.903980228e-21
5.067716208e-21
1.48932721e-21
8.453805831e-21
4.501603205e-21
3.794936252e-21
1.890709455e-21
3.826372135e-22
4.816423111e-21
1.012070313e-22
3.915910936e-22
4.40587222e-21
6.413562879e-21
6.591016409e-21
3.295377022e-21
1.950642835e-21
2.743088563e-21
4.596545668e-21
1.895038599e-21
4.010678073e-21
3.567197147e-21
6.51140324e-22
3.800723223e-21
1.204213081e-20
3.360954828e-21
4.879191667e-22
1.218070121e-20
4.626112075e-21
1.943756163e-21
2.686886028e-22
3.664508791e-21
1.084479155e-21
4.159453701e-21
2.519399056e-21
5.038172914e-21
7.229694315e-21
3.14051662e-22
1.429228619e-22
5.449820499e-21
4.789164352e-21
1.374424396e-22
8.660981897e-21
7.512084578e-22
7.442077411e-22
4.160490426e-21
8.778201748e-21
1.868488657e-20
7.335034199e-22
8.538051029e-21
5.792252811e-21
8.551065831e-21
4.515332032e-20
1.590035531e-21
8.061816572e-21
1.733543358e-21
1.742057368e-22
8.63034636e-22
2.645132255e-21
2.054864074e-21
1.812560696e-21
1.418816534e-20
5.691630919e-22
8.93411943e-21
9.718142503e-21
6.050800596e-21
4.55664383e-21
1.102410197e-20
2.926278717e-22
1.908762589e-21
3.949279964e-21
9.46713627e-22
2.302997225e-21
3.860238253e-21
1.061211896e-21
7.584322891e-21
1.553442613e-21
9.673777801e-22
5.139738361e-21
4.89202666e-22
2.68288525e-21
1.326533781e-22
3.362373095e-21
3.144730137e-21
4.252836807e-21
3.62697161e-21
3.112796627e-21
4.05886728e-21
2.212572787e-21
4.719445235e-23
3.05211662e-21
2.084383074e-21
6.23668432e-23
2.70507993e-21
3.701459428e-21
3.827899441e-21
2.072600616e-21
9.063133274e-22
3.479951368e-20
2.189213538e-21
7.144370023e-21
1.844652468e-21
3.366186479e-22
2.985259282e-22
5.391855097e-22
5.122209957e-21
7.803088854e-22
2.341753629e-21
3.028061101e-21
1.090870553e-21
5.879437323e-21
1.153287699e-20
5.03742289e-22
4.014253473e-22
1.450440594e-21
2.120958869e-21
3.741351471e-22
4.767250369e-21
1.249815211e-20
3.940217876e-21
3.759924989e-21
1.70157555e-21
8.012837072e-21
3.582594895e-22
5.934098282e-21
1.048780127e-21
1.157743475e-20
1.40239488e-21
1.341195693e-20
2.228079301e-21
2.949103148e-20
1.142418093e-20
1.130917412e-21
5.857723571e-21
2.489528493e-21
2.188873498e-21
1.748583739e-21
2.9941961e-21
6.327247463e-22
1.186594584e-20
2.552665003e-20
2.651650602e-21
8.105279981e-21
6.295902334e-22
1.784145342e-22
3.49777267e-21
1.006367152e-21
5.060029496e-21
2.120277436e-20
5.222593154e-21
8.257162302e-21
9.813826024e-21
2.966383906e-21
2.373540156e-21
1.176533592e-20
2.967587609e-21
1.927359343e-21
1.648016975e-21
6.204660131e-22
4.342633126e-22
3.152704886e-21
2.409876159e-21
2.261660035e-21
1.123747549e-21
5.500456509e-21
1.645793967e-21
5.13031307e-22
4.82391239e-21
7.499724414e-21
1.535128136e-20
1.964526722e-20
1.233966779e-21
5.011195306e-21
3.784663056e-21
2.219461861e-21
9.546509071e-21
2.63691592e-21
3.477839951e-22
6.143831339e-21
3.932217811e-21
1.32106189e-20
8.406856633e-23
1.016442057e-20
6.310437696e-22
6.080982608e-21
8.004079019e-21
1.355113443e-20
1.783335166e-20
8.111441429e-21
7.493734365e-21
2.181328277e-21
3.521770013e-21
4.446234034e-21
1.3355838e-21
6.567480213e-21
2.023144376e-21
3.276301918e-21
6.466988781e-21
5.409426845e-22
5.344308356e-23
3.901362843e-21
6.075338607e-21
3.391763279e-22
2.47647525e-21
4.080234225e-21
2.984917665e-23
4.681790802e-21
4.333028624e-21
8.359200883e-22
6.713703194e-21
1.2737146e-21
5.817831051e-21
1.162853527e-20
5.136088395e-21
2.708445622e-20
3.426882327e-21
8.737706327e-22
7.214322817e-21
2.255953062e-22
2.038322045e-20
1.365651072e-20
4.670111022e-21
1.474713924e-20
2.873631749e-21
9.777235357e-21
2.21005603e-21
4.918490269e-21
1.033602308e-21
6.593224713e-21
6.471501376e-21
1.940755543e-20
5.655007943e-22
4.225273212e-21
2.25481053e-21
5.525253451e-22
2.678933197e-20
1.881620581e-22
9.26862997e-24
1.188805142e-20
1.39013224e-22
3.136998397e-21
2.022032154e-21
8.550333937e-21
5.051151065e-21
3.479452113e-21
1.771533679e-20
4.614315269e-21
3.611664014e-21
2.776528747e-21
2.511642902e-21
4.832816759e-21
1.40175728e-21
1.401379312e-20
1.303153528e-21
9.257273763e-21
6.26354967e-21
1.632188408e-20
4.622273448e-21
5.861537441e-21
2.468346575e-22
3.633215418e-21
2.277447941e-21
4.722377092e-21
1.176529886e-20
2.195226285e-21
2.669236956e-22
1.242497478e-20
8.338741061e-21
1.551359093e-21
1.204469681e-21
5.229268506e-22
1.611300702e-20
1.257539187e-21
4.758488539e-21
6.364290298e-21
4.468750581e-22
6.567629404e-21
4.139699345e-21
1.075118072e-20
9.059926803e-21
5.214666816e-21
5.171225308e-21
2.18741185e-21
4.810279439e-21
1.413502008e-21
6.938500048e-21
9.140482922e-21
2.913408812e-21
1.570064539e-21
2.312418987e-21
9.254236847e-21
9.32478001e-21
1.98676802e-21
5.333332526e-21
1.382519619e-21
5.823844062e-21
1.818748275e-20
2.693155747e-22
9.690399463e-21
1.330551253e-23
8.043707175e-22
2.942410907e-21
5.802259496e-21
1.678880237e-21
6.161796441e-21
7.008171248e-21
4.354007237e-21
1.9327841e-21
1.140035197e-20
2.173494954e-21
1.543273309e-20
1.299449035e-21
7.866818936e-21
1.279412164e-20
5.218790919e-21
3.550029929e-21
3.796820255e-21
3.515383008e-21
9.163824316e-21
2.004313824e-20
7.448550529e-22
4.501101205e-22
2.616858269e-20
1.478930343e-20
1.322722419e-20
4.530960832e-21
2.048302152e-21
4.339719086e-21
4.032159374e-21
1.000435699e-21
5.760664798e-21
4.441118301e-21
7.257131683e-22
2.070562038e-21
7.537502414e-21
1.04681032e-21
7.607268647e-22
1.264749871e-22
1.020598818e-20
4.406159962e-21
1.828628727e-21
1.112368557e-20
8.076119142e-21
5.443256058e-21
3.85208141e-21
1.294958835e-20
5.807952108e-21
6.489902025e-21
7.090776172e-21
6.34466824e-21
2.004823828e-21
8.248769753e-21
5.098174979e-22
5.426779852e-22
7.672026354e-21
2.656740765e-21
2.072183957e-21
7.033155878e-22
2.186522957e-21
4.03003853e-20
3.547061824e-21
5.963337111e-21
1.117850552e-20
4.631960291e-21
4.322362732e-21
2.831919619e-22
4.117421008e-21
6.660283452e-21
3.355382484e-21
1.153588052e-21
7.599907317e-22
9.885787345e-22
5.157444585e-21
5.556761488e-21
1.776748335e-21
5.223758955e-21
8.123113944e-22
1.661912871e-21
6.471863506e-21
5.509442177e-21
4.135915682e-21
8.393184881e-22
3.645554793e-22
1.815341756e-22
2.585577634e-21
3.58459279e-21
1.677653939e-20
7.277177649e-22
1.300175451e-20
6.99280128e-21
1.0771624e-21
2.757596284e-21
1.664036407e-20
1.217024858e-20
2.615130359e-21
6.659148569e-22
2.510808926e-21
3.267480804e-21
3.814834781e-21
5.138290106e-21
7.877791202e-21
3.947789234e-21
9.51499845e-22
2.144411177e-21
3.464717815e-20
9.695777498e-21
5.013926098e-21
1.341340166e-20
1.179604997e-22
6.626922032e-21
2.51377886e-21
1.745115248e-22
3.362564351e-21
1.183975286e-20
8.311009154e-21
1.044422211e-20
2.002211906e-21
8.832733636e-21
9.914396819e-23
1.818564754e-21
3.301886973e-22
2.489805396e-21
5.455528531e-21
2.329536367e-21
2.519023264e-21
4.080100323e-21
3.63995116e-21
3.36036346e-21
9.978299409e-21
2.239908669e-21
1.5911784e-20
1.868322701e-21
1.36005465e-21
1.566422572e-20
3.386114905e-21
3.278167118e-21
1.976193669e-20
9.384557298e-21
1.298178588e-22
3.044422042e-21
1.887036077e-20
5.500261016e-21
1.877338442e-22
1.573097761e-21
3.026697501e-21
2.901038292e-21
8.595894546e-22
1.251092149e-21
5.330495652e-22
6.216962709e-21
1.303334784e-21
1.240938723e-21
4.337536135e-22
5.197200664e-21
4.321377792e-22
1.400620574e-20
1.025178292e-22
1.219043274e-20
1.679878108e-21
3.251082158e-21
7.629069498e-22
6.848750179e-22
2.246914414e-21
1.367538061e-21
4.699601512e-21
3.693289879e-21
4.258355442e-21
4.639478498e-22
1.377380794e-22
3.608004495e-21
2.967891197e-22
2.748442945e-21
1.113211675e-21
2.176240765e-21
4.663719693e-21
4.239525024e-24
3.885526098e-20
1.413445504e-22
1.182685409e-20
3.5652908e-21
3.399837874e-21
7.916216089e-21
1.642228113e-21
9.509300654e-22
5.079614647e-21
1.563063935e-20
2.870931063e-21
1.309368733e-20
1.974020083e-22
2.175349775e-22
9.845647661e-21
1.470336245e-20
1.343834339e-21
8.270444599e-22
2.634239116e-21
1.404189168e-21
5.5967e-21
9.047728729e-21
2.426853658e-21
1.75826449e-21
7.709260002e-22
3.571669409e-21
1.389925132e-21
3.712756097e-20
1.662832276e-21
1.479156153e-21
2.038028135e-21
3.659633909e-21
1.241705557e-20
5.072102758e-21
7.328079164e-21
1.473110019e-21
8.458749074e-21
3.421110822e-21
4.811841653e-21
1.919605788e-21
6.012025137e-21
2.922177389e-21
1.563273569e-21
7.57744717e-22
1.186378492e-21
8.157837536e-21
3.449733454e-21
1.125175405e-20
1.583899603e-21
1.245004326e-21
2.59690369e-21
3.733810328e-21
7.521432221e-22
5.315725516e-21
3.799421399e-21
3.218777928e-21
3.305803396e-21
6.339880806e-21
9.754619754e-22
7.025755479e-21
2.099229197e-21
6.992567023e-21
2.891214799e-21
1.975264757e-21
5.928234598e-22
3.62907816e-21
1.42704633e-21
8.551244218e-21
4.567976101e-21
5.21254966e-21
3.402112253e-21
3.816765277e-21
9.714942835e-21
2.003128877e-21