/*--------------------------------*- C++ -*----------------------------------*\
| =========                 |                                                 |
| \\      /  F ield         | OpenFOAM: The Open Source CFD Toolbox           |
|  \\    /   O peration     | Version:  2406                                  |
|   \\  /    A nd           | Website:  www.openfoam.com                      |
|    \\/     M anipulation  |                                                 |
\*---------------------------------------------------------------------------*/
FoamFile
{
    version     2.0;
    format      ascii;
    arch        "LSB;label=32;scalar=64";
    class       labelField;
    location    "0.007/lagrangian/dsmc";
    object      origId;
}
// * * * * * * * * * * * * * * * * * * * * * * * * * * * * * * * * * * * * * //


6882
(
344332
346897
347116
347909
347942
348618
348627
348952
349275
349555
349772
349862
350063
350173
350260
350261
350281
350372
350477
350490
350685
350780
350882
350899
350982
350988
351015
351101
351392
351393
351405
351417
351504
351512
351599
351605
351617
351906
352002
352007
352023
352117
352132
352138
352224
352230
352239
352255
352420
352423
352442
352625
352636
352650
352654
352838
352839
352846
352926
352937
352941
353022
353024
353031
353037
353052
353054
353136
353149
353242
353244
353349
353360
353438
353447
353453
353454
353473
353533
353542
353546
353554
353557
353575
353600
353648
353656
353657
353669
353676
353737
353739
353740
353742
353753
353761
353762
353765
353769
353841
353843
353850
353851
353857
353862
353866
353951
353954
353959
354063
354067
354073
354074
354100
354150
354163
354175
354185
354268
354282
354291
354312
354358
354368
354370
354371
354373
354378
354381
354398
354463
354475
354476
354478
354482
354492
354567
354573
354575
354577
354583
354592
354603
354609
354668
354671
354672
354689
354693
354761
354763
354764
354767
354774
354779
354783
354784
354785
354790
354791
354798
354875
354883
354884
354933
354971
354976
354978
354981
354985
354987
354989
354996
355089
355090
355091
355101
355164
355165
355167
355170
355184
355186
355187
355197
355204
355218
355255
355268
355270
355278
355285
355290
355299
355303
355322
355387
355391
355392
355393
355394
355399
355403
355406
355412
355418
355420
355434
355440
355447
355451
355478
355482
355484
355485
355487
355490
355497
355503
355517
355554
355581
355587
355589
355590
355598
355599
355605
355607
355608
355612
355613
355615
355620
355676
355677
355678
355681
355691
355695
355708
355709
355711
355718
355725
355726
355732
355768
355788
355791
355794
355795
355799
355803
355806
355807
355808
355809
355814
355816
355819
355821
355828
355855
355869
355895
355896
355899
355900
355902
355904
355907
355908
355913
355915
355920
355926
355931
355933
355944
355949
355998
356000
356005
356007
356008
356010
356012
356013
356016
356020
356022
356024
356035
356037
356049
356050
356051
356084
356098
356102
356105
356106
356107
356109
356111
356112
356114
356115
356120
356128
356129
356132
356133
356134
356144
356145
356155
356157
356158
356167
356182
356199
356203
356205
356211
356212
356213
356214
356215
356217
356218
356220
356222
356227
356233
356234
356252
356268
356284
356299
356300
356301
356307
356311
356315
356317
356319
356324
356327
356328
356329
356330
356334
356340
356342
356343
356344
356351
356361
356398
356403
356405
356408
356409
356410
356411
356414
356430
356432
356436
356437
356440
356441
356445
356446
356448
356450
356452
356460
356472
356477
356485
356488
356494
356498
356503
356508
356509
356511
356523
356524
356531
356542
356565
356586
356601
356602
356609
356611
356614
356619
356621
356622
356627
356633
356636
356645
356650
356664
356667
356669
356670
356671
356674
356675
356678
356679
356692
356696
356705
356709
356711
356713
356715
356718
356720
356721
356724
356725
356736
356738
356739
356741
356742
356753
356762
356765
356766
356774
356777
356778
356782
356807
356810
356812
356813
356814
356816
356817
356821
356824
356826
356827
356828
356831
356834
356835
356836
356837
356839
356848
356850
356858
356859
356871
356875
356879
356885
356891
356903
356904
356908
356910
356911
356912
356916
356917
356918
356919
356921
356923
356925
356927
356929
356930
356933
356934
356935
356939
356940
356943
356944
356946
356950
356951
356955
356956
356962
356972
356977
356978
356986
356992
356993
357007
357010
357016
305942
357021
357024
357025
357026
357027
357028
357033
357035
357039
357041
357042
357043
357045
357046
357047
357049
357052
357054
357059
357062
357066
357069
357070
357072
357082
357084
357085
357086
357090
357093
357095
357096
357098
357101
357105
357108
357110
357112
357114
357115
357119
357121
357122
357124
357127
357128
357129
357130
357132
357133
357134
357138
357142
357144
357147
357151
357152
357153
357155
357156
357158
357159
357165
357166
357168
357169
357170
357171
357172
357175
357179
357183
357184
357187
357194
357196
357197
357220
357222
357223
357227
357228
357229
357230
357232
357234
357236
357237
357238
357239
357240
357241
357242
357243
357244
357245
357246
357247
357248
357252
357254
357256
357257
357259
357261
357262
357264
357265
357273
357275
357277
357279
357280
357286
357287
357291
357292
357293
357294
357298
357301
357302
357308
357315
357317
357318
357321
357322
357325
357329
357332
357335
357337
357339
357340
357341
357343
357345
357346
357347
357349
357351
357352
357355
357356
357360
357361
357362
357364
357366
357367
357368
357369
357371
357372
357373
357377
357380
357382
357385
357386
357387
357389
357390
357394
357395
357396
357398
357400
357401
357404
357406
357407
357408
357411
357420
357426
357427
357429
357432
357433
357434
357435
357438
357439
357440
357441
357443
357444
357446
357447
357450
357452
357454
357455
357456
357459
357460
357461
357462
357463
357466
357469
357470
357471
357472
357474
357475
357481
357485
357486
357488
357490
357492
357493
357494
357496
357497
357498
357501
357503
357505
357506
357507
357510
357513
357518
357526
357528
357530
357531
357535
357536
357541
357543
357544
357545
357547
357550
357552
357553
357554
357555
357556
357557
357558
357559
357560
357561
357562
357563
357564
357565
357567
357568
357569
357571
357572
357573
357574
357580
357583
357585
357586
357587
357590
357591
357592
357593
357594
357596
357599
357600
357602
357605
357609
357613
357614
357618
357619
357625
357628
357635
357636
357637
357639
357640
357641
357642
357643
357644
357646
357648
357649
357651
357652
357653
357654
357655
357656
357658
357659
357660
357662
357663
357664
357665
357666
357668
357669
357670
357672
357675
357677
357680
357682
357688
357691
357694
357696
357698
357701
357704
357705
357706
357707
357709
357710
357716
357718
357719
357720
357721
357722
357727
357729
357731
357733
357734
357736
357740
357744
357745
357747
357749
357750
357751
357752
357753
357754
357756
357757
357758
357759
357760
357761
357762
357763
357767
357768
357769
357772
357773
357774
357775
357776
357777
357778
357779
357781
357782
357783
357784
357785
357787
357788
357789
357791
357792
357794
357796
357797
357799
357800
357801
357802
357805
357806
357808
357809
357811
357812
357814
357815
357816
357821
357827
357828
357829
357833
357834
357836
357838
357840
305352
357842
357845
357847
357848
357849
357850
357851
357855
357856
357857
357858
357859
357862
357864
357865
357867
357868
357869
357870
357871
357874
357875
357876
357877
357879
357880
357881
357882
357883
357885
357886
357887
357888
357891
357892
357893
357896
357897
357898
357899
357901
357902
357905
357907
357909
357910
357915
357916
357919
357921
357922
357923
357925
357927
357932
357934
357935
357936
357939
357943
357944
357945
357946
357948
357949
357950
357951
357952
357953
357954
357956
357957
357958
357959
357960
357961
357962
357963
357964
357965
357966
357967
357969
357970
357971
357973
357974
357976
357977
357978
357980
357981
357983
357986
357988
357989
357990
357991
357992
357993
357994
357995
357996
357998
358000
358002
358003
358004
358005
358006
358010
358011
358013
358014
358015
358016
358020
358021
358022
358025
358026
358027
358028
358030
358035
358036
306741
358040
358041
358042
358044
358045
358046
358047
358048
358050
358051
358053
358054
358055
358056
358059
358061
358062
358063
358064
358065
358066
358067
358068
358070
358071
358072
358073
358074
358075
358076
358079
358081
358082
358083
358084
358085
358086
358087
358088
358089
358090
358092
358094
358095
358096
358097
358098
358099
358100
358101
358102
358104
358105
358106
358108
358109
358110
358113
358114
358115
358116
358118
358121
358122
358125
358129
358130
358132
358133
358135
358136
358140
358141
358142
358143
358144
358146
358147
358148
358149
358150
358151
358152
358153
358154
358157
358158
358160
358161
358162
358163
358164
358165
358166
358167
358168
358169
358170
358171
358172
358173
358174
358176
358178
358179
358180
358181
358182
358183
358184
358185
358186
358188
358189
358193
358194
358195
358196
358199
358200
358201
358203
358204
358205
358206
358207
358208
358209
358210
358211
358212
358213
358214
358215
358216
358218
358219
358221
358225
358227
358228
358239
358242
358244
358245
358250
358251
358253
358254
358256
358257
358258
358259
358261
358262
358263
358264
358265
358266
358267
358268
358269
358271
358273
358275
358276
358277
358278
358280
358281
358282
358283
358284
358285
358286
358287
358288
358289
358290
358291
358293
358294
358297
358298
358299
358301
358302
358303
358304
358305
358306
358307
358308
358309
358310
358312
358315
358316
358317
358318
358319
358320
358321
358322
358324
358325
358328
358330
358331
358333
358335
358336
358339
358342
358343
358347
358349
358350
358351
358352
358353
358354
358356
358357
358358
358359
358360
358361
358362
358363
358364
358365
358366
358369
358370
358371
358372
358373
358374
358376
358377
358378
358379
358380
358381
358382
358383
358385
358386
358387
358388
358389
358391
358392
358393
358394
358396
358397
358398
358399
358400
358401
358402
358403
358404
358405
358407
358408
358409
358410
358412
358413
358414
358415
358417
358418
358419
358420
358421
358422
358423
358427
358428
358429
358431
358434
358435
358438
358439
358440
358441
358442
358443
307084
307177
307266
358444
358446
358447
358448
358451
358453
358455
358456
358457
358458
358459
358460
358461
358462
358463
358464
358465
358466
358467
358468
358469
358470
358472
358473
358474
358475
358476
358478
358479
358480
358482
358483
358484
358485
358486
358487
358488
358489
358490
358491
358492
358493
358494
358495
358496
358497
358498
358499
358500
358501
358502
358503
358504
358505
358506
358507
358508
358509
358510
358511
358512
358513
358514
358515
358516
358517
358519
358520
358521
358523
358525
358532
358536
358537
358539
358541
358544
358545
358547
305436
306576
358549
358550
358551
358552
358553
358555
358556
358557
358558
358559
358560
358561
358562
358563
358564
358565
358566
358567
358568
358570
358571
358572
358573
358575
358576
358577
358578
358579
358580
358581
358582
358583
358584
358585
358586
358587
358588
358589
358590
358591
358592
358594
358595
358596
358597
358598
358599
358600
358601
358602
358603
358605
358606
358607
358608
358609
358610
358611
358612
358613
358614
358615
358616
358617
358618
358619
358620
358621
358622
358623
358624
358625
358626
358627
358628
358629
358630
358631
358632
358633
358635
358636
358637
358638
358641
358647
358648
358650
358651
358652
358653
307438
358662
358663
358667
358668
358669
358670
358671
358672
358673
358674
358675
358676
358677
358678
358679
358680
358681
358683
358684
358685
358686
358687
358688
358689
358690
358691
358692
358693
358694
358695
358696
358697
358698
358699
358701
358702
358703
358704
358705
358706
358707
358708
358709
358710
358711
358712
358713
358714
358715
358716
358717
358718
358719
358720
358721
358722
358723
358724
358725
358726
358727
358728
358729
358730
358731
358732
358733
358734
358735
358738
358739
358740
358742
358743
358744
358746
358748
358750
358751
358752
358753
358755
358756
358757
358761
358762
347426
306038
358763
358768
358769
358770
358772
358773
358774
358775
358776
358777
358778
358779
358780
358782
358784
358785
358786
358787
358788
358789
358790
358791
358792
358793
358794
358795
358796
358797
358798
358799
358800
358802
358803
358804
358805
358806
358807
358808
358810
358811
358812
358813
358814
358815
358816
358817
358818
358819
358820
358821
358822
358823
358824
358825
358826
358827
358828
358829
358830
358831
358832
358833
358834
358835
358836
358837
358838
358839
358840
358841
358842
358843
358844
358845
358846
358847
358848
358849
358850
358851
358852
358853
358854
358855
358856
358857
358858
358859
358860
358862
358863
358865
358866
358867
358868
358869
358870
306743
358872
358873
358874
358875
358876
358877
358878
358879
358882
358883
358884
358885
358886
358887
358889
358890
358891
358892
358893
358894
358895
358896
358897
358898
358899
358900
358901
358902
358903
358904
358905
358906
358907
358908
358909
358910
358912
358913
358914
358915
358916
358917
358919
358920
358921
358922
358923
358924
358925
358926
358927
358928
358929
358930
358931
358932
358933
358934
358935
358936
358937
358938
358939
358940
358941
358942
358943
358944
358945
358946
358947
358949
358950
358952
358953
358954
358957
358959
358960
358962
358963
358964
307439
307620
307706
358968
358969
358973
358974
358975
358976
358978
358979
358980
358981
358982
358983
358984
358986
358987
358988
358989
358990
358991
358992
358993
358994
358995
358996
358997
358998
358999
359000
359001
359002
359003
359004
359005
359006
359007
359008
359009
359010
359011
359012
359013
359014
359015
359016
359017
359018
359019
359020
359021
359022
359023
359024
359025
359027
359028
359030
359031
359032
359033
359034
359035
359037
359038
359039
359042
359044
359045
359046
359047
359048
359050
359053
359055
359056
359057
306027
307351
359059
359061
359062
359063
359065
359066
359067
359068
359069
359070
359072
359073
359074
359075
359076
359077
359078
359079
359080
359081
359082
359083
359084
359085
359086
359087
359088
359089
359090
359091
359092
359093
359094
359095
359096
359097
359098
359099
359100
359101
359102
359103
359104
359105
359106
359107
359108
359109
359110
359111
359112
359113
359114
359115
359116
359117
359118
359119
359120
359121
359122
359123
359124
359125
359126
359127
359128
359129
359130
359131
359132
359133
359134
359135
359136
359137
359138
359139
359140
359141
359142
359143
359144
359146
359149
359150
359151
359153
359154
359158
359159
359161
359162
359163
359164
359165
359166
359168
359169
359170
307804
359173
359174
359175
359176
359179
359180
359181
359182
359183
359185
359186
359187
359188
359189
359190
359191
359192
359193
359194
359195
359196
359197
359198
359199
359200
359201
359202
359203
359204
359205
359206
359207
359208
359209
359210
359211
359212
359213
359214
359215
359216
359217
359218
359219
359220
359221
359222
359223
359224
359225
359226
359227
359228
359229
359230
359231
359232
359233
359234
359235
359236
359237
359238
359239
359240
359241
359242
359243
359244
359245
359246
359247
359248
359249
359251
359252
359253
359254
359257
359258
359259
359260
359261
359262
359263
359264
359267
359269
359270
359271
359272
359274
359275
359277
359280
359282
359283
359284
359285
359286
359287
359288
359289
359290
359291
359292
359293
359294
359295
359296
359297
359298
359299
359300
359301
359302
359303
359304
359305
359306
359307
359308
359309
359310
359311
359312
359313
359314
359315
359316
359317
359318
359319
359320
359321
359322
359323
359324
359325
359326
359327
359328
359329
359330
359331
359332
359333
359334
359335
359336
359337
359338
359339
359340
359341
359342
359343
359344
359345
359347
359348
359349
359350
359352
359354
359357
359359
359360
359362
359363
306672
307008
359365
359367
359369
359370
359371
359372
359373
359374
359375
359376
359379
359380
359381
359382
359383
359384
359385
359386
359387
359388
359389
359390
359391
359392
359393
359394
359395
359396
359397
359398
359399
359400
359401
359402
359403
359404
359405
359406
359407
359408
359409
359410
359411
359412
359413
359414
359415
359416
359417
359418
359419
359420
359421
359422
359423
359424
359425
359426
359427
359428
359429
359430
359431
359432
359433
359434
359435
359436
359437
359438
359439
359440
359441
359442
359443
359445
359446
359447
359449
359450
359452
359455
359456
359461
359462
359463
359464
359468
342415
359469
359472
359473
359474
359476
359477
359478
359480
359481
359482
359483
359484
359485
359486
359488
359489
359490
359491
359492
359493
359494
359495
359496
359497
359498
359499
359500
359501
359502
359503
359504
359505
359506
359507
359508
359509
359510
359511
359512
359513
359514
359515
359516
359517
359518
359519
359520
359521
359522
359523
359524
359525
359526
359527
359528
359529
359530
359531
359532
359533
359534
359535
359536
359537
359538
359539
359540
359541
359542
359543
359544
359545
359546
359547
359548
359550
359551
359552
359555
359556
359557
359558
359559
359560
359561
359562
359565
359567
359568
359569
359570
359571
359572
359573
359574
359575
306666
307352
308065
308066
308067
359576
359577
359578
359580
359581
359582
359586
359587
359588
359589
359590
359591
359592
359593
359594
359595
359596
359597
359598
359599
359600
359601
359602
359603
359604
359605
359606
359607
359608
359609
359610
359611
359612
359613
359614
359615
359616
359617
359618
359619
359620
359621
359622
359623
359624
359625
359626
359627
359628
359629
359630
359631
359632
359633
359634
359635
359636
359637
359638
359639
359640
359641
359642
359643
359644
359645
359646
359647
359648
359649
359650
359651
359652
359653
359655
359656
359657
359658
359659
359660
359661
359663
359667
359670
359671
359672
359673
359674
359676
359677
359678
359680
307095
307805
359681
359682
359684
359686
359687
359688
359689
359690
359691
359692
359693
359694
359695
359696
359697
359698
359699
359700
359701
359702
359703
359704
359705
359706
359707
359708
359709
359710
359711
359712
359713
359714
359715
359716
359717
359718
359719
359720
359721
359722
359723
359724
359725
359726
359727
359728
359729
359730
359731
359732
359733
359734
359735
359736
359737
359738
359739
359740
359741
359742
359743
359744
359745
359746
359747
359748
359749
359750
359751
359752
359753
359754
359755
359756
359757
359758
359759
359760
359761
359762
359763
359764
359765
359766
359769
359770
359771
359773
359774
359775
359779
359780
359781
359782
359784
359785
359786
359787
359788
359789
359790
359791
359792
359793
359794
359795
359796
359797
359798
359799
359800
359801
359802
359803
359804
359805
359806
359807
359808
359809
359810
359811
359812
359813
359814
359815
359816
359817
359818
359819
359820
359821
359822
359823
359824
359825
359826
359827
359828
359829
359830
359831
359832
359833
359834
359835
359836
359837
359838
359839
359840
359841
359842
359843
359844
359845
359846
359847
359848
359849
359850
359851
359852
359853
359854
359856
359857
359858
359859
359860
359861
359862
359863
359864
359865
359866
359867
359870
359871
359873
359874
350407
306673
359875
359877
359880
359884
359885
359886
359888
359889
359891
359892
359893
359894
359895
359896
359897
359898
359899
359900
359901
359902
359903
359904
359905
359906
359907
359908
359909
359910
359911
359912
359913
359914
359915
359916
359917
359918
359919
359920
359921
359922
359923
359924
359925
359926
359927
359928
359929
359930
359931
359932
359933
359934
359935
359936
359937
359938
359939
359940
359941
359942
359943
359944
359945
359946
359947
359948
359949
359951
359952
359953
359955
359956
359957
359958
359959
359960
359961
359962
359963
359964
359965
359966
359967
359968
359969
359974
359975
359977
359978
359979
359980
359981
359982
359984
306509
358032
308323
308406
308407
359985
359986
359991
359994
359995
359996
359997
359998
360000
360001
360002
360003
360004
360005
360006
360007
360008
360009
360010
360011
360012
360013
360014
360015
360016
360017
360018
360019
360020
360021
360022
360023
360024
360025
360026
360027
360028
360029
360030
360031
360032
360033
360034
360035
360036
360037
360038
360039
360040
360041
360042
360043
360044
360045
360046
360047
360048
360049
360050
360051
360052
360053
360054
360055
360056
360057
360058
360059
360060
360061
360062
360063
360064
360065
360066
360067
360068
360069
360070
360071
360072
360073
360074
360077
360078
360079
360080
360081
360082
360083
360084
360085
360086
360087
360088
360089
358236
307891
360090
360091
360092
360094
360095
360096
360098
360100
360101
360103
360104
360105
360106
360107
360108
360109
360110
360111
360112
360113
360114
360115
360116
360117
360118
360119
360120
360121
360122
360123
360124
360125
360126
360127
360128
360129
360130
360131
360132
360133
360134
360135
360136
360137
360138
360139
360140
360141
360142
360143
360144
360145
360146
360147
360148
360149
360150
360151
360152
360153
360154
360155
360156
360157
360158
360159
360160
360161
360162
360163
360164
360165
360166
360167
360168
360169
360170
360173
360174
360175
360176
360177
360178
360180
360181
360189
306318
307269
308495
360192
360196
360197
360198
360199
360200
360201
360202
360203
360204
360205
360206
360207
360208
360209
360210
360211
360212
360213
360214
360215
360216
360217
360218
360219
360220
360221
360222
360223
360224
360225
360226
360227
360228
360229
360230
360231
360232
360233
360234
360235
360236
360237
360238
360239
360240
360241
360242
360243
360244
360245
360246
360247
360248
360249
360250
360251
360252
360253
360254
360255
360256
360257
360258
360259
360260
360261
360262
360263
360264
360265
360266
360267
360268
360269
360270
360271
360272
360273
360274
360275
360276
360278
360279
360280
360283
360285
360286
360287
360288
307542
307809
360292
360293
360294
360295
360296
360298
360299
360300
360302
360303
360304
360305
360306
360307
360308
360309
360310
360311
360312
360313
360314
360315
360316
360317
360318
360319
360320
360321
360322
360323
360324
360325
360326
360327
360328
360329
360330
360331
360332
360333
360334
360335
360336
360337
360338
360339
360340
360341
360342
360343
360344
360345
360346
360347
360348
360349
360350
360351
360352
360353
360354
360355
360356
360357
360358
360359
360360
360361
360362
360363
360364
360365
360366
360367
360368
360369
360370
360371
360372
360373
360374
360375
360376
360377
360378
360381
360382
360383
360385
360386
360387
360388
360389
360390
360391
306665
360393
360394
360395
360398
360399
360400
360401
360402
360403
360404
360405
360406
360407
360408
360409
360410
360411
360412
360413
360414
360415
360416
360417
360418
360419
360420
360421
360422
360423
360424
360425
360426
360427
360428
360429
360430
360431
360432
360433
360434
360435
360436
360437
360438
360439
360440
360441
360442
360443
360444
360445
360446
360447
360448
360449
360450
360451
360452
360453
360454
360455
360456
360457
360458
360459
360460
360461
360462
360463
360464
360465
360466
360467
360468
360469
360471
360473
360474
360475
360476
360478
360479
360481
360486
360487
360488
360489
360492
360494
360495
360496
360497
307714
307980
308670
308928
360501
360502
360505
360506
360507
360508
360509
360511
360512
360513
360515
360516
360517
360518
360519
360520
360521
360522
360523
360524
360525
360526
360527
360528
360529
360530
360531
360532
360533
360534
360535
360536
360537
360538
360539
360540
360541
360542
360543
360544
360545
360546
360547
360548
360549
360550
360551
360552
360553
360554
360555
360556
360557
360558
360559
360560
360561
360562
360563
360564
360565
360566
360567
360568
360569
360570
360571
360572
360573
360574
360575
360576
360577
360578
360579
360580
360581
360582
360583
360584
360585
360586
360587
360589
360590
360591
360592
360593
360595
360596
360597
360598
360599
307096
307713
308156
360601
360604
360607
360608
360609
360610
360611
360612
360613
360614
360615
360616
360617
360618
360619
360620
360621
360622
360623
360624
360625
360626
360627
360628
360629
360630
360631
360632
360633
360634
360635
360636
360637
360638
360639
360640
360641
360642
360643
360644
360645
360646
360647
360648
360649
360650
360651
360652
360653
360654
360655
360656
360657
360658
360659
360660
360661
360662
360663
360664
360665
360666
360667
360668
360669
360670
360671
360672
360673
360674
360675
360676
360677
360678
360680
360681
360682
360683
360686
360687
360688
360690
360691
360693
360695
360697
360698
360699
306040
306496
308151
358433
308667
360700
360701
360702
360703
360705
360707
360708
360709
360710
360711
360712
360713
360714
360715
360716
360717
360718
360719
360720
360721
360722
360723
360724
360725
360726
360727
360728
360729
360730
360731
360732
360733
360734
360735
360736
360737
360738
360739
360740
360741
360742
360743
360744
360745
360746
360747
360748
360749
360750
360751
360752
360753
360754
360755
360756
360757
360758
360759
360760
360761
360762
360763
360765
360766
360767
360768
360769
360770
360771
360772
360773
360774
360775
360776
360777
360778
360779
360780
360781
360782
360783
360785
360787
360789
360790
360791
360794
360797
360798
360799
360800
360801
360802
360803
360804
348133
307178
307814
309024
360806
360808
360809
360810
360811
360812
360813
360815
360816
360817
360818
360819
360820
360821
360822
360823
360824
360825
360826
360827
360828
360829
360830
360831
360832
360833
360834
360835
360836
360837
360838
360839
360840
360841
360842
360843
360844
360845
360846
360847
360848
360849
360850
360851
360852
360853
360854
360855
360856
360857
360858
360859
360860
360861
360862
360863
360864
360865
360866
360867
360868
360869
360870
360871
360872
360873
360874
360875
360876
360877
360878
360879
360880
360881
360882
360883
360884
360885
360886
360887
360888
360889
360890
360892
360893
360894
360895
360897
360898
360900
360901
360903
360904
360905
352770
307181
360908
360910
360912
360913
360914
360915
360916
360917
360918
360921
360923
360924
360925
360926
360927
360928
360929
360930
360931
360932
360933
360934
360935
360936
360937
360938
360939
360940
360941
360942
360943
360944
360945
360946
360947
360948
360949
360950
360951
360952
360953
360954
360955
360956
360957
360958
360959
360960
360961
360962
360963
360964
360965
360966
360967
360968
360969
360970
360971
360972
360973
360974
360975
360976
360977
360978
360979
360980
360981
360982
360983
360984
360985
360986
360987
360988
360989
360990
360991
360992
360994
360998
360999
361001
361003
361004
361005
361007
306237
307446
307813
361008
361009
361012
361013
361014
361016
361017
361018
361019
361020
361021
361022
361023
361024
361025
361026
361027
361028
361029
361030
361031
361032
361033
361034
361035
361036
361037
361038
361039
361040
361041
361042
361043
361044
361045
361046
361047
361048
361049
361050
361051
361052
361053
361054
361055
361056
361057
361058
361059
361060
361061
361062
361063
361064
361065
361066
361067
361068
361069
361070
361071
361072
361073
361074
361075
361076
361077
361078
361079
361080
361081
361082
361083
361084
361085
361086
361087
361088
361089
361090
361094
361095
361097
361098
361099
361100
361102
361104
361105
361106
361107
361108
306940
356697
307896
308575
361109
361110
361111
361112
361114
361115
361119
361120
361122
361123
361124
361125
361126
361127
361128
361129
361130
361131
361132
361133
361134
361135
361136
361137
361138
361139
361140
361141
361142
361143
361144
361145
361146
361147
361148
361149
361150
361151
361152
361153
361154
361155
361156
361157
361158
361159
361160
361161
361162
361163
361164
361165
361166
361167
361168
361169
361170
361171
361172
361173
361174
361175
361176
361177
361178
361179
361180
361181
361182
361183
361184
361185
361186
361187
361188
361189
361190
361191
361192
361194
361195
361196
361198
361202
361204
361205
361208
307802
307901
359465
309379
361210
361211
361212
361213
361214
361216
361217
361218
361219
361220
361221
361222
361223
361224
361225
361226
361227
361228
361229
361230
361231
361232
361233
361234
361235
361236
361237
361238
361239
361240
361241
361242
361243
361244
361245
361246
361247
361248
361249
361250
361251
361252
361253
361254
361255
361256
361257
361258
361259
361260
361261
361262
361263
361264
361265
361266
361267
361268
361269
361270
361271
361272
361273
361274
361275
361276
361277
361278
361279
361280
361281
361282
361283
361284
361285
361286
361287
361288
361289
361290
361291
361292
361293
361294
361295
361296
361297
361298
361299
361300
361301
361302
361304
361307
361308
361309
361311
361312
307633
307711
308840
309639
360380
361315
361316
361317
361318
361319
361321
361322
361323
361324
361325
361326
361327
361328
361329
361330
361331
361332
361333
361334
361335
361336
361337
361338
361339
361340
361341
361342
361343
361344
361345
361346
361347
361348
361349
361350
361351
361352
361353
361354
361355
361356
361357
361358
361359
361360
361361
361362
361363
361364
361365
361366
361367
361368
361369
361370
361371
361372
361373
361374
361375
361376
361377
361378
361379
361380
361381
361382
361383
361384
361385
361386
361387
361388
361389
361390
361392
361393
361394
361395
361396
361397
361398
361399
361402
361403
361404
361405
361406
361407
361408
361409
361410
361411
306500
307353
308238
308927
309720
309817
361413
361414
361420
361421
361422
361423
361424
361425
361426
361427
361428
361429
361430
361431
361432
361433
361434
361435
361436
361437
361438
361439
361440
361441
361442
361443
361444
361445
361446
361447
361448
361449
361450
361451
361452
361453
361454
361455
361456
361457
361458
361459
361460
361461
361462
361463
361464
361465
361466
361467
361468
361469
361470
361471
361472
361473
361474
361475
361476
361477
361478
361479
361480
361481
361482
361483
361484
361485
361486
361487
361488
361489
361490
361491
361492
361493
361494
361495
361496
361497
361498
361499
361500
361501
361502
361503
361504
361505
361508
361510
361511
305684
309202
309721
309722
361513
361514
361515
361517
361518
361519
361520
361521
361522
361523
361525
361526
361527
361528
361529
361530
361531
361532
361533
361534
361535
361536
361537
361538
361539
361540
361541
361542
361543
361544
361545
361546
361547
361548
361549
361550
361551
361552