/*--------------------------------*- C++ -*----------------------------------*\
| =========                 |                                                 |
| \\      /  F ield         | OpenFOAM: The Open Source CFD Toolbox           |
|  \\    /   O peration     | Version:  2406                                  |
|   \\  /    A nd           | Website:  www.openfoam.com                      |
|    \\/     M anipulation  |                                                 |
\*---------------------------------------------------------------------------*/
FoamFile
{
    version     2.0;
    format      ascii;
    arch        "LSB;label=32;scalar=64";
    class       Cloud<dsmcParcel>;
    location    "0.007/lagrangian/dsmc";
    object      positions;
}
// * * * * * * * * * * * * * * * * * * * * * * * * * * * * * * * * * * * * * //

6882
(
(0.07125943787 0.04983698543 0) 489
(0.05192501121 0.04072184827 -2.168404345e-19) 476
(0.0734752665 0.04415152803 2.710505431e-20) 479
(0.03753705514 0.07636608805 0) 534
(0.05291251388 0.02662883673 -2.168404345e-19) 456
(0.05242633842 0.02303604169 2.168404345e-19) 456
(0.01465511844 0.05168231823 1.355252716e-19) 501
(0.06725051649 0.05841758067 -2.168404345e-19) 498
(0.07605515719 0.02681326065 0) 449
(0.06937503861 0.04083917095 -1.626303259e-19) 479
(0.05723829145 0.04007340617 5.421010862e-20) 477
(0.07187186852 0.02403011974 -1.084202172e-19) 449
(0.0508174863 0.02548400892 0) 456
(0.01564294974 0.03758087952 8.131516294e-20) 482
(0.06371827427 0.09516332545 5.421010862e-19) 558
(0.06171781647 0.0188894487 1.084202172e-19) 448
(0.02449443514 0.007764908541 0) 443
(0.06481144473 0.02132308049 -2.812149385e-19) 448
(0.05470167231 0.1092772111 -5.421010862e-20) 577
(0.07485304662 0.07426922591 0) 519
(0.03710136301 0.01698544454 -2.168404345e-19) 444
(0.07597830924 0.07486130132 0) 519
(0.0713572441 0.04979798019 -1.253608762e-19) 489
(0.06667153947 0.0466594547 2.168404345e-19) 488
(0.06202997348 0.1255209533 1.084202172e-19) 598
(0.06263774766 0.05012377427 -1.084202172e-19) 488
(0.06303323022 0.02165903575 0) 448
(0.06359212255 0.04325204283 5.421010862e-20) 478
(0.0389173684 0.04371903377 -2.710505431e-19) 485
(0.07587380237 0.0205353941 4.33680869e-19) 449
(0.05486334269 0.02034523686 2.168404345e-19) 447
(0.03527060302 0.08587587575 0) 544
(0.06611620576 0.03705403071 1.084202172e-19) 468
(0.04059668121 0.09699248372 2.168404345e-19) 555
(0.0725232285 0.04021115264 1.626303259e-19) 469
(0.06160231953 0.0611523484 0) 508
(0.06136588353 0.05872627481 1.084202172e-19) 498
(0.07259077032 0.02658149122 0) 459
(0.06314674323 0.03860750956 0) 478
(0.05404417426 0.03098652681 4.33680869e-19) 467
(0.01525308012 0.03455396392 0) 482
(0.05398089031 0.0175658753 2.168404345e-19) 447
(0.06983309084 0.01985570803 -4.33680869e-19) 449
(0.02996583448 0.02765622027 2.168404345e-19) 463
(0.06793548173 0.02024960081 -2.168404345e-19) 448
(0.05276091112 0.02495740514 0) 456
(0.06249896756 0.08810028113 0) 548
(0.05937872576 0.03375304884 0) 467
(0.04150607432 0.01332661941 -8.131516294e-20) 445
(0.03828243535 0.04658290852 4.33680869e-19) 495
(0.06850828898 0.02259611339 4.33680869e-19) 448
(0.0428911277 0.01559367498 -2.168404345e-19) 445
(0.05947178046 0.03445007004 -2.168404345e-19) 467
(0.06292025552 0.02921053855 -1.524659305e-20) 458
(0.06811993923 0.06709582365 2.168404345e-19) 508
(0.01800307255 0.03538021208 -2.168404345e-19) 482
(0.06998184982 0.02413221637 0) 449
(0.05323945947 0.03818548574 0) 476
(0.04308214202 0.01706604528 -1.084202172e-19) 445
(0.07489152928 0.06168904737 0) 499
(0.06213103321 0.1007066685 -2.846030703e-19) 558
(0.05964841875 0.07115296572 0) 517
(0.06874364335 0.02949628189 -1.084202172e-19) 459
(0.05848688004 0.02146225011 1.084202172e-19) 447
(0.06360626132 0.02817032573 5.421010862e-20) 458
(0.06893017103 0.02807236523 0) 459
(0.0492627885 0.01795248184 -1.084202172e-19) 446
(0.07615012926 0.05490058975 0) 489
(0.06612662071 0.01963076008 -5.421010862e-19) 448
(0.02519828324 0.01747776691 -1.084202172e-19) 453
(0.06638418285 0.03370715763 0) 468
(0.0689830449 0.03277876544 -2.168404345e-19) 469
(0.06953764654 0.0853966998 0) 539
(0.0741150496 0.02751450615 0) 459
(0.06106102326 0.0790312373 0) 528
(0.03855963254 0.02896616967 -5.421010862e-20) 465
(0.03980233432 0.02536286794 2.168404345e-19) 465
(0.060400427 0.02960940427 2.168404345e-19) 457
(0.06891721598 0.02457659219 2.168404345e-19) 449
(0.0379129655 0.04714882029 4.33680869e-19) 494
(0.05917208108 0.07194358241 -2.168404345e-19) 517
(0.06047991105 0.01970141674 -1.219727444e-19) 447
(0.07371218802 0.03852188065 -1.084202172e-19) 469
(0.04158950972 0.02012060292 5.421010862e-19) 455
(0.05262253214 0.06253569213 -2.168404345e-19) 506
(0.06545166493 0.02986102121 5.421010862e-20) 458
(0.05098885743 0.09605025384 1.084202172e-19) 556
(0.04523776197 0.01609014623 0) 445
(0.05543431259 0.0198154882 0) 447
(0.0424428003 0.01637573537 -1.084202172e-19) 445
(0.07505443586 0.04158857636 0) 479
(0.0310391696 0.03630766418 4.33680869e-19) 474
(0.07413062852 0.02612077425 0) 449
(0.07442984246 0.02165759698 0) 449
(0.07364775456 0.05547019297 2.168404345e-19) 499
(0.06435169785 0.07337660182 -2.168404345e-19) 518
(0.06340850014 0.03678490142 -1.084202172e-19) 468
(0.04545999936 0.01242435796 4.33680869e-19) 445
(0.06466776847 0.0247324539 3.388131789e-19) 458
(0.05541768119 0.02145603562 2.168404345e-19) 447
(0.07243006644 0.07484114583 -1.016439537e-20) 519
(0.07539329681 0.07250862547 -1.219727444e-19) 519
(0.06067062176 0.02192035089 0) 447
(0.05098675106 0.02346087532 2.168404345e-19) 456
(0.07311761462 0.04294795396 -1.084202172e-19) 479
(0.06558918546 0.03140890729 5.421010862e-20) 458
(0.05662938815 0.02218077136 0) 447
(0.06063317072 0.01719453972 2.168404345e-19) 447
(0.03897538994 0.01440731189 8.131516294e-20) 445
(0.07150888529 0.03547279761 0) 469
(0.05796649952 0.02157245945 -1.626303259e-19) 447
(0.06025717511 0.02279567455 0) 447
(0.05513095334 0.06789136915 -2.168404345e-19) 517
(0.07034278144 0.09102269017 2.710505431e-20) 549
(0.06348708927 0.02664119812 -1.084202172e-19) 458
(0.04756291234 0.03832823436 2.710505431e-19) 476
(0.0434891222 0.02178730082 2.168404345e-19) 455
(0.05219423151 0.05598006744 2.168404345e-19) 496
(-0.0001860292704 0.005582426077 0) 19
(0.04559747237 0.1299391399 2.168404345e-19) 605
(0.07378844769 0.05655795525 0) 499
(0.07037105449 0.02155881283 -1.084202172e-19) 449
(0.06696411985 0.02883382923 0) 458
(0.05715461585 0.01543734082 -4.33680869e-19) 447
(0.05921493836 0.0540536017 0) 497
(0.02623489639 0.01543486109 1.355252716e-19) 453
(0.03803293576 0.01095331287 0) 444
(0.06916611975 0.03908139454 0) 469
(0.01717110311 0.03265424267 -2.439454888e-19) 472
(0.07190500508 0.07802757129 -1.084202172e-19) 529
(0.0571976874 0.02591793111 1.490777987e-19) 457
(0.05243472909 0.01476654618 2.168404345e-19) 446
(0.05566891338 0.02342836897 -1.084202172e-19) 457
(0.06741640773 0.02729787674 2.168404345e-19) 458
(0.02262743713 0.03956056161 0) 482
(0.01385622867 0.01060216234 0) 441
(0.07487775551 0.03962216836 0) 469
(-0.005994881283 0.02647519681 -2.710505431e-20) 79
(0.05164242202 0.01749337469 -2.168404345e-19) 446
(0.02576365316 0.01047729235 -5.421010862e-20) 443
(0.04139095387 0.01610943205 0) 445
(0.06539222197 0.0507997369 0) 488
(0.04739351887 0.02859781765 0) 466
(0.06719865727 0.02051552886 1.084202172e-19) 448
(0.03433315744 0.02091508887 9.486769009e-20) 454
(0.06294490789 0.03259865623 -2.168404345e-19) 468
(0.06462083637 0.03959332861 -3.117081246e-19) 478
(0.05000627434 0.02081494952 -2.168404345e-19) 456
(0.01667256115 0.07264139866 1.084202172e-19) 532
(0.04214940997 0.04441163692 -2.710505431e-20) 485
(0.06546906885 0.0185256845 2.168404345e-19) 448
(0.06835428964 0.02351329119 0) 448
(0.04819744395 0.06896849529 0) 516
(0.06817759046 0.0251880481 -2.168404345e-19) 448
(0.05524150976 0.01556070389 2.168404345e-19) 447
(0.03807878758 0.01794568418 0) 454
(0.0273912169 0.02105228596 -3.252606517e-19) 453
(0.06997120017 0.03072969121 2.168404345e-19) 459
(0.07362193018 0.02682866811 0) 459
(0.06645643483 0.07532766947 -2.168404345e-19) 528
(0.01792504224 0.01082160496 0) 442
(0.05366855318 0.034498263 0) 467
(0.008582764845 0.0410952401 0) 491
(0.02889435166 0.04704112337 1.084202172e-19) 493
(0.07416857568 0.15357197 -4.33680869e-19) 639
(0.07195223918 0.03500173708 2.981555974e-19) 469
(0.07103565765 0.06182838652 0) 509
(0.06974421553 0.03267225909 0) 459
(0.03870221706 0.0313506762 4.33680869e-19) 465
(0.01830766515 0.05906735078 -1.084202172e-19) 512
(0.06774912746 0.05570137653 1.084202172e-19) 498
(0.07233449858 0.07001396541 7.115076757e-20) 519
(0.0327309189 0.01433159949 -5.421010862e-20) 444
(0.01005609862 0.0317679454 3.252606517e-19) 471
(0.05424006892 0.05097224076 0) 497
(0.05707633629 0.01831396731 -6.776263578e-21) 447
(0.05475334498 0.02954438059 0) 467
(0.06613381539 0.06484216533 2.168404345e-19) 508
(0.07086398094 0.05270274014 -1.084202172e-19) 489
(0.05766526367 0.03637132611 3.794707604e-19) 467
(0.05031193215 0.01687314054 -1.355252716e-20) 446
(-0.02800459015 0.01981959625 1.084202172e-19) 56
(0.03806477807 0.01481527416 0) 444
(0.07072553553 0.05613823174 3.726944968e-19) 499
(0.06467209615 0.02467369908 -3.523657061e-19) 458
(0.05871547985 0.02024655567 0) 447
(0.05623662212 0.04898962551 0) 487
(0.07300882447 0.1282161315 -2.25310764e-19) 599
(0.07249629258 0.02855672419 -1.084202172e-19) 459
(0.03204270096 0.01826191979 3.252606517e-19) 454
(0.05662263564 0.02460600731 -5.421010862e-20) 457
(0.06805347803 0.0492483031 1.084202172e-19) 488
(0.06262705478 0.01761065452 0) 448
(0.05593355939 0.03808119616 0) 477
(0.0555124076 0.02487683358 0) 457
(0.07616041839 0.06333412783 -2.168404345e-19) 509
(0.04361499849 0.08644356022 2.168404345e-19) 545
(0.0342860485 0.03611298412 0) 474
(0.01017273831 0.011106281 -2.168404345e-19) 451
(0.02350478285 0.03506059234 -1.380663704e-19) 473
(0.07355355916 0.03295593669 0) 459
(0.03242938551 0.01295011183 -1.626303259e-19) 444
(0.03132970913 0.02053502906 -2.168404345e-19) 454
(0.03352698389 0.02241294981 -2.168404345e-19) 454
(0.07465325447 0.02058634937 -2.168404345e-19) 449
(0.0582198665 0.1132747801 1.084202172e-19) 577
(0.05548207594 0.04045116608 -5.421010862e-20) 477
(0.03575107099 0.08816295559 0) 544
(0.07432764405 0.03190627423 2.168404345e-19) 459
(0.06336913986 0.06251572657 1.084202172e-19) 508
(0.06328885263 0.145300265 1.084202172e-19) 628
(0.05391784791 0.1178459955 0) 587
(0.07462085755 0.03253230748 2.168404345e-19) 459
(0.07327854927 0.05141842099 2.168404345e-19) 489
(-0.01010996092 0.01098891946 -8.131516294e-20) 38
(0.07583330193 0.08056773377 -4.33680869e-19) 529
(0.02667652507 0.06154210338 5.421010862e-20) 513
(0.06025369911 0.02089491558 0) 447
(0.05401414711 0.03213972766 2.168404345e-19) 467
(0.06521858905 0.01785017251 2.168404345e-19) 448
(0.04622823874 0.1284871452 0) 606
(0.07051553642 0.01889498497 4.33680869e-19) 449
(0.01936946915 0.02976515565 0) 472
(0.04044816039 0.01457002881 9.486769009e-20) 445
(0.05002303934 0.02240023631 -2.168404345e-19) 456
(0.07567503356 0.03785706431 -2.168404345e-19) 469
(0.06309198904 0.02417590132 -1.084202172e-19) 458
(0.05588289675 0.03342044976 -1.626303259e-19) 467
(0.04110435288 0.01285770049 1.626303259e-19) 445
(0.07462047902 0.05721040998 -1.084202172e-19) 499
(0.05906398458 0.02722074038 0) 457
(0.07576853222 0.1161625928 0) 579
(0.05565654121 0.02011282484 0) 447
(0.04958541466 0.03779013345 0) 476
(0.06922745392 0.05570373241 -3.252606517e-19) 499
(0.048487202 0.01479174007 -4.33680869e-19) 446
(0.06156897144 0.01691351898 -2.168404345e-19) 448
(0.06258785469 0.05492001655 -1.084202172e-19) 498
(0.06698011977 0.02803792217 -1.626303259e-19) 458
(0.05287892314 0.03508224322 0) 466
(0.06440779833 0.03349379758 8.131516294e-20) 468
(0.06379811126 0.02892601783 0) 458
(0.05789687715 0.01709129005 -2.168404345e-19) 447
(0.06562508627 0.0585034852 -1.084202172e-19) 498
(0.06305066561 0.08833662263 0) 548
(0.07127044937 0.1274529277 -2.168404345e-19) 599
(0.06057310324 0.1061716775 -2.168404345e-19) 567
(0.07586996222 0.1229383363 -2.168404345e-19) 589
(0.006591266947 0.008355093853 2.168404345e-19) 440
(0.02586759941 0.08681959728 0) 543
(0.05950305182 0.03082058427 -2.168404345e-19) 467
(0.05563334162 0.01580170021 0) 447
(0.06967560004 0.03927246619 -1.626303259e-19) 469
(0.0011760533 0.03937972772 -1.626303259e-19) 490
(0.05538402419 0.02304752994 0) 457
(0.04160441574 0.03518757448 -2.710505431e-20) 475
(0.07312746399 0.04303030435 0) 479
(0.03368692975 0.01782731353 -1.626303259e-19) 454
(0.06591275173 0.04804923078 0) 488
(0.05879428104 0.05115455827 1.084202172e-19) 487
(0.04797312298 0.01897766453 3.252606517e-19) 446
(0.07188600626 0.05970509946 -3.252606517e-19) 499
(0.03276799802 0.0520692912 2.168404345e-19) 494
(0.06281276212 0.1237825804 -2.168404345e-19) 598
(0.06420674164 0.1022606402 0) 568
(0.0502273642 0.01445969626 2.168404345e-19) 446
(0.07241136404 0.03298220542 8.300922883e-20) 459
(0.02994362608 0.0267708998 0) 463
(0.03745252662 0.02860581172 0) 464
(0.0298822739 0.01438019053 -4.33680869e-19) 443
(0.05834550225 0.02634011757 0) 457
(0.04999763866 0.015923021 1.084202172e-19) 446
(0.04381943002 0.01285610264 0) 445
(0.05671205323 0.04040173026 0) 477
(0.04397835913 0.011903889 -4.33680869e-19) 445
(0.03876282235 0.0321965974 2.168404345e-19) 475
(0.04025979343 0.04432466264 -2.168404345e-19) 485
(0.04362102933 0.02162680538 0) 455
(0.02142963998 0.09381248355 0) 552
(0.04774208081 0.02576230703 1.084202172e-19) 456
(0.06773993792 0.03300789062 0) 468
(0.06883974975 0.02791098033 -2.168404345e-19) 459
(0.03370601909 0.06495088869 0) 514
(0.0482853844 0.04375746099 0) 486
(0.06326604826 0.04651031309 0) 488
(0.06378147762 0.02447752452 5.421010862e-19) 458
(0.005069124806 0.05727538963 -3.388131789e-20) 510
(0.05085380073 0.02293170428 2.168404345e-19) 456
(0.07452294239 0.04827126276 0) 489
(0.03352106902 0.01272991348 -2.710505431e-20) 444
(0.0328963182 0.01578287416 0) 444
(0.03158231242 0.03326376148 2.168404345e-19) 474
(0.05535505814 0.08476687782 1.626303259e-19) 537
(0.06571925717 0.0243404253 -1.084202172e-19) 448
(0.03978120699 0.01335605226 1.084202172e-19) 445
(0.05107739744 0.05230123715 -5.421010862e-20) 496
(0.06544998081 0.08591621875 5.421010862e-20) 538
(0.06826796435 0.04907820716 1.084202172e-19) 488
(0.035869196 0.1203228204 0) 594
(0.05834415304 0.01566208077 4.33680869e-19) 447
(0.04732454084 0.02976921347 0) 466
(0.06061374755 0.03751116623 0) 467
(0.02516730433 0.02023028084 0) 453
(0.03509352406 0.02806872148 0) 464
(0.05505949805 0.03383784236 -1.084202172e-19) 467
(0.06502765846 0.02899172809 5.421010862e-20) 458
(0.06670639237 0.03443485064 0) 468
(0.07040264213 0.02777743745 0) 459
(0.06773448871 0.08312823936 2.168404345e-19) 538
(0.0645695689 0.05074727581 0) 488
(0.06065480508 0.06662740817 0) 517
(0.0568656144 0.04384575863 -2.168404345e-19) 487
(0.07376307275 0.07690527737 0) 529
(0.06731146893 0.03243283226 -2.168404345e-19) 468
(0.06828345603 0.08917839101 2.168404345e-19) 548
(0.04351389514 0.02832692272 0) 465
(0.06734479979 0.07169929168 0) 518
(0.05457066554 0.06939947203 -1.084202172e-19) 517
(0.07417581168 0.08900682066 0) 539
(0.05828350145 0.1023045986 0) 567
(0.07379261217 0.08076380788 -1.084202172e-19) 529
(0.06768656765 0.1580665922 -2.168404345e-19) 638
(0.05842517576 0.03175242591 0) 467
(0.06514883931 0.06276649461 -1.626303259e-19) 508
(0.0639394128 0.03738803186 0) 468
(0.05300098057 0.01995511021 2.168404345e-19) 446
(0.01111917488 0.01724245041 -2.168404345e-19) 451
(0.05088555619 0.05490333627 -2.168404345e-19) 496
(0.021646614 0.00648481733 4.33680869e-19) 442
(0.06098927757 0.05861691419 0) 498
(0.04636773781 0.01284927221 0) 446
(0.07140887254 0.03089121226 0) 459
(0.07160262012 0.03885684135 0) 469
(0.06424414774 0.02404263415 -2.168404345e-19) 448
(0.07022537894 0.02815002075 5.421010862e-20) 459
(0.06080203707 0.07899575623 0) 527
(0.01822031705 0.01237906328 4.878909776e-19) 452
(0.06620464892 0.09716628205 0) 558
(0.05691649228 0.1213337313 -2.168404345e-19) 587
(0.07426783531 0.1517335413 4.33680869e-19) 629
(0.04862795275 0.01483959599 1.084202172e-19) 446
(0.01382236563 0.02444354433 0) 461
(0.05366349938 0.05138554965 3.252606517e-19) 497
(0.07525432753 0.04342931607 1.084202172e-19) 479
(0.06601193966 0.01850956745 0) 448
(0.01628138031 0.01291978183 5.421010862e-20) 452
(0.02955868481 0.00902294824 0) 443
(0.07510623323 0.0491700104 2.168404345e-19) 489
(0.06049122527 0.03864108882 2.168404345e-19) 477
(0.04256997958 0.01542466877 2.168404345e-19) 445
(0.05148472012 0.06305785932 4.33680869e-19) 506
(0.05910353358 0.01660377018 0) 447
(0.06520720798 0.06539423958 2.981555974e-19) 508
(0.05711154283 0.02788720393 2.168404345e-19) 457
(0.03536021105 0.04676583268 -2.168404345e-19) 494
(0.07066473401 0.1254462971 -1.084202172e-19) 599
(0.06185721599 0.05088832523 4.33680869e-19) 488
(0.07021292381 0.06672567962 -1.897353802e-19) 509
(0.05132142516 0.06526945525 0) 516
(0.06636040484 0.1031875846 0) 568
(0.05645119846 0.1513503131 3.252606517e-19) 637
(0.07379747645 0.04186724568 0) 479
(0.06542931921 0.0797693825 1.626303259e-19) 528
(0.0131256592 0.01273078844 2.168404345e-19) 451
(0.05198771725 0.03934322392 0) 476
(0.04491421367 0.03422969225 4.33680869e-19) 475
(0.06717370293 0.06471610296 2.168404345e-19) 508
(0.05413280697 0.03415662286 4.33680869e-19) 467
(0.0594132294 0.04550772932 2.168404345e-19) 487
(0.05842467719 0.06530187344 0) 507
(0.06225099158 0.06546190059 -4.065758147e-19) 508
(0.04340011473 0.07673098727 -4.33680869e-19) 535
(0.05284059059 0.05025137511 -2.168404345e-19) 496
(0.06767947631 0.0306177283 0) 458
(0.05563101604 0.02483219389 3.252606517e-19) 457
(0.04137866355 0.07508755741 0) 525
(0.07157516925 0.08072947407 -3.252606517e-19) 529
(0.05189159483 0.09905913998 0) 556
(0.07266346663 0.07337523947 -1.897353802e-19) 519
(0.06041675516 0.04268192644 -2.168404345e-19) 477
(0.05122254162 0.1065812235 2.168404345e-19) 566
(0.04806592777 0.1024388754 1.084202172e-19) 566
(0.03912564251 0.1522142052 -1.626303259e-19) 635
(0.06638679004 0.1502324429 0) 628
(0.06887749232 0.1469103276 -5.421010862e-19) 629
(0.06472932975 0.1458318261 -1.050320855e-19) 628
(0.04044381047 0.01671115034 -1.084202172e-19) 445
(0.01229062912 0.01715414705 -2.168404345e-19) 451
(0.06952385503 0.03205832415 -8.131516294e-20) 459
(0.03935952683 0.03886731856 2.168404345e-19) 475
(0.07586954815 0.08037077808 2.168404345e-19) 529
(0.04015655891 0.03247704591 1.084202172e-19) 475
(0.06670959441 0.05440796506 -2.168404345e-19) 498
(0.06584839231 0.1084535915 3.252606517e-19) 568
(0.07027509196 0.0921650157 0) 549
(0.06625712746 0.1494735081 0) 628
(0.03886741575 0.03940084723 -2.168404345e-19) 485
(0.05556356718 0.03439701665 2.303929617e-19) 467
(0.05135639587 0.05683666382 4.33680869e-19) 506
(0.04157573443 0.01366838771 1.355252716e-19) 445
(0.03476818689 0.0155272464 -1.626303259e-19) 444
(0.04668657311 0.01579454019 -4.33680869e-19) 446
(0.04449718769 0.01905847672 0) 445
(0.05451838854 0.05059191432 -2.168404345e-19) 497
(0.01996480371 0.01099713014 -1.084202172e-19) 442
(0.06184567412 0.08488462551 -1.084202172e-19) 538
(0.04956788045 0.04641951143 -3.930232875e-19) 486
(0.07549887181 0.09190956001 0) 549
(0.06717563686 0.06475938397 0) 508
(0.06663795483 0.08819877405 4.33680869e-19) 538
(0.04140848822 0.144177738 1.084202172e-19) 625
(0.07417955137 0.07459509618 2.168404345e-19) 519
(0.06668223451 0.09711819107 0) 558
(0.05370231319 0.03656626222 5.421010862e-20) 477
(0.06221835683 0.1606173162 -1.084202172e-19) 648
(0.04176016309 0.08304880913 2.168404345e-19) 535
(0.07493945224 0.140111444 0) 619
(0.06178413496 0.102724664 -2.981555974e-19) 568
(0.06779872322 0.1115741741 0) 578
(0.07400389625 0.1471259329 -2.168404345e-19) 629
(0.07525060368 0.1022119963 0) 559
(0.05810816023 0.04580000593 -2.168404345e-19) 487
(0.02246202903 0.03856880756 1.084202172e-19) 482
(0.02125570506 0.02673677472 2.168404345e-19) 462
(0.07205846156 0.04033859681 0) 469
(0.05364614295 0.01543044589 0) 447
(0.06957647689 0.04386503748 2.168404345e-19) 479
(0.07484851885 0.0357550013 0) 469
(0.06418619762 0.0297176975 2.168404345e-19) 458
(0.06918866989 0.03621376992 1.355252716e-19) 469
(0.06368062992 0.04127605113 0) 478
(0.04838848015 0.03833208293 5.421010862e-20) 476
(0.04070584998 0.02392021542 3.252606517e-19) 455
(0.07403462046 0.02648867986 -2.168404345e-19) 449
(0.0537014889 0.1132268768 0) 577
(0.07221393119 0.08009002487 -2.168404345e-19) 529
(0.06444069955 0.07183737619 1.084202172e-19) 518
(0.07101655077 0.1056528013 5.421010862e-20) 569
(0.06901884104 0.13436748 0) 609
(0.06302617491 0.1075381761 -5.421010862e-20) 568
(0.03794437395 0.09700425049 -4.33680869e-19) 554
(0.06399843152 0.07956636292 1.084202172e-19) 528
(0.05960955143 0.1269681151 0) 597
(0.07552720587 0.04057860476 0) 469
(0.07178355305 0.05235825086 1.084202172e-19) 489
(0.05529263689 0.02419590521 -1.626303259e-19) 457
(0.05252945509 0.04739596783 0) 486
(0.064943643 0.02394979868 -9.486769009e-20) 448
(0.0689939891 0.02982842377 2.168404345e-19) 459
(0.06413663725 0.03320414485 0) 468
(0.04170487703 0.07580266493 -2.168404345e-19) 525
(0.05945478563 0.06518586433 0) 507
(0.06068812707 0.04276871727 -2.168404345e-19) 477
(0.03625676578 0.01244927964 -1.084202172e-19) 444
(0.06472978738 0.02895159335 -2.168404345e-19) 458
(0.06104830627 0.01771453235 1.084202172e-19) 448
(0.07440660295 0.07140797301 1.084202172e-19) 519
(0.06172023594 0.1071904038 0) 568
(0.04305163215 0.02960032604 1.084202172e-19) 465
(0.05568640824 0.03950479061 2.168404345e-19) 477
(0.06925560073 0.07777513802 2.168404345e-19) 529
(0.06128023482 0.1001507436 2.168404345e-19) 558
(0.07514712101 0.1227748339 2.168404345e-19) 589
(0.04251507005 0.09473783186 2.710505431e-19) 555
(0.05955240319 0.149003085 0) 627
(0.0377415698 0.06161625606 0) 514
(0.07060923238 0.1034343476 -2.168404345e-19) 569
(0.06745437182 0.1446915713 6.505213035e-19) 618
(0.04835514615 0.1389282541 -2.981555974e-19) 616
(0.06882498402 0.1525064655 3.388131789e-19) 639
(0.07381826464 0.04449477608 0) 479
(0.04190769951 0.02538491073 -2.168404345e-19) 455
(0.04617132831 0.02342327398 -5.421010862e-20) 456
(0.03354435957 0.01557497716 -2.168404345e-19) 444
(0.00607420807 0.01051598013 4.33680869e-19) 450
(0.03288149483 0.01113406246 -3.04931861e-20) 444
(0.02970028759 0.02390932582 0) 463
(0.07579719733 0.02463999762 -2.168404345e-19) 449
(0.01013744593 0.02869145767 1.084202172e-19) 471
(0.02827168464 0.0126607843 -1.084202172e-19) 443
(0.0710252058 0.02283833128 0) 449
(0.02815231302 0.06297347923 0) 513
(0.0720704773 0.04684596654 0) 479
(0.0578970376 0.04812873895 5.421010862e-20) 487
(0.04818849254 0.02271323731 1.626303259e-19) 456
(0.06882595262 0.04064354553 1.084202172e-19) 479
(0.04879165702 0.03803563555 -5.421010862e-20) 476
(0.04705050845 0.07757951563 2.168404345e-19) 536
(0.03501687932 0.06491993224 1.626303259e-19) 514
(0.02106396607 0.01015974194 0) 442
(0.06651239441 0.05022923244 -1.084202172e-19) 488
(0.07462087859 0.06528015596 -4.878909776e-19) 509
(0.07179392249 0.08109823274 0) 529
(0.0740200767 0.08808342093 -1.084202172e-19) 539
(0.0710887902 0.07215822383 5.421010862e-20) 519
(0.05552165542 0.08958087411 0) 547
(0.05607511915 0.09370199447 -3.252606517e-19) 557
(0.06746468751 0.08475485664 -1.897353802e-19) 538
(0.06288740279 0.07508591297 2.168404345e-19) 528
(0.05174243158 0.1123626522 0) 576
(0.04795435163 0.1323158676 -2.168404345e-19) 606
(0.07349134951 0.1194302424 0) 589
(0.06575688477 0.09635783923 0) 558
(0.06209715613 0.1423431967 2.168404345e-19) 618
(0.05362791793 0.1371611381 0) 617
(0.0437424908 0.01680872268 0) 445
(0.01602053403 0.04815228916 -2.710505431e-19) 492
(0.06956974857 0.04573571703 2.168404345e-19) 479
(0.06757789193 0.1285831848 0) 598
(0.04249540993 0.01988920417 -2.168404345e-19) 455
(0.05494903823 0.01927432796 -3.252606517e-19) 447
(0.04206979873 0.01375849826 0) 445
(0.05486850341 0.03591454813 -2.168404345e-19) 467
(0.05950354157 0.03726195946 4.33680869e-19) 477
(0.05985757699 0.03654236425 -2.168404345e-19) 467
(0.07548221717 0.02142856066 2.168404345e-19) 449
(0.05999708205 0.06581921652 0) 517
(0.01746185298 0.02219258058 -1.626303259e-19) 462
(0.04397928895 0.05069819876 -1.084202172e-19) 495
(0.06217313198 0.1408780152 -2.439454888e-19) 618
(0.05894178616 0.01751326714 2.168404345e-19) 447
(0.06428994951 0.02022458197 0) 448
(0.07078824636 0.04042561235 1.084202172e-19) 479
(0.05730494392 0.03065474412 0) 467
(0.06366108666 0.06918097454 3.388131789e-20) 518
(0.04268020808 0.06020331286 5.421010862e-20) 505
(0.06192504037 0.01814096834 -5.421010862e-20) 448
(0.07058154269 0.07475212571 1.084202172e-19) 519
(0.05174839678 0.09199986839 2.168404345e-19) 546
(0.07079388671 0.04739332912 2.168404345e-19) 489
(0.03206506071 0.1199483557 -2.168404345e-19) 594
(0.06013842836 0.07918146144 0) 527
(0.06552492575 0.110573549 0) 578
(0.05702983549 0.1346027518 -4.33680869e-19) 607
(0.0713933154 0.1363021503 2.710505431e-20) 609
(0.07144430354 0.1639030821 3.252606517e-19) 649
(0.05836703712 0.07850299033 1.084202172e-19) 527
(0.05504797258 0.1592411335 1.897353802e-19) 647
(0.05896048033 0.1495221299 -2.168404345e-19) 627
(0.07242284731 0.1135847915 2.710505431e-19) 579
(0.06166452542 0.1414724022 0) 618
(0.06657484853 0.1143968635 -2.168404345e-19) 578
(0.04896340494 0.1229804493 -2.710505431e-19) 596
(0.05656151104 0.07449809335 -3.252606517e-19) 527
(0.07599548689 0.1118674427 0) 579
(0.03002369633 0.04372965909 0) 483
(0.07372172634 0.06281396058 0) 509
(0.06160879246 0.02038230602 -4.607859233e-19) 448
(0.03693881873 0.02396621848 -2.168404345e-19) 454
(0.006932251709 0.02151037841 0) 460
(0.06729052857 0.06083302569 0) 508
(0.05698237148 0.05231082169 1.76182853e-19) 497
(0.03952333494 0.01601485195 -2.168404345e-19) 445
(0.02265859167 0.02248774493 -2.168404345e-19) 462
(0.03779293961 0.01131650956 0) 444
(0.03816051148 0.04585759099 -2.168404345e-19) 485
(0.06690644396 0.03037242593 0) 458
(0.02304582407 0.01315821751 0) 443
(0.05769204223 0.0889626966 -2.168404345e-19) 547
(0.05956011079 0.07942832562 0) 527
(0.04423161292 0.04634693242 4.33680869e-19) 485
(0.04925677576 0.02049084161 -5.421010862e-20) 456
(0.07610810435 0.0691527213 0) 509
(0.06612407431 0.06786229784 0) 518
(0.02176391469 0.09391369013 0) 552
(0.04239282566 0.06813144619 5.963111949e-19) 515
(0.05753714949 0.07375681875 2.168404345e-19) 527
(0.05773711158 0.08424227083 -5.421010862e-20) 537
(0.03809211548 0.03763927426 0) 474
(0.05451288042 0.06794306145 0) 517
(0.05927779409 0.06231585894 0) 507
(0.05732615894 0.05506987501 -1.355252716e-20) 497
(0.04720239229 0.08262362745 0) 536
(0.05167995109 0.07303311289 0) 526
(0.05290025638 0.09927556951 0) 556
(0.06705643733 0.1273287388 0) 598
(0.06714744306 0.04752082018 2.168404345e-19) 488
(0.06352681022 0.03958618147 -3.252606517e-19) 478
(0.04177169958 0.0907425151 1.490777987e-19) 555
(0.05747405555 0.08593580579 -1.626303259e-19) 537
(0.05062071065 0.0648706987 0) 516
(0.06409638801 0.1290154104 -1.084202172e-19) 598
(0.04144472816 0.1500866746 -1.084202172e-19) 635
(0.05846480959 0.1191954526 3.252606517e-19) 587
(0.04416859731 0.1423529945 0) 625
(0.05460055252 0.1240966955 0) 597
(0.04940578731 0.06870051175 1.084202172e-19) 516
(0.03881002866 0.02668917532 2.168404345e-19) 465
(0.06191078812 0.0313431292 2.168404345e-19) 468
(0.0707738281 0.06990629449 1.084202172e-19) 519
(0.02019232621 0.02587874675 -2.168404345e-19) 462
(0.05122536724 0.054157643 -1.084202172e-19) 496
(0.07514331401 0.03939004917 0) 469
(0.04667467108 0.01669674308 0) 446
(0.00804879108 0.05412819107 -3.252606517e-19) 501
(0.05901833324 0.02482468175 -2.168404345e-19) 457
(0.05461393307 0.02644900181 -1.084202172e-19) 457
(0.06015652958 0.0430044046 0) 477
(0.06689626745 0.04022078962 0) 478
(0.03229243005 0.01904132133 -1.084202172e-19) 454
(0.05641061923 0.03545804193 2.168404345e-19) 467
(0.05639641514 0.03415792477 1.626303259e-19) 467
(0.03596844187 0.04240601102 -1.084202172e-19) 484
(0.02998395697 0.02665598554 0) 463
(0.04846166032 0.0270759234 0) 456
(0.04674231933 0.07811412464 -2.168404345e-19) 536
(0.0751178204 0.05376232829 -4.33680869e-19) 489
(0.06572452846 0.04916120487 2.168404345e-19) 488
(-0.01914774898 0.02979782119 0) 77
(0.01439246594 0.04020390152 2.168404345e-19) 481
(0.06432185492 0.07409773127 3.252606517e-19) 528
(0.06314786264 0.05463453049 1.355252716e-19) 498
(0.07577683002 0.03304267712 0) 459
(0.04409984875 0.05104609368 -2.710505431e-20) 495
(0.07227573996 0.03969942283 -2.168404345e-19) 469
(0.04376478649 0.02151667517 2.168404345e-19) 455
(0.0567543321 0.05329518918 0) 497
(0.05839952256 0.1151302986 0) 577
(0.01819434278 0.1009852792 0) 572
(0.06124050863 0.08460754089 0) 538
(0.02293025511 0.1272937213 4.33680869e-19) 603
(0.07354872738 0.08531353056 1.084202172e-19) 539
(0.06328360946 0.1119805852 -4.33680869e-19) 578
(0.07258435893 0.130927905 -1.490777987e-19) 599
(0.03832932992 0.09060900765 2.168404345e-19) 555
(0.07377670395 0.09005272112 4.33680869e-19) 549
(0.05351667844 0.1611139051 5.421010862e-20) 647
(0.0291710842 0.1067461881 0) 573
(0.07549712564 0.1536701005 2.168404345e-19) 639
(0.06529488027 0.1174199862 -2.168404345e-19) 588
(0.06801898943 0.1583109859 0) 638
(0.05295284338 0.1308938788 -1.084202172e-19) 606
(0.04002172369 0.1325250961 1.626303259e-19) 605
(0.006671081293 0.04852989361 1.084202172e-19) 500
(0.03363880483 0.0138781115 -2.168404345e-19) 444
(0.07349876563 0.0458394986 -1.084202172e-19) 479
(0.07080071445 0.03056082946 0) 459
(0.03776623875 0.02961820065 -2.168404345e-19) 464
(0.01449055025 0.03377761549 0) 481
(0.03049705694 0.02079673494 3.252606517e-19) 454
(0.05478945989 0.02661161468 0) 457
(0.03971126141 0.0456472494 1.084202172e-19) 485
(0.02031905944 0.04272750264 4.33680869e-19) 492