/*--------------------------------*- C++ -*----------------------------------*\
| =========                 |                                                 |
| \\      /  F ield         | OpenFOAM: The Open Source CFD Toolbox           |
|  \\    /   O peration     | Version:  2406                                  |
|   \\  /    A nd           | Website:  www.openfoam.com                      |
|    \\/     M anipulation  |                                                 |
\*---------------------------------------------------------------------------*/
FoamFile
{
    version     2.0;
    format      ascii;
    arch        "LSB;label=32;scalar=64";
    class       vectorField;
    location    "0.007/lagrangian/dsmc";
    object      U;
}
// * * * * * * * * * * * * * * * * * * * * * * * * * * * * * * * * * * * * * //


6882
(
(1354.850849 1434.367652 252.8731729)
(1921.958067 -466.9299549 -615.8331436)
(441.4140717 709.9757877 -353.7678085)
(503.4776777 -675.1068621 263.074162)
(-173.7967188 165.707905 -59.11214721)
(106.1509895 450.9299416 -155.690831)
(-581.7005948 424.9571468 31.19426216)
(989.8904975 1073.430765 54.6122547)
(288.8729676 20.23315229 -35.06684843)
(1782.285096 260.5034421 431.2115896)
(833.5887541 -394.9575323 39.90403739)
(321.3105505 122.6505475 629.9216317)
(-53.01229685 196.6661228 670.9479006)
(60.77356042 1182.510705 375.9846741)
(1781.128488 -211.8486859 -572.876945)
(-334.3593367 -64.74169449 -831.3979166)
(473.2305805 -290.8051763 276.3357573)
(1061.764057 277.1733098 266.861249)
(2034.513411 454.36666 299.6636934)
(362.243036 78.24132317 -245.7874572)
(884.1311355 -170.5137864 -401.3722374)
(965.7270455 -432.8544621 -794.9232835)
(1959.802589 -705.3709943 -216.2308232)
(1066.043097 281.6130769 -127.6494739)
(-32.5909955 159.9452855 -83.6878852)
(86.31491958 832.6477068 -572.8431907)
(595.25098 -79.34548526 100.0127893)
(496.4109117 122.1727219 -963.6055748)
(1210.75392 1003.386874 1477.736305)
(-90.8659874 96.09564456 -13.84479571)
(-246.659088 83.05015192 -675.1817521)
(66.62406046 91.13982027 -651.4552141)
(1028.028235 -134.4694114 34.75191014)
(1217.998957 -861.9979712 279.4855731)
(-226.8878097 247.3335702 -551.6417993)
(164.69433 844.4772843 727.8282565)
(1286.067861 51.24901136 -371.7643423)
(0.541521553 -147.7621516 499.8590914)
(1306.717305 -46.15836456 707.5670759)
(1519.347527 316.0649436 -215.1546542)
(951.2892702 581.1246332 -15.51358743)
(-205.1421253 255.4535002 287.05946)
(510.3680451 -62.19558199 -263.544403)
(331.2665812 767.3263564 26.59751258)
(329.5691699 -6.272700557 -533.2902878)
(918.5723122 1178.972928 474.57269)
(1383.497199 713.3147527 414.2143574)
(409.6108116 877.8987464 -579.7950802)
(-319.7917573 -250.7516776 71.20101244)
(1587.329051 986.0474461 637.8647817)
(313.8450089 -908.6702492 -449.9734299)
(1038.397208 780.6355242 -207.4754566)
(1092.26863 531.9296831 329.7582787)
(220.7589226 665.9080184 10.03127142)
(306.8233839 1295.481443 152.1071714)
(-493.161603 596.3461843 289.9915272)
(386.5710483 -16.17675774 -27.58146142)
(1231.763619 155.9103472 542.4750054)
(852.7237876 62.74614076 772.6060083)
(12.37211189 1262.715397 -503.8744282)
(2030.414701 26.85772937 -1083.009755)
(964.1652349 875.495744 -707.5396195)
(498.6122224 -54.15140382 353.4242159)
(78.16503752 512.2612095 -619.5364727)
(-413.51896 29.76952829 204.7978428)
(1389.643106 287.5198562 -1097.604018)
(-235.6736369 -479.8102737 -96.08136326)
(2162.770097 1003.765906 -183.6437005)
(53.07865833 921.5659279 -426.6080181)
(81.76451923 -114.8096679 175.7018987)
(622.9166397 -41.83706742 -78.81087305)
(-140.74092 717.9526958 -294.6265545)
(38.94420814 -129.3333576 -199.9559259)
(1873.426371 114.2532119 451.1445991)
(1873.492765 414.6187355 877.9534217)
(-34.04733128 -70.19464169 544.5489218)
(969.3110585 110.8763619 321.0481586)
(-584.9173571 238.9842505 -72.34067149)
(933.2426015 191.3849994 -548.432101)
(-373.1815933 1359.382173 154.1248779)
(1695.305905 913.4306711 -1244.126081)
(-330.3046569 388.3579311 -100.2368943)
(339.3440436 132.6969285 108.456877)
(-478.0864561 669.7660944 -641.2272828)
(1062.687973 -927.0823219 360.2515943)
(-81.27819325 569.1342877 -89.12935687)
(489.1084056 525.8156929 36.81372385)
(1121.486787 1529.905566 -93.56951567)
(-440.147352 44.20474174 714.7799617)
(862.7027365 221.0618157 758.179621)
(998.4659892 586.4413075 -802.403472)
(1380.601493 321.6203288 650.9316404)
(1073.708275 497.6760402 261.3026727)
(1326.589668 726.3154681 -365.9915976)
(1146.238068 -244.4631979 482.3808676)
(1235.320041 1731.328968 960.314061)
(351.3931587 647.4618779 -480.6941075)
(119.9448344 -76.02116285 767.9898457)
(215.2841421 310.9709116 -94.63177673)
(189.1395933 -184.8277281 -712.9187506)
(1190.874175 924.9582486 -608.3249817)
(1187.695429 332.7748358 -30.61377983)
(501.2347796 -295.3495382 -169.1392301)
(348.03125 429.0942264 684.1427462)
(259.1546154 369.858041 -692.2004477)
(211.7822349 244.80867 518.4998964)
(465.9660036 671.3365029 -52.82376282)
(1271.035759 -559.6133654 578.1546441)
(328.80514 -51.12187894 -172.95651)
(641.6901353 721.8851923 571.3229506)
(1175.324775 160.3581726 -631.5697587)
(756.4958182 401.6137938 101.2705218)
(1248.441929 1325.991263 -84.59280272)
(1261.471405 938.3209266 8.209889772)
(987.0756085 423.4180041 155.7201487)
(345.2496653 -10.00668701 -15.85692759)
(93.23403316 775.3358525 775.6280135)
(1083.216721 921.2321933 258.1562116)
(-997.1627331 -58.04781431 -823.8079023)
(1688.098918 1003.455969 -269.1629044)
(1853.451391 -338.0056421 608.011227)
(162.3764021 -384.055001 162.361685)
(372.1516484 646.2831775 -882.1752248)
(-232.3684263 -247.3486111 196.3419197)
(842.2487755 216.7008424 -241.9430097)
(349.151423 375.4909362 182.1159199)
(1235.288052 -732.9218651 377.4930119)
(742.7536262 1139.560906 597.1096071)
(243.4388637 946.2240549 -1119.516462)
(704.1748807 302.4659771 2.450674441)
(781.8760213 236.982065 83.69600817)
(547.4840811 262.7987918 -449.5250758)
(452.3364695 42.77421908 -493.910352)
(474.8305325 199.5685894 -614.7620737)
(554.1304103 -46.54829135 -269.6105786)
(162.3896909 -276.1576535 14.91453217)
(318.3371168 676.8539155 -765.0333403)
(-528.7246825 1194.601409 230.8753278)
(-533.4260197 496.6371562 -637.2424529)
(184.1172275 160.8941887 217.3131557)
(498.3011765 -990.6179859 420.8349909)
(422.2407314 740.4274153 1114.64331)
(894.3461874 537.1762839 1211.885637)
(-142.6846977 -297.7888197 354.4354962)
(702.6027212 364.8541203 189.013922)
(1264.87439 298.0162802 298.3961589)
(979.6695705 -51.48712953 -195.6277453)
(274.2455301 -528.9773214 -833.173839)
(1362.519942 200.0121274 559.377865)
(88.09411236 314.557222 -591.9713958)
(132.2024813 -326.796957 687.0119286)
(-554.3918503 -757.7079846 33.31838537)
(2427.247997 873.1991191 -528.8016751)
(1227.632725 -145.0980872 -443.6412732)
(419.2000455 -592.8388625 773.2103931)
(951.0573342 1188.575444 -246.5328569)
(555.698143 205.9750383 -1211.586851)
(-924.2643988 327.3122144 747.3243469)
(1379.360907 30.25673437 -1172.601405)
(480.9627973 375.767587 -377.7844068)
(-229.638008 370.8202025 -274.8202848)
(582.0799797 1066.951589 619.0761268)
(1127.749115 45.94847197 670.282609)
(1619.267305 352.618683 -449.3483543)
(1828.125294 13.86512168 470.0574199)
(496.4031861 653.494862 740.8465479)
(923.1668382 1434.782315 422.6996743)
(1339.678169 949.791239 -238.8258312)
(-340.2597472 816.8228955 19.15706502)
(-909.2336658 -246.9606633 -1100.668815)
(1396.453797 92.17973163 1315.164655)
(568.6864854 632.7066788 -508.9807558)
(425.5250738 -153.5735749 342.5765109)
(1361.234725 762.0961175 -330.3828591)
(-34.43745726 955.1423055 -548.5884498)
(312.5579268 -88.8883814 -58.59908554)
(520.1749112 237.0032344 116.106579)
(1809.221456 1027.682162 335.6567037)
(815.2743711 870.8337616 668.2904644)
(415.1594157 427.4308557 39.56119846)
(506.581816 217.5436702 -725.0408301)
(1633.607876 1795.436691 -329.3297431)
(-818.4048228 201.226457 -368.6197753)
(1322.196863 632.6529388 -426.9976967)
(1738.961652 -509.6044542 962.1072675)
(-635.9202063 38.04255185 -441.1096041)
(1476.165297 783.7308697 1027.927571)
(1847.190729 459.07796 -383.5182336)
(805.0918741 295.4944505 -157.790062)
(108.0620575 983.8695006 -614.5639712)
(1379.972588 47.03376745 716.8085287)
(221.3871371 781.5520073 247.692915)
(-85.11054263 413.2919021 -329.5304772)
(1211.255573 379.2645861 -592.1085755)
(747.8783376 483.6667996 -204.4104145)
(1119.866675 333.1891215 610.0163154)
(1692.713317 -470.3812049 225.0618739)
(1111.044528 626.82754 850.6940644)
(290.9877185 22.64562638 480.9165925)
(930.8378476 868.8987513 -821.5476879)
(1308.293083 985.1339219 747.5932176)
(1437.522305 70.52738817 624.715247)
(323.90856 -507.6816882 110.1572558)
(1553.111074 -27.50000789 -52.47106526)
(-699.2373448 243.8290856 156.0025579)
(687.3698769 927.7653051 966.4227176)
(661.3262865 554.8259355 670.029271)
(1401.496033 -625.5712171 985.9353568)
(244.831401 -136.4114601 227.83174)
(549.3419944 1173.657512 41.25495163)
(1838.735588 -150.0057446 13.17441569)
(567.4380577 860.526163 822.9796996)
(1744.163369 -548.2511396 -396.2396498)
(1199.440049 951.4247301 -36.89172293)
(-164.0813209 -128.2841752 -587.0736398)
(1631.226189 1246.163767 -850.7745624)
(121.3996372 221.7320214 655.6709523)
(-662.0075291 693.2833737 -52.30636402)
(1083.042131 422.3160702 -525.3636394)
(-89.49664505 774.3380414 218.7169759)
(1173.868308 42.05685484 -655.0963981)
(-851.307741 51.21103681 -267.4748079)
(1484.405112 118.6746542 -143.9336346)
(499.6084106 -435.0914655 54.45843792)
(996.8372054 371.996053 -547.1877475)
(915.1051333 -187.7113354 -244.931314)
(1482.77523 770.559885 214.9030667)
(537.6121027 504.3384724 -511.5411845)
(776.1381665 -313.4757945 506.9410205)
(731.8899331 460.5284819 -43.29279539)
(930.3298194 368.5372922 80.39298546)
(647.0602898 696.1417313 442.5285497)
(-597.3813219 278.4327613 -483.6541614)
(598.6139352 -606.0054081 -882.8172469)
(2068.722354 -265.0486779 116.2516088)
(-543.8453232 494.3660281 -456.4703468)
(846.9659219 380.9059501 -30.41552094)
(452.9680557 196.6729167 -361.8764577)
(1448.455553 29.49553903 -437.4923922)
(272.3521348 62.13175556 132.2767342)
(1607.733504 425.5041741 167.9158884)
(53.60676936 618.4097399 -168.984909)
(164.7726019 530.1272663 -493.0975017)
(1000.054899 872.2837847 184.7018859)
(1335.104721 179.9597169 339.6628207)
(617.6115814 913.4044394 -424.2714846)
(927.0589418 313.6849108 696.9460609)
(1375.240736 9.963055881 -127.3965638)
(422.6333514 272.2393326 -81.47891552)
(-75.04715592 -46.19054555 -459.4592069)
(78.3314705 1172.568935 240.157521)
(295.4179224 206.4128467 -183.6478832)
(1323.873327 -786.5542293 41.15330668)
(-118.3574048 627.1874477 466.2072173)
(103.8283955 104.849813 -488.3213773)
(422.321333 625.9004263 286.5358568)
(1229.605793 216.7806716 374.6764397)
(-109.8415974 84.29609924 -765.6970009)
(378.3306432 -60.26684441 259.1053196)
(1849.332281 555.6598879 -543.0816206)
(365.4200957 160.1405798 -434.4033587)
(547.2924857 1566.691272 -529.1247594)
(652.839471 752.2266052 -188.2312159)
(470.8300868 422.1314905 -714.9417809)
(1345.3687 -972.8026744 -253.5117555)
(710.7620396 -279.6484425 693.7389331)
(1316.746257 -12.04378715 103.3868487)
(202.671077 479.5099025 -627.8505886)
(-376.8400203 528.6536875 748.8478211)
(769.7896912 -104.7953119 141.9304654)
(1954.876886 473.0506629 226.8823443)
(319.4293495 -546.8624769 959.2820288)
(336.2353415 -22.79455277 1255.870894)
(542.8981442 106.2655204 9.217042493)
(26.77157096 -238.311314 327.8882616)
(335.8709174 120.3735177 73.792802)
(177.4498963 754.8745258 -239.9735635)
(679.3780201 355.8237048 -629.1717324)
(741.7551859 608.2566076 1278.828739)
(477.857217 480.971936 392.6912685)
(293.278391 416.3192257 -318.2399285)
(46.1638515 536.6360917 -806.5645185)
(88.19678151 -261.2372498 -344.9011989)
(1457.418562 -22.04643037 293.3630747)
(226.6211818 669.0881533 729.3631599)
(-823.7975015 682.6369852 -51.00838039)
(325.6967254 642.8860069 -311.1423508)
(334.4985763 366.888301 109.1232679)
(1619.946982 798.0763493 172.9023217)
(-212.6619444 503.5310979 364.1363594)
(-67.01344985 -558.5770328 -716.8089223)
(-403.6086436 739.2827368 -60.58181457)
(1040.76127 -66.4761421 -1009.661153)
(849.9568751 -228.2082793 1.480994862)
(-281.1679922 330.333616 -170.8264928)
(619.2344347 202.373329 372.7509692)
(1468.157302 66.77879109 47.28796777)
(1425.521706 -514.9766542 134.1387256)
(490.1632175 -199.1640939 484.1868573)
(-470.1464301 73.35570645 864.4362159)
(999.027813 1566.209162 -1280.206449)
(1537.149893 284.1614656 524.3074638)
(1004.773027 703.7179117 235.5104907)
(166.8676551 380.377612 -151.9880127)
(31.27253735 949.3497221 307.0004489)
(393.5828514 45.31056819 -152.0695717)
(-207.1200943 503.8955032 -208.9040504)
(790.9772621 -641.7027795 -1353.781204)
(1217.099634 1014.929666 -65.59540279)
(249.5584748 992.8473418 -307.7396144)
(1342.53285 528.9546037 -160.3152421)
(769.6700237 -130.2779932 1043.713992)
(675.6862097 550.5489596 347.9391296)
(430.9474376 -327.0039294 -494.7533973)
(333.8023516 1562.239071 820.2990774)
(975.1598345 -579.0846945 35.30311555)
(1235.549076 -107.6472279 -227.0123951)
(1099.077118 -198.1318514 480.1846765)
(1423.348437 -290.2428128 -144.519784)
(1580.224625 -344.2686355 -491.7617458)
(884.6349066 -835.784659 321.3281011)
(956.8897177 -208.1196001 28.13920061)
(465.7073767 373.0996872 268.4251528)
(242.4988653 706.5316008 177.8407957)
(126.2998638 336.1661777 -623.621812)
(302.6337564 494.3265158 559.3288552)
(341.9611303 461.985616 -220.6969539)
(-220.0515971 468.8565316 -148.1498249)
(-444.5977359 248.8171912 112.8416306)
(447.2825215 -76.47689928 -419.7171263)
(338.9790224 734.4006539 71.10605818)
(1356.111189 310.4891363 500.4771697)
(1013.753326 -114.7024553 391.7741721)
(-239.664142 -266.6737531 -235.5219165)
(175.0026536 -296.7530568 342.2102596)
(1428.029894 10.59917198 -203.938073)
(-558.0714902 -502.8529541 346.6837593)
(1802.323364 476.0802248 -839.6407425)
(1445.577586 48.63387953 425.0648235)
(1320.19752 104.407674 406.8023543)
(1589.694893 -127.8142923 -278.5656582)
(-99.43214764 200.5976873 -403.2408146)
(1267.048281 -409.3239983 92.13993029)
(1126.592356 1006.308043 -251.2854514)
(-933.9066864 96.69996984 -79.65604063)
(1418.755423 -173.8050461 -56.27528308)
(340.0757904 -292.3085414 -220.9957355)
(441.2224161 780.1591846 -168.9907907)
(136.8497322 337.5452008 -442.0849762)
(178.2447258 -422.3551884 -1123.243675)
(1139.795019 102.5238479 328.6331598)
(-955.0698477 -53.55245581 -647.5215074)
(1295.702061 192.5245259 -302.4745955)
(602.4483648 548.0951352 -669.0693422)
(1154.275902 -92.63316825 -191.9359772)
(1334.78241 748.1342886 127.1408755)
(806.9211999 455.4281176 -841.3873644)
(1809.823519 1012.33549 228.4394886)
(265.0511395 -177.6352104 1072.788471)
(1466.20866 88.70493218 228.9481374)
(1254.945922 107.9744654 -387.1076448)
(413.2632809 -68.41965523 235.0709273)
(1459.198234 1025.988847 -255.758509)
(629.7971592 868.4871805 958.8554144)
(187.8385587 1244.126338 -492.9525551)
(696.2010093 965.504955 184.1005758)
(985.878632 5.868562726 -330.8120961)
(29.09477249 -489.7235804 -137.1883615)
(1488.632564 -213.1397772 585.7438275)
(400.7525391 2005.533952 -349.0959918)
(485.9054133 369.3950026 578.1599795)
(1022.961137 -97.46946974 -155.6124254)
(357.135725 473.2435416 -1090.21896)
(598.5539837 -220.0425015 -720.4842694)
(1574.234043 -161.3452446 -320.4522681)
(1213.939073 141.9294956 -157.0064088)
(998.0394515 33.95181835 -256.7945858)
(308.4132561 1677.623198 532.0967055)
(1476.882957 -229.058363 -225.3289473)
(1565.554728 120.5928106 44.28935213)
(1203.772783 187.5183931 -6.062729023)
(1988.919567 -29.70359125 569.3540101)
(1286.141052 -21.28076716 -304.8495011)
(1072.160578 315.8428822 88.30477401)
(1458.347413 -93.72842629 33.32125438)
(1173.191498 -266.4821511 -313.0742728)
(10.64260665 -23.52437428 -771.4991819)
(325.3316671 -326.570451 97.33972361)
(1236.980955 -1093.806569 46.29354689)
(440.7708436 697.8858616 92.92486375)
(821.9864467 1360.988264 -30.75637698)
(372.9917713 600.1233188 293.2936004)
(1248.441771 820.0654231 229.9960321)
(1560.876298 302.3019696 -165.6441505)
(1717.970032 101.58056 -203.4159201)
(2029.446925 227.2930894 -314.0073262)
(894.4898307 34.84859592 -444.0859746)
(1250.498648 -162.5030283 20.11601854)
(983.4243765 416.8463218 -951.4031489)
(-600.0060464 674.9014762 484.5385085)
(15.24910174 -123.1820037 -536.7256133)
(797.5881554 758.7800069 -397.6762058)
(338.8450655 338.201769 304.5166283)
(1356.556841 -195.6072125 21.65327308)
(353.1005079 -29.53331372 555.0036612)
(1341.336957 166.6532201 263.652478)
(1628.634663 31.01130084 374.2379541)
(1488.978711 77.93933768 370.8058882)
(1393.526741 -269.9223548 -129.7424026)
(1300.389417 811.3586813 -154.8027647)
(1177.384221 116.1434911 448.3048599)
(742.8987963 158.4903241 292.4397171)
(1399.540613 654.8829934 501.8476445)
(1116.949321 182.286362 -273.0825522)
(1395.756852 628.2101131 407.1579703)
(1958.254491 207.4309067 -662.8684249)
(1481.696554 111.1653678 619.6799341)
(1547.741982 -107.2388227 -76.11673501)
(1631.451174 -109.273367 -515.5473058)
(1312.000039 -32.84190053 -111.3802741)
(1185.437598 490.9703183 -54.78132117)
(958.0024963 -41.57045594 635.1689837)
(305.1047833 910.2562289 -398.9514831)
(38.72531346 1681.459967 -20.33690049)
(1667.271237 1100.204292 363.5575928)
(243.4600677 704.2143527 -1067.286973)
(1533.623378 -18.04431592 73.13635573)
(749.8862813 539.7860947 -365.2264505)
(799.6856163 -304.5695234 676.8653517)
(1039.903151 -5.554325622 187.5067692)
(1691.604997 336.9965047 706.962606)
(1835.974763 610.3690312 -127.4456228)
(482.0400014 586.2194087 509.6290109)
(911.8037754 43.11682204 -49.78217991)
(1657.313716 271.1883967 -538.2268624)
(2266.454305 898.1458028 -174.787278)
(599.8332328 -188.9560191 -358.5958413)
(1621.025613 -157.4287406 -324.5845081)
(1572.94066 17.02552291 -211.4993156)
(1722.887549 64.24754385 760.2537694)
(1064.365377 -179.781101 -2.085955207)
(1716.355245 -8.07323919 541.6810477)
(1749.808748 -160.9320736 -71.55523017)
(1577.207634 638.4808291 -787.4149954)
(1674.931029 -199.6127764 -507.9977917)
(663.1344017 433.0737806 -263.2860643)
(1919.492521 1644.13989 -845.0442467)
(-264.1116283 733.9365466 778.8846586)
(-194.0310092 1011.639139 -39.1717014)
(1189.696702 47.16503968 342.6072654)
(600.7764535 444.4971678 -1066.220251)
(1098.169596 -306.040988 21.32821932)
(1287.623107 -250.6516231 491.1158536)
(-717.2075097 130.4229775 -206.0812947)
(1727.267522 -170.0396794 -381.3129779)
(-114.4021468 -150.714727 500.544787)
(1985.142756 172.5566668 665.9482192)
(1327.526848 -102.1759849 110.7005937)
(423.8022688 -349.9305179 424.206563)
(166.5105484 -58.45570934 18.08011826)
(605.0379868 -53.58694216 -1137.182327)
(1461.018211 86.86511606 -202.8253017)
(1515.634446 210.3614162 65.53388919)
(1815.048089 -209.8983988 -114.7131586)
(1795.120004 337.8007823 252.1042111)
(1254.3872 -275.2454067 12.10551229)
(1512.374019 -7.624307424 -252.7655972)
(1682.256554 655.3545198 694.7502491)
(2028.310203 -143.020802 50.57061929)
(1845.243978 657.8763634 -760.0508365)
(867.4174287 844.2987041 -106.7292602)
(474.19665 680.0834656 -134.4793643)
(202.5701048 155.3921256 482.7189064)
(360.3326634 837.4777033 -545.6447573)
(1030.053288 368.9401193 -343.6457825)
(579.6167827 209.6149575 -1050.818461)
(2228.010887 -71.0800647 462.2641378)
(209.7838223 240.2238642 -369.7544989)
(53.43964109 504.4993967 -243.0300388)
(520.8292895 97.1943114 552.1431963)
(1213.643892 -135.0982283 -154.8275476)
(603.4274075 904.0903545 -272.096582)
(906.4669102 -779.6089421 -54.22642721)
(722.4407057 715.0175695 -272.3991915)
(370.9654751 679.0638527 380.7956175)
(1612.216106 206.436828 -308.5156674)
(999.1556329 683.5004248 -310.609552)
(510.3942994 227.152194 -1026.0098)
(1600.972271 576.4967253 281.256106)
(-355.5926827 212.5894736 764.8779669)
(1349.816353 1654.525459 -16.7918249)
(1643.00598 82.20151386 87.64717886)
(1318.577074 557.0274252 -263.9751923)
(1404.531993 -91.68294111 -19.17936216)
(1305.591017 218.473091 -474.152805)
(839.1839554 611.3523786 -62.75954473)
(1554.394143 545.9788745 35.40706928)
(2139.588823 -511.2895921 -353.1972291)
(1313.549911 -676.7898799 612.5663979)
(1308.899632 567.4195904 249.5812817)
(1196.234121 -201.8238961 -62.15427904)
(1676.59556 -383.5661019 86.84517866)
(1130.889082 -328.5899566 44.87063025)
(1284.066193 -214.3336788 -146.9719709)
(1691.120319 -156.1806884 339.6322572)
(-91.52206294 635.2134286 -308.4488151)
(-29.74595895 1120.820828 -1617.891058)
(609.0543723 -105.4206825 68.35565196)
(1679.210646 -174.7791492 -32.48165882)
(488.0172695 142.1440696 -458.688366)
(152.8332813 213.2045159 -769.4258105)
(-19.87010409 -307.4404269 225.1484645)
(2034.899101 10.32018105 -84.86846525)
(1580.746307 377.3437103 104.2535306)
(1229.553075 101.0939686 1268.16958)
(-8.789943949 -384.2518141 193.9449893)
(711.7029357 924.5534129 763.5653773)
(636.036146 802.6566809 1176.387009)
(507.1969251 396.4897523 478.3096163)
(883.874797 383.9025902 131.8925196)
(808.3419566 449.3337956 -517.2861291)
(276.5925417 12.39830168 -27.90255924)
(1360.606124 62.04255398 -132.5412545)
(844.0810901 -257.775857 39.76617494)
(907.3278812 638.3250521 -821.5816813)
(1790.275339 249.4932543 34.94982604)
(1320.540571 -515.4357978 226.3028637)
(1156.562192 -81.09960826 -77.38213407)
(1251.375015 314.7443778 42.36866493)
(1770.012973 318.4754326 220.8906393)
(1204.647686 39.04194175 -242.4437944)
(1083.197988 -221.7490879 -76.92886932)
(1105.225626 494.4771627 97.58375488)
(1441.15336 225.2922054 -76.51322792)
(2008.351307 630.4436936 124.3408134)
(2141.334695 267.4872891 -178.5239924)
(847.1741026 562.7115056 -279.7838523)
(1115.1704 449.0331065 -19.84014051)
(1447.305731 106.2521983 -176.3539914)
(1188.473275 -527.22036 240.3064095)
(2215.78198 550.1607723 -234.511123)
(1806.808172 365.3296175 71.38339249)
(1579.271278 -21.05418215 451.6652643)
(2074.227467 -291.4054016 270.185484)
(1466.175727 -211.1742524 -80.44592499)
(467.338937 103.797429 611.2813584)
(1324.280583 1649.569205 -72.54714219)
(-59.52871063 -28.81726619 39.60806447)
(-109.8060116 311.9901556 752.4854448)
(-37.30544274 1230.509895 1265.925512)
(2028.724712 1019.188125 -286.4929222)
(895.9146653 680.7257506 52.75686677)
(1504.805641 -124.6121268 -112.7613811)
(106.4449803 866.1352331 -736.5254068)
(426.7771439 -18.23346784 23.59750504)
(1302.404499 -154.6596435 -93.56340439)
(960.0079088 199.313702 -39.31941345)
(145.4353936 771.3197755 696.023981)
(1352.167959 370.385132 -116.6981031)
(1417.335018 268.2791231 -120.2952781)
(1371.260275 44.08185629 295.2300323)
(859.8599331 355.1355328 609.3180788)
(1024.892867 341.1989524 618.2581934)
(549.80472 627.2546315 1111.910565)
(1242.738582 413.8103575 282.0827981)
(1428.737799 79.22402407 82.08560756)
(906.2970168 357.3871353 186.5016256)
(1506.903173 146.5807459 450.4647276)
(910.3372758 495.5400456 -609.6844465)
(791.6269761 618.4379423 -189.1763775)
(917.6112066 9.717524848 -591.2103288)
(1670.456338 -168.8740752 88.37767266)
(1831.372238 -286.6032562 -113.9294811)
(1208.24214 330.9969198 868.4299842)
(1864.417056 162.2872356 -389.7226459)
(1039.074498 160.6791809 28.50507548)
(1877.786855 -11.0599057 571.8361693)
(708.3125679 1449.026997 224.1177835)
(1743.984888 -102.7708523 -146.5454036)
(1616.082999 152.9992081 636.0177621)
(923.9311536 64.60203659 39.02866536)
(1533.112322 -166.4583968 -567.3567056)
(1330.059373 329.1659025 -212.650123)
(1594.884879 263.4447099 -2.449242119)
(2104.99133 -6.318747265 529.504096)
(1411.183238 364.8999082 523.1364921)
(1903.726531 -25.63464698 452.2789138)
(309.3396221 665.8669114 -226.511259)
(828.5137678 -254.7370479 351.210066)
(1852.279342 874.6226168 378.0254461)
(844.6852338 219.5475974 54.94932227)
(755.2487802 1186.507868 -346.1655154)
(462.4282332 692.4989909 -857.4216774)
(-56.403154 60.5147323 456.6804702)
(1524.197739 -455.5582388 809.7629986)
(1008.378276 1152.892967 -94.69812324)
(-423.1995005 876.7034963 -122.2536957)
(1760.557504 777.5645726 -26.97705023)
(1321.694192 427.0117514 -624.2320868)
(-52.12278181 651.6774552 35.77423805)
(788.6393038 317.2789363 -138.9297347)
(-133.1097006 645.2160537 -675.4735522)
(692.102589 452.4021288 105.4716854)
(668.1577192 228.7725163 -173.9026842)
(343.7563266 9.307398086 -326.4193999)
(969.1423575 1271.316531 -490.5776704)
(1174.517201 293.4372225 -64.71064861)
(1655.560239 -133.6902649 148.076713)
(23.50875119 -1075.312308 166.7294204)
(1035.252665 -87.55754846 -400.8553279)
(224.6011317 1321.841008 -376.5558153)
(1132.226865 492.7439935 86.30742034)
(235.1317119 -141.8488198 -779.4106669)
(1394.165054 -429.9983169 411.0536844)
(1015.873308 7.700236784 356.4910219)
(-87.03422664 574.6285108 335.6618218)
(1008.739803 1069.995278 286.4301157)
(1230.193923 -328.7503407 22.18726435)
(1199.383049 194.2717251 -129.0875164)
(1472.001094 -440.291546 26.36434149)
(637.7925215 1075.083623 928.5446549)
(1437.914228 -295.6075859 -87.89430153)
(1691.519111 252.6244645 -145.3192012)
(1520.487817 -87.1240645 -150.7910943)
(1470.06578 -205.6100519 27.06606233)
(1500.061789 -115.6393834 226.4532593)
(2108.077103 321.7386655 115.030112)
(1336.589148 -91.75610675 300.8961013)
(2000.908084 356.6879429 536.5534394)
(1715.162787 -66.17159859 -112.2124674)
(1781.325243 -0.6802776914 -123.7577353)
(1514.786023 -136.2760846 -122.1245573)
(1724.596541 -201.7060668 94.68805222)
(-97.16898509 1079.71328 599.6481246)
(1875.330498 368.4596431 590.7164912)
(1175.514471 549.5972962 -226.1009617)
(425.9590643 -17.59593128 -150.910901)
(632.1271155 490.843754 -702.7071449)
(1384.100976 -305.5424524 633.3498147)
(-365.7436456 318.4389489 22.23618631)
(363.8214582 -47.58590902 -1203.297471)
(2012.685655 -413.0913813 471.7848271)
(1469.472291 90.5684096 -512.4939003)
(1728.291972 -388.4713285 -367.2447399)
(803.1476836 -953.7572953 493.7423674)
(186.3488823 937.0320412 515.1048268)
(495.910337 -58.97877917 -1183.907702)
(-450.475072 815.4277755 216.0761055)
(1858.334498 1095.450034 -74.43635269)
(1230.402402 1187.960374 -595.1067811)
(1933.350043 -20.67062834 -260.1085708)
(158.1354828 900.1978656 139.5919303)
(1564.079914 383.6569918 -111.3937813)
(129.0354454 687.8873894 -137.5443667)
(1155.714678 -59.53952473 23.07650976)
(1379.296968 285.7538022 83.67829752)
(1268.784274 38.91506742 132.7141106)
(1262.696814 -314.9411822 -882.6854851)
(1501.613991 158.0339116 -77.7215384)
(1270.292766 156.9132071 -4.075662804)
(1161.63008 439.6076832 -435.2958881)
(1502.720961 -156.4881544 -136.9046547)
(1371.155747 -365.6759927 -100.9531067)
(1581.702715 90.43225059 -421.8814172)
(1468.49967 1119.851709 22.24646312)
(1585.699664 -96.41126208 173.4108087)
(1258.711246 488.1595568 575.6672502)
(1905.796833 -222.7913376 -355.8445211)
(1266.359774 -482.2149532 -738.8295263)
(1019.441325 628.0535468 171.7379596)
(1351.592681 209.7392919 372.639161)
(1478.687777 -149.1862398 73.95989116)
(1883.84308 622.6952426 -195.1645459)
(1785.754614 -193.9564062 -117.1313106)
(1678.776377 135.3747595 150.0715453)
(2060.235551 -387.5989964 95.02216837)
(992.6183817 -622.0559294 38.72401128)
(1815.63208 346.2068812 -178.4537961)
(1511.527975 433.1805079 182.5520906)
(1714.981476 -6.742354185 -19.33509814)
(1335.613909 201.3007225 -65.75941721)
(1913.141813 144.3130878 -501.3412554)
(1573.612203 136.163949 -113.6586499)
(1561.940218 280.5206609 -308.4864946)
(1988.52434 -393.0725844 643.5993118)
(263.2621716 -630.4984718 -486.6641706)
(825.0730533 297.7264813 136.6216486)
(63.94243036 310.7786959 599.4783888)
(283.1880157 -271.6218203 89.1103304)
(1298.546992 574.6184193 -269.2480766)
(1433.459891 189.5126342 -634.1059802)
(1484.949997 816.1022327 -316.1750582)
(781.92688 119.2340249 -558.5238206)
(234.0583451 -457.0539017 1033.757119)
(-138.7940285 564.9817419 619.9496175)
(1323.731726 -285.8611901 -473.5515074)
(897.1832578 1598.388407 91.87553932)
(664.7730539 -185.3100423 -206.7999629)
(1452.762774 1294.517419 249.6175046)
(1101.937862 -533.0447838 -133.2090699)
(550.3060619 744.0543254 156.7423579)
(982.990634 1769.057876 153.9801128)
(607.6014569 1284.101808 -281.7293193)
(736.5200573 359.6581093 -623.7201738)
(-494.2756837 844.7758037 176.076862)
(738.2904902 250.3985359 -1068.19981)
(-697.1519686 -196.6637178 -102.2032355)
(1413.202761 706.0105116 31.56666357)
(1285.181345 800.2417571 118.0994613)
(1629.568896 -640.2610595 73.8214566)
(1433.456703 170.2066405 180.8811914)
(1513.270823 -66.69822758 404.1249463)
(492.9203732 -31.76324037 -292.5091415)
(1196.748006 74.1974998 -185.9348875)
(1205.521455 -116.7200678 508.1740391)
(-365.8065821 473.6571543 -110.8198008)
(1670.286991 -17.95252385 -98.79790852)
(1504.626544 40.52137247 -113.0604703)
(1629.629397 624.1619906 7.85329551)
(1776.742815 379.303971 245.8331778)
(1164.548317 281.4450124 0.9536401805)
(1887.806881 -337.8356743 54.58360155)
(1267.073622 -41.49194381 -138.5872991)
(1084.651077 338.7255881 -161.7428939)
(1573.039891 237.0769847 -220.9353459)
(1461.240492 -230.1182194 777.4455272)
(1587.368412 -393.0010566 130.0430548)
(1783.792087 -165.8658188 -334.2962307)
(1655.086561 -79.61992081 -196.5234614)
(893.1055483 882.5607149 233.3938975)
(1704.042741 -260.7471956 -131.3467955)
(1838.437119 184.5623237 3.404523881)
(1803.93707 201.2802088 -321.9357191)
(1820.796776 -363.2758022 1032.003435)
(1556.0067 -49.49527465 -151.6671087)
(1699.932639 -781.9458246 291.7571116)
(1548.135602 -64.52937974 4.532665069)
(107.0138218 126.5470487 -353.3615857)
(934.9196856 568.7974467 -489.2554418)
(275.354881 1363.969141 -33.60788345)
(1799.664679 -128.9311498 13.98733201)
(145.1597663 255.1027901 257.4349567)
(1940.790057 -113.5068187 242.9069975)
(1512.225374 -511.0428123 -77.61920104)
(476.6607272 849.1480314 -90.25396622)
(592.5798116 160.7434948 952.0092191)
(65.38287798 466.0990939 -540.793863)
(1869.889411 -163.807687 208.0293905)
(1121.028489 79.24616142 -72.57742134)
(1633.822879 60.88590579 -345.1996794)
(804.4908423 736.7617328 305.2083744)
(127.0096061 255.6918332 -454.5748578)
(249.3137042 -193.4872591 1137.357154)
(1585.175705 -274.6055104 -165.0338713)