/*--------------------------------*- C++ -*----------------------------------*\
| =========                 |                                                 |
| \\      /  F ield         | OpenFOAM: The Open Source CFD Toolbox           |
|  \\    /   O peration     | Version:  2406                                  |
|   \\  /    A nd           | Website:  www.openfoam.com                      |
|    \\/     M anipulation  |                                                 |
\*---------------------------------------------------------------------------*/
FoamFile
{
    version     2.0;
    format      ascii;
    arch        "LSB;label=32;scalar=64";
    class       Cloud<dsmcParcel>;
    location    "0.002/lagrangian/dsmc";
    object      coordinates;
}
// * * * * * * * * * * * * * * * * * * * * * * * * * * * * * * * * * * * * * //

6294
(
(0.02100643881 0.3747499979 0.4894967806 0.1147467827) 323 633 2
(0.03586981295 0.4820650935 0.2563526541 0.2257124394) 653 1307 1
(0.1990510192 0.04171234779 0.3587621426 0.4004744904) 501 925 2
(0.9585861267 0.02070693664 0.01506470702 0.005642229623) 261 509 2
(0.3035282531 0.3482358734 0.1081139668 0.2401219067) 231 394 1
(0.2477548986 0.3761225507 0.1999760394 0.1761465113) 498 919 1
(0.5444181624 0.2277909188 0.05169813977 0.176092779) 203 395 2
(0.03778595042 0.06027595034 0.4811070248 0.4208310745) 502 983 1
(0.00452410547 0.3720626923 0.4977379473 0.125675255) 263 513 1
(0.4097936269 0.2171545991 0.07794858742 0.2951031865) 263 1264 1
(0.02855096792 0.2375564333 0.2481680828 0.485724516) 233 397 2
(0.4498992127 0.2750503937 0.1482788721 0.1267715215) 83 159 2
(0.4898343469 0.1909772055 0.2550828265 0.064105621) 202 396 2
(0.4305407174 0.1793803784 0.1053492629 0.2847296413) 81 157 1
(0.07736031787 0.4613198411 0.1353777585 0.3259420826) 170 330 2
(0.1778229301 0.1573154355 0.2537730994 0.411088535) 319 567 2
(0.537624945 0.2311875275 0.1410133329 0.0901741946) 142 278 1
(0.2630687161 0.2279119517 0.1405536902 0.368465642) 15 28 1
(0.463269408 0.268365296 0.2548241822 0.01354111384) 203 338 1
(0.7129771036 0.0604771188 0.1435114482 0.08303432941) 562 1101 1
(0.8740250584 0.04024572593 0.02274174486 0.06298747079) 203 338 2
(0.3477494566 0.3261252717 0.1764836603 0.1496416113) 323 633 1
(0.00684089593 0.496579552 0.3728167587 0.1237627934) 83 104 1
(0.4090769312 0.2954615344 0.2924733723 0.002988162097) 172 334 2
(0.1741137046 0.4129431477 0.08982535391 0.3231177938) 500 923 1
(0.2830434149 0.3423723501 0.3584782925 0.01610594246) 30 55 1
(6.679698153e-05 0.4999666015 0.4828792815 0.01708732002) 203 1262 2
(0.5892185205 0.1515141692 0.2053907397 0.05387657058) 141 276 2
(0.3619037133 0.3190481433 0.2405517193 0.07849642404) 172 336 2
(0.0113644962 0.06063954021 0.4943177519 0.4336782117) 322 632 2
(0.5685533709 0.0689673961 0.2157233146 0.1467559185) 203 397 2
(0.001820155549 0.3333356849 0.1657542373 0.4990899222) 112 160 2
(0.5953595093 0.2023202454 0.03997072607 0.1623495193) 81 157 2
(0.8546196577 0.02589179835 0.07269017116 0.04679837281) 617 1212 2
(0.4807655058 0.2596172471 0.225637731 0.03397951607) 260 451 1
(0.1403206341 0.01915983179 0.4106798512 0.429839683) 30 27 2
(0.09371482422 0.09853993121 0.4531425879 0.3546026567) 383 751 2
(0.09326637228 0.4533668139 0.1734722729 0.279894541) 141 275 2
(0.02651745557 0.2107810459 0.2759602263 0.4867412722) 593 1105 2
(0.3827266975 0.3086366513 0.2034060731 0.1052305782) 531 1040 2
(0.4618941198 0.1789072449 0.2690529401 0.09014569524) 201 394 2
(0.3911383105 0.2761189644 0.02831188037 0.3044308448) 202 337 2
(0.4971565597 0.1636630893 0.2514217201 0.08775863079) 52 98 1
(0.05982963624 0.4700851819 0.2118812359 0.2582039459) 53 100 2
(0.5803387206 0.08632443012 0.1235062096 0.2098306397) 500 923 2
(0.4110289905 0.2944855048 0.1665021178 0.127983387) 556 1092 1
(0.825625278 0.08718736102 0.05167315809 0.03551420293) 322 632 1
(0.3510030132 0.04365680442 0.280841689 0.3244984934) 171 276 2
(0.6947924489 0.05730342455 0.09530035102 0.1526037756) 381 747 1
(0.442785393 0.1850738436 0.09353345985 0.2786073035) 200 391 1
(0.6961849862 0.04476365221 0.1519075069 0.1071438547) 231 453 2
(0.00456537981 0.1221004131 0.4977173101 0.3756168969) 82 160 2
(0.08260782156 0.1503737576 0.4586960892 0.3083223316) 82 160 2
(0.3299159884 0.2215242319 0.3350420058 0.1135177739) 500 982 2
(0.2352585225 0.3823707388 0.3060098168 0.076360922) 533 1044 2
(0.4485875351 0.2757062325 0.005247699931 0.2704585325) 32 30 1
(0.600209637 0.1998951815 0.09682771967 0.1030674618) 322 631 2
(0.4819211528 0.2590394236 0.0996456901 0.1593937335) 203 397 1
(0.08426748841 0.4578662558 0.407090654 0.05077560179) 412 808 2
(0.19669607 0.401651965 0.1851503945 0.2165015705) 201 393 2
(0.3594675702 0.2388382774 0.08142793751 0.3202662149) 113 1259 1
(0.9276763449 0.03616182753 0.006979536504 0.02918229103) 80 155 2
(0.463452275 0.2011718743 0.06710198818 0.2682738625) 261 453 2
(0.350685272 0.304666515 0.01999084897 0.324657364) 622 1163 2
(0.5649020546 0.009094373672 0.2175489727 0.208454599) 622 1222 2
(0.7383706757 0.1308146621 0.06735468887 0.06345997326) 293 1265 2
(0.8041116832 0.09794415842 0.0899885899 0.007955568524) 112 160 1
(0.3871955141 0.3064022429 0.06581784586 0.2405843971) 502 983 2
(0.683903323 0.09906509328 0.05898324521 0.1580483385) 352 632 2
(0.06406987189 0.4679650641 0.2654436606 0.2025214034) 53 100 2
(0.3224531512 0.3387734244 0.1154877323 0.2232856921) 407 798 2
(0.02797963703 0.4860101815 0.352580037 0.1334301445) 381 747 2
(0.3351234357 0.3324382822 0.05371065679 0.2787276254) 471 922 2
(0.4250162681 0.2874918659 0.2136019191 0.07388994684) 141 276 1
(0.06654120671 0.4667293966 0.1429373574 0.3237920392) 201 393 2
(0.1285162117 0.2728681318 0.4357418941 0.1628737623) 293 574 2
(0.7528866176 0.1235566912 0.09344782051 0.03010887068) 113 220 1
(0.4934460725 0.1462421055 0.1070348583 0.2532769637) 323 1266 1
(0.1903990307 0.4048004847 0.1884494742 0.2163510105) 200 392 1
(0.5205720687 0.2397139657 0.05904202376 0.1806719419) 113 1259 2
(0.4625261025 0.08946765941 0.2687369488 0.1792692893) 443 867 1
(0.1361136933 0.2356137591 0.4319431533 0.1963293942) 111 217 2
(0.2463813596 0.3768093202 0.2140857423 0.1627235779) 440 863 2
(0.1273436181 0.4363281909 0.2290608347 0.2072673562) 591 1160 2
(0.1105006174 0.4447496913 0.3814108125 0.0633388788) 291 570 2
(0.228292525 0.135674022 0.2501797155 0.3858537375) 141 275 1
(0.1505863604 0.3440719443 0.4247068198 0.08063487552) 31 57 1
(0.3096555337 0.3451722332 0.2589990317 0.08617320145) 291 571 1
(0.2663039258 0.2975250369 0.3668480371 0.06932300022) 27 52 2
(0.6941950161 0.1246132436 0.1529024919 0.02828924831) 353 690 1
(0.04149124802 0.479254376 0.320492638 0.158761738) 353 690 2
(0.07926758874 0.4603662056 0.0246495534 0.4357166522) 321 630 1
(0.2007275001 0.3996362499 0.02785264592 0.371783604) 563 1274 2
(0.04510882796 0.154057666 0.32338792 0.477445586) 77 93 2
(0.1947869736 0.0443101507 0.4026065132 0.3582963625) 442 868 2
(0.4502731179 0.2748634411 0.1620692357 0.1127942054) 319 626 1
(0.7190734087 0.04410987505 0.1404632956 0.0963534206) 111 214 1
(0.8961431723 0.05192841383 0.02917446437 0.02275394947) 562 1045 1
(0.2257280837 0.3805888792 0.3871359581 0.006547078918) 263 513 1
(0.156761731 0.4216191345 0.3647266413 0.05689249314) 142 277 2
(0.1091595584 0.4454202208 0.05720733783 0.388212883) 470 922 2
(0.2768711059 0.253034775 0.361564447 0.1085296721) 143 279 2
(0.423448127 0.2882759365 0.1603002668 0.1279756697) 413 751 1
(0.4161910272 0.1257509051 0.1661535813 0.2919044864) 591 1160 1
(0.3842986674 0.3078506663 0.2844840836 0.02336658271) 293 1265 2
(0.07285817783 0.1018495936 0.3617213174 0.4635709111) 229 390 2
(0.7659767603 0.1170116198 0.05745043778 0.05956118204) 322 632 1
(0.6211950715 0.1894024642 0.01243570872 0.1769667555) 54 102 2
(0.08799566105 0.3596096319 0.09639253761 0.4560021695) 171 334 1
(0.7287661631 0.05572575185 0.1356169185 0.0798911666) 563 1105 2
(0.6595849341 0.10901148 0.06119605295 0.1702075329) 472 868 2
(0.183438639 0.008903378617 0.4082806805 0.3993773019) 171 335 2
(0.4728949329 0.1084916562 0.2635525336 0.1550608773) 435 854 2
(0.1964572593 0.4017713703 0.04532646924 0.3564449011) 502 985 2
(0.6898957169 0.1550521415 0.06111631844 0.0939358231) 143 220 1
(0.04827238354 0.4758638082 0.3400118694 0.1358519388) 412 809 1
(0.03613018703 0.4819349065 0.05256281308 0.4293720934) 352 632 1
(0.1298985223 0.3057428268 0.4350507388 0.1293079121) 261 512 2
(0.4591561744 0.2704219128 0.0788218917 0.1916000211) 350 628 1
(0.2368132542 0.3815933729 0.3239016146 0.05769175831) 293 1265 2
(0.5112575869 0.1026805952 0.2443712065 0.1416906113) 532 1045 2
(0.1305818956 0.4347090522 0.09549989041 0.3392091618) 321 571 1
(0.3428992469 0.3034095334 0.3285503766 0.02514084312) 263 513 1
(0.2113573315 0.2151392524 0.1791820818 0.3943213343) 443 1270 1
(0.5138998873 0.0138422581 0.2430500563 0.2292077982) 412 809 2
(0.1042974834 0.4186760081 0.02917525019 0.4478512583) 472 868 2
(0.1692644936 0.3178179352 0.09754981799 0.4153677532) 652 1252 1
(0.06943036855 0.4652848157 0.1197534271 0.3455313886) 380 745 2
(0.1552489004 0.4223755498 0.3969467319 0.02542881791) 51 99 1
(0.3323244354 0.3338377823 0.1880250378 0.1458127445) 653 1277 2
(0.1962240915 0.1448437429 0.2570442114 0.4018879543) 27 21 2
(0.6130517328 0.06000448062 0.133469653 0.1934741336) 443 810 2
(0.2032567722 0.3983716139 0.3727474652 0.02562414871) 110 214 2
(0.001505167047 0.4992474165 0.1533982221 0.3458491944) 173 279 1
(0.3367105256 0.3316447372 0.3270773466 0.004567390595) 201 335 1
(0.1483522971 0.2313846075 0.4258238514 0.1944392439) 111 217 2
(0.00660752303 0.4966962385 0.3030462679 0.1936499706) 529 1039 1
(0.4861202884 0.2569398558 0.007899824085 0.2490400317) 532 1044 2
(0.05342753956 0.4732862302 0.07440332303 0.3988829072) 201 335 1
(0.06180367675 0.1659179445 0.4690981616 0.3031802172) 263 515 2
(0.2646120461 0.3676939769 0.1303052735 0.2373887034) 441 863 2
(0.3513467845 0.1803200167 0.1440065911 0.3243266077) 323 1266 1
(0.1073020903 0.3796065571 0.4463489548 0.06674239772) 143 277 1
(0.4918300709 0.2053792231 0.2540849646 0.04870574147) 443 867 1
(0.6681205396 0.1659397302 0.09318200883 0.0727577214) 472 926 2
(0.4074172749 0.2962913625 0.1187755347 0.1775158278) 379 685 1
(0.7373240347 0.1097068093 0.1313379826 0.02163117329) 527 1032 1
(0.4500869175 0.2543187061 0.02063783519 0.2749565412) 29 55 1
(0.5635298508 0.1064460715 0.2182350746 0.1117890031) 171 332 1
(0.8912608129 0.05436959357 0.04851598649 0.005853607085) 288 506 1
(0.01307176759 0.4934641162 0.3946652167 0.0987988995) 172 337 1
(0.1897366792 0.4051316604 0.3988458534 0.006285807031) 110 212 2
(0.06232600481 0.4688369976 0.2207065762 0.2481304214) 28 54 1
(0.08020546061 0.02433097489 0.4355662948 0.4598972697) 52 58 2
(0.5362929206 0.0007479118816 0.2318535397 0.2311056278) 203 395 1
(0.9613895089 0.0183075471 0.0009976984752 0.01930524557) 500 981 1
(0.2150975155 0.3924512423 0.2037076084 0.1887436339) 172 334 2
(0.3065839061 0.3467080469 0.2629176217 0.08379042523) 229 446 2
(0.3595658078 0.3202170961 0.03452209767 0.2856949984) 143 1260 2
(0.4604468268 0.2697765866 0.09521642841 0.1745601582) 105 204 2
(0.06554327353 0.4672283632 0.3908754347 0.07635292858) 533 1046 1
(0.2315431137 0.01570849902 0.3685199441 0.3842284431) 443 1270 1
(0.4911922526 0.2544038737 0.2453665462 0.009037327466) 52 100 2
(0.3376890954 0.08537404001 0.2457814123 0.3311554523) 376 679 2
(0.3172521395 0.1344289226 0.2069450077 0.3413739303) 561 1043 2
(0.5382590171 0.2233121647 0.007558326764 0.2308704914) 172 278 2
(0.2691791197 0.3654104401 0.02682422146 0.3385862187) 13 25 1
(0.1605104893 0.4041119735 0.01563278186 0.4197447554) 260 451 2
(0.02828791462 0.4858560427 0.4539841209 0.03187192182) 32 1256 2
(0.1300641779 0.4302253955 0.004742515598 0.4349679111) 530 982 2
(0.3682499927 0.04610473126 0.2697702724 0.3158750036) 15 28 1
(0.162185646 0.418907177 0.2421827883 0.1767243887) 230 392 1
(0.6847586759 0.1432675781 0.01435308396 0.1576206621) 470 864 2
(0.7392072664 0.004988056105 0.1254083107 0.1303963668) 110 156 2
(0.3969781855 0.2973500883 0.004160818981 0.3015109073) 82 103 2
(0.7369348551 0.1315325724 0.07357076695 0.05796180549) 230 451 1
(0.4128959297 0.1917440488 0.1018079863 0.2935520351) 381 747 1
(0.3895389756 0.2544062897 0.3052305122 0.05082422249) 292 573 2
(0.2636843096 0.2299031488 0.1382546965 0.3681578452) 28 23 2
(0.1236511618 0.001935786834 0.4362386322 0.4381744191) 588 1154 1
(0.1033404245 0.4483297877 0.02606231879 0.422267469) 112 218 2
(0.07411484145 0.4629425793 0.3405001544 0.1224424249) 651 1305 1
(0.1030665633 0.2799174452 0.1685492732 0.4484667184) 592 1104 2
(0.002464713976 0.05248228967 0.498767643 0.4462853533) 472 927 2
(0.05382166187 0.4730891691 0.4014053927 0.07168377638) 503 987 1
(0.4787960316 0.2606019842 0.1252456151 0.1353563691) 471 925 1
(0.002196293954 0.3545970621 0.498901853 0.144304791) 378 739 1
(0.4711709687 0.2644145156 0.00897509362 0.255439422) 51 98 2
(0.4078918145 0.2960540927 0.2070379356 0.08901615713) 54 102 2
(0.5232160881 0.06206802247 0.1763239335 0.238391956) 29 55 1
(0.09761693595 0.451191532 0.3733392399 0.07785229215) 590 1158 2
(0.03201656379 0.4839917181 0.2189140744 0.2650776437) 202 393 2
(0.04380470356 0.1991762844 0.4780976482 0.2789213639) 381 745 1
(0.6513798887 0.1743100557 0.04484086831 0.1294691873) 229 446 2
(0.1154289902 0.4422855049 0.3148847487 0.1274007562) 321 629 2
(0.1192143161 0.3072302173 0.1331626247 0.440392842) 591 1160 1
(0.3826926552 0.3010511229 0.3086536724 0.007602549473) 470 923 2
(0.314823433 0.3425882835 0.197386296 0.1452019874) 503 928 1
(0.05572669173 0.4721366541 0.3573443891 0.1147922651) 137 267 2
(0.5704010573 0.2147994713 0.1878423015 0.02695716983) 530 1038 2
(0.2234331635 0.3882834183 0.06881725734 0.3194661609) 113 161 1
(0.09172569554 0.0451653401 0.4089718121 0.4541371522) 473 869 2
(0.5785177989 0.2017664725 0.008974628016 0.2107411006) 407 740 2
(0.2336356806 0.3480305827 0.3831821597 0.03515157701) 439 859 1
(0.7096121312 0.1347126758 0.1451939344 0.01048125864) 135 264 2
(0.06723914785 0.006928205483 0.4663804261 0.4594522206) 532 1042 1
(0.5103865069 0.2448067465 0.1574295731 0.08737717343) 81 158 1
(0.2050014694 0.3974992653 0.002939188201 0.3945600771) 350 687 1
(0.615687974 0.192156013 0.1731281112 0.01902790182) 171 334 2
(0.7874550163 0.1062724919 0.009145232349 0.09712725951) 289 564 2
(0.3169750964 0.3415124518 0.08665623181 0.25485622) 201 391 2
(0.2553062664 0.3337245497 0.03862231704 0.3723468668) 230 450 1
(0.3996518427 0.0694441625 0.2307299161 0.3001740786) 168 270 2
(0.02225713747 0.3609485348 0.1279228965 0.4888714313) 112 218 1
(0.2929972768 0.1206793979 0.2328219637 0.3535013616) 621 1161 2
(0.4349590284 0.09281165701 0.2825204858 0.1897088288) 443 869 2
(0.0880180839 0.4559909581 0.4306179603 0.0253729978) 406 797 1
(0.2841522786 0.3579238607 0.01134215375 0.3465817069) 78 152 1
(0.1346678868 0.4326660566 0.2859780282 0.1466880283) 113 218 2
(0.2579773533 0.3305704812 0.3710113233 0.04044084213) 620 1218 2
(0.362986538 0.02488463101 0.2936221 0.318506731) 410 746 2
(0.4016451676 0.2991774162 0.113611758 0.1855656582) 440 861 2
(0.02735892916 0.380600683 0.1057198524 0.4863205354) 111 216 1
(0.463380764 0.2304774501 0.03783216783 0.268309618) 651 1251 1
(0.1883995088 0.4058002456 0.06047453178 0.3453257138) 260 509 2
(0.1720412534 0.1864173154 0.4139793733 0.2275620579) 230 451 2
(0.7073500198 0.1021900978 0.04413489231 0.1463249901) 590 1158 1
(0.04538158714 0.08670772786 0.4773092064 0.3906014786) 110 215 2
(0.2150551548 0.3924724226 0.320743126 0.07172929664) 260 451 1
(0.07081698494 0.4218369443 0.04275456319 0.4645915075) 263 456 2
(0.2765693537 0.1352322493 0.2264830739 0.3617153232) 441 865 1
(0.2078593776 0.3960703112 0.03101338221 0.365056929) 200 389 2
(0.01070675302 0.4946466235 0.3820512553 0.1125953681) 195 382 1
(0.08947243237 0.3055267382 0.4552637838 0.1497370456) 620 1215 1
(0.1280378717 0.4359810641 0.2376493297 0.1983317344) 383 751 1
(0.4337256351 0.2831371824 0.2762366119 0.006900570553) 531 1042 2
(0.6753542257 0.112549159 0.1623228871 0.04977372818) 649 1248 1
(0.0328214029 0.3342918846 0.4835892985 0.149297414) 229 449 2
(0.3544804423 0.09476131809 0.2279984608 0.3227597789) 138 211 2
(0.1107706836 0.01330340179 0.4446146582 0.4313112564) 502 986 2
(0.3414875193 0.3153687096 0.01388753077 0.3292562404) 323 574 2
(0.2995846657 0.1058991075 0.2443085596 0.3502076671) 472 868 2
(0.08872607403 0.3678458101 0.0877911529 0.455636963) 495 971 1
(0.3283278732 0.3358360634 0.22639093 0.1094451334) 622 1219 2
(0.01064252417 0.4946787379 0.4469965205 0.04768221741) 262 514 1
(0.1631008565 0.1808447544 0.4184495717 0.2376048174) 503 987 2
(0.5770391289 0.08141802944 0.1300624061 0.2114804355) 137 267 1
(0.3141083524 0.3429458238 0.03126760709 0.3116782167) 382 750 1
(0.1708514794 0.3640277275 0.05054653279 0.4145742603) 233 397 2
(0.08621683226 0.4568915839 0.1208071828 0.3360844011) 411 806 2
(0.5977566549 0.2011216725 0.1406158348 0.0605058377) 292 572 2
(0.500999033 0.2495004835 0.00563912284 0.2438613606) 592 1104 1
(0.1287898389 0.1834310023 0.4356050806 0.2521740783) 290 566 1
(0.2742766228 0.3628616886 0.09549409292 0.2673675957) 588 1154 2
(0.6640022241 0.09848313558 0.1679988879 0.06951575235) 31 60 2
(0.02646176654 0.446903521 0.03986559572 0.4867691167) 472 868 2
(0.08658272706 0.2785694883 0.1781391482 0.4567086365) 201 393 1
(0.3215675522 0.2848147846 0.3392162239 0.05440143933) 49 92 1
(0.02952342444 0.09292896873 0.4852382878 0.392309319) 469 918 1
(0.7676407052 0.005500562629 0.1106790848 0.1161796474) 143 220 2
(0.7125407512 0.07520210965 0.1437296244 0.06852751474) 112 216 1
(0.3209990503 0.3395004749 0.3324175997 0.007082875189) 496 974 1
(0.3524751448 0.3237624276 0.05702949724 0.2667329304) 197 327 1
(0.3676238146 0.3161880927 0.2346045757 0.08158351701) 109 212 2
(0.2811028362 0.3594485819 0.2603013849 0.09914719701) 613 1201 2
(0.5320404234 0.2339797883 0.09471834888 0.1392614394) 83 1258 2
(0.2265575713 0.3867212143 0.06814311081 0.3185781035) 561 1043 1
(0.3843541699 0.02909071605 0.3078229151 0.278732199) 441 863 1
(0.05112649213 0.3793995989 0.4744367539 0.09503715504) 383 751 2
(0.3093848805 0.05012138893 0.3453075597 0.2951861708) 173 336 1
(0.3034919374 0.03656670892 0.3116873224 0.3482540313) 26 49 1
(0.4296485281 0.285175736 0.2420869033 0.04308883272) 261 512 1
(0.4636196646 0.2681901677 0.04656782436 0.2216223433) 323 574 1
(0.242786828 0.2838194269 0.0947871591 0.378606586) 5 0 2
(0.1334444854 0.3404151041 0.4332777573 0.09286265315) 233 454 1
(0.3400428222 0.1354062519 0.194572337 0.3299785889) 322 573 2
(0.26831386 0.3329857237 0.03285734635 0.36584307) 443 1270 1
(0.139414012 0.430292994 0.1866689376 0.2436240564) 293 572 2
(0.6360899902 0.06304376085 0.1819550049 0.1189112441) 202 393 1
(0.6625628989 0.1687185506 0.08994780735 0.07877074321) 202 393 2
(0.2381899851 0.3809050074 0.1594421649 0.2214628426) 262 511 2
(0.2517475048 0.3741262476 0.1614815201 0.2126447275) 353 692 1
(0.290040147 0.2701522081 0.0848277184 0.3549799265) 229 448 1
(0.1841930348 0.2893823845 0.1185210981 0.4079034826) 110 156 2
(0.3139506724 0.02903842559 0.3430246638 0.3139862382) 233 456 2
(0.2046902117 0.2328731948 0.1647816993 0.3976548942) 442 867 1
(0.6759471343 0.002151938543 0.1598744943 0.1620264328) 353 633 2
(0.4573118284 0.2713440858 0.08557463677 0.185769449) 528 1034 2
(0.3013860879 0.3187735411 0.3493069561 0.03053341493) 139 269 1
(0.7031727972 0.07798860389 0.0704249975 0.1484136014) 503 1272 1
(0.3305864245 0.2713908762 0.3347067878 0.06331591159) 293 574 2
(0.7301702612 0.1317936339 0.1349148694 0.003121235491) 78 149 1
(0.4739543716 0.1071553045 0.2630228142 0.1558675097) 199 387 1
(0.3061205054 0.3469397473 0.1087168585 0.2382228889) 140 273 2
(0.05496220047 0.4725188998 0.3776436406 0.09487525919) 113 220 1
(0.2193263231 0.1464457388 0.2438910996 0.3903368384) 202 395 1
(0.8054140159 0.08147512981 0.01581786223 0.09729299204) 552 1083 1
(0.7434009763 0.1282995119 0.08087973858 0.04741977329) 439 803 1
(0.6158703658 0.168897817 0.02316700011 0.1920648171) 140 215 2
(0.2036711647 0.001002584605 0.3971618331 0.3981644177) 172 278 2
(0.4602958364 0.2698520818 0.1734506858 0.09640139597) 381 747 2
(0.4275526558 0.2862236721 0.04004900973 0.2461746624) 439 859 2
(0.3837428696 0.3081285652 0.1312844082 0.176844157) 383 751 1
(0.9025101381 0.03479857362 0.01394635731 0.04874493093) 31 29 2
(0.5127804403 0.09765502521 0.2436097799 0.1459547547) 592 1163 2
(0.02681790274 0.4865910486 0.2949386271 0.1916524215) 413 751 1
(0.7177336019 0.141133199 0.05228375591 0.08884944311) 258 505 2
(0.1313305496 0.2810779878 0.4343347252 0.1532567375) 289 564 1
(0.0301663539 0.484916823 0.2219910273 0.2629257958) 231 453 1
(0.1147496318 0.4426251841 0.4219459255 0.02067925863) 499 977 2
(0.3402557254 0.1698023884 0.3298721373 0.1600697488) 142 275 1
(0.0659142815 0.1443241151 0.4670428593 0.3227187441) 323 633 2
(0.4808270085 0.1397153919 0.1198711039 0.2595864958) 593 1105 2
(0.217152412 0.391423794 0.08885649199 0.302567302) 173 338 1
(0.2703543199 0.04765775543 0.3648228401 0.3171650846) 438 860 2
(0.3153840431 0.2570555792 0.3423079785 0.08525239925) 532 1045 2
(0.5966753262 0.1808652666 0.02079707028 0.2016623369) 112 160 2
(0.1218074894 0.4390962553 0.4140515473 0.02504470804) 503 928 1
(0.73841554 0.000922901212 0.13079223 0.1298693288) 260 507 1
(0.3885280417 0.3057359792 0.2398577229 0.06587825627) 262 511 2
(0.3699158106 0.3150420947 0.242645856 0.07239623867) 203 395 2
(0.4535506965 0.1860951239 0.08712952783 0.2732246517) 441 807 2
(0.8735309024 0.05930774781 0.003926801012 0.06323454882) 353 633 2
(0.09074832771 0.39921955 0.4546258361 0.05540628618) 323 631 1
(0.4794216332 0.2602891834 0.1470325786 0.1132566048) 293 574 1
(0.1387163432 0.4306418284 0.2027930448 0.2278487836) 203 395 2
(0.03555029522 0.4822248524 0.3215120299 0.1607128225) 533 1046 1
(0.03356944962 0.3622408936 0.1209743816 0.4832152752) 291 570 1
(0.235920891 0.2365113484 0.1455282061 0.3820395545) 352 632 2
(0.1730018665 0.4134990667 0.05509364914 0.3584054176) 292 572 2
(0.6709605733 0.0526729062 0.1118468072 0.1645197134) 140 273 1
(0.1124379226 0.2399392345 0.4437810387 0.2038418042) 443 869 2
(0.5062269821 0.2255368104 0.02134969859 0.246886509) 472 926 1
(0.4128163578 0.2935918211 0.292805433 0.0007863880933) 588 1096 1
(0.1694099162 0.4152950419 0.1987743784 0.2165206635) 622 1222 1
(0.2874551084 0.1111833005 0.3562724458 0.2450891453) 376 738 2
(0.09263462663 0.4536826867 0.3119527556 0.1417299311) 443 810 1
(0.1315718875 0.0694838121 0.3647302441 0.4342140562) 622 1163 2
(0.04678107305 0.4042611876 0.07234827592 0.4766094635) 648 1214 2
(0.4572324052 0.2713837974 0.2348382712 0.03654552626) 527 1032 2
(0.208038436 0.395980782 0.007100759872 0.3888800221) 466 914 2
(0.1848162116 0.4075918942 0.3512693717 0.05632252249) 528 1036 2
(0.05690613706 0.2783960812 0.1931508503 0.4715469315) 228 446 1
(0.5288911744 0.07621912125 0.2355544128 0.1593352916) 350 687 2
(0.1527822406 0.4008864628 0.4236088797 0.02272241688) 80 156 2
(0.1226996798 0.3754290631 0.4386501601 0.06322109694) 351 686 1
(0.4174779358 0.1748227635 0.2912610321 0.1164382686) 293 572 1
(0.364181362 0.02598573226 0.317909319 0.2919235868) 381 748 2
(0.1066801209 0.4466599396 0.2212751704 0.2253847692) 410 746 1
(0.3166377898 0.05482391531 0.3416811051 0.2868571898) 52 98 1
(0.1482928485 0.255170425 0.4258535757 0.1706831508) 198 385 1
(0.119224386 0.2441911106 0.440387807 0.1961966964) 82 160 2
(0.2211891053 0.352484798 0.03692064935 0.3894054473) 199 331 2
(0.02489820183 0.3000407982 0.1875101009 0.4875508991) 560 1041 2
(0.7984188848 0.09086315623 0.009927401374 0.1007905576) 586 1150 1
(0.3863845201 0.3068077399 0.302657161 0.00415057892) 108 208 2
(0.3704861396 0.2909529755 0.02380395467 0.3147569302) 620 1217 1
(0.07265134066 0.4636743297 0.3377781785 0.1258961511) 350 686 2
(0.4261463758 0.0306402293 0.2562865828 0.2869268121) 112 218 1
(0.471600376 0.05806002202 0.20613979 0.264199812) 203 338 2
(0.4103055083 0.2444395134 0.05040773247 0.2948472459) 351 688 1
(0.1240144196 0.4379927902 0.137002036 0.3009907542) 166 324 2
(0.3599787947 0.02102330254 0.3200106026 0.2989873001) 142 275 1
(0.3313876683 0.3343061659 0.1085932325 0.2257129334) 322 632 1
(0.1687733195 0.4156133402 0.2751918594 0.1404214808) 288 506 1
(0.09046601581 0.4300316082 0.02473538389 0.4547669921) 261 453 2
(0.2354132166 0.1019876411 0.2803057506 0.3822933917) 111 158 2
(0.4846138346 0.2576930827 0.09152277523 0.1661703075) 167 324 2
(0.181013588 0.1705651203 0.409493206 0.2389280857) 263 513 1
(0.876831192 0.061584404 0.007839069023 0.05374533497) 233 456 1
(0.3188158868 0.1123915444 0.3405920566 0.2282005121) 29 56 2
(0.2193542426 0.3903228787 0.140317934 0.2500049447) 441 863 2
(0.9141101617 0.02215593026 0.02078898891 0.04294491917) 201 335 2
(0.7474202727 0.09404736726 0.03224249637 0.1262898636) 202 395 1
(0.01824567963 0.4908771602 0.4621540448 0.02872311539) 31 29 1
(0.709184635 0.1319994509 0.01340823156 0.1454076825) 261 453 2
(0.7284203342 0.1357898329 0.09435504596 0.04143478696) 231 450 2
(0.4756975606 0.2621512197 0.0884162724 0.1737349473) 472 927 1
(0.4407764329 0.1738996763 0.2796117836 0.1057121072) 15 29 2
(0.07080450985 0.4645977451 0.08126757319 0.3833301719) 352 688 2
(0.7084399668 0.0396251825 0.1061548341 0.1457800166) 471 924 1
(0.5558498718 0.2220750641 0.1242374407 0.09783762344) 443 1270 2
(0.2014492141 0.1175655083 0.2817098847 0.399275393) 620 1159 2
(0.4319148038 0.0892573851 0.194785213 0.2840425981) 201 335 2
(0.9154309133 0.04228454336 0.01321564804 0.02906889532) 82 160 1
(0.04751132143 0.3840284797 0.09221585961 0.4762443393) 233 1263 1
(0.0322110682 0.4838944659 0.2120806182 0.2718138477) 197 386 1
(0.0324632706 0.4397811348 0.4837683647 0.04398722988) 471 922 1
(0.943796173 0.02333079488 0.02810191352 0.004771118636) 263 515 2
(0.1186363708 0.4406818146 0.07670701018 0.3639748044) 233 454 2
(0.5012600494 0.002131968347 0.2472380069 0.2493699753) 80 155 1
(0.04924841511 0.4753757924 0.2995825519 0.1757932406) 261 512 1
(0.1822562697 0.4088718651 0.2152374497 0.1936344155) 109 212 2
(0.7880850923 0.1059574539 0.0002124265789 0.1057450273) 113 1259 2
(0.4086647955 0.2956676023 0.03917464734 0.2564929549) 79 153 2
(0.513376266 0.05290576263 0.1904061044 0.243311867) 80 155 1
(0.287427946 0.278356426 0.07792960099 0.356286027) 200 333 2
(0.920284303 0.01805806659 0.02179978193 0.03985784852) 257 503 1
(0.04411871324 0.2436799272 0.2342607161 0.4779406434) 290 510 2
(0.7221915633 0.05791017035 0.1389042184 0.080994048) 527 1032 1
(0.4831421604 0.2584289198 0.07437140393 0.1840575159) 291 568 2
(0.6021523959 0.1742002457 0.02472355636 0.198923802) 141 275 1
(0.8917131028 0.05414344862 0.04073508917 0.01340835944) 110 212 2
(0.2860784572 0.3569607714 0.1688450963 0.1881156751) 107 208 2
(0.02786877553 0.1412341886 0.3448314237 0.4860656122) 527 1034 1
(0.2379218232 0.3810390884 0.2316681523 0.1493709361) 28 51 2
(0.07171126943 0.4641443653 0.2826789685 0.1814653968) 319 625 2
(0.2786376262 0.3606811869 0.05404242043 0.3066387665) 170 332 2
(0.5151124441 0.1510866103 0.09135716771 0.242443778) 112 218 1
(0.01674816116 0.3649092131 0.1267167064 0.4916259194) 284 556 1
(0.8223218691 0.08318594477 0.005653120681 0.08883906545) 111 158 2
(0.4571130543 0.1806369965 0.2714434728 0.09080647633) 201 394 2
(0.5342762764 0.02485671453 0.2328618618 0.2080051473) 622 1219 1
(0.1372541921 0.431372904 0.1575457865 0.2738271175) 14 27 1
(0.06781552495 0.2902730351 0.1758192024 0.4660922375) 172 278 2
(0.8739630234 0.001040748395 0.06301848832 0.06197773993) 469 921 2
(0.0267606826 0.4866196587 0.01188056019 0.4747390985) 467 916 2
(0.1422805051 0.4288597474 0.06358461745 0.36527513) 201 391 2
(0.3118283477 0.3440858262 0.2241983306 0.1198874956) 323 633 1
(0.05035243478 0.2200238708 0.4748237826 0.2547999118) 470 920 1
(0.02399408969 0.4880029552 0.1869902932 0.301012662) 650 1250 2
(0.2219576167 0.3890211916 0.1001939287 0.2888272629) 51 99 1
(0.809690846 0.09515457701 0.09156024779 0.003594329211) 411 748 1
(0.4721750744 0.2435244828 0.02038797999 0.2639124628) 172 278 2
(0.4137780995 0.2146461725 0.07846477771 0.2931109503) 383 692 2
(0.5075019068 0.2462490466 0.02268195003 0.2235670966) 320 628 1
(0.1338992239 0.3736607448 0.05938964329 0.433050388) 233 397 2
(0.467498051 0.2662509745 0.1699242697 0.09632670477) 532 986 1
(0.2937231948 0.3470924498 0.006045952803 0.3531384026) 501 925 2
(0.7603689131 0.1131825832 0.1198155434 0.006632960202) 203 395 1
(0.2488310779 0.1279402473 0.3755844611 0.2476442137) 172 337 2
(0.1301266775 0.4349366613 0.39172032 0.0432163413) 380 687 1
(0.421211141 0.2805994722 0.2893944295 0.008794957308) 498 975 1
(0.1821400401 0.06926263502 0.4089299799 0.3396673449) 497 976 2
(0.08075189086 0.2951097485 0.4596240546 0.1645143061) 409 800 1
(0.5992803469 0.1795775701 0.02078225652 0.2003598266) 141 275 1
(0.8030851359 0.09845743207 0.07693212701 0.02152530506) 592 1162 2
(0.1363966626 0.4318016687 0.1642163716 0.267585297) 379 743 2
(0.488669174 0.255665413 0.04443680829 0.2112286047) 472 924 2
(0.5343208334 0.2328395833 0.02904712832 0.203792455) 202 396 1
(0.5466097165 0.1202907269 0.1064044149 0.2266951418) 650 1250 1
(0.4083474057 0.2048232898 0.2958262971 0.09100300734) 653 1252 1
(0.1022399333 0.2579483738 0.1909316595 0.4488800333) 501 925 2
(0.003052328158 0.4867692331 0.01170460282 0.4984738359) 353 1267 1
(0.4520286777 0.2739856611 0.2428904603 0.03109520081) 197 385 2
(0.2194435683 0.2536568823 0.3902782159 0.1366213335) 562 1104 2
(0.6399639013 0.1800180494 0.1463430357 0.03367501368) 25 17 1
(0.3895799145 0.0443925501 0.2608174927 0.3052100428) 383 692 2
(0.2096533067 0.1276903528 0.3951733467 0.2674829938) 139 272 2
(0.2311544255 0.2012295419 0.1831932454 0.3844227873) 559 1039 2