/*--------------------------------*- C++ -*----------------------------------*\
| =========                 |                                                 |
| \\      /  F ield         | OpenFOAM: The Open Source CFD Toolbox           |
|  \\    /   O peration     | Version:  2406                                  |
|   \\  /    A nd           | Website:  www.openfoam.com                      |
|    \\/     M anipulation  |                                                 |
\*---------------------------------------------------------------------------*/
FoamFile
{
    version     2.0;
    format      ascii;
    arch        "LSB;label=32;scalar=64";
    class       scalarField;
    location    "0.002/lagrangian/dsmc";
    object      Ei;
}
// * * * * * * * * * * * * * * * * * * * * * * * * * * * * * * * * * * * * * //


6294
(
3.463722537e-20
1.009149209e-20
1.552349167e-20
5.482493859e-21
2.228826128e-21
8.943216123e-21
7.956485675e-21
8.42231559e-22
1.315636671e-21
4.320434516e-21
8.917373873e-22
6.687475962e-21
8.791776931e-21
1.404358046e-21
4.520052739e-21
7.730995293e-21
1.765950844e-22
1.648398484e-21
9.675910998e-22
4.698252011e-21
1.08542746e-20
9.306652094e-21
1.511392493e-20
1.382601504e-20
1.167039944e-21
3.279404603e-22
2.629667991e-21
1.697686725e-21
3.176884897e-21
6.454950279e-22
1.990873918e-21
8.668511593e-23
2.284269479e-20
6.582085216e-21
4.960225396e-21
9.298092794e-21
1.266317836e-21
1.978877671e-21
4.062816573e-21
7.104819535e-21
1.331867453e-21
1.340293713e-20
2.539122335e-21
4.648180682e-21
2.838825153e-21
2.205489086e-21
5.209549903e-22
4.674950797e-21
9.122460952e-21
1.817831579e-21
1.928275532e-20
1.82642167e-21
2.897637517e-20
5.021453493e-20
1.727156363e-21
1.057089932e-20
7.262751424e-22
6.582443131e-22
6.956566e-21
2.763062684e-21
5.194841214e-21
1.380493999e-20
8.980169105e-21
1.434355635e-21
9.933425168e-21
3.972811947e-21
6.096819043e-21
3.757770229e-21
9.89620321e-22
7.13279219e-21
2.850385265e-21
4.263072131e-21
6.096762014e-21
5.290466315e-21
7.801431922e-21
3.811605987e-21
3.580275696e-21
5.133701606e-21
1.076084464e-20
6.988643072e-21
5.600686141e-21
9.152632548e-22
1.74856378e-20
3.282694343e-21
3.164252575e-21
3.328534826e-20
6.240707426e-21
1.101709539e-21
1.547262524e-20
5.798738073e-21
2.128560735e-21
1.270317391e-21
5.41534632e-21
1.752518099e-20
5.712192028e-23
6.763659076e-21
2.070287932e-22
1.959732561e-21
8.896598799e-21
7.397824777e-21
7.175702599e-21
1.404399653e-20
7.131325567e-21
7.219364289e-21
3.226045244e-21
1.782046389e-21
1.465964016e-20
3.888993192e-23
2.313862649e-22
2.638828919e-21
7.542516229e-22
5.049311399e-21
4.088499667e-21
2.631770567e-21
7.892541525e-21
4.524061828e-21
9.469688861e-21
3.70027228e-21
5.009015989e-21
1.222167562e-20
8.438241576e-21
9.206463579e-22
3.697603343e-22
1.926472395e-21
7.68140093e-21
3.962215092e-21
5.63706124e-22
3.381593501e-21
4.553634763e-21
1.193007721e-21
2.187602809e-20
2.580393205e-21
1.658414264e-21
5.106498527e-21
2.34738091e-21
9.781582604e-21
2.867423793e-21
5.155926611e-22
1.391760055e-21
6.89879781e-22
6.118548063e-22
1.74886629e-20
9.069713219e-21
3.885534597e-21
8.154432473e-22
6.756704448e-21
3.430322677e-21
3.105733274e-21
2.897997176e-22
1.644250349e-21
3.488071792e-22
2.336363235e-21
6.109801488e-21
7.581059893e-21
3.365923973e-22
6.240796755e-21
1.701808482e-21
6.207848426e-21
7.124871634e-21
1.571666838e-20
7.629165025e-21
1.35056032e-20
2.208429118e-21
6.979829573e-21
1.20610592e-21
1.032629642e-21
4.228920554e-21
3.334190861e-21
7.153174618e-21
2.435642932e-21
3.632272744e-21
1.002876605e-20
5.183489418e-21
1.228619622e-21
2.346951746e-22
1.282370249e-20
7.566607373e-21
3.561326849e-21
4.049028742e-21
6.537590746e-21
4.604044947e-21
4.138940314e-22
6.742234228e-21
1.106038926e-21
3.518205665e-21
3.478611244e-21
3.551457318e-21
7.547892009e-21
1.642847491e-20
4.279148984e-22
7.482359044e-21
4.218104423e-22
1.571451326e-21
2.257071191e-21
1.584047719e-20
2.005914052e-21
5.160487647e-20
2.435983866e-21
3.290739986e-21
1.214508157e-21
9.346473053e-22
2.343703754e-21
5.55796145e-22
2.384953946e-21
9.487979375e-21
5.750299029e-21
1.665366e-22
2.88437463e-21
2.75415248e-21
1.563628401e-22
1.548451384e-22
3.203502135e-22
4.589483765e-21
3.269795708e-21
2.183963617e-21
2.962868393e-21
3.811269513e-21
3.176833018e-21
2.42175496e-21
8.278553139e-21
8.585008863e-21
9.877382709e-21
1.092573838e-21
3.395347675e-21
5.07097515e-22
1.286808392e-21
1.452175822e-21
1.793679124e-21
1.214064575e-21
8.361791508e-21
2.409331835e-21
8.204613213e-21
6.43663415e-21
3.012606643e-23
3.772482551e-21
3.086504902e-21
1.106241258e-21
7.530257188e-21
5.504957337e-21
1.299494513e-21
9.275097095e-22
1.372168773e-21
6.69077845e-21
2.141398325e-21
8.648771835e-22
4.516420846e-22
1.724757664e-20
6.915447221e-21
5.486794296e-21
2.650124648e-21
6.77457132e-21
3.384424347e-21
4.998074357e-23
5.999934376e-21
9.633217601e-21
6.620149385e-22
2.308429353e-21
5.654023216e-21
2.43855132e-20
2.611680457e-20
2.572502753e-21
6.793101728e-21
7.727462675e-21
4.316548146e-22
1.160140055e-21
1.2049904e-20
1.471334204e-21
3.751492183e-21
5.463224895e-22
8.259538965e-22
9.238288535e-21
3.592736634e-21
1.038480184e-20
2.74828988e-21
2.329122357e-21
3.313302821e-21
9.27491564e-21
6.937588314e-21
2.97449035e-20
1.930610659e-21
1.244344544e-20
3.071033246e-21
1.931692986e-21
4.294168541e-21
1.88919614e-20
3.522285524e-21
4.851839634e-21
7.168134157e-21
4.631199308e-21
7.625453784e-21
2.126984427e-21
2.453311916e-20
7.559629624e-21
3.896346679e-21
1.416168079e-20
1.505309003e-20
1.29950348e-20
9.662722807e-21
8.535723927e-21
5.709566836e-21
8.674468674e-21
5.872437829e-21
2.086079999e-22
7.510122456e-22
3.523754629e-21
2.921861715e-21
3.244201746e-21
1.061025449e-21
1.270991892e-21
1.019441143e-21
9.86245632e-22
5.23974215e-21
9.626510691e-21
6.44642704e-21
9.684837141e-22
3.999202944e-21
3.276767254e-20
8.135749167e-21
3.188142959e-21
9.870838686e-22
3.932043848e-21
9.843005e-21
1.84439126e-21
4.953495201e-21
3.872682845e-21
1.959994601e-21
3.521314509e-21
5.476694414e-22
2.46161006e-22
2.000576605e-21
1.552531353e-22
1.951501323e-22
1.523449558e-20
5.958731744e-21
1.994561003e-21
6.179023113e-22
5.768950539e-21
6.970601539e-22
2.623741279e-20
1.404436756e-20
1.175990714e-21
3.58926539e-21
6.401794048e-21
8.104580191e-22
3.223263696e-21
4.750237602e-21
1.352747946e-20
3.173489144e-21
1.816771624e-21
1.353429025e-20
3.955289494e-21
4.020138276e-21
1.092598295e-20
2.000049572e-20
1.683761091e-20
1.094489087e-22
6.852881904e-21
1.012830296e-20
3.159122448e-21
3.151449306e-21
8.917293547e-21
5.79435462e-21
2.446042281e-21
3.952790392e-21
1.075836811e-21
1.436466683e-20
3.546227674e-21
1.032373999e-20
1.674707986e-20
1.230026949e-20
4.144626571e-21
9.00199072e-21
6.637170937e-22
1.250871063e-20
3.936125084e-21
2.684657733e-21
1.433119786e-20
4.036638555e-21
1.460610489e-20
9.222660459e-21
4.277165007e-21
8.374678659e-21
4.466921256e-21
2.422619888e-21
3.606275661e-21
2.497811838e-21
7.263479381e-21
7.443913879e-21
7.064355079e-23
5.84999079e-21
4.795175147e-21
1.858886342e-20
8.466969245e-21
5.878382219e-22
1.230424681e-20
4.103149755e-21
5.409356939e-21
1.073294931e-21
1.782244928e-21
3.239134416e-21
1.970568768e-21
1.451194449e-20
1.860393026e-21
4.975091185e-21
6.53626555e-21
2.997419884e-21
2.471389364e-21
4.157402582e-21
1.026307014e-20
1.906414805e-20
1.299140792e-20
2.295178967e-21
6.841769305e-21
5.17072851e-21
6.528849682e-22
2.559735081e-21
4.793456692e-21
7.868889176e-21
2.966181519e-21
7.922954469e-21
2.60157351e-21
1.892082549e-21
7.033284898e-21
3.67345865e-21
1.656650114e-22
7.806174839e-21
7.058577536e-21
6.10708791e-21
7.67779801e-21
2.946399199e-22
1.722960157e-21
5.337319273e-21
7.29018986e-22
2.946598027e-21
3.009881811e-21
1.591580825e-21
7.49500185e-21
5.468959603e-21
1.342495067e-21
7.548318157e-21
8.140333198e-22
3.493705197e-21
2.071762118e-20
6.210130251e-21
7.897856825e-21
4.473532719e-22
1.45045923e-20
1.02237319e-20
3.666593628e-21
2.086087855e-22
1.7007753e-23
1.450793178e-21
2.535623671e-21
2.345279719e-21
7.095957077e-21
2.747761763e-21
3.235506427e-22
1.549582898e-21
6.608541169e-22
1.663061614e-23
1.893292822e-21
9.280054244e-22
5.220419218e-21
4.771183522e-21
7.022836307e-22
1.4972194e-20
8.65734554e-21
2.615246516e-21
6.962618018e-21
5.676722469e-21
3.790535771e-22
3.150581409e-22
9.223188041e-21
3.021292551e-22
3.326928766e-21
7.333988875e-21
9.216238556e-21
3.77725834e-21
1.169411979e-20
1.21980136e-21
1.231053766e-21
2.243952437e-20
6.248303712e-21
2.972470465e-21
4.056941942e-22
4.567183827e-23
1.964713014e-21
1.158951601e-20
1.475884303e-21
7.435666655e-21
1.496162266e-21
2.4108584e-20
6.268636803e-21
3.555292382e-21
4.141355469e-21
2.786993361e-21
1.168605814e-20
2.426260716e-21
2.76785216e-21
4.701711482e-21
2.133403304e-20
1.219348916e-20
1.505608002e-20
6.101437342e-21
1.749049397e-21
1.095844453e-20
4.598442989e-22
3.385229441e-21
9.429772269e-22
4.087769468e-21
4.500503627e-22
5.17704513e-21
3.211753828e-22
5.080713265e-22
1.836112945e-21
3.255727474e-21
2.225505399e-21
9.290064874e-21
1.773858168e-21
3.020160152e-21
6.331684171e-21
2.885430068e-22
3.206396673e-21
7.776040004e-22
8.026562309e-21
6.454823408e-21
1.232883646e-20
3.814790935e-21
3.732995772e-20
8.364752373e-22
3.064849495e-21
3.734748945e-21
5.383020654e-21
2.09120804e-21
3.379945342e-22
1.20785772e-21
4.719291941e-21
4.581859734e-21
5.117778306e-21
6.227403311e-21
6.626851588e-21
7.880850017e-21
2.322473526e-20
5.990685273e-21
7.129433202e-21
2.52515622e-21
1.546110977e-21
9.427959796e-21
1.823952151e-20
1.062507015e-21
4.960152083e-21
9.533080767e-22
7.024289497e-21
8.08487965e-21
6.698941871e-21
2.632994174e-21
5.593312296e-21
1.452955424e-21
7.311689402e-22
2.690722613e-21
6.240149043e-21
5.888459347e-22
7.327901222e-23
1.117459558e-20
1.950858407e-21
3.314763054e-21
3.823392865e-21
1.961996453e-22
2.200090983e-21
8.715096791e-21
2.919784543e-21
1.534658654e-20
2.153591325e-21
2.140913528e-22
4.592213869e-21
4.001279624e-21
7.382238801e-21
6.342836067e-21
5.258963257e-21
1.010526514e-20
4.4429348e-21
4.165897187e-20
2.945485154e-21
9.285119039e-22
7.550280907e-22
2.28455879e-21
1.506955117e-20
6.010030262e-21
3.237827904e-21
1.829040439e-21
8.273737269e-22
1.587568757e-20
2.128558074e-21
3.224336344e-21
1.273136785e-21
2.575999883e-21
5.879436389e-23
2.592409984e-21
1.84076481e-20
3.539031421e-21
2.28238285e-21
8.897672393e-22
7.685543888e-23
5.116909095e-24
3.820249292e-21
4.526957721e-21
7.666909449e-21
2.692436247e-21
2.604147684e-21
7.773063232e-21
1.092768526e-21
5.633872149e-21
3.799492193e-21
8.856996986e-21
2.045309716e-22
8.314002606e-21
1.042587221e-22
1.410352285e-22
1.385666664e-21
2.912166204e-21
3.16216823e-21
5.977496771e-22
6.643793238e-21
7.041707574e-22
6.907624659e-21
6.63720307e-21
5.168041618e-21
2.475069117e-22
1.602476373e-21
1.742023882e-20
6.260367432e-21
1.521718214e-21
1.390020302e-20
4.89903479e-21
3.368449038e-21
1.51150444e-22
1.063820331e-21
1.803276565e-20
1.101041378e-21
2.628228439e-21
3.222670146e-21
8.213259963e-21
4.935327635e-21
4.388928205e-21
7.299069854e-21
1.108293278e-21
3.922456316e-21
1.997890665e-21
3.108571413e-21
9.658015169e-22
1.616017038e-21
2.860962955e-21
1.740658085e-21
1.52837633e-21
1.228645133e-21
1.119725509e-21
3.976075677e-21
4.304069781e-21
1.902618204e-21
3.56772765e-21
7.84879382e-21
4.025687489e-21
8.035957974e-22
1.033032267e-20
8.371656349e-21
3.709962579e-21
3.27700515e-21
2.293685356e-21
1.214270004e-20
6.486469188e-21
6.116862331e-21
1.534344608e-21
1.455527401e-20
3.434324007e-21
3.711983856e-21
5.540278664e-21
3.442416859e-21
1.695667706e-21
2.911652042e-21
5.527520309e-22
5.02015918e-21
4.29884348e-21
1.597744304e-23
3.881931971e-21
5.716083582e-21
1.094242446e-20
1.335222005e-21
2.706314612e-21
1.61358306e-21
4.381234404e-21
2.340885557e-21
5.653359692e-21
1.220572661e-20
2.788357081e-21
1.804062784e-21
4.131206012e-20
1.485985005e-20
2.396226344e-20
1.143484103e-21
2.758715184e-23
7.086301412e-21
3.384827932e-21
1.076064525e-20
6.128598137e-21
1.096894255e-21
1.994477995e-21
3.706786352e-21
6.990869943e-21
3.171714927e-20
3.340415829e-20
1.751852164e-22
4.254955515e-21
6.579584096e-21
1.663220508e-21
7.387026607e-22
2.584704997e-22
6.003594591e-21
9.463295779e-21
1.581676769e-22
3.573477561e-22
1.16901338e-20
1.620510674e-20
1.704636979e-22
2.898405186e-21
1.145241291e-20
5.379118529e-21
1.379238587e-21
2.558010024e-21
1.896970658e-21
6.066016061e-22
2.804009976e-21
3.020777541e-21
1.210471782e-20
1.736184044e-21
3.934235949e-21
1.680602859e-21
4.765070725e-21
4.98879912e-21
1.691830512e-20
8.288045838e-21
3.981864203e-21
1.706666893e-21
4.217444337e-21
1.276771706e-20
6.709981404e-21
9.581864382e-21
1.37821032e-21
2.508527914e-21
5.245571139e-21
1.944724619e-22
4.079947125e-21
1.852888397e-20
2.221383288e-20
2.505735087e-21
2.506281892e-21
3.543980353e-21
6.090888384e-21
1.36204012e-21
6.280882338e-21
1.049415075e-21
2.168123878e-21
7.027871598e-21
3.428160716e-20
2.977979322e-21
6.911502626e-21
7.087383353e-22
6.334542812e-22
1.404456181e-20
1.038703931e-21
7.742992837e-21
4.712850425e-21
9.534994507e-21
1.151881033e-20
3.565898079e-21
6.409350234e-22
6.868669837e-21
4.130954536e-21
1.905007375e-20
1.3523395e-22
1.01999764e-21
2.016039169e-20
5.741874376e-21
1.138923563e-21
4.525488516e-21
5.960355671e-23
8.740774202e-22
5.40161636e-21
1.568307027e-21
2.996380033e-21
8.461445961e-21
1.344065135e-21
3.168971636e-21
1.357850193e-21
4.768514276e-21
4.932799346e-21
1.539497661e-20
6.877584673e-21
2.83907766e-21
8.060788763e-21
1.63401368e-20
1.937461355e-21
3.915068155e-21
1.488440663e-21
1.615895252e-20
3.624087869e-21
2.000212887e-21
4.909176681e-21
1.337967792e-20
3.619346991e-21
1.002385765e-20
9.658309746e-21
1.878556402e-25
7.123412685e-23
1.794286028e-20
3.047020346e-21
1.88660822e-21
1.650258015e-20
2.554362361e-21
2.047271422e-21
9.354245516e-22
3.667736986e-22
4.574277357e-21
7.648286475e-22
4.707577592e-21
1.023153904e-21
1.47616089e-21
7.383531237e-22
1.028009357e-21
3.690547042e-21
6.849380417e-22
4.02525897e-22
1.268798082e-21
3.43057934e-21
1.128484494e-22
3.833325428e-22
2.623662261e-21
3.096547927e-21
7.258502209e-21
1.212697065e-20
4.211412468e-21
3.955068678e-21
1.156685882e-20
5.909659154e-22
1.14887219e-21
1.760175884e-20
5.491903754e-21
6.226519715e-21
4.557595569e-21
7.083461817e-21
1.716364259e-21
4.894509263e-21
1.599345912e-21
1.671218398e-21
4.753289169e-22
5.040395373e-21
2.171033834e-21
3.88920596e-21
3.23467183e-21
3.371788761e-21
7.161707312e-21
2.087853412e-21
6.89434702e-22
1.425046194e-21
4.201105992e-21
9.205929424e-21
1.214447508e-21
2.780188371e-21
4.235516879e-21
2.767965612e-21
6.983224198e-21
4.048179137e-22
1.31507326e-20
5.343815479e-21
5.404602677e-21
8.654717362e-21
1.792138129e-20
7.248503397e-21
4.053479546e-21
4.580291564e-22
1.735399339e-20
3.295278128e-21
9.4439291e-22
2.217687666e-21
6.23525416e-22
2.763849825e-21
2.091369773e-20
2.395894744e-20
2.040972825e-21
5.862875716e-22
2.922590867e-21
1.558272702e-21
3.209449223e-22
4.980476531e-21
1.794388149e-21
3.322705356e-22
1.002825354e-20
8.689506857e-21
1.476245889e-21
6.236076852e-21
7.478405091e-21
1.226544113e-21
1.163356119e-20
1.68975929e-21
9.735809496e-21
1.756333853e-21
2.823858539e-22
7.456088405e-21
4.452669109e-22
1.8317834e-21
4.482970394e-21
1.932747603e-21
9.289546214e-21
9.081401621e-21
3.197609329e-21
5.830830998e-21
8.853079751e-21
5.244544491e-21
3.730606526e-21
3.960259193e-22
1.291495209e-21
4.733320157e-21
4.82704051e-21
1.158691122e-21
1.097918505e-20
4.318163964e-21
1.315805698e-20
9.622731861e-22
1.108748341e-22
8.292354324e-21
6.20559102e-21
1.992566542e-21
4.234950744e-21
1.987162772e-21
1.127711449e-21
1.842546898e-21
3.809638096e-21
7.397032204e-21
8.223496909e-22
2.846836676e-21
4.737225646e-22
1.651668943e-22
1.712312537e-20
7.366907732e-21
4.595596175e-21
2.554669579e-21
5.878180602e-22
2.220477098e-21
8.04265983e-23
3.987454404e-22
2.72648347e-21
6.238040198e-21
2.745085621e-21
7.673024841e-22
5.71966012e-21
4.255118363e-21
1.990087149e-22
1.808123612e-22
9.007560164e-22
5.384190094e-21
1.100524624e-20
2.590905539e-20
1.079593495e-20
5.107886267e-22
1.102966025e-21
2.450276905e-22
2.577311347e-22
7.535917503e-22
9.08390025e-21
3.550617469e-21
7.900403636e-22
3.682722875e-21
6.960437403e-21
1.125876168e-21
8.442701967e-21
1.15481343e-20
6.660696484e-21
3.575078451e-21
1.114818642e-21
6.024306988e-21
6.125094501e-22
5.098109679e-21
3.436027968e-21
7.625325919e-21
2.414555436e-21
5.520968921e-22
1.583691083e-20
6.152685192e-21
7.19068564e-21
5.920777648e-21
2.157824855e-21
7.616791882e-22
3.716573101e-21
1.463015485e-21
1.979528776e-21
5.496891964e-21
4.661870698e-21
7.016665008e-21
6.423837572e-23
6.277848865e-23
2.972508789e-22
3.820761351e-21
2.380576572e-21
1.095427449e-20
1.023739548e-20
1.017223592e-20
1.858219557e-21
7.255175965e-22
7.064798185e-22
7.881335052e-21
1.312561172e-20
1.243997353e-21
1.771966918e-21
2.049372521e-21
2.409738157e-21
6.698178756e-21
3.981202924e-21
1.974900312e-20
5.542282006e-21
2.124704987e-21
9.174021235e-21
3.954075034e-21
1.31878429e-23
1.095682479e-21
3.135867395e-21
4.776867455e-21
3.343204739e-21
2.404780159e-22
5.351198115e-21
4.089169389e-21
3.585316772e-20
2.938752826e-21
1.092466548e-21
4.423093878e-22
1.018046738e-21
8.128456376e-21
4.988791472e-22
3.448853126e-21
6.626676857e-21
2.489048535e-20
4.356501474e-21
7.825052922e-22
8.202128481e-22
3.321405266e-21
2.091055243e-22
4.055613576e-21
1.419974175e-21
6.267462056e-21
1.608945202e-21
1.484882273e-20
6.443971176e-22
5.70472869e-22
8.864921768e-22
3.34678852e-21
3.134252631e-21
2.531352096e-22
1.95836837e-21
8.984249423e-21
3.19795081e-21
2.664713464e-22
4.892448423e-21
1.067661612e-22
7.692278537e-22
3.333916836e-21
1.214379579e-20
3.867988588e-21
3.567870144e-21
2.228626582e-21
9.97219137e-21
6.119090428e-21
7.859534795e-21
1.189385344e-20
1.075443374e-21
4.38966457e-21
1.17506907e-21
7.526901844e-22
5.549737099e-21
9.65293763e-21
1.667412949e-21
7.382342776e-22
8.677324633e-22
1.087846979e-21
4.118851155e-21
2.512474128e-20
2.155285443e-22
3.604401909e-22
1.183721872e-21
4.847391327e-21
6.759173298e-21
3.354738684e-21
1.506511046e-21
1.477115894e-21
3.835796937e-22
4.243416582e-21
1.426799737e-21
1.6452814e-20
2.689949121e-21
6.08179262e-21
2.685832139e-20
9.406760151e-22
1.387593686e-21
1.779959814e-22
6.479054884e-21
2.60104261e-20
2.909573855e-21
6.267474626e-21
1.622503585e-20
7.699379978e-21
4.169361423e-21
2.854838579e-20
5.513297914e-21
1.622685269e-21
1.933362454e-21
9.290985971e-21
2.14877549e-21
8.397375413e-22
9.954699864e-22
5.71403078e-21
1.794943436e-21
1.472576897e-22
1.590339735e-21
1.593386727e-21
3.307935071e-21
3.526382798e-21
4.446907589e-22
2.496374183e-21
8.570993556e-22
9.357821934e-21
1.518219652e-21
5.908587543e-21
1.249564461e-21
5.934170751e-22
3.943385054e-21
4.037528908e-21
6.339960895e-21
6.35254654e-21
2.700044976e-21
7.525312155e-21
8.61983503e-22
1.756179073e-21
4.223883122e-21
2.588406465e-20
1.05247068e-22
9.838818754e-21
1.153323488e-20
2.307763132e-21
2.1819507e-21
5.426979808e-21
3.722034777e-21
2.584700596e-21
4.370325803e-22
8.067141446e-22
1.204281514e-20
3.974241419e-21
2.477546239e-21
4.702761788e-22
6.418199617e-21
1.175922433e-21
3.994218018e-21
5.991246734e-21
3.301984909e-21
6.166082122e-21
1.931125457e-22
6.131582786e-22
3.925795907e-21
1.861221887e-21
7.915627257e-22
1.61107431e-21
4.524579735e-22
9.000182268e-24
3.110703652e-22
3.955276647e-22
1.347905627e-21
1.310968218e-21
3.536069073e-21
4.112243207e-22
2.615056931e-21
3.087269365e-22
8.161394072e-22
1.692032449e-21
2.260968224e-20
9.100536084e-22
9.882038233e-22
8.346185723e-21
1.555460956e-21
1.96980384e-21
1.280451982e-21
4.827988841e-21
1.690725701e-20
7.185128615e-21
1.879257086e-21
1.341007996e-20
2.34068362e-20
3.094232822e-22
2.399908911e-21
8.166130347e-22
1.842441084e-21
5.97060057e-21
5.017152018e-21
3.446749743e-21
9.903876053e-23
2.520815845e-21
1.078741125e-20
2.612397992e-21
2.848748869e-21
3.907332569e-21
5.35400486e-21
1.210256448e-21
1.939397722e-21
9.358422259e-21
4.250409862e-21
7.724179163e-22
6.699870299e-21
1.056275232e-20
7.105853149e-21
1.431584215e-21
7.093964655e-21
1.340296709e-21
2.977452982e-22
6.920512982e-22
5.393781605e-22
1.776676727e-21
2.540630887e-21
2.80105109e-21
2.353826458e-20
2.289718839e-20
4.305662871e-21
1.971042034e-21
5.129689464e-21
7.081338623e-21
1.280425531e-20
8.047370811e-21
6.122018729e-21
1.412075706e-20
7.14864801e-21
3.257903638e-22
9.131099946e-21
4.362667967e-20
5.147035948e-21
1.312929324e-21
4.682426038e-21
3.53316835e-21
2.113850606e-21
2.049577406e-21
1.207546705e-20
3.67646353e-21
1.699412228e-21
4.593273341e-21
4.375654707e-22
8.572451014e-21
4.296599018e-22
1.258559566e-20
7.837100989e-21
1.419933785e-20
4.383378412e-22
3.981517393e-21
6.095041039e-21
1.671882953e-20
1.657324486e-22
2.400546778e-21
3.738180386e-21
3.608202978e-22
2.138533928e-21
7.720380293e-21
4.416553927e-22
4.653912027e-22
3.042828447e-21
5.555848306e-21
1.912610548e-21
1.78367417e-21
2.957367569e-21
4.496519434e-22
2.671575956e-22
1.261293668e-20
1.093797979e-21
1.721428748e-21
4.256166398e-22
2.727243763e-21
3.982603847e-21
1.471431859e-22
8.075275906e-22
9.027984748e-21
6.168140826e-21
3.198987233e-21
3.183839163e-20
7.283219661e-21
4.306697076e-21
4.187561817e-22
8.086894431e-21
1.262105033e-21
2.057690656e-21
1.782649454e-20
3.627785311e-22
2.168271412e-20
3.33614551e-21
1.620304368e-21
6.142733257e-21
9.276652878e-21
3.967659937e-22
3.286009607e-21
3.119232821e-21
1.401418779e-21
2.207460217e-21
3.474833432e-21
5.354428597e-22
1.339845325e-21
3.797091089e-21
9.658997477e-22
1.752949344e-21
3.133005188e-21
7.005035313e-21
7.422090562e-21
8.108347182e-21
1.540301209e-21
1.020393719e-21
5.094294931e-23
3.213673277e-21
4.171180507e-22
3.899510398e-21
6.458136951e-21
2.274720731e-21
1.442987159e-21
1.528857927e-20
6.98454272e-21
8.782132857e-21
1.206433612e-21
7.793312469e-21
3.819732323e-22
4.21636217e-22
2.092036899e-20
5.500768955e-22
1.864580666e-21
2.02848293e-21
7.318220938e-22
3.283601409e-21
6.10744363e-21
2.30227987e-21
2.162339484e-21
1.589675545e-21
3.54391448e-21
3.41989499e-21
5.63054037e-21
4.997807899e-21
2.363575817e-21
4.112813803e-21
2.154022676e-21
7.169194579e-22
4.134676547e-22
4.486810266e-21
7.483969175e-22
3.214735402e-21
3.047279772e-21
5.534516612e-21
4.943003599e-21
8.405894764e-21
2.089048331e-21
2.214517945e-22
3.203969008e-22
5.778305283e-21
2.896346717e-21
5.607694651e-22
8.730466126e-21
1.903226407e-21
5.11133037e-21
2.246283628e-21
1.608699498e-20
2.623681629e-21
1.789597524e-21
8.07277939e-21
5.976369457e-21
2.248906695e-20
5.602618861e-21
9.944651418e-21
2.09944303e-22
1.230406543e-20
4.617293193e-23
8.104766802e-21
1.112637672e-20
1.940034243e-21
6.056236844e-21
4.930319404e-21
2.91567464e-21
2.681291423e-21
3.144611021e-22
5.67303878e-21
2.920764694e-21
4.337271347e-21
1.593222528e-21
1.299250611e-22
1.330307331e-20
1.728010146e-21
1.078488457e-21
7.083618834e-21
9.346472785e-22
1.476222429e-22
7.604662307e-22
2.462288166e-22
5.695492292e-21
6.781824689e-22
4.546536912e-21
6.810054625e-21
4.825829156e-21
1.122059672e-21
3.723674595e-21
3.694175838e-22
5.849276794e-21
1.631423902e-21
6.20691115e-22
3.653011911e-21
1.722587819e-20
4.53315337e-22
1.833083626e-21
2.562390474e-21
2.569188491e-21
1.033643745e-21
8.926882443e-22
2.48129877e-21
1.290595789e-21
4.700403504e-21
7.352088277e-21
5.507928695e-21
1.206497619e-21
1.258254352e-20
5.416575303e-21
1.495171169e-21
4.623985608e-22
1.591250089e-21
5.317623324e-21
5.240659001e-21
1.36208982e-21
5.021747717e-21
2.351050576e-21
5.646580087e-21
1.51385268e-20
1.004304577e-20
4.944201607e-21
7.079645641e-21
1.358207706e-20
1.259799655e-21
6.807946892e-21
1.375107155e-21
1.90626556e-21
2.320540079e-21
5.209203408e-21
1.774849171e-21
5.238041747e-22
4.225314053e-21
1.210377276e-20
5.43566137e-21
1.784761822e-21
3.28271411e-21
3.520586218e-22
2.870676945e-21
1.765026367e-21
6.764779383e-21
1.666798245e-21
2.507746316e-21
5.285844119e-22
4.023543739e-21
8.409488493e-22
9.211095993e-22
2.671390175e-21
2.741279708e-22
2.815888705e-21
7.003802584e-21
2.09280674e-21
1.086892867e-21
3.796697581e-22
1.321034416e-21
6.687814351e-21
1.300098583e-21
1.702053472e-20
1.149814559e-21
7.63491163e-21
1.775119934e-21
1.094933432e-20
4.476882962e-21
4.385563957e-21
4.62976756e-21
2.705057339e-21
9.970886751e-22
1.990775584e-21
1.297204652e-20
4.877426412e-22
1.716416162e-21
2.935626655e-21
1.060290259e-22
2.997084575e-21
1.191010348e-21
1.094834974e-21
4.103152026e-21
1.132152336e-21
3.64141395e-20
1.226536646e-21
4.319614089e-21
3.336709012e-21
2.534578366e-22
1.57931998e-21
1.027634252e-20
2.575225346e-22
3.069209847e-21
3.283597054e-21
2.480333724e-21
2.709219499e-21
4.733961193e-22
5.108909764e-21
6.656655058e-22
1.216303824e-22
1.029453018e-20
1.857280158e-20
4.228939568e-22
5.516890589e-22
4.471641486e-21
1.088150648e-21
2.635459948e-21
7.368300087e-22
1.874090815e-22
7.202066362e-21
2.97875932e-22
2.784648856e-23
9.801187267e-22
1.124552031e-20
1.54190265e-20
3.738411431e-21
1.579077547e-20
3.279775456e-21
3.659420847e-21
4.015372315e-21
6.480706877e-22
2.275563049e-21
1.583885146e-21
8.864932964e-22
1.418723661e-22
9.409830532e-22
1.239681295e-20
3.007742063e-21
1.463997805e-21
2.134274908e-21
9.80005123e-22
8.05150271e-22
5.152248147e-21
2.263214583e-21
1.627848764e-21
1.733359397e-20
1.164163882e-20
1.012375654e-20
2.813023027e-23
2.126994129e-20
4.966105733e-21
5.32202176e-21
2.027141872e-20
6.789551432e-21
2.113723986e-21
1.317934913e-21
1.645452446e-21
6.017263017e-21
4.635216979e-21
5.207180327e-21
1.480016074e-20
5.732003506e-22
6.294337916e-21
7.974948756e-21
1.186036293e-21
5.679201256e-21
4.005179301e-21
2.845915156e-21
2.033388793e-21
6.124790474e-21
3.709612232e-21
9.740819212e-21
8.69431518e-21
8.414143376e-23
1.767469101e-21
1.174002189e-21
1.709128099e-21
3.499002883e-21
4.38847621e-21
8.498930339e-21
2.620541774e-21
1.744972513e-20
4.003190727e-21
1.244680198e-22
1.541157087e-20
2.548641585e-20
5.581406634e-23
1.958813999e-20
4.676798538e-21
4.348166045e-21
4.977765011e-22
2.622470955e-22
1.125564216e-21
2.920143218e-21
8.539627326e-21
1.113601122e-20
5.508230071e-21
1.328353872e-20
1.258379805e-21
1.49232305e-21
8.716827076e-21
7.149189839e-21
8.649050631e-22
1.0305403e-21
9.15856799e-22
6.777205326e-21
1.857253907e-20
3.133143896e-22
2.041455626e-21
8.082816401e-21
5.974415458e-21
7.760775329e-22
4.976017018e-22
7.115771463e-21
2.015820054e-21
5.587700302e-22
8.386419403e-21
1.436040633e-21
2.832979637e-21
9.906571647e-21
7.450966914e-21
1.894903739e-21
7.418849835e-22
3.810344327e-21
3.624637809e-21
1.511080331e-20
3.42640917e-21
6.495779514e-22
2.498595644e-21
5.73342258e-21
2.46237971e-21
2.136436835e-21
1.692836381e-22
2.303370299e-20
2.03314079e-22
9.742687842e-22
5.632943091e-22
8.656461159e-21
5.588790675e-21
2.215650928e-20
8.887622703e-21
1.123896514e-22
3.597309816e-21
7.355535783e-21
6.189498909e-21
2.311890955e-21
1.44290921e-21
6.560503654e-21
4.632215043e-21
1.096197266e-21
5.698809557e-22
3.073571058e-21
1.885044211e-21
1.032890622e-21
1.463193362e-22
8.639895449e-22
7.562040349e-21
3.204162102e-22
1.894185487e-22
1.587160978e-21
2.460678245e-21
5.284627811e-22
2.073734225e-21
8.638855296e-21
3.36783036e-22
6.845167354e-21
1.989319163e-21
2.175917886e-21
2.965344452e-21
2.269473064e-22
7.010260705e-22
5.093954555e-21
1.387534485e-21
1.076891428e-20
9.820570266e-21
2.264553193e-21
8.435788709e-21
1.337215889e-20
1.773876873e-20
2.342346959e-21
2.872205049e-21
4.909621236e-22
1.667362827e-21
2.009406448e-21
3.398500335e-22
2.342335566e-21
1.328978571e-21
7.053552726e-21
9.408306495e-21
9.394731692e-21
1.493024105e-21
5.408673893e-21
2.109725004e-21
1.357544677e-21
2.027999711e-22
3.552782421e-21
4.668188486e-21
3.667226656e-21
1.909992692e-20
8.704397216e-21
1.779696044e-20
7.589002652e-22
1.495175558e-21
5.202339167e-22
6.187637136e-21
1.219608267e-21
2.776885817e-22
3.520443295e-21
1.657179761e-22
7.428336722e-21
3.963644688e-21
1.422713017e-21
7.725106595e-21
6.945268838e-21
2.473260614e-21
1.612931245e-20
2.502666289e-22
3.401990312e-22
2.36729283e-21
6.892449992e-21
2.02052493e-21
5.401405619e-21
9.47461987e-21
8.9459429e-21
1.084856488e-21
1.971656793e-21
3.658254949e-21
5.617690045e-21
1.227344807e-20
4.261105994e-21
1.07314787e-20
6.787195519e-21
8.665711989e-21
3.273004274e-21
1.70332816e-20
7.355544462e-21
2.536856077e-21
1.616410143e-21
1.511940638e-21
6.003652848e-21
1.10297808e-21
1.356161075e-20
1.247027319e-22
3.566474594e-21
3.964223086e-21
6.531664335e-21
9.313363165e-22
4.537292775e-21
1.115182841e-20
8.207277212e-21
8.063488564e-21
7.371185752e-22
2.95777882e-22
7.307032205e-21
6.208030321e-21
1.612661073e-20
1.591750246e-22
1.005611305e-20
4.824169087e-21
9.25272347e-21
5.586368803e-21
7.663404336e-22
4.511675633e-21
5.389028732e-22
4.147552378e-22
2.936114638e-21
7.752524586e-21
3.477913244e-22
2.012470808e-21
7.994283325e-22
1.235004511e-20
4.90020782e-21
1.684570286e-21
5.468984362e-21
1.179562826e-21
2.549826407e-21
6.521555534e-22
6.292599383e-21
7.611460496e-22
1.809492645e-22
1.11691255e-20
7.320442642e-21
4.118152808e-21
1.671607254e-21
2.427605985e-21
2.096550861e-21
5.292596576e-21
3.290736441e-21
1.871467295e-22
2.338583382e-21
9.379277392e-21
1.714214263e-21
1.759213045e-20
1.939736238e-22
7.987420042e-21
5.170427084e-21
3.536389827e-21
4.926754038e-21
2.388251871e-22
2.862141019e-21
4.796406835e-21
1.82415916e-21
6.894689168e-22
3.600261113e-21
2.266892051e-21
3.984469675e-21
1.309786477e-21
3.759824471e-21
1.156036872e-21
1.114431211e-21
2.352281034e-21
7.736768304e-21
8.672562825e-21
5.183468098e-21
3.360275555e-21
2.139694257e-21
4.501163714e-21
7.749751871e-21
1.875844438e-21
4.099094298e-21
4.348798004e-21
2.776052444e-22
7.831560285e-21
2.345629751e-21
4.547993934e-22
2.04009206e-21
7.925329286e-22
2.126256146e-21
4.104243783e-21
3.458127025e-21
1.424595104e-20
1.107515306e-20
1.625020516e-21
7.28791425e-20
2.268421285e-22
8.748691703e-21
1.676933839e-21
2.540480923e-21