/*--------------------------------*- C++ -*----------------------------------*\
| =========                 |                                                 |
| \\      /  F ield         | OpenFOAM: The Open Source CFD Toolbox           |
|  \\    /   O peration     | Version:  2406                                  |
|   \\  /    A nd           | Website:  www.openfoam.com                      |
|    \\/     M anipulation  |                                                 |
\*---------------------------------------------------------------------------*/
FoamFile
{
    version     2.0;
    format      ascii;
    arch        "LSB;label=32;scalar=64";
    class       labelField;
    location    "0.002/lagrangian/dsmc";
    object      origId;
}
// * * * * * * * * * * * * * * * * * * * * * * * * * * * * * * * * * * * * * //


6294
(
78853
79360
91349
77722
78323
79106
77022
79193
79550
79830
79357
80419
93804
78305
78099
78847
79273
80198
78815
79576
79799
92682
79617
79735
79741
80257
93591
78491
79477
80183
80477
79101
79107
79544
79720
79818
79994
80700
82584
79121
79716
80325
80520
94521
79284
79592
80114
80412
79754
79817
80555
80786
81008
81019
85054
79542
80171
80330
80521
94513
79974
80168
80437
80634
80865
81039
81468
81894
94118
94720
90216
79562
79896
80203
80269
80516
80684
81060
81106
95024
78661
79816
79993
80535
80619
94321
81044
95741
93051
80329
79674
79831
79995
80026
80211
80283
80379
80553
80615
80851
80941
81401
81760
82771
94909
80188
79508
79813
80086
80296
80546
80599
80734
80899
81048
81141
81146
81490
94924
81958
85410
94225
95344
13531
79852
80038
80280
80522
80616
80658
80678
80808
80949
81011
81028
81032
81330
81513
81559
81587
81652
95138
83128
84268
86021
86371
79485
80266
80343
80439
80686
80756
80787
80809
80886
80931
81201
81291
81385
81914
82107
82160
81014
83913
86020
93687
94122
79937
80102
80320
80357
80519
80554
80623
80767
80773
80779
80806
80843
80880
80944
80986
81149
81150
81235
81402
81421
81471
81476
81483
81508
81575
81616
81666
81716
81724
81753
81867
82174
82218
82255
84965
93913
85221
80061
86815
93994
79376
79938
80608
80612
80690
80693
80697
80704
80709
80967
81035
81040
81158
81223
81322
81383
81526
81741
81767
81790
81833
82049
82263
82514
82717
95328
83215
86115
86459
86460
92269
81037
79328
79572
80304
80360
80462
80956
81139
81221
81238
81329
81425
81519
81584
81604
81608
81689
81697
95343
81830
81839
81919
81939
82098
82112
82189
84627
95026
86114
79633
79648
80386
80421
80442
80471
80603
80794
80872
80890
80987
81024
81122
81275
81337
81390
81505
81596
81613
81682
81705
81764
81778
81786
82446
82461
95239
94724
95748
95731
94011
89325
94806
82079
79552
80732
80953
81026
81059
81135
81138
81171
81313
81318
81321
81324
81338
81431
81442
81518
81580
81599
81664
81672
81865
81884
81922
81967
82009
82042
82133
82176
82356
82381
82392
82557
82657
84535
85219
85409
86904
89547
92870
94205
79380
80302
80403
80512
80598
80662
80714
80720
80769
80780
80929
80938
80951
80970
81016
81250
81319
81334
81335
81428
81473
81556
81603
81615
81622
81661
81703
81797
81826
81832
81876
95853
82032
82087
82095
82125
82187
82194
82285
94511
82603
82763
82807
81288
83129
95543
84267
96257
95854
94297
81563
82337
95531
81574
79905
80097
80164
80434
80469
80962
81033
81107
81213
81246
81489
81581
81623
81658
81662
81663
81673
81712
81746
81758
81781
81807
81834
81943
82036
82048
82114
93803
82169
82198
82200
82203
82231
82312
82372
82445
82453
82455
82553
82630
82720
82768
94512
83212
83234
86811
13623
13624
94810
94102
79363
80111
80431
80473
80563
80791
80824
80858
80908
80978
80984
81119
81209
81210
81224
81272
81273
81411
81414
81491
81509
81536
81676
81706
81842
81901
81911
81978
95550
82055
82099
82104
82116
82184
82208
82216
82227
82303
82325
82340
82367
82458
82517
82555
82820
94726
96468
84091
84624
96763
96240
96157
82787
87174
94410
80071
80165
80301
80646
80887
81225
81245
81294
81299
81345
81397
81412
81447
81506
81507
95033
81568
81579
81591
81653
81657
81707
81713
81823
81850
81962
82002
82018
82019
82035
82137
82278
82355
82448
82528
82674
96470
82743
82800
83062
83183
83214
83293
95533
83817
84534
85309
96138
96253
13640
91645
80499
94601
96037
80182
80948
81004
81102
81129
81239
81408
81586
81609
81665
81693
81752
81768
81773
81822
81843
81938
81941
81952
82061
82154
82170
82199
82264
82276
82290
82346
82369
82407
82482
82491
82502
96260
82541
82545
82560
82588
82609
82616
82637
82815
83091
83998
84089
95435
86712
86903
86983
96227
78841
96645
78066
79199
80708
81388
81405
81487
81488
81525
81558
81601
81660
81679
81691
81761
81799
81804
81846
81853
81950
82092
82093
82106
82115
82146
82183
82274
82277
82300
82343
82371
82388
82434
82490
82562
82606
82632
82735
82810
82840
83002
83068
83193
83265
83559
85050
85310
85407
85492
96247
85937
94721
82788
86113
86457
81465
95445
96553
95743
87262
81474
95132
90939
92342
92106
94911
79366
82439
95544
79939
80323
80633
80861
80878
80893
80959
80965
81123
81136
81212
81233
81306
81384
81400
81686
81690
81699
81763
81785
81828
81835
81841
81848
81885
81917
81956
82013
82026
82043
82050
82051
82134
82161
82173
82180
82191
82197
82207
82254
82275
82279
82322
82347
82373
82378
82383
82395
82399
82402
82403
82428
82533
82614
82628
82737
82765
82937
92058
82980
82984
83008
83085
83269
83382
83753
83910
95641
82510
85493
96145
86369
86458
87518
87772
13661
13662
83285
93058
81910
94224
81916
82080
81072
81159
81168
81211
81222
81236
81325
81432
81625
81626
81675
81715
81774
81825
81836
81920
81936
81945
81966
82008
82023
82119
82175
82205
82213
82221
82309
82318
82376
82387
82430
82437
82452
82457
82475
82512
82537
82570
82698
82797
82928
82991
83027
83061
83201
83346
83365
83450
83465
95443
95746
83503
96060
84621
97686
82338
95222
86368
96256
86809
96140
87607
92128
91153
92132
94801
80476
81308
81336
81340
81499
81655
81681
81700
81827
81854
81879
81927
81951
81953
82005
82138
82141
82167
82181
82261
82273
82281
82361
82377
82391
82397
82436
82460
82499
82531
82613
82619
82710
82734
82753
82793
82795
82803
82830
82923
82952
82963
83044
83192
83524
83751
83997
97288
94517
86367
87171
96469
97977
79443
94304
96766
95524
81650
80957
81241
81284
81527
81583
81614
81630
81685
81784
81852
81859
81880
81888
81904
81968
95238
82004
82188
82211
82237
82257
82260
82265
82270
82362
82380
82469
82473
82481
82546
82644
82707
82727
82801
82944
83051
83054
83080
83155
83160
83232
83237
95332
83315
83316
83381
83727
84356
95960
86456
87170
87172
87422
87517
96446
13690
95106
80695
80117
80747
81242
81415
81504
81511
81629
81757
81795
81805
81923
81930
82000
82105
82108
82123
82128
82215
82229
82292
82296
82324
82342
82398
82426
82427
82456
82477
82478
82484
82487
82544
82626
82645
82706
82713
82716
82736
82798
82805
83064
83079
83170
83171
83294
83338
83352
83361
83452
96362
83686
97180
84531
84962
86018
86110
96146
82595
82967
13699
13700
13702
13704
92017
92166
94899
95133
80538
81054
81134
81404
81512
81714
81792
81793
81820
81840
81868
81908
81909
81931
81934
82120
82168
82219
82252
82266
82306
82307
82353
82422
82433
82449
82465
82526
82530
82686
82700
82738
82808
82829
82834
82902
82910
82921
82936
82997
83071
83116
83135
83167
83191
83276
83334
83431
83506
83508
85761
86622
86808
82518
88124
88309
13713
13714
81297
81674
82703
82624
80342
81314
81407
81440
81926
82047
82054
82083
82103
82147
82178
82182
82289
82311
82351
82358
82386
82393
82423
82459
82474
82548
82550
82608
82636
82697
82739
82744
82785
82817
82823
82841
82848
82892
82906
82916
82917
82920
82927
82999
83022
83052
83081
83124
83143
83157
83182
83186
83257
83271
83273
83274
83286
83308
83310
83319
83356
97086
83410
83665
83706
96772
84622
97286
97387
87168
96977
97082
97382
88033
83586
13725
84343
94796
81207
80675
81517
81847
81872
81993
82150
82186
82262
82267
82283
82287
82535
82571
82621
82647
82656
82696
82754
82816
82828
82860
82925
82933
82938
82941
82979
82986
82989
82990
83053
83078
83089
83099
83153
83189
83259
83295
83333
83435
83521
83535
83675
96462
83874
83876
83898
83911
96872
84033
96353
97487
96363
85403
85678
96444
87072
87167
94727
97075
81739
95631
88123
88403
13736
13737
13738
94206
95341
94583
95651
96238
82599
80250
81571
81572
81607
81814
81961
82158
82162
82177
82190
82259
82271
82321
82379
82384
82479
82513
82527
82540
82565
82566
82573
82591
82593
82627
82629
82633
82649
82694
82705
82730
82732
82741
82812
82889
82899
83013
83029
83046
83097
83109
83112
83138
83172
83179
83233
83243
83249
83262
83284
83307
83343
83345
83354
83359
83362
83424
83427
83518
83582
83600
83615
83616
83685
84206
84422
96051
97797
84790
92635
85305
85490
85580
96455
96655
86902
88571
13748
90881
80175
80505
94613
97178
81656
82515
97970
81071
81593
81600
81949
81963
82024
82052
82090
82217
82374
82390
82394
82441
82443
82654
82671
82695
82708
82726
82733
82791
82792
82854
82893
82907
82911
82914
82947
82973
82977
83003
83006
83023
83065
83103
83121
83247
83248
83254
83267
83279
83327
83407
83425
83442
83447
83520
83548
83577
83606
83619
83654
83759
84298
95639
85759
86279
86711
96148
96025
97379
97582
96768
92838
93059
94714
93071
81988
82269
81756
81775
81862
82040
82233
82293
82335
82375
82389
82467
82470
82480
82523
82549
82567
82575
82611
82704
82718
82794
82796
82813
82838
82890
82905
82912
82934
83043
83060
83125
83166
83250
83270
83368
83390
83397
83408
83412
83421
83436
83444
83459
83512
83585
83598
83639
83696
83715
83766
83859
83890
84100
84150
84314
84551
95227
96654
96359
97476
86805
83570
87855
91319
92541
95958
94912
93882
94594
94980
97554
80942
81996
82096
82234
82288
82339
82365
82444
82447
82464
82468
82519
82525
82529
82612
82617
82634
82635
82642
82729
82742
82748
82974
83093
83096
83101
83123
83142
83161
83174
83180
83200
83227
83240
83256
83277
83278
83301
83335
83357
83406
97291
83526
83601
83611
83698
83723
83792
83801
83894
83896
83931
83955
84013
84026
84048
84051
84080
84157
84619
84872
85048
82589
98281
83299
87515
88402
13767
95016
91000
94893
82701
81290
80637
81857
81925
82010
82110
82135
82246
82286
82350
82396
82488
82539
82558
82569
82659
82711
82712
82725
82806
82832
82884
82908
82992
82998
83026
83069
83074
83082
83095
83106
95754
83144
83156
83162
83229
83347
83353
83414
83420
83432
83434
83507
83572
83587
83594
83607
83613
83617
83688
83710
83711
83734
83735
83806
83829
83830
83852
83946
83960
83970
83972
84035
84043
84140
84254
84332
84685
84789
96049
99122
97680
97163
83300
87948
88308
88751
13772
13773
13774
93697
96634
96650
94101
81301
81869
82122
82291
82295
82419
82524
82559
82631
82648
82667
82699
82715
82842
82849
82897
82930
82940
82978
82994
82996
83004
83024
83031
83056
83070
83084
83087
83088
83149
83159
83239
83330
83351
83428
83486
83517
83527
83547
83609
83612
83670
83684
83720
83756
83757
83772
83778
83779
83788
83810
83870
83875
83878
83956
83963
83986
84009
84045
84075
84149
84159
84442
84620
97484
84758
97990
85404
86453
86621
87164
96981
97882
88032
96151
13783
13785
86887
90679
94366
94283
96537
96633
82097
82202
82368
82564
82579
82620
82721
82822
82831
82835
82901
82987
83100
83104
83165
83173
83175
83224
83226
83231
83238
83255
83266
83290
83323
83329
83331
83336
83363
83379
83446
83448
83453
83469
83496
83539
83540
83576
83625
83626
83677
83712
83796
83805
83812
83847
83877
83881
83926
83985
84064
84120
84142
84195
84237
84252
84262
84274
84313
84321
84529
84808
84820
85049
82883
85936
86107
97177
87854
87949
97677
88401
97981
13794
78126
87894
91468
80683
84278
81696
82045
82364
82520
82547
82719
82750
82790
82844
82915
82965
83038
83049
83050
83059
83092
83152
83164
83195
83197
83272
83283
83312
83340
83344
83411
83417
83422
83488
83533
83537
83544
83545
97084
83618
83620
83664
83671
83794
83797
83807
83844
83858
83923
83928
83940
83954
84122
84148
84168
84208
84231
84250
84277
84367
84407
84428
84491
84707
97584
98299
94719
86454
87070
87071
97877
87853
98603
88400
89177
13797
92235
81206
94717
94393
95953
95329
96656
82876
80417
81429
81918
82030
82532
82552
82641
82843
82885
82887
82919
82931
82961
82970
82971
82972
82988
83011
83015
83034
83111
83113
83168
83178
83228
83281
83289
83324
83342
83409
83441
83497
83528
96262
83599
83622
83624
83658
83661
83676
83699
83755
83767
83776
83814
83836
83871
83879
83908
97695
83938
83949
83958
84038
84106
84154
84156
84205
84334
84391
84449
84582
84690
84762
84961
99028
85579
85677
85846
97879
86549
83571
87259
87261
97274
87605
87606
88031
88122
97384
97801
88480
88570
13801
13802
13803
13804
88837
93156
92843
95327
93809
81378
95135
95945
96852
95719
82088
82818
82348
83492
80334
81424
82059
82442
82670
82689
82850
82913
82922
82993
83077
83139
83326
83349
83366
83380
83426
83454
83514
83532
83580
83633
83669
83691
83704
83716
83748
83793
83800
83849
83851
83950
83982
83990
84047
84143
84187
84199
84220
84221
84240
96979
84279
84353
84398
84493
84504
84509
84530
84595
84667
84725
97385
84982
85218
85304
85346
98619
86017
87257
83041
83040
98486
13812
13813
13814
13816
13818
91112
91413
92013
92035
92622
94690
95137
95745
94705
93799
96548
97293
79615
84114
82432
82472
82821
82981
83016
96983
83094
83098
83194
83258
83309
83322
83341
83405
83482
83489
83490
83505
83509
83516
83569
83579
83593
83604
83660
83667
83689
83703
83743
83754
83765
83769
83780
83843
83848
83860
83873
83919
83921
83929
83935
83966
83967
83969
83983
84036
84042
84046
84062
84087
84130
84135
84137
84138
84242
84312
84320
84344
84502
84741
84782
84826
85248
87946
84541
83663
89451
13827
13830
88155
93371
89429
82438
95842
82179
95963
82462
82556
82602
82728
82929
82985
83000
83090
83102
83151
83244
83285
83305
83332
83399
83423
83440
83501
83529
83531
83589
83644
83652
83682
83683
83745
83747
83777
83867
84017
84018
84070
84112
84124
84126
84133
84244
84245
84315
84328
84331
84387
84401
84413
84419
84472
84487
84637
84646
84671
84678
84684
84713
84747
84757
84833
84925
84973
85306
88215
98283
88569
13836
13837
13838
13839
13840
84829
91537
95752
97078
84798
82056
82492
82731
82802
82814
82969
83185
83252
83311
83328
83445
83491
83495
83522
83610
83643
83653
83694
83760
83764
83773
83786
83791
83862
83883
83885
83893
83948
83974
83984
84052
84068
84079
84223
84233
84246
84291
84323
84373
84416
84427
84527
84672
84730
84772
84803
84816
84853
84871
84873
98094
85345
85676
97878
85869
86801
97061
88307
98801
98498
13848
13849
13850
89900
90666
94816
94502
96143
94906
81829
82130
82724
82761
82900
82926
83073
83251
83317
83457
83511
83595
83596
83605
83621
83656
83679
83690
83739
83749
83763
83781
83868
83962
83965
84019
84044
84050
84059
84078
84096
84116
84151
84162
84226
84247
84284
84303
84308
84379
84388
84410
84432
84468
84484
84554
84561
84601
84603
84612
84751
84902
85009
85084
85131
85150
84365
85661
85675
96050
85760
86015
87161
87514
98095
84366
88749
97866
89176
96757
89712
13860
13861
13862
13863
13864
13865
89772
93769
94913
95286
93247
95097
80244
96141
82418
93899
81856
81478
98696
82799
82811
82968
82982
82995
83177
83235
83253
83350
83416
83430
83455
83541
83583
83623
83695
83828
83846
84069
84082
84145
84146
84155
84201
84207
84216
84236
98406
84300
84304
84319
84327
84341
84343
84386
84396
84450
84473
84507
84510
84549
84609
84645
84696
84708
84929
85190
85225
85303
97887
99726
86109
98509
86366
87770
97799
98193
89358
89450
13872
13874
13876
13877
13879
92244
95456
93500
94445
95210
97580
92458
91032
81043
98786
97688
96659
82878
82284
82299
82709
82819
82825
82909
83158
83268
83282
83302
83433
83438
83487
83493
83515
83519
83590
83597
83602
83692
83697
83701
83770
83774
83782
83789
83798
83866
83900
83932
83957
84015
84037
84103
84110
84132
84217
84225
84280
84290
84316
84324
84325
84330
84346
84348
84404
84451
84457
84469
84479
84486
84542
84552
84578
84579
84581
84640
84661
84693
84720
84756
84778
84785
84809
84834
84854
84855
84857
84887
84960
85158
85282
85301
85368
85401
85654
85673
98812
86452
86803
87260
97782
99410
88658
88748
98399
99123
89357
79019
92326
91567
93863
93797
93282
94988
81195
95548
97991
79469
97780
81915
82607
82975
83141
83176
83458
83510
83542
83588
83655
83662
83853
84065
84086
84097
84113
84127
84129
84147
84152
84194
84230
84307
84318
84372
84389
84390
84392
84393
84424
84453
84565
84580
84608
84658
84669
84670
84688
84689
84746
84759
84767
84821
84840
85109
85179
85201
97483
99125
85227
85264
85296
85299
97592
85845
99121
98286
98497
99943
88214
88657
97488
89001
89090
89617
89711
13887
13888
13889
13890
13891
90659
92634
80073
93074
93702
93984
93813
93582
78944
93772
95930
94509
80696
91064
83042
80672
81944
83076
83119
83145
83198
83204
83502
83573
83648
83673
83857
83865
83880
83903
83922
83952
84029
84095
84118
84119
84123
84125
84139
84161
84203
84229
84238
84309
84317
84329
84337
84370
84375
84385
84454
84464
84503
84567
84584
84638
84643
84731
84733
84750
84761
84771
84795
84802
84819
84899
84922
84939
84953
85021
85112
85216
85234
85378
85533
85687
85818
86802
97886
84107
87604
97684
88305
97985
89805
97883
13895
13897
13898
13899
87803
88033
91774
92327
92645
79269
80422
95120
95221
95311
81459
80862
94303
94363
95691
96134
97466
98394
82554
80760
82896
83001
83005
83107
97184
83523
83672
83784
83845
83889
83927
83937
83975
83980
84011
84024
84027
84032
84039
84055
84056
84134
84197
84200
84204
84210
84301
84369
84374
84394
84412
84421
84462
84475
84476
84495
84497
84588
84607
84659
84662
84740
84770
84777
84793
84815
84835
84842
84850
84888
84895
84927
85080
85277
85400
85416
85524
85596
85625
85668
98298
85743
98398
98187
86548
86798
86800
86899
88120
88121
88303
88916
98508
99837
99202
81132
13905
13906
13907
77066
92556
92573
93063
92715
94405
95734
97175
94007
82345
95230
97979
98715
82086
93089
82543
82836
83184
83394
83413
83500
83536
83666
83737
83761
83892
83897
83944
83947
83976
83994
84022
84023
84158
84202
84218
84260
84285
84311
84333
84383
84395
84399
84434
84440
84480
84483
84528
84553
84555
84568
84571
84591
84597
84599
84600
84664
84674
84682
84735
84749
84760
84807
84822
84848
96658
84904
84990
85030
85035
85036
85127
85183
97576
85235
85241
85260
85329
85385
85476
85477
85489
85929
98295
96755
87945
98493
88999
89000
81447
89344
93255
92229
92453
93821
80247
95644
95849
95540
95228
97238
95626
96761
98691
79708
98718
84718
80866
81659
82551
82639
82804
83190
83245
83321
83339
83439
83657
83668
83718
83771
83863
83886
83942
84224
84255
84295
84405
84417
84426
84431
84465
84488
84526
84574
84577
84602
84647
84653
84654
84709
84727
84744
84773
84775
84818
84924
84926
84936
84941
85015
85095
85146
85161
85163
85172
85178
85244
85266
85293
85335
85349
85358
85359
85440
85557
85754
98510
98617
86708
99725
87258
87603
95837
88302
98701
98606
99024
13917
13918
91505
78560
92782
93294
94317
94484
95000
95715
97562
96255
96547
97285
97375
82596
83744
80680
81743
81501
83021
83246
83504
83614
83678
83856
84121
84160
84211
84253
84286
84299
84326
84342
84350
84411
84478
84512
84560
84586
84587
84611
84615
84641
84680
84681
84764
84845
84861
84894
84896
84933
84968
85006
98194
85068
85079
85092
99026
85243
85251
85263
85300
85355
85426
85445
85463
85507
85513
85564
85635
85649
85708
85713
85786
97690
99113
86897
87602
88030
98612
88656
84016
99319
99403
100144
89710
90154
13922
13923
13924
13926
13927
13928
13929
13930
13931
85579
78563
91399
94396
95432
95023
81815
82091
96129
97441
79444
97972
83296
84021
81913
97470
98071
98601
85137
85681
83140
83702
83838
83988
98202
84020
84131
84248
84249
84287
84289
84420
84494
84498
84517
84566
84666
84673
84781
84806
84825
84843
84891
84910
84930
84997
85045
85058
85071
85081
85083
85091
85164
85182
85325
85373
85381
85392
85500
85521
97796
85613
85639
85695
85789
85886
86451
87160
87513
98819
88213
99020
88833
98271
89447
85319
89530
89709
89804
99204
13937
13938
13939
13940
81845
87316
87610
89316
89935
94202
93566
80344
94120
95008
92902
80606
79529
96142
95957
92361
97859
96971
80423
97172
95114
93801
83169
83429
83575
83650
83899
83943
83945
84054
84060
84101
84128
84169
84212
84227
84283
84302
84335
84380
84446
84456
84563
84564
84663
84691
84694
84712
84742
84755
84780
84813
84824
84827
84934
84959
84995
85024
85031
97481
85105
85107
85113
85340
85351
85360
85387
85430
85448
85512
85556
85669
85797
85823
85857
85860
85933
85953
85973
84881
86896
88998
90587
84445
13942
13943
90373
86980
91596
79275
91350
89966
92864
93350
93811
94335
94564
95421
94886
95205
96043
95817
81577
96150
95604
96152
81467
96869
98177
80963
98703
82192
96758
98798
81045
83147
81103
83320
83513
83628
83693
83708
83762
83790
83808
83854
83864
83959
83961
83979
84053
84198
84232
84345
84433
84471
84482
84500
84511
84598
84679
84704
84729
84734
84817
84844
84890
84901
84919
84920
84931
84974
84996
85076
85093
85099
85102
85120
85121
85125
85130
85144
85147
85212
85224
85230
85237
85246
85254
85267
85291
98924
85419
85438
85467
85469
85525
85670
85707
85721
85814
85873
86106
86182
87943
88212
100350
88747
83391
84368
90243
98998
13947
13948
13949
13951
85526
77445
84165
94372
94866
95099
80157
81557
95494
95431
96535
97881
79105
95232
99305
98573
99535
99023
82903
83188
83603
83783
84031
84067
84136
84234
84336
84430
84481
84485
84499
84516
84558
84593
84649
84677
84739
84765
84769
84839
84841
84911
84918
84937
85002
85007
85022
85026
85069
85072
85077
85085
85114
85133
85200
85203
85231
85233
85239
85269
85323
85332
85362
85363
98620
98817
85499
85503
85536
85569
85578
85629
85630
85699
85709
85731
85790
85791
85801
85833
85870
85896
85918
85939
100042
86038
86430
86620
87162
87601
88746
100860
83649
97973
100035
89890
90153
13958
13959
13960
13961
13962
90210
92706
93200
91823
94113
93780
90992
79709
92568
81017
95599
96456
98266
98706
80549
84364
92966
83584
99588
82809
83632
83785
84040
84074
84193
84214
84228
84235
84251
84292
84293
84297
84467
84470
84474
84572
84605
84642
84738
84754
84766
84776
84805
84832
84852
84870
84882
84917
84923
84942
84957
84980
84993
84998
85016
85028
85039
85041
85061
85088
85097
85100
85104
85110
85116
85153
85159
85180
85188
85215
85223
85274
85276
85342
85435
85449
85455
85537
85550
85577
85604
85636
85647
85674
99021
85734
85745
85769
85811
85815
85830
85865
85881
85884
85889
84447
98808
86088
86243
86278
86420
86498
100154
87157
100252
88997
89529
89616
89802
99523
99003
13968
13969
13970
13971
13972
13973
13974
13975
13976
13977
93378
94664
92452
93753
94098
96100
95612
95961
96122
92438
96149
97176
82691
81379
95943
83045
97088
82113
92978
98613
99429
84109
82534
83261
83449
83591
83700
83850
83953
84058
84144
84222
84347
84406
84583
84596
84675
84774
84796
84797
84829
84831
84892
84903
84977
84983
84992
85000
85014
85046
85106
85111
85122
85156
85173
85174
85184
85186
85249
85250
85289
85366
85370
85377
85418
85434
85443
85470
85474
85547
85549
85558
85602
85608
85615
85637
85644
85684
85808
99325
85902
99945
86162
86175
98098
98186
86398
86982
99841
87256
84099
99128
100449
88655
100342
84804
83841
89803
100440
100258
90499
90751
90848
13980
13981
13983
13984
13985
89140
89652
91491
94588
95713
80336
94399
94617
95692
95437
80936
82001
97453
98403
99605
85603
94689
83538
84115
84209
84239
84282
84477
84489
84562
84634
84657
84745
84763
84794
84847
84905
84908
85003
85067
85086
85094
85167
85170
85198
85211
85257
85302
85326
85333
85343
85350
85365
85374
85423
85428
85497
85506
85509
85519
85542
85607
85621
85626
85662
85779
85780
85877
85931
85956
85964
85978
85980
86006
99842
86034
86068
86157
86178
86213
86214
86277
86287
86333
86474
86547
99935
86981
87158
87769
100656
88567
88744
100429
13990
13991
13992
13993
13994
88879
92974
93690
92849
93498
94769
94524
95629
81463
96031
81735
93793
96648
96751
97479
97185
95307
81566
81651
96369
99022
82875
98280
83367
83634
84219
84400
84403
84698
84858
84898
84914
84946
84986
84988
85011
85074
85078
85115
85169
85176
85191
85204
85268
85284
85384
85398
85421
85436
85446
85465
85508
85528
85529
85534
85543
85552
85640
85658
85666
85691
85726
85738
85828
85842
85914
85920
85949
85977
86008
86041
86043
86103
86180
86349
86412
86417
86448
86591
100259
87163
98799
101064
89264
99913
98712
90151
90152
99815
90403
91117
82171
13997
13998
13999
14001
14002
14003
14004
14005
14006
14007
14008
85154
91109
91292
92493
90957
91598
93794
95011
96120
95534
96551
81734
96740
97166
82881
83325
97980
83687
83740
83842
84061
84165
84547
84557
84573
84585
84650
84668
84837
84885
84889
84949
84975
84999
85001
85023
85027
85056
85089
85108
85119
85123
85157
85162
85245
85272
85275
85279
85283
85317
85324
85364
85399
85441
85515
85567
85568
85642
85689
85897
85950
85983
100041
86031
86035
86046
86048
86080
86149
86154
86169
86176
86257
86343
86386
86514
86559
86571
86668
86763
88028
100033
101164
89889
98191
99536
90063
86289
100115
91026
14012
14013
14014
14015
14016
14017
14018
14019
85709
89668
92348
94505
93264
81654
94885
95521
93807
96153
96144
96135
96218
97485
93397
96426
96868
82880
84281
81780
99394
99822
96242
83882
84012
84294
84436
84575
84706
84753
84836
84838
84912
85005
85033
85042
85103
85175
85177
85189
85196
85205
85236
85240
85242
85262
85337
85357
85375
85420
85447
85472
85538
85541
85546
85589
85632
85643
85664
85712
85717
85729
85757
85787
85798
85883
85903
85908
85959
85981
86014
86056
86087
86168
86172
86206
86219
86309
86321
86324
86329
86337
86382
86415
86515
86516
86637
86842
98810
100968
100967
88745
101354
89708
89801
14025
14026
14027
14028
14029
78564
91640
92856
93992
79540
93147
93672
94117
95134
93501
96652
82702
82247
81818
96419
95600
83075
98381
91995
97282
85339
92445
85504
94496
83872
84057
84306
84377
84408
84570
84686
84736
84768
84823
84828
84830
84897
84916
84991
85004
85038
85118
85154
85202
85261
85290
85138
85320
85338
85356
85372
85468
85523
85551
85562
85617
85623
85641
85659
85683
85698
85700
85732
85772
85783
85804
85810
85856
85874
85887
85900
85997
86067
86070
86072
86079
86101
86141
86310
86311
86335
86348
86423
86445
86579
86593
86735
86736
86908
101264
99622
87317
88300
100427
99613
100646
90318
90666
99171
91116
14034
14035
14036
88799
88396
86672
91628
91899
91388
95207
89754
95419
95647
96123
95012
94100
80754
97026
80160
98904
97390
99431
100017
100655
97083
84073
84397
84409
84648
84676
84721
84728
84787
84849
84851
84859
84900
84909
84921
84989
85013
85017
85082
85165
85187
85193
85255
85258
85281
85344
85367
85382
85388
85437
85458
85480
85505
85566
85612
85645
85646
85665
85701
85714
85719
85720
85723
85727
85747
85805
85813
85829
85834
85879
85907
85925
85927
86063
86092
98920
86146
86195
86215
86319
86327
86354
86388
86399
86406
86572
86774
86895
87266
85413
88299
100023
84651
85057
100128
91023
91025
91205
91382
101163
14038
14039
14040
14041
14042
90047
91791
94083
93472
93675
94587
94373
94691
95206
87279
95824
93956
92691
81025
81220
82102
81198
96347
96467
95718
82604
97959
96771
97352
81903
98279
97164
97478
98483
97789
81610
97477
101466
85155
99532
82924
83978
84340
84415
84492
84550
84576
84665
84683
84687
84752
84978
84981
85010
85101
85132
85152
85265
85298
85386
85397
85422
85424
85442
85450
85452
85460
85466
85481
85539
85544
85570
85633
85648
85688
85693
85703
85710
85718
85767
85799
85820
85822
85862
85867
85917
85932
85955
85965
85968
85974
86051
86077
86081
86099
86121
86151
86179
86183
86200
86205
86229
86231
86259
86407
86449
86520
86641
86642
86657
86661
86662
86725
86744
86781
86863
86968
87067
87600
100548
99843
88915
86478
89354
101578
85774
99925
100848
91024
14044
14045
14046
14047
14048
14049
14050
14051
14052
14053
14054
81682
82295
89873
91620
87983
90920
78835
91124
91789
93885
92963
93054
87591
93487
94190
95436
94621
80853
90970
95240
94515
95199
96499
80249
96361
97182
81375
98179
96449
96443
83834
83936
99100
85139
95123
80162
95809
83987
84241
84371
84381
84656
84846
85029
85064
85090
85160
85185
85270
85292
85376
85390
85429
85473
85479
85486
85510
85517
85733
85735
85736
85750
85836
85891
85898
85960
85970
85984
85986
85991
85994
85998
86075
86217
86227
86261
86286
86297
86314
86316
86395
86413
86414
86424
86436
86468
86482
86660
86707
100969
86726
86851
87458
88298
88399
89707
101565
85502
91555
85620
14060
14061
14062
14063
14064
83487
90872
91227
91830
90716
93272
93331
78743
93580
93681
91191
93847
94165
94404
94178
95831
94828
95320
95825
95646
96154
94895
80415
93014
79272
97779
99315
81204
94121
94921
88019
95025
80018
93268
85682
96546
99727
98288
80258
83574
84569
84976
85070
85353
85361
85369
85457
85526
85595
85655
85702
85711
85730
85777
85800
85807
85824
85826
85922
85958
85996
86004
86037
86050
86066
86076
86082
86083
86089
86100
86239
86276
86303
86330
86355
86357
86394
86427
86473
86486
86499
86532
86651
86652
86658
86755
100152
86930
86950
86963
86995
87013
87043
87054
87138
87153
87441
100659
100036
100029
101263
88996
89175
85692
89355
89443
89973
90149
90497
101256
100349
14066
84032
82566
91702
91495
93167
91622
93564
93299
93867
96040
95217
80591
94221
94549
93742
80260
94369
94694
95794
82100
96340
96136
97174
98184
95503
96028
94239
98669
97557
97560
98511
97678
80416
81298
79890
92894
82435
84010
83833
100545
97287
96765
96767
84141
84932
84985
85168
85194
85195
84008
85444
85461
85540
85606
85610
85725
85827
85835
85864
85868
85892
85894
99731
85951
85962
85979
86029
86045
86062
86071
86084
86095
86163
86170
86177
86211
86222
86223
86242
86244
86254
86272
86364
86397
86431
100346
86523
86529
86592
86628
86670
86699
86749
86753
86754
86795
86825
86845
86892
86946
86974
86978
87014
87053
87223
87229
87303
87599
99729
100859
88210
88398
88565
88743
99626
100950
101339
86718
100761
90498
86550
90847
14067
14068
14069
14070
14071
14072
14073
14074
86963
91299
91793
93783
92513
94387
85982
94888
95294
94213
94188
95444
82341
95019
95539
95326
96641
81101
96038
93888
95727
96127
94063
94161
81326
96753
97683
98277
96960
83924
98982
81998
82101
98081
97482
100627
83313
84490
84913
84928
85019
85063
85148
85273
85516
85522
85527
85531
85592
85614
85704
85716
85875
85893
85919
85985
85989
86047
86053
86054
86064
86085
86086
86090
86117
86130
86144
86159
86161
86191
86228
86237
86248
86252
86274
86315
86363
86381
86401
86438
86500
86506
86525
86589
86598
86608
86625
86650
86747
86838
86873
86884
86960
86997
87006
87046
87078
87096
84715
87474
87626
87768
87773
88397
100962
99194
89262
90150
100946
101159
86202
101168
101460
100858