/*--------------------------------*- C++ -*----------------------------------*\
| =========                 |                                                 |
| \\      /  F ield         | OpenFOAM: The Open Source CFD Toolbox           |
|  \\    /   O peration     | Version:  2406                                  |
|   \\  /    A nd           | Website:  www.openfoam.com                      |
|    \\/     M anipulation  |                                                 |
\*---------------------------------------------------------------------------*/
FoamFile
{
    version     2.0;
    format      ascii;
    arch        "LSB;label=32;scalar=64";
    class       Cloud<dsmcParcel>;
    location    "0.002/lagrangian/dsmc";
    object      positions;
}
// * * * * * * * * * * * * * * * * * * * * * * * * * * * * * * * * * * * * * //

6294
(
(0.3018642463 0.2396855798 -4.878909776e-19) 323
(0.2990363808 0.2999016488 3.252606517e-19) 653
(0.2884826125 0.2671507397 4.33680869e-19) 501
(0.2855866507 0.224491882 6.09863722e-20) 261
(0.2839185098 0.2168761365 0) 231
(0.2615463643 0.2662231043 -2.168404345e-19) 498
(0.2992510153 0.2145365072 1.084202172e-19) 203
(0.2897037432 0.2717635127 2.168404345e-19) 502
(0.2971972101 0.2263187705 1.084202172e-19) 263
(0.3032362641 0.2265979814 -2.168404345e-19) 263
(0.302880872 0.2180120406 4.33680869e-19) 233
(0.2988914568 0.1919758571 0) 83
(0.2938556162 0.2156713151 2.710505431e-19) 202
(0.2879171416 0.1919450184 0) 81
(0.274614298 0.2058362916 -2.168404345e-19) 170
(0.2724427377 0.2324059687 0) 319
(0.2922923299 0.2042979528 3.794707604e-19) 142
(0.2961761676 0.1766644412 -2.168404345e-19) 15
(0.3008840784 0.2135188941 -2.100641709e-19) 203
(0.2922722674 0.2810641824 -1.626303259e-19) 562
(0.3011581259 0.2146745151 2.168404345e-19) 203
(0.299643139 0.2386260204 -1.084202172e-19) 323
(0.3000468871 0.1902174175 3.252606517e-19) 83
(0.2911161875 0.206800549 3.354250471e-19) 172
(0.2756668412 0.2665704387 -2.168404345e-19) 500
(0.283016753 0.1796012106 6.776263578e-20) 30
(0.3047997451 0.2153041862 1.355252716e-19) 203
(0.2861571204 0.2034414659 -1.355252716e-19) 141
(0.2957990275 0.208511925 2.168404345e-19) 172
(0.2966745614 0.2393293197 4.33680869e-19) 322
(0.3021049195 0.2162968751 3.252606517e-19) 203
(0.2946330366 0.1950047122 0) 112
(0.2872882256 0.1903743763 -2.168404345e-19) 81
(0.2556218193 0.291738195 1.355252716e-19) 617
(0.2778683116 0.222414125 -1.084202172e-19) 260
(0.2888785662 0.1779645351 4.33680869e-19) 30
(0.3036915183 0.2505521707 -2.168404345e-19) 383
(0.2892041139 0.2010964518 -2.168404345e-19) 141
(0.3030926602 0.2836637156 0) 593
(0.2833959679 0.2736513838 5.421010862e-20) 531
(0.2864342299 0.2149911409 2.168404345e-19) 201
(0.2935834459 0.2125486215 0) 202
(0.2838312816 0.1857192812 -1.084202172e-19) 52
(0.2897876005 0.1848666546 -2.168404345e-19) 53
(0.2790677803 0.2678520597 3.252606517e-19) 500
(0.246378973 0.2812508484 -2.168404345e-19) 556
(0.2929714155 0.2368030509 1.626303259e-19) 322
(0.2878879769 0.206264554 2.168404345e-19) 171
(0.2869088091 0.2475381836 -1.084202172e-19) 381
(0.2802504416 0.2133733407 2.168404345e-19) 200
(0.2865623964 0.2199300552 2.168404345e-19) 231
(0.296232174 0.1951905723 0) 82
(0.2957189324 0.1949092731 0) 82
(0.2789931084 0.2709146421 5.421010862e-20) 500
(0.2980749444 0.2735493646 -2.710505431e-19) 533
(0.2989264545 0.1802833858 -2.168404345e-19) 32
(0.2948896863 0.2358991162 -1.626303259e-19) 322
(0.3002278513 0.2163458019 0) 203
(0.2968584474 0.2528731469 1.626303259e-19) 412
(0.2888094466 0.2125333579 -2.168404345e-19) 201
(0.3034283038 0.1992972603 0) 113
(0.2784002188 0.1899523407 -3.794707604e-19) 80
(0.2862586279 0.2231403626 0) 261
(0.2935202766 0.2899029183 2.168404345e-19) 622
(0.2949551158 0.2929125054 0) 622
(0.3019824434 0.231189856 1.084202172e-19) 293
(0.2933046695 0.1970559178 6.776263578e-20) 112
(0.2910329474 0.2691065629 0) 502
(0.2938154472 0.2410427385 4.33680869e-19) 352
(0.289803731 0.1845710457 4.33680869e-19) 53
(0.2578496484 0.2496446248 1.084202172e-19) 407
(0.2894532352 0.2464282919 0) 381
(0.2832148757 0.2632802797 6.505213035e-19) 471
(0.2841198871 0.2036680758 -3.252606517e-19) 141
(0.2893060919 0.2119883558 -2.168404345e-19) 201
(0.3022303384 0.2339423347 2.168404345e-19) 293
(0.3002734775 0.1991417805 2.710505431e-20) 113
(0.3029170538 0.2376695548 -2.168404345e-19) 323
(0.2766929202 0.2147657345 -4.33680869e-19) 200
(0.3028135434 0.1977904746 2.168404345e-19) 113
(0.2989394906 0.2597565048 1.084202172e-19) 443
(0.2872452402 0.1992550514 2.168404345e-19) 111
(0.2809998703 0.256954466 1.084202172e-19) 440
(0.2890740819 0.284938601 -1.084202172e-19) 591
(0.2891383514 0.230108562 -2.168404345e-19) 291
(0.2886888808 0.2039834325 4.33680869e-19) 141
(0.2901328522 0.1809840695 -1.084202172e-19) 31
(0.2837746305 0.2319463061 -1.084202172e-19) 291
(0.2634167372 0.1787915483 -1.626303259e-19) 27
(0.2998207798 0.2424942463 -6.776263578e-20) 353
(0.2973378364 0.2403980703 -2.168404345e-19) 353
(0.2855617104 0.2383205186 2.168404345e-19) 321
(0.3040340418 0.2788489673 2.168404345e-19) 563
(0.2577339634 0.1846603949 -4.33680869e-19) 77
(0.2960990776 0.2608453574 0) 442
(0.2692724665 0.2360610496 1.626303259e-19) 319
(0.2846754971 0.1970695122 -2.168404345e-19) 111
(0.2931913669 0.2803360403 -1.490777987e-19) 562
(0.2980386898 0.2257385585 1.084202172e-19) 263
(0.2965818198 0.2032041897 5.421010862e-20) 142
(0.2815234744 0.2613296207 2.168404345e-19) 470
(0.3018153596 0.2061111009 -2.710505431e-19) 143
(0.3000123225 0.2517483635 2.168404345e-19) 413
(0.2879718971 0.2869964812 2.168404345e-19) 591
(0.3033335506 0.2315218286 -6.776263578e-20) 293
(0.2732659013 0.2151652239 0) 229
(0.2929277419 0.2369649051 2.168404345e-19) 322
(0.2995430815 0.1873159308 2.168404345e-19) 54
(0.2892242259 0.2087536496 2.168404345e-19) 171
(0.3015944631 0.2815626996 0) 563
(0.2938324512 0.2631034756 -2.168404345e-19) 472
(0.2887921906 0.2104403209 -2.168404345e-19) 171
(0.2412089624 0.2574173739 1.084202172e-19) 435
(0.2964303473 0.2677076357 -4.33680869e-19) 502
(0.3002701312 0.2030973339 -1.626303259e-19) 143
(0.2907788269 0.2554492006 3.252606517e-19) 412
(0.2900979731 0.2389761546 -4.33680869e-19) 352
(0.2867345725 0.227107048 0) 261
(0.2766673676 0.2391806329 -2.168404345e-19) 350
(0.3038963418 0.2313815988 1.355252716e-19) 293
(0.2944466884 0.2764748126 -3.252606517e-19) 532
(0.2831644685 0.2331268144 0) 321
(0.2984844193 0.2258813052 1.355252716e-19) 263
(0.3039934793 0.2600007929 0) 443
(0.2951135539 0.2543929127 1.084202172e-19) 412
(0.2935917046 0.2615554751 -2.168404345e-19) 472
(0.296534111 0.2977806294 4.33680869e-19) 652
(0.2816750711 0.2447363183 0) 380
(0.2751043732 0.1864194344 -9.486769009e-20) 51
(0.3035318796 0.2964707599 0) 653
(0.2648475686 0.1745941966 -2.168404345e-19) 27
(0.3020034151 0.2578652374 2.168404345e-19) 443
(0.2811644229 0.195949937 4.065758147e-20) 110
(0.2983546202 0.2064802758 0) 173
(0.2857132426 0.2115630648 -3.015437292e-19) 201
(0.2872307662 0.1992191245 2.168404345e-19) 111
(0.2682007498 0.2771676258 3.252606517e-19) 529
(0.2953250349 0.2737803326 2.168404345e-19) 532
(0.2827102022 0.210450008 0) 201
(0.3032998679 0.2287429511 0) 263
(0.2829466364 0.2572341832 -2.168404345e-19) 441
(0.303459292 0.2379131265 -4.33680869e-19) 323
(0.2975881867 0.204003302 2.168404345e-19) 143
(0.2990509655 0.2590427953 -2.439454888e-19) 443
(0.2946305481 0.2636778858 -1.626303259e-19) 472
(0.2691550077 0.2441886543 -4.33680869e-19) 379
(0.254265077 0.2740404356 -1.355252716e-20) 527
(0.2802225808 0.1792242164 0) 29
(0.2840837787 0.2082767962 -5.421010862e-20) 171
(0.2628403618 0.2279465322 3.04931861e-20) 288
(0.2903625745 0.2110847919 1.626303259e-19) 172
(0.2750418057 0.1930765422 -4.404571326e-20) 110
(0.2688278607 0.1801396553 -2.168404345e-19) 28
(0.2890685498 0.1833882433 0) 52
(0.2992201061 0.2160913406 0) 203
(0.2782715778 0.2690079621 1.355252716e-20) 500
(0.2903782619 0.2072125525 1.084202172e-19) 172
(0.2678663376 0.2157661148 -5.421010862e-20) 229
(0.303427929 0.2027607918 2.168404345e-19) 143
(0.2420831646 0.1902264483 1.084202172e-19) 105
(0.2980111418 0.2778054717 3.794707604e-19) 533
(0.3039164521 0.261030372 0) 443
(0.2876857073 0.1857058905 2.168404345e-19) 52
(0.2495209805 0.2427009737 0) 376
(0.28732508 0.278584918 0) 561
(0.2934244423 0.2074042949 2.168404345e-19) 172
(0.2779240516 0.1751995682 0) 13
(0.2782481988 0.2215471256 0) 260
(0.3046920558 0.1824586056 -1.626303259e-19) 32
(0.2781653901 0.2721833547 -4.33680869e-19) 530
(0.295774811 0.1773158374 0) 15
(0.2767824276 0.2157684743 1.084202172e-19) 230
(0.278235433 0.2624767331 0) 470
(0.2790813607 0.1951037484 -2.168404345e-19) 110
(0.2933993806 0.1904066675 0) 82
(0.2775651532 0.2189536538 1.897353802e-19) 230
(0.2879844706 0.247642821 -2.168404345e-19) 381
(0.2937549993 0.2325354079 2.710505431e-19) 292
(0.2715619982 0.1757705635 0) 28
(0.2662281907 0.2882009039 0) 588
(0.2967856678 0.1957032234 2.168404345e-19) 112
(0.2831549588 0.2997930018 1.084202172e-19) 651
(0.2946537419 0.2837066455 0) 592
(0.29677068 0.2669210988 0) 472
(0.2979309728 0.2723312221 -1.084202172e-19) 503
(0.2847928501 0.2651092543 4.33680869e-19) 471
(0.2590883555 0.2460696914 -1.084202172e-19) 378
(0.2801421293 0.1832868643 0) 51
(0.2987316569 0.1861323862 -3.794707604e-19) 54
(0.2799435381 0.1800576387 -2.168404345e-19) 29
(0.2815675182 0.2855285046 3.252606517e-19) 590
(0.2896817956 0.2126105199 0) 202
(0.2821066417 0.2482678118 2.168404345e-19) 381
(0.2691780454 0.2171394935 -2.168404345e-19) 229
(0.2891195457 0.2353140493 0) 321
(0.2891051017 0.2868320186 0) 591
(0.2781857309 0.2651023422 -7.115076757e-19) 470
(0.2998817 0.2679161716 -4.33680869e-19) 503
(0.2588673693 0.1984347256 -5.421010862e-20) 137
(0.2764899481 0.2735209525 2.303929617e-19) 530
(0.2985543472 0.1961113934 0) 113
(0.304105823 0.2620113614 2.168404345e-19) 473
(0.2553351481 0.2495686148 0) 407
(0.2675888205 0.2573946258 -1.897353802e-19) 439
(0.2401059635 0.1977523173 -2.032879073e-19) 135
(0.2898157874 0.2775409889 0) 532
(0.284547425 0.192290542 1.084202172e-19) 81
(0.2781064246 0.2430518094 2.168404345e-19) 350
(0.2872106561 0.2078893175 -5.421010862e-20) 171
(0.2696957162 0.2287804833 -1.084202172e-19) 289
(0.2831458358 0.2126628611 -2.168404345e-19) 201
(0.2809658151 0.2187573779 0) 230
(0.2646459048 0.2037842567 2.168404345e-19) 168
(0.29709507 0.1987727146 0) 112
(0.2875224032 0.2896703931 -2.168404345e-19) 621
(0.3024330103 0.2604888074 2.168404345e-19) 443
(0.2443682027 0.2528385914 1.490777987e-19) 406
(0.2628019679 0.190132972 2.168404345e-19) 78
(0.2976922887 0.1965664333 6.505213035e-19) 113
(0.2784366758 0.2936380731 5.421010862e-20) 620
(0.2803653132 0.2504258865 -2.168404345e-19) 410
(0.2758479586 0.2569654164 0) 440
(0.2894556037 0.1977090561 -4.33680869e-19) 111
(0.2877918304 0.2974242787 2.168404345e-19) 651
(0.2812211145 0.2222438807 2.168404345e-19) 260
(0.2798630336 0.2207612844 -1.084202172e-19) 230
(0.279240929 0.2861740556 -4.33680869e-19) 590
(0.2811061223 0.1987670651 2.168404345e-19) 110
(0.2775821862 0.2216383974 4.878909776e-19) 260
(0.3013153712 0.2234521963 -4.33680869e-19) 263
(0.2885046659 0.2595039284 0) 441
(0.275110749 0.2121392246 0) 200
(0.2371187105 0.2112943697 -1.626303259e-19) 195
(0.2746603755 0.2923576852 -2.168404345e-19) 620
(0.2991783553 0.2501859684 0) 383
(0.2879049885 0.2748903204 9.14795583e-20) 531
(0.269269251 0.2974362606 2.710505431e-19) 649
(0.2716474593 0.2203823576 -1.084202172e-19) 229
(0.2646253462 0.1979249497 -2.168404345e-19) 138
(0.2966559431 0.2721295414 2.168404345e-19) 502
(0.3010938045 0.2351396753 0) 323
(0.2952298768 0.2621727318 -2.168404345e-19) 472
(0.2435014656 0.2682363619 -4.33680869e-19) 495
(0.2908090064 0.2904132714 -2.710505431e-19) 622
(0.2899638242 0.2277216088 -1.897353802e-19) 262
(0.3027995847 0.2721946577 -4.33680869e-19) 503
(0.2568782506 0.1996130087 1.084202172e-19) 137
(0.2931299013 0.2493031134 2.168404345e-19) 382
(0.3013741547 0.2182508173 4.33680869e-19) 233
(0.2892310136 0.2508498481 2.168404345e-19) 411
(0.2948990465 0.2306097698 5.421010862e-20) 292
(0.2915088425 0.2847446899 0) 592
(0.2748099487 0.2306888815 0) 290
(0.265653457 0.2841712608 0) 588
(0.2938958215 0.182005732 -1.084202172e-19) 31
(0.2936736209 0.2613439124 0) 472
(0.2892296174 0.2147713114 2.168404345e-19) 201
(0.2603033562 0.1823094847 0) 49
(0.266812316 0.2651089127 0) 469
(0.3018288373 0.2034984467 2.710505431e-19) 143
(0.2922706074 0.1978511085 5.421010862e-20) 112
(0.2451151966 0.2697723091 9.14795583e-20) 496
(0.2532355219 0.2081621263 2.168404345e-19) 197
(0.2729172583 0.1946097222 1.626303259e-19) 109
(0.2220494818 0.2894142341 1.626303259e-19) 613
(0.3027697812 0.1925392521 0) 83
(0.2833211202 0.2782243279 2.168404345e-19) 561
(0.2834021591 0.2595523254 0) 441
(0.3017138809 0.2505497145 2.168404345e-19) 383
(0.2983569277 0.2108533661 2.168404345e-19) 173
(0.2579219967 0.1776933394 -4.33680869e-19) 26
(0.2839028047 0.2260232645 2.168404345e-19) 261
(0.2992984974 0.2353302334 1.084202172e-19) 323
(0.3017108431 0.1691716019 -2.168404345e-19) 5
(0.2976876347 0.2206764766 -5.421010862e-20) 233
(0.2948506498 0.2346425381 -6.505213035e-19) 322
(0.3037761383 0.2591911999 0) 443
(0.2977103433 0.2301501045 -2.168404345e-19) 293
(0.2919797778 0.2147275355 3.252606517e-19) 202
(0.2920804845 0.2135766697 3.252606517e-19) 202
(0.2904661089 0.22413113 1.084202172e-19) 262
(0.2997580228 0.244389715 -1.084202172e-19) 353
(0.2732132942 0.2182679684 0) 229
(0.2790320716 0.1935331895 0) 110
(0.3033807194 0.2225908969 4.33680869e-19) 233
(0.2963989316 0.2595490498 2.168404345e-19) 442
(0.3022042483 0.2416216064 -1.084202172e-19) 353
(0.2608197752 0.273618931 0) 528
(0.2678465635 0.2003235069 1.355252716e-19) 139
(0.3021167554 0.2702652875 1.084202172e-19) 503
(0.3014705132 0.2333272011 3.794707604e-19) 293
(0.2618578248 0.1879732313 1.355252716e-20) 78
(0.2685030653 0.2125192981 1.084202172e-19) 199
(0.2807719206 0.2003275122 0) 140
(0.2981120306 0.2007947945 -1.084202172e-19) 113
(0.2963430823 0.215863057 -2.168404345e-19) 202
(0.2179070542 0.2789541707 0) 552
(0.270144425 0.2565912154 -1.897353802e-19) 439
(0.2783029912 0.200292784 1.084202172e-19) 140
(0.2963951804 0.2068166538 -2.168404345e-19) 172
(0.2878036019 0.2465292041 -1.626303259e-19) 381
(0.2683265392 0.2570020344 2.168404345e-19) 439
(0.2999873446 0.2495336251 6.505213035e-19) 383
(0.2934709859 0.1807470439 1.084202172e-19) 31
(0.2944791723 0.2875261958 1.084202172e-19) 592
(0.29952945 0.2506317335 0) 413
(0.2639613813 0.2221131439 0) 258
(0.267199621 0.2294993503 2.168404345e-19) 289
(0.2840582533 0.2215553601 2.168404345e-19) 231
(0.2671365422 0.2661813489 -4.472333962e-19) 499
(0.2908543817 0.2037362494 0) 142
(0.3034487272 0.2396792014 4.33680869e-19) 323
(0.3019005758 0.2848854281 2.168404345e-19) 593
(0.30031163 0.2115918945 0) 173
(0.265305271 0.2591646754 -2.168404345e-19) 438
(0.2940177763 0.2770053836 2.168404345e-19) 532
(0.2935249794 0.1965098952 -2.168404345e-19) 112
(0.3007984393 0.2674237881 1.897353802e-19) 503
(0.2771291172 0.2245469492 1.084202172e-19) 260
(0.2910380165 0.2237357134 0) 262
(0.2985871928 0.2134155995 -1.626303259e-19) 203
(0.2864112952 0.2566154742 0) 441
(0.301014759 0.2420757115 -3.252606517e-19) 353
(0.2975252147 0.2369752201 -2.439454888e-19) 323
(0.299866778 0.2327901948 5.421010862e-20) 293
(0.2977076893 0.2135438404 0) 203
(0.2985398682 0.2779018765 -3.252606517e-19) 533
(0.2894319056 0.2311579824 4.33680869e-19) 291
(0.2944775433 0.2398517718 -2.168404345e-19) 352
(0.2965198497 0.2291042767 0) 292
(0.2793797821 0.202128682 0) 140
(0.30254261 0.2613782655 0) 443
(0.2952483106 0.2642232476 4.33680869e-19) 472
(0.2628816762 0.2839674983 5.759824041e-20) 588
(0.2918543471 0.2939862256 2.168404345e-19) 622
(0.2495159841 0.2467034349 2.168404345e-19) 376
(0.2999094704 0.2563260945 3.252606517e-19) 443
(0.2961484739 0.2893317515 0) 622
(0.2634410296 0.2943989587 -4.33680869e-19) 648
(0.2531994958 0.2725168068 -1.084202172e-19) 527
(0.2506662191 0.259902898 -2.168404345e-19) 466
(0.2659948064 0.2739464272 2.710505431e-19) 528
(0.2664828662 0.2182374599 0) 228
(0.2793410937 0.2422216463 -5.421010862e-19) 350
(0.2783022663 0.1924905514 1.084202172e-19) 80
(0.2824067738 0.2414683064 5.421010862e-20) 351
(0.2987681233 0.2319085767 0) 293
(0.2879723445 0.2488443042 -2.168404345e-19) 381
(0.2764119546 0.2494651547 -1.084202172e-19) 410
(0.2831445526 0.1867421906 -2.168404345e-19) 52
(0.2596441582 0.2116928358 0) 198
(0.2948643206 0.1946991684 -2.168404345e-19) 82
(0.2707900749 0.2096522507 2.168404345e-19) 199
(0.2795586838 0.2775609269 4.33680869e-19) 560
(0.2484135935 0.285467872 -2.168404345e-19) 586
(0.2605499428 0.1917943778 -6.437450399e-20) 108
(0.2805263174 0.2917023276 0) 620
(0.2816627806 0.2403547714 2.168404345e-19) 350
(0.2955538867 0.1992889116 0) 112
(0.3025579977 0.2137211469 2.168404345e-19) 203
(0.2879943551 0.2417868448 0) 351
(0.2509868169 0.2022409094 2.168404345e-19) 166
(0.2909294111 0.2045174704 -2.168404345e-19) 142
(0.2925405789 0.2381390656 2.168404345e-19) 322
(0.2618190351 0.2257844105 -1.084202172e-19) 288
(0.2859379587 0.2220685618 -2.168404345e-19) 261
(0.2878845638 0.1947982519 -2.168404345e-19) 111
(0.2533036658 0.2037151574 0) 167
(0.2978685918 0.2270034261 0) 263
(0.3009250835 0.220817243 0) 233
(0.2798670547 0.1809712594 4.33680869e-19) 29
(0.2827744668 0.2571693487 -2.168404345e-19) 441
(0.2859031078 0.2131960561 8.131516294e-20) 201
(0.2943279517 0.2144877958 1.084202172e-19) 202
(0.293151023 0.1782527624 -1.490777987e-19) 31
(0.2858480555 0.2237881735 0) 261
(0.2847110546 0.2183749751 1.355252716e-19) 231
(0.2926934822 0.2654475941 0) 472
(0.294172945 0.1771330598 -2.710505431e-19) 15
(0.2898293505 0.2411837559 -2.168404345e-19) 352
(0.2868567328 0.2643304967 0) 471
(0.3026789265 0.2584227126 -1.626303259e-19) 443
(0.2802754709 0.289322756 2.168404345e-19) 620
(0.287231757 0.2119917184 2.168404345e-19) 201
(0.2932639358 0.192292043 1.897353802e-19) 82
(0.304618701 0.2213414315 -4.33680869e-19) 233
(0.2536537654 0.2128941187 2.168404345e-19) 197
(0.2820634967 0.2637783647 -2.981555974e-19) 471
(0.3010207774 0.2261261496 2.303929617e-19) 263
(0.2976313033 0.2197367997 0) 233
(0.2800273169 0.1917159746 0) 80
(0.2834668952 0.2270477381 2.168404345e-19) 261
(0.273624565 0.1940628987 1.084202172e-19) 109
(0.3017927376 0.1980729378 -1.084202172e-19) 113
(0.2727606583 0.1879270572 -2.168404345e-19) 79
(0.2799810844 0.1913910312 0) 80
(0.2787221708 0.2106834565 0) 200
(0.255568565 0.221987459 -2.710505431e-20) 257
(0.279914813 0.227000305 -8.67361738e-19) 290
(0.2542075069 0.2743839272 -6.505213035e-19) 527
(0.2837779681 0.2295945745 -3.252606517e-19) 291
(0.2872623052 0.2025625907 1.084202172e-19) 141
(0.2777122994 0.1954352552 -2.710505431e-20) 110
(0.2579884396 0.1921372132 -2.168404345e-19) 107
(0.258973664 0.2760443541 0) 527
(0.2676051263 0.1759675863 0) 28
(0.2740463714 0.2338337394 1.084202172e-19) 319
(0.2808767884 0.2055743818 -2.168404345e-19) 170
(0.295214405 0.1983381999 2.168404345e-19) 112
(0.2361560982 0.2267741858 4.33680869e-19) 284
(0.2857883051 0.1961706485 0) 111
(0.2864392928 0.2150050028 1.626303259e-19) 201
(0.2915924638 0.292836523 -1.084202172e-19) 622
(0.2845487047 0.1765511851 2.168404345e-19) 14
(0.2947093452 0.2062487045 0) 172
(0.27097729 0.2634056865 1.626303259e-19) 469
(0.258977892 0.2597897187 -4.33680869e-19) 467
(0.2824812631 0.2127233215 0) 201
(0.2992797656 0.2386977368 0) 323
(0.2745115532 0.2646454919 -2.168404345e-19) 470
(0.2818484445 0.2955049229 -2.168404345e-19) 650
(0.277365246 0.1865343181 2.168404345e-19) 51
(0.2857179128 0.2519869405 4.099639465e-19) 411
(0.2935225912 0.2072325901 0) 172
(0.3015854559 0.2463369307 0) 383
(0.2779542453 0.2365509703 -2.168404345e-19) 320
(0.3014417576 0.2181562909 0) 233
(0.2926332527 0.2735951172 0) 532
(0.2857943658 0.2673071062 8.67361738e-19) 501
(0.3000725112 0.2149431653 2.100641709e-19) 203
(0.2952555917 0.2109567797 6.505213035e-19) 172
(0.2777999432 0.2439758245 -5.421010862e-20) 380
(0.2606824355 0.2684050251 4.33680869e-19) 498
(0.2578572455 0.2706092799 0) 497
(0.2670072045 0.2523931216 -2.168404345e-19) 409
(0.2872732644 0.2025419606 -1.084202172e-19) 141
(0.2941155426 0.2860569127 2.168404345e-19) 592
(0.2737995514 0.2446588614 2.168404345e-19) 379
(0.2914189678 0.2636918073 -1.084202172e-19) 472
(0.2931455318 0.2154768525 1.084202172e-19) 202
(0.2798542739 0.2977844076 -2.168404345e-19) 650
(0.29873339 0.2977519274 2.168404345e-19) 653
(0.287204306 0.2668289741 6.505213035e-19) 501
(0.3047883526 0.242751682 0) 353
(0.2573552402 0.2102920268 -4.065758147e-19) 197
(0.2944097694 0.2828092228 -3.252606517e-19) 562
(0.2473898451 0.1733273956 0) 25
(0.3029751266 0.2463636722 0) 383
(0.2725470257 0.2029409707 -2.168404345e-19) 139
(0.2719046153 0.2779430613 -2.168404345e-19) 559
(0.2621513865 0.2437694636 5.421010862e-20) 378
(0.2503281434 0.2780128778 0) 556
(0.2384286962 0.184009157 1.084202172e-19) 75
(0.2953405843 0.271622891 2.168404345e-19) 502
(0.2916971754 0.2199104639 0) 232
(0.2823242626 0.2780052718 6.776263578e-20) 561
(0.2729951191 0.2382872709 0) 349
(0.262743777 0.2465832971 -3.252606517e-19) 378
(0.3042662421 0.1713529096 -4.878909776e-19) 5
(0.3036921017 0.2509635591 -4.33680869e-19) 413
(0.2551090464 0.2934986095 2.168404345e-19) 617
(0.2836157802 0.2468737733 -8.131516294e-20) 381
(0.287189294 0.2267181525 0) 261
(0.2739949451 0.2358486367 0) 319
(0.2585352762 0.267837566 -1.626303259e-19) 497
(0.2794256378 0.2200982359 0) 230
(0.2757956957 0.2798456929 -2.168404345e-19) 560
(0.257337658 0.2414578097 -2.168404345e-19) 347
(0.2824141487 0.2316957383 6.505213035e-19) 291
(0.2840182308 0.2266841621 0) 261
(0.2793440732 0.1758782352 0) 13
(0.2722105209 0.224948415 0) 259
(0.2855008457 0.2672766735 -5.421010862e-20) 501
(0.2754312631 0.212975777 -4.33680869e-19) 200
(0.2993489281 0.2590410411 -2.710505431e-20) 443
(0.2638248172 0.2006290688 -1.084202172e-19) 138
(0.2622484911 0.2318498732 1.084202172e-19) 318
(0.2530172273 0.2173040356 -2.168404345e-19) 227
(0.2916305072 0.2614536006 4.33680869e-19) 472
(0.2924728169 0.2488187949 0) 382
(0.2847104163 0.272382041 -1.084202172e-19) 531
(0.3022548753 0.2352982522 -6.505213035e-19) 323
(0.2985182188 0.2308264084 -2.168404345e-19) 293
(0.2892268698 0.2669150912 0) 501
(0.2856996177 0.2313054617 -3.252606517e-19) 291
(0.270712366 0.2486459061 -9.486769009e-20) 379
(0.2949904203 0.27173973 0) 502
(0.2782105445 0.2287504505 -1.084202172e-19) 290
(0.2957003538 0.2185483624 0) 232
(0.2716826916 0.2594873788 1.084202172e-19) 439
(0.2639314241 0.1896894767 5.421010862e-19) 78
(0.2412712098 0.1891189862 2.168404345e-19) 105
(0.2596725455 0.2730555316 0) 528
(0.2970832248 0.2941824924 4.33680869e-19) 622
(0.2796543583 0.1933304492 -2.168404345e-19) 110
(0.3003633494 0.2051590351 2.168404345e-19) 143
(0.3009367054 0.1962820541 -4.675621869e-19) 113
(0.2920925951 0.2220401912 -2.168404345e-19) 232
(0.2971402427 0.2541679297 -4.33680869e-19) 412
(0.2526096162 0.1863855552 -2.168404345e-19) 77
(0.2504229372 0.2216463214 2.168404345e-19) 256
(0.2781310132 0.19159321 2.210755992e-19) 80
(0.2850939437 0.1969348188 0) 111
(0.269833995 0.275908188 -3.252606517e-19) 529
(0.2735451743 0.1808944821 0) 28
(0.2718790092 0.1875536557 2.168404345e-19) 79
(0.2629155472 0.2635025439 3.489775743e-19) 468
(0.299106648 0.2189350212 -4.33680869e-19) 233
(0.2736888698 0.2204502651 0) 229
(0.2727308802 0.2751119765 0) 529
(0.2849839065 0.1988534172 -2.168404345e-19) 111
(0.2963839546 0.2444421176 0) 352
(0.2815373528 0.2391417532 2.168404345e-19) 350
(0.2757858621 0.2573325985 0) 440
(0.276051894 0.2766068423 0) 530
(0.2605227394 0.2058960583 1.084202172e-19) 168
(0.2965215073 0.1999469664 0) 112
(0.2919383948 0.2362497525 -4.116580124e-19) 322
(0.2568104108 0.242320252 0) 377
(0.2854327011 0.2055332094 2.981555974e-19) 171
(0.2513081564 0.2648190387 0) 466
(0.264288656 0.2045443768 -2.168404345e-19) 168
(0.2901789455 0.2919556855 -1.626303259e-19) 622
(0.2768136188 0.198322832 2.168404345e-19) 110
(0.2835615877 0.2818902042 0) 561
(0.2762636306 0.211595492 -2.710505431e-19) 200
(0.2886889547 0.2405362979 0) 351
(0.2609830284 0.2829712696 -2.168404345e-19) 588
(0.3005397561 0.2185437769 -1.084202172e-19) 233
(0.2913016638 0.2057868084 2.168404345e-19) 172
(0.2894144746 0.2617029779 2.168404345e-19) 471
(0.2800251238 0.1969394151 2.168404345e-19) 110
(0.2860226747 0.1849296754 5.421010862e-20) 52
(0.2522497357 0.1933195534 -3.252606517e-19) 107
(0.2990717429 0.2470754943 -1.084202172e-19) 383
(0.2943479303 0.1922851403 2.168404345e-19) 82
(0.2473780821 0.2197714555 -3.252606517e-19) 256
(0.2727594682 0.2747122203 0) 529
(0.2509819157 0.1924002558 2.168404345e-19) 106
(0.2877141159 0.2136539985 0) 201
(0.2914607872 0.2781134123 0) 562
(0.2564417497 0.2694645689 -2.168404345e-19) 497
(0.2473539307 0.271795243 2.710505431e-20) 526
(0.2514680702 0.177253702 2.168404345e-19) 26
(0.2685911983 0.2400910872 4.33680869e-19) 349
(0.2449805205 0.2468699719 -5.421010862e-20) 376
(0.2951759091 0.2295711967 -2.168404345e-19) 292
(0.2849883401 0.2073461627 2.57498016e-19) 171
(0.2388727173 0.1684551667 1.626303259e-19) 8
(0.2832260977 0.294865593 -2.168404345e-19) 651
(0.3036250295 0.2089594093 0) 173
(0.2799454654 0.2203911205 0) 230
(0.2815953492 0.193227055 -2.168404345e-19) 80
(0.2513551904 0.2050914209 0) 166
(0.2711186307 0.242082864 3.252606517e-19) 349
(0.2765880456 0.2232578829 -5.421010862e-19) 260
(0.2853058856 0.2339521935 -4.878909776e-19) 321
(0.2844158705 0.2016401209 2.710505431e-19) 141
(0.2659297481 0.2302493089 0) 288
(0.232202388 0.2548938265 6.776263578e-20) 434
(0.2482548563 0.2096463403 -3.252606517e-19) 196
(0.2385963388 0.2310995934 1.084202172e-19) 315
(0.2780159758 0.2362670518 4.33680869e-19) 320
(0.2852424013 0.2713867836 2.168404345e-19) 501
(0.2608911416 0.1918605445 -2.168404345e-19) 108
(0.2850876513 0.2229424922 1.626303259e-19) 261
(0.2659017954 0.2668570699 -6.505213035e-19) 498
(0.2587378869 0.2077042542 0) 167
(0.2785092038 0.2032499172 7.047314121e-19) 140
(0.265289487 0.2503500053 -2.168404345e-19) 408
(0.2375465321 0.1979039162 0) 135
(0.2819550052 0.2089211005 -2.168404345e-19) 171
(0.2504517912 0.2399258129 0) 346
(0.2715021632 0.2184855374 3.252606517e-19) 229
(0.2437130573 0.2787630013 0) 555
(0.288221902 0.2408975357 1.084202172e-19) 351
(0.2369092741 0.2812326852 2.168404345e-19) 555
(0.3016427476 0.2499549072 -2.168404345e-19) 383
(0.1881577674 0.2767902979 0) 548
(0.2939606162 0.2054129535 -3.252606517e-19) 142
(0.2703652061 0.2473915688 0) 379
(0.2426205153 0.1981121964 0) 135
(0.2960836203 0.2316361189 4.33680869e-19) 292
(0.2751163978 0.251865753 0) 410
(0.246600957 0.2599252097 1.084202172e-19) 466
(0.2533384283 0.2473412839 -3.252606517e-19) 377
(0.2907541571 0.1956976098 4.607859233e-19) 112
(0.2908162445 0.2266201992 -2.168404345e-19) 262
(0.2379303092 0.2613695655 -2.168404345e-19) 465
(0.2986799522 0.255391719 4.878909776e-19) 413
(0.2863921008 0.2024257096 -2.168404345e-19) 141
(0.2888292133 0.1993923959 0) 111
(0.2795512075 0.2254327498 0) 260
(0.2847445405 0.2724637991 4.33680869e-19) 531
(0.2893975103 0.1885467868 4.33680869e-19) 52
(0.2310721315 0.1975923211 -2.168404345e-19) 134
(0.275073115 0.2582476618 2.168404345e-19) 440
(0.2809345308 0.2711953148 2.168404345e-19) 500
(0.237903483 0.2458211605 1.897353802e-19) 375
(0.2925260443 0.2503228028 2.168404345e-19) 412
(0.2864347682 0.2408928858 -4.33680869e-19) 351
(0.2475868966 0.2835510861 1.219727444e-19) 586
(0.2696409987 0.2086233137 2.168404345e-19) 169
(0.2720241615 0.1840334489 -2.168404345e-19) 50
(0.2786061618 0.2235344145 1.084202172e-19) 260
(0.2827747867 0.2696620762 -1.084202172e-19) 501
(0.2791201618 0.1894280134 -1.084202172e-19) 80
(0.2767438249 0.1900825435 -5.421010862e-20) 80
(0.2778998693 0.2202620636 -2.168404345e-19) 230
(0.2493874758 0.2142134127 -3.252606517e-19) 226
(0.2812077921 0.2622159917 0) 470
(0.2673983949 0.1795268015 4.33680869e-19) 28
(0.2436042636 0.2256211164 2.168404345e-19) 285
(0.2605540194 0.2278963619 2.168404345e-19) 288
(0.2587545798 0.1896321197 4.33680869e-19) 77
(0.2907500688 0.2323086724 -4.33680869e-19) 292
(0.2325044572 0.2312739644 2.168404345e-19) 314
(0.278484623 0.2037164294 -1.355252716e-19) 140
(0.2971147941 0.2430937351 -4.33680869e-19) 352
(0.2741059933 0.2499419524 -2.168404345e-19) 409
(0.2744085861 0.2714178543 -2.168404345e-19) 500
(0.2680373174 0.2251461187 1.084202172e-19) 259
(0.2619133327 0.2228643523 3.252606517e-19) 258
(0.2529075797 0.2131519031 -4.33680869e-19) 227
(0.2823387612 0.1773130787 -2.710505431e-19) 30
(0.303717417 0.2239736663 -6.505213035e-19) 263
(0.2971503548 0.2888996467 4.33680869e-19) 592
(0.2615941443 0.2035146409 -2.168404345e-19) 168
(0.2489730072 0.2968783131 2.168404345e-19) 646
(0.269690847 0.2099541363 -5.421010862e-20) 199
(0.3021666596 0.2226664791 3.252606517e-19) 233
(0.2805100951 0.2174629196 1.084202172e-19) 230
(0.2997206249 0.2701817549 5.421010862e-20) 503
(0.2481695165 0.1883925802 -1.084202172e-19) 76
(0.2568931833 0.2717475007 2.168404345e-19) 527
(0.2597898218 0.1859674311 0) 78
(0.2829727696 0.2331874897 2.168404345e-19) 321
(0.2538204448 0.2187717471 2.168404345e-19) 227
(0.2870629434 0.2587613691 -4.33680869e-19) 441
(0.2715301493 0.2007355143 0) 139
(0.3017301091 0.2686792712 0) 503
(0.2514356355 0.2042857288 0) 166
(0.2823063293 0.2030470104 1.084202172e-19) 141
(0.2744446193 0.2687251106 -2.168404345e-19) 500
(0.2648094565 0.2267687057 -2.168404345e-19) 288
(0.2948006091 0.2077089544 -1.084202172e-19) 172
(0.2823846804 0.2517683598 0) 411
(0.2714913966 0.2802481786 0) 559
(0.2414687017 0.2857716678 1.084202172e-19) 585
(0.2916514249 0.2973329242 -1.355252716e-20) 652
(0.2795956113 0.2229337517 -2.168404345e-19) 260
(0.2701700851 0.2759998932 2.168404345e-19) 529
(0.2595104016 0.2320549629 -2.168404345e-19) 318
(0.2248518767 0.2012366867 6.776263578e-21) 163