/*--------------------------------*- C++ -*----------------------------------*\
| =========                 |                                                 |
| \\      /  F ield         | OpenFOAM: The Open Source CFD Toolbox           |
|  \\    /   O peration     | Version:  2406                                  |
|   \\  /    A nd           | Website:  www.openfoam.com                      |
|    \\/     M anipulation  |                                                 |
\*---------------------------------------------------------------------------*/
FoamFile
{
    version     2.0;
    format      ascii;
    arch        "LSB;label=32;scalar=64";
    class       vectorField;
    location    "0.002/lagrangian/dsmc";
    object      U;
}
// * * * * * * * * * * * * * * * * * * * * * * * * * * * * * * * * * * * * * //


6294
(
(956.5385631 989.4878951 352.7867753)
(2238.657668 418.7242543 -246.8833956)
(729.4757897 51.44616374 -137.4624513)
(1397.869561 -515.5293581 552.3644196)
(865.5586313 483.8635783 -190.2826421)
(2042.463116 -86.17771988 -295.9080539)
(1182.530328 735.1001036 -147.734909)
(908.1146763 1034.330547 593.0309253)
(884.0961597 638.7052972 95.42068668)
(521.6861956 352.4193295 -302.8924258)
(1364.646833 229.6805871 107.5903212)
(1690.958868 946.310449 -253.646049)
(362.5644361 1605.304041 404.3354226)
(93.84219105 431.6914502 404.7650689)
(297.6699412 455.9447673 432.5574013)
(986.7156938 112.103218 382.3757845)
(1559.152193 148.3963754 351.499564)
(815.116599 574.9900656 131.3911335)
(1227.049547 -247.8641655 -284.120555)
(1209.292737 387.6252883 -45.14626721)
(1194.038291 1309.464413 -413.7279039)
(1321.145674 142.7253578 22.25358534)
(1302.729125 -2.391318105 -596.4249341)
(836.9723022 445.776058 135.7115591)
(1284.850348 37.28937121 95.49506395)
(1282.969091 512.9506918 975.3041867)
(1916.199763 191.0176707 48.08236062)
(1484.630663 765.3024663 561.8212191)
(782.2991644 455.2176145 155.7873825)
(1122.306933 -17.68955972 -288.8168515)
(2236.431139 -486.2169827 -272.4065211)
(808.4192398 543.3739266 276.1381833)
(1574.866322 995.3104877 719.8656431)
(1415.729068 1157.349806 162.7822042)
(1308.281211 736.1490934 731.1307142)
(1012.935865 -279.1554564 178.6552606)
(1319.167674 909.3897198 -471.7448805)
(1516.321133 306.4435608 -587.0633817)
(1623.445977 -88.30689222 170.7379819)
(1344.784759 510.2003588 94.48837113)
(1485.434599 969.9447511 -239.8743196)
(1769.726443 514.3604854 415.4099126)
(1472.754455 -35.96019608 541.8080267)
(1660.188241 -120.6632132 -683.6230012)
(1268.014097 60.34235739 875.686772)
(1156.490817 328.4686633 364.9697408)
(1211.93473 224.991484 -340.9708942)
(1462.920901 583.7865977 -257.1705656)
(1082.040183 -107.10992 307.7942006)
(1469.261568 54.31071506 31.59933941)
(1874.600502 435.1542619 -167.2017872)
(920.3188339 200.2386207 -170.8314607)
(811.2858464 687.0223438 -155.936207)
(1483.543102 547.4568425 253.4600381)
(1669.608207 139.2333597 -197.3166688)
(1232.075793 373.2482252 256.5623626)
(662.6956654 214.4183733 12.79421311)
(1082.431067 795.1996227 444.4639862)
(1485.572701 132.317089 91.33928895)
(773.2255913 -17.69695069 -189.6457564)
(777.5204952 -179.0840461 230.83)
(936.3324049 -348.5843349 -483.3502924)
(1428.993914 240.2820358 31.03762169)
(1226.95104 157.7695538 362.4693184)
(956.9725347 527.9428767 -30.06282922)
(1626.688927 313.601217 -264.5311083)
(1740.627743 93.50523123 -134.1492366)
(1248.847752 -72.31299573 58.46881746)
(1459.442804 469.0826529 138.7049532)
(1310.468672 154.1710259 293.9456831)
(1402.730211 -122.1999462 -90.02436898)
(1901.924756 278.035807 -335.0841907)
(1576.040686 -357.834265 296.4636736)
(1895.298222 431.0735195 -133.1694915)
(1568.218848 -151.6010874 93.44056582)
(1861.852899 204.8259232 213.1601145)
(1757.075433 886.8987297 537.3212331)
(1802.655898 -244.318875 -1067.698422)
(899.8894825 572.8475292 -519.4088775)
(2076.168789 286.9997021 -42.64870799)
(1499.419238 755.6792122 410.163369)
(1546.718743 426.7623791 -47.92700234)
(912.4186906 482.655797 463.3200312)
(1353.983273 531.138807 -57.45165373)
(1226.721898 -228.4015759 425.88491)
(1452.723546 563.1518986 459.0874506)
(1660.776496 4.354948097 -166.5121861)
(1691.998386 587.1722566 113.9625186)
(1054.272383 251.551827 -15.90116209)
(817.7304703 146.7885091 371.7477357)
(1165.241512 240.0434381 -57.04665858)
(1493.439924 866.0167686 -166.6737812)
(1616.428799 173.3150959 236.7009265)
(1161.625106 92.38505189 319.3420534)
(1289.245242 -139.2994629 388.735235)
(1056.397874 531.1049236 -803.4384553)
(1148.641808 156.9034524 131.5561967)
(1884.820242 221.8861452 -518.5408536)
(1048.394239 822.1484402 326.6031249)
(701.4467016 688.4101391 -96.23534974)
(1476.410108 429.3255432 202.0478265)
(2302.24514 -697.3641784 685.3003548)
(1358.643354 335.2090752 239.1152695)
(1311.80048 -6.757734277 -414.100798)
(1271.923087 1068.848931 -774.1415334)
(1766.433063 90.87130258 -98.81163499)
(1584.916741 580.7706248 388.1900844)
(1053.560987 358.2181617 970.9856025)
(1824.313461 934.7207024 193.5004596)
(1580.865982 180.8241992 -17.87642032)
(1241.696121 9.380595694 -680.5832684)
(1568.716846 656.5764842 -289.2585016)
(1895.879028 -28.59112719 182.4666692)
(981.6109318 738.9326411 -3.422993843)
(1085.513079 -632.8484054 -86.3320684)
(1742.886818 21.41313682 -416.597967)
(1424.336037 581.6658124 -622.8497176)
(1004.961654 151.6570931 266.6839589)
(2216.394832 854.9274753 975.0573988)
(1252.611464 -886.100005 -148.9591689)
(1568.687567 661.5845422 800.7846878)
(1777.467598 269.5460375 -202.8125447)
(1108.926892 -995.0799647 -326.0396431)
(860.6620374 220.8665265 -270.4563498)
(1770.221889 87.81694847 -226.6261143)
(1531.308653 -52.16098015 183.3305503)
(1582.237202 437.6368214 256.7519518)
(2104.551972 -94.94332646 -511.338054)
(1361.127677 876.3654693 634.6924438)
(1884.562695 35.14602663 205.2698999)
(1847.431243 391.6043112 -738.4154339)
(1685.79518 63.88530611 174.1592355)
(979.5802926 297.5732686 -250.0959029)
(740.6296884 875.5470002 147.0490066)
(813.2057057 -270.2079565 126.21715)
(1348.002866 116.3872629 -225.3267653)
(1978.429507 129.9931451 -257.3271471)
(1195.086504 -294.4687522 -115.3480114)
(796.3222656 818.8916342 36.22362378)
(1853.896691 397.2448089 1133.383797)
(1602.308034 128.9478457 311.0931089)
(1554.082605 -104.8489165 -463.6527511)
(2416.478876 601.0630455 191.8147686)
(1603.014817 313.9951964 154.4039485)
(2081.499452 197.7321343 -770.9145565)
(1452.537677 -280.2682093 -16.04301721)
(1366.003356 99.67033876 332.3195067)
(603.1225342 698.8456226 89.6107267)
(1198.049155 287.2541822 -13.04099014)
(801.4275276 566.7719965 -977.9075344)
(1594.419162 279.8711943 -310.3149989)
(875.52464 -46.31596931 -386.9693522)
(1164.146161 -25.11224796 -618.3624881)
(1825.910776 -72.44545459 -309.7970924)
(1465.945689 -68.15027101 421.5072455)
(1664.373587 185.912715 -103.9985594)
(921.8006655 227.2194431 -39.85411699)
(567.1571387 208.3765415 -289.7363388)
(1757.512524 570.9249685 -156.478087)
(518.6647392 -487.598372 213.5305419)
(1475.21982 56.07045778 59.48191985)
(1028.480188 998.0583049 -644.4875251)
(1121.258253 -439.2255538 495.8120828)
(1798.728312 -308.818823 -350.7820569)
(1445.617046 -36.00455063 -565.2318899)
(1458.830323 213.9115737 238.366869)
(533.1366692 74.77696272 163.7120834)
(1281.656131 380.5745641 144.9757555)
(1933.988409 564.4480005 -958.3846662)
(1478.405837 -385.9174859 1.998844142)
(1149.483641 836.9657366 -478.1635091)
(1712.529911 181.3722418 423.2407374)
(1347.210388 -147.7104586 165.8161423)
(1635.547713 -104.2595213 127.7768238)
(970.3403361 936.2799231 -420.5711822)
(1437.425091 226.5618834 -164.5461843)
(1680.672171 -67.51109521 -180.5939241)
(734.9840528 160.7892683 -333.041476)
(1259.197342 -245.5534917 -302.9968931)
(1322.725472 -32.44992255 370.9436417)
(1895.519976 -223.2648944 501.5900775)
(1540.653289 59.48272838 -145.3299276)
(1555.560624 36.40997671 262.1256728)
(1235.762959 138.1520222 -250.7882837)
(1013.264597 165.240512 415.5262849)
(1579.237033 -263.9309563 -67.29373218)
(2038.79126 -102.1746483 -3.955908596)
(1335.976777 655.6966577 533.440107)
(1849.002948 -533.758116 -1026.274025)
(2441.827735 699.3843131 43.78843267)
(2008.737574 272.5163254 525.5368768)
(1128.703144 -271.1537228 584.742458)
(1738.645029 -175.569006 -437.3860999)
(2014.155135 479.3674528 -298.8486166)
(956.6186418 418.3432114 1322.477691)
(1439.4731 395.1563981 -234.1606944)
(1226.471653 369.8707201 572.5380458)
(1405.93098 51.39383695 505.2845183)
(1632.95263 219.5502097 483.8196011)
(973.2571757 745.0023793 -256.3107237)
(1208.88461 134.8243251 -471.7637543)
(1489.786749 -136.9570278 144.06527)
(1624.250442 190.8178919 -19.601965)
(1148.449736 -447.1856468 -467.7722602)
(521.7912156 285.8365631 778.5001967)
(1661.270795 -116.2465729 64.07942294)
(2214.615044 -339.7911783 338.5593265)
(1581.369392 -224.4550692 12.63132988)
(1427.772261 456.0127558 -199.0757151)
(926.8238127 -36.49457125 -432.9266614)
(1464.144851 282.8136894 -389.7953348)
(1785.562181 -232.8734725 49.36621599)
(996.4676186 -921.1001754 -293.7955529)
(1616.57354 -142.2221509 10.86327985)
(2001.189296 838.2994144 -74.63441174)
(1985.626432 -4.956825182 -52.72701493)
(1373.351493 -15.42681035 832.481807)
(1862.77443 1043.696834 168.629306)
(2083.508396 107.8719581 -137.9322749)
(1791.203135 261.4915204 352.6236113)
(2522.271699 1272.44525 221.6011449)
(1744.585925 158.496156 -77.5429662)
(1388.671667 55.34918188 -1021.663744)
(1470.90884 178.8955847 642.6111601)
(921.4832652 378.4005219 718.3513202)
(1446.824445 -772.4276304 -43.99645416)
(1528.376595 386.0391603 -625.1081539)
(1642.529807 603.8917969 311.4536175)
(1054.742471 113.5893735 -198.7726076)
(1412.131959 72.69154264 -84.03617057)
(1529.88475 911.6484002 -357.0843779)
(1966.57441 328.3674425 -21.32871884)
(1069.6523 -195.5113514 -285.8564412)
(1371.276416 87.67993931 215.8496997)
(1552.929951 145.3848866 15.11578895)
(1697.609572 -708.7749685 580.0200566)
(1669.127509 58.19270021 7.556198042)
(1335.449419 564.1212349 -45.50341106)
(719.8883503 64.32068982 -355.1127472)
(1927.926688 -295.4790467 70.33254974)
(1335.246115 31.88924311 313.5474729)
(1651.291345 -55.87159933 -270.9687036)
(882.1480146 -366.5628924 459.7915649)
(1440.485737 -77.01159531 86.00978395)
(1523.013365 436.1358646 317.9738257)
(1705.035037 102.6323804 -91.52661422)
(1817.760684 -336.1070345 5.586603975)
(1541.944773 181.8691359 196.660325)
(1444.075498 433.5916023 -82.85011746)
(1168.206724 -95.64133056 73.89126402)
(1192.195918 1198.964758 -1.070897443)
(1695.925776 220.6041586 269.4701686)
(1303.71989 -276.1018614 44.10462767)
(1583.642263 100.2910186 193.3198245)
(1280.75217 -146.441485 4.857070134)
(1680.552889 468.4561094 25.06083961)
(1508.188525 -413.6386657 192.1883125)
(1173.058505 654.8220745 -301.6389507)
(1489.429704 1038.747614 444.0665485)
(1663.663129 767.7027303 -4.933793107)
(1036.31893 599.3223751 152.1827026)
(1412.400438 95.81313902 288.1081323)
(984.2944697 -140.9258659 62.21844341)
(1493.2986 616.1670993 853.0180885)
(971.3913296 -250.5773295 84.84838083)
(1902.969977 168.6064977 -42.23307952)
(1899.483689 18.55945462 147.8744735)
(1568.895187 -343.7145484 399.1559926)
(1692.070438 684.9237503 -1316.318798)
(1515.623194 818.9032071 966.2320758)
(1844.367155 -212.8556169 667.2652196)
(1714.954574 -50.20659597 39.30656629)
(1605.053574 560.9178011 159.1926235)
(1034.78238 -27.85175661 -1169.556634)
(1902.505679 53.93636155 -507.4566825)
(1654.804375 212.5398752 -65.6201092)
(1722.875891 278.2171046 -171.9998747)
(2429.67211 370.1024856 617.414501)
(1406.566235 1657.658369 54.76253957)
(1826.536465 -407.7075577 125.0825867)
(2022.181804 475.3457136 -128.5133696)
(1231.683877 442.2442116 -375.4674142)
(1441.893078 581.6392741 -202.6570249)
(291.5568584 921.6501621 -206.2841853)
(1788.643807 337.2856744 -52.98987925)
(1412.578989 523.8453646 -93.79488477)
(1293.18747 697.0857808 438.377759)
(1412.796999 514.0496803 -121.9495729)
(699.2419851 -164.0422085 -93.91686719)
(2078.66701 911.9773404 413.8111805)
(1501.705543 794.1664675 -387.1042629)
(1218.504752 335.4554031 -1139.212683)
(1592.505672 -193.0513425 -467.0656023)
(875.8841198 476.4023525 187.0650802)
(1343.044199 402.8230033 129.944566)
(2189.13224 942.3968045 167.6801973)
(1065.939831 537.8735434 -308.2249025)
(1453.620441 418.4665893 514.4421276)
(1766.497925 50.84546668 231.4732008)
(1960.037769 682.5049676 -597.1527251)
(1748.466341 521.6445081 -547.4521641)
(1740.689557 249.7332372 390.72419)
(2004.208367 -332.6759461 118.6631617)
(1601.956959 -357.7949023 490.4420189)
(2587.725792 87.44510062 -61.23101771)
(1795.896849 20.78535763 142.8167624)
(1491.211766 173.4289698 -396.9906525)
(1503.694406 -672.4940391 -232.9827785)
(1554.217995 1055.476677 107.5311299)
(1817.267827 -859.9586455 -247.9258003)
(401.4819961 641.7973841 621.1319099)
(846.7402791 992.9400487 -401.3831548)
(1927.056993 344.6290301 30.03871197)
(1817.078376 -215.8911822 -84.66313349)
(2279.655621 -262.0825817 152.4679978)
(1764.040341 -289.6876152 -198.3136929)
(981.7379594 -156.6643943 247.5896296)
(1966.902801 -89.21035108 760.8431939)
(1529.787976 155.2112829 168.7445297)
(1841.575681 54.59512467 -43.61909279)
(917.5759209 708.9768659 -257.4180212)
(1400.407398 1093.233518 -270.7798429)
(1731.599189 -151.3692502 254.0541796)
(1516.888196 527.4007501 -767.8806897)
(1449.68299 565.7350271 -513.1460432)
(1448.722192 -416.5045765 256.6020386)
(1744.911332 -223.2067775 333.6843376)
(1279.449579 -488.7850002 -771.5436178)
(1300.976975 913.6219857 689.468099)
(1887.51347 69.41926794 -39.13822584)
(1064.934944 -34.93175093 235.7823286)
(1495.415276 165.7870828 211.8389014)
(968.9055054 867.7387603 505.5931605)
(1537.829404 -202.5575862 114.1158314)
(1472.078901 -222.7545242 143.0547775)
(1447.982215 -108.6964867 367.8254115)
(1148.710966 766.713259 -610.3493152)
(1605.945205 106.3513958 128.6892603)
(1310.695966 1007.001376 322.1992034)
(1481.490984 -40.58318306 -28.63899431)
(1481.600605 490.9182307 -954.034474)
(1365.360638 246.2131938 -228.5424504)
(1157.741638 394.2789008 -397.9354568)
(1709.568127 -393.1492381 204.1046514)
(1689.870716 66.96226802 112.3097991)
(1558.587166 139.6421769 280.5633637)
(1979.945112 97.25391791 -571.4220211)
(1423.930462 1079.833189 111.9944427)
(1266.99558 -63.11374809 89.64554541)
(1167.836202 -143.1172436 -277.7545929)
(1906.639628 -135.2374965 115.1370603)
(1401.885028 336.9536266 476.5185315)
(1464.386364 56.41225347 -355.1318354)
(2049.723654 -99.30852542 198.0774161)
(2036.779928 12.78599026 396.3657983)
(1962.555714 724.7168727 17.06715089)
(1635.194496 91.14805299 220.512378)
(1898.36899 186.5163845 388.7883257)
(1049.458317 574.9126946 -641.3614122)
(2004.44845 168.3588954 139.548568)
(1106.586601 111.5968391 56.44274133)
(981.8859707 295.3163553 567.9300048)
(1630.397116 12.71063498 -4.034306931)
(1801.671787 541.6579879 0.2110240076)
(1561.371029 214.1574583 521.5689181)
(2264.395606 -101.5796544 15.90644864)
(1982.393582 494.7953432 -23.63824986)
(425.4709295 57.97877165 -135.2568527)
(2250.842157 -99.14643629 73.65358636)
(1394.2744 563.2411339 254.804221)
(1161.951519 -571.9249521 52.75572287)
(1944.111319 384.477185 -664.372711)
(1477.347604 201.5713241 553.8228437)
(1834.155094 246.9215504 100.1784994)
(1020.297527 374.4923737 -645.2556531)
(1532.359127 77.03653315 66.81819114)
(1195.943294 188.890456 629.9690584)
(1120.805034 623.9123614 -446.9537611)
(1582.679569 -517.8908504 -204.2659664)
(1432.838192 477.2620888 293.0010421)
(1446.250378 -107.932243 -303.1600016)
(1238.452248 -343.5318319 498.9715308)
(1546.806111 48.79592115 -55.20547132)
(2175.08902 232.0491754 215.1059656)
(1288.247104 151.7352222 406.4108383)
(1714.010482 482.3463912 -639.3001346)
(674.3440643 467.9661128 104.6219482)
(1325.902233 -555.085824 472.3072831)
(1122.425676 857.2459535 178.9934379)
(765.9044314 -116.8643963 -144.7875936)
(718.8328197 400.8368736 -80.15795576)
(1193.082442 231.5815964 -316.9767097)
(1233.760396 -169.9298388 76.90657289)
(1518.343423 382.6586693 -375.5406564)
(1726.184577 -552.1534736 12.23288627)
(674.398918 -205.2393546 -26.32457471)
(1443.11813 311.9917795 -106.7939515)
(2315.93895 -243.1429773 -734.1212529)
(1478.37584 182.957004 -342.8238064)
(1444.485845 214.210019 61.37894802)
(2015.240982 141.8664198 366.7676857)
(1593.553952 394.9066201 -1116.343434)
(803.8010401 236.5450442 63.41309543)
(1457.04333 -23.76074688 -277.6527093)
(1361.191019 178.7433379 67.5035681)
(1211.283349 -491.7260378 361.8685631)
(1641.228615 71.22943636 184.340208)
(1486.202989 659.247396 -19.86322122)
(1788.190108 -65.4454161 197.2861945)
(1260.717562 317.1673197 349.2778929)
(2161.628938 -63.51862138 411.7264302)
(1310.085154 70.64476914 172.5329714)
(1657.602856 -92.05215229 310.8623369)
(1549.152804 -111.286057 185.3062319)
(1689.287241 -439.8034968 -156.0531733)
(1416.583547 -517.9646188 -147.432895)
(1593.061585 -108.9219625 -224.5306247)
(1598.001518 344.555916 -139.4103307)
(1652.679705 -508.6742677 -121.445166)
(1890.006343 145.2245175 -232.2102028)
(1510.599776 -309.7456558 -239.5204606)
(1867.528089 104.1038151 -185.8223221)
(2008.952774 158.6603744 -141.4020331)
(1938.896753 288.9832323 -607.0246827)
(1929.577096 -260.271176 364.4548362)
(1719.240757 577.9006324 28.36538155)
(2020.774793 1519.802348 -170.3281034)
(1192.157439 -120.7428892 -248.7147557)
(1334.578973 -59.15549659 95.03173606)
(1125.277923 215.5885268 221.7909917)
(481.656604 804.0332403 421.7812305)
(1682.042422 -253.0456489 148.211603)
(1596.274528 109.2743757 406.8944747)
(1409.093541 -76.49003715 19.60872401)
(1166.397434 78.90220906 329.8239439)
(1523.326568 169.8668185 -345.3141675)
(1950.664184 75.38856757 349.1627246)
(1644.505754 -300.3037955 -162.2426799)
(1972.471194 174.5088416 184.9874995)
(1209.11546 1195.523626 -311.6408344)
(1445.593219 343.201 -134.7006957)
(1631.5274 283.1209883 -403.9837569)
(1848.306418 120.1178811 227.8394824)
(1302.670617 246.0022342 -707.8992709)
(971.3976023 1650.099065 -75.20326962)
(1511.477737 142.8368869 658.7474901)
(1369.219602 525.4876509 133.6950008)
(1475.495276 -173.3300256 -167.6542814)
(905.9495489 284.758898 -667.338313)
(2063.880624 -143.5356853 -277.0236396)
(1563.816629 -1.332486436 44.30232139)
(1909.361585 -333.9225741 -320.0884688)
(1637.181718 304.408766 -132.9048744)
(1658.75682 77.66958489 -285.8694652)
(1971.069563 -177.046233 95.1838669)
(1929.468852 -248.8207986 -53.04610399)
(1685.958882 -6.034449328 -417.9946986)
(1760.758385 289.2192009 -505.3196414)
(2263.425478 -980.7762926 -233.4553378)
(1802.111296 193.0285761 -160.8675077)
(2209.609336 135.204479 -819.0036825)
(1688.271926 88.66808679 -556.667373)
(2171.868549 750.5094763 -52.30086902)
(307.7922193 794.0840433 99.94515236)
(1887.503568 163.3192436 32.70587948)
(1878.10788 375.6911839 -315.091317)
(1545.613268 -102.5022515 371.8702851)
(1955.64349 -52.50852308 -419.4323855)
(1858.982334 -314.5039834 -128.9043186)
(1677.27773 138.4079237 267.2861933)
(1127.071217 415.2609267 522.6490011)
(1769.174039 13.49797928 -173.7526225)
(1049.238991 -33.74302763 -323.7474932)
(1966.884008 -456.9307576 1030.140316)
(1487.825786 314.0560805 -572.6479336)
(1271.168446 408.8747887 208.1532357)
(962.6053838 203.0458269 -159.0231789)
(1847.902315 354.7258409 229.067864)
(1703.051703 48.29458272 -361.8388394)
(1733.450106 190.4638176 11.72160647)
(1929.852886 413.4525711 540.9620527)
(1492.982707 1282.249912 153.8464281)
(1690.05923 502.1088626 96.5864658)
(1650.064574 336.7467266 -256.0273657)
(1411.090841 -392.3478689 -230.573165)
(1176.946756 -655.6805097 233.7696567)
(1415.937527 410.3595684 340.7570841)
(2194.754332 684.3951104 -685.0660274)
(1798.59375 59.0962687 -179.2348713)
(1697.618151 285.222866 -0.3435492786)
(1746.94134 61.71328975 162.8110393)
(1419.124139 -917.1916482 -390.4595719)
(1273.617299 -270.0965226 305.3781032)
(1368.034984 -90.04453872 -156.746009)
(1564.592887 474.0291845 -334.6911688)
(1930.583624 1399.787528 23.70420116)
(1647.385657 304.2504207 167.5401137)
(1931.236862 1477.438206 -126.4551035)
(1237.495509 -60.60756178 141.7000444)
(1713.612353 416.2614509 789.2018887)
(1464.632817 43.67494902 332.5597176)
(2691.806434 803.2407296 65.75454634)
(1553.17007 978.9651446 -58.01227119)
(1521.84061 -224.3066589 2.330918633)
(1311.179671 -34.91685533 -471.3899425)
(940.9169839 -73.53005069 -39.87507459)
(1634.531455 -58.71393446 -221.4867319)
(1511.89275 117.9628813 129.9631972)
(1068.526315 342.1962366 -2.223689175)
(1958.798871 749.1549115 -211.0163423)
(1264.090459 744.7968734 439.3035875)
(1002.228387 -236.2183391 485.4760319)
(1436.209503 -201.6019012 201.8809847)
(1503.009617 263.8985938 -276.5294794)
(1782.929678 340.779328 -111.2011375)
(1661.961577 609.2456883 -338.4467623)
(1706.192809 -76.70535022 335.4889759)
(2011.751457 -258.4289661 170.956769)
(1471.662738 -58.64306693 5.638924325)
(1910.964817 160.9295313 -452.6090284)
(2587.687341 286.3987305 106.8330502)
(1644.98135 -9.456445965 22.61925569)
(1732.391393 46.43518845 308.8268888)
(1203.132276 -108.2683218 316.8456594)
(1838.521394 86.10477635 -73.81319227)
(1437.831014 -409.6311555 365.0541755)
(1634.242141 91.32608879 271.6958763)
(1936.490019 499.8638826 268.4835922)
(697.3758081 1385.695562 -442.082698)
(1653.512848 -205.518588 416.4281219)
(1643.143383 224.2047912 502.7816007)
(1419.1754 -17.55247022 -95.24919925)
(2164.595399 -323.3532196 83.42419726)
(473.4120034 323.4926598 113.2318563)
(1539.900466 273.9025516 393.4689542)
(1479.509652 -529.8820403 346.1825257)
(1882.352417 60.75441024 656.9822749)
(1674.554985 121.0692536 243.2748228)
(1092.942511 429.8862869 -134.3485899)
(752.9935725 663.518145 -548.7953868)
(1900.882524 431.0827262 277.0152473)
(1803.168944 -57.4679173 242.7555252)
(1342.375805 542.3630779 -242.6325789)
(860.9730628 -76.71675552 514.1171236)
(1592.438981 -191.310805 115.8158262)
(1595.79912 72.64465288 -229.9130382)
(1902.272263 -261.6698498 -41.21138529)
(1708.596225 70.27582246 297.031093)
(1115.136937 -304.1127688 -126.5116479)
(1591.361108 188.2543117 -73.97969222)
(669.0365142 175.0636359 73.58855611)
(1977.212533 -420.6976341 43.04596231)
(1480.889886 431.1538077 -232.3238187)
(1971.462588 -50.90990324 588.9903261)
(1678.502087 62.21370981 -333.2564936)
(1061.399117 -515.6599862 -304.2023884)
(1848.27109 81.27541414 -50.81529636)
(2168.97308 320.5630095 662.8657871)
(1338.482907 45.87748505 212.7788118)
(1614.601524 335.889104 92.41132227)
(1907.626093 -52.74741938 638.5538261)
(1816.013527 9.316580555 -172.9344588)
(1633.018614 -897.4620304 -453.7548895)
(1308.775537 1184.444892 337.6341002)
(1097.208714 265.6241946 -393.849576)
(1805.695737 -77.67770562 -308.6878705)
(2024.697563 256.3481367 400.5823804)
(1537.450397 322.3979299 -300.8164605)
(1256.14941 464.9902036 -54.0882232)
(1342.176693 661.0838147 -87.08830439)
(760.4682107 532.3633598 503.3099223)
(1530.143628 59.69667212 1198.503862)
(1367.629429 406.8366157 -706.6204118)
(1858.219893 -105.8609434 74.49755023)
(1167.227213 325.8343405 -5.652799521)
(1267.809345 600.1498975 148.4664958)
(877.2050187 438.4503976 195.2561841)
(1729.868408 522.1325861 712.3692983)
(388.3827755 338.0381887 352.4778124)
(836.4438219 80.87210518 -75.60950907)
(2108.501129 -114.6587459 -310.8582632)
(1443.412557 1092.82941 -135.111589)
(1819.475437 -68.64603107 -44.93474517)
(1780.127078 173.6895421 207.6670379)
(1704.975142 -496.4680034 296.0179832)
(1903.589477 -132.9311963 156.8172731)
(1429.798294 20.13209152 751.4605301)
(1025.21196 479.2654741 -8.734025985)
(1391.211167 -15.42911442 -104.0877297)
(1726.189756 67.36716992 -117.9847099)
(1620.334639 421.4982295 -54.57630177)
(2138.408488 61.899338 625.3110288)
(1376.179308 -243.81822 -745.3582872)
(1302.230068 8.722439773 576.1725399)
(1268.26983 -82.9806879 -248.103078)
(1665.806196 -169.6424427 290.9748903)
(1680.28606 -53.86277433 -118.0777664)
(2045.402225 -151.5568407 -310.5629193)
(1673.698734 -48.26172244 536.8760539)
(1909.717511 -157.1633697 399.9248303)
(1830.325059 -337.7240484 227.736176)
(1370.669199 73.84883695 58.56835414)
(1751.367021 355.7456335 -446.4760965)
(1281.991128 -513.1507864 41.08194856)
(955.7402078 850.0114187 715.2088232)
(1629.402472 35.25500092 -437.7074114)
(1526.182852 90.77754573 564.185405)
(2006.229942 -253.7853919 360.1898411)
(1124.106182 639.6599097 262.0092691)
(1617.795817 -140.6126683 50.06034742)
(1927.615658 -140.961156 60.00283532)
(1428.867629 -267.969248 -14.5627432)
(2342.74771 -124.8318584 -13.69397963)
(1591.145509 198.2689247 -118.5018095)
(644.3351486 -431.2480176 -196.8575829)
(1862.959093 111.8403648 142.4329843)
(977.0382136 797.1035605 -20.08244195)
(1669.57696 189.6471533 -316.0118609)
(1826.389281 230.3675093 -864.4747497)
(1834.108244 -193.5634218 -70.80929413)
(1683.758435 -86.36059366 75.7427827)
(1707.359362 60.0061015 -370.8680066)
(1490.21556 281.2746964 495.2237317)
(1096.593156 -339.0236036 -537.2532644)
(1931.351363 576.2186904 -118.3454197)
(1697.508174 452.7581032 -25.53620297)
(1724.483019 126.2353113 25.40780254)
(1932.88496 218.6328004 139.712328)
(1433.309548 -63.46997023 148.9378076)
(1278.023563 -300.2009172 -164.5131159)
(1908.768567 461.9697754 -386.110123)
(2025.445714 432.8786323 170.4665433)
(1939.434869 436.1278817 -706.9496041)
(1723.821053 -358.8887168 -884.9644314)
(1121.457229 438.8423125 639.753408)
(2823.402967 430.4913698 122.2510098)
(1975.401323 519.8943093 347.0262751)
(1157.469024 -63.41496427 -416.7678386)
(1889.299834 -534.9207514 521.4337556)
(1127.886467 -65.22403501 -37.88840988)
(1931.66095 101.4058699 476.9604934)
(1339.47683 -63.98221096 236.731199)
(1994.47733 177.2960495 -218.2517322)
(2085.957852 -40.40968244 -220.5852855)
(1456.141829 412.1059743 -546.2778769)
(1638.768531 1069.785483 -399.9121394)
(1547.291536 -122.8858983 -58.39551258)
(1266.327041 -213.3339609 157.8407121)
(1112.453962 -199.6155285 -295.1103629)
(1685.913791 468.4188209 -381.6633066)
(1567.048156 -31.20104586 -640.9978678)
(1665.267984 -36.86587425 22.5421633)
(1702.022364 -225.9384931 -252.3680267)
(1664.217875 345.7218697 500.5546869)
(1832.264472 265.8866253 513.3539989)
(1604.396144 -90.18211049 339.3967967)
(1711.215518 552.1048541 -163.3383373)
(1647.07497 150.2383039 507.4862918)
(1944.749671 209.0249978 88.9329817)
(937.3269181 322.5413154 199.7310347)
(1861.451363 672.4505753 -74.77981271)
(1405.985161 747.5674341 732.130363)
(1438.438786 -91.83061773 837.9977931)
(1360.601709 353.4356937 26.63776914)
(1659.800348 993.0589838 210.0190162)
(1269.025232 827.3811012 827.09365)
(1807.172211 345.2426799 -102.3789251)
(1531.923566 719.4219358 101.6796948)
(1537.268018 469.2079193 84.01661388)
(662.7982977 821.3567473 41.56403045)
(1305.55768 622.8154373 -210.3364182)
(2409.255233 561.7240777 -474.7418869)
(1296.544632 101.2854887 -608.1997753)
(1570.547764 62.1006725 764.7722337)
(1417.298281 68.0396712 262.6052398)
(1907.723401 -105.7915616 251.0075962)
(2059.38059 -122.9185108 322.9426403)
(2020.928877 868.8299513 -245.3847884)
(1791.322063 -315.6498616 611.6649152)
(1333.711018 -229.8808941 -687.6895203)
(1665.151659 22.01965452 -242.8489276)
(1724.754551 428.2845095 318.106928)
(1468.009188 24.96604197 -352.9128597)
(833.8479779 294.5593125 -69.41356658)
(1797.890432 599.7095766 -155.6304815)
(1289.180095 145.0094632 52.4100763)
(1723.50361 36.40667174 -984.8167673)
(833.2803558 1052.23527 -544.3390808)
(1261.712372 647.6392497 65.95323434)
(1648.63609 315.3804594 -23.4429424)
(1765.672433 -478.1934075 343.9801292)
(1479.027261 45.15408417 67.58536551)
(1924.306558 206.8784896 -168.8253471)
(813.5774309 590.1510081 249.7076896)
(708.4413008 788.160994 -412.2726908)
(1171.877375 593.5463535 1030.494884)
(1727.676528 -362.7883847 -121.4801564)
(1766.363745 -90.24699006 -2.834535763)
(1612.658361 -519.1445764 233.075495)
(1346.772742 824.9765514 500.7264311)
(1806.465701 -261.1305989 39.16680412)
(2244.325907 103.916602 364.407333)
(1414.828566 504.3199092 63.15757739)
(1453.309972 -85.59797345 357.2551566)
(1364.474143 296.1987654 727.0368988)
(1874.944962 170.2280633 100.9688331)
(1603.460133 147.6003381 -178.9085679)
(1550.742847 300.1770729 -405.3991971)
(1209.840563 738.2913323 -126.0329234)
(1371.708242 317.4738643 -381.3290025)
(2625.687686 1053.343583 -480.0291225)
(1829.74101 -224.5126798 29.19519003)
(1746.522631 198.8875578 -467.9064823)
(1897.17857 380.1596344 1064.436287)
(1903.592189 232.6995046 36.78406652)
(1603.183771 -135.1278867 282.218501)
(2068.420509 28.09947208 155.5541929)
(1395.88661 555.5359717 -44.23265466)
(1480.219848 -304.563509 296.2472246)
(1554.410264 335.7432974 237.0578692)
(993.4628139 -7.04217125 -349.251837)
(1492.559602 145.3313012 -240.9841192)
(1821.001825 -419.0073743 -50.01513569)
(1562.567151 -182.0297757 -18.83933713)
(770.4138432 -388.0023116 -377.1634997)
(1642.268702 17.90593201 -16.89503701)
(1587.711671 127.0092804 283.5904146)
(1284.631347 -73.4055234 248.0664021)
(1653.22777 225.5418938 -392.0400759)
(1411.811477 745.2686868 -354.270769)
(2014.29695 280.6397608 -777.7998646)
(1563.435301 -270.5331894 168.9401596)
(1536.449277 466.9262752 -629.7994919)
(892.1266056 823.4912789 205.7059962)
(1938.86468 17.78643615 -687.1745465)
(1297.69181 829.4244633 347.3003138)
(1626.958101 -708.0330043 351.4219431)
(1920.805218 -355.1642102 240.9567879)
(1631.328971 403.9027992 -500.2685409)
(1319.230157 -749.1342058 172.6000824)
(2271.958489 149.0908216 128.3188986)
(1561.499837 -165.1153466 50.59607091)
(2092.20959 -453.2700404 -274.3148845)
(1808.338424 354.0703238 614.1435823)
(1510.205013 -152.6424375 -77.64080228)
(1763.327494 -402.5394999 329.1597012)
(1447.913415 -202.0043496 -307.0153521)
(1748.242589 -245.1195989 -129.0699781)
(1920.956332 487.6140176 -162.9402499)
(1391.133842 55.67352474 382.5504652)
(685.4587665 -313.3794794 63.34055729)
(1089.940121 769.6865483 -575.7948438)
(1627.476422 -25.53137331 241.0824452)
(1703.812302 -47.58634416 285.8476024)
(1575.699449 118.0338612 -1138.272177)
(1171.661966 749.8373761 -463.100887)
(1534.429201 123.6741666 -105.8514731)