/*--------------------------------*- C++ -*----------------------------------*\
| =========                 |                                                 |
| \\      /  F ield         | OpenFOAM: The Open Source CFD Toolbox           |
|  \\    /   O peration     | Version:  2406                                  |
|   \\  /    A nd           | Website:  www.openfoam.com                      |
|    \\/     M anipulation  |                                                 |
\*---------------------------------------------------------------------------*/
FoamFile
{
    version     2.0;
    format      ascii;
    arch        "LSB;label=32;scalar=64";
    class       volScalarField;
    location    "0.003";
    object      dsmcRhoNMean;
}
// * * * * * * * * * * * * * * * * * * * * * * * * * * * * * * * * * * * * * //

dimensions      [0 -3 0 0 0 0 0];

internalField   nonuniform List<scalar> 
546
(
7.395333333
9.49
9.678
9.606
9.650666667
9.646
9.578
9.492
9.46
9.428
9.440666667
9.610666667
9.628666667
9.574666667
9.602
9.513333333
9.550666667
9.484666667
9.388666667
9.346
7.514666667
9.634666667
9.696666667
9.712
9.710666667
9.733333333
9.717333333
9.706
9.677333333
9.669333333
9.664666667
9.592
9.61
9.536666667
9.532666667
9.580666667
9.636
9.746
9.781333333
9.791333333
7.392
9.523333333
9.511333333
9.456
9.554666667
9.612666667
9.628
9.633333333
9.642666667
9.72
9.689333333
9.766
9.704666667
9.732666667
9.667333333
9.608
9.497333333
9.532666667
9.524666667
9.508
7.433333333
9.582666667
9.654
9.579333333
9.447333333
9.442
9.547333333
9.538666667
9.587333333
9.561333333
9.542666667
9.452
9.555333333
9.584666667
9.675333333
9.608
9.566666667
9.597333333
9.768
9.662
7.433333333
9.674
9.688
9.676
9.722666667
9.673333333
9.540666667
9.584666667
9.489333333
9.401333333
9.47
9.522666667
9.551333333
9.561333333
9.564
9.662
9.675333333
9.748666667
9.604666667
9.589333333
7.474666667
9.533333333
9.549333333
9.536666667
9.556666667
9.604
9.572666667
9.518666667
9.6
9.630666667
9.587333333
9.542666667
9.496
9.514666667
9.511333333
9.6
9.650666667
9.518666667
9.602666667
9.654
7.364666667
9.496666667
9.63
9.609333333
9.620666667
9.702
9.670666667
9.74
9.68
9.742
9.782666667
9.748
9.778666667
9.662
9.644666667
9.593333333
9.584
9.488666667
9.463333333
9.471333333
7.44
9.621333333
9.699333333
9.680666667
9.687333333
9.652666667
9.677333333
9.650666667
9.712666667
9.637333333
9.647333333
9.604
9.642
9.734666667
9.706
9.771333333
9.792666667
9.821333333
9.871333333
9.857333333
7.501333333
9.640666667
9.646
9.594
9.600666667
9.461333333
9.469333333
9.458
9.499333333
9.629333333
9.618666667
9.676666667
9.576666667
9.654666667
9.634666667
9.55
9.55
9.532666667
9.468
9.437333333
7.386666667
9.471333333
9.519333333
9.514
9.49
9.61
9.656666667
9.711333333
9.664
9.530666667
9.614666667
9.601333333
9.654666667
9.596
9.585333333
9.636
9.602666667
9.602
9.528666667
9.562666667
7.495333333
9.604666667
9.681333333
9.675333333
9.673333333
9.65
9.65
9.478666667
9.527333333
9.570666667
9.45
9.547333333
9.518
9.553333333
9.458
9.539333333
9.548666667
9.752666667
9.85
9.914666667
7.425333333
9.670666667
9.600666667
9.612
9.514666667
9.496
9.528
9.498
9.532666667
9.508666667
9.540666667
9.552
9.538
9.661333333
9.736
9.666666667
9.688666667
9.556666667
9.521333333
9.541333333
7.376666667
9.559333333
9.628666667
9.666666667
9.713333333
9.646666667
9.638666667
9.703333333
9.683333333
9.666
9.639333333
9.562666667
9.586
9.537333333
9.475333333
9.538666667
9.420666667
9.456666667
9.474666667
9.433333333
7.425333333
9.466
9.557333333
9.542666667
9.609333333
9.538
9.545333333
9.498
9.521333333
9.53
9.523333333
9.580666667
9.555333333
9.526
9.486
9.572
9.635333333
9.614
9.564666667
9.64
7.500666667
9.638
9.582
9.556
9.532666667
9.647333333
9.630666667
9.638666667
9.56
9.542
9.525333333
9.508666667
9.581333333
9.549333333
9.677333333
9.645333333
9.646
9.688666667
9.663333333
9.622666667
7.450666667
9.614666667
9.611333333
9.656
9.775333333
9.675333333
9.601333333
9.646
9.718
9.746666667
9.683333333
9.616666667
9.54
9.606666667
9.711333333
9.591333333
9.538666667
9.454666667
9.374666667
9.454666667
7.469333333
9.665333333
9.712666667
9.712666667
9.594
9.643333333
9.764
9.729333333
9.712666667
9.720666667
9.702
9.806
9.795333333
9.674
9.486
9.566666667
9.582666667
9.547333333
9.613333333
9.577333333
7.302
9.258
9.351333333
9.436666667
9.402
9.474
9.480666667
9.5
9.474666667
9.550666667
9.606666667
9.564666667
9.547333333
9.620666667
9.609333333
9.534
9.510666667
9.513333333
9.532
9.507333333
9.405333333
9.385333333
9.259333333
9.202666667
9.170666667
9.142
9.457333333
9.444666667
9.516
9.349333333
9.28
9.185333333
9.171333333
9.148666667
8.950666667
8.945333333
9.682666667
9.553333333
9.492666667
9.388
9.362666667
9.276666667
9.24
9.073333333
9.090666667
9.102
9.545333333
9.520666667
9.474
9.345333333
9.300666667
9.247333333
9.234666667
9.258
9.189333333
9.191333333
9.646666667
9.596666667
9.486
9.425333333
9.366
9.246
9.177333333
9.085333333
8.97
8.922666667
9.575333333
9.498666667
9.408
9.414666667
9.36
9.309333333
9.327333333
9.368666667
9.254
9.170666667
9.599333333
9.533333333
9.479333333
9.445333333
9.507333333
9.382
9.160666667
9.072666667
8.952666667
8.976
9.474666667
9.426
9.405333333
9.312
9.219333333
9.234
9.212666667
9.166
9.04
8.918666667
9.852
9.73
9.669333333
9.430666667
9.284666667
9.202666667
9.107333333
9.011333333
8.992
8.894
9.362
9.276
9.17
9.090666667
9.178666667
9.102666667
9.074666667
8.966666667
8.973333333
8.955333333
9.526
9.629333333
9.588666667
9.564
9.344666667
9.192
9.232666667
9.123333333
9.056666667
8.897333333
9.821333333
9.622666667
9.412
9.369333333
9.44
9.396
9.305333333
9.263333333
9.194666667
9.110666667
9.517333333
9.492
9.464
9.37
9.226
9.108
9.044
9.052666667
9.076666667
9.086666667
9.441333333
9.406666667
9.42
9.407333333
9.396666667
9.393333333
9.313333333
9.242666667
9.095333333
9.004666667
9.583333333
9.634
9.514666667
9.514666667
9.402666667
9.305333333
9.188
9.054
8.972
8.751333333
9.472666667
9.380666667
9.284666667
9.148666667
9.149333333
8.990666667
8.904666667
8.938
8.942
8.989333333
9.462666667
9.456
9.445333333
9.34
9.301333333
9.254666667
9.233333333
9.079333333
9.032
8.966
9.500666667
9.388666667
9.33
9.27
9.299333333
9.226
9.2
9.2
9.159333333
9.102
9.526666667
9.389333333
9.296
9.307333333
9.170666667
9.084666667
9.036
8.908
8.825333333
8.732
)
;

boundaryField
{
    flow
    {
        type            calculated;
        value           nonuniform List<scalar> 
48
(
7.395333333
7.514666667
7.392
7.433333333
7.433333333
7.474666667
7.364666667
7.44
7.501333333
7.386666667
7.495333333
7.425333333
7.376666667
7.425333333
7.500666667
7.450666667
7.469333333
7.302
7.302
9.258
9.351333333
9.436666667
9.402
9.474
9.480666667
9.5
9.474666667
9.550666667
9.606666667
9.564666667
9.547333333
9.620666667
9.609333333
9.534
9.510666667
9.513333333
9.532
9.507333333
9.526666667
9.389333333
9.296
9.307333333
9.170666667
9.084666667
9.036
8.908
8.825333333
8.732
)
;
    }
    obstacle
    {
        type            calculated;
        value           nonuniform List<scalar> 0();
    }
    frontAndBack
    {
        type            empty;
    }
    procBoundary2to0
    {
        type            processor;
        value           nonuniform List<scalar> 
31
(
7.375333333
9.490666667
9.490666667
9.373333333
9.42
9.377333333
9.485333333
9.627333333
9.652
9.683333333
9.594
9.570666667
9.544666667
9.524
9.527333333
9.559333333
9.528666667
9.529333333
9.640666667
9.6
9.361333333
9.241333333
9.133333333
9.106
9.166
9.070666667
9.612
9.47
9.365333333
9.341333333
9.341333333
)
;
    }
    procBoundary2to3
    {
        type            processor;
        value           nonuniform List<scalar> 
19
(
9.054666667
9.024
8.990666667
9.124
8.886666667
8.968
8.999333333
8.82
8.843333333
8.831333333
8.912
9.094666667
9.063333333
8.87
8.784
8.915333333
9.059333333
8.971333333
8.643333333
)
;
    }
}


// ************************************************************************* //
