/*--------------------------------*- C++ -*----------------------------------*\
| =========                 |                                                 |
| \\      /  F ield         | OpenFOAM: The Open Source CFD Toolbox           |
|  \\    /   O peration     | Version:  2406                                  |
|   \\  /    A nd           | Website:  www.openfoam.com                      |
|    \\/     M anipulation  |                                                 |
\*---------------------------------------------------------------------------*/
FoamFile
{
    version     2.0;
    format      ascii;
    arch        "LSB;label=32;scalar=64";
    class       volScalarField;
    location    "0.003";
    object      dsmcSigmaTcRMax;
}
// * * * * * * * * * * * * * * * * * * * * * * * * * * * * * * * * * * * * * //

dimensions      [0 3 -1 0 0 0 0];

internalField   nonuniform List<scalar> 
546
(
5.808734642e-16
5.640759853e-16
5.432848156e-16
6.059135872e-16
5.937390646e-16
5.950918012e-16
5.721091098e-16
5.912450245e-16
6.233426551e-16
6.059036725e-16
6.042312761e-16
5.914719671e-16
6.254698482e-16
6.084517887e-16
5.791647383e-16
5.570193897e-16
6.183894279e-16
7.249864719e-16
6.674069471e-16
5.577600849e-16
5.681360122e-16
5.625805317e-16
6.481570351e-16
5.857753487e-16
5.960330708e-16
5.73212681e-16
5.821940199e-16
5.676973264e-16
6.446257897e-16
6.081616634e-16
5.915429986e-16
5.856768912e-16
5.417280522e-16
5.847059896e-16
5.592788875e-16
5.856757162e-16
5.668831353e-16
5.682051085e-16
6.680235802e-16
6.533038172e-16
6.127539838e-16
5.930147804e-16
6.338217434e-16
6.493361007e-16
6.00223564e-16
6.248064259e-16
5.921131742e-16
6.024462993e-16
5.728778407e-16
6.856286553e-16
5.826893668e-16
6.525319323e-16
6.180212237e-16
6.157541755e-16
5.981060947e-16
6.132909789e-16
6.179270809e-16
5.481101896e-16
6.79104779e-16
5.717635755e-16
6.05007048e-16
6.106073124e-16
6.000033464e-16
5.717469945e-16
5.756614184e-16
5.558186113e-16
5.897250941e-16
5.881983159e-16
6.13250059e-16
5.579720648e-16
5.442276244e-16
6.769394982e-16
6.523124804e-16
5.829223736e-16
5.769711256e-16
5.807520202e-16
6.066508345e-16
6.022846312e-16
5.863491843e-16
5.908901417e-16
5.550721488e-16
5.783946688e-16
5.999807023e-16
5.933106904e-16
6.202094219e-16
6.289397081e-16
5.811522486e-16
6.227415767e-16
6.274589273e-16
5.726803986e-16
5.604272145e-16
5.993433114e-16
5.522372873e-16
5.981926187e-16
6.010961051e-16
6.055015778e-16
6.053483839e-16
6.81747623e-16
5.89494273e-16
5.676319922e-16
5.984113596e-16
6.005265503e-16
5.806516893e-16
5.99040522e-16
6.225286293e-16
5.916905634e-16
6.164981598e-16
5.629348408e-16
5.980451292e-16
5.609228608e-16
6.08550518e-16
5.972850825e-16
6.036022528e-16
7.107946559e-16
5.695756843e-16
5.888888185e-16
6.968197028e-16
6.244888917e-16
5.59530192e-16
5.72085403e-16
6.055103871e-16
5.548125871e-16
5.328913809e-16
5.776329124e-16
5.631388523e-16
5.577263608e-16
6.023093409e-16
6.009551523e-16
6.14127054e-16
6.323754651e-16
5.618478543e-16
5.956699396e-16
5.980563137e-16
5.981783082e-16
5.580457954e-16
5.836026359e-16
5.996820419e-16
6.028841099e-16
6.785880491e-16
6.248913565e-16
5.739786227e-16
5.766146698e-16
5.554877229e-16
6.134164622e-16
6.776048372e-16
5.621106845e-16
5.624845322e-16
6.023969077e-16
5.771589881e-16
5.677606365e-16
5.629873304e-16
5.709522783e-16
5.967312403e-16
5.814218171e-16
6.260850475e-16
5.858933099e-16
6.327369519e-16
5.980209513e-16
5.720765707e-16
5.76505054e-16
5.809247898e-16
5.990742332e-16
6.174566729e-16
5.91517801e-16
6.038108305e-16
6.081264069e-16
5.76736952e-16
5.88173507e-16
5.916014635e-16
5.599874977e-16
5.511118023e-16
5.800192339e-16
6.045649526e-16
6.268195274e-16
5.882675345e-16
5.664544798e-16
5.948738939e-16
5.936941807e-16
6.044891481e-16
5.687149978e-16
6.470097481e-16
5.74748244e-16
6.367964024e-16
6.284305609e-16
5.745873416e-16
6.282878779e-16
6.086256757e-16
5.800229799e-16
6.044740867e-16
5.467789999e-16
6.478639704e-16
5.787983426e-16
5.748335212e-16
6.007433083e-16
5.718898626e-16
5.681796476e-16
5.598385205e-16
5.653896395e-16
6.252554368e-16
5.86077856e-16
6.340793993e-16
6.138135621e-16
5.580063237e-16
6.142929935e-16
6.492566611e-16
5.974703629e-16
5.907329944e-16
5.643243187e-16
5.779300726e-16
5.965380472e-16
5.3584452e-16
5.685214898e-16
5.87709958e-16
5.948844746e-16
6.066383001e-16
5.766580694e-16
5.950711579e-16
5.946954053e-16
5.621178547e-16
5.92182448e-16
6.009809769e-16
5.982786795e-16
5.709922131e-16
5.784383937e-16
5.65795319e-16
6.093211551e-16
5.824596915e-16
6.008301077e-16
5.638486755e-16
6.021150193e-16
5.490088389e-16
5.656352336e-16
6.018419344e-16
5.740943411e-16
6.33329162e-16
6.12206659e-16
6.301490628e-16
6.284773328e-16
5.73490754e-16
5.852411675e-16
5.618595558e-16
5.745183755e-16
5.657213617e-16
5.907175515e-16
6.133431861e-16
5.781403449e-16
6.092375498e-16
5.49406761e-16
5.742475563e-16
6.25846442e-16
6.140631038e-16
5.751494434e-16
5.803155956e-16
5.79014208e-16
5.671839858e-16
5.90069934e-16
5.85283745e-16
5.639509935e-16
5.801750745e-16
5.496731502e-16
5.996016312e-16
5.759346677e-16
5.753605644e-16
5.996912119e-16
6.166998594e-16
6.045535253e-16
6.441612624e-16
5.856665849e-16
6.054497437e-16
5.616198432e-16
6.214169312e-16
6.239121504e-16
5.949811666e-16
5.676841843e-16
5.900627978e-16
5.910915517e-16
5.709479311e-16
5.753460942e-16
5.868512052e-16
5.67805397e-16
5.726320199e-16
6.281817853e-16
6.329719843e-16
5.779325987e-16
6.168199455e-16
5.980687008e-16
6.244201309e-16
6.600193041e-16
6.067084526e-16
5.824264581e-16
5.743081608e-16
6.265894065e-16
5.732837891e-16
6.452949496e-16
5.819538454e-16
6.145623605e-16
5.826445955e-16
6.201717658e-16
5.969935927e-16
5.990049183e-16
6.041943292e-16
6.012484166e-16
5.720522421e-16
5.837996519e-16
6.070161908e-16
6.087369975e-16
6.032103335e-16
6.186591093e-16
6.49546218e-16
6.371584236e-16
6.424359617e-16
5.599741432e-16
5.894226289e-16
6.239478525e-16
5.694089318e-16
5.678503997e-16
5.64355868e-16
5.638654071e-16
6.063695823e-16
5.636352465e-16
5.649829604e-16
6.161903563e-16
5.985524787e-16
6.022700362e-16
6.12552904e-16
5.829018794e-16
6.153465575e-16
5.754078136e-16
5.933982425e-16
5.48932179e-16
6.508073523e-16
5.848566026e-16
5.836983859e-16
5.684613955e-16
5.896615185e-16
5.771688651e-16
5.887365971e-16
6.006340312e-16
5.727225478e-16
5.581103779e-16
5.677857018e-16
5.545275854e-16
5.867551844e-16
5.863201696e-16
6.361384996e-16
6.085991561e-16
5.602386195e-16
5.934425012e-16
5.980571504e-16
5.649220009e-16
5.531473676e-16
5.768824813e-16
5.949560248e-16
6.006489375e-16
6.067492796e-16
5.661510694e-16
5.543140699e-16
5.685787988e-16
5.73800413e-16
5.386135686e-16
5.854813129e-16
6.659051421e-16
6.0273059e-16
6.549564637e-16
6.610674486e-16
6.553724077e-16
6.092597706e-16
6.175220492e-16
5.810054625e-16
6.222574966e-16
6.232136264e-16
6.597859251e-16
6.801209875e-16
6.42916433e-16
6.206959125e-16
6.930314524e-16
6.389576525e-16
6.079363304e-16
5.897103379e-16
5.732558562e-16
6.605560592e-16
6.726955921e-16
6.42284745e-16
6.62021593e-16
6.094470653e-16
6.355903735e-16
6.368932942e-16
6.585925071e-16
6.362384589e-16
5.383338117e-16
5.837897884e-16
5.712091173e-16
5.922236717e-16
6.457319294e-16
6.993905055e-16
6.128112124e-16
5.76024621e-16
6.430900368e-16
6.897778284e-16
5.746819666e-16
5.940179223e-16
6.261407011e-16
7.377503329e-16
6.620925029e-16
5.958519193e-16
8.138014578e-16
5.917313083e-16
6.055212876e-16
5.954780725e-16
6.283580514e-16
5.836101044e-16
6.098833449e-16
5.94620272e-16
6.359387141e-16
6.765524491e-16
5.862474061e-16
6.119865887e-16
5.65648247e-16
6.017344096e-16
5.424775968e-16
6.809855213e-16
6.050802836e-16
6.872742781e-16
5.959321153e-16
5.555664544e-16
5.437654385e-16
7.044039662e-16
5.899587039e-16
6.146476172e-16
5.962375328e-16
6.574836424e-16
6.459117453e-16
5.88287722e-16
6.075819138e-16
6.229317448e-16
5.843099207e-16
5.732963419e-16
6.081872828e-16
5.718112993e-16
5.724065966e-16
5.815101921e-16
6.282508959e-16
6.292105318e-16
6.801638994e-16
5.849762732e-16
6.014207267e-16
6.073556972e-16
5.913334531e-16
6.040863327e-16
5.903480222e-16
7.39745771e-16
5.930056645e-16
5.816991035e-16
5.662965491e-16
5.62447357e-16
5.958687047e-16
6.23757113e-16
5.731736303e-16
6.189740952e-16
5.786970095e-16
5.959916371e-16
5.960163507e-16
5.709675098e-16
5.841346265e-16
5.695391359e-16
6.261642539e-16
5.703848253e-16
6.032873522e-16
5.672613836e-16
6.01385998e-16
6.0944548e-16
5.906002674e-16
5.648531226e-16
5.915223011e-16
5.79255213e-16
6.586513849e-16
5.766196694e-16
5.69589935e-16
6.056285513e-16
5.705117349e-16
5.641518104e-16
5.67285936e-16
5.891371878e-16
6.202272058e-16
5.850294183e-16
5.675495935e-16
6.118619638e-16
5.780338308e-16
5.542827164e-16
6.234916998e-16
6.256873684e-16
5.719060061e-16
5.699433032e-16
6.696141274e-16
5.610154794e-16
5.75415477e-16
5.897629107e-16
5.965758027e-16
6.506976638e-16
5.60150659e-16
6.163490602e-16
5.610275044e-16
5.764739662e-16
5.903918933e-16
5.628349771e-16
5.805987508e-16
6.289762116e-16
5.923006985e-16
5.848615254e-16
6.261081196e-16
5.752493923e-16
6.026304975e-16
5.594220588e-16
5.697085145e-16
5.982818654e-16
5.930087405e-16
5.863534239e-16
5.708870502e-16
5.805480594e-16
6.533127605e-16
6.010533558e-16
5.485196386e-16
5.763075051e-16
6.18087331e-16
6.258460198e-16
6.048617585e-16
5.611215279e-16
6.172253356e-16
5.483339942e-16
5.831460113e-16
6.011185369e-16
5.662713222e-16
6.023727029e-16
5.779317832e-16
6.324685498e-16
6.049944151e-16
5.828862811e-16
5.934151203e-16
5.882257774e-16
5.862294895e-16
6.177127366e-16
6.682650626e-16
6.051941589e-16
6.011023813e-16
5.539988021e-16
6.047924544e-16
)
;

boundaryField
{
    flow
    {
        type            zeroGradient;
    }
    obstacle
    {
        type            zeroGradient;
    }
    frontAndBack
    {
        type            empty;
    }
    procBoundary2to0
    {
        type            processor;
        value           nonuniform List<scalar> 
31
(
5.568132691e-16
5.894371637e-16
6.251922248e-16
6.042668291e-16
5.376879064e-16
5.853279503e-16
5.98409612e-16
6.033673745e-16
5.786348352e-16
5.944463972e-16
5.864542384e-16
5.755553466e-16
7.457437284e-16
6.374126035e-16
6.87295892e-16
6.092778192e-16
5.721152807e-16
6.584704632e-16
5.625722006e-16
7.089255215e-16
7.941713625e-16
6.271007046e-16
6.342162608e-16
6.005376036e-16
6.530925618e-16
7.494816948e-16
5.748007647e-16
6.998634201e-16
6.998634201e-16
6.005756405e-16
6.005756405e-16
)
;
    }
    procBoundary2to3
    {
        type            processor;
        value           nonuniform List<scalar> 
19
(
6.847267215e-16
7.914683143e-16
7.337702345e-16
5.701275435e-16
6.062148316e-16
5.7512219e-16
7.099477119e-16
5.977737896e-16
5.849488958e-16
6.358749212e-16
6.072398871e-16
6.30590047e-16
5.944166357e-16
5.74208551e-16
5.783149427e-16
5.703019974e-16
5.892368893e-16
5.846818725e-16
5.781621167e-16
)
;
    }
}


// ************************************************************************* //
