/*--------------------------------*- C++ -*----------------------------------*\
| =========                 |                                                 |
| \\      /  F ield         | OpenFOAM: The Open Source CFD Toolbox           |
|  \\    /   O peration     | Version:  2406                                  |
|   \\  /    A nd           | Website:  www.openfoam.com                      |
|    \\/     M anipulation  |                                                 |
\*---------------------------------------------------------------------------*/
FoamFile
{
    version     2.0;
    format      ascii;
    arch        "LSB;label=32;scalar=64";
    class       volScalarField;
    location    "0.003";
    object      iDof;
}
// * * * * * * * * * * * * * * * * * * * * * * * * * * * * * * * * * * * * * //

dimensions      [0 -3 0 0 0 0 0];

internalField   nonuniform List<scalar> 
546
(
1.666239693e+20
2.082799616e+20
1.666239693e+20
1.874519654e+20
1.666239693e+20
2.291079578e+20
2.291079578e+20
2.082799616e+20
2.499359539e+20
1.666239693e+20
2.082799616e+20
3.540759347e+20
2.291079578e+20
3.95731927e+20
3.124199424e+20
2.291079578e+20
2.707639501e+20
1.874519654e+20
1.666239693e+20
1.666239693e+20
1.666239693e+20
2.082799616e+20
2.707639501e+20
1.666239693e+20
2.082799616e+20
2.707639501e+20
2.291079578e+20
1.874519654e+20
3.749039309e+20
2.291079578e+20
2.082799616e+20
1.666239693e+20
2.291079578e+20
2.291079578e+20
2.291079578e+20
1.457959731e+20
2.291079578e+20
2.082799616e+20
4.373879193e+20
2.291079578e+20
1.24967977e+20
2.499359539e+20
1.457959731e+20
2.082799616e+20
2.082799616e+20
2.082799616e+20
2.082799616e+20
2.082799616e+20
6.248398848e+19
1.457959731e+20
2.291079578e+20
2.082799616e+20
1.666239693e+20
2.499359539e+20
2.915919462e+20
2.291079578e+20
1.666239693e+20
1.874519654e+20
2.499359539e+20
1.666239693e+20
1.874519654e+20
1.041399808e+20
2.707639501e+20
1.666239693e+20
1.24967977e+20
1.666239693e+20
2.291079578e+20
1.24967977e+20
1.666239693e+20
2.082799616e+20
1.874519654e+20
1.666239693e+20
1.874519654e+20
1.24967977e+20
1.24967977e+20
1.457959731e+20
1.457959731e+20
2.499359539e+20
2.499359539e+20
2.082799616e+20
1.666239693e+20
2.499359539e+20
2.082799616e+20
2.707639501e+20
2.082799616e+20
1.457959731e+20
1.666239693e+20
2.291079578e+20
1.666239693e+20
1.041399808e+20
1.874519654e+20
1.666239693e+20
1.874519654e+20
1.874519654e+20
1.874519654e+20
1.24967977e+20
1.666239693e+20
3.332479385e+20
1.666239693e+20
2.499359539e+20
1.24967977e+20
1.874519654e+20
2.499359539e+20
1.457959731e+20
2.915919462e+20
2.291079578e+20
2.082799616e+20
2.082799616e+20
1.666239693e+20
1.874519654e+20
3.332479385e+20
1.457959731e+20
1.874519654e+20
1.666239693e+20
2.499359539e+20
2.707639501e+20
1.666239693e+20
1.457959731e+20
1.457959731e+20
1.874519654e+20
1.041399808e+20
2.499359539e+20
1.457959731e+20
1.041399808e+20
2.291079578e+20
2.915919462e+20
1.457959731e+20
1.874519654e+20
1.457959731e+20
1.457959731e+20
2.291079578e+20
2.499359539e+20
1.457959731e+20
1.666239693e+20
1.874519654e+20
2.082799616e+20
2.499359539e+20
2.082799616e+20
3.124199424e+20
2.499359539e+20
1.24967977e+20
1.24967977e+20
1.874519654e+20
3.332479385e+20
2.082799616e+20
2.291079578e+20
1.874519654e+20
2.915919462e+20
8.331198464e+19
2.707639501e+20
1.874519654e+20
2.291079578e+20
1.666239693e+20
1.666239693e+20
2.499359539e+20
2.499359539e+20
2.291079578e+20
2.707639501e+20
1.457959731e+20
1.874519654e+20
1.24967977e+20
2.499359539e+20
2.499359539e+20
1.874519654e+20
1.24967977e+20
1.24967977e+20
2.082799616e+20
1.666239693e+20
2.291079578e+20
2.291079578e+20
1.666239693e+20
2.499359539e+20
2.915919462e+20
1.874519654e+20
1.874519654e+20
1.666239693e+20
1.041399808e+20
1.457959731e+20
2.291079578e+20
2.082799616e+20
1.874519654e+20
2.499359539e+20
1.24967977e+20
1.874519654e+20
2.915919462e+20
1.457959731e+20
2.499359539e+20
3.332479385e+20
2.707639501e+20
2.499359539e+20
1.457959731e+20
1.666239693e+20
3.124199424e+20
1.24967977e+20
2.291079578e+20
1.041399808e+20
8.331198464e+19
6.248398848e+19
2.915919462e+20
4.165599232e+19
1.874519654e+20
1.666239693e+20
1.666239693e+20
1.24967977e+20
1.457959731e+20
1.041399808e+20
2.082799616e+20
1.874519654e+20
1.874519654e+20
2.707639501e+20
8.331198464e+19
1.457959731e+20
1.24967977e+20
2.707639501e+20
1.874519654e+20
1.874519654e+20
2.082799616e+20
2.915919462e+20
2.915919462e+20
2.082799616e+20
1.24967977e+20
1.874519654e+20
2.707639501e+20
1.874519654e+20
1.874519654e+20
2.291079578e+20
3.332479385e+20
2.082799616e+20
1.874519654e+20
2.499359539e+20
1.041399808e+20
1.457959731e+20
2.499359539e+20
1.874519654e+20
2.291079578e+20
2.082799616e+20
1.874519654e+20
8.331198464e+19
2.291079578e+20
8.331198464e+19
1.874519654e+20
1.666239693e+20
2.082799616e+20
1.874519654e+20
1.457959731e+20
1.24967977e+20
2.082799616e+20
2.082799616e+20
1.24967977e+20
1.874519654e+20
1.24967977e+20
1.874519654e+20
1.24967977e+20
2.291079578e+20
1.24967977e+20
1.666239693e+20
1.874519654e+20
1.666239693e+20
1.24967977e+20
2.082799616e+20
1.666239693e+20
2.291079578e+20
1.666239693e+20
1.874519654e+20
1.666239693e+20
2.082799616e+20
2.082799616e+20
2.915919462e+20
2.499359539e+20
2.082799616e+20
1.457959731e+20
3.332479385e+20
1.666239693e+20
1.874519654e+20
2.291079578e+20
2.291079578e+20
1.457959731e+20
2.915919462e+20
2.291079578e+20
3.95731927e+20
1.666239693e+20
2.291079578e+20
2.291079578e+20
1.666239693e+20
2.707639501e+20
2.915919462e+20
1.24967977e+20
3.124199424e+20
2.499359539e+20
2.082799616e+20
1.041399808e+20
1.24967977e+20
2.707639501e+20
4.165599232e+19
1.874519654e+20
1.666239693e+20
2.082799616e+20
1.457959731e+20
2.082799616e+20
3.332479385e+20
1.457959731e+20
2.291079578e+20
1.666239693e+20
2.291079578e+20
1.874519654e+20
2.291079578e+20
1.874519654e+20
1.457959731e+20
1.666239693e+20
1.666239693e+20
3.124199424e+20
2.707639501e+20
2.707639501e+20
2.291079578e+20
2.082799616e+20
1.457959731e+20
1.874519654e+20
1.874519654e+20
8.331198464e+19
1.457959731e+20
1.24967977e+20
2.291079578e+20
1.874519654e+20
1.457959731e+20
1.666239693e+20
2.499359539e+20
2.082799616e+20
1.457959731e+20
2.291079578e+20
2.082799616e+20
2.499359539e+20
1.457959731e+20
1.874519654e+20
1.666239693e+20
1.457959731e+20
1.041399808e+20
1.457959731e+20
2.291079578e+20
1.874519654e+20
2.499359539e+20
1.457959731e+20
1.874519654e+20
2.915919462e+20
1.666239693e+20
1.041399808e+20
2.082799616e+20
2.707639501e+20
3.332479385e+20
1.457959731e+20
3.124199424e+20
2.082799616e+20
1.874519654e+20
1.457959731e+20
2.915919462e+20
1.666239693e+20
2.499359539e+20
2.082799616e+20
2.291079578e+20
1.24967977e+20
1.874519654e+20
2.793551809e+20
2.81330383e+20
3.269235179e+20
1.975609287e+20
1.547685003e+20
1.781653177e+20
2.299204329e+20
1.473190672e+20
1.48339062e+20
1.280342396e+20
2.578663208e+20
4.328159738e+19
1.525643094e+20
1.756097144e+20
1.326587136e+20
1.781653177e+20
1.881167191e+20
2.104558102e+20
3.602520076e+20
1.280342396e+20
1.074442996e+20
2.380487872e+20
1.743592108e+20
2.414633573e+20
2.432076433e+20
3.117893059e+20
1.881167178e+20
8.418232409e+19
2.966781239e+20
2.133903993e+20
2.148886007e+20
1.298447921e+20
1.089745067e+20
1.756097156e+20
1.989880704e+20
2.004359809e+20
1.881167178e+20
6.313674264e+19
1.907216511e+20
3.414246413e+20
1.933997406e+20
1.947671882e+20
1.961541108e+20
2.634145697e+20
1.547684992e+20
2.672479765e+20
1.672148603e+20
2.104558088e+20
1.271477674e+20
2.133904008e+20
2.148886007e+20
2.596895843e+20
1.961541121e+20
1.975609301e+20
2.432076433e+20
2.227066471e+20
2.090185754e+20
2.104558102e+20
1.695303565e+20
2.133903993e+20
2.578663208e+20
2.164079884e+20
1.961541121e+20
1.536585001e+20
2.210978576e+20
1.558946541e+20
2.508222921e+20
2.735925533e+20
2.966781239e+20
2.347294409e+20
2.578663208e+20
2.81330383e+20
1.743592108e+20
3.512194288e+20
3.095369984e+20
3.340599706e+20
1.463130028e+20
2.104558102e+20
2.542955365e+20
1.066952004e+20
1.289331604e+20
1.731263895e+20
1.307694072e+20
2.414633573e+20
1.989880718e+20
1.336239882e+20
8.360743015e+19
2.315013897e+20
1.271477665e+20
3.414246366e+20
1.289331595e+20
2.164079884e+20
1.089745075e+20
1.756097156e+20
2.432076433e+20
1.55894653e+20
1.254111452e+20
2.946381343e+20
3.178694206e+20
1.280342405e+20
2.363774624e+20
2.380487872e+20
1.961541108e+20
1.097560707e+20
2.874272128e+20
8.908265883e+19
1.881167191e+20
2.735925533e+20
2.754868294e+20
8.535616032e+19
3.653106212e+20
1.514855908e+20
1.525643094e+20
3.073170023e+20
1.768782861e+20
2.227066471e+20
2.71724148e+20
2.104558088e+20
1.907216498e+20
1.280342396e+20
1.933997406e+20
1.298447921e+20
2.397439131e+20
1.097560715e+20
6.632935727e+19
2.227066471e+20
1.672148603e+20
8.418232409e+19
1.271477683e+20
1.707123206e+20
2.793551809e+20
1.731263907e+20
1.74359212e+20
2.195121445e+20
1.547684992e+20
1.781653164e+20
2.299204329e+20
2.104558088e+20
1.48339061e+20
1.280342396e+20
2.363774608e+20
2.164079869e+20
2.397439131e+20
2.634145697e+20
6.63293568e+19
2.227066487e+20
2.71724148e+20
2.104558102e+20
1.907216524e+20
1.707123195e+20
1.933997393e+20
2.380487856e+20
2.833337175e+20
1.975609301e+20
1.989880718e+20
2.672479765e+20
2.299204345e+20
2.315013913e+20
2.542955348e+20
1.066952004e+20
1.289331604e+20
2.380487856e+20
3.487184191e+20
1.975609287e+20
1.768782861e+20
2.449773118e+20
1.881167178e+20
2.315013913e+20
1.695303565e+20
2.347294393e+20
1.504220205e+20
2.380487872e+20
2.833337195e+20
1.536585001e+20
1.768782848e+20
8.908265883e+19
1.881167178e+20
1.894102279e+20
8.476517826e+19
1.920513607e+20
2.148886007e+20
1.514855908e+20
1.743592096e+20
3.731706431e+20
1.105489288e+20
2.004359824e+20
)
;

boundaryField
{
    flow
    {
        type            zeroGradient;
    }
    obstacle
    {
        type            calculated;
        value           nonuniform List<scalar> 0();
    }
    frontAndBack
    {
        type            empty;
    }
    procBoundary2to0
    {
        type            processor;
        value           nonuniform List<scalar> 
31
(
1.457959731e+20
2.291079578e+20
2.291079578e+20
1.666239693e+20
2.915919462e+20
2.499359539e+20
1.874519654e+20
1.666239693e+20
1.24967977e+20
2.082799616e+20
8.331198464e+19
1.666239693e+20
1.666239693e+20
2.082799616e+20
1.24967977e+20
3.540759347e+20
2.082799616e+20
2.499359539e+20
2.915919462e+20
1.874519654e+20
3.00844041e+20
1.947671882e+20
2.833337175e+20
3.292682168e+20
2.874272148e+20
1.55894653e+20
1.672148603e+20
2.735925515e+20
2.331042402e+20
1.280342405e+20
1.280342405e+20
)
;
    }
    procBoundary2to3
    {
        type            processor;
        value           nonuniform List<scalar> 
19
(
8.973560819e+19
1.346034123e+20
2.019051199e+20
2.019051184e+20
1.570373143e+20
2.243390221e+20
1.570373155e+20
2.019051184e+20
1.346034132e+20
1.794712164e+20
3.140746287e+20
2.019051199e+20
2.019051184e+20
3.140746287e+20
1.121695118e+20
1.346034123e+20
1.121695102e+20
2.467729243e+20
2.019051184e+20
)
;
    }
}


// ************************************************************************* //
