/*--------------------------------*- C++ -*----------------------------------*\
| =========                 |                                                 |
| \\      /  F ield         | OpenFOAM: The Open Source CFD Toolbox           |
|  \\    /   O peration     | Version:  2406                                  |
|   \\  /    A nd           | Website:  www.openfoam.com                      |
|    \\/     M anipulation  |                                                 |
\*---------------------------------------------------------------------------*/
FoamFile
{
    version     2.0;
    format      ascii;
    arch        "LSB;label=32;scalar=64";
    class       volScalarField;
    location    "0.003";
    object      iDofMean;
}
// * * * * * * * * * * * * * * * * * * * * * * * * * * * * * * * * * * * * * //

dimensions      [0 -3 0 0 0 0 0];

internalField   nonuniform List<scalar> 
546
(
1.540299743e+20
1.976576836e+20
2.015733468e+20
2.000737311e+20
2.010040483e+20
2.00906851e+20
1.994905472e+20
1.976993395e+20
1.970328437e+20
1.963663478e+20
1.966301691e+20
2.001709284e+20
2.005458324e+20
1.994211206e+20
1.999904191e+20
1.981436701e+20
1.989212487e+20
1.975466009e+20
1.955471133e+20
1.946584521e+20
1.565154485e+20
2.006708003e+20
2.019621361e+20
2.022814987e+20
2.02253728e+20
2.027258293e+20
2.023925813e+20
2.021565307e+20
2.015594615e+20
2.013928375e+20
2.012956402e+20
1.997821392e+20
2.001570431e+20
1.986296567e+20
1.985463447e+20
1.995460885e+20
2.00698571e+20
2.029896506e+20
2.037255731e+20
2.039338531e+20
1.539605476e+20
1.983519501e+20
1.981020141e+20
1.969495317e+20
1.990045606e+20
2.002125844e+20
2.00531947e+20
2.006430297e+20
2.008374243e+20
2.024481227e+20
2.018093975e+20
2.034062105e+20
2.021287601e+20
2.02711944e+20
2.013511815e+20
2.001153871e+20
1.978104222e+20
1.985463447e+20
1.983797208e+20
1.980325875e+20
1.548214381e+20
1.995877445e+20
2.010734749e+20
1.995183179e+20
1.967690224e+20
1.966579397e+20
1.98851822e+20
1.986713127e+20
1.996849418e+20
1.991434139e+20
1.987546247e+20
1.968662197e+20
1.99018446e+20
1.996294005e+20
2.015178055e+20
2.001153871e+20
1.992544966e+20
1.998932218e+20
2.034478665e+20
2.012400989e+20
1.548214381e+20
2.014900348e+20
2.017816268e+20
2.015316908e+20
2.02503664e+20
2.014761495e+20
1.987129687e+20
1.996294005e+20
1.976437982e+20
1.958109346e+20
1.972411236e+20
1.983380648e+20
1.98935134e+20
1.991434139e+20
1.991989553e+20
2.012400989e+20
2.015178055e+20
2.030451919e+20
2.000459604e+20
1.997265978e+20
1.556823286e+20
1.985602301e+20
1.98893478e+20
1.986296567e+20
1.990462166e+20
2.000320751e+20
1.993794646e+20
1.982547528e+20
1.999487631e+20
2.005874883e+20
1.996849418e+20
1.987546247e+20
1.977826515e+20
1.981714408e+20
1.981020141e+20
1.999487631e+20
2.010040483e+20
1.982547528e+20
2.000043045e+20
2.010734749e+20
1.53391249e+20
1.977965369e+20
2.00573603e+20
2.001431578e+20
2.003792084e+20
2.020732187e+20
2.014206082e+20
2.028646826e+20
2.016150028e+20
2.029063386e+20
2.037533438e+20
2.030313066e+20
2.036700318e+20
2.012400989e+20
2.008790803e+20
1.998099098e+20
1.996155152e+20
1.976299129e+20
1.971022703e+20
1.972688943e+20
1.549602914e+20
2.003930937e+20
2.020176774e+20
2.016288882e+20
2.017677415e+20
2.010457043e+20
2.015594615e+20
2.010040483e+20
2.02295384e+20
2.007263417e+20
2.009346216e+20
2.000320751e+20
2.00823539e+20
2.027535999e+20
2.021565307e+20
2.035172931e+20
2.039616237e+20
2.045586929e+20
2.056000928e+20
2.053085008e+20
1.562377419e+20
2.007957683e+20
2.00906851e+20
1.998237952e+20
1.999626485e+20
1.970606143e+20
1.972272383e+20
1.969911877e+20
1.978520782e+20
2.005597177e+20
2.003375524e+20
2.015455762e+20
1.994627766e+20
2.010873603e+20
2.006708003e+20
1.989073633e+20
1.989073633e+20
1.985463447e+20
1.971994676e+20
1.965607424e+20
1.53849465e+20
1.972688943e+20
1.982686381e+20
1.981575555e+20
1.976576836e+20
2.001570431e+20
2.011290162e+20
2.022676134e+20
2.012817549e+20
1.985046887e+20
2.002542404e+20
1.999765338e+20
2.010873603e+20
1.998654511e+20
1.996432859e+20
2.00698571e+20
2.000043045e+20
1.999904191e+20
1.984630327e+20
1.991711846e+20
1.561127739e+20
2.000459604e+20
2.016427735e+20
2.015178055e+20
2.014761495e+20
2.009901629e+20
2.009901629e+20
1.974216329e+20
1.984352621e+20
1.993378086e+20
1.968245637e+20
1.98851822e+20
1.982408674e+20
1.9897679e+20
1.969911877e+20
1.98685198e+20
1.988795927e+20
2.031285039e+20
2.051557622e+20
2.065026393e+20
1.546548141e+20
2.014206082e+20
1.999626485e+20
2.001986991e+20
1.981714408e+20
1.977826515e+20
1.984491474e+20
1.978243075e+20
1.985463447e+20
1.980464728e+20
1.987129687e+20
1.989490193e+20
1.986574274e+20
2.012262136e+20
2.027813706e+20
2.013372962e+20
2.017955121e+20
1.990462166e+20
1.983102941e+20
1.98726854e+20
1.53641185e+20
1.99101758e+20
2.005458324e+20
2.013372962e+20
2.023092694e+20
2.009207363e+20
2.007541123e+20
2.021009894e+20
2.016844295e+20
2.013234109e+20
2.007679976e+20
1.991711846e+20
1.996571712e+20
1.98643542e+20
1.973522063e+20
1.986713127e+20
1.962136092e+20
1.96963417e+20
1.973383209e+20
1.964774304e+20
1.546548141e+20
1.971578116e+20
1.99060102e+20
1.987546247e+20
2.001431578e+20
1.986574274e+20
1.98810166e+20
1.978243075e+20
1.983102941e+20
1.984908034e+20
1.983519501e+20
1.995460885e+20
1.99018446e+20
1.984074914e+20
1.975743716e+20
1.993655792e+20
2.006846857e+20
2.002403551e+20
1.992128406e+20
2.00781883e+20
1.562238565e+20
2.00740227e+20
1.995738592e+20
1.990323313e+20
1.985463447e+20
2.009346216e+20
2.005874883e+20
2.007541123e+20
1.991156433e+20
1.987407394e+20
1.983936061e+20
1.980464728e+20
1.995599739e+20
1.98893478e+20
2.015594615e+20
2.008929656e+20
2.00906851e+20
2.017955121e+20
2.012678696e+20
2.004208644e+20
1.551824567e+20
2.002542404e+20
2.001848138e+20
2.011151309e+20
2.036006051e+20
2.015178055e+20
1.999765338e+20
2.00906851e+20
2.024064667e+20
2.030035359e+20
2.016844295e+20
2.002958964e+20
1.986990834e+20
2.000876164e+20
2.022676134e+20
1.997682538e+20
1.986713127e+20
1.96921761e+20
1.952555213e+20
1.96921761e+20
1.55571246e+20
2.013095255e+20
2.02295384e+20
2.02295384e+20
1.998237952e+20
2.008513096e+20
2.033645545e+20
2.026425173e+20
2.02295384e+20
2.02462008e+20
2.020732187e+20
2.042393303e+20
2.04017165e+20
2.014900348e+20
1.975743716e+20
1.992544966e+20
1.995877445e+20
1.98851822e+20
2.002264697e+20
1.994766619e+20
1.52086028e+20
1.928255884e+20
1.947695348e+20
1.965468571e+20
1.958248199e+20
1.973244356e+20
1.974632889e+20
1.978659635e+20
1.973383209e+20
1.989212487e+20
2.000876164e+20
1.992128406e+20
1.98851822e+20
2.003792084e+20
2.001431578e+20
1.985741154e+20
1.980881288e+20
1.981436701e+20
1.985324594e+20
1.980187022e+20
2.021098919e+20
2.031061093e+20
2.018062551e+20
2.020097081e+20
2.027614753e+20
2.035984168e+20
1.97675834e+20
1.987684976e+20
2.016563591e+20
1.995057974e+20
1.994166215e+20
1.987779496e+20
1.998883052e+20
2.008243426e+20
1.97897321e+20
1.992185194e+20
2.023857206e+20
2.010554507e+20
2.011618955e+20
2.003309069e+20
2.011930325e+20
2.007544772e+20
2.013848884e+20
1.991706844e+20
2.009926924e+20
2.027075902e+20
1.995151975e+20
2.003679617e+20
2.007663247e+20
1.994204412e+20
1.998607246e+20
2.001196791e+20
2.01268649e+20
2.032243434e+20
2.031741898e+20
2.046971014e+20
2.016332524e+20
2.019674245e+20
2.010206203e+20
2.011275658e+20
2.012646634e+20
2.000908247e+20
2.000190732e+20
1.994340976e+20
1.983247768e+20
1.987137176e+20
2.001422532e+20
1.999049576e+20
1.993676993e+20
2.008999493e+20
2.011357303e+20
2.014614086e+20
2.032883098e+20
2.056536111e+20
2.046039574e+20
2.042368425e+20
2.006438978e+20
2.006345391e+20
2.00879345e+20
2.015543452e+20
2.043017556e+20
2.030339747e+20
1.996558263e+20
1.991560503e+20
1.97941542e+20
1.999014878e+20
1.980381342e+20
1.983756467e+20
1.993111892e+20
1.987091412e+20
1.981129639e+20
1.998311351e+20
2.007891611e+20
2.012048303e+20
1.998724618e+20
1.98624635e+20
2.059251005e+20
2.047735034e+20
2.049056923e+20
2.01241374e+20
1.995169028e+20
1.991530567e+20
1.984934301e+20
1.978097091e+20
1.988111935e+20
1.980752919e+20
1.956831903e+20
1.952188083e+20
1.943241699e+20
1.939860977e+20
1.972390823e+20
1.969889782e+20
1.977814661e+20
1.968292229e+20
1.983984775e+20
1.99441226e+20
1.991110949e+20
2.026549149e+20
2.031962612e+20
2.040865793e+20
2.008062358e+20
1.989222229e+20
2.012250578e+20
2.002682437e+20
2.002409583e+20
1.981495275e+20
2.052841115e+20
2.02514611e+20
1.994524645e+20
1.999325795e+20
2.028548391e+20
2.033369445e+20
2.02808822e+20
2.033414166e+20
2.032921101e+20
2.029006026e+20
1.989299455e+20
1.997646537e+20
2.005544104e+20
1.999468042e+20
1.98256223e+20
1.971043945e+20
1.971130864e+20
1.98717026e+20
2.006831554e+20
2.023661066e+20
1.973414043e+20
1.979687655e+20
1.996219962e+20
2.00743463e+20
2.019236551e+20
2.032792371e+20
2.029831826e+20
2.028877581e+20
2.0109587e+20
2.005399107e+20
2.003094681e+20
2.027531262e+20
2.016281027e+20
2.03033852e+20
2.020525883e+20
2.013748454e+20
2.002515522e+20
1.987462929e+20
1.983689964e+20
1.948980118e+20
1.979963292e+20
1.974215804e+20
1.967541076e+20
1.952237633e+20
1.966087424e+20
1.945652074e+20
1.940763315e+20
1.961999548e+20
1.977057042e+20
2.001984286e+20
1.977873119e+20
1.990070142e+20
2.001588409e+20
1.993066343e+20
1.998750505e+20
2.002783783e+20
2.012395877e+20
1.993023917e+20
1.99695585e+20
1.996787798e+20
1.985815812e+20
1.97589945e+20
1.977147783e+20
1.978129002e+20
1.998320728e+20
1.996580101e+20
2.005130938e+20
2.019511716e+20
2.025108962e+20
2.027075902e+20
1.991250295e+20
1.976039741e+20
1.969942743e+20
1.98609559e+20
1.970671728e+20
1.965994425e+20
1.969387272e+20
1.95541417e+20
1.951262292e+20
1.944674442e+20
)
;

boundaryField
{
    flow
    {
        type            calculated;
        value           nonuniform List<scalar> 
48
(
1.540299743e+20
1.565154485e+20
1.539605476e+20
1.548214381e+20
1.548214381e+20
1.556823286e+20
1.53391249e+20
1.549602914e+20
1.562377419e+20
1.53849465e+20
1.561127739e+20
1.546548141e+20
1.53641185e+20
1.546548141e+20
1.562238565e+20
1.551824567e+20
1.55571246e+20
1.52086028e+20
1.52086028e+20
1.928255884e+20
1.947695348e+20
1.965468571e+20
1.958248199e+20
1.973244356e+20
1.974632889e+20
1.978659635e+20
1.973383209e+20
1.989212487e+20
2.000876164e+20
1.992128406e+20
1.98851822e+20
2.003792084e+20
2.001431578e+20
1.985741154e+20
1.980881288e+20
1.981436701e+20
1.985324594e+20
1.980187022e+20
1.991250295e+20
1.976039741e+20
1.969942743e+20
1.98609559e+20
1.970671728e+20
1.965994425e+20
1.969387272e+20
1.95541417e+20
1.951262292e+20
1.944674442e+20
)
;
    }
    obstacle
    {
        type            calculated;
        value           nonuniform List<scalar> 0();
    }
    frontAndBack
    {
        type            empty;
    }
    procBoundary2to0
    {
        type            processor;
        value           nonuniform List<scalar> 
31
(
1.536134143e+20
1.976715689e+20
1.976715689e+20
1.952277507e+20
1.961997238e+20
1.953110627e+20
1.975604862e+20
2.005180617e+20
2.010318189e+20
2.016844295e+20
1.998237952e+20
1.993378086e+20
1.987962807e+20
1.983658354e+20
1.984352621e+20
1.99101758e+20
1.984630327e+20
1.984769181e+20
2.007957683e+20
1.999487631e+20
2.011643821e+20
1.999898343e+20
1.99060099e+20
1.998877588e+20
2.026582963e+20
2.02009776e+20
2.009086547e+20
1.993016509e+20
1.984635374e+20
1.993350864e+20
1.993350864e+20
)
;
    }
    procBoundary2to3
    {
        type            processor;
        value           nonuniform List<scalar> 
19
(
2.031315051e+20
2.024435321e+20
2.016957368e+20
2.046869223e+20
1.993626095e+20
2.01187235e+20
2.018901639e+20
1.978670161e+20
1.983904752e+20
1.981212669e+20
1.99930935e+20
2.040288626e+20
2.033259322e+20
1.989887112e+20
1.970593984e+20
2.000057147e+20
2.032361966e+20
2.012620147e+20
1.939036934e+20
)
;
    }
}


// ************************************************************************* //
