/*--------------------------------*- C++ -*----------------------------------*\
| =========                 |                                                 |
| \\      /  F ield         | OpenFOAM: The Open Source CFD Toolbox           |
|  \\    /   O peration     | Version:  2406                                  |
|   \\  /    A nd           | Website:  www.openfoam.com                      |
|    \\/     M anipulation  |                                                 |
\*---------------------------------------------------------------------------*/
FoamFile
{
    version     2.0;
    format      ascii;
    arch        "LSB;label=32;scalar=64";
    class       volScalarField;
    location    "0.003";
    object      internalEMean;
}
// * * * * * * * * * * * * * * * * * * * * * * * * * * * * * * * * * * * * * //

dimensions      [1 -1 -2 0 0 0 0];

internalField   nonuniform List<scalar> 
546
(
0.3235096106
0.4169347361
0.4250942427
0.41983961
0.4226336639
0.4201419394
0.4154536838
0.4095814967
0.4077292631
0.4018385261
0.4014179137
0.4110456664
0.4152852692
0.410898762
0.4128366245
0.4060665868
0.4042836616
0.403665781
0.3998653186
0.3998402827
0.3271612432
0.4197690226
0.4224618714
0.4223865203
0.4199293754
0.4195866497
0.4189719614
0.4168756564
0.4168565473
0.4162287908
0.4150513264
0.4078037808
0.4124020375
0.4107910529
0.4127827487
0.4168077521
0.4238707189
0.4313278645
0.4274424409
0.4301461703
0.3138657087
0.4050378077
0.4066001802
0.4018140821
0.4152947996
0.4182810821
0.420110405
0.4202158522
0.424771923
0.4234694957
0.4195785828
0.4254854334
0.4187100408
0.4148964876
0.4139686849
0.4123817391
0.4049833646
0.4084868722
0.4137383598
0.4092100205
0.3178797888
0.4094477323
0.413068907
0.4119121642
0.4051727381
0.4012676815
0.4098894959
0.4067385726
0.4094406296
0.4085204928
0.4080509313
0.4058787252
0.4103687617
0.4178709913
0.4184645463
0.4161015197
0.4122120698
0.4099113371
0.4142875488
0.4129851539
0.3196099058
0.4140371417
0.4142066913
0.4143591131
0.4164505463
0.415632388
0.4059136295
0.4027641914
0.399820851
0.4003897826
0.4044434576
0.4060181904
0.4062623863
0.4095903948
0.4081955633
0.4110201716
0.4123831557
0.4187059209
0.4127809354
0.4106498787
0.3223133812
0.4131503984
0.4122773074
0.4138621295
0.4121798636
0.4128856468
0.4158667788
0.4134413108
0.4198650621
0.4213010336
0.4147486148
0.4100221275
0.4053451154
0.4102396014
0.4075048533
0.4120969669
0.4146950348
0.4066218237
0.4084569122
0.409507309
0.319780092
0.4131912809
0.4178577651
0.416729349
0.4208543692
0.4199478764
0.4235612397
0.4282603207
0.4210791107
0.4191951222
0.4276461544
0.4239694101
0.4236446255
0.4178955945
0.4148639665
0.4141301936
0.4126695043
0.4094633504
0.4110192397
0.41686983
0.3211445276
0.4188991369
0.4208772922
0.4228945208
0.4243554047
0.4257019772
0.4228382025
0.4146269589
0.415706402
0.4174387525
0.4183715462
0.4154293747
0.4177068124
0.4227945394
0.4204263491
0.4257117752
0.4274871424
0.4273733634
0.4295714714
0.4270673305
0.3333197704
0.4284661941
0.4288833113
0.42559225
0.4207811315
0.4129389693
0.4108740502
0.4128241737
0.4136511721
0.4200634463
0.4153658638
0.4209950969
0.411907035
0.4147408591
0.4138071881
0.4042014785
0.4056203468
0.4018353797
0.3999677718
0.3998723395
0.3175157306
0.4089031537
0.4072951761
0.4052531419
0.4026785297
0.4073063295
0.4143574177
0.4176739032
0.4173311038
0.4109908134
0.4179689248
0.4136014595
0.4143442253
0.4098496229
0.4094066766
0.4081652086
0.4081740763
0.4129739922
0.4042648935
0.4075273512
0.314439688
0.4072463415
0.4103894183
0.4127573554
0.4179580015
0.4194543663
0.4172467128
0.4095860061
0.4107585134
0.4143580552
0.4060875736
0.4121361063
0.4068289673
0.4137921802
0.4034428271
0.4085799124
0.4101609274
0.415241181
0.4240362359
0.4284258204
0.3212988051
0.4183880681
0.4134751234
0.4130404061
0.4021430863
0.4047157809
0.4041868563
0.4094106368
0.405982576
0.408988592
0.4068617879
0.4070541859
0.4072506693
0.4129548407
0.4159700806
0.4155889562
0.41460306
0.4112949907
0.4108618828
0.4127879941
0.314747931
0.4073106731
0.4111701968
0.415501302
0.422260823
0.4154705233
0.4093370375
0.4089405077
0.410543968
0.403544212
0.4053155402
0.4012822662
0.4046850617
0.4095451687
0.4071121168
0.4092745365
0.407791761
0.4088592919
0.4113120433
0.4069008695
0.322019985
0.410555784
0.4135769759
0.4049161665
0.409002668
0.4066904814
0.4112111276
0.4133402426
0.4143386568
0.4177738224
0.412113425
0.4187708297
0.415078713
0.409334438
0.4095555346
0.4115962313
0.4121957806
0.4122856922
0.4051758797
0.4150057623
0.3277390083
0.4216829001
0.4175393355
0.4184048081
0.4164513675
0.4234614768
0.4235204798
0.418916927
0.4151294172
0.4141204963
0.4162506337
0.4109405989
0.4150550624
0.4129903019
0.4186275023
0.4155857885
0.4147414271
0.4196093655
0.4190736823
0.4121702109
0.3225803598
0.4179353812
0.4176298403
0.4211368463
0.4295172403
0.4221372736
0.4199143122
0.4175229021
0.4201237547
0.4225735351
0.4225457496
0.4180511316
0.4165506075
0.4163723714
0.4160034921
0.4149712047
0.412985275
0.4073586654
0.4018526422
0.4070259452
0.3223321583
0.4179840491
0.4243748196
0.4215051774
0.4158572089
0.4162649973
0.4202217013
0.4190328942
0.4200994804
0.417921579
0.4179911444
0.4229822258
0.421914051
0.4170049389
0.4092061676
0.4137480661
0.4110650358
0.410006533
0.4131796903
0.4142133609
0.3116268244
0.3922935767
0.3982501162
0.4060953477
0.4003401968
0.4008549919
0.4028075753
0.4049417701
0.4023610344
0.4033479122
0.4058702364
0.4062028383
0.4063948579
0.4058925797
0.4038076652
0.3971792457
0.4001379333
0.3992864377
0.3979700184
0.4006743822
0.4285889408
0.4318022737
0.4280001098
0.4251017216
0.4213192054
0.4235955339
0.4060762222
0.4090542701
0.4149317763
0.4071779214
0.4047648698
0.4069771523
0.4073955101
0.4101494785
0.4047435038
0.4111388221
0.4156151269
0.4139733176
0.4133060358
0.4135185713
0.4161317565
0.4208583156
0.4200244612
0.4177404017
0.4254271634
0.4336505318
0.4224833891
0.4206430936
0.4168174979
0.4150363125
0.4111409379
0.4109325238
0.4193639164
0.4293113726
0.4226196782
0.4266646591
0.4138730623
0.4149788689
0.415324901
0.4152920574
0.4169564382
0.4190018534
0.4191159506
0.4112827756
0.4060460545
0.4092321724
0.4114712375
0.4123627808
0.4107949517
0.4137276603
0.4134705175
0.410306087
0.4114391859
0.4263882608
0.4240190678
0.4254475215
0.4068258866
0.4090092995
0.4106856593
0.4118472352
0.4129811879
0.4145857759
0.4083016787
0.4012439118
0.4014373226
0.4046420998
0.4168952038
0.4151877034
0.4105733754
0.4105745826
0.4087571784
0.416940423
0.4135410753
0.4210108732
0.4170123494
0.412740373
0.4260081943
0.4232571731
0.4276018937
0.4210286843
0.4169264645
0.4131168298
0.4157651145
0.416147344
0.4134340193
0.4158566288
0.4006889743
0.3986435047
0.398079621
0.3963070496
0.404134489
0.403929018
0.409346581
0.4034045575
0.4096107628
0.4148634938
0.4101466906
0.4197466142
0.4198551366
0.4251103698
0.4174200828
0.4161396787
0.4205282636
0.4191198838
0.415759149
0.4073879237
0.4279948766
0.4169037228
0.4121195127
0.4128260732
0.4178773842
0.4148738242
0.4148328522
0.414521754
0.4156333597
0.4145946945
0.4093228975
0.4125144022
0.4119587117
0.4100776577
0.4105977365
0.4082809986
0.4082209064
0.4135981803
0.4195320176
0.4243989297
0.4102178319
0.4073979256
0.4097610137
0.4123587667
0.4180037051
0.4182808045
0.4230295834
0.4236568512
0.4204751013
0.4193535236
0.4126995662
0.421330825
0.4192645064
0.4232967936
0.4237040512
0.4239054072
0.422970032
0.419483908
0.4227716584
0.4155425954
0.4061801381
0.4077133143
0.4069461095
0.4020618303
0.4001958735
0.3942914475
0.394444204
0.4002198338
0.4005713121
0.4081676015
0.4113744527
0.4105821261
0.4106968267
0.411309621
0.4161371928
0.4176603378
0.4169210001
0.4145153042
0.4141069832
0.4129465927
0.4145439279
0.4124087363
0.4044668718
0.4072868019
0.4112836447
0.4108856775
0.4142029007
0.4176911992
0.4182379839
0.4151076815
0.402360564
0.4025108451
0.4062374173
0.4115762403
0.4051523219
0.4027309177
0.3991555427
0.3936412943
0.3988246654
0.3983135335
)
;

boundaryField
{
    flow
    {
        type            calculated;
        value           nonuniform List<scalar> 
48
(
0.3235096106
0.3271612432
0.3138657087
0.3178797888
0.3196099058
0.3223133812
0.319780092
0.3211445276
0.3333197704
0.3175157306
0.314439688
0.3212988051
0.314747931
0.322019985
0.3277390083
0.3225803598
0.3223321583
0.3116268244
0.3116268244
0.3922935767
0.3982501162
0.4060953477
0.4003401968
0.4008549919
0.4028075753
0.4049417701
0.4023610344
0.4033479122
0.4058702364
0.4062028383
0.4063948579
0.4058925797
0.4038076652
0.3971792457
0.4001379333
0.3992864377
0.3979700184
0.4006743822
0.402360564
0.4025108451
0.4062374173
0.4115762403
0.4051523219
0.4027309177
0.3991555427
0.3936412943
0.3988246654
0.3983135335
)
;
    }
    obstacle
    {
        type            calculated;
        value           nonuniform List<scalar> 0();
    }
    frontAndBack
    {
        type            empty;
    }
    procBoundary2to0
    {
        type            processor;
        value           nonuniform List<scalar> 
31
(
0.3186714999
0.4086165786
0.4088428408
0.4069643947
0.4082901867
0.4100479126
0.4145215936
0.4196154592
0.4154880473
0.4191976325
0.4138730354
0.4128913665
0.4065406236
0.410644877
0.4113487577
0.4136103253
0.4096819459
0.4096886942
0.4123956087
0.4131651895
0.4239661946
0.4186049689
0.4226686812
0.4208204106
0.4298882047
0.4283929883
0.4165103868
0.4094076559
0.4122403113
0.4168038933
0.4168038933
)
;
    }
    procBoundary2to3
    {
        type            processor;
        value           nonuniform List<scalar> 
19
(
0.4261915468
0.4214113264
0.4280296635
0.4266434421
0.4138304133
0.4140470592
0.4097504022
0.417421449
0.4140521338
0.4141923727
0.4107885271
0.4185046846
0.4267155594
0.4172595131
0.4205387357
0.4051716519
0.4238692858
0.4134971242
0.4029741617
)
;
    }
}


// ************************************************************************* //
