/*--------------------------------*- C++ -*----------------------------------*\
| =========                 |                                                 |
| \\      /  F ield         | OpenFOAM: The Open Source CFD Toolbox           |
|  \\    /   O peration     | Version:  2406                                  |
|   \\  /    A nd           | Website:  www.openfoam.com                      |
|    \\/     M anipulation  |                                                 |
\*---------------------------------------------------------------------------*/
FoamFile
{
    version     2.0;
    format      ascii;
    arch        "LSB;label=32;scalar=64";
    class       volScalarField;
    location    "0.003";
    object      internalE;
}
// * * * * * * * * * * * * * * * * * * * * * * * * * * * * * * * * * * * * * //

dimensions      [1 -1 -2 0 0 0 0];

internalField   nonuniform List<scalar> 
546
(
0.3837977454
0.5566087008
0.5232041006
0.288288591
0.2816671862
0.5367869397
0.4675287055
0.6579233601
0.5423487186
0.3387562642
0.3852181102
0.6464455797
0.5617611044
0.9652243386
0.5561297276
0.3947675573
0.454229824
0.4509666954
0.2818975917
0.2755385565
0.4701193731
0.3254859212
0.6733298464
0.2114303139
0.5198922154
0.317327052
0.4361047924
0.3510511723
0.8207137222
0.3563018149
0.8321557259
0.2831363102
0.6309875501
0.4762911123
0.4227355631
0.2656178239
0.5064718319
0.641368672
0.7948229859
0.6741876427
0.2494745027
0.5640234962
0.2538020872
0.6823796823
0.4279993055
0.5415574461
0.3822175994
0.5056775976
0.251890804
0.4170077035
0.3777994659
0.5446180998
0.5014450425
0.4581919403
0.5488351733
0.4377285427
0.4328141522
0.5655764083
0.5497458955
0.2138849479
0.4104843543
0.1653298429
0.7271656362
0.4035663764
0.155560787
0.2948013584
0.3647636057
0.3299346705
0.4249970111
0.5510936806
0.58432519
0.4294699837
0.147965985
0.4781930959
0.2762095899
0.3239390422
0.3301361594
0.2987875112
0.4862170404
0.564037328
0.2297906859
0.4071172595
0.6914628762
0.5357506203
0.5903731711
0.2752361229
0.3940106773
0.5221080233
0.2619879276
0.09534694237
0.368020871
0.2684272062
0.4242788629
0.4965066766
0.3750708224
0.285053863
0.1401513057
0.5129221438
0.2732400801
0.3664010805
0.127559491
0.3859158565
0.7802843192
0.2692862183
0.6681900219
0.3663166824
0.3960916705
0.4784604095
0.1774652564
0.7187913097
0.653905302
0.5556561047
0.4197432482
0.1923394044
0.5102540418
0.5826565808
0.4621670507
0.6384817323
0.148318284
0.3773197401
0.1430228306
0.4693986168
0.2892392146
0.2042749022
0.4821026783
0.2493589463
0.1699417225
0.2796667628
0.2192166318
0.2932776635
0.3086338383
0.6372272361
0.2547868831
0.4659571407
0.3609589573
0.5234323128
0.2429330577
0.3791612939
0.4676747714
0.4132503284
0.2046399368
0.2078573341
0.3216330251
1.096119154
0.4205274054
0.4618245712
0.3447627543
0.7168150836
0.3260064619
0.5198002995
0.3682179876
0.3291791739
0.4703564714
0.2865254116
0.4499537291
0.5505414502
0.3874728791
0.887879043
0.2356124185
0.3782616071
0.3679724807
0.6590700951
0.4324879989
0.2947807873
0.3486754379
0.2171180533
0.4145781239
0.434385783
0.1974146977
0.7593441757
0.5808835957
0.3261822134
0.6862397301
0.4218009695
0.2728071197
0.2313633804
0.3233143841
0.3613867488
0.3758227763
0.3407138757
0.3257643037
0.6657862329
0.1395333184
0.6402591455
0.6267512007
0.218406541
0.590544411
0.7026066961
0.6681652025
0.4656867636
0.4347844043
0.4543579642
0.4448631543
0.1520657684
0.2817483841
0.3096781262
0.1170034344
0.05900342573
0.4675775867
0.2044846277
0.4783909203
0.1850568274
0.2708338362
0.2258393933
0.2992928416
0.3772961487
0.3002546113
0.4896777314
0.2888342982
0.6966796003
0.1968843479
0.2871070301
0.3062961905
0.4537354062
0.3575837917
0.3875141486
0.5963575208
0.5396362324
0.6559035832
0.6223828159
0.2870951498
0.4180360074
0.7651046095
0.3610267262
0.2108242878
0.4057012176
0.6311997195
0.2323600244
0.4396663332
0.4530118995
0.1695672466
0.2588048401
0.4796305411
0.4928436708
0.529851353
0.2961028464
0.3529282582
0.2418968492
0.4524965255
0.1777414624
0.2809751505
0.5854980126
0.4173995589
0.4265665325
0.4175417309
0.313141991
0.4316608567
0.4170456768
0.1466436848
0.3901882746
0.1034136834
0.2508036852
0.2596234893
0.3979471377
0.3591293386
0.493321264
0.4248073347
0.2670746999
0.4438020469
0.6446641333
0.2792029493
0.3971534554
0.2829065208
0.4696433856
0.4460812663
0.4855869902
0.5865090694
0.4384060199
0.3825456812
0.4434532571
0.1699288092
0.7526425243
0.3367549463
0.4832909926
0.3428965877
0.3486855915
0.2091576529
0.7201965736
0.3013579369
0.9739894055
0.2655774019
0.5364899837
0.6100105825
0.3676555095
0.6113022389
0.7118084777
0.3244867481
0.828960867
0.5007284872
0.2910197408
0.1889254834
0.4047687544
0.7257126977
0.1197571891
0.7139177554
0.3963901014
0.1988285748
0.3200381569
0.4953796389
0.7297202899
0.2664458428
0.5060178284
0.3162399585
0.5217907085
0.5057952813
0.477810899
0.3940973668
0.3725925917
0.3465644215
0.3727294471
0.6856549739
0.5449235764
0.5705412562
0.2528583029
0.3678068928
0.2395918309
0.4045632697
0.3633631499
0.1252366643
0.2516439173
0.2718731801
0.2585757954
0.3315460961
0.3345322603
0.5417149357
0.5662447839
0.3737254345
0.2505843359
0.4075793987
0.3520149775
0.8224041613
0.1383751646
0.391161377
0.2862311968
0.3971511186
0.3444320212
0.5833060765
0.4156803822
0.2782487951
0.4601629477
0.4469319896
0.3370311856
0.8963704723
0.4297727954
0.2007157755
0.2413027587
0.5186644142
0.6759065503
0.2289725865
0.8294193913
0.719861496
0.410007537
0.5131263945
0.4073078914
0.2434173478
0.4624778548
0.4880690182
0.4223089339
0.1422122645
0.4185019532
0.5924415598
0.4460585253
0.6403849263
0.3641408078
0.3832186142
0.4011758437
0.5128007091
0.1162138335
0.3538412236
0.2487452767
0.4678191939
0.03755947271
0.2926912254
0.225241907
0.1454020544
0.8132266508
0.4493663285
0.4422146373
0.7843306597
0.1588839211
0.09744486461
0.6048170345
0.3486917805
0.3046119368
0.7157910069
0.6481672112
0.6582330127
0.1226892895
0.9968162138
0.5766075763
0.772549719
0.2446274259
0.2905152687
0.476675705
0.3471976032
0.519107067
0.4563143541
0.2943630163
0.3938053503
0.6661462141
0.3846875572
0.313111317
0.4115299785
1.035902878
0.2931958912
0.568107655
0.1754388015
0.6135430536
0.2974814529
0.3559879949
0.2671643567
0.4741667195
0.3979053821
0.2831926644
0.4306837554
0.3378327401
0.3987420392
0.4565268342
0.4353739974
0.292488282
0.7880203659
0.2836774981
0.4363259108
0.4315898196
0.3478752943
0.4827163339
0.2332247991
0.6924311759
0.5313989287
0.4774723161
0.3560065574
0.6014078588
0.3443976461
0.6597297921
0.7581595968
0.5631331642
0.3604188115
0.2837242404
0.3784243338
0.05089657538
0.2449499865
0.3562752214
0.1138232609
0.4744082426
0.2159533595
0.4854767771
0.1987955085
0.4119482658
0.2411476461
0.5888811695
0.3325561766
0.2563481861
0.1630688517
0.3992707261
0.3789502886
0.3644767711
0.2610365518
0.7549931396
0.4349340616
0.3098524203
0.4289385057
0.4666323381
0.506288834
0.2659367981
0.561553213
0.2064246651
0.2546970845
0.5217572164
0.3083954816
0.1873681281
0.8709008532
0.3151218804
0.2577577249
0.6695603402
0.5575961858
0.5201971891
0.5042046742
0.4398019317
0.4866882584
0.4092533909
0.2945283945
0.4111028715
0.7645803326
0.1259842926
0.04378388375
0.9305469155
0.1988674561
0.1085805351
0.1264866241
0.3183764308
0.7851978614
0.6534968565
0.459206927
0.3453301371
0.3654694831
0.1507384268
0.5183569503
0.4995843628
0.5758988627
0.189233237
0.5127119871
0.3217180261
0.4033138148
0.6403677559
0.08626294347
0.4744438514
0.6562506644
0.5364081651
0.2626424877
0.1847983513
0.5196078557
0.3546496822
0.4970742482
0.4521538245
0.3446767382
0.4198700365
0.3841052334
0.6606917397
0.4022607374
0.337967234
0.1000442537
0.8192328543
0.5844054562
0.55521137
0.2080690006
0.3771373144
0.5183891248
0.761005777
0.2684715918
0.5621466674
0.3562285581
0.2600586355
0.6299099497
0.3079910681
0.1318518616
0.1804260772
0.7279441473
0.3183795376
0.06082316601
0.3867107046
0.3275622179
0.4397688248
0.1968276969
0.839829182
0.2708997848
0.234102477
)
;

boundaryField
{
    flow
    {
        type            zeroGradient;
    }
    obstacle
    {
        type            calculated;
        value           nonuniform List<scalar> 0();
    }
    frontAndBack
    {
        type            empty;
    }
    procBoundary2to0
    {
        type            processor;
        value           nonuniform List<scalar> 
31
(
0.4763849067
0.567063892
0.2680886093
0.4533359426
0.7569398882
0.4534845527
0.3821439332
0.214808337
0.2696016857
0.5849749826
0.07604097785
0.526674901
0.2980900339
0.3029403182
0.2102106036
0.6863133661
0.3941594069
0.3950693937
0.5015708321
0.4740607897
0.4201150234
0.4271027551
0.8100140779
0.9746637991
0.550547866
0.2750357111
0.3131186653
0.5078684139
0.4478105289
0.3966062535
0.3966062535
)
;
    }
    procBoundary2to3
    {
        type            processor;
        value           nonuniform List<scalar> 
19
(
0.08155183933
0.1699319323
0.3753863677
0.4789379876
0.1428565253
0.6132929851
0.2746759457
0.3035883872
0.3040721762
0.3990289175
0.7948456224
0.5672751585
0.4801811233
0.6953431702
0.4279264115
0.1327023742
0.2705116515
0.6064563166
0.373953672
)
;
    }
}


// ************************************************************************* //
