/*--------------------------------*- C++ -*----------------------------------*\
| =========                 |                                                 |
| \\      /  F ield         | OpenFOAM: The Open Source CFD Toolbox           |
|  \\    /   O peration     | Version:  2406                                  |
|   \\  /    A nd           | Website:  www.openfoam.com                      |
|    \\/     M anipulation  |                                                 |
\*---------------------------------------------------------------------------*/
FoamFile
{
    version     2.0;
    format      ascii;
    arch        "LSB;label=32;scalar=64";
    class       volScalarField;
    location    "0.003";
    object      internalT;
}
// * * * * * * * * * * * * * * * * * * * * * * * * * * * * * * * * * * * * * //

dimensions      [1 2 -2 0 0 0 0];

internalField   nonuniform List<scalar> 
546
(
304.2484276
305.5630076
305.4910666
303.9763089
304.5830147
302.9337686
301.6801192
300.1107199
299.7641243
296.4359751
295.7283739
297.4647228
299.9710088
298.4764557
299.0304582
296.8680437
294.4092238
296.004813
296.2161463
297.549811
302.7966307
303.0209126
303.0148841
302.4825223
300.7641848
299.8188778
299.8725887
298.7205895
299.5917406
299.3880729
298.6852909
295.6929617
298.4670026
299.5872196
301.1660695
302.579128
305.9394874
307.8080813
303.9334441
305.5435599
295.3118137
295.8049843
297.3206503
295.5402247
302.3011935
302.6378547
303.477338
303.3854531
306.3779868
303.0084754
301.1745876
303.0169246
300.0762764
296.4877936
297.8240092
298.5144379
296.5749137
298.0318004
302.1168252
299.3339636
297.4255114
297.1741288
297.5871132
299.0668257
298.2839509
295.5759513
298.5957436
296.5695767
297.0243257
297.1627012
297.4017564
298.6561651
298.6945933
303.2243817
300.8095655
301.2071085
299.680836
297.0559533
294.9817444
297.280427
299.0443023
297.6679854
297.3595493
297.8378887
297.9044215
298.835466
295.9060338
292.2622663
293.0411745
296.2050405
297.0343976
296.541731
295.8295295
297.9409608
296.8435537
295.8659675
296.4380112
298.7189615
298.9071084
297.8394307
299.9061804
301.4132272
300.2723115
301.8269356
299.9709804
299.0036871
302.1483323
302.0902161
304.1847336
304.2531496
300.8749468
298.838433
296.8815081
299.8768313
297.9821798
298.5568875
298.861815
297.107404
295.8375559
295.0212322
301.9932512
302.6069258
301.7873972
301.6197242
304.2464939
301.0461162
304.6202051
305.8072593
302.5430977
299.2726331
304.0368503
302.4947989
301.31515
300.8151252
299.1695598
300.2384228
299.4707986
300.1295485
302.0764878
306.1175673
300.21093
302.8120225
301.7953329
303.8265355
304.6662897
306.7307156
303.8907122
298.8127542
297.6782735
301.255367
301.6155757
300.845805
301.3029201
302.0697207
301.2649094
303.0126389
303.6134415
302.6466765
302.6624362
301.3254522
309.0448559
309.1066898
309.2365357
308.5268082
304.827241
303.5515365
301.7784462
303.5741028
302.8586913
303.4013996
300.3411482
302.5869309
299.1463771
298.7710053
298.7172112
294.369924
295.4032506
293.1788751
293.8093814
294.6937859
298.9617689
300.2674448
297.5785625
296.2525881
295.1149232
294.7790948
298.4329603
299.1282217
300.3466154
299.9215995
302.3490938
299.6052537
298.4852782
297.0524988
297.0616645
294.6036352
295.6327032
299.129958
295.0752634
296.3989452
291.7731436
294.8993423
294.8220016
296.7070014
300.5075585
302.3126469
300.7215284
300.5361847
299.8569524
301.1150794
298.8730814
300.2323513
297.2795791
301.2494463
296.6754422
297.8913522
298.7517535
296.1255949
299.4095508
300.5359495
300.9484185
300.8997216
299.5345362
298.8668088
293.9584429
296.420573
295.0389458
299.7960221
296.2046672
299.151015
296.5972295
296.3854099
296.9637222
297.2791185
297.1532186
299.0103108
297.6236223
299.3269989
300.1214195
300.8963353
296.7574525
296.344652
296.9985884
298.9472449
302.3509981
299.544848
295.3676926
293.1150316
294.8721138
290.3643148
292.4456503
291.8568289
293.6152836
298.6577266
298.8260409
298.4186507
301.0618453
300.700881
301.9300894
300.0007542
301.6239204
301.6508715
300.9667576
295.1170304
296.0273189
296.555238
299.6212896
302.6735248
302.6610913
304.8928449
300.9724102
304.0042125
302.1228196
298.859191
300.2815082
299.0663905
297.5333881
298.2586551
294.6270748
299.4166883
303.8975362
304.297215
303.0680389
304.522534
303.8426918
305.2850469
305.8559786
302.2803088
302.0122278
301.8465547
303.9300452
300.5787928
301.2858084
300.791604
300.8645129
299.669371
299.0398524
301.2174086
301.6215289
297.906561
301.1214531
302.3248292
302.2085814
303.3366548
305.5961894
303.4496733
304.1781675
301.0453715
300.6763385
301.5401111
303.4923615
302.3456677
303.6814798
301.4450049
297.9319126
300.9108771
301.1243005
299.6606013
298.132899
299.4158462
300.1378067
300.7750322
303.8855379
301.8306499
301.4695341
300.221385
299.3295656
299.5462887
300.8240609
299.018222
299.6434026
300.0054462
299.5736969
299.8016545
300.0253562
300.7975152
298.3479557
298.6810027
298.9261261
300.8004003
296.8191486
294.708682
296.1974278
299.3010973
296.1473569
294.2746321
295.5001199
296.4612129
295.3594602
293.7277882
293.8416758
295.3738365
296.0499745
293.4302298
292.2672879
289.7412361
292.6157334
291.9111975
290.3790171
293.1107621
307.1848472
307.9699456
307.2243652
304.8365383
301.0039623
301.3862082
297.5776972
298.1122168
298.0651301
295.6481047
294.0274359
296.5843431
295.2400369
295.8504323
296.2691083
298.9545569
297.4800713
298.265414
297.6270685
299.0153339
299.6155307
303.6806158
302.1301755
303.8277676
306.6135523
309.8962144
306.7468096
304.1108261
300.7471164
301.4829953
297.9954707
297.4590018
301.8292513
306.015245
301.319735
301.9405049
297.3386762
297.639834
299.2910707
299.1082736
300.1024571
303.3438317
303.5352804
298.735963
296.5819518
298.3240863
297.8153623
298.8149305
298.4810056
298.3191469
297.7842469
295.0274953
293.1835812
300.3414672
300.2048857
301.7576638
293.7169583
295.3070956
296.15608
295.9990983
292.8225841
295.795852
296.2412802
291.8511101
293.7833622
293.2252989
304.9470744
303.18138
298.4045915
299.3095762
298.8814047
302.2436921
298.3491369
303.1107284
302.2333278
301.0164563
299.6781401
299.4173519
302.2957176
303.068507
302.709581
300.4915817
303.4228672
304.7515487
301.2394011
304.1303224
296.6198906
295.807672
296.7491766
295.9426712
296.8105544
297.0362987
299.814045
296.8914022
299.0745258
301.3260535
298.3940435
300.0381363
299.3161542
301.7405314
301.1220394
303.0415803
302.7328348
303.1604717
300.770542
297.8252455
302.0157774
298.2124766
299.3161629
299.1093215
298.4076096
295.560328
296.3007143
295.3030149
296.1667315
295.996654
298.0658868
299.1347501
297.5554251
297.0968448
300.0102696
300.0607979
300.0034043
301.5018206
302.8311796
303.7965951
301.1221614
298.1045034
297.3504772
297.5638839
299.8743577
298.0720888
301.8958064
302.4856588
302.8890206
302.9185559
298.4550509
301.0246589
301.2197426
302.0111125
303.7698011
304.937008
305.970887
305.7473257
308.7297405
308.8549297
297.172038
299.1621655
299.6121986
298.3366188
294.860216
293.5611458
294.4146407
295.4922553
293.499281
295.3413553
301.2903958
298.8670618
297.2302236
298.9465263
301.5951443
302.0894564
300.1143422
301.2828824
300.3934712
299.5769338
302.3973578
302.3496113
296.3399631
298.2580164
298.141646
298.1128271
299.2380365
299.6093388
299.1723653
296.6450855
292.7089175
295.0722105
298.7257895
300.1902254
297.8176584
296.742047
293.6009361
291.6139473
296.0825115
296.7047879
)
;

boundaryField
{
    flow
    {
        type            calculated;
        value           nonuniform List<scalar> 
48
(
304.2484276
302.7966307
295.3118137
297.4255114
299.0443023
299.9061804
301.9932512
300.21093
309.0448559
298.9617689
291.7731436
300.9484185
296.7574525
301.6239204
303.8975362
301.1214531
300.1378067
296.8191486
296.8191486
294.708682
296.1974278
299.3010973
296.1473569
294.2746321
295.5001199
296.4612129
295.3594602
293.7277882
293.8416758
295.3738365
296.0499745
293.4302298
292.2672879
289.7412361
292.6157334
291.9111975
290.3790171
293.1107621
292.7089175
295.0722105
298.7257895
300.1902254
297.8176584
296.742047
293.6009361
291.6139473
296.0825115
296.7047879
)
;
    }
    obstacle
    {
        type            calculated;
        value           nonuniform List<scalar> 0();
    }
    frontAndBack
    {
        type            empty;
    }
    procBoundary2to0
    {
        type            processor;
        value           nonuniform List<scalar> 
31
(
300.511074
299.4457629
299.6115742
301.9682362
301.4511524
304.1264278
303.9439276
303.1407916
299.3919582
301.0875854
300.0311369
300.049233
296.2389042
299.8789158
300.2878354
300.9280533
299.0292011
299.0132064
297.5129503
299.3307957
305.2998142
303.2095369
307.5829455
304.9699128
307.2822968
307.1965721
300.3126243
297.5715874
300.8958016
302.8966128
302.8966128
)
;
    }
    procBoundary2to3
    {
        type            processor;
        value           nonuniform List<scalar> 
19
(
303.9302614
301.5426149
307.4139331
301.940505
300.6942293
298.1231359
294.0022312
305.5960633
302.3295571
302.8429019
297.6354844
297.1358912
304.0129651
303.7555391
309.1400341
293.4560353
302.1184776
297.6165487
301.0492278
)
;
    }
}


// ************************************************************************* //
