/*--------------------------------*- C++ -*----------------------------------*\
| =========                 |                                                 |
| \\      /  F ield         | OpenFOAM: The Open Source CFD Toolbox           |
|  \\    /   O peration     | Version:  2406                                  |
|   \\  /    A nd           | Website:  www.openfoam.com                      |
|    \\/     M anipulation  |                                                 |
\*---------------------------------------------------------------------------*/
FoamFile
{
    version     2.0;
    format      ascii;
    arch        "LSB;label=32;scalar=64";
    class       volScalarField;
    location    "0.003";
    object      linearKEMean;
}
// * * * * * * * * * * * * * * * * * * * * * * * * * * * * * * * * * * * * * //

dimensions      [1 -1 -2 0 0 0 0];

internalField   nonuniform List<scalar> 
546
(
5.861672663
7.84807375
7.901868435
7.819496606
7.862617748
7.871286166
7.804469103
7.754225231
7.744646081
7.728418983
7.742057793
7.896208745
7.92292725
7.850117638
7.862995781
7.785780041
7.817381634
7.77939652
7.721457503
7.667698123
5.934930025
7.992360189
7.963972227
7.95762836
7.941942877
7.940035597
7.950214281
7.93000927
7.918812762
7.904903605
7.912222422
7.842976645
7.83081162
7.803422298
7.797639859
7.853867929
7.891002574
7.94066565
7.954130945
7.964603211
5.849598806
7.852100728
7.808550663
7.752611413
7.869414825
7.936276375
7.931153946
7.927546403
7.93666344
7.969516719
7.942578784
7.979638145
7.902091568
7.937226328
7.881406418
7.843410853
7.753977405
7.782427876
7.795901537
7.785651058
5.902219005
7.963312326
7.906260245
7.866057658
7.764164644
7.765351931
7.842369925
7.835083327
7.865737241
7.849839097
7.84605541
7.794011278
7.891860489
7.886273932
7.946884782
7.913820831
7.864431139
7.861957702
7.995643234
7.911604591
5.923907494
8.031025885
7.940892332
7.894179536
7.946701189
7.884327075
7.786873833
7.837375798
7.774144594
7.703575478
7.775105785
7.811948707
7.840668671
7.840256162
7.837151327
7.901925325
7.90814425
7.991918491
7.862957941
7.828180131
5.920034529
7.868538925
7.799533958
7.793105041
7.802396258
7.84019522
7.815827454
7.782530749
7.815386468
7.831637789
7.798020687
7.768263214
7.743764389
7.796637033
7.79452076
7.868228205
7.906183078
7.803843493
7.86201055
7.953096033
5.81747197
7.857108069
7.885864132
7.871893143
7.886577191
7.934468247
7.903564231
7.960219062
7.92608619
7.960921629
8.012910878
7.968346951
7.988344895
7.909750832
7.871273897
7.836001589
7.814264982
7.722589074
7.711439477
7.73039779
5.904223465
7.943712158
7.901348619
7.879426619
7.881137008
7.890199267
7.909464583
7.895692197
7.948397511
7.905249495
7.909885719
7.851050693
7.878040693
7.920332254
7.900477698
7.944206328
7.975112692
8.02067723
8.024925173
8.033458678
5.89033214
7.917980728
7.843907376
7.800779514
7.815201128
7.714107785
7.721251289
7.717652034
7.763855303
7.857511665
7.812109738
7.867212991
7.792923759
7.879588729
7.863344007
7.801329519
7.776573663
7.785426292
7.743041247
7.729166121
5.855245399
7.839274105
7.778975854
7.808409076
7.790404223
7.863034661
7.904067207
7.929912771
7.902392564
7.794847212
7.855112138
7.852131808
7.896931604
7.844037925
7.84207528
7.891982371
7.856812246
7.826043046
7.747364839
7.793963917
5.947721562
7.963760601
7.97253587
7.934581636
7.927901869
7.903367122
7.908047086
7.805563702
7.84371538
7.853294227
7.769813544
7.83796137
7.799729823
7.809503815
7.732988418
7.77754289
7.809162517
7.983929659
8.099766328
8.127443673
5.884318309
7.996432952
7.832006984
7.877359033
7.822348442
7.774346096
7.79813542
7.770354498
7.814639096
7.80292908
7.829467054
7.830786417
7.864324714
7.978296114
8.017259213
7.953549005
7.927314327
7.822900366
7.76386139
7.745340255
5.872838781
7.944660214
7.903345599
7.916146653
7.962496036
7.927867899
7.922217966
7.959839499
7.929113443
7.910708622
7.876220393
7.830981123
7.859283238
7.81044593
7.754821419
7.807883531
7.729115861
7.755808712
7.792129598
7.762960343
5.848920957
7.82112779
7.799058375
7.770315807
7.819201859
7.71289521
7.755143212
7.710327089
7.753633875
7.774089847
7.754946301
7.789161778
7.777800231
7.747837415
7.701833767
7.781802511
7.848181842
7.833159019
7.815158728
7.856595563
5.895532825
7.908248044
7.767151107
7.754700635
7.75397786
7.838506713
7.837081936
7.83504687
7.771203684
7.751136035
7.724113418
7.712415113
7.755952374
7.750925226
7.852889158
7.831322419
7.854776974
7.878246129
7.850544807
7.835457113
5.876226413
7.90303321
7.853405654
7.896852318
7.9718187
7.914810561
7.830929736
7.875176932
7.952089356
7.970156151
7.948985863
7.884064333
7.821366135
7.856838137
7.942249861
7.855144816
7.814755086
7.740286182
7.677429141
7.743235329
5.904892317
8.011287829
7.960826641
7.97995549
7.880151203
7.916157421
8.002978627
7.988207674
7.932972181
7.960301844
7.936799476
8.033813956
8.017404797
7.936698677
7.8019817
7.837437509
7.856466371
7.826223907
7.885956036
7.883995415
5.823040305
7.696854824
7.650872804
7.699788191
7.673131386
7.731907062
7.708288722
7.746052711
7.709561132
7.800922068
7.820492489
7.792426549
7.796320746
7.847094204
7.840866692
7.799226955
7.78031325
7.766274177
7.792020848
7.77996566
7.924259635
7.946130305
7.886831848
7.889196567
7.910818518
7.951332267
7.757834685
7.825041905
7.927218767
7.815427971
7.796676325
7.766167579
7.832646809
7.891540598
7.77154226
7.830528252
7.919419384
7.86996864
7.864223747
7.845453556
7.896460041
7.880207724
7.920522029
7.82089946
7.919162265
7.970892279
7.835767588
7.859895393
7.883814799
7.842581656
7.874835901
7.897859983
7.936151973
8.024650409
7.97974658
8.0232312
7.935106534
7.958717551
7.921054192
7.91750338
7.897936358
7.822041977
7.805711587
7.770255518
7.749938194
7.755032058
7.828916669
7.826187298
7.803576314
7.88636728
7.919521144
7.897162463
7.969242101
8.056427233
8.03114385
8.019546258
7.947373237
7.920490064
7.922677671
7.899421264
7.99787654
7.960826308
7.843173466
7.825147923
7.777093232
7.842782131
7.729481022
7.740550012
7.794360608
7.768985241
7.783656908
7.849633763
7.9011514
7.903886599
7.836438471
7.811003485
8.059094684
8.018782532
8.032451024
7.889926524
7.82151909
7.795167721
7.784575904
7.761814228
7.825235765
7.764440686
7.683568617
7.623537692
7.653612754
7.609864286
7.722888442
7.726191396
7.698398974
7.68017264
7.738736513
7.778931009
7.834292347
7.972844591
7.964914487
7.978462113
7.838558776
7.797458481
7.881847142
7.869392431
7.843537235
7.781006473
8.05854341
7.962899911
7.850416537
7.889409108
8.017403509
8.002817357
7.965887014
7.985576839
7.979835633
7.957420196
7.780082545
7.822992153
7.827703354
7.805010514
7.742488753
7.722724588
7.747629669
7.822771435
7.90006159
7.973465178
7.783493196
7.775643375
7.863874553
7.876127118
7.94206537
7.960153331
7.933734592
7.94811231
7.889487853
7.853139634
7.874702887
7.952547324
7.907243348
7.953555245
7.907331755
7.883406785
7.828213403
7.77044294
7.768605365
7.654516526
7.759215374
7.734897052
7.714465938
7.657562157
7.732647921
7.6704702
7.647436031
7.73535809
7.751119338
7.840896281
7.740507012
7.797204684
7.845460868
7.80739287
7.865309364
7.860685182
7.891425229
7.81387624
7.845102049
7.814549118
7.822059835
7.771280868
7.801903351
7.795682588
7.848833721
7.826377897
7.885023513
7.928874136
7.953215477
7.963010497
7.815190319
7.775337111
7.764859929
7.84571191
7.806357644
7.770211407
7.783756382
7.726899378
7.687523257
7.681053022
)
;

boundaryField
{
    flow
    {
        type            calculated;
        value           nonuniform List<scalar> 
48
(
5.861672663
5.934930025
5.849598806
5.902219005
5.923907494
5.920034529
5.81747197
5.904223465
5.89033214
5.855245399
5.947721562
5.884318309
5.872838781
5.848920957
5.895532825
5.876226413
5.904892317
5.823040305
5.823040305
7.696854824
7.650872804
7.699788191
7.673131386
7.731907062
7.708288722
7.746052711
7.709561132
7.800922068
7.820492489
7.792426549
7.796320746
7.847094204
7.840866692
7.799226955
7.78031325
7.766274177
7.792020848
7.77996566
7.815190319
7.775337111
7.764859929
7.84571191
7.806357644
7.770211407
7.783756382
7.726899378
7.687523257
7.681053022
)
;
    }
    obstacle
    {
        type            calculated;
        value           nonuniform List<scalar> 0();
    }
    frontAndBack
    {
        type            empty;
    }
    procBoundary2to0
    {
        type            processor;
        value           nonuniform List<scalar> 
31
(
5.8683457
7.899297651
7.811417319
7.748904821
7.758799048
7.717884724
7.762487825
7.888999165
7.867919961
7.872689001
7.810670872
7.774753082
7.777364585
7.780468295
7.779301575
7.79899276
7.758459346
7.764632429
7.865900009
7.840435505
7.887530585
7.82615773
7.787356565
7.804409424
7.92147479
7.890830882
7.896580758
7.814024259
7.757449147
7.79754163
7.79754163
)
;
    }
    procBoundary2to3
    {
        type            processor;
        value           nonuniform List<scalar> 
19
(
7.93330055
7.944326072
7.95669854
8.021327551
7.768660805
7.915785295
7.957713814
7.764893649
7.758654269
7.740774647
7.836463606
8.00391054
7.983226828
7.785789828
7.793784893
7.813200511
7.974070527
7.918972086
7.623111012
)
;
    }
}


// ************************************************************************* //
