/*--------------------------------*- C++ -*----------------------------------*\
| =========                 |                                                 |
| \\      /  F ield         | OpenFOAM: The Open Source CFD Toolbox           |
|  \\    /   O peration     | Version:  2406                                  |
|   \\  /    A nd           | Website:  www.openfoam.com                      |
|    \\/     M anipulation  |                                                 |
\*---------------------------------------------------------------------------*/
FoamFile
{
    version     2.0;
    format      ascii;
    arch        "LSB;label=32;scalar=64";
    class       volScalarField;
    location    "0.003";
    object      linearKE;
}
// * * * * * * * * * * * * * * * * * * * * * * * * * * * * * * * * * * * * * //

dimensions      [1 -1 -2 0 0 0 0];

internalField   nonuniform List<scalar> 
546
(
5.517219448
8.596928337
7.041077748
6.476739439
5.459758352
10.86148823
9.610254873
7.078645644
8.04197575
6.517335663
7.931450372
15.55565407
10.24104276
15.02045053
11.41684147
8.86888212
10.49303088
6.231560477
7.197770561
6.420094633
6.208627488
7.814150185
11.38934415
6.249325157
7.594591388
10.76643693
9.558289428
7.624540597
16.01715558
10.52567119
8.161869903
6.692145606
8.914265238
9.996977959
8.777110131
8.381344575
7.481071047
8.124674615
18.60114191
8.787078665
5.110701689
9.425756363
5.804233332
8.061278463
7.151949277
6.47833101
8.131335069
9.165247977
2.783986735
6.495556221
9.325168174
7.361968525
7.698367996
9.387737652
12.28443642
9.615827804
5.991495905
7.221073719
9.032051799
6.163293209
6.599500351
4.881679576
10.51599688
7.391283726
5.650433747
7.248158669
8.195518916
5.295302522
6.102240542
9.094549763
6.242510301
5.985585903
7.357592992
5.187875038
5.128952261
5.55736384
5.81890171
10.66986712
9.633151999
7.36169301
6.437612913
8.549601208
8.02041901
12.41931238
8.253298532
5.458816664
6.252146058
6.884790961
7.245689638
3.719557156
8.952875246
5.933428983
7.64202456
7.593652565
8.722512931
5.750201128
5.645799371
11.32987706
5.684769208
11.16593713
4.927508566
6.98096964
9.648223018
4.973742999
10.7905631
9.427244383
8.72994798
8.322927159
7.497086758
6.205784073
15.39435461
5.334891894
7.447180115
7.084062049
9.139273756
11.44262364
8.337384036
6.426664017
5.591094336
6.853165707
3.945927576
11.19971674
7.181305022
4.654947617
10.13322878
11.204763
6.446930868
8.52947347
5.742258481
6.14329965
9.584449235
9.229759396
5.923567626
7.019537258
7.797362305
8.301034066
9.568429361
7.752330552
13.48010004
9.754268191
5.042984484
5.600324784
8.59802211
12.02695845
8.068248443
8.173306649
6.95264193
10.26888643
2.967668933
11.20492658
6.978266466
9.41073663
5.717222565
6.530465178
11.13957707
8.881459969
8.341055066
9.737453911
6.629972864
7.738571747
5.579221429
9.860790204
9.749116306
7.22756009
4.92003468
4.754688593
7.483068
5.298053366
8.805122408
9.103196437
7.222030842
9.107106189
13.28155532
8.16931527
8.220584661
6.50346911
3.614676319
5.984331094
10.61837742
6.862542845
7.34721038
8.371812738
4.300599149
7.673744256
10.76740047
5.09533717
11.79617241
12.98739677
8.690393972
9.118758765
5.427567785
5.942439041
11.90944917
4.270321054
7.711609578
3.034683316
3.766546919
2.792079011
10.71332773
1.204702571
6.192119353
6.346564126
6.316602132
4.739683171
6.244058351
4.167441905
7.726550854
7.137335206
7.279839091
9.347650526
3.211925244
5.149679744
5.992146859
10.51695751
8.212251182
7.59269141
7.376275114
11.58736271
11.13344538
6.007918284
6.298366584
7.944723062
10.87877247
7.693992732
7.215016251
10.47875569
11.69158086
6.85807783
7.108414585
9.3901058
3.72898541
4.75975466
9.092299581
6.539904855
8.061903152
8.789661371
6.294004318
3.919918844
9.960037501
3.909987075
8.867423241
6.192678864
9.128727064
7.784321742
5.726207905
4.985281167
9.579189444
8.175534994
4.973743229
7.666992502
4.151896227
8.833305262
4.514699906
9.389250895
5.560846521
6.539906491
8.207469749
7.208351728
4.282741023
9.917790592
4.842156602
9.176629449
7.235300378
8.470473063
6.40566453
8.088662254
8.889229977
10.58807121
9.166537116
7.84746042
5.770312089
12.48373765
6.958943274
6.783292732
9.11557872
9.188013057
6.627870286
11.99804264
8.68087124
15.1866961
6.710256667
9.790297355
9.912345758
5.323078014
10.29106756
11.08261373
5.202751632
10.64741439
10.35328016
8.553053824
2.978822663
5.852000615
9.721532243
1.468558222
6.144822368
6.797532169
8.005637164
5.273538527
7.766487426
11.50843888
5.148015441
9.366538668
6.105685594
9.57949907
6.473529979
10.43944607
7.612131161
6.310729047
5.71642101
4.295114616
12.55564297
10.74592235
8.598936185
8.805537687
6.841419432
5.878935591
7.427843649
8.093678147
3.455199013
5.803269964
4.309340888
10.36726362
7.069772108
6.410233479
7.237848185
12.67514826
7.603917967
6.088712044
8.111932708
8.314701916
11.47377377
5.729765188
6.285132115
8.087051353
5.820116759
4.782020436
5.273457506
8.25729645
7.42013363
10.0878609
6.971292833
8.612203836
12.32493104
6.333224827
4.324087772
8.835248566
12.08450481
12.63178043
5.623906921
10.9059429
8.273026921
6.778574882
6.300031582
12.66154104
6.06188175
10.33762937
9.800274371
9.187254381
5.257448765
7.071957228
10.78557963
10.01782296
12.8206547
8.782714528
5.948380257
6.672448966
8.000848268
5.439258417
4.715952236
4.379858332
8.692441345
1.73371153
5.328436056
6.727359928
4.072101656
8.56443446
6.824771966
8.48501082
14.6811335
5.294104916
4.008391728
8.703675514
6.779859266
9.161368194
9.114014001
12.38247354
6.945886452
3.164824993
10.0284743
8.81460962
8.393288792
6.339352547
3.283295242
8.278364576
7.571831518
6.927849612
7.813684083
2.347907112
8.318218328
12.78866378
9.229133939
7.235386823
8.378392177
10.79239386
5.511521837
10.44209513
6.623140294
9.989779248
4.552657982
7.938108792
7.141936711
11.15088718
6.896589346
7.633560541
9.374229742
7.804253824
9.527843042
7.847839492
7.494656372
7.932367797
9.121882652
7.684680953
7.80671322
6.873710803
7.65622484
7.289779806
9.473684948
9.979064752
11.63524043
9.275186473
9.16835811
11.83240695
7.523115376
13.17760768
11.79008436
13.23767572
6.552358287
8.602942812
9.221999286
3.710996777
5.075580565
6.429905272
5.355947835
10.16280986
7.829000629
5.741338151
4.469497208
8.739358
4.925955424
14.94763622
5.744226271
7.876959243
4.70327883
6.087547774
9.762045212
5.39631282
5.125478298
10.37668507
11.52080392
7.061370392
7.79740823
9.929387957
6.454591516
4.233482201
9.587387958
3.198377348
7.486025213
9.555172176
12.06916263
3.442635245
15.81441015
6.274589554
4.969537205
13.25724462
6.73989438
8.252906997
10.49232774
7.325957525
8.185933656
4.561654785
8.405642027
5.167765726
8.960934118
5.024191757
2.619263275
9.693926285
7.015244657
4.628315453
5.017516442
8.100548583
11.81782744
7.349213908
6.140132832
8.447554628
5.064986156
6.781543936
9.514268306
9.64847507
5.628476152
5.309495322
9.146324211
8.611977771
8.214692635
9.40199721
3.373183882
7.96874319
9.359357727
9.329445326
8.19476506
5.907953074
8.178340996
9.989400179
12.89096274
7.449885403
7.056119716
10.13834917
8.620608016
6.831631652
9.582574026
4.547475123
5.918897168
8.380834714
14.09015179
8.870424342
6.208797819
9.533664865
7.261817208
9.271160046
6.955798807
9.356395586
5.657403281
10.3044652
10.75929053
6.862847768
7.307129476
3.517785098
7.157958042
8.092267062
2.619579407
6.452437084
8.406433132
5.995671937
7.248966159
14.92772435
4.314283725
6.782319296
)
;

boundaryField
{
    flow
    {
        type            zeroGradient;
    }
    obstacle
    {
        type            calculated;
        value           nonuniform List<scalar> 0();
    }
    frontAndBack
    {
        type            empty;
    }
    procBoundary2to0
    {
        type            processor;
        value           nonuniform List<scalar> 
31
(
5.271048615
8.399271852
8.033696239
6.623426612
12.34269626
8.893781466
7.905771499
5.95187315
4.778180074
8.302328083
2.856057237
6.969913089
6.402188526
6.534112463
5.110568712
14.74291935
9.382068586
9.523212884
10.17001924
6.727340008
11.01945404
7.300501263
10.34723542
12.65857911
11.01238956
6.182082297
7.595390925
10.99965084
9.664754017
3.853388302
3.853388302
)
;
    }
    procBoundary2to3
    {
        type            processor;
        value           nonuniform List<scalar> 
19
(
4.26517071
6.453799128
7.661872918
8.265101533
6.810475286
9.661101994
5.876337942
8.326040733
5.347116292
7.156843973
12.25612032
8.163841475
9.14429598
12.33946524
3.323310502
6.250267932
5.005996591
8.29336337
8.591254016
)
;
    }
}


// ************************************************************************* //
