/*--------------------------------*- C++ -*----------------------------------*\
| =========                 |                                                 |
| \\      /  F ield         | OpenFOAM: The Open Source CFD Toolbox           |
|  \\    /   O peration     | Version:  2406                                  |
|   \\  /    A nd           | Website:  www.openfoam.com                      |
|    \\/     M anipulation  |                                                 |
\*---------------------------------------------------------------------------*/
FoamFile
{
    version     2.0;
    format      ascii;
    arch        "LSB;label=32;scalar=64";
    class       volVectorField;
    location    "0.003";
    object      momentum;
}
// * * * * * * * * * * * * * * * * * * * * * * * * * * * * * * * * * * * * * //

dimensions      [1 -2 -1 0 0 0 0];

internalField   nonuniform List<vector> 
546
(
(0.006426008313 0.0002717254392 0.0001410498747)
(0.008651313841 5.397891457e-07 -2.084854214e-05)
(0.007312180817 -4.746468264e-05 0.0005873948191)
(0.007343336422 4.464929428e-05 -0.0001194900564)
(0.006373105597 0.0006404037953 0.0001548698594)
(0.01074602997 -0.0001686541494 -0.0006529693904)
(0.009957030439 0.0001084492278 -0.0007349016168)
(0.007806512724 -0.0001040892602 0.0001083447263)
(0.009449841317 0.0002046584356 4.721997177e-05)
(0.006989534419 0.0005263778088 -0.0006679638128)
(0.008291187479 9.263479684e-05 9.615992323e-06)
(0.01557358799 0.0002675265225 -0.0005725751014)
(0.01008278591 0.0004366810808 -0.0004176634858)
(0.01644355339 -0.0002295279703 -2.876756369e-06)
(0.01250065146 -0.0008859288769 3.167033581e-05)
(0.009462923002 -0.0007614990558 4.70002244e-06)
(0.0113604019 0.0002013864595 0.0002598497225)
(0.007153948587 0.0003387130628 0.0001833627446)
(0.007195065665 0.0003639533461 -0.0007333839581)
(0.006840727914 7.079435671e-05 0.0002479973832)
(0.006724623135 0.0003708086245 -8.087003981e-05)
(0.008260952953 0.0002660655198 -0.00067581082)
(0.01190171433 -0.0001044946046 0.0008414131081)
(0.006633388227 -2.253446093e-05 2.250479735e-05)
(0.008513624083 -0.0005996157885 -0.0001547603175)
(0.0112106946 0.0002514492385 0.0002502437127)
(0.009910928589 9.001918317e-05 -0.0006939715642)
(0.008042871713 0.0001870901764 -0.0003006069419)
(0.01661739433 0.0008939375699 -0.001007014483)
(0.01030349979 -0.0004205563391 0.000167087766)
(0.008611698864 0.0003536644046 0.0003466366669)
(0.007044157435 0.000156991647 0.0004786525814)
(0.009490683874 -3.601205924e-05 -0.0001077574797)
(0.00982641455 4.797741285e-05 -0.001164098351)
(0.009469432051 -0.0004415398457 0.001019345383)
(0.007320723176 -0.0003061794707 -0.0004862473119)
(0.008767283899 4.636168508e-05 0.0005822775737)
(0.008519963462 0.0001775600981 0.0005592622738)
(0.01939372023 0.0001334410407 -0.0004444691892)
(0.009481823149 0.000247848506 0.0004426813397)
(0.005412817566 0.000393461217 5.182899626e-05)
(0.01028201282 0.0008169997676 -0.000998385476)
(0.005971375817 -0.0007185556337 0.000140229616)
(0.008717274106 0.0003595180197 -0.000371992656)
(0.007909791767 0.0005541399615 0.0009825058817)
(0.007713905207 0.0002097057604 -0.0002940144927)
(0.008774018617 -0.0003647631636 -0.0006289247087)
(0.009307879861 -0.0006560862955 0.0002582438405)
(0.002803324125 0.0006593664163 -0.0002616208148)
(0.006600095735 -0.0008039019335 -0.0004108869121)
(0.009890999543 -0.0002026820174 6.96373836e-07)
(0.008238395249 0.0003180747391 0.0003371290294)
(0.007571890003 -0.0002222582712 -0.0006966816191)
(0.01021379704 -2.488214608e-05 0.0004963526284)
(0.01285021756 0.0001643116222 -0.0002948299033)
(0.01002167625 0.0001676634147 0.000166763565)
(0.006655174891 -0.0001826420663 0.0002234536896)
(0.007771154726 0.000232613432 -0.0004537320513)
(0.01001366317 -0.0004858014994 0.0006209173429)
(0.006923139313 -0.0002709659958 -0.0002620351388)
(0.007316553708 -0.0004598218964 -0.0005151064959)
(0.004886097077 -5.383325592e-05 -0.0003222858314)
(0.0114853594 0.0004041196904 0.0005039247057)
(0.007429949648 0.0009268243081 -0.000529760943)
(0.005545444392 -0.0003067391931 8.416351214e-05)
(0.007540406754 0.0006981106877 -0.0002742469261)
(0.008774220033 0.000106867848 0.0002018101438)
(0.00538220326 -6.896633929e-05 0.0008301116359)
(0.006655944605 -0.000389641795 6.081543664e-05)
(0.009369957538 -4.187578295e-05 0.0002064643261)
(0.007354354372 -0.0002443751611 9.452320474e-05)
(0.006623278196 0.0002289004493 -0.0001685920055)
(0.007829493189 0.0002662291923 0.0004160764038)
(0.005284928933 5.950963115e-06 -0.0009691022315)
(0.005287010449 -0.0006306676024 -0.0003049150127)
(0.006119042177 0.0001598070762 -5.51059171e-05)
(0.006164385693 0.0004114601078 4.28602891e-05)
(0.01097481274 -0.0002054711907 -0.0002829706856)
(0.01046530306 -0.0002130809576 2.909103121e-05)
(0.00813228138 -0.0008092445405 -0.0006618274887)
(0.006792218328 -0.001118660506 6.913324615e-05)
(0.009669535759 2.179946926e-05 -0.0005560989641)
(0.008534362424 -0.0001854964205 0.0003956840648)
(0.01199236716 0.000514458791 0.0008315665379)
(0.00881564453 0.00023886581 9.818961398e-05)
(0.005840006307 0.0006135692617 -0.0006246406967)
(0.006800324108 -0.0002071659673 -0.0005099896884)
(0.008403419734 0.0001680424446 -0.0006553000008)
(0.007386337004 -0.0001545658365 0.0006548667167)
(0.004151163944 4.675256522e-06 -0.0001227948186)
(0.008670351339 1.320689883e-05 -0.0003005904063)
(0.00645075417 0.0007290730733 0.0001478360942)
(0.007859422142 -0.0008089733185 -0.000126525703)
(0.00777493363 -0.0007266163131 -0.0005201842242)
(0.00864129776 -0.0001249030836 -0.000133842079)
(0.005574740422 0.0006473175537 0.0004454925926)
(0.006563343646 0.0004248872212 0.0004412174665)
(0.01299144098 -0.000963435144 -0.0007892543662)
(0.006416579826 -3.345802262e-05 -0.0002187929984)
(0.01123356369 -0.0006408141689 -0.0002072522154)
(0.005236053268 0.0002646970677 0.0001627548888)
(0.00741935948 -0.000489814825 0.001331329463)
(0.01043297677 -0.001110211166 -0.0002186741137)
(0.005800997563 -0.0002351129121 -0.0001811785059)
(0.011806921 0.0002204039371 -0.0003497349676)
(0.009664340695 0.0004450407991 9.976115772e-05)
(0.009163319099 0.0002051202162 0.0003071771807)
(0.008662045997 -0.0002146272464 0.000428683921)
(0.007437630618 0.0005684764393 -0.0003094837121)
(0.007041140063 -0.0005583815133 -0.0005193328168)
(0.01522189002 -0.0008339562466 0.000986095952)
(0.005880437294 0.0001536360789 0.0007417278755)
(0.007984371537 0.0004209011424 -0.0002719113561)
(0.007212550234 0.0002184036509 0.000197897242)
(0.009941398641 -0.000198150312 -0.0001810297378)
(0.01166944701 -0.001144456305 5.010744981e-06)
(0.007871442919 6.892894414e-05 0.0003965571259)
(0.006486072633 0.000381587449 0.0004250939845)
(0.006139146748 0.000335751495 7.654591706e-05)
(0.007340588784 -0.0008623224945 0.0003172905896)
(0.004250904896 -0.0003812422834 -0.0002612335518)
(0.01106860548 -0.0002734005269 0.0003392625804)
(0.007010266506 0.0001042731805 -0.0005971796874)
(0.004607820353 -0.0003488901773 0.0004166892752)
(0.01031328066 -0.0004816258974 -0.0001372544559)
(0.01194429002 0.0004335752405 -0.0002895979247)
(0.006349594601 6.197913776e-05 -0.0006001411315)
(0.008517986696 0.0006577321918 0.0002599585081)
(0.006010173699 -6.407373235e-05 -0.0003861419087)
(0.006393251761 8.254257932e-05 0.000188600531)
(0.009825627082 -4.906209282e-05 0.0003258506208)
(0.0102814509 1.793608201e-06 0.0001657721707)
(0.006178056048 0.0002975212872 0.0001994115132)
(0.007181476071 0.0003978613882 -0.0007622614178)
(0.007966527396 0.0001049404705 0.000384462133)
(0.008899610683 -8.638458507e-05 4.388598263e-05)
(0.01010377807 5.707250016e-05 0.0005449697606)
(0.008455208287 -7.548502892e-05 -0.0001665940931)
(0.01406311571 -0.0003203175864 0.00014794141)
(0.0101379755 -0.0001764481308 -0.000363703884)
(0.0053501686 -4.916386186e-05 0.0007418464417)
(0.005539891805 -6.476241547e-05 0.0006213187369)
(0.00846452186 -0.0004443566069 -0.0002131593874)
(0.01349168937 -0.0001541119969 -0.0004378081799)
(0.008665912394 -0.0003668709192 0.0002971749374)
(0.009033134696 -0.0009970052305 0.0004250289764)
(0.007871346574 1.107054163e-05 -0.0001115777379)
(0.01167317748 0.0004491291241 -0.0001418585791)
(0.00334071076 0.0002245002921 -4.123068196e-05)
(0.01173689381 -0.0002116148524 0.0002549154958)
(0.007665451524 -0.000356552079 0.0004191587703)
(0.009823631671 -5.873838436e-05 0.0001949583435)
(0.006535261435 -0.0002361437862 -0.000302476421)
(0.007105877963 -3.865224405e-05 0.0004706206988)
(0.01112114752 0.0003041317614 0.0003372520984)
(0.00983694548 9.152998387e-06 0.0003684413843)
(0.009283012301 -0.0007845059885 0.0001083744766)
(0.01081108016 -8.015561421e-05 0.0007494721909)
(0.006480768441 0.0001606899362 0.0006629870481)
(0.007917802793 0.0002885536966 -0.0001568918056)
(0.005627558588 0.0008395229028 0.0002501774548)
(0.01049503024 -8.386984425e-05 0.0002097035502)
(0.01030824968 0.0001549419055 0.0002305898624)
(0.007839529195 -0.0006580765884 8.570960975e-05)
(0.005183709439 -1.428883175e-05 0.0004667335492)
(0.005145347993 0.0001503581981 -0.0002191654133)
(0.008405623733 7.401755421e-05 0.0002153804923)
(0.006400297416 3.108385799e-05 0.0002908232639)
(0.009404338421 0.0005533998389 -0.0001661411581)
(0.009469654488 -4.05848916e-05 -0.000582672969)
(0.007377274923 -0.0003707248876 0.0004277936117)
(0.01011630057 -0.0008634085409 -3.677105257e-05)
(0.01309647303 0.0008443689553 -0.0003470910243)
(0.008412174133 0.000283841686 -0.0003157287611)
(0.008243092112 -0.0001149753208 -5.778620139e-05)
(0.006914155829 0.000429700702 8.920121471e-05)
(0.004103113203 -1.765461298e-05 -0.0006149724695)
(0.006195477024 0.0004243952835 0.0002775272715)
(0.01033646619 0.0002331046795 0.001041206715)
(0.007943152633 -6.324625228e-05 -0.0001795154313)
(0.007684732728 -0.0003676776644 0.0008255939319)
(0.009509624804 1.012153633e-05 0.000297877867)
(0.004911431805 -0.0002712714741 0.0004149746)
(0.008034912934 -5.854608221e-05 -5.317631288e-05)
(0.01198849649 -0.0006584100017 0.0003357363822)
(0.005621702261 0.0002210677026 -0.0001595169138)
(0.01150318525 0.0006054605321 0.0003875424983)
(0.01390115657 -0.0003146238556 0.0001768543573)
(0.01012130496 -0.0004860049146 -0.0007617721408)
(0.009919177107 -5.956313437e-05 1.807153683e-05)
(0.005906999037 -0.0004952208046 9.284549078e-05)
(0.006669344873 -0.0001609188641 0.0002058343918)
(0.01269678046 0.0006756171213 4.03698053e-06)
(0.004828889081 -3.13800311e-05 -0.0002141668311)
(0.008903245449 -0.0001659874155 0.0001212821193)
(0.003769925886 0.0001583713397 -0.0003264592414)
(0.003798895487 0.0001333313975 0.0002162855194)
(0.002759062287 -0.0003692598429 0.0003047784258)
(0.01151969664 0.001144470353 0.0006211529194)
(0.001472505922 8.858086878e-05 0.0002006566809)
(0.007108114519 0.0001130791366 -8.801863954e-05)
(0.007004258725 0.0004451647524 -0.0004120752055)
(0.006811879857 -0.0001920834148 -0.0003503358292)
(0.005075591378 -0.0001358232059 -0.0003910209515)
(0.006373401602 0.0001604788833 0.000103953932)
(0.00446766233 -0.0001480253576 0.0002909631946)
(0.008417652042 -0.0006911328311 0.0001649433665)
(0.007723760341 -0.0009469209244 0.0003567782928)
(0.007878343187 -0.000306301225 0.000700181477)
(0.01038047372 0.0001719400081 -2.960681892e-05)
(0.003389642885 0.0001644553137 -9.739661614e-05)
(0.005801794802 -0.0002840907959 0.0002095171765)
(0.0058327247 0.0004263062278 -5.461969908e-05)
(0.01131877299 0.0004262788841 7.574641658e-05)
(0.008303724336 0.0002568816641 -0.0004706298066)
(0.00803699782 -7.26684038e-05 -0.0008377569095)
(0.008236313155 0.0001595102747 0.000567885561)
(0.01224821592 -0.0001415118422 -0.0003487084472)
(0.01220607901 0.0001677206431 -0.0003880074761)
(0.007497685704 0.0001258846847 -0.0001156179422)
(0.00614553694 -0.0003116026993 -3.955701454e-05)
(0.007988727608 0.0002628345463 -0.0002909934331)
(0.01150693978 7.713602705e-05 -0.0004891231074)
(0.007945371954 0.0007183403215 -2.441851913e-05)
(0.007722689833 0.0004623878895 -0.000180236848)
(0.01040971634 -0.0004966752673 -0.0005534580075)
(0.01312340646 -0.0006074134079 -0.0001840620488)
(0.007803442034 0.0003833205324 5.43881226e-05)
(0.007457471831 -0.0004313608297 0.000221899016)
(0.01024831592 0.001111843921 -0.0003439651704)
(0.003929677404 0.0004674441312 -2.6085455e-05)
(0.005592883655 -0.0002010670891 0.0007611656272)
(0.009975265966 -0.0001379433809 -0.0004367625564)
(0.007258834059 -0.0003394270417 -1.123627934e-05)
(0.008848299141 -0.0005289654095 0.0001672935259)
(0.009012426259 -9.706226546e-05 -0.0003635962471)
(0.007209902458 -0.0004483149692 -0.0003767167478)
(0.003937912405 -0.0002440901261 -0.0002729280421)
(0.01012931217 -0.0002409618006 0.0006541213471)
(0.003762949409 -0.0003205220268 0.0002696152075)
(0.008601483531 0.0002222960805 0.0005005469612)
(0.006800297146 0.0003277026116 -0.0004617086819)
(0.008983793184 -0.0002258275818 0.0001908748312)
(0.008100068572 -2.701334554e-05 0.0001726980002)
(0.006157184135 0.0001155055232 -0.0001959468816)
(0.005307594913 6.175413211e-05 -0.0002761229441)
(0.009242788848 -0.0004303793867 -0.0005980910021)
(0.008737907324 -0.0002351453596 -2.725298503e-06)
(0.005249342993 -0.0001405626274 -0.0002046287933)
(0.007856808292 0.0004831396042 -0.0001753891269)
(0.004821877243 0.0005312097647 -0.0001690995498)
(0.008581087104 0.0006073770619 -0.0001420047146)
(0.004976406234 -0.000538937537 -9.603038593e-05)
(0.009797960922 -0.0001297806155 9.769096339e-05)
(0.00573449689 -0.0001106417096 0.0002116867973)
(0.006871615869 -0.0004711676911 0.0001783232272)
(0.008302381364 8.927936133e-05 -4.313757602e-05)
(0.007319967916 -0.001368752072 -0.0005090661454)
(0.004821454065 -0.0001268279825 0.0005618855344)
(0.009701407089 0.001118491503 0.00015428924)
(0.005961630512 0.0001637037461 2.643270705e-05)
(0.009478830788 -0.000584827496 0.0001921208404)
(0.007236959677 0.0005891894062 -0.0004530451989)
(0.008448153946 0.0005043597393 5.950052659e-05)
(0.006880944807 0.0002322942907 0.0004070038045)
(0.008534660156 -1.385526824e-05 0.001043037862)
(0.009200696136 0.0006484398548 0.0003634869469)
(0.0116454568 0.0006685561951 0.0001137360296)
(0.01005610604 0.0002979857768 0.0001876489025)
(0.008748889297 0.0009685353364 1.662250196e-05)
(0.006024921222 1.959763853e-05 -0.0003706445563)
(0.01361192826 0.000339516165 9.608445083e-05)
(0.007291638803 -0.0001465456825 -0.0004057896295)
(0.0074705593 0.0002102839583 0.0004576601824)
(0.009697626981 0.0003011932366 -0.0007308830249)
(0.009815248544 -0.0004255818355 0.0002187531407)
(0.006567129354 0.0001805545444 -0.0001567294185)
(0.0123335564 -0.0001833455365 -0.0007664378702)
(0.009554535724 -0.0001790449696 -2.653280899e-06)
(0.01651854615 0.0004066539724 0.0008105593689)
(0.007106078936 0.0002033884981 0.0002313038509)
(0.009769499105 0.0003009054654 0.0009058107549)
(0.01006973195 -0.000347445172 -0.0003593628771)
(0.006134532217 -0.0004710557185 -0.001592319801)
(0.01106108162 0.0002174038327 0.0007764311109)
(0.01197045421 0.001133395548 0.0002583022871)
(0.005341895443 0.0001474529835 -6.883304227e-05)
(0.01203710486 0.001320464602 -0.0001173798184)
(0.01085463422 -0.0004541282468 -0.0005802160214)
(0.009030180873 0.0001893667163 -0.0004498931487)
(0.003669018346 0.0001174178126 0.0004157221306)
(0.005584882307 -0.0005195741541 -0.0006427758181)
(0.01084702386 -6.974713645e-05 -7.699389278e-05)
(0.001622108569 -0.0001248028212 0.0001143745044)
(0.006973217661 -0.0005017371527 0.0008125404969)
(0.0071996324 0.0005300476254 -7.242282332e-05)
(0.008474279821 -0.0004891464039 0.0004542272731)
(0.005926990151 -0.001143427016 -2.050337216e-05)
(0.008608572585 0.0002734277648 0.0001628378052)
(0.01303900419 0.0003725026932 7.274154738e-05)
(0.005738339715 -9.113253665e-05 -0.0004885557301)
(0.009530295541 -0.001118189064 0.0008585849372)
(0.006760338341 0.0001817394118 -0.0006967382727)
(0.009932899137 0.0006144528169 -2.264427651e-05)
(0.007243396276 -3.143127005e-05 -8.775004236e-05)
(0.01054911205 -0.0002910891928 -4.535794448e-06)
(0.007713005781 0.0001362882324 0.0003694191453)
(0.006437392157 -0.0001483154684 -0.0002329649472)
(0.00645534964 -0.0003800647322 8.745687814e-06)
(0.005651250658 -0.0002590688993 0.0001759022272)
(0.01316434386 -0.0003894067946 -0.001006197423)
(0.01123775875 -0.0001895709892 -0.0001594600751)
(0.01008591369 0.0009710748167 6.921223438e-05)
(0.009033136771 8.0152117e-05 0.0005750711678)
(0.00780143876 -0.001044147842 -0.0008337693418)
(0.005957416765 -0.0001291035481 -0.0002413199303)
(0.007840297753 0.0002717905888 0.0006932376627)
(0.008168383721 0.0003550087867 0.0001113693105)
(0.003741292375 -0.0003429534733 0.0003540538031)
(0.006047656804 0.0002718214862 -0.0002901029869)
(0.005045547584 0.0004242034118 0.000223049468)
(0.01029993316 0.0002087210429 -0.000241254903)
(0.007542237602 -0.0003396004747 0.0004671528041)
(0.006245647879 0.0004410783194 1.983583386e-05)
(0.007351095364 -2.83374422e-05 0.0001418686816)
(0.01182608017 -0.0008193679362 -0.0004284643616)
(0.00821018389 4.360933421e-05 0.0004808265623)
(0.006404551092 5.855783152e-06 -1.820997056e-05)
(0.009159285692 -0.0003696310445 0.0001757700987)
(0.008636356489 0.0007743140771 0.0007447080231)
(0.01135569786 0.0003052657468 0.001251450867)
(0.006096583292 -0.0003394722321 -0.000363873475)
(0.007138064908 -7.264928423e-05 -0.0001568099956)
(0.007825290484 4.758903055e-05 -6.990852637e-05)
(0.006061940976 -0.0004633954838 0.0003733780671)
(0.004770791436 8.912783679e-05 -1.437128789e-05)
(0.005740847673 0.0001678727018 -0.0001942247943)
(0.009229492011 -0.0002648239507 0.0002933416986)
(0.008053933539 -0.0001162194258 0.0001141214243)
(0.01057701888 0.000268474805 0.0005793036561)
(0.006695165624 0.0003832901562 -0.0005787914694)
(0.00848061327 3.16438801e-05 -0.000250386925)
(0.01259290805 5.5179098e-05 0.001355211818)
(0.006916132148 -6.589727817e-05 -0.0003198901673)
(0.004420086736 0.0002954323175 -0.0002449541356)
(0.009074898458 0.000736530578 0.0003611167116)
(0.01218644295 -0.0002679255865 -0.0002807045062)
(0.01377074594 0.0001039063878 -0.0004605699916)
(0.006151771858 0.0001437132487 0.0001504873385)
(0.01223957525 0.0008336539602 0.000189087115)
(0.00888038134 -0.0006750480695 -0.0005824588382)
(0.007525549202 -0.0004412266698 3.118502035e-05)
(0.006364127891 0.0003529603891 0.0005498628434)
(0.01284910435 0.0005506473579 0.0002543765242)
(0.00661728228 0.0003294712203 0.001034340314)
(0.01102908386 3.836930156e-05 0.001021158981)
(0.009515169571 0.000590276767 -0.0002153751677)
(0.00959952934 0.0001597579001 0.0005043757389)
(0.005432284923 0.0001224822415 -3.851124949e-05)
(0.007568842909 -0.0006483458363 0.001135364607)
(0.01171626164 0.0002936517855 -6.850756749e-06)
(0.01136007213 -0.0002846991017 -9.309710934e-05)
(0.0135057814 -0.0002662159884 -0.0007192864713)
(0.008792285557 0.0001131453071 0.0006062738148)
(0.006422828176 -0.0001753771648 -3.113994283e-05)
(0.007420462496 -0.0009080041982 0.0004582936733)
(0.008978587192 0.0002722952929 0.0001759172461)
(0.006021986796 -0.0009050006092 -0.0002265845896)
(0.005486568313 0.0002674967497 -1.811702146e-05)
(0.004997837503 -0.0001798625897 -0.0001110289432)
(0.009911175308 -2.664795416e-05 -0.0004980547162)
(0.001829900182 -0.0002060196564 0.0002703612817)
(0.006197497815 0.0001064732132 -0.0005485728064)
(0.00716756266 -0.0003023156239 -0.0002626717231)
(0.004891394823 -0.0006655685683 -0.0004231413802)
(0.008444066317 -3.00243901e-05 0.0001398534469)
(0.007289922091 0.0008124533501 -0.0001539058433)
(0.008985742724 -0.0006823939918 6.82132653e-05)
(0.01552478194 0.0003527048795 7.945383938e-05)
(0.005514230764 9.266486573e-06 -0.0003082473647)
(0.004453991851 -6.643833329e-06 0.0005733234155)
(0.009553815854 -0.0007498820184 0.0002282303854)
(0.007218505339 1.596250746e-05 -0.0003468831892)
(0.009914961305 0.0004804608667 0.0003005221949)
(0.009750851042 -0.0006830482926 4.214555499e-05)
(0.013045187 0.0004322288844 -0.00032941953)
(0.007476638939 -0.0003214989702 0.0003077917205)
(0.003438671611 -0.0001947519861 5.724671366e-06)
(0.01131476572 -0.0009367267563 1.42876989e-05)
(0.009264329594 -0.0005294932561 0.0004098651344)
(0.008956824658 0.0005648576152 -0.0003733337302)
(0.006162494305 0.0001626689885 -0.0002244650963)
(0.003956823898 0.0002715079208 -0.0004205211007)
(0.008031501939 -0.0005688892955 -8.559501927e-05)
(0.008213123882 0.000382244219 -0.0004333416363)
(0.007653430486 0.0003733330697 0.0008178730366)
(0.008061781814 -4.956559005e-05 0.000164815713)
(0.002669346807 -0.000469536599 3.188581565e-05)
(0.008377706077 8.712663817e-05 0.0007456306566)
(0.01397477042 -0.0005547254221 -0.000640566919)
(0.008872379781 0.0002350269245 -0.0009231098599)
(0.008017339836 0.0008895974765 -8.420521071e-05)
(0.008366214487 -0.000984064994 0.0008543607346)
(0.01133751827 -0.0002050415795 0.0003099930212)
(0.005983183045 -0.0004292492576 -0.0003340726533)
(0.01082306037 0.0001141509066 0.0002454146889)
(0.006919144154 -0.0002417621123 0.000155035077)
(0.00956891113 0.0002194589037 -0.0004896076253)
(0.005029313723 2.432541e-05 -4.286778149e-05)
(0.008540146865 0.0003203032103 0.0005314330558)
(0.008295254471 0.0002631212829 -0.000538293104)
(0.01122873902 0.0006489350267 -8.860022966e-05)
(0.007766760267 -0.0002387235876 -0.0004614393775)
(0.008361540505 -0.0008146785908 0.0001652793817)
(0.009961213112 -0.0004132110513 -0.0001362644116)
(0.008793612518 8.560874183e-05 0.0008379436788)
(0.009473426557 0.0002755278189 -0.0001144318403)
(0.008325069934 -0.0002817987898 0.0005804223515)
(0.007707675871 -9.178266861e-05 -0.0004108159097)
(0.008435380727 0.0004025635474 0.0001021173894)
(0.01009123359 -0.000503833507 0.0005316693539)
(0.008462373552 0.0005033431715 0.0003254265007)
(0.008333403421 -1.090174599e-06 -0.0003962988315)
(0.006873600249 -7.181982601e-05 0.0002920869609)
(0.008672264293 0.0004022274429 0.0002225182032)
(0.006992450001 0.0001983302261 0.0001569147692)
(0.01029814341 0.001203860399 0.0001558753943)
(0.01101000813 0.0001572270602 0.001150955762)
(0.01235460665 -8.636192369e-05 0.0002539698142)
(0.009773004926 1.134583127e-05 -0.0004046378122)
(0.01028972055 0.0006350318787 -0.00023139246)
(0.01222229168 -4.135645397e-05 8.998609388e-05)
(0.007485923401 0.0004691228617 0.0003403287682)
(0.01456242638 -0.0008600267297 0.000210958234)
(0.01273597699 -0.0006986352748 -0.0004487542011)
(0.01391474206 -0.0003045318438 0.0007356801246)
(0.006499664392 0.0002312310287 -0.0002243255542)
(0.008797084453 -0.0001578768331 -0.0006641407536)
(0.0101633146 0.0006617287549 -0.0007739977419)
(0.004130588518 0.0002123653975 0.0005148866566)
(0.005393593453 8.919341032e-05 0.0001666652863)
(0.006963766156 -0.0006786340111 -0.0003767117674)
(0.005613357545 3.239545181e-05 -3.361201324e-05)
(0.01011248163 -0.0007652186339 0.00137640408)
(0.008140728111 -0.0002567430321 -0.0003025701432)
(0.005904055663 0.0004965183887 -0.0006829532106)
(0.004382916103 -0.0003973347122 9.666090286e-07)
(0.009421904402 0.0002970490361 -0.000534837603)
(0.005244294624 -0.0003534819892 -0.0002847632278)
(0.0151828128 -0.0001398165751 0.0002644713867)
(0.005889891039 -0.0007897196206 0.0001052488184)
(0.008736900434 0.0001035636115 -0.0001544779363)
(0.004897649127 0.000583704035 0.0003746548632)
(0.006774186694 -7.958792634e-05 0.0001075011226)
(0.0104480186 0.0004427731986 2.777171068e-05)
(0.006105997909 0.0004465126889 0.0006755739786)
(0.00524816892 0.0003755995137 0.0003898753098)
(0.01148406123 0.0004420581769 -0.0001021978681)
(0.01278515497 2.801938138e-05 0.0001307046548)
(0.00631114405 0.0001881234453 -0.000155298326)
(0.00898067448 -0.000646764809 -0.0004803582884)
(0.01034782227 0.0004999607301 -0.0007897495014)
(0.00757179191 8.050535089e-05 -0.0002014050465)
(0.004756286329 0.0002786650886 0.0004210731919)
(0.01097289088 0.0004131159704 -0.0003336435984)
(0.003534759506 0.000128960639 0.0006315755448)
(0.007991778626 -7.709289734e-05 7.323210053e-06)
(0.01072104076 0.0003801016374 0.0005706283028)
(0.01229721189 -0.0008899010624 -0.0002337272376)
(0.003711513276 -4.225309714e-05 0.0001811824273)
(0.01595817811 0.0009066719349 -0.0009888840543)
(0.006569835723 0.0001533446755 -0.0004748791352)
(0.005813174139 -0.0001394043799 0.0004217457914)
(0.01350689559 -5.356335342e-05 -0.000955136618)
(0.007204898973 -0.0004840552263 -0.0001966892946)
(0.00901852959 0.0001962424954 0.0002425424685)
(0.01138257682 -1.869946017e-05 0.0002799108283)
(0.008292812087 0.0007914731891 0.0001325638804)
(0.008378056092 0.00093698195 8.329164191e-05)
(0.005191218823 0.0004437764342 5.934961073e-05)
(0.00849731856 0.0001986036752 6.467098045e-05)
(0.00546041336 0.0002837227509 0.0002276165811)
(0.009649934052 0.0004026871272 0.0003748312962)
(0.004838375758 -0.0004165687838 3.84398133e-05)
(0.002827858175 -0.0001330845549 -8.849519761e-05)
(0.00997702564 0.001313547142 0.0003763912287)
(0.007139845407 0.0002941932315 0.0008333946149)
(0.004124037044 -0.0005593660871 -0.0002929553696)
(0.005327969437 -5.860940673e-05 3.178551859e-05)
(0.007824571084 -0.0001923438548 0.0008543389115)
(0.01197146772 -0.0009633415017 -0.000888368018)
(0.007577663644 -0.0003816471135 -0.000333894014)
(0.006873177773 -8.85268615e-05 0.0001719184902)
(0.009016333448 1.401799433e-05 0.0001265235893)
(0.005827752168 -5.576321766e-05 6.455720193e-05)
(0.007428126857 0.0001715316131 0.0003725022481)
(0.009697312921 0.0001216533324 0.0003649985276)
(0.009581142288 0.0008918301905 -0.000149898798)
(0.006007073411 0.0001754865488 -1.613844019e-05)
(0.0054710852 0.0005669793623 7.156090108e-05)
(0.009745000878 -0.0002931068663 -0.0002502536986)
(0.00905652765 -0.0005362703601 -0.0003631449843)
(0.009188157327 0.0007044118678 0.0002216175534)
(0.01037027117 0.0006873702764 -0.001244234869)
(0.003381091374 0.0001013984475 0.0001687695507)
(0.008746373196 0.0002022209557 -0.0002969538213)
(0.01046059672 9.390286183e-05 -0.0008240760873)
(0.009329697465 0.000143822082 0.00100386514)
(0.00803851714 0.0001284711023 -0.001072492911)
(0.006710295347 -0.0002030229746 0.0006155694297)
(0.008580543922 8.939989474e-05 -0.0001031768693)
(0.01027182186 -0.0003003247905 7.504913447e-05)
(0.0128328758 -0.0001177727891 -0.0004260607587)
(0.008043189413 0.00010777956 0.0008435724124)
(0.007943207423 -0.0004669584207 -3.755202432e-06)
(0.01089573634 6.43524097e-05 -6.859330974e-05)
(0.009512600687 -0.0005885515277 0.0001300515462)
(0.00853453031 -5.584338469e-05 0.0003516309551)
(0.01044692513 -0.0002838940573 0.0001103641709)
(0.004661348067 0.0005841816108 0.0001645314213)
(0.005904749551 -4.769149588e-05 0.000634748604)
(0.009373290102 -0.0002698586407 0.0001237362843)
(0.0147717404 0.0007575178413 -0.0008668019729)
(0.008774677959 0.0002580452224 -0.001195068732)
(0.007002349045 -0.000871630989 0.0004523195496)
(0.01011476757 0.0008220210205 -0.0005524162125)
(0.007718203635 -0.001075675789 -0.0005788824682)
(0.009945459001 0.000582990375 0.0002416805151)
(0.00720798485 0.0003570779084 2.086480195e-05)
(0.009885073356 0.0001888527262 8.308709748e-05)
(0.006040410166 -0.0005832282309 -0.000179189717)
(0.01026745153 0.0003394359326 0.0002276322672)
(0.01141084051 -0.0007389186889 0.0004903851411)
(0.007098258605 -7.609937102e-05 -0.0004770513837)
(0.007609237867 0.0004748569236 -0.0005775350019)
(0.003692525298 0.0002572950996 -6.695837889e-05)
(0.007731176166 6.630907464e-05 8.983077319e-05)
(0.008397692275 0.0002049009229 -0.0005097566068)
(0.003078359142 0.0002201705225 0.000204436845)
(0.007546170548 0.0001736309219 -0.0001278138157)
(0.009084870961 0.0001341014247 9.993417969e-05)
(0.006303632027 0.0004731209968 0.0005003017635)
(0.007763234315 -0.000105996892 -0.0009886765682)
(0.01574518134 -0.0004440568367 -5.332187236e-05)
(0.004668804233 0.0003841468968 5.166370063e-05)
(0.007861091747 0.0006889180214 0.0004410734856)
)
;

boundaryField
{
    flow
    {
        type            zeroGradient;
    }
    obstacle
    {
        type            calculated;
        value           nonuniform List<vector> 0();
    }
    frontAndBack
    {
        type            empty;
    }
    procBoundary2to0
    {
        type            processor;
        value           nonuniform List<vector> 
31
(
(0.005839808469 -9.801785145e-05 0.000756226656)
(0.009361050682 -8.822026191e-05 -0.0002419437489)
(0.009050230721 0.0002050142796 0.0003116830091)
(0.007023531469 -2.766112882e-05 6.617297079e-05)
(0.0127395494 -0.0001417646004 0.0001779247708)
(0.009924606814 0.0002752427959 -0.0001612045615)
(0.007986984828 -7.352065232e-05 -8.719709901e-05)
(0.006728419173 4.504828465e-05 -0.0004505702798)
(0.005170545959 0.0002992965367 -0.0004064655825)
(0.008915376062 0.0002333379352 0.0002615250033)
(0.003401824783 -9.971208568e-05 0.000268150197)
(0.007138006866 0.0002187146462 -0.0001228910711)
(0.006782204346 -0.0003236823769 0.0001035579386)
(0.007712197918 -0.0003270402649 -0.0002935845684)
(0.005407275955 0.0004698956083 -0.0003214963273)
(0.01502596926 0.0007858232924 -0.0004247812442)
(0.009298233972 0.0002235860521 -0.0006300621008)
(0.01027960783 -0.0003008328625 -0.0001728434737)
(0.01136814362 -0.0002201167953 -0.0002794589737)
(0.007352343 1.03207143e-05 0.0003607004691)
(0.01214048598 -0.0004037942548 0.0009907322875)
(0.00793227267 -0.0001332355205 0.0008188662823)
(0.01141308919 -0.0005526810505 0.0008827799605)
(0.01361646367 -0.0002243356255 7.45020453e-05)
(0.01153974251 0.001140613332 0.0003825718243)
(0.006568537199 0.0003131347294 0.001108436245)
(0.007671836787 -0.0002554879968 0.0003680122235)
(0.01156287666 -0.0006378214757 -0.000478565007)
(0.009954185701 -0.001067786031 0.0001632781107)
(0.004630569369 -8.581390873e-05 -0.0001276967366)
(0.004630569369 -8.581390873e-05 -0.0001276967366)
)
;
    }
    procBoundary2to3
    {
        type            processor;
        value           nonuniform List<vector> 
19
(
(0.004005226427 4.973655706e-05 0.0001633832735)
(0.006321017026 5.684428973e-05 -5.793057882e-05)