/*--------------------------------*- C++ -*----------------------------------*\
| =========                 |                                                 |
| \\      /  F ield         | OpenFOAM: The Open Source CFD Toolbox           |
|  \\    /   O peration     | Version:  2406                                  |
|   \\  /    A nd           | Website:  www.openfoam.com                      |
|    \\/     M anipulation  |                                                 |
\*---------------------------------------------------------------------------*/
FoamFile
{
    version     2.0;
    format      ascii;
    arch        "LSB;label=32;scalar=64";
    class       volVectorField;
    location    "0.003";
    object      momentumMean;
}
// * * * * * * * * * * * * * * * * * * * * * * * * * * * * * * * * * * * * * //

dimensions      [1 -2 -1 0 0 0 0];

internalField   nonuniform List<vector> 
546
(
(0.006321713564 -1.767569587e-05 3.053465129e-06)
(0.008279205158 -1.176066371e-05 -9.237721687e-06)
(0.008388168381 2.442030806e-05 -1.01933078e-05)
(0.008312122744 3.056395677e-05 -2.429086091e-05)
(0.008353809322 1.092586978e-05 -8.342092966e-06)
(0.008358388521 -4.71716742e-06 -1.995517789e-06)
(0.008290257806 2.169825017e-07 -8.113951521e-06)
(0.008225168641 -5.911722254e-06 -9.336503591e-06)
(0.008204204543 -2.095621795e-05 -9.136291473e-06)
(0.008186325406 -5.327396206e-06 -1.413493963e-05)
(0.008197315859 -1.57223258e-05 -2.750716494e-05)
(0.008353690833 4.354194471e-06 1.172619164e-06)
(0.008373691038 1.097928277e-05 1.97714337e-06)
(0.008311902082 1.415068185e-05 1.682276792e-05)
(0.008331639435 2.382054224e-05 2.81335548e-05)
(0.008255405389 2.707878594e-05 7.98534048e-06)
(0.008285904534 9.04323688e-06 -9.133519655e-06)
(0.008235882575 -6.608765376e-06 -8.938639563e-06)
(0.008167019541 -3.600952966e-06 -6.592478776e-06)
(0.008116069602 1.445796675e-07 -1.166734742e-05)
(0.006402428277 2.121655359e-05 8.516273921e-06)
(0.008415354776 1.770022749e-05 1.61135753e-05)
(0.008435041677 8.342513248e-06 2.374880745e-05)
(0.008436925111 -1.189051535e-05 1.217211699e-05)
(0.008427169484 1.520611152e-06 -8.331695092e-06)
(0.008436211249 1.208921974e-05 -1.660695185e-05)
(0.008432752189 -1.05130559e-05 -1.996639045e-05)
(0.008413919046 -1.045028434e-05 -1.630039632e-05)
(0.008395806594 4.948515119e-06 -2.659910827e-05)
(0.008381122966 1.485828647e-05 -1.31979702e-05)
(0.008384968829 1.616441731e-05 -1.756954628e-05)
(0.008315440788 5.062034656e-06 -1.902499498e-05)
(0.008316572228 -3.41755707e-06 -3.291033802e-05)
(0.008269021264 -9.197816267e-06 -2.901997095e-05)
(0.008263505919 -7.684182709e-06 -2.711633729e-05)
(0.008318341419 4.683152279e-06 -7.946728794e-06)
(0.008363390234 2.940703677e-07 -7.597610369e-06)
(0.008436815287 2.251158522e-05 -5.065312084e-06)
(0.008459318682 5.63732053e-06 1.239190573e-05)
(0.008471761263 1.095907796e-05 1.979769523e-05)
(0.006306947844 2.187539421e-06 -1.957623413e-05)
(0.008287549714 -9.170776927e-07 -3.356301352e-05)
(0.008272714584 -2.316902127e-06 -2.011010177e-05)
(0.008217818287 -1.689883089e-05 -1.912730627e-05)
(0.008318959096 -1.152393894e-05 -3.030133636e-06)
(0.008380339715 -1.868927826e-05 -2.62424404e-06)
(0.008386437584 1.624972465e-05 -3.264559084e-06)
(0.008386868766 2.531666681e-05 -3.015115584e-06)
(0.008396295577 2.87185785e-05 -4.799669651e-06)
(0.008445267472 1.671403224e-06 -1.05663449e-05)
(0.008419918655 1.619994933e-05 -2.168329574e-05)
(0.008467391907 1.446526285e-05 -1.713727109e-05)
(0.008398851036 1.363790623e-05 -1.267386318e-05)
(0.008432798142 -2.884500662e-06 -4.126320077e-08)
(0.008376728748 1.179158052e-06 -9.436740014e-06)
(0.008330889156 4.907044503e-06 -7.256298491e-06)
(0.008234264402 2.017701305e-06 -6.286258808e-06)
(0.0082656557 1.957549519e-06 -8.144131668e-06)
(0.008271829316 3.201893937e-06 -8.554950606e-06)
(0.00825322237 3.185806577e-06 -3.256112882e-05)
(0.00635371608 -3.156202256e-06 1.914754889e-07)
(0.008376716491 -1.522022636e-05 1.981459153e-05)
(0.008379955479 -9.218257354e-06 7.951396916e-06)
(0.008328086592 -7.820633311e-06 8.281522816e-06)
(0.00822515553 -1.121261567e-05 1.043162836e-05)
(0.008220534823 4.015050439e-07 1.948313953e-05)
(0.008304933225 -2.620210638e-05 1.543177424e-05)
(0.00829759285 -2.270916607e-05 3.119287259e-06)
(0.008334938342 -2.060356017e-05 -2.219211433e-06)
(0.008315251038 2.436805122e-06 5.854604388e-06)
(0.008306733453 -1.556267735e-05 3.001003114e-06)
(0.008238988774 8.205148172e-07 4.833321448e-06)
(0.008335281387 2.226554596e-05 -1.627802242e-05)
(0.008341364306 3.704268206e-05 -4.641588865e-06)
(0.008412425301 3.373068601e-05 1.586972237e-06)
(0.008367055422 8.481235484e-06 -2.082203646e-06)
(0.008323409249 1.502183597e-05 1.872750793e-06)
(0.008327377807 -2.842678081e-06 4.64439739e-06)
(0.00847100063 -1.883113168e-05 3.166502366e-06)
(0.008386616281 -1.776267984e-05 1.436599165e-05)
(0.006368406078 -1.352556221e-05 -5.005808203e-06)
(0.008448749061 7.227216761e-06 -8.653424633e-06)
(0.008410382823 -5.234169027e-07 -7.225045819e-06)
(0.0083778579 2.098720028e-06 -6.169261815e-06)
(0.0084269685 -1.27109272e-06 -2.099171333e-06)
(0.008371580385 8.756793342e-06 -1.248595175e-05)
(0.008264453924 1.435673567e-05 -2.078594756e-07)
(0.008317157839 7.840378471e-06 1.961323953e-05)
(0.008239849419 -1.841676233e-05 1.457346889e-05)
(0.008167221426 -1.183994377e-05 1.515857459e-05)
(0.008231889115 2.154188749e-05 1.861860097e-05)
(0.008277307005 1.6030573e-06 1.876813677e-05)
(0.008302145103 -3.678548866e-06 3.496256504e-05)
(0.008307233046 -1.965416606e-05 2.79049451e-05)
(0.008303841659 -1.751068601e-05 1.848888219e-05)
(0.008375007436 -1.640549266e-06 2.380682827e-05)
(0.008383600251 -4.909270989e-07 2.733773342e-05)
(0.008463028432 -5.960735215e-06 2.142660832e-05)
(0.008333222115 5.548339189e-06 2.582744227e-05)
(0.008301694096 1.674928546e-05 2.436484348e-05)
(0.006380957184 -8.684394095e-07 7.790014671e-06)
(0.008300870601 2.339464906e-08 8.692519018e-06)
(0.00828269944 7.912843741e-06 8.922594633e-06)
(0.00826980485 2.801271172e-05 1.394353823e-05)
(0.008282245562 2.334956225e-05 2.020378607e-05)
(0.008320597864 1.255516379e-05 2.467185206e-05)
(0.008297980268 1.541410034e-05 1.677126253e-05)
(0.008252301301 3.114757305e-07 -3.970152683e-06)
(0.008307127664 2.17210769e-05 1.585792864e-05)
(0.008326889338 -5.318006178e-07 1.555428743e-05)
(0.008289558666 -2.682870212e-05 2.82915419e-05)
(0.008255599464 -1.589188651e-05 1.749850356e-05)
(0.008223079038 -1.035163636e-05 1.417193745e-05)
(0.008259746235 -9.046484267e-06 1.055740217e-05)
(0.00825484313 -2.247900267e-05 1.945236432e-05)
(0.008332577567 -1.739502822e-05 -8.867098008e-07)
(0.008371982795 -7.5461896e-06 -1.027655472e-05)
(0.008268307393 -2.294699058e-06 -1.134082314e-05)
(0.008335374015 3.741999737e-06 -1.346617244e-05)
(0.008407287725 3.697593788e-06 -6.0923594e-06)
(0.006283886992 3.694970962e-06 -3.552045499e-06)
(0.008291679685 1.341145043e-05 1.736920003e-05)
(0.008368407817 9.805510659e-06 1.780941259e-05)
(0.008350927533 5.015077937e-06 1.629322233e-06)
(0.00836448617 -1.175359262e-05 -3.513532569e-06)
(0.008420181699 1.832948192e-06 -1.844210664e-05)
(0.00838835381 3.916286596e-06 2.717103944e-06)
(0.008446665471 -2.502194406e-06 9.112870996e-06)
(0.008402808689 8.575341309e-06 4.395064512e-06)
(0.008450468842 7.295672644e-07 9.513212576e-06)
(0.008496564304 2.146005045e-05 1.69574106e-05)
(0.008456792753 1.86323716e-05 1.24335184e-05)
(0.008476870682 -2.652456259e-07 6.018159647e-06)
(0.008393664619 -6.323382408e-06 4.473610638e-06)
(0.008359596669 1.014977474e-05 5.568841752e-06)
(0.008322108225 1.142527893e-05 8.735242135e-06)
(0.008301462465 -1.016521671e-06 5.144636378e-06)
(0.008205888884 -3.093128848e-05 1.771919999e-05)
(0.008188828359 -2.126900723e-05 1.782536739e-05)
(0.008202641032 -2.788214076e-05 2.910962414e-06)
(0.006359428828 7.618377294e-06 4.155364896e-06)
(0.008380942353 -7.13526997e-06 -1.450690612e-05)
(0.008394924945 -2.209690449e-05 -2.550264257e-05)
(0.008375484939 -1.838268565e-05 -1.160800743e-05)
(0.008380381239 -1.68891931e-05 1.665185533e-05)
(0.008374034801 -4.544730812e-06 1.124155747e-05)
(0.008395603714 -3.942581461e-06 -1.008706993e-05)
(0.008373874107 3.986565409e-06 -1.890019639e-06)
(0.008433246292 -7.238678294e-06 -2.049746044e-05)
(0.00837525415 1.201205542e-05 -1.974640003e-05)
(0.008380374515 7.463213456e-06 -2.595951462e-05)
(0.008331650826 5.44244302e-06 -3.193935619e-05)
(0.008360206974 6.845731382e-06 -2.074767251e-05)
(0.008418330384 7.095161277e-06 -7.651097244e-06)
(0.008398707586 -6.513535506e-06 -1.36630601e-05)
(0.008445975844 -1.155134503e-05 -1.084001203e-05)
(0.008474536616 -8.082964971e-06 -1.11099111e-05)
(0.008510618351 1.86156099e-05 -2.168282674e-05)
(0.008533712758 -1.50035119e-06 -3.747967119e-05)
(0.008532119284 -8.557481448e-06 -2.91020943e-05)
(0.006375443799 3.86386197e-06 -1.00154868e-05)
(0.008376570238 -5.350202987e-06 -1.173606743e-05)
(0.008345605986 -2.914573137e-05 -6.735117129e-06)
(0.008304144036 -2.579330577e-05 -2.040633297e-05)
(0.008313774813 -6.964327819e-06 -1.776336803e-05)
(0.00820246856 -6.811069858e-08 -9.04699228e-06)
(0.008208808612 3.563519275e-06 1.291285034e-06)
(0.008201541876 -2.601416789e-06 8.308381294e-06)
(0.008237906746 -3.193152838e-06 8.440089441e-06)
(0.008340113085 -1.129341583e-05 1.430047001e-05)
(0.008309729379 -7.681840476e-06 7.759772708e-07)
(0.008365744369 -1.06110191e-05 7.357565218e-06)
(0.00828177406 1.060534529e-05 1.267747214e-05)
(0.008363041194 2.835614325e-06 1.124591099e-05)
(0.008342237976 -1.19849305e-05 7.274289301e-06)
(0.008276589272 -1.200440088e-07 8.796180888e-06)
(0.008260529262 -9.993699892e-06 1.234472485e-06)
(0.008258107061 -1.717512498e-05 -8.546599009e-06)
(0.00820849881 -4.800160568e-06 8.867408309e-07)
(0.008188529692 -1.38803267e-05 -7.110830065e-06)
(0.006309511775 -2.226730478e-07 4.71675194e-06)
(0.008262122175 9.170430388e-06 1.339387528e-05)
(0.008252187249 1.767884667e-05 9.85361395e-06)
(0.008266448785 1.19607732e-05 2.404218498e-05)
(0.008245215123 1.863610983e-06 1.251913175e-05)
(0.008333024266 -9.093431276e-06 1.563955087e-05)
(0.008377901157 -1.866787296e-05 8.573953146e-06)
(0.008414805435 -1.81421092e-05 -1.274951314e-05)
(0.008379755787 -1.603673746e-05 -7.197495729e-06)
(0.008267028109 -1.654376008e-05 -1.196157744e-05)
(0.008337205288 -1.035462774e-05 -1.242093035e-05)
(0.00832720745 -1.655424809e-06 -2.841678514e-05)
(0.008374686711 -1.045061907e-05 -3.740110012e-05)
(0.008320107563 -7.687518347e-06 -4.090899516e-05)
(0.008313613736 1.719940537e-06 -3.927400228e-05)
(0.008363009069 1.048234147e-05 -3.426159737e-05)
(0.008331754006 2.017834771e-05 -3.367256007e-05)
(0.008311100626 3.38435994e-05 -7.863164289e-06)
(0.008241725486 2.622882697e-05 -1.122906207e-05)
(0.008279560033 1.762619428e-05 -7.612031323e-06)
(0.006404666589 5.649844346e-06 5.807822705e-06)
(0.008384396454 3.408624217e-06 -2.245251051e-06)
(0.008433013562 1.34399164e-05 2.176420156e-06)
(0.008406380365 -8.360845264e-07 -1.569713017e-06)
(0.008402902517 3.409847568e-06 -1.345556905e-05)
(0.008374800306 -4.884807714e-06 -1.128155112e-05)
(0.008378384358 4.287729398e-06 -1.435159772e-05)
(0.008255364877 -9.985788295e-08 -9.943718833e-06)
(0.008297232267 -1.386995446e-06 -1.136178782e-05)
(0.008319889218 -3.090790817e-06 -1.624916706e-05)
(0.00822509977 -1.208675065e-05 3.046075521e-06)
(0.008299779414 -1.140812726e-05 3.379733603e-06)
(0.008266271985 -1.319831816e-05 7.030237936e-06)
(0.008288929636 8.408472699e-09 -7.429588551e-06)
(0.008207713991 1.520155012e-05 -3.453998303e-06)
(0.008262567557 4.444256592e-06 5.971668134e-06)
(0.008280281429 -3.42930233e-06 7.948776795e-06)
(0.008467525814 -1.07257818e-05 -1.230160667e-05)
(0.008568081555 -2.438717173e-06 -4.914131051e-06)
(0.008607633004 -3.19576387e-06 7.967781556e-06)
(0.006343021512 -3.757014729e-07 1.356167769e-05)
(0.008431223719 1.134741154e-05 2.006816816e-05)
(0.008320600298 -3.065460115e-06 1.048982759e-05)
(0.008345600503 1.274395621e-05 1.420364534e-05)
(0.008278319017 2.501395436e-06 1.220346845e-05)
(0.008243692968 -7.991717627e-06 3.78050704e-06)
(0.008269461433 -9.741080769e-06 4.047595293e-06)
(0.008237943467 -7.236248583e-06 5.171165412e-06)
(0.00827990552 -1.534042002e-05 1.039647095e-05)
(0.008266757287 4.220729736e-06 5.425854863e-06)
(0.008294028508 7.497238306e-06 -1.054978628e-05)
(0.008303010928 1.259846348e-05 7.028343399e-06)
(0.008315157688 -8.095369457e-06 2.358469333e-05)
(0.008422450007 -1.834277374e-05 4.888131618e-05)
(0.008475095101 -1.533345728e-05 4.602675055e-05)
(0.008416686784 -2.13685825e-05 4.840792747e-05)
(0.008409254325 -1.719871237e-05 4.726223722e-05)
(0.008290783368 -1.259654856e-05 4.938161923e-05)
(0.008244427363 -6.927021582e-06 4.769142611e-05)
(0.008244663972 1.716641705e-07 3.04484696e-05)
(0.006314938329 6.032413392e-06 -4.259354795e-06)
(0.008357776732 -1.267626117e-05 -1.486644626e-05)
(0.008368318848 -1.769858437e-05 -9.11800979e-06)
(0.008387561109 -1.831509704e-07 -1.238343702e-05)
(0.008431999189 4.999126298e-06 -5.514080735e-06)
(0.008391536887 5.017536588e-06 2.883074544e-07)
(0.008382460407 -7.740403755e-06 -6.894235197e-07)
(0.008433352662 4.540064103e-06 1.58602268e-06)
(0.00840817387 1.916434895e-05 9.828712703e-06)
(0.008388718607 -8.513177795e-06 1.878577771e-05)
(0.008358905304 3.397436155e-06 1.641816427e-05)
(0.008298587024 -2.927331223e-05 2.372496192e-05)
(0.008324162295 -2.166521093e-05 8.82607552e-06)
(0.008279902007 -1.429458519e-05 -1.581276891e-05)
(0.008228005381 -2.650656179e-06 -1.85803196e-05)
(0.00827907235 1.01710171e-05 -2.100273468e-05)
(0.008189337438 7.792076519e-06 -1.271711047e-05)
(0.008220968852 3.309255719e-06 -5.488825584e-07)
(0.008249982528 1.515494511e-05 3.772000638e-06)
(0.008219116682 1.548029801e-05 1.246552217e-05)
(0.006321590661 5.428162047e-06 -1.080597961e-05)
(0.008252063338 -5.528324949e-06 -4.686237757e-06)
(0.008282292443 -4.542912136e-06 1.340947893e-05)
(0.008257817569 -1.449423107e-05 5.320217254e-06)
(0.008315108913 -1.634060826e-05 1.442455956e-05)
(0.00822643758 1.002565858e-05 2.147484521e-05)
(0.008251572286 1.196579291e-05 2.718792528e-05)
(0.008203207159 1.796292865e-05 2.086582576e-05)
(0.008242054917 4.784317923e-06 6.94166283e-06)
(0.008251953544 2.414963579e-06 8.806152424e-06)
(0.00823830663 -2.842658903e-06 -4.187933633e-06)
(0.008281019717 1.253794997e-05 -8.511597619e-06)
(0.008267959897 1.589820635e-05 -5.539621561e-06)
(0.008240757279 1.328582937e-05 -4.973940494e-06)
(0.00820028159 2.074818423e-05 -1.236677907e-06)
(0.008278986772 1.718851531e-07 -6.333388045e-06)
(0.008341705703 -1.058442694e-05 -5.009416869e-06)
(0.008326129316 -4.441230671e-06 -1.094553094e-05)
(0.008296118353 -4.788780987e-06 -7.248871738e-06)
(0.008350338487 -1.274843944e-05 -7.783543129e-06)
(0.006371000514 1.547162472e-06 -1.065937098e-05)
(0.008361164484 5.198000196e-06 -7.782358854e-06)
(0.00827357364 9.231160346e-06 -1.773229257e-05)
(0.008255246922 1.45520516e-05 -3.353705218e-06)
(0.008245179017 1.359337479e-05 -4.812130202e-06)
(0.008335052697 3.041362693e-05 -7.423004737e-06)
(0.008323780148 5.950611874e-06 -1.664696499e-06)
(0.008327548642 2.573850975e-06 -4.326102653e-06)
(0.008258775945 -8.195161947e-06 -4.958930114e-06)
(0.008241509437 -6.741888556e-06 3.715109644e-06)
(0.008223060523 1.071268548e-05 9.211655265e-06)
(0.008213012708 -1.927007195e-06 1.35037111e-05)
(0.008264226 -1.251503725e-05 2.250982035e-05)
(0.008248880887 -1.333634165e-05 1.796390305e-05)
(0.00835414448 -3.240790424e-05 2.301776362e-06)
(0.00832994954 -1.497907229e-05 -5.674460431e-06)
(0.008343488871 -1.084481496e-05 3.548949752e-06)
(0.008370612868 -2.508767023e-05 -1.160815823e-06)
(0.008345199712 -2.940703616e-05 -9.237147063e-06)
(0.008319583704 -1.686810942e-05 -7.982728939e-06)
(0.006344685339 1.886548845e-06 -3.021041609e-07)
(0.008354607786 9.331171492e-06 -1.661426402e-05)
(0.008328762326 1.989131297e-05 -1.295217684e-05)
(0.008366700479 2.784506697e-05 -1.511761038e-05)
(0.008457769292 1.777120875e-05 -1.563968615e-05)
(0.008390970687 -5.947740099e-06 -2.958493594e-05)
(0.008318668709 1.042571302e-05 -1.710254951e-05)
(0.008362628795 2.92610699e-05 -1.388090686e-05)
(0.008434973021 2.490409902e-05 -1.478993002e-05)
(0.008448911483 9.117539255e-06 -9.435434873e-06)
(0.008411214935 -6.124774044e-06 -5.363822882e-06)
(0.00834610037 -1.572790713e-05 -6.627957231e-06)
(0.00828024343 -5.235820221e-06 -1.995692905e-05)
(0.008324049089 -3.456403315e-06 -7.439672688e-06)
(0.008413954476 -3.885557362e-06 1.55835279e-07)
(0.008320517144 -1.980582624e-05 4.736978821e-06)
(0.008277854952 -2.039116075e-05 1.195391804e-05)
(0.00820704674 -1.452579873e-05 4.405946632e-06)
(0.008137115186 8.513472502e-06 -5.627938919e-06)
(0.008205905167 -5.129704529e-06 -6.857201114e-07)
(0.006371689353 3.343710947e-06 -6.52808283e-06)
(0.008438748603 2.620440481e-06 -9.21731976e-06)
(0.008443547365 -1.00633232e-05 -1.229554461e-05)
(0.008453587117 -9.750996995e-06 -8.319995114e-06)
(0.008347370171 -5.241393689e-06 -3.284126279e-07)
(0.008387976471 3.934371373e-06 -2.23365435e-06)
(0.008479461333 4.191318435e-06 -1.046880357e-06)
(0.008459043318 -1.180559416e-05 -5.921248284e-06)
(0.008423281188 2.736706822e-06 1.043474089e-05)
(0.008441926494 1.191694831e-05 7.0444578e-06)
(0.008420147571 1.154576746e-05 3.802129872e-06)
(0.008512406053 1.426323553e-05 7.513212776e-06)
(0.008502023273 1.931845713e-05 3.712142032e-06)
(0.008412592787 1.840602722e-05 -3.65330473e-06)
(0.008259930518 9.800263719e-06 -1.493944137e-05)
(0.008310895489 2.457304871e-05 -1.907092852e-05)
(0.008328602682 2.621619097e-05 -3.164878515e-05)
(0.008293082801 1.495727842e-05 -3.326674242e-06)
(0.008349781232 -1.83679082e-06 -1.870855222e-05)
(0.008337542784 3.358143292e-06 -1.635734078e-05)
(0.006255840823 1.230976332e-05 -4.669091453e-06)
(0.008098210002 4.077601261e-06 -2.912810395e-06)
(0.008116068212 9.813512422e-06 7.082770155e-06)
(0.008179182905 1.810644516e-05 4.710468371e-06)
(0.008157743922 1.39454888e-05 1.940822971e-06)
(0.008217855601 2.408072754e-05 5.674494064e-06)
(0.008203658589 2.124978722e-05 2.623787257e-07)
(0.008231060118 2.565099505e-05 7.239067397e-06)
(0.008198793393 2.073543156e-05 -1.7949607e-06)
(0.00828029703 3.439170133e-05 -1.029137368e-05)
(0.008315956527 5.124030551e-05 -2.032968209e-05)
(0.008285536446 6.971798565e-05 -1.195005343e-05)
(0.008277380644 3.792876407e-05 -1.055397818e-05)
(0.008331603299 6.000052189e-05 -3.638665429e-06)
(0.00832458597 6.783822439e-05 8.404304566e-06)
(0.008270206673 5.6003205e-05 1.045725419e-05)
(0.008250267022 3.981214998e-05 6.6914041e-06)
(0.00824271559 3.415872645e-05 4.320213381e-06)
(0.008272269761 2.479220362e-05 7.662148543e-06)
(0.008253683604 2.768996947e-05 1.36172683e-05)
(0.008401243141 2.932253e-05 -1.821983596e-05)
(0.008425993216 2.175549839e-05 -1.671506244e-05)
(0.008378929765 1.430285147e-05 -4.605021207e-06)
(0.008376868143 7.863370172e-06 -1.279561699e-05)
(0.00839889777 2.325407712e-05 -2.454146222e-05)
(0.008426264308 5.099547442e-05 -4.454666356e-05)
(0.008229986039 -7.989050109e-06 -8.387177079e-06)
(0.008281043939 4.709998369e-07 8.867519945e-06)
(0.008394015106 -3.561781291e-06 1.021059902e-05)
(0.008290123985 -2.454204331e-06 7.008721623e-06)
(0.008279401552 -7.220355729e-06 -2.173748304e-06)
(0.008249215708 9.79109738e-06 5.495642165e-06)
(0.008312318084 5.230331417e-06 -1.219394768e-05)
(0.00835246112 3.421235486e-05 -6.831239847e-06)
(0.008235721514 3.262877633e-05 -1.380555113e-05)
(0.008284439235 4.684275245e-05 -1.217330637e-05)
(0.00841671429 -5.67599986e-06 2.788780785e-05)
(0.008366672928 8.438642873e-06 1.139115157e-05)
(0.008367286629 -5.481953402e-06 1.674162617e-05)
(0.008333270131 -2.856481963e-06 2.289524547e-05)
(0.008370594063 1.488042357e-05 1.659178603e-05)
(0.008350772847 1.766990895e-05 1.220949188e-05)
(0.00838817862 2.218475981e-05 -5.298425757e-06)
(0.008283305313 2.468843321e-05 5.877935823e-06)
(0.008383653687 1.686145582e-05 1.381123967e-05)
(0.008434320481 3.104827911e-05 1.534976939e-05)
(0.008305304725 5.16865182e-06 -3.521102235e-05)
(0.008334232158 3.156979553e-07 -4.022790057e-05)
(0.008358664696 -1.750315567e-06 -4.745091226e-05)
(0.008317821664 -1.053104286e-05 -4.038630803e-05)
(0.008343568288 -1.804786887e-05 -3.885579537e-05)
(0.008358542237 -2.505199004e-06 -2.791034325e-05)
(0.008402378106 1.430425985e-05 -1.464844836e-05)
(0.008486647929 6.31990725e-06 -2.045423116e-05)
(0.008453902269 1.654106342e-05 -1.794499269e-05)
(0.008513291941 4.636458232e-06 -8.133542911e-06)
(0.008410439279 -8.891704458e-06 1.018541895e-06)
(0.008426071548 8.969364268e-06 -4.137760146e-06)
(0.008383719104 2.221759753e-05 6.06307317e-06)
(0.008383512051 2.439702906e-05 -2.500865596e-07)
(0.00837737108 1.972729878e-05 1.231694488e-05)
(0.008307665264 1.943161995e-05 8.589004716e-06)
(0.008298488857 -2.26205995e-05 2.135608739e-05)
(0.00827072759 -3.525733536e-05 2.265012683e-05)
(0.008229726995 -3.924876823e-05 1.050395534e-05)
(0.008242910898 -3.587543208e-05 7.994523826e-06)
(0.008309965165 1.215763456e-05 4.891920622e-05)
(0.008310014346 4.066045973e-06 2.904487708e-05)
(0.008285555676 1.590905133e-06 2.313635016e-05)
(0.008365435041 -1.22045255e-05 2.448515161e-05)
(0.00839066268 -4.071508903e-06 1.075709609e-05)
(0.008377732084 -7.003393808e-06 2.380422947e-05)
(0.008449714338 8.247861346e-06 1.908220238e-05)
(0.008545167662 7.951187139e-06 1.14005227e-05)
(0.008515302445 -9.659260644e-06 1.054274698e-06)
(0.008499146746 1.559761267e-05 -3.418218556e-06)
(0.008394765728 -2.734995541e-06 -2.034226808e-05)
(0.00837982584 1.892778225e-06 -9.212390972e-06)
(0.008376707613 5.9842357e-06 -1.660580404e-05)
(0.008372786775 9.57976584e-06 -9.362779468e-06)
(0.008474614555 -1.596493001e-05 -6.89782081e-06)
(0.00843547671 -2.318696418e-05 -1.276544674e-05)
(0.008308816643 -2.219207186e-05 -1.977816949e-05)
(0.008288033319 -1.078334035e-05 -2.45103567e-05)
(0.00824206387 7.604447107e-07 -2.1778928e-05)
(0.008315240681 1.654169432e-06 -3.220810191e-05)
(0.00821694601 -1.500494622e-05 7.184095218e-06)
(0.008227085255 -2.090856059e-05 -7.333081286e-06)
(0.008276536695 -4.844103349e-05 -1.543586962e-05)
(0.008255294712 -2.947193393e-05 -3.526978273e-05)
(0.008248065636 -1.156247548e-05 -5.954718426e-05)
(0.008322475895 -1.479046324e-06 -5.556401693e-05)
(0.008372649302 2.070481864e-06 -4.339320938e-05)
(0.008372996889 -1.152575933e-06 -3.695491091e-05)
(0.008312110102 8.400236884e-06 -2.631920544e-05)
(0.008276101344 6.442588829e-06 -1.10256715e-05)
(0.008562550144 -8.731206406e-06 -1.95764883e-05)
(0.008516168367 -9.144734426e-06 -2.561154794e-05)
(0.008524973636 3.398471915e-06 5.537003142e-07)
(0.008368714149 -4.61457076e-06 1.7688317e-05)
(0.008292903888 5.442295732e-06 2.03066459e-05)
(0.008273029711 4.070497958e-06 2.426902454e-05)
(0.008252676013 -9.563050433e-06 6.991239913e-06)
(0.008226640352 1.440972885e-05 5.381777822e-06)
(0.00828146462 -1.032317056e-06 -6.142800047e-06)
(0.008231587247 -2.458539427e-05 -1.26977441e-05)
(0.008149706229 -6.931205671e-07 -1.125971999e-05)
(0.008102248816 6.767058724e-06 -1.485270391e-05)
(0.008105025001 1.425157316e-05 -2.094108991e-05)
(0.008081277279 2.064305625e-05 -2.104827357e-05)
(0.008202709148 -4.11231469e-06 -8.327431998e-06)
(0.008204502913 -9.549991775e-06 -1.338217073e-05)
(0.008206986879 -1.109101255e-05 -2.817887726e-06)
(0.008174623325 -1.315165976e-05 1.394761346e-06)
(0.008237134769 -2.565941168e-06 6.56153303e-07)
(0.008277519382 1.195079073e-05 -4.96876549e-06)
(0.008300197564 1.46839948e-05 -8.813096018e-06)
(0.008449968142 8.048806804e-06 -5.797454387e-06)
(0.008450322339 -1.940549838e-06 2.350032619e-07)
(0.008469716026 -5.839578254e-06 1.101048477e-05)
(0.008340038097 1.933317684e-05 -3.318069377e-06)
(0.008278223506 2.906995852e-06 5.258949101e-06)
(0.008367982559 1.34669605e-05 9.146473154e-06)
(0.008339968887 1.462999693e-05 7.629008227e-06)
(0.008324536962 2.767953501e-05 6.707441661e-06)
(0.008248402262 1.060792876e-05 2.971965431e-05)
(0.008551609481 -7.55073289e-07 1.277306691e-05)
(0.008442415502 -2.41574044e-06 1.635207106e-05)
(0.008322642251 -4.723483765e-06 1.913760966e-05)
(0.008351897862 2.483622547e-05 2.791901903e-05)
(0.008477575639 1.788635698e-05 2.95851838e-05)
(0.008478491974 2.229184679e-05 2.637149135e-05)
(0.008445786886 2.317754142e-05 1.175975849e-05)
(0.008467547663 2.69639701e-05 2.183269511e-05)
(0.008465438679 2.379711596e-05 1.131698184e-05)
(0.008440059195 3.399742383e-05 -1.471474393e-06)
(0.008268527063 1.522499996e-05 2.482549638e-05)
(0.008306956579 2.192067778e-05 1.877861391e-05)
(0.008324965207 2.877064697e-05 1.114193075e-05)
(0.008296620811 1.382934862e-05 7.249646437e-06)
(0.00822885716 1.649498039e-05 2.186129976e-05)
(0.008196337622 -4.119614668e-06 3.057086158e-05)
(0.008213614254 -2.641511259e-06 2.956185078e-05)
(0.008290609877 -1.11811332e-05 7.527141943e-06)
(0.008372647387 -3.531247471e-05 -2.400842616e-07)
(0.008445355548 -1.569798897e-05 -4.857353502e-06)
(0.008238640852 1.659336148e-05 -5.785942965e-06)
(0.008244420023 5.117440229e-06 4.200944282e-06)
(0.008321234776 -1.506561317e-06 -1.827648001e-06)
(0.008353953563 -3.347120417e-06 -4.612172848e-06)
(0.008416018088 -3.14786373e-05 -2.142523068e-05)
(0.008451310927 -6.503804655e-06 -1.56055754e-05)
(0.008431238053 -8.595296742e-06 -2.976788629e-05)
(0.008435151871 -2.04150204e-05 -1.150082345e-05)
(0.008369761682 2.296085212e-07 -5.495498751e-06)
(0.008342569356 -2.357726356e-05 8.856300071e-06)
(0.008356229797 -3.304556354e-05 -7.660721505e-06)
(0.008445819257 -2.876301594e-05 -1.356431328e-05)
(0.008402339362 -3.426505167e-05 -1.260179051e-05)
(0.008452072356 -6.389471335e-06 -1.64799756e-05)
(0.008403322089 1.746638227e-05 -1.748022283e-05)
(0.008380293961 5.514012313e-06 -1.318212293e-05)
(0.00832811773 2.010719456e-05 -7.655013616e-06)
(0.008261217928 1.286972705e-05 -3.935628129e-06)
(0.008252137937 2.918899236e-05 8.21573153e-06)
(0.00812230545 3.385152376e-05 -2.60907945e-06)
(0.008230476882 -5.392488702e-06 3.292433262e-06)
(0.008208596311 -1.272645567e-06 -5.813516804e-06)
(0.008184154762 5.303469895e-06 4.494441448e-06)
(0.008125596191 -4.571658861e-06 1.235075015e-06)
(0.008197380344 -3.798759577e-06 8.66666582e-06)
(0.008120830698 -1.140038588e-05 7.154780687e-06)
(0.008100335427 8.035603801e-06 -1.090328805e-05)
(0.008197491642 3.741127817e-05 -2.503789892e-05)
(0.008231665291 3.448175698e-05 -2.534414883e-05)
(0.008331367602 3.331429695e-05 -2.170917619e-05)
(0.008224077434 -2.757071404e-06 -1.008345135e-05)
(0.008275096954 3.767584788e-06 8.803376909e-06)
(0.008325303708 1.01530183e-05 -9.048393025e-06)
(0.008285059255 -1.024291949e-07 -2.316994529e-06)
(0.008326598777 9.536867071e-06 -4.008186605e-06)
(0.00833783439 1.637962212e-05 1.071926818e-05)
(0.008372324847 5.317930466e-06 3.236819635e-06)
(0.008290755666 -1.3138329e-05 2.204086089e-06)
(0.008315819896 -3.262677122e-05 -5.748141555e-06)
(0.008295787313 -1.878760793e-05 -5.747793737e-06)
(0.008284061939 7.226277869e-06 -2.056003013e-05)
(0.008237667648 -1.098819986e-05 -2.609603262e-05)
(0.008262259909 -3.554968949e-05 -2.164678404e-05)
(0.008261365883 -2.428332771e-05 -1.40421363e-05)
(0.008327914427 -8.913505684e-07 -2.188838609e-05)
(0.008309776673 -7.890181981e-06 -3.292576345e-05)
(0.008353813951 6.124519479e-06 -1.534265589e-05)
(0.008408067513 -1.225193685e-05 2.092082814e-06)
(0.008432951042 -1.218217386e-05 2.622998245e-06)
(0.008440673135 -4.538541883e-06 -8.667620806e-07)
(0.008289629874 2.619596213e-05 1.708901609e-05)
(0.008235363692 3.636405704e-05 -3.442398335e-06)
(0.008216557093 3.438577385e-05 1.506426531e-07)
(0.008291146852 3.865006978e-05 2.252960158e-06)
(0.008240717893 5.451867581e-06 -8.880013874e-06)
(0.008217113146 1.268725974e-05 1.769955357e-05)
(0.008235784528 3.469482065e-06 2.367561037e-05)
(0.00817364683 1.546424057e-05 1.45730796e-05)
(0.008144964431 3.406220644e-05 1.389916396e-05)
(0.008126802214 1.619773143e-05 2.085067232e-05)
)
;

boundaryField
{
    flow
    {
        type            calculated;
        value           nonuniform List<vector> 
48
(
(0.006321713564 -1.767569587e-05 3.053465129e-06)
(0.006402428277 2.121655359e-05 8.516273921e-06)
(0.006306947844 2.187539421e-06 -1.957623413e-05)
(0.00635371608 -3.156202256e-06 1.914754889e-07)
(0.006368406078 -1.352556221e-05 -5.005808203e-06)
(0.006380957184 -8.684394095e-07 7.790014671e-06)
(0.006283886992 3.694970962e-06 -3.552045499e-06)
(0.006359428828 7.618377294e-06 4.155364896e-06)
(0.006375443799 3.86386197e-06 -1.00154868e-05)
(0.006309511775 -2.226730478e-07 4.71675194e-06)
(0.006404666589 5.649844346e-06 5.807822705e-06)
(0.006343021512 -3.757014729e-07 1.356167769e-05)
(0.006314938329 6.032413392e-06 -4.259354795e-06)
(0.006321590661 5.428162047e-06 -1.080597961e-05)
(0.006371000514 1.547162472e-06 -1.065937098e-05)
(0.006344685339 1.886548845e-06 -3.021041609e-07)
(0.006371689353 3.343710947e-06 -6.52808283e-06)
(0.006255840823 1.230976332e-05 -4.669091453e-06)
(0.006255840823 1.230976332e-05 -4.669091453e-06)
(0.008098210002 4.077601261e-06 -2.912810395e-06)
(0.008116068212 9.813512422e-06 7.082770155e-06)
(0.008179182905 1.810644516e-05 4.710468371e-06)
(0.008157743922 1.39454888e-05 1.940822971e-06)
(0.008217855601 2.408072754e-05 5.674494064e-06)
(0.008203658589 2.124978722e-05 2.623787257e-07)
(0.008231060118 2.565099505e-05 7.239067397e-06)
(0.008198793393 2.073543156e-05 -1.7949607e-06)
(0.00828029703 3.439170133e-05 -1.029137368e-05)
(0.008315956527 5.124030551e-05 -2.032968209e-05)
(0.008285536446 6.971798565e-05 -1.195005343e-05)
(0.008277380644 3.792876407e-05 -1.055397818e-05)
(0.008331603299 6.000052189e-05 -3.638665429e-06)
(0.00832458597 6.783822439e-05 8.404304566e-06)
(0.008270206673 5.6003205e-05 1.045725419e-05)
(0.008250267022 3.981214998e-05 6.6914041e-06)
(0.00824271559 3.415872645e-05 4.320213381e-06)
(0.008272269761 2.479220362e-05 7.662148543e-06)