/*--------------------------------*- C++ -*----------------------------------*\
| =========                 |                                                 |
| \\      /  F ield         | OpenFOAM: The Open Source CFD Toolbox           |
|  \\    /   O peration     | Version:  2406                                  |
|   \\  /    A nd           | Website:  www.openfoam.com                      |
|    \\/     M anipulation  |                                                 |
\*---------------------------------------------------------------------------*/
FoamFile
{
    version     2.0;
    format      ascii;
    arch        "LSB;label=32;scalar=64";
    class       volScalarField;
    location    "0.003";
    object      overallT;
}
// * * * * * * * * * * * * * * * * * * * * * * * * * * * * * * * * * * * * * //

dimensions      [1 2 -2 0 0 0 0];

internalField   nonuniform List<scalar> 
546
(
292.3228618
302.6185201
301.2516248
301.4744808
301.1971827
299.6788801
300.0091434
301.0472058
301.5485485
299.9363695
300.2195747
300.3461235
301.9587949
300.8982913
299.7591204
298.1163601
297.8256176
298.6737917
298.5382334
299.9971717
297.0326891
305.3051931
300.2525239
299.651493
299.7535816
300.5352263
301.3174281
301.049589
301.8334979
301.7320013
300.5580979
298.9984834
299.3764024
301.8394825
302.0179283
301.6316681
302.982877
303.7375092
301.5686495
302.032194
292.5107928
302.2810708
296.260523
296.2493392
302.2522955
302.464892
301.0620615
301.1106158
302.0993703
300.7863132
299.7560121
303.1155917
301.6316207
298.0430432
297.8959937
298.5628357
297.6994746
297.5415986
299.0916318
300.5470396
294.7330215
303.4997608
300.6354351
299.8562761
295.8451076
296.1773481
298.7355067
297.8268174
297.6345917
297.3157449
297.2438799
298.7141843
299.6784649
301.9787231
301.1553222
300.6127361
299.2259077
301.2209637
300.8912906
298.4241801
293.2410112
304.1398787
299.937416
301.4146662
299.8204875
300.0274806
297.3985076
294.6220492
297.1689247
297.0558922
298.4577349
297.110563
298.0191447
299.1865844
299.9102594
302.1503723
302.614467
302.8702046
302.1480774
303.3788088
294.3094402
304.367916
297.6884602
298.1740403
298.9788222
299.002352
298.8413898
301.4073457
300.168176
301.7007162
300.098149
299.2077615
299.3342663
301.0745323
301.0117403
301.3654534
302.6168521
298.808964
299.8560293
300.3932452
292.5640904
300.8151453
297.4961244
297.9946012
299.26337
298.8647418
301.5686585
302.540367
299.9458792
298.8785918
300.0893903
299.6678946
301.2017521
297.6696642
299.181534
298.4913449
300.032609
302.0063967
302.5179351
303.2313807
294.0201869
305.8228293
301.3222316
302.3388355
302.3695914
302.8496958
301.4029605
300.3684024
298.8264826
301.1150881
301.1852453
299.8849112
301.1008478
301.8429287
299.9770159
302.2829179
301.7897485
301.8971228
301.6779375
301.8879942
296.6510615
306.1974117
302.2609678
300.8244317
299.5522198
298.0135946
297.7372431
298.7232681
300.6090705
302.9750283
301.5061681
302.6651687
301.4913649
301.1110275
301.3297762
298.2243228
299.2955657
298.5725787
298.6936442
299.2418588
293.5255385
304.1371353
299.7104867
298.2724496
297.2147749
297.9232569
298.4557948
299.5552753
300.4404338
299.2102324
299.7256587
299.000874
298.953234
298.7133613
301.1147375
300.0067221
299.8473041
301.1881414
297.0912953
298.5138324
291.6346697
302.4306226
296.9108815
299.0134183
301.5981489
304.5633847
303.5604307
301.0820904
300.6999003
300.4543709
298.6710569
300.1546888
299.348069
298.7522118
296.4419682
297.1207635
299.8105882
296.5467453
299.8729827
301.3348818
293.8921891
304.5793958
298.6238791
301.0575616
298.4075301
298.0206114
297.2632568
299.8517796
297.9871048
297.5446195
296.9081673
295.6733201
296.1275473
300.3071554
299.7863627
298.5607938
297.777825
301.7568253
300.2702659
299.8233208
293.4375045
302.3375059
299.0937675
300.4724442
302.1559991
299.6350261
299.3075613
296.7275324
297.391081
296.795226
298.0774113
298.9178045
299.5730605
299.4011492
298.3818439
300.0234161
299.391795
298.6521518
299.7590131
298.7028239
293.7539765
303.8618432
301.0493404
299.3577477
299.7945643
298.8370739
300.4002455
302.9105055
301.7246799
303.6057813
300.998251
302.6295213
300.7788236
300.0230071
299.6264678
299.6213207
299.3849438
298.6117107
296.9766746
298.2227014
299.1910237
309.0032694
301.1495456
301.2886281
301.6141243
303.8470785
306.8862251
305.2796727
305.4819068
305.2988789
303.2278802
301.1210766
301.9752112
300.0934669
301.3938822
301.7552309
301.6621285
303.9402391
303.4748859
301.275173
294.7236469
303.5992702
301.7845615
305.1162916
305.6157974
302.8785763
300.6988244
298.9107381
299.3843951
303.6214807
304.7427924
304.1755568
304.5567789
305.7218902
303.5831919
301.6460297
301.5617115
299.634081
300.8382168
302.0543508
294.2528642
304.8323318
298.9144938
298.3310156
298.2809541
297.8327471
299.5468582
299.1779393
297.8746687
298.0421007
299.074417
301.5976819
300.6352383
299.0060014
299.6635766
300.3533836
299.1799804
300.455366
302.1056253
300.4828944
294.0353038
300.7265709
297.8428327
298.0950587
294.1615409
294.168975
295.9304366
298.1865022
297.9196611
297.9610154
296.4470998
295.0885353
297.7055513
297.1828112
296.7288512
295.3864312
296.6996148
296.8808959
292.8502227
295.0793163
306.9442325
310.0200166
304.3609691
306.9921865
307.582929
312.4484772
298.7878071
303.668291
301.8216167
300.3022627
300.7865108
301.574354
299.4251788
305.6382412
302.2328126
309.1398384
297.9429539
296.2769362
296.392482
300.0389568
303.5645271
306.5849463
304.2423491
305.6312108
304.6602636
310.8127029
306.1965267
305.1811393
302.6730613
299.051952
297.3308174
299.5755664
300.6997836
304.2364004
304.3390591
303.6551886
296.8965679
299.1208413
301.5735674
301.4374048
301.3106359
304.9531917
304.0586136
300.5348266
303.1360503
302.6397723
304.1647726
302.8354254
303.1234139
302.3683599
302.0752333
302.5950698
303.7966951
306.5798436
304.9820318
304.8777404
300.1323938
300.2683093
303.0883114
302.8459205
304.4973216
302.2862711
300.6219626
298.8489954
297.5788833
298.9805095
303.0177529
302.9726281
301.5177555
300.5876977
302.9798235
303.9764443
301.7005948
307.3695263
305.0954483
303.3851172
299.4360349
299.6925138
301.3305537
302.6145534
303.9381842
302.4588505
304.9060931
305.7810023
305.2719445
305.5894887
299.3960131
300.6468236
300.98833
297.6317856
300.5675499
298.2268112
297.1065089
297.0496109
299.3846548
301.9685267
299.6468689
300.3038625
302.1922949
305.2300671
299.3832517
302.078814
302.2087487
303.4270567
300.9790146
299.933473
299.7136947
298.9130688
297.8092824
297.0547501
299.0181341
298.1532133
298.3060401
296.9506581
297.3482812
298.539269
298.1387857
299.6133279
298.7325182
300.8629914
301.2996856
299.56515
300.0636659
300.0686105
301.7429063
303.0834987
301.9336351
300.0751452
301.6704121
300.8469153
301.0665897
300.8499263
301.3666432
301.9415302
300.3740562
298.4241138
296.7376457
299.2069324
297.5535986
299.703587
300.5340503
299.7198869
300.5817372
303.0517466
303.4837023
303.8704684
300.4752535
300.2076215
301.5047227
298.3656347
297.6197362
298.0629754
296.4350823
295.2403908
295.9779903
297.3074135
301.7585683
302.5423776
301.297556
303.2273975
304.8089518
301.6278499
302.5158092
302.3557889
301.4473748
301.5103006
301.3984513
301.4903963
298.1202953
299.3764156
299.1960261
300.1769333
302.1499937
302.0212459
302.7634835
301.0945272
297.912478
299.1868886
300.7447845
302.342119
302.2865763
299.8556344
296.5171577
296.2082725
297.9394959
299.1899897
)
;

boundaryField
{
    flow
    {
        type            calculated;
        value           nonuniform List<scalar> 
48
(
292.3228618
297.0326891
292.5107928
294.7330215
293.2410112
294.3094402
292.5640904
294.0201869
296.6510615
293.5255385
291.6346697
293.8921891
293.4375045
293.7539765
299.1910237
294.7236469
294.2528642
294.0353038
294.0353038
300.7265709
297.8428327
298.0950587
294.1615409
294.168975
295.9304366
298.1865022
297.9196611
297.9610154
296.4470998
295.0885353
297.7055513
297.1828112
296.7288512
295.3864312
296.6996148
296.8808959
292.8502227
295.0793163
297.912478
299.1868886
300.7447845
302.342119
302.2865763
299.8556344
296.5171577
296.2082725
297.9394959
299.1899897
)
;
    }
    obstacle
    {
        type            calculated;
        value           nonuniform List<scalar> 0();
    }
    frontAndBack
    {
        type            empty;
    }
    procBoundary2to0
    {
        type            processor;
        value           nonuniform List<scalar> 
31
(
296.0578952
305.5430409
299.709293
300.1162549
299.0860076
300.2946455
298.917311
300.0882929
299.7764209
298.8423877
299.1632861
299.0876311
298.1146658
300.4614345
303.0094887
300.0608587
298.5298898
299.9427521
299.6719674
301.9228731
305.5388107
307.2533759
309.9690778
312.5742607
322.5044505
321.0131216
299.6423131
298.3005648
301.8965035
303.6972348
303.6972348
)
;
    }
    procBoundary2to3
    {
        type            processor;
        value           nonuniform List<scalar> 
19
(
318.0965851
311.9790528
312.9536858
307.2467188
307.4670871
304.6432536
300.8887635
305.7436124
302.2212229
302.5635922
298.7096475
300.3120881
302.163584
298.2647849
306.9628485
297.8697259
304.3815136
300.3924757
301.5018242
)
;
    }
}


// ************************************************************************* //
