/*--------------------------------*- C++ -*----------------------------------*\
| =========                 |                                                 |
| \\      /  F ield         | OpenFOAM: The Open Source CFD Toolbox           |
|  \\    /   O peration     | Version:  2406                                  |
|   \\  /    A nd           | Website:  www.openfoam.com                      |
|    \\/     M anipulation  |                                                 |
\*---------------------------------------------------------------------------*/
FoamFile
{
    version     2.0;
    format      ascii;
    arch        "LSB;label=32;scalar=64";
    class       volScalarField;
    location    "0.003";
    object      p;
}
// * * * * * * * * * * * * * * * * * * * * * * * * * * * * * * * * * * * * * //

dimensions      [1 -1 -2 0 0 0 0];

internalField   nonuniform List<scalar> 
546
(
0.3023753728
0.4102385768
0.4152621913
0.4140805727
0.4148034691
0.4126182091
0.4116184236
0.4117116398
0.4117744544
0.4097468855
0.4115784114
0.4176816762
0.419871814
0.4164554775
0.4145132566
0.4089124057
0.412102666
0.4097319853
0.4050896687
0.4053214568
0.3167816787
0.4250429722
0.4160430897
0.4157977726
0.4175776882
0.4212574934
0.4223364301
0.422292665
0.4220552399
0.4216599273
0.4193887291
0.4154017762
0.4144962855
0.4159381874
0.4147286995
0.4146325161
0.4170435489
0.4218211227
0.4218994863
0.4219072981
0.3089040357
0.419817026
0.4041838888
0.4034209262
0.4151828412
0.4178826577
0.4145378704
0.4149644321
0.4148852458
0.4182935242
0.4162847905
0.4257163415
0.4223271117
0.4185237733
0.4141354462
0.4124931708
0.4075427429
0.4073670757
0.4068335333
0.4119739504
0.3130836964
0.4239735351
0.4201209987
0.4137243804
0.3996514174
0.4026284207
0.410209256
0.4096123687
0.4108426904
0.4088711507
0.4076899065
0.4060101403
0.4126216212
0.4150099383
0.4192661994
0.4147330301
0.411169144
0.4194902563
0.4281203336
0.4156333439
0.3092725894
0.4290404583
0.4201914194
0.4226526087
0.4209147676
0.4183955579
0.4093258358
0.4081841867
0.4092072488
0.4023066549
0.4076734956
0.4073162436
0.4112740468
0.4124444025
0.415224045
0.4255707757
0.4267035545
0.4284037208
0.4202403888
0.4233790246
0.312288556
0.4199004385
0.4063645453
0.4055141059
0.4099077125
0.412882574
0.4082808384
0.411883681
0.410624996
0.4154104191
0.4129639541
0.4108666913
0.4109265429
0.4129704136
0.4144099675
0.4185580553
0.4233790663
0.410503088
0.4177039534
0.4219351071
0.303139224
0.4091136695
0.4079548682
0.408381668
0.4093660447
0.4148763195
0.4164895002
0.4206352547
0.4150544348
0.418275224
0.4183922538
0.4173658752
0.423378899
0.4106127476
0.4148916412
0.4101138428
0.4139597916
0.413730955
0.4120203289
0.4103191654
0.3101071588
0.4258408712
0.4197776641
0.4194433182
0.4190237989
0.4167247338
0.4170690426
0.418224606
0.4183788504
0.4171147867
0.4173766926
0.4132179235
0.4172399126
0.4222654872
0.4174308441
0.424003096
0.4232075486
0.425609264
0.4272426251
0.4283961445
0.3110409295
0.4217450665
0.4127591674
0.407884055
0.4086451351
0.4003829903
0.4017038267
0.4018299232
0.4085302016
0.4190795845
0.4180511963
0.42117652
0.417288553
0.4201547202
0.4198390813
0.4130223169
0.4145279569
0.4141565322
0.4110494902
0.4101578666
0.3078930472
0.4176860387
0.4121584434
0.4098581944
0.4074538737
0.4145469896
0.4144102585
0.4186677308
0.4175483714
0.4093661369
0.4119245079
0.4122108946
0.415426885
0.4136688349
0.418716501
0.4206415882
0.417872433
0.4177098169
0.4088683004
0.4123737157
0.3141909691
0.4245804276
0.4152355865
0.4181048898
0.4204860633
0.4246591427
0.4238116049
0.4108259861
0.412683031
0.4128427436
0.4056300793
0.4119584242
0.4115468697
0.4080752341
0.4029136663
0.4068183806
0.4125837451
0.4162254424
0.4251301218
0.4303240028
0.3087431757
0.4269154482
0.4113800168
0.4180865191
0.4122872054
0.4083567832
0.4092654922
0.4095375437
0.4100543023
0.4053282477
0.4075726772
0.4054242185
0.4053394773
0.4199653257
0.4221134273
0.4145476637
0.4149610788
0.4168595596
0.4112014971
0.4103346159
0.3088792395
0.4210387951
0.4160045364
0.4190343796
0.421806933
0.4156789858
0.4184371877
0.4173404972
0.4163891392
0.4184401942
0.4183244545
0.4174628269
0.4183709031
0.4112442437
0.4061035146
0.4129427031
0.4040215902
0.4042165721
0.4063827022
0.4039668269
0.308016458
0.4155711143
0.4137661128
0.4146136469
0.4176776185
0.4119059288
0.4129929066
0.4138796229
0.4122021008
0.4148345303
0.4121723967
0.4156147299
0.4120012441
0.411991152
0.408066513
0.4128691214
0.4164709503
0.413099079
0.4105612251
0.4122475579
0.3192794259
0.4325520031
0.4131341289
0.4109993257
0.4113605205
0.4201371289
0.4258981267
0.4258447369
0.423078134
0.4220145637
0.414647871
0.4121762506
0.4166379456
0.4113927182
0.4198551233
0.4204069558
0.420802863
0.4259310741
0.4233654469
0.4199379793
0.3111574682
0.4208717042
0.4166532335
0.4252547719
0.4295631721
0.4208131588
0.4119089932
0.4125886606
0.4171151147
0.4274348657
0.4254473288
0.4222680885
0.4185516426
0.4262181524
0.4291549975
0.416660892
0.4139851073
0.4072985792
0.4079301283
0.4130039179
0.311798629
0.4273813636
0.4128047507
0.4133598044
0.4085264848
0.4107451464
0.4207301212
0.4181740925
0.4132347916
0.4156477926
0.416668289
0.4267237546
0.4244058097
0.4151604346
0.4083837791
0.4127298917
0.4129756476
0.4140660509
0.4205042675
0.4134846652
0.3067556163
0.4056444962
0.4019373117
0.4033680681
0.3958660616
0.4006151187
0.4037852107
0.4088694435
0.4081738671
0.4130363802
0.4118681606
0.4055489203
0.4101826075
0.4145439546
0.4140814428
0.4100766985
0.4094454522
0.4106159859
0.4036147428
0.405159315
0.4280294253
0.4365929215
0.4213516906
0.430111892
0.4366669824
0.4495087289
0.4088284269
0.4217605362
0.4236473528
0.4178610633
0.4202726974
0.4183894227
0.4170204921
0.4327648738
0.4183222091
0.4344844251
0.4166929638
0.4093735176
0.4104486453
0.4158779101
0.4252729317
0.4275666334
0.4249184033
0.4218730669
0.4209101742
0.4357879987
0.4212202118
0.4231105047
0.4212662386
0.4094584897
0.4096125804
0.41580583
0.4167484309
0.4251521123
0.4296776614
0.4307029544
0.4128474267
0.4184203143
0.4206039187
0.4206817984
0.4197541378
0.4227068065
0.4203202986
0.4154103984
0.4210012566
0.4190990569
0.4260921517
0.4216098784
0.4214437471
0.4230871637
0.4234005053
0.4278469488
0.4362623753
0.4411490735
0.4352647267
0.4327791711
0.421635866
0.4204616857
0.4267074364
0.4277247882
0.4404235553
0.4297473332
0.4183646471
0.4172786796
0.4100812421
0.417878796
0.4124992229
0.4147112493
0.4177123533
0.4134966641
0.4180990003
0.4209242638
0.4212834892
0.4308697578
0.4235941274
0.4181533771
0.4254345855
0.423905456
0.4253264952
0.4199776155
0.4197467539
0.4176245094
0.4191524311
0.4184902603
0.4226580817
0.4191819795
0.4069391825
0.4095125962
0.4075574377
0.4000769687
0.4126603059
0.4066272435
0.403185425
0.4037628373
0.410318681
0.4163377477
0.4130167334
0.4203661891
0.426579144
0.4333041526
0.4134028581
0.4139362116
0.4193149109
0.4197341408
0.41623944
0.4121942458
0.4225576351
0.4185361129
0.4086615477
0.4080999269
0.4193023054
0.4209398179
0.4195120795
0.4183764611
0.4183969577
0.4205303172
0.4094897465
0.4136143537
0.4146748096
0.4187415698
0.4135389209
0.407156984
0.4083575717
0.4103214003
0.4170192563
0.4227386228
0.412060279
0.4118864822
0.4196827561
0.4199413781
0.4207735173
0.4247776452
0.4217937723
0.4223866873
0.4146562487
0.4089835189
0.4087415588
0.4170905068
0.4107597295
0.4179064393
0.416181904
0.4118178515
0.410553552
0.413320038
0.4107985313
0.4043655249
0.4137049629
0.4100879814
0.4112302883
0.4021270038
0.4064380888
0.4043690352
0.3989557069
0.3996512844
0.4062095989
0.4126961537
0.4124398381
0.4189973447
0.4200635307
0.4211261119
0.4235278114
0.4165966643
0.4224812255
0.41697554
0.416528412
0.4173882855
0.4122616624
0.4104554358
0.4085167553
0.4098321888
0.413707824
0.4156272363
0.4209207472
0.4232953433
0.4266051896
0.4254848266
0.4142820067
0.4118656319
0.4108134721
0.4164935017
0.4152848781
0.4097737233
0.4057632986
0.4039775404
0.4029936113
0.4038739961
)
;

boundaryField
{
    flow
    {
        type            calculated;
        value           nonuniform List<scalar> 
48
(
0.3023753728
0.3167816787
0.3089040357
0.3130836964
0.3092725894
0.312288556
0.303139224
0.3101071588
0.3110409295
0.3078930472
0.3141909691
0.3087431757
0.3088792395
0.308016458
0.3192794259
0.3111574682
0.311798629
0.3067556163
0.3067556163
0.4056444962
0.4019373117
0.4033680681
0.3958660616
0.4006151187
0.4037852107
0.4088694435
0.4081738671
0.4130363802
0.4118681606
0.4055489203
0.4101826075
0.4145439546
0.4140814428
0.4100766985
0.4094454522
0.4106159859
0.4036147428
0.405159315
0.4142820067
0.4118656319
0.4108134721
0.4164935017
0.4152848781
0.4097737233
0.4057632986
0.4039775404
0.4029936113
0.4038739961
)
;
    }
    obstacle
    {
        type            calculated;
        value           nonuniform List<scalar> 0();
    }
    frontAndBack
    {
        type            empty;
    }
    procBoundary2to0
    {
        type            processor;
        value           nonuniform List<scalar> 
31
(
0.3108010126
0.42248358
0.409065082
0.4028045175
0.4029512045
0.4014373799
0.4030960151
0.4125732108
0.416377292
0.4139877335
0.4118777979
0.4106859668
0.4108309294
0.4119743488
0.417562511
0.4116238004
0.4085418187
0.4118113672
0.4173834543
0.4191282476
0.4245193473
0.4279097065
0.4281335669
0.4383088287
0.4653812156
0.4605055043
0.4149609371
0.4110792363
0.4145253199
0.4186400664
0.4186400664
)
;
    }
    procBoundary2to3
    {
        type            processor;
        value           nonuniform List<scalar> 
19
(
0.4592998404
0.4457198482
0.4408851774
0.4391396197
0.4293656552
0.4291394558
0.4257466493
0.4177573509
0.413804854
0.4135556954
0.4132594124
0.425960607
0.4223892106
0.4046887166
0.4156025106
0.415328212
0.4291609816
0.41992507
0.4039838784
)
;
    }
}


// ************************************************************************* //
