/*--------------------------------*- C++ -*----------------------------------*\
| =========                 |                                                 |
| \\      /  F ield         | OpenFOAM: The Open Source CFD Toolbox           |
|  \\    /   O peration     | Version:  2406                                  |
|   \\  /    A nd           | Website:  www.openfoam.com                      |
|    \\/     M anipulation  |                                                 |
\*---------------------------------------------------------------------------*/
FoamFile
{
    version     2.0;
    format      ascii;
    arch        "LSB;label=32;scalar=64";
    class       volScalarField;
    location    "0.003";
    object      rhoM;
}
// * * * * * * * * * * * * * * * * * * * * * * * * * * * * * * * * * * * * * //

dimensions      [1 -3 0 0 0 0 0];

internalField   nonuniform List<scalar> 
546
(
4.080829287e-06
4.911449774e-06
4.01188862e-06
4.634020865e-06
3.942947953e-06
5.602522687e-06
5.53358202e-06
4.980390442e-06
5.879951596e-06
4.218710622e-06
4.911449774e-06
8.370146817e-06
5.395700685e-06
9.683351974e-06
7.470585662e-06
5.53358202e-06
6.502083841e-06
4.427198864e-06
3.942947953e-06
4.080829287e-06
3.942947953e-06
4.980390442e-06
6.639965176e-06
3.874007286e-06
5.049331109e-06
6.364202506e-06
5.602522687e-06
4.496139531e-06
9.130160396e-06
5.53358202e-06
4.980390442e-06
4.01188862e-06
5.464641352e-06
5.395700685e-06
5.53358202e-06
3.389756375e-06
5.464641352e-06
4.842509107e-06
1.072079446e-05
5.53358202e-06
2.974446132e-06
6.01783293e-06
3.389756375e-06
4.980390442e-06
4.980390442e-06
4.980390442e-06
4.980390442e-06
5.118271776e-06
1.590634067e-06
3.665519044e-06
5.53358202e-06
4.980390442e-06
3.942947953e-06
5.879951596e-06
7.262097421e-06
5.53358202e-06
3.942947953e-06
4.496139531e-06
6.155714265e-06
4.080829287e-06
4.496139531e-06
2.559135888e-06
6.571024508e-06
4.01188862e-06
2.905505464e-06
4.080829287e-06
5.326760018e-06
2.974446132e-06
3.942947953e-06
5.118271776e-06
4.565080198e-06
3.874007286e-06
4.427198864e-06
3.043386799e-06
2.905505464e-06
3.52763771e-06
3.458697042e-06
6.01783293e-06
6.01783293e-06
4.980390442e-06
4.01188862e-06
5.811010928e-06
4.911449774e-06
6.502083841e-06
5.049331109e-06
3.458697042e-06
4.080829287e-06
5.464641352e-06
4.01188862e-06
2.421254554e-06
4.496139531e-06
3.942947953e-06
4.427198864e-06
4.427198864e-06
4.565080198e-06
2.974446132e-06
4.01188862e-06
8.02377724e-06
3.874007286e-06
6.224654932e-06
2.974446132e-06
4.427198864e-06
6.224654932e-06
3.596578377e-06
6.917394084e-06
5.395700685e-06
5.187212443e-06
4.842509107e-06
4.01188862e-06
4.358258196e-06
7.954836573e-06
3.52763771e-06
4.565080198e-06
4.080829287e-06
5.879951596e-06
6.433143174e-06
3.942947953e-06
3.458697042e-06
3.596578377e-06
4.427198864e-06
2.421254554e-06
5.948892263e-06
3.665519044e-06
2.490195221e-06
5.464641352e-06
6.848453417e-06
3.458697042e-06
4.565080198e-06
3.458697042e-06
3.458697042e-06
5.53358202e-06
6.086773598e-06
3.389756375e-06
4.080829287e-06
4.427198864e-06
5.187212443e-06
5.879951596e-06
4.980390442e-06
7.677407664e-06
5.811010928e-06
3.043386799e-06
2.974446132e-06
4.427198864e-06
7.954836573e-06
5.049331109e-06
5.464641352e-06
4.634020865e-06
7.055275419e-06
2.00594431e-06
6.639965176e-06
4.565080198e-06
5.395700685e-06
3.942947953e-06
4.080829287e-06
6.086773598e-06
6.01783293e-06
5.671463354e-06
6.639965176e-06
3.389756375e-06
4.496139531e-06
3.043386799e-06
5.948892263e-06
6.086773598e-06
4.496139531e-06
3.043386799e-06
2.974446132e-06
4.980390442e-06
4.01188862e-06
5.395700685e-06
5.395700685e-06
4.01188862e-06
6.086773598e-06
7.055275419e-06
4.634020865e-06
4.427198864e-06
3.942947953e-06
2.490195221e-06
3.458697042e-06
5.395700685e-06
4.980390442e-06
4.427198864e-06
5.879951596e-06
3.043386799e-06
4.496139531e-06
7.124216086e-06
3.389756375e-06
5.948892263e-06
7.954836573e-06
6.364202506e-06
5.879951596e-06
3.389756375e-06
4.01188862e-06
7.401644995e-06
2.974446132e-06
5.53358202e-06
2.559135888e-06
2.00594431e-06
1.521693399e-06
6.77951275e-06
9.685018214e-07
4.565080198e-06
4.080829287e-06
3.942947953e-06
2.974446132e-06
3.458697042e-06
2.490195221e-06
4.980390442e-06
4.496139531e-06
4.496139531e-06
6.433143174e-06
2.00594431e-06
3.458697042e-06
3.043386799e-06
6.502083841e-06
4.427198864e-06
4.634020865e-06
4.911449774e-06
7.055275419e-06
6.986334752e-06
4.911449774e-06
3.112327466e-06
4.427198864e-06
6.433143174e-06
4.565080198e-06
4.565080198e-06
5.53358202e-06
7.885895906e-06
4.980390442e-06
4.496139531e-06
6.01783293e-06
2.490195221e-06
3.52763771e-06
5.879951596e-06
4.427198864e-06
5.464641352e-06
4.980390442e-06
4.427198864e-06
2.074884977e-06
5.464641352e-06
2.00594431e-06
4.496139531e-06
4.080829287e-06
4.911449774e-06
4.496139531e-06
3.52763771e-06
2.974446132e-06
4.980390442e-06
5.049331109e-06
2.974446132e-06
4.496139531e-06
2.974446132e-06
4.565080198e-06
2.905505464e-06
5.395700685e-06
3.043386799e-06
3.942947953e-06
4.496139531e-06
4.080829287e-06
2.974446132e-06
5.049331109e-06
4.01188862e-06
5.464641352e-06
3.942947953e-06
4.496139531e-06
3.942947953e-06
4.980390442e-06
5.118271776e-06
6.986334752e-06
5.948892263e-06
5.187212443e-06
3.458697042e-06
8.02377724e-06
4.01188862e-06
4.496139531e-06
5.53358202e-06
5.671463354e-06
3.389756375e-06
6.848453417e-06
5.602522687e-06
9.614411307e-06
4.080829287e-06
5.395700685e-06
5.464641352e-06
3.942947953e-06
6.639965176e-06
6.986334752e-06
2.974446132e-06
7.470585662e-06
6.01783293e-06
5.187212443e-06
2.490195221e-06
3.043386799e-06
6.639965176e-06
9.685018214e-07
4.358258196e-06
4.01188862e-06
4.911449774e-06
3.596578377e-06
5.049331109e-06
7.954836573e-06
3.458697042e-06
5.53358202e-06
4.080829287e-06
5.602522687e-06
4.427198864e-06
5.602522687e-06
4.358258196e-06
3.458697042e-06
4.01188862e-06
4.01188862e-06
7.332704328e-06
6.295261839e-06
6.571024508e-06
5.326760018e-06
4.980390442e-06
3.458697042e-06
4.496139531e-06
4.427198864e-06
2.143825645e-06
3.389756375e-06
3.043386799e-06
5.53358202e-06
4.427198864e-06
3.389756375e-06
4.01188862e-06
6.086773598e-06
4.911449774e-06
3.665519044e-06
5.464641352e-06
4.911449774e-06
6.086773598e-06
3.458697042e-06
4.427198864e-06
4.080829287e-06
3.458697042e-06
2.559135888e-06
3.52763771e-06
5.53358202e-06
4.565080198e-06
6.01783293e-06
3.458697042e-06
4.496139531e-06
6.986334752e-06
4.01188862e-06
2.421254554e-06
4.911449774e-06
6.571024508e-06
8.02377724e-06
3.52763771e-06
7.53952633e-06
5.049331109e-06
4.427198864e-06
3.458697042e-06
7.124216086e-06
4.080829287e-06
6.224654932e-06
4.911449774e-06
5.53358202e-06
2.974446132e-06
4.634020865e-06
6.708392337e-06
6.827455578e-06
7.745254037e-06
4.665950111e-06
3.671551023e-06
4.437207236e-06
5.345650065e-06
3.564490058e-06
3.448883191e-06
3.047428293e-06
6.20877634e-06
1.006297139e-06
3.763543565e-06
4.08292586e-06
3.230681872e-06
4.363491336e-06
4.373713719e-06
5.032419334e-06
8.656431917e-06
3.047428293e-06
2.640336219e-06
5.677896391e-06
4.05385165e-06
5.831998615e-06
5.727761098e-06
7.470249063e-06
4.442898838e-06
2.026899908e-06
6.967909566e-06
5.243855673e-06
5.209544347e-06
3.162153504e-06
2.533657282e-06
4.228242928e-06
4.772839418e-06
4.807568356e-06
4.442898838e-06
1.607251012e-06
4.504421573e-06
8.291284023e-06
4.567672097e-06
4.671599213e-06
4.704865321e-06
6.487681341e-06
3.598367607e-06
6.287231354e-06
4.026115799e-06
5.0324193e-06
2.956185592e-06
5.173223487e-06
5.209544347e-06
6.324307009e-06
4.63272423e-06
4.883925704e-06
5.800944489e-06
5.472793145e-06
4.928867026e-06
4.962758461e-06
4.152010344e-06
5.031959007e-06
6.20877634e-06
5.103116774e-06
4.63272423e-06
3.645218647e-06
5.28689197e-06
3.698266608e-06
6.039173739e-06
6.570009484e-06
7.108195936e-06
5.669356168e-06
6.279904467e-06
6.899086622e-06
4.198133897e-06
8.456485797e-06
7.416285384e-06
7.988042017e-06
3.401777314e-06
4.893097588e-06
6.052657595e-06
2.621927855e-06
3.139952234e-06
4.240081687e-06
3.11252984e-06
5.686681576e-06
4.699656061e-06
3.254189527e-06
2.220613345e-06
5.521729056e-06
3.096471941e-06
8.220651688e-06
3.211080338e-06
5.174747818e-06
2.750080671e-06
4.082925888e-06
5.947311271e-06
3.771982481e-06
2.915809127e-06
6.989658369e-06
7.811323143e-06
3.047428314e-06
5.78028851e-06
5.749527436e-06
4.704865321e-06
2.84246272e-06
6.829049478e-06
2.144887718e-06
4.650454315e-06
6.50034861e-06
6.755784708e-06
2.05516295e-06
8.849112577e-06
3.665302074e-06
3.619261318e-06
7.363095864e-06
4.258786933e-06
5.325361345e-06
6.594327035e-06
4.962758428e-06
4.574564727e-06
3.118060515e-06
4.567672097e-06
3.162153504e-06
5.718328226e-06
2.551828662e-06
1.542157557e-06
5.546509045e-06
3.956930651e-06
2.026899908e-06
3.026328797e-06
4.1103259e-06
6.566136083e-06
4.096819628e-06
4.125992803e-06
5.17631588e-06
3.671550997e-06
4.289775405e-06
5.414835214e-06
5.171741046e-06
3.448883167e-06
3.047428293e-06
5.56690409e-06
5.174747783e-06
5.57404598e-06
6.342364303e-06
1.761707717e-06
5.251645482e-06
6.455956738e-06
4.962758461e-06
4.434278418e-06
4.110325872e-06
4.709928318e-06
5.749527396e-06
6.803932302e-06
4.665950144e-06
4.772839451e-06
6.360947254e-06
5.553205548e-06
5.661050839e-06
6.122800739e-06
2.551295632e-06
3.139952234e-06
5.821158439e-06
8.396267736e-06
4.665950111e-06
4.258786933e-06
5.769438399e-06
4.512083987e-06
5.591389966e-06
4.081867159e-06
5.598723907e-06
3.497311977e-06
5.677896391e-06
6.659650102e-06
3.863194205e-06
4.185603512e-06
2.071171818e-06
4.442898838e-06
4.612770417e-06
2.04093358e-06
4.677090805e-06
5.209544347e-06
3.59367103e-06
4.414557237e-06
8.89419301e-06
2.716629376e-06
4.955000191e-06
)
;

boundaryField
{
    flow
    {
        type            zeroGradient;
    }
    obstacle
    {
        type            calculated;
        value           nonuniform List<scalar> 0();
    }
    frontAndBack
    {
        type            empty;
    }
    procBoundary2to0
    {
        type            processor;
        value           nonuniform List<scalar> 
31
(
3.52763771e-06
5.53358202e-06
5.53358202e-06
3.942947953e-06
6.917394084e-06
6.086773598e-06
4.565080198e-06
4.01188862e-06
2.974446132e-06
5.049331109e-06
2.074884977e-06
4.01188862e-06
3.942947953e-06
4.980390442e-06
3.043386799e-06
8.370146817e-06
4.980390442e-06
5.879951596e-06
6.917394084e-06
4.358258196e-06
7.421392714e-06
4.671599213e-06
6.731791179e-06
7.80080308e-06
6.902232918e-06
3.771982481e-06
4.095300947e-06
6.430687694e-06
5.559959955e-06
3.047428314e-06
3.047428314e-06
)
;
    }
    procBoundary2to3
    {
        type            processor;
        value           nonuniform List<scalar> 
19
(
2.08635289e-06
3.203785551e-06
4.991318902e-06
4.917062651e-06
3.873886206e-06
5.364394696e-06
3.873886233e-06
4.917062651e-06
3.278041791e-06
4.246961997e-06
7.376491332e-06
4.768550253e-06
4.991318866e-06
7.450747548e-06
2.756453584e-06
3.426554199e-06
2.83070976e-06
5.960239139e-06
4.917062651e-06
)
;
    }
}


// ************************************************************************* //
