/*--------------------------------*- C++ -*----------------------------------*\
| =========                 |                                                 |
| \\      /  F ield         | OpenFOAM: The Open Source CFD Toolbox           |
|  \\    /   O peration     | Version:  2406                                  |
|   \\  /    A nd           | Website:  www.openfoam.com                      |
|    \\/     M anipulation  |                                                 |
\*---------------------------------------------------------------------------*/
FoamFile
{
    version     2.0;
    format      ascii;
    arch        "LSB;label=32;scalar=64";
    class       volScalarField;
    location    "0.003";
    object      rhoMMean;
}
// * * * * * * * * * * * * * * * * * * * * * * * * * * * * * * * * * * * * * //

dimensions      [1 -3 0 0 0 0 0];

internalField   nonuniform List<scalar> 
546
(
3.694857082e-06
4.738570047e-06
4.833240093e-06
4.799201316e-06
4.819222574e-06
4.816549093e-06
4.781413929e-06
4.739860272e-06
4.722158141e-06
4.710292987e-06
4.715783386e-06
4.799668696e-06
4.807190241e-06
4.78090281e-06
4.793219793e-06
4.751018246e-06
4.768315619e-06
4.733551472e-06
4.688074514e-06
4.665253001e-06
3.75397721e-06
4.814461989e-06
4.846829528e-06
4.852921855e-06
4.853838843e-06
4.869227399e-06
4.859549046e-06
4.851211322e-06
4.837559264e-06
4.829456896e-06
4.826783415e-06
4.788653047e-06
4.797185721e-06
4.761995711e-06
4.75826625e-06
4.783992158e-06
4.813636922e-06
4.870075793e-06
4.887140031e-06
4.894556325e-06
3.692553505e-06
4.754987507e-06
4.751152795e-06
4.724265657e-06
4.774986549e-06
4.804084231e-06
4.811141728e-06
4.814459767e-06
4.819209244e-06
4.857117586e-06
4.84382988e-06
4.883299766e-06
4.852450032e-06
4.864400442e-06
4.832486953e-06
4.803249167e-06
4.746349581e-06
4.76345978e-06
4.761102467e-06
4.751652806e-06
3.715510678e-06
4.788223851e-06
4.825662591e-06
4.786241998e-06
4.721309748e-06
4.718175551e-06
4.771849019e-06
4.767606218e-06
4.791494818e-06
4.7773876e-06
4.768945735e-06
4.723799388e-06
4.776458394e-06
4.789514076e-06
4.83534983e-06
4.800491541e-06
4.779418746e-06
4.793855463e-06
4.879212618e-06
4.825354197e-06
3.713993983e-06
4.831257129e-06
4.83780684e-06
4.833788286e-06
4.853766917e-06
4.828866075e-06
4.761083167e-06
4.787170093e-06
4.741096761e-06
4.69737963e-06
4.729804238e-06
4.757284418e-06
4.770844554e-06
4.778122967e-06
4.779000659e-06
4.828295666e-06
4.835211949e-06
4.872791903e-06
4.800715789e-06
4.790624902e-06
3.734377371e-06
4.759462332e-06
4.770749301e-06
4.759375965e-06
4.771910531e-06
4.793958493e-06
4.779474704e-06
4.752497867e-06
4.792664935e-06
4.809399675e-06
4.786347249e-06
4.764809295e-06
4.743635693e-06
4.752812925e-06
4.750049744e-06
4.794779116e-06
4.8197741e-06
4.755439335e-06
4.801263982e-06
4.827914652e-06
3.681615336e-06
4.745842906e-06
4.813810767e-06
4.80334331e-06
4.8102103e-06
4.848079346e-06
4.833503637e-06
4.867216248e-06
4.833794951e-06
4.868782236e-06
4.887555897e-06
4.870262967e-06
4.886078498e-06
4.829674479e-06
4.820223707e-06
4.795687216e-06
4.790156411e-06
4.740773927e-06
4.72675974e-06
4.728381686e-06
3.717773848e-06
4.807729547e-06
4.845914762e-06
4.8377027e-06
4.841804288e-06
4.826119973e-06
4.838524434e-06
4.823772658e-06
4.857381129e-06
4.817959426e-06
4.821055438e-06
4.79984143e-06
4.818794489e-06
4.862703238e-06
4.848453695e-06
4.880459105e-06
4.892030723e-06
4.905774701e-06
4.931274139e-06
4.92486231e-06
3.747060927e-06
4.815620997e-06
4.820225928e-06
4.796239852e-06
4.798457062e-06
4.72905443e-06
4.732928437e-06
4.727072577e-06
4.7449741e-06
4.811097989e-06
4.80524324e-06
4.836317221e-06
4.784996622e-06
4.823917205e-06
4.810417469e-06
4.769141796e-06
4.768590271e-06
4.759553142e-06
4.727410962e-06
4.712744443e-06
3.69061428e-06
4.732104482e-06
4.755026802e-06
4.749686504e-06
4.73475533e-06
4.794749818e-06
4.81909469e-06
4.848692384e-06
4.825449451e-06
4.758814443e-06
4.802203185e-06
4.79298888e-06
4.821205538e-06
4.791693101e-06
4.790526317e-06
4.816210707e-06
4.800804377e-06
4.797264312e-06
4.760741449e-06
4.776838296e-06
3.745120591e-06
4.797268755e-06
4.838025534e-06
4.83530387e-06
4.838104125e-06
4.826161491e-06
4.826345332e-06
4.739746134e-06
4.764507984e-06
4.784389139e-06
4.723428371e-06
4.770516166e-06
4.756862998e-06
4.773008028e-06
4.725096277e-06
4.76259764e-06
4.767760761e-06
4.871143992e-06
4.919013114e-06
4.951339136e-06
3.710809383e-06
4.8318031e-06
4.797859576e-06
4.803255832e-06
4.756489761e-06
4.744508942e-06
4.759315564e-06
4.741708687e-06
4.761207718e-06
4.749126092e-06
4.765173646e-06
4.772500241e-06
4.764295955e-06
4.826961702e-06
4.86380851e-06
4.831290871e-06
4.840473656e-06
4.775173723e-06
4.755305897e-06
4.766967215e-06
3.685955613e-06
4.775867573e-06
4.810131709e-06
4.826786747e-06
4.849982609e-06
4.820272999e-06
4.816307071e-06
4.848862896e-06
4.839315759e-06
4.831151878e-06
4.819571374e-06
4.77932016e-06
4.79084915e-06
4.765168092e-06
4.737166795e-06
4.767606218e-06
4.707615063e-06
4.72651883e-06
4.738038933e-06
4.719448003e-06
3.709246728e-06
4.730395058e-06
4.777978421e-06
4.769727063e-06
4.806376699e-06
4.769167762e-06
4.771064359e-06
4.745983009e-06
4.760223665e-06
4.76065175e-06
4.754987507e-06
4.784957327e-06
4.773838648e-06
4.762391582e-06
4.742424059e-06
4.784759044e-06
4.816531319e-06
4.805189504e-06
4.780012899e-06
4.816676977e-06
3.746784053e-06
4.815065028e-06
4.788590424e-06
4.773563996e-06
4.762770373e-06
4.819033178e-06
4.812662866e-06
4.818329331e-06
4.778718231e-06
4.771104766e-06
4.760460132e-06
4.754181741e-06
4.788819115e-06
4.769140685e-06
4.831216723e-06
4.818156597e-06
4.818525392e-06
4.839370606e-06
4.825953905e-06
4.802951882e-06
3.72077905e-06
4.799399598e-06
4.798336954e-06
4.821805246e-06
4.881247097e-06
4.833419492e-06
4.796895518e-06
4.818893075e-06
4.85568948e-06
4.869984983e-06
4.838626352e-06
4.803539371e-06
4.76558618e-06
4.800121635e-06
4.849933316e-06
4.787686766e-06
4.76268845e-06
4.723849791e-06
4.685615283e-06
4.726239734e-06
3.733403315e-06
4.831104807e-06
4.855450791e-06
4.854899265e-06
4.79394183e-06
4.819026513e-06
4.876724089e-06
4.86048825e-06
4.850992628e-06
4.856751013e-06
4.848263188e-06
4.900187938e-06
4.896815052e-06
4.838151196e-06
4.744951884e-06
4.784474395e-06
4.792544133e-06
4.772676307e-06
4.804774749e-06
4.785043694e-06
3.648741121e-06
4.625948073e-06
4.673029203e-06
4.714719631e-06
4.700230288e-06
4.735234235e-06
4.737727207e-06
4.749295493e-06
4.73564899e-06
4.773784912e-06
4.800857003e-06
4.778266403e-06
4.770654048e-06
4.803913719e-06
4.799574553e-06
4.760474573e-06
4.749313266e-06
4.751064206e-06
4.761022766e-06
4.749169831e-06
4.846195372e-06
4.868726402e-06
4.838634288e-06
4.843447484e-06
4.861107759e-06
4.878785225e-06
4.74014499e-06
4.767237437e-06
4.83146216e-06
4.780198026e-06
4.782723296e-06
4.766329789e-06
4.793512918e-06
4.816420564e-06
4.74718676e-06
4.780343542e-06
4.855922641e-06
4.823752819e-06
4.829365069e-06
4.808046042e-06
4.826538046e-06
4.816772938e-06
4.830472712e-06
4.772741598e-06
4.82217906e-06
4.861071287e-06
4.787614781e-06
4.806839889e-06
4.817315558e-06
4.785841775e-06
4.794281581e-06
4.802348158e-06
4.828347273e-06
4.875078486e-06
4.871630362e-06
4.912192672e-06
4.834415015e-06
4.842309096e-06
4.820702775e-06
4.822895486e-06
4.827871535e-06
4.800913228e-06
4.79886179e-06
4.785598976e-06
4.757369053e-06
4.767280016e-06
4.802516691e-06
4.799790288e-06
4.786434191e-06
4.825137508e-06
4.832460839e-06
4.836886151e-06
4.880354267e-06
4.937323204e-06
4.913800833e-06
4.900410486e-06
4.81703958e-06
4.816427975e-06
4.817605172e-06
4.829521937e-06
4.894168822e-06
4.863037936e-06
4.783875504e-06
4.770802867e-06
4.742555383e-06
4.791062447e-06
4.747646002e-06
4.754202646e-06
4.778573633e-06
4.766714204e-06
4.753314216e-06
4.798027212e-06
4.821912401e-06
4.830013926e-06
4.797353421e-06
4.767272889e-06
4.939919789e-06
4.911730082e-06
4.914163763e-06
4.823422561e-06
4.781261338e-06
4.773761673e-06
4.75882165e-06
4.743278678e-06
4.768483087e-06
4.74796452e-06
4.695061356e-06
4.682849536e-06
4.664121821e-06
4.658363173e-06
4.735746753e-06
4.729607118e-06
4.747558838e-06
4.722904326e-06
4.762595398e-06
4.788470108e-06
4.774483398e-06
4.862380019e-06
4.874232441e-06
4.894329488e-06
4.817971793e-06
4.774507303e-06
4.827285683e-06
4.803685021e-06
4.799627192e-06
4.749395633e-06
4.92478618e-06
4.858467786e-06
4.785318681e-06
4.792710561e-06
4.863705068e-06
4.876003482e-06
4.861366839e-06
4.872278389e-06
4.873640176e-06
4.861430735e-06
4.770502291e-06
4.790398067e-06
4.809115201e-06
4.795536955e-06
4.753799864e-06
4.723074017e-06
4.727642446e-06
4.768394233e-06
4.81834876e-06
4.859029067e-06
4.736336115e-06
4.747993498e-06
4.785706373e-06
4.815519007e-06
4.844188886e-06
4.876762963e-06
4.868258276e-06
4.863765269e-06
4.819601467e-06
4.806790368e-06
4.808018756e-06
4.867867832e-06
4.841560485e-06
4.875174536e-06
4.8479927e-06
4.832963396e-06
4.808258734e-06
4.772271662e-06
4.760543871e-06
4.680284894e-06
4.744644603e-06
4.731974163e-06
4.718513581e-06
4.679746061e-06
4.716918501e-06
4.667953748e-06
4.654248439e-06
4.708661354e-06
4.744048973e-06
4.805780204e-06
4.748456158e-06
4.776126669e-06
4.803004512e-06
4.782960326e-06
4.794756915e-06
4.803888983e-06
4.829066326e-06
4.781083645e-06
4.788850032e-06
4.786867362e-06
4.763279166e-06
4.741740154e-06
4.747910254e-06
4.752233499e-06
4.797456345e-06
4.793429008e-06
4.810443958e-06
4.846203825e-06
4.862014668e-06
4.863282764e-06
4.776283327e-06
4.737840236e-06
4.722086684e-06
4.760066808e-06
4.726818308e-06
4.718114956e-06
4.726666615e-06
4.691025276e-06
4.683149189e-06
4.667374705e-06
)
;

boundaryField
{
    flow
    {
        type            calculated;
        value           nonuniform List<scalar> 
48
(
3.694857082e-06
3.75397721e-06
3.692553505e-06
3.715510678e-06
3.713993983e-06
3.734377371e-06
3.681615336e-06
3.717773848e-06
3.747060927e-06
3.69061428e-06
3.745120591e-06
3.710809383e-06
3.685955613e-06
3.709246728e-06
3.746784053e-06
3.72077905e-06
3.733403315e-06
3.648741121e-06
3.648741121e-06
4.625948073e-06
4.673029203e-06
4.714719631e-06
4.700230288e-06
4.735234235e-06
4.737727207e-06
4.749295493e-06
4.73564899e-06
4.773784912e-06
4.800857003e-06
4.778266403e-06
4.770654048e-06
4.803913719e-06
4.799574553e-06
4.760474573e-06
4.749313266e-06
4.751064206e-06
4.761022766e-06
4.749169831e-06
4.776283327e-06
4.737840236e-06
4.722086684e-06
4.760066808e-06
4.726818308e-06
4.718114956e-06
4.726666615e-06
4.691025276e-06
4.683149189e-06
4.667374705e-06
)
;
    }
    obstacle
    {
        type            calculated;
        value           nonuniform List<scalar> 0();
    }
    frontAndBack
    {
        type            empty;
    }
    procBoundary2to0
    {
        type            processor;
        value           nonuniform List<scalar> 
31
(
3.687286244e-06
4.742661637e-06
4.743029321e-06
4.684142327e-06
4.707935675e-06
4.68800967e-06
4.738608232e-06
4.808888556e-06
4.819040954e-06
4.836098528e-06
4.791000362e-06
4.779011767e-06
4.764307063e-06
4.75728664e-06
4.759038691e-06
4.772788223e-06
4.757294416e-06
4.758812221e-06
4.811116874e-06
4.790596715e-06
4.822600031e-06
4.793646537e-06
4.77127529e-06
4.7952747e-06
4.858855215e-06
4.844797964e-06
4.811710442e-06
4.776196649e-06
4.759052778e-06
4.779148463e-06
4.779148463e-06
)
;
    }
    procBoundary2to3
    {
        type            processor;
        value           nonuniform List<scalar> 
19
(
4.86721108e-06
4.857799759e-06
4.834522527e-06
4.909067507e-06
4.786465335e-06
4.826858209e-06
4.843498331e-06
4.745504769e-06
4.756041558e-06
4.755326929e-06
4.790718653e-06
4.891935968e-06
4.8787611e-06
4.772227734e-06
4.73138105e-06
4.800674969e-06
4.875140119e-06
4.829388902e-06
4.654199087e-06
)
;
    }
}


// ************************************************************************* //
