/*--------------------------------*- C++ -*----------------------------------*\
| =========                 |                                                 |
| \\      /  F ield         | OpenFOAM: The Open Source CFD Toolbox           |
|  \\    /   O peration     | Version:  2406                                  |
|   \\  /    A nd           | Website:  www.openfoam.com                      |
|    \\/     M anipulation  |                                                 |
\*---------------------------------------------------------------------------*/
FoamFile
{
    version     2.0;
    format      ascii;
    arch        "LSB;label=32;scalar=64";
    class       volScalarField;
    location    "0.003";
    object      rhoNMean;
}
// * * * * * * * * * * * * * * * * * * * * * * * * * * * * * * * * * * * * * //

dimensions      [0 -3 0 0 0 0 0];

internalField   nonuniform List<scalar> 
546
(
7.701498713e+19
9.882884178e+19
1.007866734e+20
1.000368656e+20
1.005020241e+20
1.004534255e+20
9.974527361e+19
9.884966977e+19
9.851642183e+19
9.81831739e+19
9.831508454e+19
1.000854642e+20
1.002729162e+20
9.971056028e+19
9.999520956e+19
9.907183506e+19
9.946062433e+19
9.877330045e+19
9.777355664e+19
9.732922605e+19
7.825772424e+19
1.003354002e+20
1.00981068e+20
1.011407493e+20
1.01126864e+20
1.013629146e+20
1.011962907e+20
1.010782654e+20
1.007797307e+20
1.006964188e+20
1.006478201e+20
9.989106958e+19
1.000785215e+20
9.931482835e+19
9.927317236e+19
9.977304427e+19
1.003492855e+20
1.014948253e+20
1.018627865e+20
1.019669265e+20
7.69802738e+19
9.917597505e+19
9.905100707e+19
9.847476584e+19
9.950228032e+19
1.001062922e+20
1.002659735e+20
1.003215148e+20
1.004187121e+20
1.012240613e+20
1.009046987e+20
1.017031052e+20
1.0106438e+20
1.01355972e+20
1.006755908e+20
1.000576935e+20
9.89052111e+19
9.927317236e+19
9.918986038e+19
9.901629374e+19
7.741071906e+19
9.979387226e+19
1.005367375e+20
9.975915894e+19
9.838451119e+19
9.832896987e+19
9.9425911e+19
9.933565635e+19
9.984247092e+19
9.957170697e+19
9.937731234e+19
9.843310985e+19
9.950922298e+19
9.981470026e+19
1.007589028e+20
1.000576935e+20
9.96272483e+19
9.99466109e+19
1.017239332e+20
1.006200494e+20
7.741071906e+19
1.007450174e+20
1.008908134e+20
1.007658454e+20
1.01251832e+20
1.007380748e+20
9.935648435e+19
9.981470026e+19
9.882189911e+19
9.790546728e+19
9.862056181e+19
9.916903238e+19
9.946756699e+19
9.957170697e+19
9.959947763e+19
1.006200494e+20
1.007589028e+20
1.015225959e+20
1.000229802e+20
9.986329892e+19
7.784116431e+19
9.928011503e+19
9.9446739e+19
9.931482835e+19
9.952310831e+19
1.000160376e+20
9.968973228e+19
9.912737639e+19
9.997438156e+19
1.002937442e+20
9.984247092e+19
9.937731234e+19
9.889132576e+19
9.90857204e+19
9.905100707e+19
9.997438156e+19
1.005020241e+20
9.912737639e+19
1.000021522e+20
1.005367375e+20
7.669562452e+19
9.889826843e+19
1.002868015e+20
1.000715789e+20
1.001896042e+20
1.010366094e+20
1.007103041e+20
1.014323413e+20
1.008075014e+20
1.014531693e+20
1.018766719e+20
1.015156533e+20
1.018350159e+20
1.006200494e+20
1.004395401e+20
9.990495491e+19
9.98077576e+19
9.881495645e+19
9.855113516e+19
9.863444715e+19
7.748014571e+19
1.001965469e+20
1.010088387e+20
1.008144441e+20
1.008838707e+20
1.005228521e+20
1.007797307e+20
1.005020241e+20
1.01147692e+20
1.003631708e+20
1.004673108e+20
1.000160376e+20
1.004117695e+20
1.013768e+20
1.010782654e+20
1.017586466e+20
1.019808119e+20
1.022793465e+20
1.028000464e+20
1.026542504e+20
7.811887093e+19
1.003978842e+20
1.004534255e+20
9.991189758e+19
9.998132423e+19
9.853030716e+19
9.861361915e+19
9.849559384e+19
9.892603909e+19
1.002798588e+20
1.001687762e+20
1.007727881e+20
9.973138828e+19
1.005436801e+20
1.003354002e+20
9.945368166e+19
9.945368166e+19
9.927317236e+19
9.859973382e+19
9.828037121e+19
7.692473248e+19
9.863444715e+19
9.913431905e+19
9.907877773e+19
9.882884178e+19
1.000785215e+20
1.005645081e+20
1.011338067e+20
1.006408774e+20
9.925234436e+19
1.001271202e+20
9.99882669e+19
1.005436801e+20
9.993272557e+19
9.982164293e+19
1.003492855e+20
1.000021522e+20
9.999520956e+19
9.923151637e+19
9.95855923e+19
7.805638694e+19
1.000229802e+20
1.008213867e+20
1.007589028e+20
1.007380748e+20
1.004950815e+20
1.004950815e+20
9.871081646e+19
9.921763104e+19
9.966890429e+19
9.841228185e+19
9.9425911e+19
9.912043372e+19
9.948839499e+19
9.849559384e+19
9.934259901e+19
9.943979633e+19
1.015642519e+20
1.025778811e+20
1.032513196e+20
7.732740707e+19
1.007103041e+20
9.998132423e+19
1.000993495e+20
9.90857204e+19
9.889132576e+19
9.92245737e+19
9.891215376e+19
9.927317236e+19
9.902323641e+19
9.935648435e+19
9.947450966e+19
9.932871368e+19
1.006131068e+20
1.013906853e+20
1.006686481e+20
1.008977561e+20
9.952310831e+19
9.915514705e+19
9.936342701e+19
7.68205925e+19
9.955087898e+19
1.002729162e+20
1.006686481e+20
1.011546347e+20
1.004603681e+20
1.003770562e+20
1.010504947e+20
1.008422147e+20
1.006617054e+20
1.003839988e+20
9.95855923e+19
9.982858559e+19
9.932177102e+19
9.867610314e+19
9.933565635e+19
9.810680458e+19
9.848170851e+19
9.866916047e+19
9.823871522e+19
7.732740707e+19
9.857890582e+19
9.953005098e+19
9.937731234e+19
1.000715789e+20
9.932871368e+19
9.9405083e+19
9.891215376e+19
9.915514705e+19
9.92454017e+19
9.917597505e+19
9.977304427e+19
9.950922298e+19
9.920374571e+19
9.878718578e+19
9.968278962e+19
1.003423428e+20
1.001201775e+20
9.96064203e+19
1.003909415e+20
7.811192826e+19
1.003701135e+20
9.97869296e+19
9.951616565e+19
9.927317236e+19
1.004673108e+20
1.002937442e+20
1.003770562e+20
9.955782164e+19
9.937036968e+19
9.919680304e+19
9.902323641e+19
9.977998693e+19
9.9446739e+19
1.007797307e+20
1.004464828e+20
1.004534255e+20
1.008977561e+20
1.006339348e+20
1.002104322e+20
7.759122836e+19
1.001271202e+20
1.000924069e+20
1.005575655e+20
1.018003026e+20
1.007589028e+20
9.99882669e+19
1.004534255e+20
1.012032333e+20
1.015017679e+20
1.008422147e+20
1.001479482e+20
9.934954168e+19
1.000438082e+20
1.011338067e+20
9.988412691e+19
9.933565635e+19
9.846088051e+19
9.762776066e+19
9.846088051e+19
7.778562299e+19
1.006547628e+20
1.01147692e+20
1.01147692e+20
9.991189758e+19
1.004256548e+20
1.016822772e+20
1.013212586e+20
1.01147692e+20
1.01231004e+20
1.010366094e+20
1.021196652e+20
1.020085825e+20
1.007450174e+20
9.878718578e+19
9.96272483e+19
9.979387226e+19
9.9425911e+19
1.001132349e+20
9.973833094e+19
7.604301398e+19
9.641279422e+19
9.738476738e+19
9.827342855e+19
9.791240994e+19
9.866221781e+19
9.873164446e+19
9.893298176e+19
9.866916047e+19
9.946062433e+19
1.000438082e+20
9.96064203e+19
9.9425911e+19
1.001896042e+20
1.000715789e+20
9.928705769e+19
9.90440644e+19
9.907183506e+19
9.92662297e+19
9.900935108e+19
1.01054946e+20
1.015530546e+20
1.009031276e+20
1.010048541e+20
1.013807376e+20
1.017992084e+20
9.883791701e+19
9.938424878e+19
1.008281795e+20
9.975289868e+19
9.970831073e+19
9.938897478e+19
9.994415261e+19
1.004121713e+20
9.894866049e+19
9.960925968e+19
1.011928603e+20
1.005277254e+20
1.005809478e+20
1.001654534e+20
1.005965163e+20
1.003772386e+20
1.006924442e+20
9.95853422e+19
1.004963462e+20
1.013537951e+20
9.975759874e+19
1.001839809e+20
1.003831624e+20
9.97102206e+19
9.993036228e+19
1.000598395e+20
1.006343245e+20
1.016121717e+20
1.015870949e+20
1.023485507e+20
1.008166262e+20
1.009837123e+20
1.005103101e+20
1.005637829e+20
1.006323317e+20
1.000454123e+20
1.000095366e+20
9.971704879e+19
9.916238842e+19
9.935685881e+19
1.000711266e+20
9.99524788e+19
9.968384964e+19
1.004499747e+20
1.005678651e+20
1.007307043e+20
1.016441549e+20
1.028268056e+20
1.023019787e+20
1.021184212e+20
1.003219489e+20
1.003172695e+20
1.004396725e+20
1.007771726e+20
1.021508778e+20
1.015169874e+20
9.982791313e+19
9.957802513e+19
9.897077098e+19
9.995074392e+19
9.901906711e+19
9.918782336e+19
9.965559458e+19
9.935457061e+19
9.905648197e+19
9.991556755e+19
1.003945806e+20
1.006024151e+20
9.993623092e+19
9.931231749e+19
1.029625502e+20
1.023867517e+20
1.024528462e+20
1.00620687e+20
9.97584514e+19
9.957652837e+19
9.924671507e+19
9.890485456e+19
9.940559676e+19
9.903764595e+19
9.784159514e+19
9.760940413e+19
9.716208493e+19
9.699304885e+19
9.861954114e+19
9.849448912e+19
9.889073307e+19
9.841461147e+19
9.919923876e+19
9.9720613e+19
9.955554745e+19
1.013274574e+20
1.015981306e+20
1.020432897e+20
1.004031179e+20
9.946111146e+19
1.006125289e+20
1.001341219e+20
1.001204791e+20
9.907476373e+19
1.026420558e+20
1.012573055e+20
9.972623223e+19
9.996628976e+19
1.014274195e+20
1.016684722e+20
1.01404411e+20
1.016707083e+20
1.016460551e+20
1.014503013e+20
9.946497274e+19
9.988232686e+19
1.002772052e+20
9.997340209e+19
9.912811151e+19
9.855219723e+19
9.85565432e+19
9.935851299e+19
1.003415777e+20
1.011830533e+20
9.867070215e+19
9.898438274e+19
9.981099808e+19
1.003717315e+20
1.009618276e+20
1.016396185e+20
1.014915913e+20
1.014438791e+20
1.00547935e+20
1.002699554e+20
1.00154734e+20
1.013765631e+20
1.008140513e+20
1.01516926e+20
1.010262941e+20
1.006874227e+20
1.001257761e+20
9.937314643e+19
9.91844982e+19
9.74490059e+19
9.899816459e+19
9.871079019e+19
9.837705381e+19
9.761188167e+19
9.830437119e+19
9.728260371e+19
9.703816576e+19
9.809997739e+19
9.885285212e+19
1.000992143e+20
9.889365596e+19
9.950350708e+19
1.000794205e+20
9.965331717e+19
9.993752524e+19
1.001391891e+20
1.006197938e+20
9.965119585e+19
9.984779248e+19
9.983938988e+19
9.929079059e+19
9.879497251e+19
9.885738915e+19
9.890645009e+19
9.991603638e+19
9.982900504e+19
1.002565469e+20
1.009755858e+20
1.012554481e+20
1.013537951e+20
9.956251474e+19
9.880198704e+19
9.849713714e+19
9.930477952e+19
9.853358638e+19
9.829972125e+19
9.84693636e+19
9.777070849e+19
9.756311462e+19
9.723372211e+19
)
;

boundaryField
{
    flow
    {
        type            calculated;
        value           nonuniform List<scalar> 
48
(
7.701498713e+19
7.825772424e+19
7.69802738e+19
7.741071906e+19
7.741071906e+19
7.784116431e+19
7.669562452e+19
7.748014571e+19
7.811887093e+19
7.692473248e+19
7.805638694e+19
7.732740707e+19
7.68205925e+19
7.732740707e+19
7.811192826e+19
7.759122836e+19
7.778562299e+19
7.604301398e+19
7.604301398e+19
9.641279422e+19
9.738476738e+19
9.827342855e+19
9.791240994e+19
9.866221781e+19
9.873164446e+19
9.893298176e+19
9.866916047e+19
9.946062433e+19
1.000438082e+20
9.96064203e+19
9.9425911e+19
1.001896042e+20
1.000715789e+20
9.928705769e+19
9.90440644e+19
9.907183506e+19
9.92662297e+19
9.900935108e+19
9.956251474e+19
9.880198704e+19
9.849713714e+19
9.930477952e+19
9.853358638e+19
9.829972125e+19
9.84693636e+19
9.777070849e+19
9.756311462e+19
9.723372211e+19
)
;
    }
    obstacle
    {
        type            calculated;
        value           nonuniform List<scalar> 0();
    }
    frontAndBack
    {
        type            empty;
    }
    procBoundary2to0
    {
        type            processor;
        value           nonuniform List<scalar> 
31
(
7.680670717e+19
9.883578444e+19
9.883578444e+19
9.761387533e+19
9.809986191e+19
9.765553133e+19
9.878024312e+19
1.002590308e+20
1.005159095e+20
1.008422147e+20
9.991189758e+19
9.966890429e+19
9.939814034e+19
9.918291771e+19
9.921763104e+19
9.955087898e+19
9.923151637e+19
9.923845903e+19
1.003978842e+20
9.997438156e+19
1.00582191e+20
9.999491714e+19
9.953004948e+19
9.994387941e+19
1.013291481e+20
1.01004888e+20
1.004543273e+20
9.965082547e+19
9.923176869e+19
9.96675432e+19
9.96675432e+19
)
;
    }
    procBoundary2to3
    {
        type            processor;
        value           nonuniform List<scalar> 
19
(
1.015657525e+20
1.01221766e+20
1.008478684e+20
1.023434611e+20
9.968130476e+19
1.005936175e+20
1.00945082e+20
9.893350803e+19
9.91952376e+19
9.906063347e+19
9.996546752e+19
1.020144313e+20
1.016629661e+20
9.949435558e+19
9.852969921e+19
1.000028574e+20
1.016180983e+20
1.006310073e+20
9.695184668e+19
)
;
    }
}


// ************************************************************************* //
