/*--------------------------------*- C++ -*----------------------------------*\
| =========                 |                                                 |
| \\      /  F ield         | OpenFOAM: The Open Source CFD Toolbox           |
|  \\    /   O peration     | Version:  2406                                  |
|   \\  /    A nd           | Website:  www.openfoam.com                      |
|    \\/     M anipulation  |                                                 |
\*---------------------------------------------------------------------------*/
FoamFile
{
    version     2.0;
    format      ascii;
    arch        "LSB;label=32;scalar=64";
    class       volScalarField;
    location    "0.003";
    object      rhoN;
}
// * * * * * * * * * * * * * * * * * * * * * * * * * * * * * * * * * * * * * //

dimensions      [0 -3 0 0 0 0 0];

internalField   nonuniform List<scalar> 
546
(
8.331198464e+19
1.041399808e+20
8.331198464e+19
9.372598272e+19
8.331198464e+19
1.145539789e+20
1.145539789e+20
1.041399808e+20
1.24967977e+20
8.331198464e+19
1.041399808e+20
1.770379674e+20
1.145539789e+20
1.978659635e+20
1.562099712e+20
1.145539789e+20
1.35381975e+20
9.372598272e+19
8.331198464e+19
8.331198464e+19
8.331198464e+19
1.041399808e+20
1.35381975e+20
8.331198464e+19
1.041399808e+20
1.35381975e+20
1.145539789e+20
9.372598272e+19
1.874519654e+20
1.145539789e+20
1.041399808e+20
8.331198464e+19
1.145539789e+20
1.145539789e+20
1.145539789e+20
7.289798656e+19
1.145539789e+20
1.041399808e+20
2.186939597e+20
1.145539789e+20
6.248398848e+19
1.24967977e+20
7.289798656e+19
1.041399808e+20
1.041399808e+20
1.041399808e+20
1.041399808e+20
1.041399808e+20
3.124199424e+19
7.289798656e+19
1.145539789e+20
1.041399808e+20
8.331198464e+19
1.24967977e+20
1.457959731e+20
1.145539789e+20
8.331198464e+19
9.372598272e+19
1.24967977e+20
8.331198464e+19
9.372598272e+19
5.20699904e+19
1.35381975e+20
8.331198464e+19
6.248398848e+19
8.331198464e+19
1.145539789e+20
6.248398848e+19
8.331198464e+19
1.041399808e+20
9.372598272e+19
8.331198464e+19
9.372598272e+19
6.248398848e+19
6.248398848e+19
7.289798656e+19
7.289798656e+19
1.24967977e+20
1.24967977e+20
1.041399808e+20
8.331198464e+19
1.24967977e+20
1.041399808e+20
1.35381975e+20
1.041399808e+20
7.289798656e+19
8.331198464e+19
1.145539789e+20
8.331198464e+19
5.20699904e+19
9.372598272e+19
8.331198464e+19
9.372598272e+19
9.372598272e+19
9.372598272e+19
6.248398848e+19
8.331198464e+19
1.666239693e+20
8.331198464e+19
1.24967977e+20
6.248398848e+19
9.372598272e+19
1.24967977e+20
7.289798656e+19
1.457959731e+20
1.145539789e+20
1.041399808e+20
1.041399808e+20
8.331198464e+19
9.372598272e+19
1.666239693e+20
7.289798656e+19
9.372598272e+19
8.331198464e+19
1.24967977e+20
1.35381975e+20
8.331198464e+19
7.289798656e+19
7.289798656e+19
9.372598272e+19
5.20699904e+19
1.24967977e+20
7.289798656e+19
5.20699904e+19
1.145539789e+20
1.457959731e+20
7.289798656e+19
9.372598272e+19
7.289798656e+19
7.289798656e+19
1.145539789e+20
1.24967977e+20
7.289798656e+19
8.331198464e+19
9.372598272e+19
1.041399808e+20
1.24967977e+20
1.041399808e+20
1.562099712e+20
1.24967977e+20
6.248398848e+19
6.248398848e+19
9.372598272e+19
1.666239693e+20
1.041399808e+20
1.145539789e+20
9.372598272e+19
1.457959731e+20
4.165599232e+19
1.35381975e+20
9.372598272e+19
1.145539789e+20
8.331198464e+19
8.331198464e+19
1.24967977e+20
1.24967977e+20
1.145539789e+20
1.35381975e+20
7.289798656e+19
9.372598272e+19
6.248398848e+19
1.24967977e+20
1.24967977e+20
9.372598272e+19
6.248398848e+19
6.248398848e+19
1.041399808e+20
8.331198464e+19
1.145539789e+20
1.145539789e+20
8.331198464e+19
1.24967977e+20
1.457959731e+20
9.372598272e+19
9.372598272e+19
8.331198464e+19
5.20699904e+19
7.289798656e+19
1.145539789e+20
1.041399808e+20
9.372598272e+19
1.24967977e+20
6.248398848e+19
9.372598272e+19
1.457959731e+20
7.289798656e+19
1.24967977e+20
1.666239693e+20
1.35381975e+20
1.24967977e+20
7.289798656e+19
8.331198464e+19
1.562099712e+20
6.248398848e+19
1.145539789e+20
5.20699904e+19
4.165599232e+19
3.124199424e+19
1.457959731e+20
2.082799616e+19
9.372598272e+19
8.331198464e+19
8.331198464e+19
6.248398848e+19
7.289798656e+19
5.20699904e+19
1.041399808e+20
9.372598272e+19
9.372598272e+19
1.35381975e+20
4.165599232e+19
7.289798656e+19
6.248398848e+19
1.35381975e+20
9.372598272e+19
9.372598272e+19
1.041399808e+20
1.457959731e+20
1.457959731e+20
1.041399808e+20
6.248398848e+19
9.372598272e+19
1.35381975e+20
9.372598272e+19
9.372598272e+19
1.145539789e+20
1.666239693e+20
1.041399808e+20
9.372598272e+19
1.24967977e+20
5.20699904e+19
7.289798656e+19
1.24967977e+20
9.372598272e+19
1.145539789e+20
1.041399808e+20
9.372598272e+19
4.165599232e+19
1.145539789e+20
4.165599232e+19
9.372598272e+19
8.331198464e+19
1.041399808e+20
9.372598272e+19
7.289798656e+19
6.248398848e+19
1.041399808e+20
1.041399808e+20
6.248398848e+19
9.372598272e+19
6.248398848e+19
9.372598272e+19
6.248398848e+19
1.145539789e+20
6.248398848e+19
8.331198464e+19
9.372598272e+19
8.331198464e+19
6.248398848e+19
1.041399808e+20
8.331198464e+19
1.145539789e+20
8.331198464e+19
9.372598272e+19
8.331198464e+19
1.041399808e+20
1.041399808e+20
1.457959731e+20
1.24967977e+20
1.041399808e+20
7.289798656e+19
1.666239693e+20
8.331198464e+19
9.372598272e+19
1.145539789e+20
1.145539789e+20
7.289798656e+19
1.457959731e+20
1.145539789e+20
1.978659635e+20
8.331198464e+19
1.145539789e+20
1.145539789e+20
8.331198464e+19
1.35381975e+20
1.457959731e+20
6.248398848e+19
1.562099712e+20
1.24967977e+20
1.041399808e+20
5.20699904e+19
6.248398848e+19
1.35381975e+20
2.082799616e+19
9.372598272e+19
8.331198464e+19
1.041399808e+20
7.289798656e+19
1.041399808e+20
1.666239693e+20
7.289798656e+19
1.145539789e+20
8.331198464e+19
1.145539789e+20
9.372598272e+19
1.145539789e+20
9.372598272e+19
7.289798656e+19
8.331198464e+19
8.331198464e+19
1.562099712e+20
1.35381975e+20
1.35381975e+20
1.145539789e+20
1.041399808e+20
7.289798656e+19
9.372598272e+19
9.372598272e+19
4.165599232e+19
7.289798656e+19
6.248398848e+19
1.145539789e+20
9.372598272e+19
7.289798656e+19
8.331198464e+19
1.24967977e+20
1.041399808e+20
7.289798656e+19
1.145539789e+20
1.041399808e+20
1.24967977e+20
7.289798656e+19
9.372598272e+19
8.331198464e+19
7.289798656e+19
5.20699904e+19
7.289798656e+19
1.145539789e+20
9.372598272e+19
1.24967977e+20
7.289798656e+19
9.372598272e+19
1.457959731e+20
8.331198464e+19
5.20699904e+19
1.041399808e+20
1.35381975e+20
1.666239693e+20
7.289798656e+19
1.562099712e+20
1.041399808e+20
9.372598272e+19
7.289798656e+19
1.457959731e+20
8.331198464e+19
1.24967977e+20
1.041399808e+20
1.145539789e+20
6.248398848e+19
9.372598272e+19
1.396775905e+20
1.406651915e+20
1.63461759e+20
9.878046435e+19
7.738425015e+19
8.908265883e+19
1.149602165e+20
7.365953358e+19
7.416953098e+19
6.40171198e+19
1.289331604e+20
2.164079869e+19
7.628215471e+19
8.78048572e+19
6.63293568e+19
8.908265883e+19
9.405835955e+19
1.052279051e+20
1.801260038e+20
6.40171198e+19
5.372214981e+19
1.190243936e+20
8.717960539e+19
1.207316786e+20
1.216038217e+20
1.55894653e+20
9.405835892e+19
4.209116205e+19
1.48339062e+20
1.066951997e+20
1.074443004e+20
6.492239607e+19
5.448725337e+19
8.780485781e+19
9.94940352e+19
1.002179905e+20
9.405835892e+19
3.156837132e+19
9.536082555e+19
1.707123206e+20
9.669987032e+19
9.73835941e+19
9.807705538e+19
1.317072849e+20
7.73842496e+19
1.336239882e+20
8.360743015e+19
1.052279044e+20
6.35738837e+19
1.066952004e+20
1.074443004e+20
1.298447921e+20
9.807705606e+19
9.878046504e+19
1.216038217e+20
1.113533235e+20
1.045092877e+20
1.052279051e+20
8.476517826e+19
1.066951997e+20
1.289331604e+20
1.082039942e+20
9.807705606e+19
7.682925005e+19
1.105489288e+20
7.794732703e+19
1.254111461e+20
1.367962766e+20
1.48339062e+20
1.173647204e+20
1.289331604e+20
1.406651915e+20
8.717960539e+19
1.756097144e+20
1.547684992e+20
1.670299853e+20
7.315650138e+19
1.052279051e+20
1.271477683e+20
5.33476002e+19
6.446658021e+19
8.656319476e+19
6.538470358e+19
1.207316786e+20
9.949403591e+19
6.681199412e+19
4.180371508e+19
1.157506948e+20
6.357388327e+19
1.707123183e+20
6.446657977e+19
1.082039942e+20
5.448725375e+19
8.780485781e+19
1.216038217e+20
7.794732648e+19
6.270557261e+19
1.473190672e+20
1.589347103e+20
6.401712024e+19
1.181887312e+20
1.190243936e+20
9.807705538e+19
5.487803536e+19
1.437136064e+20
4.454132941e+19
9.405835955e+19
1.367962766e+20
1.377434147e+20
4.267808016e+19
1.826553106e+20
7.574279541e+19
7.628215471e+19
1.536585012e+20
8.843914303e+19
1.113533235e+20
1.35862074e+20
1.052279044e+20
9.53608249e+19
6.40171198e+19
9.669987032e+19
6.492239607e+19
1.198719566e+20
5.487803575e+19
3.316467864e+19
1.113533235e+20
8.360743015e+19
4.209116205e+19
6.357388413e+19
8.535616032e+19
1.396775905e+20
8.656319536e+19
8.717960599e+19
1.097560723e+20
7.73842496e+19
8.908265819e+19
1.149602165e+20
1.052279044e+20
7.416953048e+19
6.40171198e+19
1.181887304e+20
1.082039934e+20
1.198719566e+20
1.317072849e+20
3.31646784e+19
1.113533243e+20
1.35862074e+20
1.052279051e+20
9.536082619e+19
8.535615974e+19
9.669986965e+19
1.190243928e+20
1.416668588e+20
9.878046504e+19
9.949403591e+19
1.336239882e+20
1.149602172e+20
1.157506956e+20
1.271477674e+20
5.33476002e+19
6.446658021e+19
1.190243928e+20
1.743592096e+20
9.878046435e+19
8.843914303e+19
1.224886559e+20
9.405835892e+19
1.157506956e+20
8.476517826e+19
1.173647196e+20
7.521101025e+19
1.190243936e+20
1.416668597e+20
7.682925005e+19
8.84391424e+19
4.454132941e+19
9.405835892e+19
9.470511396e+19
4.238258913e+19
9.602568036e+19
1.074443004e+20
7.574279541e+19
8.717960478e+19
1.865853215e+20
5.527446439e+19
1.002179912e+20
)
;

boundaryField
{
    flow
    {
        type            zeroGradient;
    }
    obstacle
    {
        type            calculated;
        value           nonuniform List<scalar> 0();
    }
    frontAndBack
    {
        type            empty;
    }
    procBoundary2to0
    {
        type            processor;
        value           nonuniform List<scalar> 
31
(
7.289798656e+19
1.145539789e+20
1.145539789e+20
8.331198464e+19
1.457959731e+20
1.24967977e+20
9.372598272e+19
8.331198464e+19
6.248398848e+19
1.041399808e+20
4.165599232e+19
8.331198464e+19
8.331198464e+19
1.041399808e+20
6.248398848e+19
1.770379674e+20
1.041399808e+20
1.24967977e+20
1.457959731e+20
9.372598272e+19
1.504220205e+20
9.73835941e+19
1.416668588e+20
1.646341084e+20
1.437136074e+20
7.794732648e+19
8.360743015e+19
1.367962757e+20
1.165521201e+20
6.401712024e+19
6.401712024e+19
)
;
    }
    procBoundary2to3
    {
        type            processor;
        value           nonuniform List<scalar> 
19
(
4.486780409e+19
6.730170614e+19
1.009525599e+20
1.009525592e+20
7.851865717e+19
1.12169511e+20
7.851865773e+19
1.009525592e+20
6.730170662e+19
8.973560819e+19
1.570373143e+20
1.009525599e+20
1.009525592e+20
1.570373143e+20
5.608475592e+19
6.730170614e+19
5.608475512e+19
1.233864621e+20
1.009525592e+20
)
;
    }
}


// ************************************************************************* //
