/*--------------------------------*- C++ -*----------------------------------*\
| =========                 |                                                 |
| \\      /  F ield         | OpenFOAM: The Open Source CFD Toolbox           |
|  \\    /   O peration     | Version:  2406                                  |
|   \\  /    A nd           | Website:  www.openfoam.com                      |
|    \\/     M anipulation  |                                                 |
\*---------------------------------------------------------------------------*/
FoamFile
{
    version     2.0;
    format      ascii;
    arch        "LSB;label=32;scalar=64";
    class       volScalarField;
    location    "0.003";
    object      translationalT;
}
// * * * * * * * * * * * * * * * * * * * * * * * * * * * * * * * * * * * * * //

dimensions      [1 2 -2 0 0 0 0];

internalField   nonuniform List<scalar> 
546
(
284.3724846
300.6555284
298.4253302
299.8065954
298.9399613
297.5089545
298.8951595
301.6715297
302.7381645
302.2699658
303.2137086
302.2670573
303.2839856
302.5128484
300.2448952
298.9485711
300.1032134
300.4531109
300.0862915
301.6287455
293.1900613
306.8280468
298.4109504
297.7641401
299.0798461
301.012792
302.2806543
302.6022553
303.3280028
303.2946203
301.8066359
301.2021646
299.982669
303.340991
302.5858342
301.0000282
301.0118035
301.0237944
299.9921198
299.6912834
290.6434456
306.5984618
295.5537714
296.7220823
302.2196969
302.3495836
299.4518772
299.5940577
299.2469592
299.3048717
298.810295
303.1813699
302.668517
299.0798762
297.9439833
298.5951009
298.4491818
297.2147975
297.0748362
301.3557569
292.9380282
307.7168488
302.6676496
300.3825765
294.2192121
296.5782792
298.8286821
298.6649779
298.0414357
297.417774
297.138629
298.7528637
300.3343793
301.148284
301.3858267
300.2164878
298.9226222
303.9976374
304.830988
299.1866821
289.3721504
308.4544743
301.6559938
303.7991845
301.0978649
300.8221571
298.3934901
296.1952378
299.9207582
297.6231267
299.4066264
297.4897844
299.4788882
300.0170002
301.9547299
306.3399755
306.7321042
305.6376999
304.3087233
307.0717275
290.5782802
306.3377085
295.9658927
295.7387768
298.3173834
299.0014619
296.6367614
300.9520987
297.4904709
299.999094
299.5802838
299.4539806
300.9694385
301.8729996
303.0314473
303.2378306
305.1202102
299.9433373
302.5350115
303.9745872
286.2779832
299.620625
294.6352758
295.5778525
295.9412874
297.4104923
299.5342941
300.3624388
298.2144002
298.6158975
297.4577504
297.7832917
301.1261534
295.5726902
299.1895167
297.3266264
300.4071493
303.2576288
302.8122333
301.3072563
289.8930249
307.8300338
301.0068308
301.3470356
300.8384592
300.2623493
299.7444593
301.4055013
299.5919554
301.0215688
300.8983583
299.2443154
300.9661329
301.6917341
299.1184203
301.7964372
300.5739531
301.3974203
301.021605
302.2630222
288.3885319
304.257893
297.6105892
295.6895141
296.035539
294.3216333
295.0431077
295.4893782
299.1093234
302.6907807
302.2828481
302.7173273
303.0546901
302.6710424
303.0714862
300.7939221
301.8904424
302.1683812
301.9498194
302.2739075
289.9013849
306.716929
301.1317695
299.6190239
298.614676
300.019365
298.4710179
299.8399777
300.5029795
298.7359877
297.9767019
298.5979542
299.2652046
299.820603
303.8167862
303.60878
302.6570381
302.5602636
298.4353165
299.9237572
291.5423538
307.4514761
298.3034681
300.5510296
302.3252092
306.0638767
305.4530322
301.4460275
301.2618655
300.0138986
298.5363739
300.1029137
300.7270622
297.0873888
296.2863188
296.6070377
300.516478
296.8275123
300.1819374
301.8675034
289.1880362
307.0325119
298.0167744
302.5180635
301.3735882
299.0873037
298.7461307
299.8889512
299.1753965
296.4736892
297.1154591
295.1985935
295.5700973
302.3258466
301.541792
298.2611158
297.8806268
303.3767096
300.3694968
299.1079778
291.2242058
306.3327418
300.4905536
301.4892438
302.0259997
299.6951448
301.9341405
299.1358662
299.0703925
301.0825001
301.8319186
303.6251215
303.5449118
299.8967642
298.0857127
301.0932597
298.2784282
297.2863324
298.3116289
297.8375369
288.5073472
305.3358244
301.1043956
302.1848925
302.3060612
300.3582978
300.9195495
303.0684926
301.1004057
302.7477388
301.0154781
301.7130605
299.8828262
300.7988846
299.1897742
299.9912742
300.6193142
298.8470812
298.5430744
297.4267101
296.0533487
312.1406389
299.8705501
299.1326909
300.1284126
302.8884329
307.5730561
307.2792486
307.7950261
307.6004284
302.7597701
301.4825991
302.4348131
299.6280422
301.7467951
303.1458041
303.4103126
305.7554595
304.7104573
303.5209143
290.4584427
304.4488976
301.5018815
306.3027162
305.6288693
302.4978449
298.3792624
297.4876492
298.5230995
305.0090604
305.5764131
305.3954829
305.1403116
308.5731471
307.3507113
302.1361315
301.8533188
299.6164008
302.6417621
303.8133539
290.3295692
307.5371982
295.6004643
295.9979262
296.1552341
296.2403218
299.69172
298.9323731
295.9084072
297.3913532
298.6950933
302.6591724
301.3429325
298.475566
299.4223902
300.0572958
299.7346636
301.6382748
304.2252914
300.2712238
292.1794073
304.7384968
298.9397693
297.291033
292.8376635
294.098537
296.2173145
299.3366951
299.6264617
300.7831669
298.1840492
294.8983345
298.8092692
299.6845322
299.7032267
299.1498947
299.4222024
300.1940282
294.4976931
296.3916858
306.7838227
311.3867306
302.4520384
308.4292854
311.9689067
319.8233232
299.594547
307.3723405
304.3259411
303.4050347
305.2925608
304.901028
302.2152735
312.1634471
306.2086154
315.9300261
298.2515422
294.9512843
295.5694243
300.721372
306.1971914
308.5211667
305.6504648
306.8335063
303.3580711
311.4236953
305.8296715
305.8946814
303.9570247
297.4312565
296.8877152
300.9866096
299.9468051
303.0505039
306.3519418
304.7983111
296.6018291
300.1081795
303.0952319
302.9901589
302.1160884
306.0260983
304.4075024
301.734069
307.5054493
305.5168964
308.3977128
305.5157554
306.2183528
305.0678353
304.9358909
307.6401195
310.8721043
310.7387612
308.1667959
306.9577915
304.4093508
303.5757852
307.709799
307.4104687
312.2804799
306.6132172
303.5424175
303.5142523
300.1092308
302.8173166
301.7315385
302.8334602
303.5931982
301.4397787
305.7121027
305.1316125
303.9349
310.2087249
307.0035287
304.9642245
299.2746315
299.8759552
300.6871111
302.3119176
304.7572529
303.7703631
305.8949104
306.4673048
307.9603067
306.5622663
301.2467614
303.8729248
303.8144322
298.7578619
303.0722136
299.0204862
295.3014848
297.1550834
299.5914075
302.3968422
300.4820858
300.4810133
304.109722
307.5564242
298.2240598
301.4369698
301.859358
303.6047801
301.1179964
301.338958
298.1789728
299.3801302
296.8046953
295.6850358
299.4251505
299.8818035
299.642924
298.049087
298.135981
300.2343456
298.187385
299.9323797
299.517247
303.3737558
302.1592963
299.234718
300.1038402
299.1131371
301.0173908
302.6081011
302.4746176
301.3889063
304.5503687
303.0356029
301.861411
302.701818
301.0138677
301.5787778
298.6974132
295.4278191
295.5927089
297.9951147
295.1095027
298.1652367
298.3768832
296.2418061
296.9889707
301.2546938
299.9863435
300.5474942
302.6773972
300.9045922
302.7664054
298.3849786
299.4594163
301.0641951
297.7820434
295.0724811
297.6304632
298.6181189
302.0706833
304.9925882
304.0091109
306.0813116
306.9514901
301.3201123
304.1167872
303.0710599
302.1499772
302.7992118
300.7325136
300.9175863
299.3071835
300.122015
299.8989461
301.5530042
304.0912985
303.629184
305.1575623
304.0608217
301.3815183
301.9300074
302.0907813
303.7767147
305.265855
301.9313594
298.4613054
299.271156
299.1774855
300.846791
)
;

boundaryField
{
    flow
    {
        type            calculated;
        value           nonuniform List<scalar> 
48
(
284.3724846
293.1900613
290.6434456
292.9380282
289.3721504
290.5782802
286.2779832
289.8930249
288.3885319
289.9013849
291.5423538
289.1880362
291.2242058
288.5073472
296.0533487
290.4584427
290.3295692
292.1794073
292.1794073
304.7384968
298.9397693
297.291033
292.8376635
294.098537
296.2173145
299.3366951
299.6264617
300.7831669
298.1840492
294.8983345
298.8092692
299.6845322
299.7032267
299.1498947
299.4222024
300.1940282
294.4976931
296.3916858
301.3815183
301.9300074
302.0907813
303.7767147
305.265855
301.9313594
298.4613054
299.271156
299.1774855
300.846791
)
;
    }
    obstacle
    {
        type            calculated;
        value           nonuniform List<scalar> 0();
    }
    frontAndBack
    {
        type            empty;
    }
    procBoundary2to0
    {
        type            processor;
        value           nonuniform List<scalar> 
31
(
293.0891094
309.607893
299.7744389
298.8816007
297.5092444
297.740124
295.5662333
298.0532938
300.0327293
297.3455892
298.5847189
298.4465632
299.3651736
300.8497804
304.8239243
299.482729
298.1970157
300.5624493
301.1113122
303.6509247
305.6981417
309.9492686
311.5598326
317.643826
332.652553
330.2241545
299.1954389
298.7865497
302.5636382
304.2309828
304.2309828
)
;
    }
    procBoundary2to3
    {
        type            processor;
        value           nonuniform List<scalar> 
19
(
327.5408008
318.936678
316.6468542
310.7841946
311.9823257
308.9899987
305.4797851
305.8419785
302.1490001
302.3773858
299.4257563
302.4295527
300.9306633
294.604282
305.5113915
300.8121863
305.8902043
302.2430937
301.8035552
)
;
    }
}


// ************************************************************************* //
