/*--------------------------------*- C++ -*----------------------------------*\
| =========                 |                                                 |
| \\      /  F ield         | OpenFOAM: The Open Source CFD Toolbox           |
|  \\    /   O peration     | Version:  2406                                  |
|   \\  /    A nd           | Website:  www.openfoam.com                      |
|    \\/     M anipulation  |                                                 |
\*---------------------------------------------------------------------------*/
FoamFile
{
    version     2.0;
    format      ascii;
    arch        "LSB;label=32;scalar=64";
    class       volVectorField;
    location    "0.003";
    object      UMean;
}
// * * * * * * * * * * * * * * * * * * * * * * * * * * * * * * * * * * * * * //

dimensions      [0 1 -1 0 0 0 0];

internalField   nonuniform List<vector> 
546
(
(1710.949415 -4.783864566 0.8264095367)
(1747.194845 -2.481901415 -1.949474545)
(1735.516593 5.052574999 -2.109000919)
(1731.980427 6.368550674 -5.061438209)
(1733.43505 2.267143634 -1.731003878)
(1735.347935 -0.9793666232 -0.4143044638)
(1733.850683 0.04538040522 -1.69697743)
(1735.3188 -1.247235554 -1.969784562)
(1737.384538 -4.437847553 -1.934770332)
(1737.965224 -1.131011642 -3.000862084)
(1738.272348 -3.333979641 -5.833000095)
(1740.472387 0.9071864637 0.2443125219)
(1741.909643 2.283929326 0.4112887717)
(1738.563282 2.959834662 3.51874292)
(1738.213517 4.969632787 5.869448098)
(1737.607595 5.699575236 1.68076401)
(1737.700521 1.896526489 -1.915460382)
(1739.895008 -1.396153695 -1.888357952)
(1742.083987 -0.7681091576 -1.406223121)
(1739.684772 0.03099074529 -2.50090347)
(1705.505366 5.651753435 2.268600326)
(1747.932541 3.676470504 3.346910899)
(1740.321509 1.721231003 4.899864399)
(1738.524823 -2.450176554 2.50820379)
(1736.186503 0.3132801069 -1.71651663)
(1732.556432 2.482779863 -3.410592787)
(1735.295211 -2.163380965 -4.108692034)
(1734.395492 -2.154159786 -3.360067257)
(1735.545992 1.02293633 -5.498456312)
(1735.417283 3.076595731 -2.732806294)
(1737.17528 3.348900484 -3.640011323)
(1736.488467 1.057089458 -3.972932429)
(1733.635659 -0.7124087472 -6.860342695)
(1736.4613 -1.931504526 -6.094077506)
(1736.663206 -1.614912303 -5.698785203)
(1738.786592 0.9789213956 -1.66110824)
(1737.436863 0.06109109858 -1.578351357)
(1732.378642 4.622430158 -1.040088964)
(1730.934376 1.153500922 2.535615032)
(1730.853769 2.239033987 4.044839596)
(1708.017997 0.5924191531 -5.301543796)
(1742.917243 -0.1928664779 -7.058486162)
(1741.201544 -0.4876505192 -4.232678391)
(1739.491147 -3.577028075 -4.048736389)
(1742.195294 -2.413397152 -0.634584748)
(1744.419813 -3.890289462 -0.5462527119)
(1743.128359 3.377519427 -0.6785414498)
(1742.016586 5.258464716 -0.6262624947)
(1742.255866 5.959188956 -0.9959454773)
(1738.740585 0.3441142188 -2.175435268)
(1738.27712 3.344450514 -4.476477557)
(1733.948828 2.962190228 -3.509362913)
(1730.847506 2.810519664 -2.611848261)
(1733.574002 -0.5929817449 -0.008482689957)
(1733.419837 0.2440064637 -1.952770924)
(1734.427856 1.021609401 -1.51070624)
(1734.862606 0.42510592 -1.324440752)
(1735.221054 0.4109512012 -1.709709338)
(1737.376873 0.6725110326 -1.796842363)
(1736.916123 0.6704628277 -6.852590068)
(1710.051896 -0.8494666089 0.05153409732)
(1749.441286 -3.178678949 4.138192397)
(1736.539868 -1.910257334 1.647731636)
(1740.005331 -1.633982008 1.73027666)
(1742.134274 -2.37489516 2.209477649)
(1742.3122 0.08509752119 4.129379951)
(1740.401507 -5.490975569 3.233919216)
(1740.410695 -4.763221843 0.6542669667)
(1739.52778 -4.300027643 -0.463156388)
(1740.543522 0.510070634 1.225482393)
(1741.838535 -3.263337058 0.6292801975)
(1744.144511 0.1736980659 1.023185163)
(1745.075682 4.661517829 -3.40796906)
(1741.588849 7.734121139 -0.9691147768)
(1739.775941 6.975852254 0.3282021554)
(1742.95806 1.766743137 -0.4337480086)
(1741.510776 3.143025704 0.3918365165)
(1737.094051 -0.5929836857 0.9688229912)
(1736.140909 -3.859461179 0.6489781475)
(1738.031228 -3.681114197 2.977189045)
(1714.705545 -3.641783554 -1.347823455)
(1748.768247 1.495928817 -1.791133115)
(1738.470158 -0.1081930139 -1.493454794)
(1733.186769 0.4341770685 -1.276278862)
(1736.170823 -0.2618775772 -0.4324829291)
(1733.653461 1.813426425 -2.585690213)
(1735.834816 3.015434758 -0.0436580224)
(1737.385068 1.637789825 4.097042542)
(1737.962719 -3.884494086 3.073860253)
(1738.676043 -2.520542239 3.227027786)
(1740.429139 4.554498749 3.936442195)
(1739.92267 0.3369689847 3.945136579)
(1740.183527 -0.7710477304 7.328380677)
(1738.597584 -4.113365478 5.84014796)
(1737.568637 -3.664089474 3.868775819)
(1734.568058 -0.3397781287 4.930689817)
(1733.864066 -0.1015316607 5.653885229)
(1736.7925 -1.223268987 4.397193384)
(1735.829089 1.155731652 5.379914873)
(1732.904217 3.496263181 5.085942644)
(1708.707115 -0.2325526649 2.086027709)
(1744.077381 0.004915397461 1.826365755)
(1736.142253 1.658616549 1.870271119)
(1737.581756 5.885795097 2.929698836)
(1735.624654 4.893126579 4.233898758)
(1735.64245 2.618955465 5.146446742)
(1736.169931 3.225061601 3.50901795)
(1736.413468 0.06553937303 -0.8353823178)
(1733.30032 4.532150107 3.308791424)
(1731.378114 -0.1105752597 3.234143236)
(1731.917522 -5.605256102 5.910883694)
(1732.619073 -3.335261817 3.672445731)
(1733.497168 -2.182215716 2.987568684)
(1737.86479 -1.903395823 2.221295544)
(1737.843512 -4.732372055 4.095191708)
(1737.843885 -3.627910232 -0.1849323565)
(1737.0073 -1.565672881 -2.132165223)
(1738.705262 -0.4825419685 -2.38481081)
(1736.079092 0.7793780453 -2.804714028)
(1741.391124 0.7658780351 -1.261902879)
(1706.828774 1.003627654 -0.9648062534)
(1747.145839 2.825936444 3.659876734)
(1738.416449 2.036953909 3.699649499)
(1738.565619 1.044080677 0.3392058672)
(1738.902386 -2.443467517 -0.7304322159)
(1736.807733 0.378077185 -3.804002641)
(1735.460329 0.8102376434 0.5621396296)
(1735.420216 -0.5140914804 1.872296305)
(1738.346118 1.774039113 0.9092368535)
(1735.643213 0.1498459428 1.953920327)
(1738.407597 4.390752945 3.469507246)
(1736.41399 3.825742414 2.552946008)
(1734.90268 -0.05428599356 1.231695244)
(1737.935891 -1.309277144 0.9262758096)
(1734.275664 2.105664666 1.155307739)
(1735.331737 2.382407029 1.821478704)
(1733.025345 -0.2122105384 1.074001752)
(1730.91757 -6.524522991 3.737617584)
(1732.440151 -4.499701361 3.771160027)
(1734.76711 -5.896761855 0.6156360903)
(1710.547518 2.04917717 1.117702439)
(1743.222507 -1.484124658 -3.017413102)
(1732.371566 -4.559903667 -5.262709689)
(1731.293851 -3.799879155 -2.399487556)
(1730.838493 -3.488202351 3.439183896)
(1735.148493 -0.9416945366 2.329315793)
(1735.157863 -0.8148313633 -2.084740931)
(1735.959528 0.8264413958 -0.391813581)
(1736.17142 -1.490243014 -4.219858375)
(1738.340532 2.493183183 -4.098498614)
(1738.286278 1.548045558 -5.384612343)
(1735.817932 1.133879754 -6.654252366)
(1734.916688 1.420631529 -4.305573221)
(1731.203812 1.459098146 -1.573424671)
(1732.24457 -1.34342533 -2.818024252)
(1730.569945 -2.366856229 -2.221104981)
(1732.314676 -1.652271915 -2.271022348)
(1734.816389 3.794632048 -4.419857832)
(1730.52897 -0.3042522375 -7.600403087)
(1732.458442 -1.737608264 -5.909219886)
(1701.451864 1.031171376 -2.672891366)
(1739.457952 -1.11100998 -2.437082867)
(1731.372369 -6.046548814 -1.397261711)
(1731.386313 -5.377818158 -4.25465231)
(1732.593354 -1.451368165 -3.701891629)
(1734.483855 -0.01440260407 -1.913065797)
(1734.403704 0.7529205908 0.2728300355)
(1735.01501 -0.5503230058 1.757616614)
(1736.133132 -0.6729547455 1.778742995)
(1733.515531 -2.34736766 2.972392173)
(1729.304629 -1.598637175 0.161485534)
(1729.775775 -2.194028765 1.521315679)
(1730.7795 2.216374665 2.649421335)
(1733.661844 0.5878240037 2.331281925)
(1734.202495 -2.491453305 1.512195012)
(1735.446256 -0.02517098756 1.844394917)
(1732.2791 -2.095734656 0.2588757714)
(1735.059325 -3.608558296 -1.795672567)
(1736.362435 -1.01538889 0.1875743061)
(1737.528905 -2.945274642 -1.508851191)
(1709.610188 -0.06033495535 1.278039801)
(1745.972053 1.937917986 2.830426785)
(1735.46598 3.71792787 2.072252031)
(1740.419874 2.518223716 5.061846705)
(1741.423695 0.3936023835 2.644092645)
(1737.947668 -1.896539261 3.26180749)
(1738.480295 -3.873730267 1.779162622)
(1735.479335 -3.741649865 -2.629474533)
(1736.575188 -3.323366585 -1.491570019)
(1737.203291 -3.476445716 -2.513562481)
(1736.120894 -2.156224413 -2.586506624)
(1737.372579 -0.3453846547 -5.928823508)
(1737.052412 -2.167636079 -7.757624068)
(1736.360695 -1.604342804 -8.537482326)
(1735.428048 0.3590295561 -8.198264592)
(1736.429234 2.176470696 -7.113807815)
(1735.491253 4.203118087 -7.013941294)
(1732.46669 7.054770636 -1.639093404)
(1731.185273 5.509399587 -2.35867925)
(1733.271993 3.689929026 -1.593529203)
(1710.136278 1.508588097 1.550770546)
(1747.743744 0.7105343458 -0.4680269473)
(1743.069255 2.777975501 0.449857104)
(1738.542311 -0.1729125095 -0.3246358573)
(1736.817212 0.7047900335 -2.78116566)
(1735.292182 -1.012151732 -2.3375826)
(1735.968685 0.8884008712 -2.973595284)
(1741.731443 -0.02106819229 -2.097943339)
(1741.466757 -0.2911099008 -2.384671797)
(1738.965827 -0.6460157664 -3.396288762)
(1741.341061 -2.558893605 0.6448865699)
(1739.807418 -2.391382161 0.7084628759)
(1737.757002 -2.774584461 1.477914739)
(1736.625957 0.001761671602 -1.556584131)
(1737.046932 3.21719373 -0.730990037)
(1734.886753 0.9331581057 1.253867865)
(1736.723347 -0.7192689613 1.66719288)
(1738.303329 -2.201902021 -2.525404031)
(1741.829379 -0.4957736676 -0.9990075116)
(1738.445452 -0.6454342516 1.609217494)
(1709.336389 -0.1012451555 3.654641423)
(1744.943563 2.348483848 4.153349741)
(1734.231727 -0.6389224333 2.186355692)
(1737.488236 2.653191222 2.957086992)
(1740.42612 0.5258910588 2.5656459)
(1737.522907 -1.684414072 0.7968173496)
(1737.531652 -2.046739838 0.850457432)
(1737.336477 -1.526084595 1.090570036)
(1739.034718 -3.221959831 2.183578531)
(1740.690208 0.8887381919 1.142495431)
(1740.551158 1.57334 -2.213935328)
(1739.761238 2.639803634 1.472675337)
(1745.306708 -1.699174345 4.950299804)
(1744.876079 -3.800066144 10.1267255)
(1742.481243 -3.152561877 9.463109096)
(1742.119655 -4.42295508 10.01966736)
(1737.279226 -3.553105252 9.763969516)
(1736.226544 -2.637924668 10.34132413)
(1733.732286 -1.456693162 10.02909742)
(1729.540733 0.03601119177 6.387388087)
(1713.243184 1.63659415 -1.155563236)
(1750.001776 -2.654232132 -3.112826317)
(1739.72759 -3.679438617 -1.895584225)
(1737.711142 -0.03794469903 -2.56556539)
(1738.562768 1.030751386 -1.13692794)
(1740.884155 1.040923738 0.05981143691)
(1740.433133 -1.607124222 -0.1431435973)
(1739.243374 0.9363152146 0.3270916737)
(1737.471636 3.960136081 2.031012894)
(1736.380643 -1.762142447 3.888467633)
(1734.36695 0.7049249594 3.406561081)
(1736.353026 -6.124995031 4.964087177)
(1737.51292 -4.522206868 1.842277902)
(1737.588653 -2.999807124 -3.318407368)
(1736.904301 -0.5595446168 -3.922243062)
(1736.526041 2.133359308 -4.405299793)
(1739.593686 1.655206812 -2.701391321)
(1739.328488 0.7001465218 -0.1161282919)
(1741.223034 3.198569138 0.7961100977)
(1741.541951 3.280107758 2.641309357)
(1704.278827 1.463413584 -2.913254471)
(1744.476568 -1.168681449 -0.990665198)
(1733.430274 -0.950802146 2.806517265)
(1731.297716 -3.038796744 1.115413352)
(1730.016067 -3.399776855 3.001129636)
(1724.920991 2.102181991 4.502849613)
(1729.503453 2.50799235 5.698503151)
(1728.452703 3.784869987 4.396523487)
(1731.442785 1.005061581 1.458264006)
(1733.366349 0.5072758325 1.849778746)
(1732.561152 -0.597826787 -0.8807454547)
(1730.636064 2.620284595 -1.778824144)
(1731.931158 3.330277271 -1.1604124)
(1730.382128 2.789738966 -1.04442073)
(1729.132926 4.375016651 -0.2607691535)
(1730.282903 0.03592347106 -1.323658723)
(1731.89068 -2.197520631 -1.040046568)
(1732.736932 -0.9242571324 -2.27785625)
(1735.58493 -1.001834323 -1.516496271)
(1733.630577 -2.646729167 -1.615957052)
(1700.391702 0.4129307826 -2.844938708)
(1736.459307 1.079528556 -1.616252077)
(1727.768071 1.927740635 -3.703029701)
(1729.367602 3.048466849 -0.7025579254)
(1731.172904 2.854089893 -1.01036368)
(1729.61098 6.31114703 -1.540351448)
(1729.558122 1.236448935 -0.3458992549)
(1728.306239 0.534179131 -0.8978428738)
(1728.240826 -1.714928889 -1.037711343)
(1727.379683 -1.413066551 0.7786686368)
(1727.366745 2.250346645 1.935034641)
(1727.534443 -0.4053288872 2.840385967)
(1725.733589 -2.613386922 4.700495009)
(1729.636727 -2.79638252 3.76669598)
(1729.200936 -6.708021208 0.4764382336)
(1728.866502 -3.108880334 -1.177724367)
(1731.544029 -2.250650164 0.7365219572)
(1729.690398 -5.184077078 -0.2398691726)
(1729.2332 -6.093517829 -1.914056215)
(1732.181356 -3.51202965 -1.662046411)
(1705.203468 0.5070306029 -0.08119379216)
(1740.76103 1.944237253 -3.461738011)
(1735.760203 4.145459803 -2.699305399)
(1735.180094 5.774821991 -3.135259433)
(1732.706647 3.640710745 -3.20403492)
(1736.031954 -1.230544982 -6.120912118)
(1734.17759 2.173429248 -3.56533709)
(1735.383762 6.072155876 -2.880517712)
(1737.131886 5.128849184 -3.045897001)
(1734.894771 1.872190425 -1.937466934)
(1738.347689 -1.265808434 -1.108542485)
(1737.48974 -3.274233002 -1.379806996)
(1737.507857 -1.098672865 -4.187717586)
(1734.132949 -0.7200657769 -1.549892535)
(1734.859828 -0.8011568633 0.03213142714)
(1737.89923 -4.136825821 0.9894086752)
(1738.063499 -4.281439141 2.509909721)
(1737.364036 -3.074991663 0.9327025258)
(1736.616153 1.816938009 -1.201109903)
(1736.243955 -1.085366976 -0.1450878817)
(1706.670513 0.8956200723 -1.748560838)
(1746.75337 0.5424101911 -1.907911363)
(1738.983202 -2.072582677 -2.532317831)
(1741.248717 -2.008485956 -1.713731771)
(1741.233095 -1.09333694 -0.06850575987)
(1740.595626 0.8164245127 -0.4635073793)
(1738.761754 0.8594536739 -0.214668769)
(1740.36905 -2.428890587 -1.218241456)
(1736.403626 0.5641539849 2.151052721)
(1738.183916 2.453687306 1.45044656)
(1736.734836 2.381423412 0.7842251389)
(1737.159097 2.910752752 1.533249922)
(1736.235325 3.945106548 0.7580727457)
(1738.803201 3.804351388 -0.7551034645)
(1740.782777 2.065408451 -3.148491647)
(1737.055067 5.135997537 -3.986002839)
(1737.824932 5.47020335 -6.603754557)
(1737.616856 3.133939421 -0.6970249034)
(1737.80909 -0.3822844807 -3.893741788)
(1742.417273 0.7017999221 -3.418430808)
(1714.520328 3.37370148 -1.279644485)
(1750.60547 0.8814628259 -0.6296677674)
(1736.789534 2.100032334 1.515669996)
(1734.818514 3.840407612 0.9990983006)
(1735.605156 2.966979901 0.4129208257)
(1735.469714 5.085435345 1.198355516)
(1731.559929 4.485228105 0.05538071617)
(1733.111812 5.401010548 1.52424026)
(1731.292461 4.378582873 -0.3790316181)
(1734.535004 7.204283804 -2.155810089)
(1732.181676 10.67315804 -4.234594381)
(1734.00471 14.59064434 -2.500918205)
(1735.062019 7.950432727 -2.212270703)
(1734.336582 12.48992496 -0.7574377147)
(1734.442476 14.1342162 1.751051989)
(1737.265171 11.76420631 2.196683131)
(1737.14947 8.382717195 1.408920348)
(1734.919848 7.189700026 0.9093148805)
(1737.498468 5.207327256 1.609349276)
(1737.921342 5.830486265 2.86729445)
(1733.575 6.050628947 -3.759616474)
(1730.636006 4.468416705 -3.433148849)
(1731.672465 2.955968693 -0.9517192111)
(1729.525957 1.623506851 -2.641840762)
(1727.774447 4.783699164 -5.048532851)
(1727.123437 10.45249423 -9.13068756)
(1736.230866 -1.685402055 -1.769392518)
(1737.073945 0.09879932417 1.860096138)
(1737.365383 -0.7372056684 2.113355891)
(1734.263715 -0.5134105988 1.466199012)
(1731.106117 -1.509674569 -0.4545001184)
(1730.727011 2.054221553 1.15301341)
(1734.076496 1.09112701 -2.543843708)
(1734.163579 7.10327398 -1.418322955)
(1734.8636 6.87328685 -2.908154203)
(1733.02173 9.799034742 -2.546533792)
(1733.28838 -1.168881854 5.743050273)
(1734.473809 1.749393717 2.361470829)
(1732.585238 -1.13512922 3.466630899)
(1733.192664 -0.5941045359 4.761860696)
(1734.285317 3.083042841 3.437616336)
(1733.686216 3.668412271 2.53478668)
(1736.512992 4.592668488 -1.096875207)
(1735.544475 5.172799051 1.231563809)
(1738.561257 3.496646561 2.864107596)
(1735.074428 6.387126886 3.157692715)
(1734.747908 1.079588074 -7.354606408)
(1733.827702 0.06567681941 -8.368887148)
(1735.12916 -0.3633383667 -9.850073489)
(1738.005988 -2.200457799 -8.438705232)
(1740.316697 -3.764457419 -8.104612696)
(1740.511509 -0.5216612626 -5.811811708)
(1740.218263 2.96255821 -3.033843163)
(1740.82283 1.296370359 -4.195672175)
(1735.333275 3.395385567 -3.683570254)
(1733.09406 0.9438673403 -1.655786622)
(1739.701546 -1.839251374 0.2106856552)
(1740.093699 1.852290733 -0.8545014503)
(1739.107242 4.60878809 1.257715618)
(1738.273631 5.058585475 -0.05185402841)
(1735.210024 4.086127528 2.551216367)
(1730.434371 4.047484098 1.789035608)
(1729.2619 -4.713742653 4.450240146)
(1728.253377 -7.367381917 4.732976361)
(1729.890387 -8.250099538 2.207933676)
(1729.05952 -7.5253461 1.676957049)
(1730.33551 2.531513234 10.18616058)
(1731.32863 0.847129922 6.051280438)
(1731.049743 0.3323779392 4.8337341)
(1733.719511 -2.529363253 5.074498203)
(1736.312607 -0.8425332432 2.226007917)
(1732.050708 -1.447913717 4.921395444)
(1731.37315 1.690012834 3.910003524)
(1730.72884 1.61042468 2.309049303)
(1732.936017 -1.965741179 0.2145538116)
(1734.374451 3.182919617 -0.6975371891)
(1742.723012 -0.5677751854 -4.222981303)
(1739.842448 0.3929838118 -1.912701907)
(1738.770056 1.242159846 -3.446900159)
(1733.667822 1.983584704 -1.938655542)
(1731.57381 -3.262030917 -1.409395765)
(1734.610509 -4.767999857 -2.624994275)
(1736.837975 -4.638931729 -4.134340342)
(1737.240785 -2.260277914 -5.137574824)
(1737.895123 0.1603449299 -4.592234827)
(1735.573429 0.3452615053 -6.722538533)
(1730.741089 -3.160502323 1.513191003)
(1730.48687 -4.3979111 -1.542441884)
(1732.00987 -10.13713238 -3.230225337)
(1731.862738 -6.182861541 -7.399181327)
(1735.224154 -2.43250813 -12.52750851)
(1734.562046 -0.3082613456 -11.58059646)
(1736.37524 0.4293901862 -8.999169991)
(1733.53473 -0.2386278695 -7.651098211)
(1732.644934 1.751014809 -5.486192724)
(1736.02425 1.351420189 -2.312783799)
(1733.33789 -1.767479388 -3.96291623)
(1733.842907 -1.861815343 -5.214363883)
(1734.776057 0.6915666792 0.1126743716)
(1735.015758 -0.9567004968 3.667171345)
(1734.459445 1.138255232 4.247131555)
(1733.021101 0.8526814359 5.083836648)
(1734.184767 -2.009541676 1.469111563)
(1734.378456 3.037925838 1.134611349)
(1736.708397 -0.2164875155 -1.288208417)
(1733.708669 -5.178091406 -2.674355305)
(1735.803989 -0.1476275845 -2.39820508)
(1730.196273 1.44507285 -3.171723498)
(1737.738702 3.055574812 -4.489824819)
(1734.789019 4.431396926 -4.518383987)
(1732.083571 -0.8683561229 -1.75842004)
(1734.7113 -2.019193463 -2.82944659)
(1728.675127 -2.336150625 -0.593544561)
(1730.846691 -2.78465513 0.2953185688)
(1729.547459 -0.5387695056 0.137772212)
(1728.635492 2.495742996 -1.03765198)
(1738.449351 3.075514894 -1.845874262)
(1737.825532 1.65532245 -1.192307957)
(1733.672417 -0.398124189 0.0482133884)
(1730.51611 -1.193131412 2.249641099)
(1731.026759 4.012721051 -0.6886859284)
(1733.838275 0.6088577663 1.101464249)
(1733.475727 2.789758342 1.894744533)
(1736.160646 3.045577898 1.588157465)
(1734.413243 5.76701771 1.39749222)
(1736.726712 2.233532343 6.257565512)
(1736.442795 -0.1533210299 2.593628726)
(1737.670367 -0.4972226938 3.365684775)
(1739.203344 -0.9870782031 3.999234103)
(1742.62513 5.182083324 5.825308806)
(1743.028313 3.677516775 6.08284906)
(1738.819918 4.571745462 5.408423404)
(1737.327621 4.767700564 2.419023061)
(1737.903089 5.534160396 4.481003211)
(1736.984753 4.88282169 2.32207989)
(1736.126596 6.993295942 -0.3026834019)
(1733.261313 3.19148782 5.203958592)
(1734.084822 4.575961637 3.920052916)
(1731.080429 5.982523972 2.316835901)
(1730.071291 2.883795652 1.511748633)
(1731.006226 3.469851669 4.598700069)
(1735.381998 -0.8722316554 6.472661973)
(1737.359445 -0.5587375292 6.252979392)
(1738.658649 -2.344842447 1.578548579)
(1737.659062 -7.328750255 -0.04982708258)
(1738.074713 -3.230684311 -0.9996551647)
(1739.454433 3.503417215 -1.221607341)
(1736.400866 1.077811128 0.8847830739)
(1738.76835 -0.3148043777 -0.3818972286)
(1734.79817 -0.6950695059 -0.957772743)
(1737.34309 -6.498226647 -4.422872681)
(1732.97554 -1.33363149 -3.19998645)
(1731.879776 -1.765579445 -6.114689198)
(1734.284326 -4.197369582 -2.364592617)
(1736.608668 0.04764056174 -1.140239248)
(1735.580027 -4.904991015 1.842456066)
(1737.977787 -6.873010529 -1.593321884)
(1735.014086 -5.908750388 -2.786499912)
(1735.460992 -7.077274315 -2.602836533)
(1733.696361 -1.310613864 -3.380386789)
(1733.361127 3.602807048 -3.605661954)
(1733.98664 1.140917458 -2.727544542)
(1732.044424 4.181803783 -1.592055262)
(1731.087103 2.696771676 -0.8246865241)
(1733.444363 6.131440682 1.725796832)
(1735.429709 7.232791279 -0.5574616737)
(1734.687752 -1.136542176 0.6939262132)
(1734.708607 -0.2689460093 -1.228560555)
(1734.477314 1.123970463 0.9525121356)
(1736.332717 -0.9769031913 0.2639192381)
(1737.867708 -0.8053477236 1.83735755)
(1739.698192 -2.442266247 1.532744554)
(1740.417499 1.726509426 -2.342652781)
(1740.938884 7.945204668 -5.317413388)
(1735.156053 7.268423488 -5.342303373)
(1733.61395 6.932130796 -4.517305259)
(1731.947639 -0.5806247994 -2.12352205)
(1732.595789 0.7888368649 1.843204236)
(1733.353297 2.113888979 -1.88390267)
(1732.203215 -0.02141543896 -0.484426876)
(1736.604989 1.989019932 -0.8359519943)
(1735.642605 3.409658753 2.231373003)
(1733.735733 1.101233677 0.6702785624)
(1734.074591 -2.747981415 0.4610013655)
(1736.496203 -6.813070153 -1.200317721)
(1733.030537 -3.924823169 -1.200742219)
(1739.151045 1.517080485 -4.316360519)
(1737.26678 -2.317334883 -5.503471672)
(1740.188729 -7.487439229 -4.559223507)
(1738.417501 -5.109876802 -2.95484982)
(1735.902075 -0.1857964939 -4.56249823)
(1733.576665 -1.646041272 -6.86893733)
(1736.599371 1.273171361 -3.189446967)
(1734.980165 -2.528151371 0.4316951762)
(1734.456109 -2.50558147 0.5394879332)
(1735.591687 -0.9332259923 -0.1782257217)
(1735.581687 5.484591332 3.577889945)
(1738.21051 7.675239186 -0.726575436)
(1740.026739 7.281902293 0.03190171279)
(1741.813127 8.119648597 0.4733043146)
(1743.396373 1.153390553 -1.878645062)
(1741.609355 2.689052696 3.751403629)
(1742.408593 0.7340230119 5.00894442)
(1742.400935 3.296558782 3.106587311)
(1739.206697 7.273354973 2.967909711)
(1741.193439 3.47041591 4.467323419)
)
;

boundaryField
{
    flow
    {
        type            calculated;
        value           nonuniform List<vector> 
48
(
(1710.949415 -4.783864566 0.8264095367)
(1705.505366 5.651753435 2.268600326)
(1708.017997 0.5924191531 -5.301543796)
(1710.051896 -0.8494666089 0.05153409732)
(1714.705545 -3.641783554 -1.347823455)
(1708.707115 -0.2325526649 2.086027709)
(1706.828774 1.003627654 -0.9648062534)
(1710.547518 2.04917717 1.117702439)
(1701.451864 1.031171376 -2.672891366)
(1709.610188 -0.06033495535 1.278039801)
(1710.136278 1.508588097 1.550770546)
(1709.336389 -0.1012451555 3.654641423)
(1713.243184 1.63659415 -1.155563236)
(1704.278827 1.463413584 -2.913254471)
(1700.391702 0.4129307826 -2.844938708)
(1705.203468 0.5070306029 -0.08119379216)
(1706.670513 0.8956200723 -1.748560838)
(1714.520328 3.37370148 -1.279644485)
(1714.520328 3.37370148 -1.279644485)
(1750.60547 0.8814628259 -0.6296677674)
(1736.789534 2.100032334 1.515669996)
(1734.818514 3.840407612 0.9990983006)
(1735.605156 2.966979901 0.4129208257)
(1735.469714 5.085435345 1.198355516)
(1731.559929 4.485228105 0.05538071617)
(1733.111812 5.401010548 1.52424026)
(1731.292461 4.378582873 -0.3790316181)
(1734.535004 7.204283804 -2.155810089)
(1732.181676 10.67315804 -4.234594381)
(1734.00471 14.59064434 -2.500918205)
(1735.062019 7.950432727 -2.212270703)
(1734.336582 12.48992496 -0.7574377147)
(1734.442476 14.1342162 1.751051989)
(1737.265171 11.76420631 2.196683131)
(1737.14947 8.382717195 1.408920348)
(1734.919848 7.189700026 0.9093148805)
(1737.498468 5.207327256 1.609349276)
(1737.921342 5.830486265 2.86729445)
(1735.581687 5.484591332 3.577889945)
(1738.21051 7.675239186 -0.726575436)
(1740.026739 7.281902293 0.03190171279)
(1741.813127 8.119648597 0.4733043146)
(1743.396373 1.153390553 -1.878645062)
(1741.609355 2.689052696 3.751403629)
(1742.408593 0.7340230119 5.00894442)
(1742.400935 3.296558782 3.106587311)
(1739.206697 7.273354973 2.967909711)
(1741.193439 3.47041591 4.467323419)
)
;
    }
    obstacle
    {
        type            calculated;
        value           nonuniform List<vector> 0();
    }
    frontAndBack
    {
        type            empty;
    }
    procBoundary2to0
    {
        type            processor;
        value           nonuniform List<vector> 
31
(
(1711.762661 3.719371601 1.057163461)
(1750.402349 3.663429831 -0.1861101683)
(1742.144739 -6.818136428 -0.4602329094)
(1746.591133 -2.651087757 1.425556456)
(1743.353514 -0.5946930378 0.4899870079)
(1742.329278 1.640231814 -0.3885675684)
(1738.118375 3.543415652 2.504278667)
(1738.843075 6.049798719 3.713987348)
(1733.813974 4.73452228 2.431657136)
(1731.758538 -0.0455992853 1.768006119)
(1732.808396 2.411179314 4.644164464)
(1730.866783 -0.4156203085 1.204698227)
(1733.825014 -0.712457373 1.84414535)
(1735.272646 0.1820110627 -1.380931394)
(1733.787737 -3.583282421 -4.33471231)
(1734.74185 -3.262063695 -6.002419134)
(1733.222031 -1.855333605 -4.242323346)
(1733.093992 0.8292355183 -6.297758871)
(1734.817105 2.656840941 -5.088944336)
(1735.134932 8.620271997 -4.860631445)
(1734.061068 4.149487009 1.885593756)
(1731.298727 5.262571601 -0.1211567105)
(1730.622571 4.091386281 0.8071624393)
(1726.489842 7.651791756 -1.719874279)
(1724.269029 13.52302185 2.761124397)
(1723.960852 12.02154631 10.22786315)
(1738.819284 3.20736217 -3.494723075)
(1736.043632 4.086071633 -0.7613584542)
(1731.681936 6.452756425 -3.120811308)
(1732.140215 5.394024508 -4.537668372)
(1732.140215 5.394024508 -4.537668372)
)
;
    }
    procBoundary2to3
    {
        type            processor;
        value           nonuniform List<vector> 
19
(
(1725.215598 18.26575128 -9.744898193)
(1730.724905 8.948972119 -1.276335649)
(1737.219242 10.03900091 0.2825110759)
(1731.929677 3.623037588 -2.434305031)
(1725.373854 -8.183862247 -0.9052777109)
(1735.84719 1.155545549 2.197244961)
(1738.444463 -1.478250543 -6.568808664)
(1734.481103 0.2769749417 -2.110066244)
(1732.520376 -0.2482932728 -2.57852624)
(1730.519761 4.558646646 -1.607271646)
(1735.703963 -1.257967521 7.852792371)
(1735.22439 7.116127479 -3.332201093)
(1735.771731 -3.184052572 -0.1800011029)
(1734.515898 -2.365499438 2.195713752)
(1740.965721 4.367138094 -2.816791443)
(1730.73322 6.639373716 -4.159000058)
(1734.135439 -1.435171411 0.5192013504)
(1737.420195 1.029994602 2.523986409)
(1736.489173 1.745133507 1.40543878)
)
;
    }
}


// ************************************************************************* //
