/*--------------------------------*- C++ -*----------------------------------*\
| =========                 |                                                 |
| \\      /  F ield         | OpenFOAM: The Open Source CFD Toolbox           |
|  \\    /   O peration     | Version:  2406                                  |
|   \\  /    A nd           | Website:  www.openfoam.com                      |
|    \\/     M anipulation  |                                                 |
\*---------------------------------------------------------------------------*/
FoamFile
{
    version     2.0;
    format      ascii;
    arch        "LSB;label=32;scalar=64";
    class       volScalarField;
    location    "0.005";
    object      dsmcRhoNMean;
}
// * * * * * * * * * * * * * * * * * * * * * * * * * * * * * * * * * * * * * //

dimensions      [0 -3 0 0 0 0 0];

internalField   nonuniform List<scalar> 
546
(
27.2992
27.2124
26.7188
26.4276
25.7924
25.6344
25.7092
25.3856
25.7608
25.5312
24.8056
24.7808
23.3872
24.0504
23.7368
23.0476
22.2228
22.5
22.5948
21.9544
21.594
21.6896
21.4408
20.7708
19.4796
19.0244
18.2148
17.4952
15.95
12.934
24.2716
24.094
23.8104
23.77
23.4608
23.5476
23.1164
23.0312
22.6092
22.592
22.3672
22.2016
21.8944
21.7828
21.774
21.3996
20.9112
20.8336
20.4032
20.1112
19.5868
19.5064
19.3816
18.4564
17.9252
17.8192
16.9752
15.9304
14.5024
11.9692
22.7164
23.018
22.7676
22.5132
21.9524
21.7568
21.7268
21.4804
21.5588
21.1796
21.4172
21.154
20.87
20.7308
20.3604
19.6316
19.9764
19.5252
19.3112
18.9468
18.5832
18.5248
18.8264
17.7108
17.0268
16.5436
16.2032
15.394
13.6636
12.08
21.4456
21.604
22.0708
21.8556
21.69
21.3952
21.2364
21.1664
21.2184
20.9104
20.6996
20.5028
20.3484
20.1268
19.6312
19.1284
18.992
19.0732
18.8252
18.6736
18.1772
17.924
17.5524
17.1852
16.8748
16.2144
15.8056
14.808
13.884
12.6964
20.0172
20.3864
20.9188
21.2468
21.3808
21.224
20.8396
20.818
21.0044
20.4156
20.2808
20.3764
20.3248
20.0364
19.6716
19.4868
18.9316
18.9268
18.5224
18.2644
17.954
17.4504
17.0236
16.9328
16.412
16.0872
15.8952
14.8428
14.0052
12.7244
18.6892
19.094
19.676
20.0672
20.2928
20.5088
20.5248
20.516
20.6272
20.618
20.4504
20.1916
19.8748
19.8436
19.6536
19.574
18.8868
18.9632
18.626
18.3236
17.9948
17.3704
17.1644
17.1928
16.8016
16.044
15.382
14.9524
14.3152
12.9392
16.9356
17.846
18.3264
18.9088
19.2724
19.8436
19.8692
20.0448
19.8964
20.2016
20.256
20.3628
20.2792
20.1264
19.5224
19.1804
19.066
18.8084
18.5996
18.2532
18.0212
17.7188
17.268
17.1016
16.8412
16.3168
15.6952
15.1844
14.3956
13.4876
15.3152
16.1528
16.8992
17.756
18.076
18.5448
19.1232
19.4844
19.4616
19.55
19.7852
19.9564
19.702
19.656
19.7176
19.5828
19.3396
18.9088
18.7672
18.4908
18.33
17.826
17.4724
16.974
16.796
16.4644
15.826
15.2456
14.6956
13.9836
13.886
14.6504
15.3764
16.0812
16.9452
17.4332
17.994
18.404
18.9412
18.9216
19.1128
19.3692
19.5592
19.7124
19.68
19.748
19.4664
19.188
18.9864
18.6136
18.4048
18.092
17.5764
17.2332
17.0044
16.7276
16.1532
15.532
14.8496
14.1804
12.46
13.0444
13.7496
14.4748
15.268
15.9228
16.7768
17.2524
17.8408
18.3508
18.6372
18.9768
19.0736
19.3328
19.3356
19.2736
19.1788
19.0244
18.7664
18.6764
18.5888
18.328
18.0248
17.278
17.0992
16.8264
16.4184
15.9312
15.0736
14.4036
11.7544
12.3056
12.8688
13.4016
14.0116
14.5924
15.2868
16.1484
16.826
17.5408
17.888
18.1264
18.4808
18.6532
18.7636
18.688
18.8192
18.9448
18.7032
18.5828
18.5508
18.2632
17.9668
17.7664
16.924
16.6356
16.4644
16.2836
15.8036
14.9572
11.062
11.472
11.8084
12.3292
12.8772
13.4844
14.1792
14.7744
15.4012
15.9884
16.5292
16.9688
17.4752
17.9208
18.1208
18.4992
18.4524
18.5652
18.8072
18.592
18.3236
18.3872
18.018
17.816
17.6092
17.2288
16.8328
16.2568
15.9972
15.656
10.3588
10.5988
11.0856
11.3232
11.8116
12.4032
12.93
13.408
13.9616
14.3992
15.0604
15.9548
16.6384
17.0944
17.4512
17.64
17.9204
18.102
18.1924
18.334
18.318
18.4848
18.2072
18.146
17.9484
17.4424
17.0892
16.7404
16.394
15.8652
9.8624
10.1
10.3348
10.7352
11.138
11.4704
11.846
12.3948
12.8864
13.6068
14.2152
14.7332
15.2884
15.9308
16.436
16.878
17.3524
17.7548
17.8684
18.0484
17.9416
17.9732
18.332
18.2212
17.9472
17.6496
17.586
17.154
16.5464
16.0968
9.7824
9.9104
10.0836
10.126
10.3432
10.6716
11.0392
11.4396
11.9356
12.4776
12.944
13.342
14.1092
14.9636
15.6384
16.3832
16.7452
17.028
17.266
17.5496
17.9256
18.126
18.1332
18.0744
18.1172
17.864
17.6772
17.5284
17.0988
16.5112
9.4104
9.3188
9.486
9.562
9.8052
10.0588
10.3996
10.7516
11.1448
11.478
12.0636
12.6856
13.0376
13.584
14.3496
14.8876
15.4836
16.0724
16.4852
17.0492
17.2124
17.4096
17.6096
17.8584
17.9188
17.7752
17.6708
17.468
17.236
9.2896
9.3664
9.4012
9.666
9.6404
9.752
9.9652
10.2704
10.4876
10.8664
11.1932
11.5108
11.9028
12.414
12.9188
13.5704
14.3976
15.1524
15.8596
15.848
16.328
17.0036
17.216
17.4704
17.4588
9.2952
9.3436
9.384
9.342
9.4184
9.4944
9.506
9.5776
9.8288
10.0336
10.2396
10.6764
11.1972
11.688
12.1608
12.6684
13.0872
13.7936
14.2536
9.12
9.0844
9.0824
9.0916
9.1436
9.1348
9.2256
9.314
9.5264
9.6236
10.034
10.204
10.4148
10.7632
9.0592
9.0108
8.9788
8.9932
9.022
9.012
9.0712
9.212
8.9456
)
;

boundaryField
{
    flow
    {
        type            calculated;
        value           nonuniform List<scalar> 
15
(
12.934
11.9692
12.08
12.6964
12.7244
12.9392
13.4876
13.9836
14.1804
14.4036
14.9572
15.656
15.8652
16.0968
16.5112
)
;
    }
    obstacle
    {
        type            calculated;
        value           nonuniform List<scalar> 
30
(
27.2992
27.2124
26.7188
26.4276
25.7924
25.6344
25.7092
25.3856
25.7608
25.5312
24.8056
24.7808
23.3872
24.0504
23.7368
23.0476
22.2228
22.5
22.5948
21.9544
21.594
21.6896
21.4408
20.7708
19.4796
19.0244
18.2148
17.4952
15.95
12.934
)
;
    }
    frontAndBack
    {
        type            empty;
    }
    procBoundary1to0
    {
        type            processor;
        value           nonuniform List<scalar> 
21
(
27.4772
24.5512
22.97
21.268
19.6748
17.77
16.1948
14.4088
13.0904
11.8724
11.3404
10.6472
10.2628
9.7896
9.658
9.4608
9.278
9.2472
9.1688
9.0672
9.0256
)
;
    }
    procBoundary1to3
    {
        type            processor;
        value           nonuniform List<scalar> 
36
(
16.8496
17.5264
17.7288
17.4216
16.8496
17.208
15.0712
15.5824
16.0132
16.5108
17.0112
17.5264
17.2748
11.2252
11.776
12.2252
12.6408
15.0712
13.2816
9.2836
9.4036
9.444
9.7164
9.9208
11.2252
10.2004
8.9828
8.9264
8.8248
8.9296
9.0252
9.0192
9.2836
9.124
8.9828
9.0024
)
;
    }
}


// ************************************************************************* //
