/*--------------------------------*- C++ -*----------------------------------*\
| =========                 |                                                 |
| \\      /  F ield         | OpenFOAM: The Open Source CFD Toolbox           |
|  \\    /   O peration     | Version:  2406                                  |
|   \\  /    A nd           | Website:  www.openfoam.com                      |
|    \\/     M anipulation  |                                                 |
\*---------------------------------------------------------------------------*/
FoamFile
{
    version     2.0;
    format      ascii;
    arch        "LSB;label=32;scalar=64";
    class       volScalarField;
    location    "0.005";
    object      dsmcSigmaTcRMax;
}
// * * * * * * * * * * * * * * * * * * * * * * * * * * * * * * * * * * * * * //

dimensions      [0 3 -1 0 0 0 0];

internalField   nonuniform List<scalar> 
546
(
8.923705598e-16
8.492796512e-16
8.503347651e-16
8.668492163e-16
8.334507796e-16
8.694017718e-16
8.413191158e-16
8.747987568e-16
9.103820647e-16
8.258777433e-16
8.6136956e-16
8.87954338e-16
8.413181815e-16
8.067589119e-16
8.9963911e-16
8.575550077e-16
8.525204679e-16
8.248913189e-16
8.441068847e-16
8.069100667e-16
8.929461441e-16
8.206563079e-16
8.993734936e-16
8.775648242e-16
8.337826886e-16
8.520406946e-16
8.163373367e-16
8.426532882e-16
8.236872525e-16
8.47652801e-16
8.462956818e-16
8.710947734e-16
8.498064826e-16
8.847446614e-16
8.408872369e-16
8.622837065e-16
8.949216749e-16
8.392136697e-16
8.870292414e-16
8.303983495e-16
8.978588353e-16
8.560311042e-16
8.442426458e-16
8.268579705e-16
7.991759538e-16
8.536820477e-16
8.235916971e-16
8.398446898e-16
8.639327092e-16
8.80277852e-16
8.532494333e-16
8.609353969e-16
8.181589698e-16
8.971484183e-16
8.484247327e-16
8.304825063e-16
8.023496301e-16
7.920719888e-16
8.2516171e-16
7.737417115e-16
8.969227752e-16
8.800857809e-16
8.55385706e-16
8.919386604e-16
8.60075276e-16
8.856114435e-16
8.879130044e-16
9.195298302e-16
8.801950496e-16
8.366805363e-16
8.689862952e-16
8.771631714e-16
8.520491274e-16
8.43170837e-16
8.638174022e-16
9.528494011e-16
8.521753959e-16
8.601257825e-16
8.646036218e-16
8.288932752e-16
9.016080689e-16
8.388030415e-16
8.238187944e-16
8.295344209e-16
7.968166687e-16
8.770900596e-16
8.211004148e-16
8.558780009e-16
8.017419531e-16
7.548058668e-16
8.422206704e-16
9.007098158e-16
8.766887428e-16
8.640918339e-16
9.218517618e-16
8.999787222e-16
8.891388793e-16
8.248107652e-16
8.615784103e-16
9.043598206e-16
8.732982416e-16
8.477460413e-16
8.550315742e-16
8.914152019e-16
8.285402293e-16
8.790685569e-16
8.252361182e-16
8.240398731e-16
8.364669175e-16
8.936650407e-16
8.519880998e-16
8.482209872e-16
8.689303407e-16
8.629514406e-16
8.441474844e-16
8.248344296e-16
8.079317818e-16
8.354710246e-16
7.955603529e-16
7.773692333e-16
9.38730981e-16
8.728732961e-16
8.682219913e-16
8.932193119e-16
8.46082857e-16
8.377898314e-16
9.190038718e-16
8.493297818e-16
8.367642654e-16
8.133896842e-16
8.527135793e-16
8.415694021e-16
9.12142075e-16
8.518999353e-16
8.24437121e-16
8.739242283e-16
8.683258547e-16
9.048255068e-16
9.042062841e-16
8.304164417e-16
8.869175919e-16
8.033783028e-16
8.489664414e-16
8.194097704e-16
8.668012029e-16
9.016023559e-16
8.241741658e-16
8.226794728e-16
7.831033897e-16
7.69723514e-16
8.341688259e-16
8.566716111e-16
8.435367779e-16
8.97822285e-16
8.617313271e-16
8.567739057e-16
8.504591401e-16
8.560267845e-16
8.898214617e-16
8.969567486e-16
8.625225153e-16
8.307762925e-16
8.339204059e-16
8.761172952e-16
7.905438256e-16
8.522158365e-16
8.558343119e-16
8.695600595e-16
8.346585875e-16
8.66307674e-16
8.286309571e-16
8.235997028e-16
8.302093e-16
8.3720888e-16
8.47741527e-16
8.421952315e-16
8.571506473e-16
8.206028784e-16
7.941406258e-16
8.064400602e-16
8.425212306e-16
8.343320206e-16
8.672829389e-16
8.335864985e-16
8.258961891e-16
8.607546083e-16
8.876004155e-16
8.571713502e-16
8.329294779e-16
8.486403795e-16
8.602061571e-16
8.492755792e-16
8.52339521e-16
8.465493169e-16
8.536766802e-16
9.036212813e-16
8.933592332e-16
8.50845719e-16
8.613348495e-16
8.364215485e-16
7.919291149e-16
8.900818446e-16
8.363888924e-16
8.612433594e-16
8.884322559e-16
8.139899358e-16
8.362054318e-16
8.26466626e-16
7.853290285e-16
7.785802387e-16
9.174333777e-16
8.540857128e-16
8.56484224e-16
9.186612149e-16
8.206494561e-16
8.342979782e-16
8.250064123e-16
8.470637872e-16
8.152679089e-16
8.829887113e-16
8.805227817e-16
8.167441063e-16
8.286020094e-16
8.069219572e-16
8.078104698e-16
8.913155547e-16
8.27372703e-16
8.465302887e-16
7.983012317e-16
8.259241652e-16
8.220254169e-16
8.358287267e-16
8.290469063e-16
8.386532705e-16
8.063712269e-16
8.222401613e-16
7.932215388e-16
7.967736751e-16
7.98163869e-16
7.45048906e-16
8.111939212e-16
7.923514532e-16
8.24520718e-16
8.201947192e-16
8.081830179e-16
8.43968242e-16
8.214307582e-16
8.472596394e-16
8.57948673e-16
8.673751019e-16
8.153014949e-16
8.688713148e-16
8.23205906e-16
8.63181513e-16
8.376292274e-16
8.436403783e-16
8.598998721e-16
8.445622788e-16
8.106539767e-16
8.447776694e-16
8.500262241e-16
8.608888127e-16
8.184531431e-16
8.320421381e-16
8.536880336e-16
8.556243027e-16
8.659939366e-16
7.833585497e-16
8.280320271e-16
8.405998735e-16
8.121631546e-16
8.57460449e-16
8.285758861e-16
8.512795711e-16
8.228496651e-16
8.616133971e-16
7.902452903e-16
8.127108745e-16
8.085869028e-16
8.253682368e-16
8.178238073e-16
8.934736941e-16
8.262471674e-16
8.296794438e-16
8.99991334e-16
8.439391829e-16
8.586175404e-16
8.35836166e-16
8.618691583e-16
8.168772418e-16
8.284630105e-16
8.22520432e-16
8.044236729e-16
9.00023708e-16
8.243235285e-16
8.101363861e-16
8.287846582e-16
7.818035858e-16
8.324987649e-16
8.016566775e-16
8.694473823e-16
7.977313243e-16
8.398221774e-16
8.053426715e-16
8.039057669e-16
7.963723956e-16
8.131006839e-16
8.125390772e-16
8.611656156e-16
8.879881674e-16
8.257556599e-16
7.905956581e-16
8.506900662e-16
8.069359264e-16
8.226140801e-16
8.638357446e-16
8.801417831e-16
8.10092868e-16
8.442101153e-16
8.369626001e-16
8.268130924e-16
7.870508068e-16
8.307706182e-16
8.411294351e-16
8.082793081e-16
8.77959226e-16
8.17097942e-16
8.243898434e-16
7.976788971e-16
8.109484752e-16
7.629617071e-16
7.941526122e-16
7.702117888e-16
8.014366425e-16
7.856125728e-16
7.915796461e-16
8.153515033e-16
7.809125966e-16
8.158225465e-16
8.42235358e-16
8.186059388e-16
8.00995131e-16
8.425149635e-16
8.024706921e-16
7.977118908e-16
8.879012993e-16
8.235039013e-16
8.442997325e-16
7.941040894e-16
8.547177957e-16
8.157085815e-16
8.327918575e-16
8.090011953e-16
8.150510052e-16
8.242968433e-16
8.333137985e-16
8.339310734e-16
7.807042893e-16
8.608881321e-16
7.878898084e-16
7.826106632e-16
7.787836586e-16
8.054615412e-16
8.146750718e-16
8.212647611e-16
8.143804079e-16
8.146588537e-16
7.878409653e-16
8.201198505e-16
8.101534569e-16
7.798966098e-16
8.286850565e-16
7.8941563e-16
8.090014338e-16
8.019362689e-16
8.693462661e-16
8.116031358e-16
8.611715229e-16
8.055322448e-16
8.122353726e-16
8.178800642e-16
7.956980025e-16
7.959871951e-16
8.332936578e-16
8.31331889e-16
8.308598001e-16
8.270474068e-16
7.743645223e-16
8.121845688e-16
8.268594704e-16
7.854921666e-16
7.82270154e-16
7.920607954e-16
7.887905248e-16
8.505907055e-16
8.115283998e-16
8.00439733e-16
7.842167125e-16
8.386455835e-16
7.932450986e-16
8.010227275e-16
8.101428423e-16
8.345578031e-16
7.910163906e-16
8.159760727e-16
7.751799781e-16
8.271940819e-16
8.144200388e-16
8.120612896e-16
8.202473499e-16
7.94789368e-16
8.242026064e-16
8.883572264e-16
8.441118383e-16
8.079945406e-16
7.815107833e-16
8.137625643e-16
8.498356626e-16
8.061846301e-16
8.04620013e-16
7.571791239e-16
7.41739061e-16
7.645872562e-16
7.600240189e-16
7.900418367e-16
7.787252794e-16
7.869813371e-16
7.901712375e-16
8.115728697e-16
7.981657959e-16
7.641713507e-16
8.22659532e-16
7.551319339e-16
7.702762441e-16
8.188021881e-16
7.826490885e-16
8.917997802e-16
8.797540021e-16
7.990742258e-16
8.23204529e-16
8.171167358e-16
7.920010011e-16
8.196276598e-16
7.996544239e-16
8.251595628e-16
8.387544681e-16
8.170764586e-16
8.01602802e-16
8.360534905e-16
8.304283798e-16
7.627291618e-16
8.456534985e-16
7.476614927e-16
8.480490361e-16
8.031026231e-16
7.264906484e-16
7.901754679e-16
7.731041246e-16
7.839297591e-16
7.703559603e-16
8.132210024e-16
8.624486318e-16
8.045401222e-16
7.747846305e-16
7.794923871e-16
8.195268395e-16
8.08123553e-16
8.021658035e-16
7.902001638e-16
7.993990827e-16
7.886155634e-16
7.650117786e-16
7.863978556e-16
8.025527268e-16
8.021609494e-16
7.861651072e-16
8.443678858e-16
8.550175374e-16
8.243590926e-16
7.351309976e-16
7.552139568e-16
8.357913819e-16
7.795768964e-16
8.240305891e-16
7.504838274e-16
7.961292446e-16
7.701093601e-16
7.672811531e-16
7.489598143e-16
7.90960628e-16
7.968822813e-16
7.926146897e-16
7.607809289e-16
7.847858955e-16
8.025957042e-16
8.076329616e-16
7.689892632e-16
8.00797763e-16
8.255629763e-16
8.176765487e-16
8.479082261e-16
8.310782531e-16
8.263047111e-16
8.353340971e-16
8.065126568e-16
7.28815176e-16
7.729199113e-16
7.420615102e-16
8.198368015e-16
7.662259124e-16
7.528549783e-16
7.614487447e-16
7.561561791e-16
7.808189887e-16
8.078410809e-16
7.387330469e-16
7.551650326e-16
7.847080872e-16
8.249980155e-16
8.281277951e-16
7.769487775e-16
8.214704785e-16
7.383477438e-16
7.607753432e-16
7.527200477e-16
7.137551111e-16
7.525701345e-16
7.553849592e-16
7.324435863e-16
8.211014496e-16
7.516604833e-16
7.955951648e-16
7.698622212e-16
7.476516988e-16
8.104432876e-16
7.585163218e-16
8.10557908e-16
7.82592707e-16
7.693829784e-16
6.862707241e-16
7.722660295e-16
7.618253115e-16
7.884482978e-16
7.619876632e-16
7.239351027e-16
7.520028169e-16
)
;

boundaryField
{
    flow
    {
        type            zeroGradient;
    }
    obstacle
    {
        type            zeroGradient;
    }
    frontAndBack
    {
        type            empty;
    }
    procBoundary1to0
    {
        type            processor;
        value           nonuniform List<scalar> 
21
(
8.861870315e-16
8.564244676e-16
8.310450939e-16
8.873199309e-16
8.44427099e-16
8.262364216e-16
8.175119747e-16
7.855174761e-16
7.855843253e-16
8.181151707e-16
7.885171468e-16
8.748419703e-16
7.665814998e-16
7.418016973e-16
7.77492275e-16
7.186406389e-16
7.366275347e-16
8.102469599e-16
7.400506274e-16
7.873724001e-16
7.5292836e-16
)
;
    }
    procBoundary1to3
    {
        type            processor;
        value           nonuniform List<scalar> 
36
(
7.980335999e-16
8.510499318e-16
7.882417516e-16
8.185395861e-16
7.980335999e-16
7.921136855e-16
7.636653555e-16
7.907778722e-16
8.40417898e-16
8.568965137e-16
8.055575481e-16
8.510499318e-16
8.169040204e-16
8.124940744e-16
8.211519486e-16
8.184417067e-16
7.697460566e-16
7.636653555e-16
7.761381177e-16
7.40146455e-16
7.811862649e-16
7.406852583e-16
7.731761726e-16
7.682004693e-16
8.124940744e-16
7.803754902e-16
6.928480711e-16
6.992722844e-16
7.473423118e-16
7.017822869e-16
8.236928249e-16
7.008734348e-16
7.40146455e-16
8.225295936e-16
6.928480711e-16
6.847267215e-16
)
;
    }
}


// ************************************************************************* //
