/*--------------------------------*- C++ -*----------------------------------*\
| =========                 |                                                 |
| \\      /  F ield         | OpenFOAM: The Open Source CFD Toolbox           |
|  \\    /   O peration     | Version:  2406                                  |
|   \\  /    A nd           | Website:  www.openfoam.com                      |
|    \\/     M anipulation  |                                                 |
\*---------------------------------------------------------------------------*/
FoamFile
{
    version     2.0;
    format      ascii;
    arch        "LSB;label=32;scalar=64";
    class       volVectorField;
    location    "0.005";
    object      fD;
}
// * * * * * * * * * * * * * * * * * * * * * * * * * * * * * * * * * * * * * //

dimensions      [1 -1 -2 0 0 0 0];

internalField   uniform (0 0 0);

boundaryField
{
    flow
    {
        type            zeroGradient;
    }
    obstacle
    {
        type            calculated;
        value           nonuniform List<vector> 
30
(
(1.093819963 -2.383080876 -1.161822971)
(0 0 0)
(4.477412614 -0.4854779223 0.02652206516)
(4.718696859 -4.443956298 4.426228274)
(5.650566224 -2.391703809 -0.7394485573)
(0.316342887 -2.128092746 2.696604549)
(2.158412895 -6.136162311 0.744211977)
(3.461307524 -1.036314753 -2.205283548)
(5.034440257 -5.233381229 -0.7247209759)
(0 0 0)
(2.103430627 -3.153154108 -0.08815262249)
(2.027276162 -1.056607733 -0.7580710962)
(0 0 0)
(6.660147944 -3.321180593 -0.2853065739)
(3.071575535 -5.032133516 -0.2244945852)
(0 0 0)
(0.9765320281 -4.928787413 -0.02436336996)
(0 0 0)
(-0.4955610672 -1.859123444 -0.932302133)
(1.171505397 -1.430982326 -2.14101892)
(0 0 0)
(2.020284564 -2.982503959 1.610565995)
(1.079334402 -4.682507795 -1.420926568)
(2.010826912 -2.776695705 -1.633470578)
(3.217458082 -4.647964221 1.136620663)
(3.740294201 -6.102164698 -3.032104517)
(2.770885481 -5.11888037 -0.3784861881)
(0.9956434525 -1.30470909 0.2332910933)
(0 0 0)
(5.236210779 -7.918990973 2.734343159)
)
;
    }
    frontAndBack
    {
        type            empty;
    }
    procBoundary1to0
    {
        type            processor;
        value           uniform (0 0 0);
    }
    procBoundary1to3
    {
        type            processor;
        value           uniform (0 0 0);
    }
}


// ************************************************************************* //
