/*--------------------------------*- C++ -*----------------------------------*\
| =========                 |                                                 |
| \\      /  F ield         | OpenFOAM: The Open Source CFD Toolbox           |
|  \\    /   O peration     | Version:  2406                                  |
|   \\  /    A nd           | Website:  www.openfoam.com                      |
|    \\/     M anipulation  |                                                 |
\*---------------------------------------------------------------------------*/
FoamFile
{
    version     2.0;
    format      ascii;
    arch        "LSB;label=32;scalar=64";
    class       volVectorField;
    location    "0.005";
    object      fDMean;
}
// * * * * * * * * * * * * * * * * * * * * * * * * * * * * * * * * * * * * * //

dimensions      [1 -1 -2 0 0 0 0];

internalField   uniform (0 0 0);

boundaryField
{
    flow
    {
        type            calculated;
        value           uniform (0 0 0);
    }
    obstacle
    {
        type            calculated;
        value           nonuniform List<vector> 
30
(
(2.351796459 -2.724174863 -0.006951892135)
(2.427019214 -2.746778829 -0.006188105952)
(2.24490345 -2.69395851 -0.02188918608)
(2.191025286 -2.677451592 0.05123060598)
(2.035059543 -2.59730717 -0.003830795344)
(2.101884928 -2.618268056 -0.0007979142815)
(2.07607652 -2.658643875 -0.00468960094)
(2.04550448 -2.701183622 0.01182775334)
(1.966445626 -2.646674947 -0.008771088245)
(1.921153658 -2.644228662 0.01506053206)
(1.894006697 -2.57077476 -0.02554797988)
(1.94599017 -2.602213116 -0.05981851213)
(1.810169351 -2.49240093 -0.009146737504)
(1.816243641 -2.595341603 0.0110011317)
(1.862206253 -2.609174855 -0.0380475146)
(1.755880027 -2.491567261 -0.03092710451)
(1.74677552 -2.534602892 -0.02782925957)
(1.644926506 -2.41394001 0.00715045133)
(1.667890957 -2.461256301 0.004041589274)
(1.734224268 -2.473028044 -0.02081484158)
(1.667888965 -2.400665207 0.0085002513)
(1.577270086 -2.396733209 0.01609059134)
(1.66521043 -2.419869385 -0.02116423395)
(1.672790414 -2.407687469 0.0120642245)
(1.624391495 -2.282891635 -0.01652192797)
(1.532910825 -2.216290951 0.01041388838)
(1.557745385 -2.07240234 -0.00674667214)
(1.555879277 -2.030465171 0.002224878962)
(1.465522755 -1.839206446 -0.01887978154)
(1.539635742 -1.609886701 0.02599733436)
)
;
    }
    frontAndBack
    {
        type            empty;
    }
    procBoundary1to0
    {
        type            processor;
        value           uniform (0 0 0);
    }
    procBoundary1to3
    {
        type            processor;
        value           uniform (0 0 0);
    }
}


// ************************************************************************* //
