/*--------------------------------*- C++ -*----------------------------------*\
| =========                 |                                                 |
| \\      /  F ield         | OpenFOAM: The Open Source CFD Toolbox           |
|  \\    /   O peration     | Version:  2406                                  |
|   \\  /    A nd           | Website:  www.openfoam.com                      |
|    \\/     M anipulation  |                                                 |
\*---------------------------------------------------------------------------*/
FoamFile
{
    version     2.0;
    format      ascii;
    arch        "LSB;label=32;scalar=64";
    class       volScalarField;
    location    "0.005";
    object      iDofMean;
}
// * * * * * * * * * * * * * * * * * * * * * * * * * * * * * * * * * * * * * //

dimensions      [0 -3 0 0 0 0 0];

internalField   nonuniform List<scalar> 
546
(
6.124275805e+20
6.149879989e+20
6.083246244e+20
6.062040833e+20
5.961011601e+20
5.969572227e+20
6.032892717e+20
6.002981238e+20
6.139137184e+20
6.132167224e+20
6.00501384e+20
6.046837302e+20
5.752643757e+20
5.963701458e+20
5.934014567e+20
5.809168407e+20
5.647787027e+20
5.766114631e+20
5.839301819e+20
5.722115597e+20
5.676521397e+20
5.751046645e+20
5.734757965e+20
5.604530794e+20
5.302879434e+20
5.225438345e+20
5.048370083e+20
4.89323779e+20
4.502202214e+20
3.684860117e+20
5.445066989e+20
5.445135617e+20
5.421071544e+20
5.452432707e+20
5.422143769e+20
5.483611829e+20
5.424469108e+20
5.44623178e+20
5.388069486e+20
5.426220539e+20
5.414718674e+20
5.417478978e+20
5.385453726e+20
5.401411869e+20
5.443329897e+20
5.393788518e+20
5.314452008e+20
5.339063363e+20
5.272914245e+20
5.241710604e+20
5.148878827e+20
5.172166217e+20
5.183984976e+20
4.980042278e+20
4.879729278e+20
4.89440566e+20
4.704805538e+20
4.455578408e+20
4.093588551e+20
3.409991319e+20
5.096174939e+20
5.201964457e+20
5.183650358e+20
5.164144216e+20
5.073529844e+20
5.066581976e+20
5.09838709e+20
5.079511147e+20
5.137745366e+20
5.086985686e+20
5.184739829e+20
5.161850961e+20
5.133477933e+20
5.140550764e+20
5.089940944e+20
4.948162521e+20
5.076878375e+20
5.003757391e+20
4.990702519e+20
4.93822559e+20
4.885057531e+20
4.911892745e+20
5.035485964e+20
4.778858974e+20
4.635160247e+20
4.544036175e+20
4.490839874e+20
4.305552525e+20
3.8568207e+20
3.441557929e+20
4.811084911e+20
4.882406814e+20
5.025005284e+20
5.013301992e+20
5.012885254e+20
4.982374922e+20
4.983310367e+20
5.005258968e+20
5.056623569e+20
5.022328348e+20
5.011021079e+20
5.002949693e+20
5.005177881e+20
4.990778802e+20
4.907646641e+20
4.821330506e+20
4.82669921e+20
4.887922555e+20
4.86510279e+20
4.867019727e+20
4.778330315e+20
4.752589266e+20
4.694729941e+20
4.637037693e+20
4.593781694e+20
4.4536147e+20
4.38064202e+20
4.141654015e+20
3.919032952e+20
3.617168538e+20
4.490639053e+20
4.607234692e+20
4.762721807e+20
4.873653645e+20
4.941424483e+20
4.942506984e+20
4.890197714e+20
4.922872156e+20
5.005624556e+20
4.90348566e+20
4.909636722e+20
4.972106458e+20
4.999372898e+20
4.968362601e+20
4.917746325e+20
4.91166555e+20
4.811348928e+20
4.850404377e+20
4.786848479e+20
4.760367312e+20
4.719656621e+20
4.627013144e+20
4.553292121e+20
4.568933263e+20
4.467794895e+20
4.418676626e+20
4.40547532e+20
4.151387245e+20
3.953244044e+20
3.625145678e+20
4.192716839e+20
4.315158112e+20
4.479765303e+20
4.603073525e+20
4.689971321e+20
4.775955863e+20
4.81632709e+20
4.85145764e+20
4.915732839e+20
4.952098755e+20
4.950693994e+20
4.927012848e+20
4.888684578e+20
4.920554588e+20
4.913246462e+20
4.933644388e+20
4.799963282e+20
4.859732661e+20
4.813622412e+20
4.775796994e+20
4.730381926e+20
4.605800978e+20
4.59095184e+20
4.639088385e+20
4.573854621e+20
4.406810875e+20
4.263238083e+20
4.182041295e+20
4.040747646e+20
3.686341559e+20
3.799315926e+20
4.03311572e+20
4.172492922e+20
4.33735631e+20
4.454141529e+20
4.621048416e+20
4.662484712e+20
4.740032078e+20
4.741573595e+20
4.852086443e+20
4.903633068e+20
4.968787881e+20
4.988156482e+20
4.990679615e+20
4.880447487e+20
4.834437149e+20
4.845505852e+20
4.820061792e+20
4.806799727e+20
4.757448224e+20
4.737321856e+20
4.698180045e+20
4.618661655e+20
4.614480159e+20
4.584634911e+20
4.481740982e+20
4.350043841e+20
4.246929445e+20
4.063442169e+20
3.842579241e+20
3.435796976e+20
3.650460139e+20
3.847552846e+20
4.072923652e+20
4.177635493e+20
4.318592322e+20
4.487429169e+20
4.607513221e+20
4.637955045e+20
4.695583021e+20
4.789660388e+20
4.869620991e+20
4.84618027e+20
4.874036018e+20
4.929245977e+20
4.935862448e+20
4.91503959e+20
4.845791453e+20
4.850113502e+20
4.819375375e+20
4.818497565e+20
4.726604288e+20
4.673332361e+20
4.580050144e+20
4.572330156e+20
4.522282245e+20
4.386295976e+20
4.264046454e+20
4.148123051e+20
3.983888171e+20
3.115171649e+20
3.310924497e+20
3.500846875e+20
3.688753086e+20
3.916290607e+20
4.059730152e+20
4.222452334e+20
4.352028973e+20
4.513936882e+20
4.544651848e+20
4.626883778e+20
4.726336566e+20
4.811055187e+20
4.888021355e+20
4.919846263e+20
4.977501214e+20
4.947265025e+20
4.917342569e+20
4.906762616e+20
4.851381524e+20
4.838160651e+20
4.797134872e+20
4.701149218e+20
4.649989404e+20
4.629062331e+20
4.594575517e+20
4.476982018e+20
4.344149795e+20
4.19159259e+20
4.039955973e+20
2.795264203e+20
2.94797572e+20
3.130462541e+20
3.320272316e+20
3.528664456e+20
3.707998028e+20
3.936825509e+20
4.079707931e+20
4.251697097e+20
4.407555221e+20
4.511749136e+20
4.630585858e+20
4.691610173e+20
4.793893139e+20
4.833748934e+20
4.857928305e+20
4.874173306e+20
4.875416509e+20
4.849906773e+20
4.867749529e+20
4.886529639e+20
4.859710766e+20
4.821082499e+20
4.662077671e+20
4.654869522e+20
4.621712946e+20
4.550484171e+20
4.455802164e+20
4.25482101e+20
4.103544986e+20
2.63697059e+20
2.781010237e+20
2.929924956e+20
3.074098528e+20
3.238291518e+20
3.398183143e+20
3.587183763e+20
3.818642957e+20
4.00985693e+20
4.213006776e+20
4.330380518e+20
4.423077205e+20
4.545796807e+20
4.625374881e+20
4.690753441e+20
4.710327295e+20
4.782783114e+20
4.855017237e+20
4.83357364e+20
4.843353923e+20
4.876540391e+20
4.842528941e+20
4.805569273e+20
4.793861369e+20
4.607175254e+20
4.569305846e+20
4.563233461e+20
4.554365027e+20
4.460877953e+20
4.261264141e+20
2.48163826e+20
2.592620406e+20
2.688496688e+20
2.828108266e+20
2.976114612e+20
3.140159295e+20
3.327275519e+20
3.493730503e+20
3.670308338e+20
3.840146291e+20
4.001438214e+20
4.140607791e+20
4.298445325e+20
4.443763974e+20
4.530058425e+20
4.662740085e+20
4.689563242e+20
4.757736516e+20
4.860450948e+20
4.845751778e+20
4.816815165e+20
4.875407739e+20
4.819263624e+20
4.807244808e+20
4.793705501e+20
4.732240331e+20
4.665338318e+20
4.546869327e+20
4.515525333e+20
4.460350211e+20
2.323883045e+20
2.395281107e+20
2.523932003e+20
2.597349018e+20
2.729838424e+20
2.888376499e+20
3.034139663e+20
3.170615341e+20
3.327232766e+20
3.458447002e+20
3.645866657e+20
3.893178548e+20
4.092614226e+20
4.238844186e+20
4.362663657e+20
4.446177912e+20
4.554358698e+20
4.639031436e+20
4.701564711e+20
4.778507629e+20
4.815343147e+20
4.901286684e+20
4.869868918e+20
4.896287847e+20
4.886044926e+20
4.790909831e+20
4.736401483e+20
4.682127558e+20
4.627529962e+20
4.5199507e+20
2.212521155e+20
2.282554568e+20
2.352992393e+20
2.462471826e+20
2.574159332e+20
2.671152085e+20
2.779769366e+20
2.931021982e+20
3.070998476e+20
3.268125775e+20
3.441258114e+20
3.5950923e+20
3.760549292e+20
3.95030995e+20
4.108871588e+20
4.254115159e+20
4.410005015e+20
4.550053843e+20
4.61783156e+20
4.704069835e+20
4.71639694e+20
4.765634742e+20
4.9032491e+20
4.916578867e+20
4.885718253e+20
4.847821567e+20
4.874093373e+20
4.797807424e+20
4.670547869e+20
4.585932929e+20
2.19457405e+20
2.239705837e+20
2.295800041e+20
2.322731751e+20
2.390469115e+20
2.485132759e+20
2.590446582e+20
2.705144037e+20
2.84441034e+20
2.996910822e+20
3.133522242e+20
3.255621443e+20
3.470496748e+20
3.710476463e+20
3.909477851e+20
4.129400372e+20
4.255688895e+20
4.363795563e+20
4.462149962e+20
4.574064442e+20
4.712190981e+20
4.806150049e+20
4.850076182e+20
4.876968206e+20
4.931996942e+20
4.90671093e+20
4.899370189e+20
4.902523517e+20
4.826473711e+20
4.70399432e+20
2.111119918e+20
2.106006867e+20
2.159740473e+20
2.193359767e+20
2.266129205e+20
2.342427883e+20
2.440358765e+20
2.542451365e+20
2.655952327e+20
2.756823642e+20
2.920392353e+20
3.095451262e+20
3.206910955e+20
3.368381424e+20
3.587287889e+20
3.75243304e+20
3.935061098e+20
4.118902267e+20
4.26036337e+20
4.443641991e+20
4.524708613e+20
4.616194963e+20
4.710029203e+20
4.818685489e+20
4.877986997e+20
4.882320118e+20
4.897596337e+20
4.885630223e+20
4.865201075e+20
2.084019765e+20
2.116764268e+20
2.14043351e+20
2.217215594e+20
2.228041446e+20
2.270982279e+20
2.338422901e+20
2.428661046e+20
2.499332891e+20
2.609927551e+20
2.709683361e+20
2.808784838e+20
2.927779654e+20
3.078260233e+20
3.229599068e+20
3.420431561e+20
3.659060891e+20
3.883132246e+20
4.098686027e+20
4.130565521e+20
4.292221944e+20
4.508543065e+20
4.604753206e+20
4.713992502e+20
4.75276251e+20
2.085276078e+20
2.111611571e+20
2.136517441e+20
2.142895502e+20
2.176733907e+20
2.210994084e+20
2.230667566e+20
2.264833345e+20
2.342332212e+20
2.4099029e+20
2.47883298e+20
2.605180371e+20
2.75422038e+20
2.898236314e+20
3.040105014e+20
3.193081699e+20
3.326030845e+20
3.534910147e+20
3.683638374e+20
2.045971881e+20
2.053033537e+20
2.067850202e+20
2.085458027e+20
2.113223493e+20
2.127252761e+20
2.164869176e+20
2.202499333e+20
2.270266318e+20
2.311427758e+20
2.429060737e+20
2.48990863e+20
2.561770281e+20
2.668916589e+20
2.032332054e+20
2.036400253e+20
2.044262888e+20
2.062886745e+20
2.08511992e+20
2.098655912e+20
2.128637858e+20
2.178379215e+20
2.006847156e+20
)
;

boundaryField
{
    flow
    {
        type            calculated;
        value           nonuniform List<scalar> 
15
(
3.684860117e+20
3.409991319e+20
3.441557929e+20
3.617168538e+20
3.625145678e+20
3.686341559e+20
3.842579241e+20
3.983888171e+20
4.039955973e+20
4.103544986e+20
4.261264141e+20
4.460350211e+20
4.5199507e+20
4.585932929e+20
4.70399432e+20
)
;
    }
    obstacle
    {
        type            calculated;
        value           nonuniform List<scalar> 
30
(
266.6389856
267.1586265
273.1967801
274.2595132
265.3108866
260.8368553
271.8733845
252.0098643
283.3405757
259.3297027
258.077455
268.0460821
248.0281663
269.440053
262.7391817
249.0305416
248.8886674
242.2790016
253.4840493
263.9198349
241.0779468
236.9514887
255.3318418
251.7316177
236.4542671
218.7296231
217.5379878
221.8270761
191.4003281
172.351238
)
;
    }
    frontAndBack
    {
        type            empty;
    }
    procBoundary1to0
    {
        type            processor;
        value           nonuniform List<scalar> 
21
(
6.119355083e+20
5.467715434e+20
5.115571683e+20
4.73652497e+20
4.381708743e+20
3.957497121e+20
3.606689608e+20
3.208935536e+20
2.915319093e+20
2.644062397e+20
2.52558246e+20
2.371202223e+20
2.285593778e+20
2.180208977e+20
2.150900797e+20
2.106983047e+20
2.066272272e+20
2.059412907e+20
2.04195272e+20
2.01932571e+20
2.010061114e+20
)
;
    }
    procBoundary1to3
    {
        type            processor;
        value           nonuniform List<scalar> 
36
(
4.800403526e+20
4.813982224e+20
4.913671521e+20
4.872652593e+20
4.800403526e+20
4.857297522e+20
3.928103173e+20
4.096222427e+20
4.245936333e+20
4.416133822e+20
4.590087723e+20
4.813982224e+20
4.7026726e+20
2.806212299e+20
2.968151423e+20
3.106958882e+20
3.239480089e+20
3.928103173e+20
3.432438923e+20
2.212403887e+20
2.258587437e+20
2.286231754e+20
2.370927893e+20
2.440259132e+20
2.806212299e+20
2.529360857e+20
2.030072408e+20
2.032332648e+20
2.024258656e+20
2.063764874e+20
2.101729842e+20
2.116435611e+20
2.212403887e+20
2.157569688e+20
2.030072408e+20
2.019589598e+20
)
;
    }
}


// ************************************************************************* //
