/*--------------------------------*- C++ -*----------------------------------*\
| =========                 |                                                 |
| \\      /  F ield         | OpenFOAM: The Open Source CFD Toolbox           |
|  \\    /   O peration     | Version:  2406                                  |
|   \\  /    A nd           | Website:  www.openfoam.com                      |
|    \\/     M anipulation  |                                                 |
\*---------------------------------------------------------------------------*/
FoamFile
{
    version     2.0;
    format      ascii;
    arch        "LSB;label=32;scalar=64";
    class       volScalarField;
    location    "0.005";
    object      iDof;
}
// * * * * * * * * * * * * * * * * * * * * * * * * * * * * * * * * * * * * * //

dimensions      [0 -3 0 0 0 0 0];

internalField   nonuniform List<scalar> 
546
(
5.832814549e+20
4.971901036e+20
7.741005295e+20
7.799020279e+20
5.084530917e+20
6.98620474e+20
5.866472621e+20
4.965910043e+20
8.817586248e+20
6.244765144e+20
5.809991782e+20
5.612298956e+20
4.919480534e+20
6.19917076e+20
6.249804699e+20
3.780763555e+20
5.845307595e+20
5.63797875e+20
4.393406046e+20
7.297818966e+20
4.731748872e+20
8.219720326e+20
4.814449245e+20
3.507756096e+20
4.083409901e+20
7.690769416e+20
4.988836633e+20
3.63597394e+20
3.951776238e+20
4.27345769e+20
6.730170638e+20
4.519910033e+20
6.83029879e+20
4.128893089e+20
5.315645958e+20
6.287584271e+20
7.74374386e+20
6.384741484e+20
7.626020538e+20
5.284032041e+20
5.809991782e+20
7.808415938e+20
6.395324689e+20
7.439004906e+20
6.999781258e+20
5.293068977e+20
2.287294276e+20
5.381706984e+20
5.68558429e+20
6.776546189e+20
4.994623813e+20
3.977284032e+20
6.151796263e+20
4.856893056e+20
6.533455842e+20
3.845384711e+20
5.265994228e+20
5.03442546e+20
3.104967044e+20
3.133868972e+20
5.384136507e+20
4.519910033e+20
5.464239032e+20
5.734573735e+20
6.471221171e+20
4.424596336e+20
5.162495903e+20
4.729438136e+20
6.196141692e+20
4.323298946e+20
5.809991778e+20
5.612298956e+20
4.181558451e+20
7.439004906e+20
4.249867196e+20
6.049221688e+20
4.574588552e+20
4.869163462e+20
3.876534746e+20
4.952091446e+20
4.205998994e+20
5.037893103e+20
3.744571638e+20
3.507756096e+20
5.172319208e+20
2.746703363e+20
4.157363861e+20
5.314115758e+20
4.5163157e+20
5.128149232e+20
6.281492591e+20
2.485950516e+20
4.098179274e+20
3.670127193e+20
5.777876042e+20
4.657469827e+20
4.693178097e+20
6.148269577e+20
4.766262837e+20
5.284032045e+20
4.357493837e+20
4.392233962e+20
4.673506504e+20
5.207303438e+20
5.999812511e+20
4.78896717e+20
5.082876169e+20
7.175609312e+20
5.944019939e+20
4.952091446e+20
3.417374188e+20
4.50758857e+20
2.942163428e+20
2.428446526e+20
5.172319208e+20
4.120055044e+20
3.880206274e+20
2.517212732e+20
3.387236778e+20
4.273457678e+20
4.486780422e+20
3.163937021e+20
7.285652037e+20
3.670127188e+20
3.697840667e+20
5.821837288e+20
4.223860287e+20
3.310606695e+20
5.004575978e+20
5.043848766e+20
1.040956861e+21
2.928155979e+20
6.641298721e+20
5.703237099e+20
7.249773451e+20
7.057425303e+20
6.607739026e+20
4.86916347e+20
4.393406046e+20
3.1276367e+20
5.520373679e+20
5.037893099e+20
5.34938805e+20
3.507756096e+20
5.716773872e+20
4.669395708e+20
3.325891077e+20
3.915664257e+20
4.798585436e+20
3.703663341e+20
3.589424343e+20
3.615928029e+20
5.236562409e+20
5.734573739e+20
3.466725627e+20
3.493102373e+20
4.927837002e+20
4.492966229e+20
3.574697127e+20
4.563482217e+20
4.115410842e+20
2.928155975e+20
7.379220789e+20
3.96746928e+20
5.249835943e+20
4.78896717e+20
6.353595212e+20
5.125435223e+20
6.202455594e+20
5.473364234e+20
4.205999001e+20
4.507588578e+20
5.884326891e+20
5.39654784e+20
7.622365096e+20
4.120055044e+20
3.880206291e+20
3.91566425e+20
1.975888113e+20
2.848971775e+20
3.589424338e+20
4.971901033e+20
3.870502645e+20
3.670127188e+20
4.853415875e+20
3.260228881e+20
4.927837002e+20
4.965910043e+20
5.719515404e+20
5.04384877e+20
4.599576831e+20
3.172168977e+20
1.967792214e+20
3.967469286e+20
3.999875004e+20
7.813578008e+20
5.591163786e+20
6.406794029e+20
4.651841711e+20
5.734000664e+20
5.257498786e+20
6.893959024e+20
4.546979854e+20
4.587065696e+20
4.900091941e+20
6.592088128e+20
4.98883666e+20
3.356283643e+20
4.234045996e+20
3.703663375e+20
2.916407275e+20
3.841923528e+20
5.691915662e+20
5.505190789e+20
2.311150417e+20
5.356090301e+20
4.458519192e+20
4.965910043e+20
5.481202266e+20
3.602749121e+20
4.599576824e+20
5.612298951e+20
5.903376636e+20
3.223568795e+20
5.749820337e+20
6.805374416e+20
3.558013313e+20
5.125435198e+20
4.651841672e+20
5.734000597e+20
5.783248577e+20
4.507588516e+20
2.407224608e+20
4.317238265e+20
2.450045928e+20
5.218736343e+20
3.04873346e+20
5.034425419e+20
1.975888113e+20
4.843252017e+20
4.935458468e+20
2.485950518e+20
3.415149392e+20
2.981978342e+20
4.391185795e+20
4.890343322e+20
4.458519192e+20
4.492966229e+20
4.289636553e+20
4.563482217e+20
4.599576817e+20
5.368285962e+20
6.149350672e+20
5.703237108e+20
4.999843763e+20
4.788967139e+20
6.353595201e+20
5.637978764e+20
6.977762537e+20
5.473364207e+20
3.943124063e+20
2.386370432e+20
5.081918661e+20
3.777583482e+20
4.627864531e+20
4.39472538e+20
4.157363883e+20
4.195354554e+20
3.951776227e+20
4.273457701e+20
4.486780422e+20
2.485950516e+20
4.3258559e+20
4.128893089e+20
3.697840667e+20
3.958849353e+20
3.050565759e+20
2.837662886e+20
5.004575975e+20
2.882199286e+20
4.841659837e+20
5.368285953e+20
3.689610383e+20
5.95120393e+20
4.499859369e+20
6.049221698e+20
5.337020013e+20
3.84407643e+20
4.393406042e+20
4.43081868e+20
4.731748876e+20
6.36365443e+20
4.279510451e+20
3.237928699e+20
3.811182588e+20
6.317417734e+20
3.325891077e+20
5.314115768e+20
3.669506496e+20
3.988560485e+20
2.01905119e+20
4.293914519e+20
3.41514938e+20
3.670127182e+20
3.466725625e+20
3.493102378e+20
2.346589059e+20
3.074134802e+20
4.766262844e+20
4.323298936e+20
7.020406699e+20
4.392233962e+20
7.379220824e+20
4.711369778e+20
4.499859405e+20
4.788967178e+20
5.08287612e+20
4.869163438e+20
4.393406042e+20
4.691455034e+20
3.943124063e+20
4.507588593e+20
4.012041048e+20
5.396547831e+20
4.900091856e+20
3.296044035e+20
5.265994252e+20
5.034425464e+20
4.234045996e+20
3.703663375e+20
1.346034132e+20
1.581968518e+20
2.959796157e+20
3.440744248e+20
2.773380498e+20
2.328734905e+20
4.458519159e+20
2.364719043e+20
3.813010246e+20
3.602749141e+20
4.599576874e+20
5.124272995e+20
5.165454577e+20
3.719502456e+20
4.499859369e+20
3.780763561e+20
6.861882873e+20
5.381707002e+20
4.393406042e+20
4.691455034e+20
6.834748319e+20
5.303045313e+20
3.477102182e+20
4.856893048e+20
4.627864611e+20
4.944066096e+20
3.603048699e+20
3.356283643e+20
4.516315688e+20
4.273457662e+20
2.692068246e+20
2.259955002e+20
2.276766258e+20
4.128893098e+20
2.311150415e+20
2.09586143e+20
1.40795344e+20
3.783550526e+20
3.336383991e+20
2.161649468e+20
4.115410823e+20
3.172168948e+20
6.641298689e+20
6.44713759e+20
6.249804679e+20
5.041018041e+20
5.082876161e+20
4.612891716e+20
5.42714864e+20
4.952091466e+20
5.520373735e+20
3.712131782e+20
7.48914329e+20
2.968101307e+20
4.900091856e+20
6.866758346e+20
4.988836615e+20
2.517212732e+20
7.339012993e+20
3.988560485e+20
3.589424328e+20
3.389932527e+20
3.870502639e+20
3.89951012e+20
3.466725622e+20
3.260228867e+20
2.815906837e+20
2.364719061e+20
5.004575986e+20
2.642016016e+20
3.873327834e+20
2.196116981e+20
3.197662332e+20
3.22356877e+20
6.999781241e+20
4.284865369e+20
3.812157121e+20
5.125435198e+20
4.393406042e+20
6.51590977e+20
4.731748836e+20
5.03789309e+20
6.954204483e+20
8.634476529e+20
4.355637205e+20
6.866758407e+20
4.988836615e+20
5.034425419e+20
5.92766434e+20
3.133868981e+20
2.019051199e+20
1.355973021e+20
1.82141302e+20
1.376297699e+20
2.542265475e+20
2.09586143e+20
2.111930144e+20
1.655303355e+20
2.859757706e+20
2.161649468e+20
2.420829915e+20
4.148220996e+20
4.673506522e+20
4.463402947e+20
4.999843783e+20
4.536916273e+20
5.591163777e+20
4.100348192e+20
6.20245564e+20
4.43081868e+20
4.205999001e+20
5.568197674e+20
4.546979854e+20
4.856893048e+20
5.172319226e+20
4.12005508e+20
4.157363883e+20
4.475044857e+20
5.363124928e+20
3.703663341e+20
2.019051184e+20
1.355973001e+20
2.959796136e+20
1.376297699e+20
2.311150415e+20
3.958849368e+20
1.642612346e+20
2.364719079e+20
9.53252576e+19
2.40183276e+20
3.147078865e+20
3.66019494e+20
2.459740255e+20
3.223568795e+20
2.999906246e+20
2.772559945e+20
4.574588582e+20
4.100348192e+20
2.842792145e+20
4.43081868e+20
4.468873976e+20
5.833349944e+20
5.88432687e+20
4.047410873e+20
5.444546507e+20
5.493406677e+20
6.097466974e+20
3.356283643e+20
5.080855149e+20
1.570373143e+20
1.807964015e+20
2.73211953e+20
2.293829499e+20
3.004495539e+20
3.725975848e+20
2.111930128e+20
2.601190947e+20
1.906505123e+20
2.642016037e+20
1.45249796e+20
3.172168997e+20
3.93558444e+20
2.231701474e+20
2.499921872e+20
3.024610825e+20
1.524862848e+20
3.331532906e+20
2.067485196e+20
4.430818643e+20
4.468873901e+20
4.242436251e+20
4.546979816e+20
4.047410908e+20
5.172319272e+20
2.916407287e+20
1.581968513e+20
2.276766242e+20
2.293829482e+20
2.542265456e+20
2.09586143e+20
3.285224693e+20
2.128247171e+20
2.14481828e+20
1.921466194e+20
9.683319584e+19
2.196116981e+20
2.95168833e+20
1.487800982e+20
3.499890648e+20
4.284865404e+20
2.795581889e+20
3.844076398e+20
3.101227794e+20
2.243390221e+20
2.033959516e+20
1.82141302e+20
2.293829499e+20
3.004495539e+20
2.095861414e+20
1.877271225e+20
1.18235953e+20
2.383131422e+20
2.161649468e+20
2.420829915e+20
3.41618197e+20
2.459740255e+20
3.967469286e+20
3.589424328e+20
1.807964001e+20
2.276766258e+20
1.376297699e+20
2.311150432e+20
2.561608414e+20
3.285224668e+20
1.418831447e+20
1.570373155e+20
)
;

boundaryField
{
    flow
    {
        type            zeroGradient;
    }
    obstacle
    {
        type            calculated;
        value           nonuniform List<scalar> 
30
(
81.9452448
1e-300
137.4161404
840.8444583
906.2640664
105.8909261
141.8091677
849.6306265
404.5082322
1e-300
59.38056694
271.7254185
1e-300
556.1008515
410.2498737
1e-300
462.319321
1e-300
149.9054854
145.122228
1e-300
391.5811001
668.5741029
322.1771831
176.6485747
651.814308
1071.258343
152.8866149
1e-300
277.3887353
)
;
    }
    frontAndBack
    {
        type            empty;
    }
    procBoundary1to0
    {
        type            processor;
        value           nonuniform List<scalar> 
21
(
4.899546236e+20
6.458492765e+20
4.008719647e+20
3.117893059e+20
3.563306356e+20
3.340599708e+20
3.563306353e+20
4.899546236e+20
2.672479765e+20
2.004359824e+20
2.227066471e+20
2.004359832e+20
2.895186412e+20
3.563306328e+20
1.336239882e+20
1.55894653e+20
2.004359824e+20
2.227066471e+20
2.004359838e+20
1.336239882e+20
2.227066471e+20
)
;
    }
    procBoundary1to3
    {
        type            processor;
        value           nonuniform List<scalar> 
36
(
3.418766161e+20
4.394725419e+20
5.820309436e+20
4.195354554e+20
3.418766161e+20
7.339012993e+20
3.38827308e+20
3.154499251e+20
2.121218161e+20
3.744571645e+20
4.317238265e+20
4.394725419e+20
5.172319181e+20
1.499953123e+20
3.528712629e+20
3.812157121e+20
4.356619954e+20
3.38827308e+20
2.842792145e+20
1.906505138e+20
1.200916371e+20
1.936663917e+20
1.952103983e+20
1.475844165e+20
1.499953123e+20
2.479668304e+20
2.937941545e+20
2.73211953e+20
1.146914749e+20
2.080035373e+20
1.164367461e+20
1.877271253e+20
1.906505138e+20
1.891775263e+20
2.937941545e+20
1.346034123e+20
)
;
    }
}


// ************************************************************************* //
