/*--------------------------------*- C++ -*----------------------------------*\
| =========                 |                                                 |
| \\      /  F ield         | OpenFOAM: The Open Source CFD Toolbox           |
|  \\    /   O peration     | Version:  2406                                  |
|   \\  /    A nd           | Website:  www.openfoam.com                      |
|    \\/     M anipulation  |                                                 |
\*---------------------------------------------------------------------------*/
FoamFile
{
    version     2.0;
    format      ascii;
    arch        "LSB;label=32;scalar=64";
    class       volScalarField;
    location    "0.005";
    object      internalT;
}
// * * * * * * * * * * * * * * * * * * * * * * * * * * * * * * * * * * * * * //

dimensions      [1 2 -2 0 0 0 0];

internalField   nonuniform List<scalar> 
546
(
710.3822289
699.1678738
696.4048525
696.8097936
697.0615605
707.3480674
721.7703771
701.1008706
692.1881008
683.1940749
685.1857355
689.7398062
691.4652878
704.1615607
701.8999921
696.4319158
679.8089334
673.22769
676.8409862
678.7147267
671.1548196
667.2477378
665.0406392
668.0167848
660.0341025
664.8299698
667.6959578
685.2665096
668.1623306
657.9446206
752.1882808
762.6570968
759.7015865
756.5674135
772.0266497
778.5691296
768.9435128
771.0933865
773.0929045
777.6734618
765.1073607
767.2790145
769.8850757
779.2076752
778.8611835
769.9338253
748.2377628
743.1361014
744.6277773
743.0588403
747.1952574
741.5637126
748.655603
726.0172755
736.6918286
727.8191225
727.0506356
734.2908513
724.3800324
731.4808257
765.130627
771.730328
787.8223468
790.9070836
807.4014865
804.8129668
797.4989583
811.3644098
805.210016
801.217511
798.8368055
794.0494724
792.8973119
814.7175292
804.8391402
805.491903
805.6093583
779.5479553
778.203977
781.7122055
789.8764271
784.7353824
782.4157176
778.8788871
775.9090424
761.9359869
762.1591156
768.5758428
754.219161
764.9176475
724.4748699
748.6025164
773.8786771
780.0783485
785.9438499
795.7181137
793.9278386
787.3288782
804.2604976
822.7457409
833.1398169
837.4617993
827.5850578
821.4910367
805.8292649
818.7521869
805.4222609
800.434108
807.7024548
807.3600491
812.0103878
813.0894797
799.3411546
798.1529219
812.9933431
798.5311129
812.3228555
776.1404662
757.8974434
764.5263003
683.3898173
711.8534322
729.9290892
736.4520538
754.6813588
760.3694502
765.7930686
787.5681941
794.0866009
794.61533
814.575534
806.3708847
821.3698042
816.8262441
822.2414071
803.8605362
813.9065147
814.5970725
816.1523597
816.937178
814.7403189
812.2544742
816.9169486
818.207763
821.9677397
808.6905523
809.6957476
801.2016585
797.8752943
783.7994981
644.2309504
657.0954123
684.0114477
709.7162213
718.2937453
743.3366358
754.4835497
764.6700782
774.0081699
783.9532784
792.6825218
787.2261378
792.0419835
805.6074193
809.8745077
815.9204414
823.8666762
810.5640074
815.3234295
817.3148323
809.7090601
818.1187862
827.4526707
827.325006
822.1637478
811.5169129
807.7889943
802.5229893
788.0394679
781.4107026
596.2905904
613.2395595
642.8029056
663.6392595
689.545404
706.3163273
721.1933795
725.6346329
734.8323592
741.0388157
761.5455507
784.9392137
783.936338
789.5953448
794.3522946
801.494552
805.4310301
809.6113923
808.5449333
809.234594
817.3297997
814.4146605
818.5853443
817.1372545
813.1299888
810.6654926
796.1587631
804.3477044
809.2453287
789.277568
548.1444136
574.4702165
591.1117094
610.8453945
631.7822563
658.8915426
682.9261879
689.1004662
701.5749189
713.3017324
721.2136708
734.4351708
748.2930342
768.5913343
777.6255129
773.4227167
791.5458804
799.4984408
801.2560362
807.5901078
801.6859548
790.9139888
795.4476856
803.8365855
812.5258525
811.1420493
796.7709212
804.5209203
804.8607275
799.035658
498.3841626
531.4910316
544.2517744
569.0816192
589.6925877
608.9887073
625.2232932
647.1946898
664.409762
676.8739684
694.4778082
704.3321726
711.2657291
730.4702801
753.3757054
754.2782948
772.6070154
774.8305098
776.2249482
795.0589621
795.8081459
800.8694907
795.826685
788.1537746
787.0219334
801.8146397
810.8861528
808.1290151
796.614664
793.0608857
453.0012046
478.5584817
509.25848
521.7504407
549.6309541
571.6191031
594.1328001
616.0752117
636.8330073
640.8981924
656.7124173
674.2551177
680.9687222
697.1701147
711.3308048
732.2140277
743.6077876
754.3808669
766.1589856
772.1670766
771.2739314
784.2759559
787.8234762
792.6596637
787.3382142
783.6787923
783.4327315
791.4745276
780.78743
777.4382699
421.2227833
444.3166274
469.375778
488.8108091
499.9521099
514.5022424
535.2065209
561.2914185
575.0141783
611.505043
621.7124841
639.2172472
652.9922168
664.486589
680.3386993
686.8519075
704.3531449
718.9875297
727.3397146
738.2410008
752.7177848
757.677599
765.5318479
780.7105377
772.3746232
774.7982761
763.7676152
765.7413674
778.0105472
773.698556
395.587295
409.4368025
429.2358809
450.0608842
459.0073777
478.7688195
500.4976082
523.2023569
535.2610822
553.8662822
582.8451082
604.9940425
621.7996895
636.1217877
653.253888
663.5662641
672.1303206
698.3348664
707.034081
717.1400368
727.816908
739.2314874
741.2256113
741.3874153
757.2517788
756.7587165
762.9156805
768.1548774
770.1376673
769.498609
364.6601596
379.8804279
402.0535576
416.7716938
437.4856078
452.0230642
463.303358
488.8539859
513.8510925
532.6236649
543.6073377
575.4158606
594.7645256
608.0075267
622.0556025
636.0878758
648.8713166
664.9314556
677.6973263
691.441252
697.5250613
714.0498827
722.8465206
736.8395479
729.8808314
734.4141456
741.2073546
741.5337733
748.5769987
751.3120947
349.2754353
356.7040995
371.3940693
394.9659479
409.7057238
429.0123115
443.1245325
458.4130561
465.810437
484.6249773
503.7383239
525.1941376
543.2851908
567.7505136
590.0187546
604.5786757
626.5974558
633.9271998
647.9703332
656.6210576
665.21247
676.5860024
697.9918789
701.9915831
721.6310888
727.7401913
733.5552132
734.4102464
737.973667
736.798991
333.736201
340.4796517
352.9521662
364.4261278
377.9987306
395.1093735
405.9820639
417.1688201
439.2456479
454.2152278
481.3134382
496.8602726
508.083279
524.946511
541.8678749
564.6707122
584.8973675
596.0030031
612.1106379
628.5699204
645.6083247
658.4380174
672.0126945
679.7723078
685.9545805
697.7162825
709.2937997
716.8490642
710.0204522
709.0960155
333.5128332
338.2262514
341.5343535
354.5993097
362.4243373
376.4991519
390.972654
407.5885578
414.5486695
428.5700906
443.8844318
456.5649583
476.3288801
488.7816498
511.7974874
525.1941904
554.700897
571.7555014
582.1998446
592.6272557
611.6043774
629.9344687
636.3683085
655.5921603
671.5841518
682.2193877
685.1704894
697.3394385
699.9930257
321.2797023
321.9918177
331.1146983
338.0177221
346.6284898
353.9478353
368.0508136
369.5674484
379.4559192
391.1509876
404.7492366
421.6612048
447.7145055
472.5569341
485.4608715
504.7605095
519.3715422
538.5937066
551.8808463
567.7124917
572.7616217
585.5318195
608.6804324
616.7901089
632.9622499
320.1857945
324.6187101
329.538925
338.0004984
339.2886473
340.5817598
347.6894966
359.8507339
365.2731988
376.5753435
394.7832396
402.6665566
412.1985782
432.8192651
445.5808841
458.8264249
478.2555151
503.2080599
521.5204225
314.6715864
315.4410878
319.2707739
323.306445
328.2510921
334.2451894
334.6440556
341.2364559
356.4533318
366.4269503
373.0024765
388.4228494
397.4459686
412.1631769
311.6038411
316.2638534
315.95765
316.9851262
324.7530292
330.1337737
334.7637953
338.9340729
306.1648302
)
;

boundaryField
{
    flow
    {
        type            calculated;
        value           nonuniform List<scalar> 
15
(
657.9446206
731.4808257
764.9176475
764.5263003
783.7994981
781.4107026
789.277568
799.035658
793.0608857
777.4382699
773.698556
769.498609
751.3120947
736.798991
709.0960155
)
;
    }
    obstacle
    {
        type            calculated;
        value           nonuniform List<scalar> 
30
(
642.6239113
616.878089
613.6062835
618.3148821
630.2005928
636.6469962
626.5352162
650.781357
647.7378202
618.9640753
635.4929555
626.5641304
613.6538142
609.6383677
645.6809406
630.4246294
625.0981091
615.5127422
613.0196614
558.9880523
638.1492316
580.3389299
607.9220053
659.0379935
620.4921621
594.5360837
616.5569184
612.850064
617.7844199
595.1047286
)
;
    }
    frontAndBack
    {
        type            empty;
    }
    procBoundary1to0
    {
        type            processor;
        value           nonuniform List<scalar> 
21
(
702.6442826
752.2555587
743.2737809
710.5536166
666.0595329
629.1927223
564.4797139
514.9170388
477.6469742
429.978573
403.6869298
370.170849
351.2751316
337.169408
331.7554418
326.548614
318.8521158
314.5141847
311.025772
312.0581008
305.7923425
)
;
    }
    procBoundary1to3
    {
        type            processor;
        value           nonuniform List<scalar> 
36
(
699.4689224
644.2791611
661.6748363
674.8663306
699.4689224
681.7486514
535.7042968
555.3555569
567.6980485
583.4354996
598.1078603
644.2791611
611.4612942
427.8081827
440.9519208
460.8669565
468.8709921
535.7042968
491.919475
344.3211957
346.5221314
354.6186281
360.0545752
372.4919283
427.8081827
385.0060538
305.8713597
309.1893911
310.199065
312.145215
313.5371024
319.6825903
344.3211957
325.0551629
305.8713597
302.0095702
)
;
    }
}


// ************************************************************************* //
