/*--------------------------------*- C++ -*----------------------------------*\
| =========                 |                                                 |
| \\      /  F ield         | OpenFOAM: The Open Source CFD Toolbox           |
|  \\    /   O peration     | Version:  2406                                  |
|   \\  /    A nd           | Website:  www.openfoam.com                      |
|    \\/     M anipulation  |                                                 |
\*---------------------------------------------------------------------------*/
FoamFile
{
    version     2.0;
    format      ascii;
    arch        "LSB;label=32;scalar=64";
    class       volScalarField;
    location    "0.005";
    object      internalE;
}
// * * * * * * * * * * * * * * * * * * * * * * * * * * * * * * * * * * * * * //

dimensions      [1 -1 -2 0 0 0 0];

internalField   nonuniform List<scalar> 
546
(
3.302884526
2.185723154
3.046287179
4.335908775
2.609753997
2.809725479
3.65062134
2.343619893
3.141633727
2.613748244
2.362203594
1.957246857
2.574403262
3.434715067
3.930955369
1.945584355
3.339656327
2.373210498
2.125729843
1.878098074
2.039417188
3.140807819
1.659245072
1.570463282
1.527563298
4.112404447
3.389755187
1.451467139
1.561074903
1.802452197
4.134487273
1.733960746
3.025630742
2.51949614
2.511846436
3.344672602
3.607399321
3.796547497
3.256182272
3.311958609
3.135155894
4.276706934
3.207320429
3.91249489
5.40667199
3.532915487
1.047003349
2.622115561
2.708358875
3.120240859
2.447532406
1.879887844
3.345036767
1.884737444
3.18820699
1.302744506
2.738630602
1.860769721
0.9633045701
1.449479741
2.146197033
3.044338166
2.715212615
3.015459068
3.777536484
2.664311978
2.638687098
2.800369083
2.87597243
1.581626655
2.358839349
3.700002365
1.63617117
2.604053994
3.078097979
5.567719531
1.701990064
3.921559333
1.739284039
2.976339971
2.17080977
2.700628826
2.041972955
2.353287473
2.097848886
1.958286696
1.606009776
2.373158382
2.718657119
2.724434474
2.704469113
0.7763655297
1.361435914
2.28260673
2.832669966
3.106708789
2.548823694
3.438775282
4.464252869
2.791189435
2.865434767
2.970212636
2.880293725
2.983160886
2.233673478
4.187820809
2.568168007
3.281927176
2.88425004
3.35836841
1.529109457
2.211581693
2.657885328
1.716157876
1.778607165
1.40040097
2.14289939
2.30601308
1.839066469
1.435196536
2.18309309
1.205899579
2.430193183
1.758912781
2.917958304
2.995040483
1.622153025
1.406441487
2.141804393
3.350672365
5.310581483
1.773180494
3.661188445
2.563109309
6.681679013
3.60919052
3.833484343
3.755418764
2.968146525
1.636257653
2.218849218
3.304407134
2.636505019
2.355372817
3.451583787
2.601961573
0.8682586913
2.608869141
2.018807168
3.300480624
2.247085445
0.8814902955
2.613514394
2.57913388
1.702807472
1.105642805
3.961988429
1.533575891
1.93034452
2.712742269
3.129958334
1.535584022
5.025488494
2.476425759
3.494888346
3.271151358
3.322050506
3.856939504
2.76039744
3.541778979
1.186455875
2.980296221
4.170201719
2.966569936
3.882330039
1.940931553
1.541618294
1.925033745
0.7064819323
2.842312778
1.55191634
1.1461627
1.6492034
1.106601163
3.13872339
1.273190662
3.231122596
1.955705557
2.757109052
2.691827201
1.747455888
1.632952891
1.553110653
1.827190849
2.324285171
4.992401547
2.445836948
3.687912435
2.818053528
2.796129857
3.570523271
4.234663036
3.227044386
2.039896643
2.319846118
3.239186477
2.622833504
2.113362666
1.664078247
1.546324203
1.551419745
0.9287299138
3.672855743
2.915254211
0.7643296127
1.73067458
1.49028678
2.420639833
3.605263281
1.822855765
2.402409219
3.674819737
3.447357416
1.91800781
3.254398144
2.809029094
1.102977485
2.375899336
2.757104501
4.179588072
3.031557852
1.203242804
1.318231634
2.714926628
1.510402437
2.650127825
2.086813774
1.469479681
0.5580008683
3.999215861
1.325729232
0.5585880498
1.218721765
0.9113853112
2.03594342
1.64515909
1.706842939
3.81725195
2.443644007
1.522856298
2.105977828
3.648549247
3.328641942
1.962418194
2.3587772
2.534433197
5.285727469
2.460349568
3.809933338
2.728132483
2.161096698
2.564829247
4.146923413
2.602543958
3.315899804
2.300695951
2.162034473
2.304486731
1.391962743
2.098657476
1.27536737
0.588376047
0.576379469
1.263128804
1.66042679
1.298776955
1.17530455
1.786553022
1.897029692
0.9318679336
2.569781712
2.540102391
1.697562497
2.814120871
1.765887886
2.916218172
2.385821125
1.30495643
2.009988556
1.980264628
2.759347604
2.967188287
2.423976434
1.313568008
1.456363647
3.737034274
1.094811099
1.504166964
1.876143985
2.548854397
1.118384754
1.827545528
0.8194482006
1.036321532
1.142790207
0.8735108584
1.196899699
1.680657725
1.956779854
2.205526722
3.654785461
2.009145266
2.516162357
3.055317416
2.583827236
2.482496214
2.163572709
1.739585474
1.777378024
1.901473293
2.354391999
1.832005763
1.706267479
2.423678353
2.848891621
1.596990333
1.994951858
2.454206206
2.41060743
1.647087039
0.6289343378
0.2470490412
0.7273359844
0.9800871715
1.388409847
1.237572258
0.6024794344
0.5807370088
1.352367681
1.650725592
1.682469862
2.614499195
1.87351016
1.992267224
3.98015044
1.106207751
2.783721036
2.787592691
3.379385488
1.873982846
3.109732148
2.793176699
2.288070765
2.614150463
2.655392737
2.666544408
2.072131954
1.691175075
3.154818416
2.862004553
0.6373658286
0.9007072031
0.3674197206
1.082330214
1.083611388
0.390457939
0.4778811387
1.804398381
0.6936112978
0.5772772241
1.266684585
0.8828711262
2.402936734
2.980213896
2.751900441
2.556572651
2.681843129
1.514512384
3.924890334
3.026857059
2.796746885
2.170573241
4.108236909
1.391723383
2.084579
3.19670555
2.346396676
1.152142002
3.336967723
1.800090121
0.6913197107
0.928181392
0.6089248376
0.4898468034
0.7747884213
0.7236558384
0.6054458295
0.7978884427
2.112138234
0.5856425347
0.78508923
0.8740032527
0.4798374226
0.9391912295
3.508927757
2.019076101
1.413737166
2.690683916
1.983853645
2.487266926
2.020599668
2.370607386
2.296342624
3.687783693
3.200023123
3.373680818
2.796954081
3.492537519
3.029021699
1.659790618
0.2792927871
0.3743351133
0.294598394
0.1534106882
0.2807102561
0.8199866715
0.2764774784
0.3712434985
0.9998204049
0.7126160118
0.8071190676
1.569925382
1.017910802
1.708489375
2.51526194
1.059460487
1.498508123
3.452614024
2.105457931
2.829735539
2.45607021
3.026975829
1.884289082
2.441619531
2.103228955
1.764549824
1.874736247
1.873361987
3.37504604
2.019526243
0.4163836051
0.4030128943
0.6952638803
0.407706794
0.419677562
1.21998039
0.5634195348
0.5890348085
0.2212430679
1.181843212
0.4167176159
1.888444213
1.214336527
0.7002319774
0.6772947469
1.092814662
1.803286643
2.4829216
1.035772745
1.661555609
1.988363491
2.152721428
2.800671194
2.005230237
2.213915485
3.180304133
2.798654359
1.346563244
2.531238426
0.3824657311
0.2955811384
0.5050158428
0.579054384
0.6213302968
1.269934136
0.5033508523
0.5325492536
1.242158149
0.7534303521
0.8801592201
0.8151573394
1.445434956
0.634745132
0.3789315493
0.9522879685
0.8290971643
2.214865926
0.9881238004
1.554796325
1.999068779
1.199844702
1.362452075
2.275329937
2.305344614
0.764029651
0.2908125101
0.4928125845
0.3022698152
0.655556385
0.1896952152
0.6438404286
1.061732689
1.011519391
0.5598308129
0.1777821578
0.4441970783
0.5234345583
0.4519810053
0.7550582277
1.944552364
1.018696197
1.60997095
1.544600608
0.4851841497
0.1819797212
0.4499078621
0.7443926508
0.4674901526
0.7780644896
1.184709808
0.07769466383
0.4717145936
0.4732001829
0.2720974884
1.043101401
0.4288108501
0.4702219087
0.8935801496
0.53454875
0.407692512
0.1866057778
0.5223243349
0.6908153429
0.8807184555
0.3572050098
1.02065218
)
;

boundaryField
{
    flow
    {
        type            zeroGradient;
    }
    obstacle
    {
        type            calculated;
        value           nonuniform List<scalar> 
30
(
2.113495275e-19
0
1.001761119e-19
4.438015369e-18
1.822728944e-18
1.305534732e-19
5.129700596e-19
3.290487031e-18
2.311664271e-18
0
2.782480631e-19
4.936521913e-19
0
1.464215792e-18
1.419575558e-18
0
1.587797858e-18
0
3.114978934e-19
1.272333601e-18
0
6.644794203e-19
1.386870001e-18
2.215919281e-18
6.434086053e-19
2.575159003e-18
2.996273816e-18
1.863241257e-19
0
2.38957009e-18
)
;
    }
    frontAndBack
    {
        type            empty;
    }
    procBoundary1to0
    {
        type            processor;
        value           nonuniform List<scalar> 
21
(
2.218984936
3.371646131
1.789070634
1.560768505
1.790845992
1.101890082
1.034356472
1.691765258
0.4698227418
0.6289901549
0.6234432562
0.3455383976
0.9275368919
0.8338588529
0.222448699
0.2798082813
0.2854813232
0.1849612032
0.2462884967
0.2063741614
0.3606969947
)
;
    }
    procBoundary1to3
    {
        type            processor;
        value           nonuniform List<scalar> 
36
(
2.3997379
1.658942037
2.672364735
1.944894519
2.3997379
2.261262749
1.279311335
0.8729142244
0.8908043565
1.233230153
1.984732203
1.658942037
2.445398406
0.3738661871
1.152872223
1.66489757
1.573526253
1.279311335
0.9099299547
0.2984291515
0.1372060464
0.368693497
0.3128375789
0.3277068299
0.3738661871
0.6914602841
0.5591667856
0.9091435608
0.1787575431
0.3269246483
0.3138034714
0.391481302
0.2984291515
0.4270821151
0.5591667856
0.4197897487
)
;
    }
}


// ************************************************************************* //
