/*--------------------------------*- C++ -*----------------------------------*\
| =========                 |                                                 |
| \\      /  F ield         | OpenFOAM: The Open Source CFD Toolbox           |
|  \\    /   O peration     | Version:  2406                                  |
|   \\  /    A nd           | Website:  www.openfoam.com                      |
|    \\/     M anipulation  |                                                 |
\*---------------------------------------------------------------------------*/
FoamFile
{
    version     2.0;
    format      ascii;
    arch        "LSB;label=32;scalar=64";
    class       volScalarField;
    location    "0.005";
    object      internalEMean;
}
// * * * * * * * * * * * * * * * * * * * * * * * * * * * * * * * * * * * * * //

dimensions      [1 -1 -2 0 0 0 0];

internalField   nonuniform List<scalar> 
546
(
3.003311858
2.968258411
2.924494351
2.91599453
2.868432951
2.914942444
3.005925811
2.905367632
2.933493086
2.892089191
2.840376608
2.879169121
2.745942665
2.898957243
2.87526215
2.792841145
2.650444902
2.679778163
2.728356864
2.681004242
2.630017232
2.649034422
2.632794001
2.584522017
2.416193601
2.398208391
2.326931148
2.314778448
2.076636993
1.673647326
2.827374856
2.866761862
2.843032169
2.847682376
2.88972771
2.947253459
2.879421739
2.899056637
2.8755338
2.913052565
2.859906792
2.869486306
2.862212019
2.905454761
2.926700741
2.866823236
2.745059194
2.738968492
2.710463372
2.68874643
2.655830655
2.647735174
2.679164716
2.49593681
2.481619441
2.459104731
2.361347687
2.258529718
2.047030254
1.721907515
2.691742526
2.771319195
2.81914619
2.819534603
2.827830443
2.814904338
2.806832728
2.845060283
2.855849693
2.813614216
2.859161164
2.829479971
2.809844244
2.891147935
2.827974138
2.751431697
2.823415948
2.692729219
2.681073569
2.664841728
2.663682377
2.660882586
2.71977237
2.569494828
2.482728147
2.39008787
2.362799226
2.284384598
2.008078159
1.817286358
2.40613477
2.523125468
2.684497507
2.699701154
2.719774421
2.736839006
2.731194118
2.720422356
2.807443109
2.85249142
2.882024853
2.892309362
2.859471412
2.830249697
2.730045732
2.725040607
2.683659831
2.700868901
2.712670377
2.712588795
2.678498175
2.667609321
2.590576312
2.554937823
2.578166398
2.455037247
2.456518499
2.219053356
2.050420611
1.909038892
2.11850871
2.264042216
2.399879788
2.477722937
2.574360641
2.594332002
2.58518395
2.676457355
2.743972421
2.68977189
2.760796032
2.767762742
2.834704976
2.801538328
2.791380676
2.725606126
2.70330458
2.727560508
2.69696011
2.684619415
2.654502954
2.59445682
2.567775329
2.580667258
2.535137981
2.466767344
2.462454603
2.296088841
2.177420185
1.961480732
1.864621639
1.957396241
2.115301286
2.255206139
2.325551028
2.450752442
2.508530294
2.560943174
2.626560557
2.679989417
2.70906214
2.677545143
2.672968381
2.736472657
2.746881223
2.778876577
2.729910781
2.719276038
2.709290316
2.694566089
2.644105667
2.601208321
2.622403408
2.649490701
2.595937794
2.46874134
2.377339028
2.316857914
2.198180238
1.988513434
1.563928759
1.707357426
1.851514175
1.987059045
2.120217829
2.253166917
2.321254473
2.374394539
2.405272966
2.482121795
2.577908223
2.692403116
2.699444896
2.720306701
2.676248274
2.674854077
2.694145715
2.69390836
2.682957477
2.657676475
2.672906869
2.641367564
2.609959181
2.602983383
2.573465421
2.508083793
2.390820192
2.358155688
2.270010604
2.093660183
1.300097991
1.447667184
1.570029301
1.717477968
1.822013415
1.964308713
2.115558188
2.191809149
2.246229833
2.312152122
2.38463697
2.468892774
2.503368996
2.58605537
2.646089888
2.63532131
2.68569515
2.674458987
2.682729086
2.686800042
2.666671506
2.580667801
2.566208225
2.541508714
2.564651576
2.532259338
2.412598263
2.368169976
2.304761387
2.19748997
1.071765607
1.214783318
1.315305301
1.44913133
1.594241762
1.706711081
1.822441124
1.944376327
2.070356282
2.123547757
2.218199305
2.298030418
2.362249816
2.464842917
2.558684538
2.591770765
2.638623494
2.630212149
2.629276419
2.662676276
2.657922214
2.652145094
2.582712921
2.529976718
2.514973805
2.543155859
2.506102535
2.423478068
2.305053247
2.21175371
0.8741295891
0.9738958644
1.100526191
1.19588696
1.338859942
1.463186988
1.614668217
1.735067637
1.8691385
1.950026038
2.04537891
2.155330101
2.205477775
2.307175932
2.373609697
2.455515882
2.502064481
2.538960768
2.565109396
2.59473557
2.601733396
2.631073162
2.621966164
2.551055252
2.530011204
2.50031464
2.461007413
2.434537363
2.293336111
2.202311343
0.7667799374
0.8529994575
0.9493596575
1.037318648
1.117629739
1.206945486
1.32534402
1.479622946
1.591699326
1.778466963
1.858528606
1.951760867
2.049139975
2.121713596
2.203034928
2.2334066
2.325544996
2.409715303
2.426941136
2.468300146
2.533947454
2.532854683
2.53957888
2.583622831
2.456497524
2.443950896
2.405955163
2.407484762
2.395848915
2.275955903
0.677695205
0.7327897965
0.7966345282
0.8786600925
0.9430243781
1.037841756
1.149593693
1.26186442
1.356194003
1.46827126
1.609988866
1.729293841
1.845081309
1.951393509
2.042863778
2.135891105
2.175902774
2.293600183
2.372304948
2.398936402
2.42011344
2.487969209
2.465952475
2.460339564
2.505908756
2.472167121
2.457045992
2.411098024
2.400657753
2.369356441
0.5850004318
0.6281408084
0.700511326
0.7472778822
0.8244310015
0.9012971529
0.9704085563
1.069981623
1.180250166
1.271613661
1.368168832
1.546463776
1.68034891
1.779139533
1.873417356
1.952349458
2.040043418
2.129402676
2.199539633
2.280873354
2.318679159
2.415974018
2.430059839
2.490539709
2.461858093
2.428916762
2.423493336
2.396777829
2.391328939
2.344270269
0.5334688632
0.5620602484
0.6032663331
0.6714049305
0.728049751
0.7910828561
0.8503312904
0.9275336094
0.9875120815
1.093347352
1.196673966
1.303417406
1.410369002
1.548254354
1.673562696
1.775479526
1.907573638
1.991175426
2.06560279
2.132269861
2.165829837
2.225857531
2.362587645
2.382585622
2.433869314
2.435435256
2.468199467
2.43240082
2.379371714
2.332546567
0.5056001091
0.5264240784
0.5593755923
0.5843353559
0.6237737288
0.6778295981
0.7259974408
0.7790329681
0.8624885086
0.9396997508
1.041152558
1.116662097
1.217251017
1.34461619
1.462398601
1.609666319
1.71831642
1.795421601
1.885505009
1.984766746
2.100127235
2.184569297
2.249985084
2.288584722
2.335456382
2.363322191
2.398943504
2.426057053
2.365671323
2.302636769
0.4860478816
0.4917231973
0.5092013689
0.5369098362
0.5669641816
0.6088128817
0.6586484317
0.7153659078
0.7600626694
0.8156135742
0.8948798262
0.9756187719
1.054502022
1.136553171
1.267412489
1.360462158
1.50682893
1.625718848
1.71227032
1.81791798
1.910358183
2.007396289
2.069120315
2.180800482
2.261490038
2.299343789
2.316515649
2.351897675
2.350975529
0.462209347
0.4705122481
0.4892533442
0.5173697073
0.5331398211
0.5548896286
0.5941340454
0.6196040104
0.6546950207
0.7047360445
0.7571086088
0.8175902787
0.9048845129
1.004183483
1.082321894
1.191845269
1.311901981
1.443766822
1.561505702
1.618793931
1.697108788
1.822385809
1.934858907
2.007150276
2.076717988
0.4609132813
0.4731961281
0.4860341273
0.5000022233
0.5098333868
0.5198314697
0.5354020448
0.5626162152
0.5906359811
0.6264768492
0.6755532285
0.7241640475
0.783716118
0.8659523169
0.9351229983
1.011374627
1.098094866
1.22794685
1.326178278
0.4444375981
0.4470621548
0.4557554189
0.4654461231
0.4788563066
0.4908376441
0.5001132644
0.5188296772
0.5586413594
0.5846841677
0.6254659773
0.667639129
0.7028649404
0.7593776162
0.4371707243
0.4445967687
0.4458812614
0.4514065654
0.4674528905
0.4782828373
0.4919193048
0.5096855448
0.4241536413
)
;

boundaryField
{
    flow
    {
        type            calculated;
        value           nonuniform List<scalar> 
15
(
1.673647326
1.721907515
1.817286358
1.909038892
1.961480732
1.988513434
2.093660183
2.19748997
2.21175371
2.202311343
2.275955903
2.369356441
2.344270269
2.332546567
2.302636769
)
;
    }
    obstacle
    {
        type            calculated;
        value           nonuniform List<scalar> 
30
(
1.182862139e-18
1.137685305e-18
1.157228115e-18
1.170644427e-18
1.154217035e-18
1.146360601e-18
1.175887522e-18
1.132155929e-18
1.266956281e-18
1.108080487e-18
1.132177213e-18
1.159387447e-18
1.05069833e-18
1.133934708e-18
1.171106554e-18
1.083775644e-18
1.074006498e-18
1.029452766e-18
1.072700892e-18
1.018422904e-18
1.062021567e-18
9.492809108e-19
1.071535203e-18
1.145254009e-18
1.012831168e-18
8.977169479e-19
9.258953093e-19
9.384743176e-19
8.162688642e-19
7.08045896e-19
)
;
    }
    frontAndBack
    {
        type            empty;
    }
    procBoundary1to0
    {
        type            processor;
        value           nonuniform List<scalar> 
21
(
2.968211017
2.8393891
2.624802249
2.323326719
2.014698932
1.718928846
1.40543482
1.140648562
0.9612729673
0.784823711
0.7038171463
0.6059327274
0.5542427895
0.5074577488
0.4925973118
0.4749659621
0.4548104685
0.4471335615
0.4384253531
0.4350061905
0.4243160595
)
;
    }
    procBoundary1to3
    {
        type            processor;
        value           nonuniform List<scalar> 
36
(
2.317927089
2.141076419
2.244421089
2.270057257
2.317927089
2.285980888
1.452652104
1.570392652
1.663966124
1.77864255
1.895195852
2.141076419
1.985031107
0.8287493723
0.903505693
0.9884726977
1.04853343
1.452652104
1.165602409
0.5258740884
0.540283229
0.5596743445
0.589305211
0.6274894299
0.8287493723
0.6722517682
0.4286511012
0.4337834508
0.4334710433
0.4447034512
0.4549036617
0.4670653475
0.5258740884
0.4841450568
0.4286511012
0.4210536457
)
;
    }
}


// ************************************************************************* //
