/*--------------------------------*- C++ -*----------------------------------*\
| =========                 |                                                 |
| \\      /  F ield         | OpenFOAM: The Open Source CFD Toolbox           |
|  \\    /   O peration     | Version:  2406                                  |
|   \\  /    A nd           | Website:  www.openfoam.com                      |
|    \\/     M anipulation  |                                                 |
\*---------------------------------------------------------------------------*/
FoamFile
{
    version     2.0;
    format      ascii;
    arch        "LSB;label=32;scalar=64";
    class       volScalarField;
    location    "0.005";
    object      linearKEMean;
}
// * * * * * * * * * * * * * * * * * * * * * * * * * * * * * * * * * * * * * //

dimensions      [1 -1 -2 0 0 0 0];

internalField   nonuniform List<scalar> 
546
(
7.054366908
6.812222024
6.582395141
6.372227094
6.185642497
6.168440366
6.157754677
5.972969343
5.92145531
5.851436744
5.659217538
5.618982217
5.374456847
5.511757135
5.387505964
5.199703427
5.118919753
5.088620688
5.100452524
5.038669308
4.980235692
4.943742379
4.939620299
4.953078746
4.678546851
4.597493487
4.398745311
4.232515873
4.030426406
3.568060308
8.775320325
8.494720388
8.208077843
7.986222556
7.80896782
7.653922714
7.341374852
7.208990399
7.040841196
6.889518451
6.718145553
6.588456398
6.515065773
6.388913881
6.328165849
6.205290093
6.039610325
5.981947042
5.834803369
5.758857912
5.672597142
5.642360201
5.623991096
5.399878465
5.255631409
5.179078415
5.047628573
4.83380785
4.565898514
4.165960862
10.15638606
10.06469137
9.828718117
9.55468845
9.126640091
8.766659163
8.631317412
8.413972494
8.202089088
8.036983176
7.981824567
7.764818204
7.54559149
7.326496737
7.187556141
6.987688222
6.960514494
6.819269988
6.683106345
6.585235798
6.399280564
6.396084023
6.355574014
6.097836322
5.93869621
5.765055824
5.636010862
5.490897807
5.167058628
4.899365543
11.33304452
11.26819431
11.14067726
10.82411612
10.66177729
10.38063455
10.09759788
9.889708981
9.577828394
9.308188367
9.117981255
8.863221736
8.667464529
8.484751577
8.214613769
7.935932677
7.85576753
7.727189649
7.625052964
7.522605285
7.291284091
7.082776772
6.938968801
6.800705829
6.707197154
6.521975945
6.299808033
6.155094229
5.954856956
5.736662478
11.90914972
11.92533718
12.06171132
12.01186504
11.79313236
11.59421441
11.24202043
11.02294527
10.89784571
10.51386797
10.29266573
10.16212777
9.983380029
9.707394745
9.395592821
9.150835906
8.82755882
8.755165207
8.550149603
8.311688622
8.099312079
7.855512482
7.716510015
7.655094933
7.475315286
7.30471658
7.24328555
6.892901291
6.649280949
6.276756801
11.89861247
12.01630724
12.25036795
12.29290424
12.24362637
12.20122998
12.18286143
11.99266459
11.84738913
11.76086245
11.53194096
11.26189272
10.97081825
10.78887963
10.55990385
10.36123728
10.00277729
9.897658018
9.615051928
9.319780811
9.039562208
8.781643808
8.625297545
8.515165761
8.367079146
8.094217463
7.793725624
7.614238449
7.45830927
7.080306477
11.63020625
12.07895932
12.28101751
12.48375453
12.5816196
12.85991083
12.78479946
12.75081474
12.63692155
12.57089669
12.36305503
12.2171711
12.11170198
11.92078159
11.48976728
11.20827994
10.98436319
10.67907365
10.52679466
10.22432052
10.07816391
9.887844455
9.613714197
9.469707998
9.370733277
9.053171787
8.811132025
8.586301062
8.223457304
7.909802014
10.96828072
11.4388414
12.00762628
12.52469755
12.66501686
12.8114092
13.08693877
13.17722171
13.09609477
13.08022025
13.04180526
12.94671162
12.74648921
12.55269581
12.50614752
12.36083409
12.07573379
11.70455632
11.59458538
11.39359045
11.17551199
10.92252826
10.65833565
10.26612073
10.03887542
9.80376219
9.444101341
9.240823073
8.983627933
8.657342527
10.50962926
10.9664225
11.40073278
11.81264273
12.36440497
12.59079625
12.84488351
13.08038342
13.37201586
13.3498806
13.42058131
13.43273666
13.46685735
13.44874627
13.38735166
13.21583218
12.94382616
12.72768908
12.43878233
12.14754802
11.82754295
11.64013679
11.33558591
11.19824823
10.95800063
10.77562731
10.39535272
10.1002256
9.770445085
9.465184203
9.758868762
10.1187706
10.61353967
11.07147916
11.57703809
12.04422015
12.53709307
12.86688881
13.18192151
13.51068446
13.66324549
13.80921226
13.80114254
13.83767795
13.74561059
13.69971185
13.64352312
13.37393905
13.15083428
12.99191848
12.75233621
12.51687861
12.33556936
11.91144028
11.76702265
11.54593327
11.24687287
11.00369043
10.51114401
10.16949065
9.409317062
9.743297254
10.14980361
10.63242601
11.00623448
11.44294278
11.91760506
12.47566827
12.95184997
13.35107744
13.6140975
13.74585374
14.01647996
14.05719569
14.03121603
13.99362906
14.06212216
14.06281479
13.77864114
13.71157077
13.5402138
13.29406476
13.06522696
12.82535793
12.31153933
12.12496867
11.89890614
11.73911802
11.51516605
11.0036975
9.048755338
9.360798836
9.615309268
9.996001906
10.45261563
10.86286706
11.33692343
11.74583864
12.28416228
12.69367306
13.13749051
13.35447671
13.67031388
14.04621724
14.18013325
14.35014438
14.3463401
14.36640657
14.52521983
14.26895207
14.0481814
13.95492489
13.67748016
13.42866398
13.30327912
13.08986924
12.78733141
12.36892013
12.08140862
11.93349625
8.720877396
8.921857758
9.267287057
9.428665169
9.824429479
10.28469224
10.66903382
11.08850647
11.50354074
11.84993504
12.37527918
12.958388
13.40752918
13.70035787
14.03097661
14.24247726
14.31685931
14.43876949
14.47123267
14.6307261
14.63918589
14.66267765
14.44721578
14.32914355
14.1144273
13.74690756
13.44463946
13.15320581
13.04080239
12.68157336
8.376609194
8.578658105
8.788379796
9.116813302
9.437710956
9.699018063
9.963854977
10.35434779
10.76360083
11.26722442
11.74844923
12.24285685
12.64429653
13.09820868
13.40368856
13.86163568
14.26203288
14.52842076
14.69923781
14.86457728
14.78422236
14.74281401
14.94444418
14.79249565
14.63822167
14.4259557
14.44189636
14.11259216
13.63811036
13.33626504
8.409538563
8.530230762
8.682178375
8.722598724
8.913207059
9.156036174
9.439770157
9.783564397
10.13122034
10.58434148
10.9734547
11.29252588
11.88072676
12.56769426
13.16705497
13.68770871
14.06249533
14.35537068
14.56250186
14.72022518
15.0181493
15.26401982
15.26913105
15.240478
15.17279772
15.03578098
14.85402399
14.70709879
14.49371177
14.08921413
8.105460723
8.064380774
8.283289343
8.309911233
8.574953442
8.749077763
9.040902455
9.350395086
9.683875498
9.968493792
10.46005156
11.00770338
11.30565008
11.80576733
12.36177288
12.76945341
13.25831097
13.75066417
14.11106755
14.59876228
14.84363706
14.96005704
15.13531945
15.24642989
15.42969621
15.3619965
15.19761517
15.10854073
14.87703456
8.068833663
8.178347393
8.23218612
8.462603158
8.493978457
8.632617974
8.853652616
9.151493272
9.366801125
9.683734395
9.9457992
10.22191323
10.56433022
11.00035457
11.39065618
11.93353313
12.58788324
13.20244204
13.87986887
14.01306579
14.39667055
14.90943682
15.11204232
15.35589831
15.41350402
8.083656468
8.127151857
8.193758841
8.204505178
8.337297175
8.45998184
8.520561636
8.597911266
8.812361133
9.046583239
9.248447556
9.628696243
10.07006854
10.54679998
10.93734309
11.37551613
11.81814502
12.35190125
12.75765449
7.914274668
7.936183681
8.034432647
8.065822408
8.106769964
8.124607333
8.258223372
8.363920625
8.612412696
8.712753856
9.136801529
9.312726734
9.519387893
9.815101975
7.933704922
7.953788333
7.964320488
8.000987376
8.103435873
8.137335915
8.206849623
8.358763525
7.840947212
)
;

boundaryField
{
    flow
    {
        type            calculated;
        value           nonuniform List<scalar> 
15
(
3.568060308
4.165960862
4.899365543
5.736662478
6.276756801
7.080306477
7.909802014
8.657342527
9.465184203
10.16949065
11.0036975
11.93349625
12.68157336
13.33626504
14.08921413
)
;
    }
    obstacle
    {
        type            calculated;
        value           nonuniform List<scalar> 
30
(
2.347401915e-18
2.37721523e-18
2.334964768e-18
2.314047863e-18
2.12966469e-18
2.148144375e-18
2.247675155e-18
2.097515149e-18
2.168977953e-18
2.031261877e-18
2.110870474e-18
2.068045881e-18
1.941344358e-18
2.088566954e-18
1.996199944e-18
1.908474521e-18
1.897092658e-18
1.836273315e-18
1.872040091e-18
2.005358622e-18
1.833645415e-18
1.767324635e-18
1.850854982e-18
1.939810989e-18
1.782137685e-18
1.720451504e-18
1.691862213e-18
1.685641496e-18
1.472487557e-18
1.408113813e-18
)
;
    }
    frontAndBack
    {
        type            empty;
    }
    procBoundary1to0
    {
        type            processor;
        value           nonuniform List<scalar> 
21
(
7.287147606
9.137319397
10.46927222
11.48241179
11.79244017
11.57173527
11.21963086
10.42260896
9.991661382
9.455083126
9.128180045
8.775486849
8.601837886
8.301158605
8.287981344
8.074255634
8.036963007
7.994133692
7.948189587
7.889711887
7.853611999
)
;
    }
    procBoundary1to3
    {
        type            processor;
        value           nonuniform List<scalar> 
36
(
14.64079885
15.54428213
15.71532603
15.42902766
14.64079885
15.34575047
13.4191217
13.9812797
14.36638083
14.83066325
15.23937674
15.54428213
15.40076029
10.24418051
10.77247365
11.18958931
11.56785212
13.4191217
12.0822952
8.467389268
8.627834649
8.718881502
8.968706735
9.240122484
10.24418051
9.492309466
7.942866827
7.929538345
7.901823843
8.046766195
8.182065694
8.22651366
8.467389268
8.356722337
7.942866827
7.92769027
)
;
    }
}


// ************************************************************************* //
