/*--------------------------------*- C++ -*----------------------------------*\
| =========                 |                                                 |
| \\      /  F ield         | OpenFOAM: The Open Source CFD Toolbox           |
|  \\    /   O peration     | Version:  2406                                  |
|   \\  /    A nd           | Website:  www.openfoam.com                      |
|    \\/     M anipulation  |                                                 |
\*---------------------------------------------------------------------------*/
FoamFile
{
    version     2.0;
    format      ascii;
    arch        "LSB;label=32;scalar=64";
    class       volScalarField;
    location    "0.005";
    object      linearKE;
}
// * * * * * * * * * * * * * * * * * * * * * * * * * * * * * * * * * * * * * //

dimensions      [1 -1 -2 0 0 0 0];

internalField   nonuniform List<scalar> 
546
(
6.466853989
4.786105603
7.656590065
6.396054935
5.414554382
8.015634262
5.907954546
5.27800825
10.96106899
5.879541116
4.847016082
4.840897377
7.592059251
5.389955164
4.667186358
2.850975009
4.471009876
5.359861362
2.784651279
4.742890559
3.993009929
6.371626735
4.682224059
1.930038894
3.60558423
6.042075595
4.509527607
2.381237107
3.295873366
4.571140621
10.28626118
7.777915994
11.9390182
5.271286873
6.960467667
10.13878527
10.25838579
6.891246449
10.57350083
5.443335815
5.845264659
12.64670815
9.599877222
9.5097515
7.268612695
5.993047664
4.003091467
4.960422314
7.270487702
8.879537664
4.500117459
3.923024995
7.209341712
4.448301818
5.321434857
4.309911009
3.603205642
4.914599216
2.940344203
3.307053021
12.39657566
9.691991838
12.33049555
12.04739675
13.12025936
9.198103713
13.17288001
6.804185248
10.07032362
5.593229198
6.355647547
6.948888823
6.423686643
8.154677281
5.398458035
8.10028248
9.700612461
5.191768227
5.056198697
5.933595346
5.076170035
7.129589757
3.258574359
2.963376789
5.826232127
2.727728362
4.946860449
6.705562079
3.579100343
7.646309259
12.58740887
5.172265566
7.510481678
5.486828435
13.25802261
7.05259626
6.21499883
12.7579717
6.980598046
9.5714671
8.434766911
6.814616873
8.058763015
6.892307796
8.987445568
9.278313848
8.354153956
10.48088973
8.260287685
5.910913832
3.765183705
4.339174035
4.293827776
4.627784222
5.316846231
4.561739531
4.525027664
2.840182742
4.075093162
4.327412453
10.46250629
7.39412858
14.80187891
9.055995651
8.569748096
11.47139805
10.95657916
9.178681228
11.3646278
10.04871174
19.37210856
7.05117632
15.5302
13.76163565
11.66177509
15.58038858
11.78865512
5.270781424
8.906104388
3.672021604
9.472197607
11.08220346
5.634346923
5.164170137
7.132666546
8.818950392
4.098757605
8.148760462
7.715805886
5.362463489
6.119843288
10.76130365
11.83703506
15.1674254
9.508848823
8.916118142
13.43386784
11.14217971
11.10598106
9.007456997
9.631116912
7.735306317
15.65535266
5.499814462
11.14087852
9.41900216
9.281955533
10.77661993
12.15091216
11.95539088
8.415266651
7.748896978
11.13054319
11.72099541
15.98288528
6.184774326
5.200652906
7.583720526
3.209284841
4.781541878
10.22703516
17.36884345
8.5044134
10.78209535
14.27918171
10.09766249
12.54772006
14.16117063
15.8275762
13.91216521
11.18065232
7.605292824
4.376508767
7.666253026
10.78080115
15.80794005
10.91470151
17.54211303
7.046296476
9.251698136
9.98114851
10.9711737
10.13569572
7.767157236
8.245175313
16.2901588
8.799438587
6.485251883
7.019508941
7.402185425
8.874322264
11.96956085
15.7120338
18.76863334
9.356034389
14.73676738
13.87946982
12.31598388
15.0831345
9.928991794
12.25479338
16.45205124
13.12993855
7.811394513
15.89366342
16.0057636
8.712473567
12.24047463
8.349195602
15.96528604
14.26880677
8.797131656
8.238435501
8.809250153
4.716616973
11.94407983
7.409243422
12.63994747
5.060432514
11.47126066
15.84072833
7.687420574
10.9991121
9.336595636
13.67764619
16.05674018
16.777454
12.78320275
10.38077824
17.19975843
11.57569552
14.0730863
16.72354247
16.16605796
12.38738351
13.75910027
18.19406038
15.59716619
21.36347032
11.79695871
12.1260414
5.524847904
11.07396789
7.989197582
8.954772241
8.577076658
7.201259516
9.671619423
9.046828888
11.46981747
15.32578382
7.533562146
14.4575117
13.20157322
11.53039471
12.00312532
8.598874378
9.42878924
14.21779541
8.91296293
10.53219811
12.84714282
11.2868863
17.44011909
9.645598068
12.31444609
12.33111118
10.78083214
10.98098707
11.06137297
11.28368226
19.24258374
7.817883824
9.944747653
8.661093121
18.80509853
10.51071766
12.8615214
8.932493832
9.719821176
6.267906041
13.68251871
10.49126498
16.24280957
13.34549863
9.485235821
8.041831583
10.65832009
15.12478901
15.02417499
18.49637648
13.76908318
25.01807688
16.77787963
14.88524874
12.26076223
13.01242705
16.07248678
11.91614066
12.2267428
12.54725331
11.04866166
9.194823985
13.13527531
12.76797341
9.305717517
20.38349939
11.89120672
10.2911534
10.39844461
4.185310721
6.222572316
9.720459346
11.04191894
10.39997337
7.455567854
15.74530467
8.56214364
8.971875636
12.97154005
15.16777462
15.33318896
19.21366299
10.10477994
13.6259259
9.376119197
20.09720078
14.97818598
14.40738924
13.95867785
17.54227224
14.04928057
11.4578242
12.69763568
17.26835207
14.99005014
7.7958135
9.296903432
12.31660147
10.21699524
9.073941873
6.76846347
7.084925412
15.19217992
8.177813678
6.295892767
4.636251287
11.5016424
10.99139686
6.477555322
12.9994502
9.132173781
22.01729206
22.81351616
18.33208121
20.1671589
15.58942709
12.76165164
16.96532627
17.37741499
15.56737045
8.458754406
20.78644865
8.664102621
13.20091185
16.25233237
12.00376583
5.072037379
17.92487287
13.35293089
14.1895987
14.40964028
14.94947639
16.84042614
12.78628775
13.73805152
11.1883615
6.676698705
18.89854576
9.260802494
13.75732062
10.12810847
10.42838627
8.951853575
22.39634234
13.01141163
11.51027604
13.5145214
14.89765946
21.18148212
13.24479754
19.26483499
19.84053441
28.11737612
12.30572506
17.9563243
12.7911841
14.03224172
17.64345731
9.472132685
7.224011676
4.540999632
6.424235994
5.873574891
8.875446088
8.197234182
8.413631824
7.055835237
8.233330714
6.446159747
9.558354638
13.29119724
15.70118632
16.91266756
18.04676387
17.10010596
18.174498
11.73707077
21.00502348
14.7582376
9.801738373
16.4320036
14.83078956
13.86704705
16.30344319
13.8347926
13.66596433
9.90898635
14.75380919
12.71562776
7.414264842
5.455232805
11.2734943
3.962718721
7.308735826
16.4481376
4.862040975
8.74805654
3.564813124
9.390011183
10.34525166
10.56070065
7.917100497
12.31370338
11.45072561
9.600982757
15.94711367
13.66569851
7.532549303
11.90193129
14.57339251
21.00020179
17.34864044
11.17364005
17.12271859
18.7269676
16.7046071
11.29290069
14.90127634
5.657726763
7.591559402
9.882494078
8.432375639
10.36044668
12.91296811
9.57440025
10.17725982
6.459179479
10.64425858
4.893905639
10.47216396
13.81384993
6.887441792
7.174197599
9.412318089
5.8230005
14.16672156
4.026233237
12.92806965
14.45185567
11.61350559
14.87956029
14.76923256
19.11403177
12.82335524
5.316895101
9.320148671
8.613671043
11.31962954
9.102961437
12.96207906
8.431066384
7.96381406
6.158713123
3.446628034
6.771132905
12.61921179
4.732762067
14.06191189
16.9425357
9.991265683
10.47235318
8.807722521
7.76343599
7.563227359
7.05801218
12.25518494
12.41889658
7.71067594
6.017598969
4.254382452
9.978083203
8.395804208
8.730817828
12.66651114
9.483356449
16.13712233
14.62025162
6.465179119
8.088085356
4.423544321
9.011851734
10.6958175
12.84019293
7.377359983
5.49058682
)
;

boundaryField
{
    flow
    {
        type            zeroGradient;
    }
    obstacle
    {
        type            calculated;
        value           nonuniform List<scalar> 
30
(
8.824885721e-19
0
3.744104798e-18
5.73743587e-18
9.569673003e-18
1.432305849e-18
1.877394856e-18
6.252540459e-18
2.80153505e-18
0
8.388972731e-19
1.012595549e-18
0
4.890599132e-18
3.939024827e-18
0
2.302992015e-18
0
6.722176103e-19
1.162286564e-18
0
2.195179034e-18
4.557759652e-18
2.283399624e-18
1.732469611e-18
4.00438234e-18
9.081520344e-18
5.718698421e-19
0
3.8710091e-18
)
;
    }
    frontAndBack
    {
        type            empty;
    }
    procBoundary1to0
    {
        type            processor;
        value           nonuniform List<scalar> 
21
(
6.071314613
9.78508349
8.836943558
9.925990443
5.486623154
7.591197143
10.55229694
14.89348821
8.794886076
6.71358424
8.232864651
7.508795865
8.966660648
13.80756221
4.920402003
7.692876904
7.690928363
8.934804438
6.858686227
4.215879834
8.365781347
)
;
    }
    procBoundary1to3
    {
        type            processor;
        value           nonuniform List<scalar> 
36
(
8.311092004
12.04736517
16.69971498
15.44526798
8.311092004
20.80154902
11.92963236
11.19390975
6.372168885
16.54321298
15.39405782
12.04736517
17.29598102
4.597009836
10.94396242
14.96809732
13.98228503
11.92963236
10.00405708
7.773873127
6.074525614
8.673650173
6.712563381
4.926529297
4.597009836
8.739441837
10.53159246
10.82593706
3.759305406
7.969303326
4.116053393
7.49506626
7.773873127
7.193166387
10.53159246
5.133576883
)
;
    }
}


// ************************************************************************* //
