/*--------------------------------*- C++ -*----------------------------------*\
| =========                 |                                                 |
| \\      /  F ield         | OpenFOAM: The Open Source CFD Toolbox           |
|  \\    /   O peration     | Version:  2406                                  |
|   \\  /    A nd           | Website:  www.openfoam.com                      |
|    \\/     M anipulation  |                                                 |
\*---------------------------------------------------------------------------*/
FoamFile
{
    version     2.0;
    format      ascii;
    arch        "LSB;label=32;scalar=64";
    class       volVectorField;
    location    "0.005";
    object      momentum;
}
// * * * * * * * * * * * * * * * * * * * * * * * * * * * * * * * * * * * * * //

dimensions      [1 -2 -1 0 0 0 0];

internalField   nonuniform List<vector> 
546
(
(0.006645320712 0.002362444798 0.0006767777211)
(0.005429147643 -6.843168278e-05 -0.001371882814)
(0.004280805766 0.002721850067 -2.599138379e-05)
(0.003954741913 0.004170635782 0.0001485283709)
(0.0005484319004 0.001429750164 -9.38817837e-05)
(0.004091870363 0.002475499276 -0.0003415698327)
(0.003163132462 0.001606723386 -0.0007808515291)
(0.002429858276 0.001632189454 0.002158222775)
(0.008749259899 0.0009855555785 0.002081603814)
(0.005082255673 0.0007044975227 8.785920174e-05)
(0.002449122425 9.500543289e-05 -0.0003265376495)
(0.002699978343 0.002036472699 0.0003404925716)
(0.006954356341 -9.795339768e-05 -0.0004232589067)
(0.0005218285731 0.001263821967 -0.0001661018468)
(0.001777342584 -0.000406846764 -0.0006495933452)
(0.002346829966 0.0009109614332 -0.0004612165849)
(0.002808822095 0.001504660895 0.0004452649674)
(0.003119073515 0.0006417719603 0.0009629060973)
(0.001844004115 0.0021581354 -0.0008146036904)
(0.002353959353 0.00352153708 0.0002426463094)
(0.002545449646 0.001679806618 0.00137853696)
(0.004118191849 0.0003823790713 0.0004927303505)
(0.003670474018 -0.001054350289 0.000627705814)
(5.48200017e-05 0.001784542437 0.0004228418878)
(0.00234821313 0.001108021097 -0.002135141752)
(0.003548747623 0.001049007047 0.0008802738963)
(0.002158540343 -0.0005978553232 -0.0001783196104)
(0.002205165137 0.0004954959776 0.001170793179)
(0.003509788081 -0.0004519282893 -0.0002573325648)
(0.002748223588 0.001369855892 9.261721637e-05)
(0.01006417752 0.003003928254 -0.0007979799035)
(0.006841971282 0.001998729607 -0.001613993045)
(0.01070994972 0.004266411515 0.001826072815)
(0.005456755268 0.001803911948 0.0006920832759)
(0.00599621296 0.003460358542 -0.001516753672)
(0.01106135869 0.001381025331 0.0001694226153)
(0.009574867444 0.003436906457 -0.001216884815)
(0.009250836123 0.001829742428 -0.001799278927)
(0.01058451317 0.005331316263 0.0009161562108)
(0.005979617161 0.001021163882 -0.0002181692329)
(0.004085356141 0.0002289365348 -0.001580567962)
(0.01007836458 0.003799540244 0.002673142101)
(0.009207265963 0.003162665788 -0.001967061449)
(0.01025690793 0.00148439115 -0.001051204102)
(0.007467510642 0.001309104737 0.0002712680899)
(0.005665051425 -0.0003629463695 0.0005653698779)
(0.003927714655 0.0001820191859 0.0004564027651)
(0.004690171429 0.0008811184179 0.001788232784)
(0.007415994105 0.001651942834 -0.0006901321785)
(0.0103154939 -0.001560167732 -0.0001232538791)
(0.002666530607 0.002404483451 0.0005810929686)
(0.0026454498 0.001590178585 -0.0005774974661)
(0.006729944517 -0.0006043901571 -0.002352582686)
(0.004035816228 0.000618760544 0.000583404962)
(0.006432226261 0.00124755948 -0.001654216362)
(0.00361867099 -1.407431983e-05 0.0005597413967)
(0.003478747483 0.0005146434524 -0.0002038503744)
(0.003147571382 0.002508506049 -0.001739774223)
(0.002533965252 0.001304152484 -0.0009096798477)
(0.003164394515 0.001829991552 0.002321898418)
(0.01139135377 0.005323873555 -0.0006357724356)
(0.009155802808 0.00395252133 -0.0002859681708)
(0.01182375971 0.001744232297 -0.001437311329)
(0.01341926446 0.004086195409 -0.0002010181665)
(0.01218370579 0.001772058856 -0.002249045537)
(0.009232958945 0.001118251965 0.0007764296266)
(0.01284628726 0.001745919657 -0.0003781714875)
(0.007095245425 0.001688663118 -0.001863933794)
(0.01240599769 0.002522269542 0.001270714479)
(0.004926001309 0.002653841469 0.0001824883874)
(0.006502710049 0.002558222162 0.0003583990612)
(0.006424314243 0.003576163945 -0.001223442112)
(0.00592195374 0.00205450617 0.001743929911)
(0.008981491757 0.003836058287 0.0008006272382)
(0.00617714346 0.002451138379 0.00227346883)
(0.009468676468 0.002033826333 -0.0008048075476)
(0.01005205988 0.00302108728 -0.001845193426)
(0.005444587896 0.0003976998331 -0.0003006650431)
(0.003552468636 -0.0007771086407 0.0008235028926)
(0.006102769791 0.001866732869 0.0005885042972)
(0.006563997652 0.001388602392 0.001740386253)
(0.006717117396 0.00277162824 0.001327273869)
(0.00280941933 -0.0006498559928 0.00147497249)
(0.004163607149 0.0001601232974 -0.001680563962)
(0.00412343637 0.003306681085 -0.001549266455)
(0.003311171411 0.0009686324788 -8.316380351e-05)
(0.005312713348 0.0004753809214 -0.001067844622)
(0.007943715065 0.00279881143 -0.0006026553304)
(0.00299815112 0.002291226867 -2.136398224e-05)
(0.008677141706 0.002398720478 -0.0008732724783)
(0.01265214925 0.00342986791 -0.001291919116)
(0.005040612973 0.003104329542 0.0007551061407)
(0.008008153323 0.001903340118 -0.0005860934683)
(0.006049158009 0.003628304085 -0.00275591039)
(0.01226445924 0.004226144144 5.604957126e-06)
(0.008420479996 0.003256680377 0.0005329502948)
(0.006261057057 0.003783689289 0.0004663327971)
(0.01418852349 0.002493054705 -0.001045440113)
(0.008773641379 0.003067017029 0.00072418766)
(0.009732231419 0.00446064112 -0.0002924777414)
(0.007855662506 0.004159108739 0.002229241334)
(0.007452712269 0.001471780429 0.001491798773)
(0.00710041233 -0.0005653943374 0.0005571176294)
(0.008008167187 0.001332673777 0.00139745823)
(0.009956246318 0.003843667551 -0.001437618497)
(0.009297106219 0.002685362036 0.00109496446)
(0.008107394847 0.001247294662 0.001563303337)
(0.01179268569 0.002296134288 -0.0008753899385)
(0.008770950469 0.002985349373 0.002239027521)
(0.006676977067 0.003119095333 -0.0001390173977)
(0.002868539747 0.0002790660806 0.002154891773)
(0.004391853904 0.002210087917 0.001600653961)
(0.005136599657 0.001274480836 0.001136682672)
(0.004621036841 0.001903629091 -0.0002750036317)
(0.00351772805 0.002306015872 0.001628282485)
(0.003610371628 0.002091470652 -0.001178749466)
(0.00504970049 0.003254253252 0.002036197074)
(0.003702245705 0.001428638996 0.0006542713571)
(0.005088289174 0.002821231379 -0.0003401692584)
(0.005420265886 0.001829038258 0.0007748725354)
(0.01075375217 0.003193759313 0.0006559391388)
(0.008121448053 0.002894048308 -0.0002740108239)
(0.01680601119 0.005365454467 -0.000243760953)
(0.009107351811 0.002633838686 0.0009148888214)
(0.009355954939 0.0041944249 -0.0004513398597)
(0.01184129929 0.005203466764 0.001547664403)
(0.01087782577 0.00463251201 0.001838132458)
(0.00922721928 0.002782020779 -0.0005951479395)
(0.01296061802 0.004748813916 0.002136388504)
(0.01095485789 0.0009560780998 0.001155970179)
(0.01907484942 0.01062597715 -0.0009954273667)
(0.008020452961 0.002129179534 7.588354719e-05)
(0.01606206628 0.00322727797 0.0008461513018)
(0.01429093017 0.0005852717456 -0.001920391645)
(0.0145623837 0.001345794123 -0.0007359400688)
(0.01556528346 0.004149412475 -0.001855604555)
(0.0126248842 0.004385283955 0.001757935925)
(0.006649417491 0.002757499073 -0.000269594103)
(0.00951968572 0.002133719058 -0.0004961084408)
(0.003850080231 0.002572024012 -0.0008307247884)
(0.008194402971 0.004973259711 -0.0001850216381)
(0.01189117362 0.0009290069476 0.00100222922)
(0.006707527537 0.00118919674 0.0006877693879)
(0.006111054346 0.0001498047347 0.0001935642366)
(0.008113247501 0.001753919845 -0.0003709667673)
(0.01020402696 0.002060737905 -0.002055031969)
(0.004739581315 0.000174870247 0.001133111024)
(0.008916710421 0.002411001098 0.0003636272444)
(0.008861695308 0.001789774446 -0.002111021106)
(0.007107661602 0.001659347075 0.0009906612467)
(0.007255586667 0.003655826781 -0.0001006241962)
(0.01153634552 0.002319377189 -4.471079679e-05)
(0.01242801118 0.00394525647 0.001673945417)
(0.01409427813 0.006112460359 -0.001251980883)
(0.009938538273 0.003691813382 -2.346963519e-05)
(0.006690535756 0.004937703498 -0.0001767761407)
(0.01150357723 0.004596117823 0.0005328568895)
(0.01169976016 0.004725882857 0.0009805746321)
(0.01164468178 0.002105019477 -0.0006724811514)
(0.009478862632 0.004304318744 0.00137540195)
(0.007869739099 0.00502822942 0.0005252831116)
(0.007936152556 0.001592162035 -0.001019476584)
(0.01592280896 0.00692623321 2.513484425e-05)
(0.007189150016 0.004327417214 -0.000749876709)
(0.01125282904 0.001630877191 -0.001323871114)
(0.01193827816 0.001245384351 0.00304227415)
(0.009234564131 0.004510748702 -0.001922493207)
(0.01152219809 0.004523611556 -0.00146924703)
(0.01351296762 0.003777469913 -0.0003835425537)
(0.01139948309 0.002896864202 0.002446418045)
(0.008953551111 0.003444322229 0.0004278600708)
(0.008976720489 0.002021608777 0.0001033161723)
(0.0130184676 0.001874713755 0.0006957779294)
(0.01169389572 0.004334179078 -0.001304786136)
(0.01318106344 0.006379298221 0.0008307724028)
(0.00557334253 0.002007039608 -0.002378077719)
(0.005388857228 0.001775508675 -0.001477532154)
(0.006975751859 0.002233788331 0.001816813105)
(0.003225328488 0.001809212463 0.0002187636271)
(0.006244910575 -0.0001355057487 -0.0001800539101)
(0.01086291632 0.0008763051679 0.0004532665549)
(0.01696595205 0.002939852922 0.001892414005)
(0.01067915844 0.002120031589 0.000942943952)
(0.0116337207 0.002536656516 -0.001817635586)
(0.01470481177 0.004070847896 -0.001501033408)
(0.01018775459 0.003040815827 -0.002399081326)
(0.01374859174 0.005239440574 -0.0001656759683)
(0.01313915103 0.0044299011 -0.001849206735)
(0.01481828228 0.006058574456 -0.000535005552)
(0.01338883331 0.007299678308 3.777181904e-05)
(0.01275972693 0.004387035336 -5.123757822e-05)
(0.008100289079 0.002557053138 0.0001445657877)
(0.004778548124 0.001024006234 0.002240357447)
(0.01002440825 0.003618854888 0.0002704613067)
(0.01125060723 0.003467024619 -0.0007490672282)
(0.01651168287 0.00559405409 0.002234427323)
(0.01267667673 0.002898790514 -0.0004931246444)
(0.01559772982 0.004967621762 -0.0008399151078)
(0.009198971528 0.003310028318 0.0009370766778)
(0.01225595314 0.002431167964 -0.0007507108081)
(0.01157419059 0.002684629489 0.000666286132)
(0.01273255212 0.004129770794 -0.003190169638)
(0.01030905918 0.002703554369 -0.0002181958979)
(0.009863259403 0.001381612758 0.0006732375084)
(0.0108006535 0.002103275069 0.0006526890889)
(0.01728843792 0.001252468308 -0.001362512392)
(0.01116244113 0.001809219486 -0.0008646548125)
(0.007441550377 0.004169614335 -0.001557941472)
(0.008416581187 0.001596118874 0.0004509677988)
(0.009249186312 0.001540260568 -0.0004901038461)
(0.009096606639 0.003184467095 1.24834737e-05)
(0.01329223244 0.002458242805 0.0003736757648)
(0.01613706468 0.005480821922 0.0008832506479)
(0.0175029302 0.00562838193 0.001204464693)
(0.008149293863 0.003154204492 -0.001270431741)
(0.01617581909 0.004388227257 -0.00085414967)
(0.01414866067 0.005070588226 0.0003435010351)
(0.01092268548 0.007609176193 0.001384957408)
(0.01482377682 0.005029729399 -0.0008716690367)
(0.009238240535 0.002524950232 -0.000321217869)
(0.01352848271 0.00313406505 0.0005975858246)
(0.01650783209 0.005881647621 0.001600449946)
(0.01556977439 0.004469577937 -0.0006996408656)
(0.007571889366 0.004086760134 0.0003677956517)
(0.0146522059 0.005622834016 0.001380410574)
(0.0181073586 0.006475011222 0.002015237229)
(0.01017586749 0.002446028281 -0.0009896703092)
(0.01209503226 0.004602539863 -0.0005355478794)
(0.01040401748 0.002273522939 -0.001481253046)
(0.0154870437 0.003829458002 -0.0002231968761)
(0.0136215039 0.006677569817 -0.002510240362)
(0.009175386012 0.003922758845 0.000223028008)
(0.008425393578 0.001320089427 -0.0005678980082)
(0.01002275997 0.004073130373 0.0001816768426)
(0.005098335726 0.000557180674 -0.0002714271986)
(0.0138905004 0.004379487758 -0.001020297905)
(0.008165784859 0.001082487288 -0.0006812878947)
(0.01376998903 0.003203288549 -0.000322002712)
(0.00455010752 0.002245614251 0.0003340661252)
(0.01290674195 0.000459092836 1.259358407e-05)
(0.0168671869 0.001437542474 2.978064445e-05)
(0.008458465461 0.0004789394722 -0.001144485947)
(0.01161746599 0.001286658685 0.0005370777456)
(0.008110276711 0.003882010232 -0.001836657928)
(0.01360890419 0.004767415897 0.001377159992)
(0.01574328883 0.004337643866 0.00173432489)
(0.01402224164 0.005735830019 -0.0001204223818)
(0.01303176851 0.005868172087 -0.0003246279711)
(0.01014665751 0.00406486319 -0.000378847581)
(0.01521293974 0.007805544178 0.002605324579)
(0.01280212769 0.00395744595 -0.0003547179909)
(0.01595498059 0.004554098342 0.0002650544977)
(0.01756068558 0.005825627595 -0.001612593899)
(0.01674332256 0.006328104024 -0.001803755698)
(0.01370681618 0.004284135744 0.001092648912)
(0.01330608326 0.003671371355 -0.001702778314)
(0.01710522383 0.005559403817 -0.000986731116)
(0.01549748843 0.005791301969 -0.0005690510225)
(0.02084407151 0.008083001786 -0.001375839361)
(0.01404303862 0.004412198531 0.001455860175)
(0.01098977739 0.002812188688 -0.00114158428)
(0.006153797759 0.001850341752 0.000777268928)
(0.01292610712 0.003646160836 -0.0001792036483)
(0.009194329131 0.0038450737 -0.0004639540828)
(0.009866309933 0.002692848448 -0.0005401786517)
(0.008850628597 0.003030812804 -0.00124944954)
(0.00990243443 0.002622738847 0.0004781739947)
(0.01133548559 0.002285339808 -0.001959277562)
(0.009751472455 0.004156517861 0.0006350268144)
(0.01160668033 0.005452979793 0.002220559211)
(0.01540463832 0.00324578608 0.001187791173)
(0.008058849218 0.001887650797 0.0006952411693)
(0.01548296035 0.002742686046 0.0006460387923)
(0.01431003565 0.0003579241794 0.000169333999)
(0.01255390208 0.00250420994 0.0002965305021)
(0.01290679309 0.003582076632 -0.0004594366578)
(0.00973611533 0.002182810887 -0.0003303215929)
(0.009553079439 0.0007416281223 0.001733930784)
(0.01588438794 0.002492237027 0.0005412141458)
(0.0100505743 0.002127431368 -0.0004716977536)
(0.01070440013 0.004379581195 0.002678507124)
(0.01552489366 0.002807072572 -0.001740436344)
(0.01104095931 0.003738826841 0.000517514766)
(0.0167955999 0.007178715314 0.001232880028)
(0.0112638122 0.002547696752 0.0008438973582)
(0.01463761363 0.005963187066 0.001590866886)
(0.01315529227 0.004762682083 8.966721225e-05)
(0.01016559289 0.003826107217 -0.0004129032617)
(0.01127892285 0.003975599906 6.315338204e-05)
(0.01172734111 0.00429214604 -0.0002614799924)
(0.01147936453 0.005683330627 -0.0004642720393)
(0.0186341193 0.007491451084 0.0007988036972)
(0.009817984745 0.003115687384 3.349378851e-05)
(0.01060938279 0.001625853058 0.0004419606433)
(0.0107384385 0.0003211607262 -0.0009529231807)
(0.01757272219 0.006731442395 -0.001771588268)
(0.00934239321 0.00332133153 -0.0004640065388)
(0.01435274085 0.004763296085 0.0005547620229)
(0.01022857544 0.003815347548 0.001162581325)
(0.01113686376 0.00300815603 -0.001745779408)
(0.006111367898 0.001643746003 0.001326027451)
(0.01352421704 0.003894439352 0.0007692870846)
(0.01114180197 0.002139768796 -0.000228957196)
(0.01512779956 0.002776185439 0.0007237948149)
(0.01303313108 0.0007924204764 0.0005340323617)
(0.01005731364 0.002877746946 0.001132939381)
(0.008214881776 0.001788730937 0.0001741398392)
(0.01050565502 0.002808202326 0.0007781834679)
(0.01535558656 0.005148232237 0.001277820395)
(0.01348549059 0.005141896325 -0.0006983874029)
(0.01811479754 0.007068931198 0.002388352187)
(0.01300344894 0.003656099091 -0.0008188231571)
(0.02240123505 0.008882679089 0.0006231683033)
(0.01479577297 0.007200268873 0.00239387522)
(0.0146489676 0.002133656617 -0.0006501655507)
(0.01227868973 0.004599246701 -0.0002704665576)
(0.01444535472 0.004359942683 0.0005494814548)
(0.01636304012 0.003859704881 0.001651281124)
(0.01309749727 0.005250588331 -0.001597860869)
(0.01384754889 0.003139148854 0.001704320012)
(0.01248930653 0.003011475742 -0.001271746699)
(0.01167288329 0.004099312529 0.001938861577)
(0.01073356843 0.003366617161 -0.001856653264)
(0.01422342719 0.004967079184 0.0006687416054)
(0.01414649039 0.004229759839 -0.001346262773)
(0.01006602432 0.002333663422 5.855009874e-05)
(0.01856132351 0.001982312127 0.002555761655)
(0.01323227594 0.002866632501 0.000486346635)
(0.01203854761 0.001416506915 0.001518021475)
(0.01100875091 0.003432031916 -0.0002870789906)
(0.004837730244 0.0004212152815 -4.78521416e-05)
(0.006532946727 0.0002011807653 0.0002236776325)
(0.01014621485 0.001616419729 -0.0005634193039)
(0.01187393865 0.0005324108899 -7.702646803e-05)
(0.009893139279 0.002981020884 0.0001978250157)
(0.007304199482 0.001145362502 -0.00155751528)
(0.01566461554 0.00452575862 -0.0005314389195)
(0.00932571502 0.001389277471 -0.0007100725547)
(0.01062425344 0.003462259316 0.0005933172999)
(0.01209829162 0.004673014323 -0.00101677573)
(0.01593500332 0.004787386044 -0.0008586526106)
(0.01551888296 0.003968115839 7.493850327e-06)
(0.01776501342 0.006087443803 8.960424253e-05)
(0.01067481905 0.004093239864 -0.0007714423184)
(0.01403866306 0.005789749945 0.0003208739307)
(0.01070769516 0.003385022091 -0.00160282841)
(0.0206659497 0.007949858105 -0.001118680668)
(0.01488702038 0.006781462612 0.001104630941)
(0.01495651256 0.002986146502 -0.001216888034)
(0.01440055149 0.004505356836 -0.001027501872)
(0.0185949305 0.007732610404 -0.001034580396)
(0.01411673022 0.006863847074 -0.002048771272)
(0.01103892226 0.004100862727 0.0009967334462)
(0.01455163025 0.003644830749 -0.0006928142312)
(0.01637262447 0.00548708269 -0.0006419929366)
(0.01490198743 0.004902784581 -0.0001800136664)
(0.008903390373 0.003370749018 0.0004249599662)
(0.009934038287 0.004192338382 -0.0001631034532)
(0.01338343812 0.003638995483 -0.0002896465688)
(0.011634447 0.004741413046 0.0002690443833)
(0.009931514347 0.000881669344 0.000101529824)
(0.007926833717 0.001048145748 0.0003240767115)
(0.008106856807 0.0005622908299 0.0002647005986)
(0.01503644458 0.001127164795 -0.000875747479)
(0.008179839209 0.002585659097 0.0005879104115)
(0.006737830299 0.0005574070036 -0.0005093132024)
(0.004909567351 0.0001070872518 -0.0008955931976)
(0.01260743007 0.003096089869 0.0007566728235)
(0.01110646155 0.002972761267 -0.001292870631)
(0.007598827248 0.0004887396297 0.0006491873927)
(0.01432773809 0.00100579449 -0.001386770566)
(0.009626104112 0.001586247391 0.001578838233)
(0.02209705393 0.005861670988 0.001217111664)
(0.02196828506 0.006473348678 0.0007498970535)
(0.0175790282 0.00671302319 0.003688272604)
(0.01804309661 0.006917024318 0.0003625364879)
(0.01639217581 0.004894154185 5.395179517e-05)
(0.01298443498 0.005745592656 0.001612877667)
(0.01705527541 0.004583266785 0.001100028198)
(0.01477421428 0.007695720209 0.001128373359)
(0.01731536052 0.00459881627 -0.001055664757)
(0.008925450252 0.003325919067 0.0002801076695)
(0.02342687825 0.006094016074 -0.0001601179282)
(0.00824083881 0.00357161147 0.001106404093)
(0.01337310173 0.006301866148 -8.871615168e-05)
(0.0188776351 0.004881796121 -0.001405836697)
(0.01304941055 0.004833259484 0.002151572181)
(0.006772884595 0.00234009698 3.780032117e-06)
(0.02075690944 0.004852127927 0.001494740169)
(0.01330474426 0.002016160361 0.003376405968)
(0.01405571195 0.00143943387 0.0006374368644)
(0.01471747701 0.0003174134254 0.001079317919)
(0.0148570174 0.002026684194 -0.002235799725)
(0.01590437928 0.002291791852 0.001266106912)
(0.01346765494 0.0005955524528 -0.0007354106397)
(0.01338324988 0.0006819522122 0.0002766584943)
(0.01131505922 3.072112004e-05 0.0005414448518)
(0.006404928723 0.003184534709 -0.000455436019)
(0.0176688638 0.004357243931 0.0001247743105)
(0.009496770635 0.001646104695 0.0002915779035)
(0.01396590661 0.002577577387 -0.0008877027566)
(0.009261326514 0.001116265444 -0.0003316268237)
(0.01189729774 0.0008527760765 0.0008592689128)
(0.01036583046 0.00279890356 -7.869082508e-05)
(0.02285181679 0.00681121453 0.001929108601)
(0.01271420037 0.00357851576 9.145354196e-05)
(0.0115103054 0.005000087206 -0.001318606609)
(0.01423431344 0.00633676184 -4.499745336e-05)
(0.01381796732 0.005490023613 -0.002586933718)
(0.02081641126 0.005793001034 9.839014254e-05)
(0.01442452258 0.003719388134 5.189620508e-05)
(0.01810974368 0.006351753511 0.0002198233341)
(0.02229634355 0.006281366004 0.0003907210505)
(0.02740532026 0.0104736682 0.0003231283237)
(0.01261064976 0.005627963671 0.0002427748503)
(0.01679722272 0.008858236356 -0.001093967764)
(0.01434564994 0.006218898022 -0.001110898292)
(0.01639448137 4.848067605e-05 2.673953092e-05)
(0.01893017681 0.004501744801 0.000856479717)
(0.009747709026 0.002432642891 0.0002647254157)
(0.007776283978 7.738773033e-05 -0.0004440177797)
(0.005213209304 6.047157192e-05 0.000188832113)
(0.007122725391 -0.001072382894 -7.060581639e-05)
(0.005980414743 -0.0006071977569 -0.000221652903)
(0.009907218982 0.0009110653736 0.0007043727967)
(0.008097611967 0.0006583069314 -0.001320836769)
(0.008701222242 0.0003466959934 -0.0009639018586)
(0.007176094363 0.0001585792478 0.0001466137442)
(0.008604087052 0.002794711605 -8.001189775e-05)
(0.005954474024 0.001549125826 -0.0004726022093)
(0.009858977679 1.665672602e-05 -0.0003998418747)
(0.01372297656 0.004749394688 6.981794217e-05)
(0.01648640102 0.002050814205 0.0003343618187)
(0.01588259913 0.002473747729 0.002952954246)
(0.01900757807 0.001721286996 -0.001455146593)
(0.01585154851 0.004030099926 0.001778788704)
(0.01827420043 0.006096352202 0.0004886808318)
(0.01292422787 0.004158139181 -0.001071470383)
(0.02050099624 0.007800031252 -0.001444824043)
(0.0153706785 0.00413460903 -0.002143927035)
(0.01144683266 0.003576994033 0.0003821128522)
(0.01708241863 0.003937852655 1.643043281e-06)
(0.01473691733 0.004793506555 0.001928917125)
(0.01507234799 0.004258598595 -0.001457310997)
(0.01735659886 0.006813605467 0.00206361667)
(0.01357947341 0.005523997575 -0.0005262192603)
(0.01435010787 0.002735606758 0.001017388658)
(0.01208790175 0.003749422524 0.0002560247926)
(0.01549115924 0.005839959195 -8.409295871e-05)
(0.01285860152 0.003788984755 0.000625620435)
(0.0082434841 -0.0002885687859 0.0003850783115)
(0.005701570573 0.0004870775515 -0.0004402179007)
(0.01212124186 0.0009827824758 0.0003268863123)
(0.004800797225 0.0008783131645 0.0001974374907)
(0.008201064729 0.0006348585919 -0.0009830384182)
(0.01632502816 0.0007849907283 -0.0004637520157)
(0.005500218146 0.0001799296792 0.0009741930361)
(0.008663898794 0.0009345099909 -0.000759440002)
(0.003202737459 0.0007933561992 0.0001499978779)
(0.009517192118 0.0008887237721 0.0009862718339)
(0.0112178483 0.002207774647 -0.0001633177058)
(0.01253844208 0.001907015103 -0.000331609493)
(0.008759321106 0.0009354374999 -0.0001115362002)
(0.01252554817 0.001641922917 -0.000780302377)
(0.01082529735 0.00380347768 0.001337427418)
(0.009523348941 0.002609471099 0.0001923029462)
(0.01544198324 0.004024495544 0.0002464978997)
(0.01432999744 0.004339214371 0.0009087563901)
(0.007678340891 0.001791757577 -0.0009337832775)
(0.01335974455 0.003363443263 0.0001633879587)
(0.01530244881 0.005629930688 -0.0003424842557)
(0.01841674374 0.00983074861 0.00170308959)
(0.01827229121 0.006173996855 -0.001379871953)
(0.0116183147 0.004448720412 7.63810747e-06)
(0.01760188457 0.004935567213 0.001032398268)
(0.01977240422 0.005167180517 -5.677201337e-05)
(0.01650214209 0.007894590851 0.001640419354)
(0.01147659112 0.002517669168 0.00246880839)
(0.01599429009 0.004106675279 -0.0008861303124)
(0.006266083078 -4.386853149e-05 2.836302046e-05)
(0.007826741071 -0.0008936556268 -0.000632350024)
(0.01081522013 0.0002802793662 0.00017656001)
(0.009127723533 -0.0003793098665 0.0002849990041)
(0.01169930083 0.0009248515175 -0.0002643285136)
(0.01393566232 -0.00055803241 -0.001171346039)
(0.009184305522 0.002053779934 -0.0001251978271)
(0.01033720796 0.001329524128 -8.902163928e-05)
(0.006247284022 0.00111207024 0.0007921401637)
(0.01033180171 0.001168757055 -7.222676264e-05)
(0.005712130833 -0.0003801863054 -0.00046030299)
(0.01200132335 0.0001777953692 0.0005764249808)
(0.01475335343 0.001391192197 0.0007030115779)
(0.007121253063 0.001481843305 -0.001379455428)
(0.008335087433 0.001035795362 -0.001410937127)
(0.009923107053 0.001986338229 0.0002181543518)
(0.005995115359 0.001082255754 -0.0002204824393)
(0.011667099 0.005044289986 -0.003690006304)
(0.004599331626 0.002323789968 -0.001359241763)
(0.01388338495 0.003294231196 0.0001900150515)
(0.01393136345 0.004796093627 -0.003491027164)
(0.01258295087 0.004579868071 -0.0004897198988)
(0.01561790425 0.003116844764 -4.083069167e-05)
(0.01429751976 0.005569321278 -0.002362252655)
(0.01868111077 0.006604038572 0.0003204552318)
(0.0127792072 0.0003483571747 -0.001438133067)
(0.006169364962 -1.497969586e-05 0.0001707751687)
(0.00983790961 -0.0001434223517 -0.000198890094)
(0.009235448721 -0.0004733008439 -0.001018092755)
(0.01065683578 0.0007480006816 -0.0012861)
(0.008986961064 0.0002768812115 -0.0004484447783)
(0.01237026165 0.001652977196 7.858064529e-05)
(0.008346148701 0.001222838778 0.0002677953909)
(0.007781940525 0.00157980559 2.648531034e-05)
(0.006666226115 0.001029706109 0.0006829373656)
(0.003779970609 8.51080187e-05 -0.0005336461888)
(0.007550366679 0.00147090398 -0.000848091675)
(0.01222117924 0.001821542825 -0.001673010278)
(0.005380493189 0.000731408661 0.0004249411916)
(0.0143296063 0.002494962475 0.0006853967678)
(0.01591491238 0.004314093886 -0.0001240462846)
(0.00994004107 0.001631962234 -0.0007840513999)
(0.01128368378 0.004570692883 0.001115447122)
(0.008810495077 0.003860535456 -0.00115712578)
(0.008662903578 0.0001511137135 -0.0001156822583)
(0.008051776598 -1.297401865e-06 0.000340906396)
(0.007631161208 -0.0005490219096 -5.349050651e-07)
(0.01139044169 0.0003383677657 -0.0003071757592)
(0.01189971858 0.001298755427 0.0001814403263)
(0.008459883516 0.0009298880933 -0.0005954699142)
(0.006779120154 0.00119691326 0.0002591970355)
(0.004429089633 0.0009330748357 0.0005429860188)
(0.01008336394 -0.0002182325436 0.0004771063072)
(0.008904059912 0.001661536826 -0.0005482508106)
(0.008500376263 0.0005776510917 0.0002389365923)
(0.01277820152 0.002183049371 -0.0005857522968)
(0.009655447799 0.002761263883 8.815000697e-05)
(0.01569988622 0.001732751917 0.0002679483674)
(0.0153097106 0.0007501323738 -9.863055972e-05)
(0.006542011244 0.0008921257061 -0.0001455980951)
(0.009130370859 -5.087948662e-05 -5.402134732e-05)
(0.004710160273 1.745972565e-06 -0.0001721595791)
(0.008041667018 -0.0001929740298 0.0003049470586)
(0.01055141087 0.0003815813457 -0.001550074517)
(0.01373012093 0.0004928494373 0.001109643617)
(0.005981036865 0.0005948990344 -0.0001809730368)
(0.006143269849 -0.0008751712966 -0.0002178665989)
)
;

boundaryField
{
    flow
    {
        type            zeroGradient;
    }
    obstacle
    {
        type            calculated;
        value           nonuniform List<vector> 
30
(
(-1.104860366e-23 -2.960464433e-24 -9.682953719e-22)
(0 0 0)
(2.731589387e-21 7.319271681e-22 -4.752917683e-23)
(7.356277203e-21 1.971108539e-21 -6.346107851e-21)
(3.811656735e-21 1.021330341e-21 1.01571003e-20)
(-7.820501105e-22 -2.095496959e-22 9.561122493e-22)
(5.222493739e-22 1.399362982e-22 -6.056845965e-23)
(2.879068766e-21 7.714441484e-22 1.193013597e-20)
(2.763521628e-21 7.404833898e-22 -1.997970855e-21)
(0 0 0)
(1.760938678e-22 4.718420951e-23 2.68329055e-22)
(-9.426153804e-22 -2.525730304e-22 -1.53484028e-21)
(0 0 0)
(-1.278734464e-21 -3.42635866e-22 6.881853004e-23)
(3.850281276e-21 1.03167976e-21 -2.361850926e-21)
(0 0 0)
(1.43217638e-21 3.837505051e-22 -2.523149733e-21)
(0 0 0)
(8.119756988e-22 2.175682321e-22 -3.968134565e-22)
(6.170749491e-22 1.653447346e-22 1.012812132e-21)
(0 0 0)
(1.574034052e-22 4.217611518e-23 2.93827453e-21)
(-4.066137037e-21 -1.089518137e-21 -5.592892668e-21)
(-2.599229121e-21 -6.964613451e-22 -2.5871888e-22)
(1.814259314e-21 4.861293165e-22 -7.063357457e-22)
(4.982566546e-21 1.335074685e-21 2.08105516e-21)
(-4.737246152e-22 -1.269341277e-22 5.647747853e-21)
(6.243511164e-22 1.672943777e-22 1.036207132e-21)
(0 0 0)
(1.269102798e-21 3.400550688e-22 -1.363305957e-21)
)
;
    }
    frontAndBack
    {
        type            empty;
    }
    procBoundary1to0
    {
        type            processor;
        value           nonuniform List<vector> 
21
(
(0.005884441369 0.001373739936 -0.0009875158255)
(0.008359935553 0.001653054732 0.0002447351853)
(0.008698964841 0.003240402809 0.001544194548)
(0.01013092497 0.001955327636 -0.001982713729)
(0.005517569007 0.003107550926 -0.001141006654)
(0.007892910934 0.003088952518 -0.001158162931)
(0.01140206277 0.002267082919 0.0002344797008)
(0.01555213875 0.00330649175 -4.404587002e-05)
(0.009912053593 0.0005113526816 -0.001019725759)
(0.007416145472 0.0008889614097 -0.0003990159237)
(0.008448695203 0.001082194144 0.000226703726)
(0.008125007506 0.0003876487764 0.0003863432393)
(0.009842835676 0.0009631035141 -3.050697577e-05)
(0.0141125935 0.001987015255 0.0001157553478)
(0.005408899583 -0.0002154939748 0.0003119423014)
(0.007489389543 -0.0002054156475 0.0001078296088)
(0.008198787264 -0.000254831655 0.0003712891398)
(0.00930179165 -0.0003127340565 0.00106040536)
(0.007605777642 0.001231701626 -0.0003979511594)
(0.004982850951 -0.0003211472215 0.0001349346642)
(0.008759187314 0.0002049484342 0.000411253503)
)
;
    }
    procBoundary1to3
    {
        type            processor;
        value           nonuniform List<vector> 
36
(
(0.01001231521 0.003102262691 0.001214264051)
(0.01390734929 0.001592379101 0.0002958708614)
(0.01736365963 0.008423568288 -0.001431156469)
(0.01512131176 0.004604225499 8.061439194e-05)
(0.01001231521 0.003102262691 0.001214264051)
(0.02280639483 0.005124698228 -0.003278483182)
(0.01129480249 0.003878370325 0.0009266885069)
(0.01096190806 0.001783130195 -0.002346727508)
(0.006949900886 0.001493665493 -0.0007367875328)