/*--------------------------------*- C++ -*----------------------------------*\
| =========                 |                                                 |
| \\      /  F ield         | OpenFOAM: The Open Source CFD Toolbox           |
|  \\    /   O peration     | Version:  2406                                  |
|   \\  /    A nd           | Website:  www.openfoam.com                      |
|    \\/     M anipulation  |                                                 |
\*---------------------------------------------------------------------------*/
FoamFile
{
    version     2.0;
    format      ascii;
    arch        "LSB;label=32;scalar=64";
    class       volVectorField;
    location    "0.005";
    object      momentumMean;
}
// * * * * * * * * * * * * * * * * * * * * * * * * * * * * * * * * * * * * * //

dimensions      [1 -2 -1 0 0 0 0];

internalField   nonuniform List<vector> 
546
(
(0.005574645596 0.00154021677 5.709526085e-07)
(0.005248840295 0.001545549201 -8.896259973e-07)
(0.005069590734 0.001431585506 2.894839877e-05)
(0.004812476721 0.001356243203 -4.115762472e-05)
(0.004684860691 0.001274260319 -3.960934224e-05)
(0.004605441038 0.001246125802 -8.485013701e-05)
(0.004584537613 0.00120278992 -0.0001001235868)
(0.00442905505 0.001282892711 6.438468696e-06)
(0.004296127489 0.001168073859 6.710007152e-05)
(0.004140771448 0.001167110324 4.555396407e-05)
(0.003941926073 0.001157272711 0.0001213636191)
(0.003795007084 0.001015105247 1.089218034e-05)
(0.003671950216 0.001025195827 -4.997550199e-05)
(0.003636944523 0.0009757036239 9.581089599e-05)
(0.00355466066 0.0009789799333 -2.774776594e-06)
(0.003442594796 0.0009383830978 -7.836173272e-05)
(0.00331350059 0.0009261976484 -7.424656673e-05)
(0.003375591486 0.000870128441 3.283857515e-05)
(0.003270486718 0.0009227800642 5.76709013e-05)
(0.003182696989 0.0008634146759 1.235795778e-05)
(0.003214954894 0.0008395508049 -5.931445539e-06)
(0.00323919152 0.0008643352659 4.335562934e-06)
(0.003132665544 0.0008800703847 0.0001290543388)
(0.003238709116 0.0008055176913 0.0001978962391)
(0.003218904691 0.0008245789757 -1.475828695e-06)
(0.003202387443 0.00087066128 -2.428223793e-05)
(0.003135324656 0.0008520249863 4.507400576e-05)
(0.003174557437 0.0008115321646 6.527732833e-05)
(0.003311352157 0.0008290852947 0.0001019032665)
(0.003597382102 0.0006768479128 -1.361167474e-05)
(0.008443426028 0.002612185962 -0.0001315259475)
(0.008185179691 0.002527966249 -0.0001178618661)
(0.007837721367 0.002356151653 1.789350694e-05)
(0.007596948225 0.002276391272 -4.321097748e-05)
(0.007468159399 0.002091600119 -4.623990958e-05)
(0.007309319473 0.002068379634 -0.0001021674767)
(0.006914435718 0.001992869343 -2.286450279e-05)
(0.00677634994 0.001955280464 -1.56037211e-05)
(0.006593978915 0.001923674094 -5.494367827e-05)
(0.006397469679 0.001912422849 -7.985312117e-06)
(0.006213536437 0.001907944694 6.618962197e-05)
(0.00606351182 0.001754197013 -1.891893415e-05)
(0.005880071012 0.001719125595 -3.104150891e-05)
(0.005707296211 0.001571092452 9.51122987e-05)
(0.005595631579 0.001558852505 9.55662895e-05)
(0.005526886398 0.001597743876 -3.615493359e-05)
(0.005364163124 0.001518087956 -8.29726817e-05)
(0.005191424485 0.001393371031 -1.766524942e-06)
(0.005102853156 0.001479255762 5.286879571e-05)
(0.005023288184 0.001384072406 6.875283766e-05)
(0.004930695045 0.001272660658 -1.374912339e-05)
(0.004839878017 0.001315359544 0.0001028748046)
(0.004916624198 0.001322598911 -9.508824341e-05)
(0.004771017574 0.00119664102 7.078323111e-05)
(0.004721336484 0.00129629338 5.367041496e-07)
(0.004659552902 0.001272267237 -4.854132598e-05)
(0.004702324258 0.001263696585 7.994677539e-05)
(0.004685059424 0.001124153591 2.158324829e-05)
(0.004788376546 0.001143192875 2.21433395e-05)
(0.005058496346 0.0007275823629 -2.206611415e-05)
(0.01024441886 0.00329951324 -0.0001348347447)
(0.01013361503 0.003203150229 -0.0001492441747)
(0.009973921763 0.00316721302 -0.0001266692756)
(0.009642342276 0.002949584127 -0.0001459353868)
(0.00924737187 0.002761903787 -1.932182201e-05)
(0.00886175077 0.002748739281 -0.0001000314189)
(0.008705798006 0.002640565215 -0.0001667989652)
(0.008459699986 0.002569405834 -0.0001854519704)
(0.008259730927 0.002493657943 -0.0001028303266)
(0.008064930703 0.002416929964 -5.843684177e-06)
(0.00798695735 0.002506338342 -2.445910069e-05)
(0.007765422555 0.002360411014 5.479068603e-05)
(0.007495732731 0.002211079228 9.10179969e-05)
(0.00728434224 0.002146371931 2.513888515e-06)
(0.007077959122 0.002060398904 3.521399171e-05)
(0.006970100877 0.002015617702 5.448665085e-05)
(0.0069520409 0.002009348724 -4.768569385e-05)
(0.006762694956 0.00192768723 -8.182448405e-06)
(0.006598799972 0.001925723022 -2.203138665e-05)
(0.006474104114 0.001806194794 5.029416773e-05)
(0.006366813159 0.001737718519 -4.02196845e-05)
(0.006360747094 0.001646170944 -6.611649209e-05)
(0.006272554299 0.001770146564 -1.480097679e-05)
(0.006045243683 0.001672920897 2.353068121e-06)
(0.005916488519 0.001612004049 -2.205845467e-05)
(0.005835362764 0.001569178967 5.141316497e-05)
(0.005819007892 0.001534290676 3.984254847e-05)
(0.005905442754 0.001462664958 3.49387273e-06)
(0.005856639975 0.001267954745 7.1507735e-06)
(0.006001911807 0.0008545666372 -1.827959164e-06)
(0.0114314072 0.00360482927 1.102753719e-05)
(0.01141962832 0.003639625755 -2.241030719e-05)
(0.01127565346 0.003706617613 -6.377939368e-05)
(0.01105108761 0.003619290361 -8.740862718e-05)
(0.0109133521 0.003505253077 -9.517589202e-05)
(0.01067886344 0.003268832308 -6.887915864e-05)
(0.01044261088 0.003272839447 -4.262135604e-05)
(0.01021614488 0.00320528018 1.652989409e-05)
(0.009909431558 0.003128421392 -3.585957036e-05)
(0.009639805445 0.003010268733 -2.372029091e-05)
(0.009454770776 0.002940206671 -3.934340705e-05)
(0.009185756786 0.002878495166 -3.69940691e-05)
(0.008986776235 0.002780373878 -3.665203492e-05)
(0.008806447078 0.00269949288 -9.241678159e-05)
(0.008563683854 0.002601427332 5.776367541e-05)
(0.008315898527 0.002390813846 -3.154840541e-05)
(0.008218286418 0.002418469136 9.504997224e-05)
(0.008080925011 0.002360529481 -4.251711191e-05)
(0.007933146781 0.002359214128 -5.088166829e-05)
(0.007846408698 0.002274945698 -6.299188806e-06)
(0.007656368324 0.002096692752 9.976717155e-05)
(0.007363500449 0.002018848799 3.14379834e-05)
(0.007196238519 0.002112921772 -5.971011496e-05)
(0.007093139541 0.002061543908 4.643323805e-06)
(0.007057832313 0.001959379508 2.091881257e-05)
(0.006983174146 0.001871641304 -1.335298875e-05)
(0.006869181642 0.001804842326 -6.837222201e-06)
(0.006895171473 0.001652736254 -1.66777286e-07)
(0.006918852006 0.00148225939 -1.563524394e-05)
(0.006977234231 0.001154650723 6.963475666e-05)
(0.01194458121 0.003696666513 2.504503327e-07)
(0.01201617773 0.003787004254 5.379463022e-05)
(0.01217273572 0.003949141692 5.799968763e-05)
(0.01220220933 0.003954769952 6.540417698e-06)
(0.01208115615 0.003864208673 1.887863894e-05)
(0.01188905376 0.003859743527 1.754651414e-05)
(0.01165046525 0.00375440586 1.037619064e-05)
(0.0114631699 0.003687063301 -4.696409224e-05)
(0.01131456598 0.003699431303 -0.0001585547375)
(0.01100052976 0.003489467944 -5.638664678e-05)
(0.01075585346 0.00346175175 -0.0001158262957)
(0.01065908726 0.00337457094 -1.614299742e-05)
(0.01051737693 0.003294300106 -4.513296908e-05)
(0.01021631939 0.003260080038 1.446709214e-05)
(0.009990635094 0.003102665354 -3.826671292e-05)
(0.00975180509 0.002925438944 -3.602129583e-05)
(0.009417093715 0.002793282517 1.396018071e-05)
(0.009251220402 0.002862256278 1.989788951e-05)
(0.009030209449 0.002658447037 -1.756619425e-05)
(0.008816740274 0.002625099281 6.845104851e-06)
(0.008664352552 0.002566787029 -7.930373971e-06)
(0.008415443136 0.002459266036 -6.303533695e-05)
(0.008257568079 0.002374348876 -4.512104364e-05)
(0.008184204134 0.002384012944 6.320151672e-05)
(0.008059025109 0.002248147598 0.0001446899496)
(0.007988944931 0.002175310331 1.449180848e-05)
(0.00804172963 0.002103951725 -4.546809669e-05)
(0.007852262419 0.001909162033 -4.088802997e-05)
(0.007770002976 0.001681795491 -7.858772569e-06)
(0.00759192066 0.001419471421 -3.18198596e-05)
(0.01191863829 0.003513047517 -1.352115426e-05)
(0.01205575319 0.00367190674 -9.659845147e-07)
(0.01233241273 0.00381174544 -7.637373829e-07)
(0.01240637257 0.003996739464 -1.145217275e-05)
(0.01247140805 0.004021336264 -1.865027303e-05)
(0.01250109804 0.004132839937 1.537741094e-05)
(0.01253243716 0.004031275745 -3.507340574e-05)
(0.01237594305 0.003972227689 2.074560557e-07)
(0.0122517092 0.003997811696 -2.940602395e-05)
(0.01221395224 0.004013848109 -4.255672636e-05)
(0.01203891223 0.003905638216 -4.504173598e-05)
(0.01175460636 0.00379929339 -6.76267783e-06)
(0.01147085554 0.003719460872 9.708584042e-07)
(0.01130686337 0.003625896112 0.0001016092437)
(0.01117069897 0.003509315379 3.791444581e-05)
(0.01096505471 0.003453623403 1.198894502e-05)
(0.01064618151 0.003302599755 1.992078584e-05)
(0.01051090054 0.00325962834 5.276377204e-05)
(0.01026484316 0.00320464142 3.346559265e-05)
(0.009984995125 0.003041662393 -2.130221803e-05)
(0.009722132434 0.002988816089 -3.349191699e-05)
(0.00951162402 0.002822021775 3.705722069e-05)
(0.009387864467 0.002758920469 -9.334921025e-05)
(0.009284376483 0.002727995811 4.884067631e-05)
(0.009148303705 0.002594654405 3.139536437e-05)
(0.00891930385 0.002458947782 6.898569581e-06)
(0.008733338293 0.002315463687 -4.312998646e-05)
(0.008685139219 0.002179274129 -7.771966345e-05)
(0.008621594433 0.001994993208 -3.886389125e-06)
(0.008414339042 0.001680152992 -6.497981844e-05)
(0.01159853705 0.003088511648 -1.610097019e-05)
(0.01204516123 0.003407338493 -1.403491055e-05)
(0.012278048 0.003627053165 -7.880169084e-05)
(0.01252684773 0.003867213861 -6.102999081e-05)
(0.01272803376 0.003959811904 -4.280804915e-05)
(0.01299773603 0.00416757754 -7.995350194e-05)
(0.01298973481 0.004193019786 -2.436741442e-05)
(0.01299622359 0.004248580461 -5.15292093e-05)
(0.0129598618 0.004161335631 1.096255342e-05)
(0.01296375655 0.00418062257 4.063069261e-05)
(0.01278655746 0.004230902756 1.21394782e-05)
(0.01268444884 0.004209172285 -3.975342391e-05)
(0.01264419642 0.004113588106 -9.433257164e-06)
(0.01245632817 0.004085091949 -5.685912854e-06)
(0.01202415923 0.003937979046 -4.240403011e-05)
(0.01177091924 0.003841189976 -5.147240162e-06)
(0.01159099754 0.003646200482 -4.556265734e-05)
(0.01130794222 0.003586369588 -5.06696823e-05)
(0.01117020914 0.003538409063 6.549200043e-06)
(0.01089819679 0.003449368327 -4.738834505e-05)
(0.01080535559 0.003315499303 4.240528844e-06)
(0.01065083261 0.003286636872 -4.346027112e-05)
(0.01041760593 0.003046352137 -6.922497245e-05)
(0.01033095447 0.002983416369 -4.277752519e-05)
(0.01023612391 0.003034244116 -5.535329769e-06)
(0.01002789067 0.00286684567 3.174528478e-05)
(0.009829807592 0.002654914374 7.766722561e-05)
(0.009647458306 0.002481055566 8.570260635e-05)
(0.009410275093 0.002291814914 2.788491053e-05)
(0.009202132825 0.002031989451 7.621776049e-06)
(0.01100278055 0.002557217726 -3.19017114e-05)
(0.01146030083 0.002910537705 -3.713273602e-05)
(0.01201341859 0.003221660152 -3.603022707e-05)
(0.01247819488 0.003579681207 -2.113551081e-05)
(0.01270627283 0.00368994314 -5.477677764e-05)
(0.01285387819 0.003960402754 -6.285660766e-06)
(0.01316827104 0.004154343495 -9.978702506e-06)
(0.01334732586 0.004257335736 3.975739179e-05)
(0.01328268237 0.004293522686 -1.640755045e-05)
(0.01332132628 0.004292600075 -7.290563673e-05)
(0.01334643367 0.004361176203 -5.760822967e-05)
(0.0133536308 0.004383201436 -3.752062429e-05)
(0.01314948067 0.004355108687 -2.004370275e-05)
(0.01296737661 0.004387311349 8.54468644e-06)
(0.01298541897 0.004311358862 -4.704428921e-06)
(0.01288132039 0.004176227418 2.36065007e-05)
(0.01264799868 0.004098775451 4.116821028e-05)
(0.01234334631 0.003972336525 -7.328289557e-06)
(0.01221221752 0.00393920292 1.547015969e-05)
(0.01206169204 0.003801047171 -6.930903858e-05)
(0.0118718291 0.003710342917 1.058139946e-05)
(0.01162567365 0.003587691042 2.32014323e-05)
(0.01142984159 0.003459222007 -3.765024751e-05)
(0.01112150212 0.003257065479 -2.981658294e-06)
(0.01088710674 0.003288642805 -1.003100304e-05)
(0.01071865437 0.00315693835 7.432556934e-05)
(0.01046225993 0.002942088077 8.277661068e-06)
(0.01033195841 0.002775860888 5.040588285e-05)
(0.01016997429 0.002615696762 4.597701671e-05)
(0.009960074113 0.002317326123 1.18462559e-05)
(0.01056882701 0.002029708607 8.079982766e-06)
(0.01097361847 0.002379909816 -8.59880159e-06)
(0.01141610368 0.002693312681 4.983700315e-06)
(0.01181593856 0.00304810899 -1.809537006e-05)
(0.01237229887 0.003376318183 3.095933811e-05)
(0.0126155073 0.003617645239 -2.85297403e-06)
(0.01289336164 0.003871549451 -1.371515515e-05)
(0.01316867913 0.004038544193 -1.32932632e-06)
(0.01343853422 0.004303211597 -4.434895988e-06)
(0.01350084006 0.004304189829 1.03486666e-05)
(0.0135987048 0.004400302141 -2.971958993e-05)
(0.01365735625 0.004485871031 7.613654875e-05)
(0.01378030484 0.004519721411 3.341891402e-05)
(0.01380563267 0.004564070513 -2.42350522e-05)
(0.01379301246 0.004479586111 -2.726732691e-05)
(0.01366140229 0.004526055106 -6.049741323e-06)
(0.01345451927 0.004438458606 -4.637639975e-05)
(0.01331301598 0.004305045632 -6.715415984e-06)
(0.01307586969 0.004241437895 2.456127651e-05)
(0.01278518821 0.004161021308 1.686558967e-05)
(0.01253145704 0.004043641963 -5.701716026e-05)
(0.01238797596 0.003929273066 -5.743125723e-07)
(0.01208248745 0.003781796352 -7.94094156e-05)
(0.01199834559 0.00365450546 2.041930837e-05)
(0.0117810588 0.00353271495 -6.868795772e-06)
(0.01160666504 0.003494030869 -6.961396609e-05)
(0.01133221985 0.003317667691 -2.964983238e-06)
(0.0110844829 0.00309516047 -3.050687315e-05)
(0.01081939675 0.00288283813 2.53799077e-06)
(0.01064983094 0.002622959584 -2.222623395e-05)
(0.0098974869 0.001526348634 2.169748772e-05)
(0.01021177504 0.001813476017 6.116259473e-05)
(0.01065702789 0.002161190749 6.092292044e-05)
(0.01109135682 0.00247407062 5.584917799e-05)
(0.01157741306 0.002862014206 3.380178954e-05)
(0.01205625699 0.003179866641 -5.246803553e-06)
(0.01259612789 0.003457748652 -7.195716838e-06)
(0.01288163503 0.003743586347 -2.471210679e-05)
(0.01323588685 0.003936282392 -2.283118971e-05)
(0.01355626849 0.004181432075 -4.60190962e-06)
(0.01378813281 0.004290397362 3.105309163e-05)
(0.01394396376 0.004413061076 -4.32456873e-05)
(0.01400649655 0.004478699976 1.014178222e-05)
(0.01405666557 0.004589217802 -1.695862302e-06)
(0.01405766096 0.004636366488 -1.311992676e-05)
(0.01403422029 0.00466019507 -6.565059736e-05)
(0.01399245216 0.004650564675 -6.648537924e-05)
(0.01379962902 0.004630279979 -7.364959831e-05)
(0.01365613264 0.004501515729 -9.061697222e-05)
(0.01357027476 0.004438290869 -4.322351141e-05)
(0.01337361118 0.004348027072 -8.768621683e-05)
(0.0131976154 0.004233669629 -2.227500421e-05)
(0.01302142491 0.004157551092 3.587890763e-05)
(0.0126156787 0.00391747544 -3.57222827e-05)
(0.01249622748 0.003849656902 3.197852642e-05)
(0.01231332501 0.003789609732 -3.244220813e-05)
(0.01207779013 0.003667115655 -3.807942853e-05)
(0.01190887344 0.00347844277 2.037310047e-05)
(0.01148166052 0.003187357504 2.186254017e-05)
(0.01122576014 0.002901855832 2.631513547e-05)
(0.009657110011 0.001188025108 -2.913739116e-07)
(0.009962471322 0.001443289294 -2.516069382e-06)
(0.01031365705 0.001718636274 -4.008010814e-05)
(0.01072449486 0.002017530983 -3.595696908e-06)
(0.01107511394 0.002310980891 2.455452602e-05)
(0.01146560444 0.002606791663 9.405953825e-05)
(0.01192984737 0.002959220791 4.093057581e-05)
(0.01249908835 0.003291281447 7.567754003e-05)
(0.01297467256 0.00360508429 2.495754227e-05)
(0.01339075224 0.003863883266 -1.362940613e-05)
(0.0136891441 0.004069045975 -1.545584435e-05)
(0.01384764438 0.004240951355 -4.865182558e-05)
(0.01407085914 0.004464950915 -4.078052723e-05)
(0.01415520002 0.004580014533 -6.23698915e-06)
(0.01418920437 0.004638638728 -1.304084971e-05)
(0.01419959561 0.004591095516 -1.420213369e-06)
(0.01428941022 0.004757691188 4.458452471e-05)
(0.01432922626 0.004781171106 1.150589878e-05)
(0.0141200072 0.00471850776 1.509118642e-05)
(0.01410840506 0.004627799528 4.841896429e-05)
(0.01397029107 0.004593043975 1.043363851e-05)
(0.01378137458 0.004481608882 -5.919390401e-05)
(0.01354898191 0.004415793231 -2.481670002e-05)
(0.01340035624 0.004332489493 2.065050877e-05)
(0.01291735637 0.004138835711 4.667713071e-06)
(0.01274955764 0.003965535174 3.822172654e-05)
(0.01261573858 0.003847644802 1.541064635e-05)
(0.01259997625 0.003763859812 3.847441208e-05)
(0.01243373215 0.003578450277 5.311348647e-06)
(0.01199892363 0.003283670484 -4.431727717e-06)
(0.009329861034 0.0008833102243 1.398481812e-05)
(0.009591057151 0.001111752103 8.212310822e-06)
(0.009837073547 0.001302916188 5.083660337e-06)
(0.01018975966 0.001541618587 5.629648494e-06)
(0.01059119206 0.001835141873 3.771069817e-06)
(0.01094698713 0.00219109333 -1.167254643e-05)
(0.01141139136 0.002464814838 5.163261499e-05)
(0.0118215968 0.002675130981 -3.19342439e-06)
(0.01230677313 0.003036424213 4.231062314e-05)
(0.01271030814 0.003392562851 6.630292697e-07)
(0.01312943628 0.003728957394 -7.398994952e-05)
(0.01338877578 0.003908152983 -2.59193499e-05)
(0.01369932053 0.004170156524 2.241046412e-06)
(0.01405221768 0.004399611266 8.462375206e-06)
(0.01421610798 0.004503730023 6.9120287e-05)
(0.01446204654 0.004667909652 9.007692473e-05)
(0.01446643147 0.004741725498 6.943345534e-05)
(0.01455381038 0.004749605928 1.761292794e-05)
(0.01472863686 0.004879738991 3.420068692e-05)
(0.01454758011 0.004814813089 1.158815037e-05)
(0.01434967757 0.004749780118 2.123184012e-05)
(0.01432008001 0.004777046018 4.290676447e-05)
(0.01410482437 0.004674878894 1.205556839e-05)
(0.01393775904 0.004554169741 -1.784035174e-06)
(0.01385473323 0.004446691235 3.841215541e-05)
(0.01371683801 0.00427507293 -1.639422548e-05)
(0.01344004397 0.004149883459 -1.958104713e-05)
(0.01309489803 0.003964070299 -3.510938734e-05)
(0.01290720977 0.003868055962 2.107484635e-05)
(0.01285783362 0.003655027406 9.723736883e-06)
(0.009031845184 0.000614328421 -2.151067984e-05)
(0.009186930432 0.0008063963451 -2.730227921e-05)
(0.009500107442 0.001039307918 -2.31430399e-05)
(0.009667863067 0.001179879656 -4.80419563e-06)
(0.01001482852 0.001430708032 -2.108967177e-05)
(0.01043157721 0.001697767718 -1.480951931e-05)
(0.01079302937 0.001970219237 -1.901228553e-05)
(0.01115517904 0.002259969816 -2.760514963e-05)
(0.01154151939 0.002608394719 -3.265968409e-05)
(0.0118571802 0.002841704076 -1.117118655e-05)
(0.01235270834 0.003152931434 8.058667697e-06)
(0.01294527753 0.003559305968 -4.550352458e-05)
(0.01344176083 0.003804557876 -5.817645655e-05)
(0.01374204989 0.00405945021 -3.616504176e-05)
(0.01404316119 0.004302415415 3.235762598e-05)
(0.01422145283 0.004478136184 4.001395756e-05)
(0.01437751805 0.004600128392 3.12391016e-05)
(0.01452445991 0.004708052314 7.744405505e-05)
(0.01460542776 0.004777365433 3.698311368e-05)
(0.014802138 0.004855914867 4.849162299e-05)
(0.0148329257 0.004864465535 2.067712202e-05)
(0.01487736815 0.004958255885 7.46721863e-06)
(0.0147472722 0.00483865154 2.200763866e-05)
(0.01465804262 0.004773800828 4.295342469e-05)
(0.01454892469 0.00471189681 1.387713535e-05)
(0.01425051199 0.004585047512 -1.542414917e-05)
(0.01400513234 0.004479555396 5.886205612e-05)
(0.01381652004 0.004264930061 5.38688723e-05)
(0.01372761215 0.004094669962 1.037031561e-05)
(0.01345825414 0.003896870927 7.362573146e-05)
(0.008727594542 0.0004860125992 2.307919186e-06)
(0.008919937323 0.0005672019835 -4.596918581e-06)
(0.009090372752 0.0007097671608 1.960836814e-05)
(0.009405523712 0.0008781616124 -2.433804075e-06)
(0.009677307195 0.001099577675 -2.504864274e-05)
(0.009910373386 0.001292032217 -2.358918347e-05)
(0.01017832111 0.001509673925 -1.957615177e-05)
(0.01053479674 0.001858727735 -7.367801785e-06)
(0.01091653095 0.002087547441 -1.288042847e-05)
(0.01139309091 0.002422592809 -6.580167734e-06)
(0.01188706063 0.002645587525 -1.434974944e-05)
(0.0123098665 0.002957900077 4.940591083e-06)
(0.01268047878 0.003332890089 -6.319340079e-06)
(0.01312201713 0.003679459466 -3.457465277e-05)
(0.01344522651 0.003964584288 -6.093821243e-05)
(0.0138691893 0.004167453436 -3.510693793e-05)
(0.0142651889 0.004366581122 -4.736943474e-05)
(0.01458982829 0.004558508317 -5.231906776e-05)
(0.01477006304 0.004691228206 3.162848331e-05)
(0.01496618298 0.004816506693 5.489126806e-05)
(0.01494257303 0.004804791861 4.25258842e-05)
(0.01492084335 0.00486505562 4.198694369e-05)
(0.0151710326 0.004996524487 3.950677478e-05)
(0.015109714 0.004934849507 3.882490527e-05)
(0.0149586193 0.004919534392 7.07809718e-05)
(0.01483699125 0.004795634843 6.566600371e-05)
(0.01485260764 0.004734828169 -2.625055961e-05)
(0.01457353659 0.004561926253 4.147210726e-05)
(0.01421647509 0.004310506307 2.589640687e-05)
(0.01402464324 0.00409330852 -1.372384234e-07)
(0.008787950546 0.0003519716056 2.171574458e-07)
(0.008904178834 0.0004298321515 -1.154631668e-05)
(0.009042764133 0.0005154344997 -2.866226332e-05)
(0.009063533232 0.0006543759731 -2.913638602e-05)
(0.00920810903 0.0008340854361 -2.418978742e-05)
(0.009433812059 0.001014308342 -2.058884271e-05)
(0.009716075738 0.001187828456 -2.447793142e-05)
(0.01001083301 0.001428096282 -4.11024963e-05)
(0.01035271838 0.001622139876 -3.594864216e-05)
(0.01077303974 0.001886038772 -2.70481289e-05)
(0.01111317928 0.002233547239 5.962887702e-06)
(0.01142013807 0.002470638307 5.525165757e-06)
(0.01198786763 0.002792678766 -1.941534801e-05)
(0.01265840875 0.003168973215 -1.474940551e-05)
(0.01324653756 0.003461592307 -2.621729067e-05)
(0.01377045033 0.003819504011 -5.391987874e-05)
(0.01411465763 0.004075017635 -4.442280909e-05)
(0.01438299269 0.00433250261 -2.108496298e-05)
(0.01462678922 0.004465749404 -1.242475334e-05)
(0.01484059932 0.004597470394 2.349938251e-05)
(0.01517019029 0.004770480984 2.588174345e-05)
(0.01540270162 0.004874518894 2.644482863e-05)
(0.01543439589 0.004958374688 1.152300344e-05)
(0.01542672602 0.00503761659 5.29236254e-05)
(0.01542683451 0.005006194354 5.676868732e-06)
(0.01536739993 0.004930249379 2.092888433e-05)
(0.01525890798 0.004879202814 -1.328923496e-05)
(0.01514179788 0.004832979168 2.300874466e-05)
(0.01495972559 0.004654063684 2.23568196e-05)
(0.01466383936 0.004433598955 -3.863505098e-05)
(0.008519422883 0.0002661735459 1.058227206e-05)
(0.008456929596 0.0003260715319 8.939246996e-06)
(0.008641389046 0.0004208791681 1.324302317e-05)
(0.008666902538 0.0005122242163 3.682771794e-06)
(0.008912160344 0.0005778392804 -1.884073324e-06)
(0.009079333135 0.0007357913355 1.917194797e-05)
(0.009345105399 0.0009033531424 2.443304185e-05)
(0.009618082888 0.001082680413 2.25864818e-05)
(0.009937804244 0.0012871998 -9.000107895e-06)
(0.01022288526 0.001489763546 8.22752384e-06)
(0.0106832586 0.001771334439 3.572690978e-05)
(0.01118724549 0.002052586005 -1.332660733e-05)
(0.01148714241 0.002264364057 -2.095066994e-05)
(0.01194393414 0.002562842133 3.122619644e-05)
(0.01244530386 0.002966244663 1.300592748e-05)
(0.01285133107 0.003281349866 1.569498158e-05)
(0.01332346378 0.003599620381 2.46359118e-05)
(0.01380873102 0.003907165243 1.005954622e-05)
(0.01418354462 0.004096128805 -3.6226482e-05)
(0.01469644923 0.004375180156 -4.87638061e-05)
(0.01493720762 0.004548940333 -1.198731703e-05)
(0.01505837363 0.004766914685 3.411069424e-05)
(0.01525479627 0.004855460939 1.886622e-05)
(0.0154210825 0.004981815299 -9.778154465e-06)
(0.01562028446 0.005009489183 5.272546173e-05)
(0.01560218161 0.005031559033 8.835535834e-05)
(0.01552450816 0.004982076076 3.089920885e-05)
(0.01545513333 0.004918419611 -5.028965758e-06)
(0.01530455394 0.004860518239 2.719887844e-05)
(0.00848293731 0.0002295979101 1.449059737e-05)
(0.008593638556 0.0002658289596 -8.311253709e-07)
(0.008638316507 0.0003118755944 -4.086588884e-06)
(0.008860610249 0.0003796806166 7.821560001e-06)
(0.008869645532 0.000458019038 1.759769561e-05)
(0.008989279323 0.0005466590171 -1.699847506e-06)
(0.009178983505 0.0006703050341 3.088097826e-06)
(0.009443916154 0.0008013621899 -6.658980088e-06)
(0.009611370674 0.001003283363 6.951305323e-06)
(0.009929282239 0.001167925179 2.435195565e-06)
(0.01017151273 0.00138291834 -1.661783424e-05)
(0.01041105224 0.001599819375 -1.866470314e-05)
(0.01073517189 0.001891572899 -1.935789523e-05)
(0.01115931665 0.002096293099 -2.360366906e-06)
(0.01151827711 0.002389877932 1.323108797e-05)
(0.01204633235 0.002723004788 -3.595540936e-05)
(0.0126874723 0.00304432639 -5.248740245e-05)
(0.01327244771 0.003440363232 1.20260896e-05)
(0.01392192402 0.003794241736 1.277629936e-05)
(0.01402508773 0.003984002662 -2.700326712e-05)
(0.01446267752 0.004235146689 -4.909581298e-05)
(0.01498621409 0.004465695082 -6.537553017e-06)
(0.01521039631 0.004652559009 -1.270561459e-06)
(0.01543617813 0.004852128233 1.271405511e-05)
(0.01554743757 0.004880902732 -8.321315027e-06)
(0.00852738485 0.0001572969823 -9.887944309e-06)
(0.008587827639 0.0001801735358 -2.794942738e-06)
(0.008635449235 0.0002367314281 -3.607645301e-06)
(0.008622986941 0.0003083659308 -8.406164237e-06)
(0.008734512654 0.0003677028423 -6.252672759e-06)
(0.008845447311 0.0004048524501 -4.171218617e-06)
(0.008881197598 0.0004827515069 4.247458435e-06)
(0.008932234547 0.0006111488444 1.227695665e-06)
(0.009152182715 0.0007218959967 1.955036746e-05)
(0.009319193313 0.0009290020381 7.508471441e-06)
(0.009504348674 0.001071607406 1.209127999e-05)
(0.009889281673 0.0012316593 1.698737024e-05)
(0.01030844348 0.0014516902 -3.576139683e-06)
(0.01074801707 0.001706278111 -2.479699455e-05)
(0.01110875054 0.001981203038 -3.001314362e-05)
(0.01151611733 0.002235156141 1.470540834e-06)
(0.01190706728 0.002492581035 -3.715437305e-05)
(0.01243364263 0.002882054297 -5.563531749e-05)
(0.01283020604 0.003212379287 4.857149305e-05)
(0.008376370195 0.0001207955159 -4.016703771e-06)
(0.008383854452 0.0001310284073 7.610387522e-06)
(0.008469484874 0.0001533737126 8.872684868e-06)
(0.008491466684 0.0002070414237 1.582610741e-06)
(0.008520301865 0.0002793254489 8.699220715e-06)
(0.008541042159 0.0003140973619 8.239437193e-06)
(0.008664638235 0.0003871382069 2.015526677e-05)
(0.008762778204 0.0004627979369 2.041663294e-06)
(0.008981231804 0.0005643219013 -1.720548315e-06)
(0.00907094018 0.0006479479668 -8.00619631e-06)
(0.009447477545 0.0008287777245 1.822105322e-05)
(0.009600952699 0.0009714601347 7.828249053e-06)
(0.009797979925 0.001114461591 2.842374673e-05)
(0.01009639402 0.001282501363 3.36545846e-05)
(0.008374772179 9.794700136e-05 -1.121059023e-05)
(0.008390366863 0.0001215557087 -1.009799972e-05)
(0.008409964176 0.0001490571677 1.540637269e-06)
(0.008456864818 0.0001579522772 -4.528009031e-06)
(0.008522297427 0.0002261877267 9.395250482e-07)
(0.008536143111 0.0002858954957 1.37024552e-05)
(0.008621985875 0.0003019310638 9.734937759e-06)
(0.008776089182 0.0003466692624 7.344638033e-06)
(0.008290980713 7.594042045e-05 3.299289486e-05)
)
;

boundaryField
{
    flow
    {
        type            calculated;
        value           nonuniform List<vector> 
15
(
(0.003597382102 0.0006768479128 -1.361167474e-05)
(0.005058496346 0.0007275823629 -2.206611415e-05)
(0.006001911807 0.0008545666372 -1.827959164e-06)
(0.006977234231 0.001154650723 6.963475666e-05)
(0.00759192066 0.001419471421 -3.18198596e-05)
(0.008414339042 0.001680152992 -6.497981844e-05)
(0.009202132825 0.002031989451 7.621776049e-06)
(0.009960074113 0.002317326123 1.18462559e-05)
(0.01064983094 0.002622959584 -2.222623395e-05)
(0.01122576014 0.002901855832 2.631513547e-05)
(0.01199892363 0.003283670484 -4.431727717e-06)
(0.01285783362 0.003655027406 9.723736883e-06)
(0.01345825414 0.003896870927 7.362573146e-05)
(0.01402464324 0.00409330852 -1.372384234e-07)
(0.01466383936 0.004433598955 -3.863505098e-05)
)
;
    }
    obstacle
    {
        type            calculated;
        value           nonuniform List<vector> 
30
(
(1.287556414e-21 3.449997018e-22 1.154074828e-23)
(1.226272843e-21 3.285788185e-22 -1.825740078e-23)
(1.240356732e-21 3.323525836e-22 5.899141886e-23)
(1.200045799e-21 3.215513032e-22 -2.216066301e-23)
(9.62114965e-22 2.577979271e-22 2.358386239e-23)
(1.102518262e-21 2.954188784e-22 4.283191991e-23)
(1.128737337e-21 3.024442583e-22 2.865583179e-23)
(9.651116214e-22 2.586008788e-22 1.922356607e-23)
(1.189336915e-21 3.186818664e-22 7.108526714e-23)
(9.840185765e-22 2.636669834e-22 -9.788063199e-23)
(1.079625825e-21 2.892848671e-22 -1.856602179e-23)
(7.864447332e-22 2.107272315e-22 9.695689277e-23)
(9.13235481e-22 2.447007101e-22 4.480931552e-23)
(9.34959553e-22 2.505216564e-22 -1.757168081e-23)
(7.247426789e-22 1.941942159e-22 1.772121011e-22)
(8.639973831e-22 2.315074003e-22 -8.406942104e-23)
(7.726365591e-22 2.070273424e-22 -8.797500264e-24)
(8.521522826e-22 2.283335164e-22 1.741483795e-23)
(8.209317732e-22 2.19968005e-22 -2.572363073e-23)
(1.050508752e-21 2.814829723e-22 1.669362341e-22)
(7.762828209e-22 2.080043553e-22 2.040248141e-24)
(7.479071032e-22 2.004011037e-22 -9.414544721e-24)
(8.502375233e-22 2.278204582e-22 -2.098446874e-23)
(9.063544669e-22 2.428569479e-22 -3.725643031e-24)
(8.048337371e-22 2.156545492e-22 8.861372266e-23)
(7.729109343e-22 2.07100861e-22 -3.82664959e-24)
(7.940634063e-22 2.127686478e-22 8.688627532e-23)
(9.175030486e-22 2.458442014e-22 -9.914380438e-23)
(9.152622295e-22 2.452437757e-22 -1.414376853e-23)
(9.409180048e-22 2.521182188e-22 3.97897275e-23)
)
;
    }
    frontAndBack
    {
        type            empty;
    }
    procBoundary1to0
    {
        type            processor;
        value           nonuniform List<vector> 
21
(
(0.005809530648 0.001667718864 -3.286367082e-06)
(0.008749892261 0.00261818628 -1.093139768e-05)
(0.01046602069 0.003389300302 -1.241627317e-05)
(0.01144905158 0.003696234405 -4.410884985e-05)
(0.01178160875 0.003602006502 3.104119815e-05)
(0.01152899881 0.00317652757 -4.862589331e-06)
(0.01121122582 0.00274051303 -1.001024287e-06)