/*--------------------------------*- C++ -*----------------------------------*\
| =========                 |                                                 |
| \\      /  F ield         | OpenFOAM: The Open Source CFD Toolbox           |
|  \\    /   O peration     | Version:  2406                                  |
|   \\  /    A nd           | Website:  www.openfoam.com                      |
|    \\/     M anipulation  |                                                 |
\*---------------------------------------------------------------------------*/
FoamFile
{
    version     2.0;
    format      ascii;
    arch        "LSB;label=32;scalar=64";
    class       volScalarField;
    location    "0.005";
    object      overallT;
}
// * * * * * * * * * * * * * * * * * * * * * * * * * * * * * * * * * * * * * //

dimensions      [1 2 -2 0 0 0 0];

internalField   nonuniform List<scalar> 
546
(
843.946515
825.8887443
815.0079689
805.6780882
800.005119
804.5421233
805.604869
785.7105477
772.2369271
766.8032
763.633235
763.3991782
764.8766284
769.0419722
760.2597294
751.6726038
752.2221779
736.4935283
735.9758711
741.6206211
735.470361
723.913819
726.1702746
736.4183744
727.8954512
727.0751495
721.9714055
721.1199898
716.5522038
705.2504934
916.68066
910.3162767
906.2346365
895.8761347
896.4193048
888.6033559
879.2203094
872.8268624
870.1850542
863.8555063
851.0849753
847.8473456
852.7906831
851.9840974
847.5976009
837.0537486
824.748393
823.9876385
816.2887698
814.5060687
819.0104557
815.2826365
811.665749
800.8660184
797.2619752
786.6545167
783.0442893
781.2705418
761.4493102
729.2018285
921.9600039
926.2008497
921.872223
927.8645637
928.1194766
919.3339888
915.4224068
918.7044551
906.6315247
905.5763257
897.1246655
890.9969523
888.9337563
888.1581581
886.8625833
880.9718079
871.2566669
862.9549494
858.2868947
861.7980043
854.432956
852.3743079
842.209824
842.9251191
841.5361945
826.4616618
815.0938507
805.1241434
786.2832747
756.1053698
904.8416081
909.5072716
920.6937762
913.8512086
915.9699655
919.2002396
909.3106553
907.6900784
909.3222269
915.0021821
916.3304043
914.3256695
907.7423189
902.4622088
891.0084845
892.7079984
885.025312
877.8641653
881.4386367
878.770812
875.7448114
877.1651337
868.1840834
862.4946811
864.3968218
849.8485313
840.7916045
817.8701663
790.0465602
763.1062201
874.4773415
882.2075487
888.2317138
886.0230053
889.4586335
891.2697296
882.1445893
890.2513113
896.2476457
891.7008667
901.4364134
896.7673076
899.2720436
896.5996449
890.0228333
882.2186442
885.6056759
890.3905858
894.8390563
887.688746
877.7184759
875.0949726
878.41085
877.8233455
874.8631847
857.625331
847.08605
825.4987802
806.316767
769.3972269
840.8564021
845.5736215
855.7102692
863.6827815
857.0968966
859.6837724
865.5542501
871.6316404
875.86987
875.9112926
877.6911619
880.9814454
883.3266356
890.1784809
884.3603088
888.6131002
886.2174742
885.1788649
880.7967692
881.1173652
872.7636017
872.0220649
871.4699282
869.9336071
866.9881041
857.1332136
841.1354854
823.2729794
805.8832481
771.794844
806.8907524
816.804204
825.5808347
830.0427087
831.460082
841.8928223
842.8470101
844.5774867
843.4806634
845.9923431
854.6849075
864.9279024
862.5375314
867.2244565
870.580635
872.6026372
876.7522549
876.3922213
875.1740551
872.3097265
872.5200873
865.645531
866.6462434
860.5652077
855.4603232
841.56136
831.0924856
829.5579339
810.9848817
782.9388613
763.1695875
777.3619205
782.0462148
799.2268309
797.769932
811.2753483
819.3588739
815.8942461
822.3562128
826.4257141
828.44441
828.8693843
836.8826518
848.1322499
850.7614819
851.4173664
857.1953234
855.5424112
860.8459549
861.9425027
860.7837265
855.8857904
851.4188174
847.4613037
850.669167
844.337999
825.6477365
818.1531665
804.3359017
784.6300257
710.9725335
741.5934066
747.7163014
760.3905542
770.1371051
778.40735
785.548005
790.2974792
801.2018987
798.0830817
805.0553345
811.1573964
809.1880896
817.9440409
829.5635272
831.3311768
835.5304393
832.4778739
832.2212029
841.8891104
840.2924152
840.2453318
840.7041579
832.7568714
834.1396878
838.8007893
830.3685534
823.6013483
807.9742047
785.7397449
654.2243846
683.9074196
709.9642143
724.4704396
739.9603599
744.2576703
752.9039051
768.7673191
777.0981697
781.1848604
780.6843856
791.8551899
790.1591528
802.8372089
799.9097701
808.5223862
814.05819
815.0056296
816.275903
817.2708649
821.2513578
824.9596729
827.2605256
828.40511
826.8763815
822.7735756
816.3091028
811.8649395
797.907712
783.8883672
590.7260369
624.6220461
655.2753496
676.5745948
694.251626
710.2125108
719.7094254
733.4073427
739.506278
758.8955202
756.8784318
761.4050932
774.1096803
776.9335175
781.8621145
783.4824896
787.4399806
796.8462551
797.1257544
799.9395955
811.8234818
812.5937871
819.6632871
820.8305436
810.7238622
816.1677965
807.0268585
793.1331034
791.2200275
777.7759719
546.2938057
579.0187816
597.4336624
621.9512472
641.9242547
667.8888685
686.4588131
702.5555201
712.0596828
718.8925182
729.8733938
740.0078641
749.8514599
759.5310673
765.7861821
765.2040919
768.1729879
778.6455978
783.9783544
785.121428
791.3551035
796.5348572
793.309007
791.7890394
799.1319011
793.3866213
796.0400623
789.931499
783.3261385
773.7331601
485.9696809
519.5901158
556.2195691
572.4801904
601.9157024
626.9515131
644.1914931
665.4442033
681.1497245
697.1620941
707.581085
722.4486631
728.6815412
735.6873118
743.7479824
751.9968308
753.92674
761.0224195
764.3819522
767.7308312
771.456892
782.4645284
781.7922258
793.4035141
783.1710196
777.7020877
777.179087
772.0479248
773.9872568
765.1205461
449.1707543
469.2304627
498.8274741
524.6636322
558.2934329
584.6726432
600.2211129
621.5566932
635.6143108
657.2574819
667.2371082
684.9631316
696.7169042
710.1306718
719.753914
729.5017101
741.5264463
740.9466377
743.1763628
744.6575423
745.5179054
753.6793079
763.2714656
762.5029129
770.1127597
766.3855525
774.9755679
775.1079138
766.5234091
755.0409846
413.7710431
428.5119457
451.9746742
473.3563543
505.3117104
532.0671508
548.8333914
574.8470565
599.8934925
618.4386312
639.4934188
651.5608791
665.8307988
677.3867361
686.1202493
699.7082765
708.7396066
712.3561375
716.5078608
722.0524529
728.8139831
738.3698124
742.9938374
745.4727262
750.9718897
748.9438741
749.9668089
756.1959313
751.7491661
738.5139702
392.2526047
405.9231918
423.2653366
445.6121577
461.7154017
488.2281525
515.2045674
543.7136425
559.1923142
571.2244696
592.9329749
612.2670272
622.6566832
636.91219
664.5996363
672.0291528
687.4891114
696.3250516
700.8970472
702.2119436
706.6116829
715.3812124
721.0741133
729.0431924
735.5799018
734.0915641
733.6559207
739.2993163
736.2461937
369.5871183
375.0362094
391.7064211
414.3050216
429.0911843
445.2040009
469.7575315
490.6642363
516.4629915
533.2347709
555.7169167
578.9866328
596.3191618
616.8811747
635.7677296
649.1276638
664.5287693
679.0467454
686.0736712
687.7859944
683.6224589
697.0315384
703.2944857
710.9599505
711.9715431
355.4281188
362.0204474
379.6664289
394.5542344
405.7735681
414.1436278
431.1250749
455.7121775
470.4939183
501.6520878
521.9763846
536.0548271
558.4869906
579.0879691
598.7648579
616.6190564
634.3875511
651.0395018
657.569107
340.2568505
349.3609157
350.5690851
365.753196
387.3744627
396.743132
405.6621634
420.5224817
443.9202912
461.0033959
486.6024844
507.4943798
521.4740526
538.0600913
335.0002779
338.6306025
338.7912024
344.4185391
363.9742117
379.0365618
382.8988884
395.4371956
323.8168688
)
;

boundaryField
{
    flow
    {
        type            calculated;
        value           nonuniform List<scalar> 
15
(
705.2504934
729.2018285
756.1053698
763.1062201
769.3972269
771.794844
782.9388613
784.6300257
785.7397449
783.8883672
777.7759719
773.7331601
765.1205461
755.0409846
738.5139702
)
;
    }
    obstacle
    {
        type            calculated;
        value           nonuniform List<scalar> 
30
(
736.9108143
735.0506426
713.9399528
711.4343072
700.1207467
708.6791541
707.40103
723.6058184
679.7370593
682.6871937
705.4510614
686.395067
681.4099479
677.4517886
688.1233611
680.5135829
679.2310484
669.35298
659.5917855
642.8358681
682.5770887
651.4250257
648.8003962
693.3533205
669.8079212
677.4435023
679.8365441
662.9969548
663.3042851
672.9008911
)
;
    }
    frontAndBack
    {
        type            empty;
    }
    procBoundary1to0
    {
        type            processor;
        value           nonuniform List<scalar> 
21
(
853.319455
932.5510645
924.796342
909.9739012
872.0202478
842.6192828
791.5174035
734.630427
684.74837
624.7659977
561.6275346
508.4081469
466.0262748
430.454885
399.8696135
379.4381926
359.2970657
340.6748122
333.8881538
326.1055253
319.6550946
)
;
    }
    procBoundary1to3
    {
        type            processor;
        value           nonuniform List<scalar> 
36
(
732.1013242
716.9518663
725.4665299
725.863037
732.1013242
721.9973735
669.0033971
682.148606
687.6066861
686.3175753
696.315704
716.9518663
701.7863269
564.0483572
587.3779465
599.6356504
616.8344503
669.0033971
634.0055255
414.5991381
426.5591586
439.8482431
467.6735342
484.1958052
564.0483572
502.9425412
325.0977368
329.8223902
331.3827767
345.0539641
357.6640779
363.4542034
414.5991381
377.242258
325.0977368
315.814343
)
;
    }
}


// ************************************************************************* //
