/*--------------------------------*- C++ -*----------------------------------*\
| =========                 |                                                 |
| \\      /  F ield         | OpenFOAM: The Open Source CFD Toolbox           |
|  \\    /   O peration     | Version:  2406                                  |
|   \\  /    A nd           | Website:  www.openfoam.com                      |
|    \\/     M anipulation  |                                                 |
\*---------------------------------------------------------------------------*/
FoamFile
{
    version     2.0;
    format      ascii;
    arch        "LSB;label=32;scalar=64";
    class       volScalarField;
    location    "0.005";
    object      p;
}
// * * * * * * * * * * * * * * * * * * * * * * * * * * * * * * * * * * * * * //

dimensions      [1 -1 -2 0 0 0 0];

internalField   nonuniform List<scalar> 
546
(
3.944437138
3.864896409
3.754600916
3.675310665
3.574460252
3.5824947
3.587828937
3.4897396
3.498904613
3.481977814
3.382371843
3.391627556
3.2318271
3.344133344
3.273703394
3.162052795
3.1209872
3.099493549
3.125646312
3.095147238
3.050066817
3.023983613
3.036132103
3.025592307
2.830228159
2.772431674
2.642182495
2.516629023
2.327295145
1.8742046
3.857882839
3.791825274
3.75698352
3.721600953
3.665739139
3.641473025
3.567667799
3.536530458
3.477427303
3.451095068
3.395535247
3.371671557
3.375910824
3.357727433
3.357181654
3.283354608
3.212883325
3.235624516
3.145209656
3.119630837
3.081263864
3.086421211
3.054981846
2.924801106
2.821680344
2.790419641
2.664445523
2.49936305
2.221620776
1.712966241
3.611289874
3.69583714
3.618620419
3.633276112
3.53249847
3.482483298
3.498560684
3.472375818
3.455371513
3.424404338
3.445473725
3.405243745
3.377062399
3.325506501
3.308318934
3.181143864
3.206872388
3.172905901
3.140910579
3.11985995
3.02651991
3.043132966
3.066191703
2.921638711
2.832714139
2.727434742
2.636307624
2.465434557
2.150360512
1.782392771
3.404528453
3.426993847
3.533305766
3.471304727
3.46970438
3.444691643
3.392742215
3.4135535
3.418677133
3.385585858
3.361650913
3.334745645
3.321070282
3.29519418
3.211006102
3.135283969
3.125720932
3.136316849
3.125408911
3.112468286
3.028888884
3.017978328
2.962430181
2.898207869
2.849851119
2.717991254
2.600004159
2.417901449
2.195381323
1.90312894
3.105794381
3.167057954
3.267332245
3.316418354
3.34061187
3.338704324
3.23982138
3.258051403
3.332336228
3.237495922
3.251450696
3.284885934
3.28279763
3.257547672
3.174892869
3.168413739
3.100206574
3.150533207
3.130324623
3.07212582
2.996484523
2.928992701
2.889926646
2.894051357
2.80704089
2.715545475
2.65197419
2.412140252
2.215815142
1.90141057
2.813122254
2.89314705
3.000263907
3.070617335
3.074533862
3.090072536
3.124015807
3.157981667
3.202665423
3.203929026
3.19326963
3.209019002
3.186411257
3.215255068
3.167941618
3.191506527
3.074246663
3.13647195
3.071899556
3.045145275
2.987280105
2.886850739
2.854906144
2.876912596
2.83182195
2.700025998
2.540904669
2.416698831
2.281136839
1.947729793
2.484519198
2.651951866
2.72896283
2.817463701
2.847484491
2.973987654
2.973851133
3.023061811
2.997990533
3.068027761
3.103385027
3.149682251
3.15054358
3.166051883
3.104282463
3.070372988
3.091758433
3.064253597
3.051444729
3.002927195
2.973720769
2.91829357
2.865353005
2.833548974
2.79675004
2.667396162
2.565660214
2.481339658
2.278143292
2.065636459
2.150098433
2.299813657
2.415252416
2.600246258
2.619840433
2.721461238
2.81995663
2.863960213
2.890738206
2.923300351
2.975553816
2.997979517
2.99732099
3.032103447
3.06086612
3.078246328
3.056939983
2.986920093
3.015256187
2.988178211
2.994302592
2.93399454
2.867157367
2.771390847
2.765310445
2.704980325
2.558328469
2.435049273
2.30225661
2.131459891
1.833710981
2.015138185
2.134834006
2.261058717
2.407298687
2.498046704
2.601315784
2.660919278
2.780782477
2.75732734
2.806850204
2.878929657
2.904281363
2.956784172
2.989944798
3.033038946
2.996785796
2.95635831
2.945399626
2.924068892
2.90554414
2.869472314
2.825449251
2.768603579
2.765919624
2.738673914
2.606455491
2.500810728
2.35983579
2.17772404
1.521277006
1.670392005
1.823413571
1.970299989
2.11157363
2.199698719
2.333819044
2.451785144
2.555281263
2.661430384
2.688911864
2.781865885
2.794876034
2.889990588
2.866235372
2.882022293
2.897146074
2.879027483
2.844762788
2.847341531
2.882714282
2.858548017
2.84071781
2.742790774
2.741762657
2.708200107
2.633132366
2.539070564
2.377145864
2.232764184
1.281043408
1.429916964
1.576027252
1.701416334
1.841548801
1.972123961
2.086825216
2.235815607
2.350584858
2.492903956
2.531963639
2.573566826
2.682599889
2.7201209
2.750947387
2.757089065
2.782754508
2.844626328
2.815037206
2.812114362
2.865569596
2.838821945
2.838872023
2.804906218
2.659777142
2.661437778
2.63307442
2.551017095
2.463645595
2.295946503
1.107996687
1.238638901
1.316908525
1.43796665
1.56935808
1.721110576
1.861484636
1.982807194
2.102786678
2.197398149
2.286880832
2.372491827
2.478366519
2.582352528
2.629384455
2.681145196
2.694104627
2.733219047
2.802588969
2.777948927
2.772238724
2.809404425
2.754742591
2.739107693
2.73689262
2.671592864
2.634846614
2.525019429
2.469175818
2.39108739
0.9093486434
1.013162646
1.148192301
1.212590656
1.340871867
1.482618939
1.601871689
1.714169502
1.820689393
1.926326448
2.055993035
2.205062535
2.310927067
2.401829612
2.48424329
2.545283217
2.590531677
2.642278486
2.668446775
2.700303705
2.7282802
2.801773411
2.760331864
2.809186205
2.761434122
2.667526019
2.619518675
2.561157039
2.526617372
2.416079624
0.7877621652
0.8575740733
0.9482560586
1.038861354
1.168118636
1.26946936
1.352763933
1.477696847
1.587482096
1.742465401
1.844016475
1.964270453
2.074217186
2.195371631
2.286876317
2.386919908
2.490711213
2.551425023
2.571433151
2.608743419
2.601600151
2.648564854
2.730855408
2.724881806
2.70639557
2.650984422
2.7004785
2.657055092
2.532788319
2.428796923
0.7076839944
0.753272286
0.8209349923
0.8754404561
0.9739269865
1.069425957
1.151753927
1.269787704
1.388226671
1.505953668
1.611430601
1.696128509
1.847129151
1.995392318
2.111248256
2.251236159
2.324691045
2.379599113
2.421468811
2.476732757
2.551232708
2.626566216
2.646075103
2.657239962
2.704395021
2.652521175
2.628214391
2.647995322
2.597393338
2.461850901
0.6287227587
0.6557561775
0.7122923515
0.7665854728
0.825843398
0.9099293404
1.007458654
1.113558493
1.202062378
1.268090506
1.395687862
1.530143228
1.594405474
1.710627625
1.898076494
1.994397229
2.108021164
2.216050045
2.294091433
2.378180136
2.404953464
2.461214596
2.528148259
2.588020233
2.620655132
2.590726026
2.589725656
2.587759231
2.553906862
0.5780385297
0.5996979116
0.6384700314
0.7119785262
0.7445291879
0.7933291894
0.8677711878
0.9579818256
1.048670726
1.131389548
1.227765994
1.326006906
1.405464125
1.515331834
1.640830358
1.759980409
1.922999684
2.071269629
2.194320021
2.189429773
2.24458175
2.400764582
2.436120417
2.517894047
2.508760658
0.5454665605
0.5640635402
0.6092551682
0.6394349259
0.6763397552
0.7069611522
0.7495374523
0.8124105394
0.8742006441
0.97327635
1.038308158
1.123977856
1.247281467
1.353691401
1.470924922
1.591069022
1.695571116
1.829186403
1.902777014
0.5046646932
0.5271842014
0.5302187277
0.5672931271
0.622606013
0.6438009173
0.6770031924
0.7197457991
0.7871082057
0.8362001942
0.9429479622
1.008748537
1.068428224
1.145969239
0.4918782078
0.497001242
0.4995859963
0.5165180468
0.5615451877
0.5963630728
0.6098063138
0.6513002283
0.4649115149
)
;

boundaryField
{
    flow
    {
        type            calculated;
        value           nonuniform List<scalar> 
15
(
1.8742046
1.712966241
1.782392771
1.90312894
1.90141057
1.947729793
2.065636459
2.131459891
2.17772404
2.232764184
2.295946503
2.39108739
2.416079624
2.428796923
2.461850901
)
;
    }
    obstacle
    {
        type            calculated;
        value           nonuniform List<scalar> 
30
(
3.24004057
3.281343406
3.183187866
3.153298714
3.035518241
3.073060586
3.105380925
3.138558537
3.065445264
3.051359911
2.973382738
3.017204173
2.875980731
2.976985927
3.002243822
2.861124357
2.900337165
2.757425306
2.809072971
2.837611926
2.750545953
2.723294043
2.768402509
2.758597526
2.625527444
2.537519185
2.404961115
2.363969937
2.155842207
1.953518194
)
;
    }
    frontAndBack
    {
        type            empty;
    }
    procBoundary1to0
    {
        type            processor;
        value           nonuniform List<scalar> 
21
(
4.029050567
3.973598275
3.693185661
3.410081387
3.053016609
2.690716606
2.347561013
1.951833476
1.655931659
1.377387306
1.162759037
0.9830671556
0.8560005284
0.7414570233
0.6611595199
0.6031793864
0.5509615561
0.5091196081
0.4921371283
0.46764283
0.4563758788
)
;
    }
    procBoundary1to3
    {
        type            processor;
        value           nonuniform List<scalar> 
36
(
2.498157942
2.543587796
2.605060017
2.555954474
2.498157942
2.510911804
2.055090239
2.16795239
2.249735008
2.301380818
2.413840036
2.543587796
2.473745605
1.268623143
1.403547918
1.484527157
1.600016442
2.055090239
1.726723524
0.7047639802
0.7482673643
0.7838627409
0.8828737312
0.9411114472
1.268623143
1.015462875
0.4735578214
0.4820292499
0.4828077793
0.5228435475
0.5616083259
0.5736512981
0.7047639802
0.6136929354
0.4735578214
0.4531307192
)
;
    }
}


// ************************************************************************* //
