/*--------------------------------*- C++ -*----------------------------------*\
| =========                 |                                                 |
| \\      /  F ield         | OpenFOAM: The Open Source CFD Toolbox           |
|  \\    /   O peration     | Version:  2406                                  |
|   \\  /    A nd           | Website:  www.openfoam.com                      |
|    \\/     M anipulation  |                                                 |
\*---------------------------------------------------------------------------*/
FoamFile
{
    version     2.0;
    format      ascii;
    arch        "LSB;label=32;scalar=64";
    class       volScalarField;
    location    "0.005";
    object      rhoMMean;
}
// * * * * * * * * * * * * * * * * * * * * * * * * * * * * * * * * * * * * * //

dimensions      [1 -3 0 0 0 0 0];

internalField   nonuniform List<scalar> 
546
(
1.470010205e-05
1.475008077e-05
1.459821528e-05
1.454797726e-05
1.430497441e-05
1.432626429e-05
1.448091947e-05
1.439838659e-05
1.472712655e-05
1.472640631e-05
1.442201701e-05
1.451688531e-05
1.379940707e-05
1.43157491e-05
1.425096647e-05
1.39481891e-05
1.353633541e-05
1.382949802e-05
1.401869834e-05
1.373309797e-05
1.362607895e-05
1.378171489e-05
1.375734692e-05
1.3476634e-05
1.274372406e-05
1.254873763e-05
1.212276493e-05
1.173657102e-05
1.080924228e-05
8.853258023e-06
1.307217007e-05
1.307483605e-05
1.301826563e-05
1.308280514e-05
1.301752911e-05
1.316659139e-05
1.301124953e-05
1.306123879e-05
1.2929274e-05
1.301467448e-05
1.300208e-05
1.301275844e-05
1.293123052e-05
1.295940941e-05
1.305726556e-05
1.292730108e-05
1.273707082e-05
1.280111265e-05
1.263669829e-05
1.257805925e-05
1.234014208e-05
1.24244435e-05
1.244889432e-05
1.194831784e-05
1.171495445e-05
1.174315669e-05
1.128262134e-05
1.070001606e-05
9.824309589e-06
8.179787074e-06
1.222220461e-05
1.249438251e-05
1.244395452e-05
1.238753964e-05
1.216627363e-05
1.215040915e-05
1.223465395e-05
1.219856317e-05
1.233045285e-05
1.22199114e-05
1.245263536e-05
1.239697124e-05
1.231516466e-05
1.233163298e-05
1.22117057e-05
1.187920688e-05
1.21780497e-05
1.200296634e-05
1.198257482e-05
1.185520246e-05
1.171217443e-05
1.178708022e-05
1.209329353e-05
1.146791996e-05
1.112787749e-05
1.090756425e-05
1.076878491e-05
1.032317341e-05
9.247401971e-06
8.256272515e-06
1.153759837e-05
1.172178841e-05
1.206045456e-05
1.203752998e-05
1.203883059e-05
1.196181171e-05
1.195585365e-05
1.201872581e-05
1.213367253e-05
1.205587717e-05
1.20278415e-05
1.199983842e-05
1.200452416e-05
1.197773344e-05
1.178707706e-05
1.157918323e-05
1.158729801e-05
1.172377661e-05
1.166236074e-05
1.169303064e-05
1.146782735e-05
1.140497418e-05
1.127185551e-05
1.111982275e-05
1.102864475e-05
1.068878823e-05
1.050985942e-05
9.942664844e-06
9.404938974e-06
8.678071077e-06
1.078127481e-05
1.106190577e-05
1.143563357e-05
1.169025207e-05
1.186093404e-05
1.186181146e-05
1.173787543e-05
1.181584266e-05
1.20123863e-05
1.177095005e-05
1.178891769e-05
1.193972623e-05
1.200486854e-05
1.192696183e-05
1.181036024e-05
1.178400624e-05
1.154878211e-05
1.163681829e-05
1.149417465e-05
1.142515251e-05
1.132716485e-05
1.110212678e-05
1.091592167e-05
1.096383781e-05
1.072408358e-05
1.060770267e-05
1.058058711e-05
9.971108471e-06
9.502381195e-06
8.709405142e-06
1.005320029e-05
1.034470734e-05
1.07495747e-05
1.105064517e-05
1.124943896e-05
1.145620396e-05
1.155916681e-05
1.164207061e-05
1.179032525e-05
1.188311689e-05
1.188004886e-05
1.183288053e-05
1.174367529e-05
1.18171871e-05
1.180281076e-05
1.18550966e-05
1.152284886e-05
1.166071202e-05
1.154715127e-05
1.146368365e-05
1.134701971e-05
1.10568457e-05
1.102391379e-05
1.114863364e-05
1.097561032e-05
1.058316957e-05
1.024948188e-05
1.005052596e-05
9.700221192e-06
8.852289088e-06
9.114098024e-06
9.67136476e-06
1.000981498e-05
1.040749344e-05
1.069051662e-05
1.109166594e-05
1.119141697e-05
1.137718273e-05
1.138060901e-05
1.164146159e-05
1.176681804e-05
1.191928145e-05
1.196859691e-05
1.198098289e-05
1.171387624e-05
1.160955606e-05
1.163183101e-05
1.156840939e-05
1.153802926e-05
1.14224376e-05
1.137039441e-05
1.127359298e-05
1.108150441e-05
1.107709373e-05
1.101173967e-05
1.076570997e-05
1.044602109e-05
1.020050216e-05
9.758816073e-06
9.229045603e-06
8.239659517e-06
8.75009311e-06
9.225239975e-06
9.770031265e-06
1.002077362e-05
1.036215544e-05
1.076334816e-05
1.10500719e-05
1.112240502e-05
1.126413962e-05
1.149099806e-05
1.168871843e-05
1.162814592e-05
1.170594533e-05
1.182643906e-05
1.184029741e-05
1.180012574e-05
1.163715454e-05
1.164188173e-05
1.157066274e-05
1.157284096e-05
1.134919311e-05
1.121562556e-05
1.099161372e-05
1.097830136e-05
1.086451419e-05
1.053353652e-05
1.02408917e-05
9.969938049e-06
9.576034129e-06
7.463522964e-06
7.936106942e-06
8.390662146e-06
8.841392554e-06
9.394817576e-06
9.737885707e-06
1.013248825e-05
1.043700391e-05
1.082030583e-05
1.08965295e-05
1.109020234e-05
1.133665006e-05
1.154312571e-05
1.172825085e-05
1.181219749e-05
1.194972197e-05
1.187918866e-05
1.180310372e-05
1.178009213e-05
1.164573269e-05
1.16070721e-05
1.15119129e-05
1.129248181e-05
1.116454706e-05
1.110814922e-05
1.101801314e-05
1.074878505e-05
1.043050179e-05
1.006068991e-05
9.703751343e-06
6.706639355e-06
7.064902504e-06
7.504468587e-06
7.956005199e-06
8.456255224e-06
8.889121905e-06
9.440661413e-06
9.791459174e-06
1.019807193e-05
1.05718332e-05
1.082677719e-05
1.109910368e-05
1.125219386e-05
1.150467511e-05
1.159792104e-05
1.166090259e-05
1.169205596e-05
1.169880563e-05
1.16371582e-05
1.168758422e-05
1.173233811e-05
1.167214644e-05
1.157001641e-05
1.119004435e-05
1.116854742e-05
1.108954466e-05
1.091670521e-05
1.069627773e-05
1.022171068e-05
9.855745038e-06
6.321735691e-06
6.668090277e-06
7.020945968e-06
7.368860804e-06
7.763267958e-06
8.147805399e-06
8.596426965e-06
9.157338311e-06
9.619133736e-06
1.010443474e-05
1.038849232e-05
1.060873076e-05
1.090441728e-05
1.109281054e-05
1.124963521e-05
1.129573839e-05
1.14697147e-05
1.164706816e-05
1.159675427e-05
1.161153981e-05
1.170030754e-05
1.162121047e-05
1.152927365e-05
1.150733762e-05
1.105448647e-05
1.096042488e-05
1.094194383e-05
1.092736199e-05
1.070393237e-05
1.023553105e-05
5.944875411e-06
6.212609588e-06
6.444131033e-06
6.7742772e-06
7.133419097e-06
7.525330598e-06
7.975580603e-06
8.37395802e-06
8.799487359e-06
9.207769061e-06
9.595624105e-06
9.929503483e-06
1.030174086e-05
1.065703889e-05
1.086287901e-05
1.118022588e-05
1.124513837e-05
1.141434192e-05
1.166252883e-05
1.162215302e-05
1.155097018e-05
1.169751325e-05
1.156585835e-05
1.153441717e-05
1.150954274e-05
1.136408578e-05
1.11972451e-05
1.090682389e-05
1.083588332e-05
1.070361157e-05
5.569777838e-06
5.745028627e-06
6.052535112e-06
6.232750849e-06
6.549505096e-06
6.928650921e-06
7.280928691e-06
7.604931828e-06
7.980128428e-06
8.295800208e-06
8.746387823e-06
9.338658361e-06
9.815725725e-06
1.01669756e-05
1.046726497e-05
1.06625693e-05
1.092291402e-05
1.112763061e-05
1.12786788e-05
1.146877809e-05
1.155231598e-05
1.175525947e-05
1.168631329e-05
1.174694391e-05
1.172617821e-05
1.149747396e-05
1.13612927e-05
1.122748345e-05
1.109158515e-05
1.083724134e-05
5.309762453e-06
5.477493657e-06
5.64343464e-06
5.902943634e-06
6.171333402e-06
6.407170462e-06
6.67180851e-06
7.031189633e-06
7.368354951e-06
7.839088637e-06
8.255095792e-06
8.620601971e-06
9.016220804e-06
9.470886604e-06
9.851017133e-06
1.019930426e-05
1.057218347e-05
1.091671999e-05
1.107551344e-05
1.128563381e-05
1.132017777e-05
1.143467299e-05
1.175899981e-05
1.180072968e-05
1.172019248e-05
1.163401224e-05
1.169353591e-05
1.151380667e-05
1.121510909e-05
1.101022691e-05
5.26346125e-06
5.369312722e-06
5.505337878e-06
5.572399084e-06
5.735502154e-06
5.960492604e-06
6.211873258e-06
6.48936709e-06
6.821533149e-06
7.183805065e-06
7.508583761e-06
7.802837173e-06
8.315469404e-06
8.89216354e-06
9.372532162e-06
9.903001785e-06
1.020434701e-05
1.045995215e-05
1.069897734e-05
1.096673829e-05
1.129863495e-05
1.152423707e-05
1.162857349e-05
1.170027521e-05
1.183179119e-05
1.177827602e-05
1.175990052e-05
1.176664043e-05
1.158062648e-05
1.12868697e-05
5.071747187e-06
5.057804334e-06
5.187281151e-06
5.263773684e-06
5.436099786e-06
5.618498227e-06
5.853318813e-06
6.098927471e-06
6.370999629e-06
6.61555349e-06
7.008345156e-06
7.424270799e-06
7.689117144e-06
8.075189901e-06
8.601694477e-06
8.99605115e-06
9.432809687e-06
9.876053039e-06
1.021339941e-05
1.065722559e-05
1.084944307e-05
1.107002349e-05
1.129694406e-05
1.155487203e-05
1.170091976e-05
1.170942101e-05
1.174895091e-05
1.171525439e-05
1.167167665e-05
4.999680072e-06
5.077848274e-06
5.135609978e-06
5.318357742e-06
5.346260562e-06
5.448748966e-06
5.607991478e-06
5.822123205e-06
5.990988448e-06
6.25761114e-06
6.501138787e-06
6.738193131e-06
7.025807408e-06
7.386245406e-06
7.748686036e-06
8.206227194e-06
8.772333261e-06
9.310752897e-06
9.832298618e-06
9.906685376e-06
1.029519853e-05
1.081193925e-05
1.104056192e-05
1.130570909e-05
1.139647301e-05
5.005957382e-06
5.066795828e-06
5.125570639e-06
5.137849472e-06
5.218433236e-06
5.29802257e-06
5.347891124e-06
5.431298888e-06
5.618136811e-06
5.780565125e-06
5.947295993e-06
6.251954429e-06
6.608701673e-06
6.95327707e-06
7.29189387e-06
7.654812635e-06
7.978219355e-06
8.477453108e-06
8.832035222e-06
4.902575321e-06
4.91968044e-06
4.956122384e-06
4.99993402e-06
5.065875584e-06
5.101905699e-06
5.193232148e-06
5.285370425e-06
5.448311816e-06
5.544169157e-06
5.823466425e-06
5.969667797e-06
6.141617313e-06
6.397061482e-06
4.87407059e-06
4.884179766e-06
4.903000109e-06
4.950280227e-06
5.004788125e-06
5.035880513e-06
5.103433011e-06
5.225001836e-06
4.811818251e-06
)
;

boundaryField
{
    flow
    {
        type            calculated;
        value           nonuniform List<scalar> 
15
(
8.853258023e-06
8.179787074e-06
8.256272515e-06
8.678071077e-06
8.709405142e-06
8.852289088e-06
9.229045603e-06
9.576034129e-06
9.703751343e-06
9.855745038e-06
1.023553105e-05
1.070361157e-05
1.083724134e-05
1.101022691e-05
1.12868697e-05
)
;
    }
    obstacle
    {
        type            calculated;
        value           nonuniform List<scalar> 
30
(
6.381394906e-24
6.405424409e-24
6.553958822e-24
6.579834273e-24
6.34780154e-24
6.25152876e-24
6.542562223e-24
6.048833581e-24
6.786558275e-24
6.238532505e-24
6.185273117e-24
6.441101819e-24
5.951409133e-24
6.478732828e-24
6.310998777e-24
5.975495077e-24
5.973397765e-24
5.812813682e-24
6.10090638e-24
6.317580227e-24
5.790759049e-24
5.688058508e-24
6.112045414e-24
6.043051808e-24
5.694811583e-24
5.255922973e-24
5.220550688e-24
5.305774398e-24
4.594893877e-24
4.145345639e-24
)
;
    }
    frontAndBack
    {
        type            empty;
    }
    procBoundary1to0
    {
        type            processor;
        value           nonuniform List<scalar> 
21
(
1.46883134e-05
1.312837298e-05
1.22756115e-05
1.136628636e-05
1.05215238e-05
9.488761277e-06
8.651402361e-06
7.695545521e-06
6.984108602e-06
6.343322962e-06
6.053408794e-06
5.684390407e-06
5.479306067e-06
5.230158314e-06
5.159628403e-06
5.058846519e-06
4.96036074e-06
4.941758944e-06
4.89299629e-06
4.842187159e-06
4.81790474e-06
)
;
    }
    procBoundary1to3
    {
        type            processor;
        value           nonuniform List<scalar> 
36
(
1.151151147e-05
1.154617145e-05
1.179039894e-05
1.169126558e-05
1.151151147e-05
1.165800983e-05
9.415669561e-06
9.82167968e-06
1.018375532e-05
1.059472679e-05
1.1010414e-05
1.154617145e-05
1.128978158e-05
6.726380385e-06
7.116298601e-06
7.448082183e-06
7.769507458e-06
9.415669561e-06
8.237970951e-06
5.305798841e-06
5.415464163e-06
5.486004339e-06
5.685477668e-06
5.852948737e-06
6.726380385e-06
6.065929751e-06
4.868450188e-06
4.876015911e-06
4.855519561e-06
4.951037293e-06
5.043582385e-06
5.078356085e-06
5.305798841e-06
5.177465023e-06
4.868450188e-06
4.84278104e-06
)
;
    }
}


// ************************************************************************* //
