/*--------------------------------*- C++ -*----------------------------------*\
| =========                 |                                                 |
| \\      /  F ield         | OpenFOAM: The Open Source CFD Toolbox           |
|  \\    /   O peration     | Version:  2406                                  |
|   \\  /    A nd           | Website:  www.openfoam.com                      |
|    \\/     M anipulation  |                                                 |
\*---------------------------------------------------------------------------*/
FoamFile
{
    version     2.0;
    format      ascii;
    arch        "LSB;label=32;scalar=64";
    class       volScalarField;
    location    "0.005";
    object      rhoM;
}
// * * * * * * * * * * * * * * * * * * * * * * * * * * * * * * * * * * * * * //

dimensions      [1 -3 0 0 0 0 0];

internalField   nonuniform List<scalar> 
546
(
1.408108734e-05
1.200849698e-05
1.837464213e-05
1.87401282e-05
1.21275307e-05
1.693665615e-05
1.418325353e-05
1.178055745e-05
2.136858618e-05
1.539358626e-05
1.398900771e-05
1.345243658e-05
1.184487926e-05
1.523384223e-05
1.469629075e-05
9.29084836e-06
1.392682656e-05
1.344760441e-05
1.064238006e-05
1.739878233e-05
1.152338575e-05
1.972520757e-05
1.18133211e-05
8.512784391e-06
1.003457149e-05
1.842653418e-05
1.17825235e-05
8.45363941e-06
9.374742314e-06
1.021869203e-05
1.624169646e-05
1.073320436e-05
1.603116661e-05
9.827453701e-06
1.28943704e-05
1.523528244e-05
1.885859755e-05
1.554897376e-05
1.851931425e-05
1.276237848e-05
1.366848983e-05
1.871994517e-05
1.519479951e-05
1.778814853e-05
1.677097591e-05
1.272352962e-05
5.402080793e-06
1.29365985e-05
1.339006787e-05
1.618682312e-05
1.204755839e-05
9.598246979e-06
1.474558817e-05
1.182815356e-05
1.57309283e-05
9.39509886e-06
1.279387156e-05
1.198277166e-05
7.312479658e-06
7.474847294e-06
1.274088603e-05
1.095761789e-05
1.338260442e-05
1.378843847e-05
1.527508646e-05
1.044134873e-05
1.223581927e-05
1.146557687e-05
1.511596428e-05
1.029017204e-05
1.422939611e-05
1.337166828e-05
1.012921041e-05
1.778814853e-05
1.021193089e-05
1.439815582e-05
1.088828319e-05
1.166010886e-05
9.184027685e-06
1.185869519e-05
1.003998247e-05
1.215192847e-05
8.971726176e-06
8.334158657e-06
1.22959639e-05
6.840664725e-06
1.003282763e-05
1.27256291e-05
1.078072785e-05
1.220584986e-05
1.475298271e-05
6.004248484e-06
9.754349702e-06
8.988600261e-06
1.389255627e-05
1.12911041e-05
1.122232747e-05
1.452954337e-05
1.139708769e-05
1.268287782e-05
1.045169105e-05
1.053501717e-05
1.119157223e-05
1.268151964e-05
1.452879599e-05
1.171835061e-05
1.22382951e-05
1.710742142e-05
1.407647296e-05
1.203123649e-05
8.293441405e-06
1.109450123e-05
6.929062342e-06
5.824763906e-06
1.238607114e-05
9.851875621e-06
9.296697074e-06
6.222829564e-06
7.875325509e-06
1.040729393e-05
1.058027691e-05
7.730176129e-06
1.746666773e-05
8.76082298e-06
8.979974944e-06
1.41524207e-05
1.028650775e-05
7.93197717e-06
1.18722841e-05
1.236295369e-05
2.53240596e-05
6.888730954e-06
1.584810654e-05
1.350625732e-05
1.768319742e-05
1.699251577e-05
1.569947964e-05
1.174493483e-05
1.055683786e-05
7.530567264e-06
1.309590362e-05
1.197639766e-05
1.261439196e-05
8.423471524e-06
1.392224997e-05
1.131092443e-05
8.00791424e-06
9.196496888e-06
1.153043626e-05
8.705318235e-06
8.716692678e-06
8.781055223e-06
1.270253435e-05
1.356066121e-05
8.366133399e-06
8.506868645e-06
1.176790942e-05
1.068096309e-05
8.311170821e-06
1.068959682e-05
9.728589149e-06
7.050267548e-06
1.805227976e-05
9.716828201e-06
1.270235305e-05
1.146806407e-05
1.527683847e-05
1.251041856e-05
1.484842026e-05
1.289811314e-05
1.03010173e-05
1.074343965e-05
1.403518951e-05
1.29042252e-05
1.84428568e-05
9.670043859e-06
9.388436278e-06
9.474229343e-06
4.593939864e-06
6.718160343e-06
8.642436449e-06
1.215810599e-05
9.225001539e-06
8.912674492e-06
1.174318638e-05
7.811275526e-06
1.169023732e-05
1.185882965e-05
1.385004486e-05
1.188594972e-05
1.101453401e-05
7.61759778e-06
4.819369105e-06
9.634751195e-06
9.465204213e-06
1.858371311e-05
1.358830701e-05
1.523509993e-05
1.124324298e-05
1.393544607e-05
1.248471949e-05
1.681834334e-05
1.092585765e-05
1.102217921e-05
1.148282101e-05
1.605393196e-05
1.178252356e-05
8.173669431e-06
1.012445078e-05
9.176823152e-06
6.929159345e-06
9.381299269e-06
1.361050873e-05
1.317919737e-05
5.755920113e-06
1.299247783e-05
1.083208971e-05
1.185882965e-05
1.305932187e-05
8.614893699e-06
1.117479294e-05
1.337166827e-05
1.42952725e-05
7.658951491e-06
1.361657453e-05
1.615621091e-05
8.524745754e-06
1.217111469e-05
1.115770069e-05
1.359036332e-05
1.353306455e-05
1.07434395e-05
5.596797214e-06
1.030551757e-05
5.876571272e-06
1.267905728e-05
7.271783617e-06
1.244565902e-05
4.593939864e-06
1.135486191e-05
1.17719658e-05
6.079052999e-06
8.090944264e-06
7.084951158e-06
1.043900421e-05
1.152421047e-05
1.059907341e-05
1.083750749e-05
1.028893159e-05
1.108710014e-05
1.109466345e-05
1.280433807e-05
1.478574473e-05
1.367041138e-05
1.187287899e-05
1.146806399e-05
1.485623044e-05
1.344760444e-05
1.65654667e-05
1.350200759e-05
9.42879826e-06
5.723842056e-06
1.2081058e-05
8.872194461e-06
1.112021401e-05
1.049048415e-05
9.941088517e-06
9.939354318e-06
9.561604851e-06
1.050159496e-05
1.087730178e-05
6.079052995e-06
1.043441978e-05
9.827453701e-06
8.826976786e-06
9.589730374e-06
7.247909583e-06
6.675838411e-06
1.203004739e-05
6.939615331e-06
1.173763594e-05
1.280433805e-05
8.822596348e-06
1.40827802e-05
1.095865752e-05
1.456501354e-05
1.282917953e-05
9.107129606e-06
1.038575345e-05
1.056046537e-05
1.126235095e-05
1.532208895e-05
1.030399129e-05
7.88543569e-06
9.131321253e-06
1.496074388e-05
8.099653403e-06
1.272562912e-05
8.718465166e-06
9.367704093e-06
4.842806449e-06
1.013296028e-05
8.24166616e-06
8.836748723e-06
8.366133393e-06
8.27562528e-06
5.53349166e-06
7.225635617e-06
1.155485101e-05
1.029017202e-05
1.640257504e-05
1.061578547e-05
1.772661024e-05
1.12001658e-05
1.062766795e-05
1.146806408e-05
1.240653818e-05
1.174493476e-05
1.081346445e-05
1.09939036e-05
9.42879826e-06
1.100673589e-05
1.003625442e-05
1.308285091e-05
1.16630353e-05
7.936050026e-06
1.251865412e-05
1.198277168e-05
1.00310195e-05
9.082522184e-06
3.278041788e-06
3.752881317e-06
7.258330884e-06
8.303433403e-06
6.601107815e-06
5.568470904e-06
1.059907333e-05
5.732788376e-06
9.338538719e-06
8.853395738e-06
1.109466359e-05
1.215623962e-05
1.23353515e-05
8.811997252e-06
1.079316269e-05
9.290848375e-06
1.645860729e-05
1.276694664e-05
1.038575345e-05
1.133898618e-05
1.649987107e-05
1.276840735e-05
8.261327315e-06
1.182815354e-05
1.112021421e-05
1.176770132e-05
8.468827387e-06
8.081091941e-06
1.08741591e-05
1.031299293e-05
6.481827318e-06
5.478808911e-06
5.444203477e-06
9.675602209e-06
5.602921951e-06
5.027040076e-06
3.351163845e-06
9.266388182e-06
8.309264329e-06
5.343837668e-06
9.808718573e-06
7.859902613e-06
1.584810647e-05
1.564621106e-05
1.502728036e-05
1.247122658e-05
1.232241668e-05
1.106427705e-05
1.330245819e-05
1.168615395e-05
1.326992696e-05
8.718471795e-06
1.812051713e-05
7.168774139e-06
1.184324979e-05
1.641979256e-05
1.196600178e-05
5.945097093e-06
1.771722417e-05
9.556306025e-06
8.345411562e-06
8.480029215e-06
9.225001525e-06
9.21821254e-06
8.672129702e-06
7.734194366e-06
6.70232759e-06
5.576244018e-06
1.195116577e-05
6.301688565e-06
9.165746152e-06
5.186740283e-06
7.678817129e-06
7.74102845e-06
1.652273363e-05
1.054631393e-05
8.863265306e-06
1.217111469e-05
1.038575345e-05
1.532203151e-05
1.126235085e-05
1.206416304e-05
1.678825203e-05
2.061103513e-05
1.021696375e-05
1.64197927e-05
1.187426262e-05
1.207534906e-05
1.462270112e-05
7.663449247e-06
4.917062686e-06
3.227441785e-06
4.310146235e-06
3.351743664e-06
6.140264468e-06
4.872877825e-06
5.143253877e-06
4.083396905e-06
6.727818317e-06
5.18483634e-06
5.788688492e-06
9.967687028e-06
1.119157228e-05
1.045948887e-05
1.195562646e-05
1.088204573e-05
1.333594218e-05
9.702961453e-06
1.501950477e-05
1.090554795e-05
1.012699409e-05
1.32093558e-05
1.092585765e-05
1.156021494e-05
1.283660741e-05
1.003370747e-05
1.003282768e-05
1.068221176e-05
1.27495593e-05
8.705318235e-06
4.917062651e-06
3.227441738e-06
7.182969868e-06
3.275817907e-06
5.526422872e-06
9.512649283e-06
3.974417901e-06
5.654516261e-06
2.216312239e-06
5.663761832e-06
7.4772173e-06
8.913794743e-06
5.881730899e-06
7.741028511e-06
7.223024264e-06
6.61305957e-06
1.063591845e-05
9.787787406e-06
6.695033937e-06
1.064673602e-05
1.082519002e-05
1.417689643e-05
1.403518946e-05
9.499543147e-06
1.328932134e-05
1.340858169e-05
1.44518282e-05
7.89593696e-06
1.218671334e-05
3.725373774e-06
4.353125356e-06
6.352177907e-06
5.485005098e-06
7.214949365e-06
8.817056096e-06
5.143253838e-06
6.439129954e-06
4.669269359e-06
6.381189278e-06
3.697575641e-06
7.69836613e-06
9.394486031e-06
5.434936989e-06
6.060560594e-06
7.365935561e-06
3.713549323e-06
7.830639959e-06
4.892445281e-06
1.073300657e-05
1.065116663e-05
1.030249128e-05
1.074879281e-05
9.856794698e-06
1.247617854e-05
7.151928024e-06
3.977294836e-06
5.444203437e-06
5.485005058e-06
6.063765344e-06
5.104121202e-06
8.026507901e-06
5.104719076e-06
4.9867025e-06
4.546909564e-06
2.331501273e-06
5.186740283e-06
7.269762382e-06
3.541214305e-06
8.302740587e-06
1.029602746e-05
6.667971092e-06
9.107129531e-06
7.552523422e-06
5.29013848e-06
4.728955876e-06
4.385507199e-06
5.636856611e-06
7.061951208e-06
5.027040039e-06
4.597671888e-06
2.827258109e-06
5.698543856e-06
5.423338331e-06
5.788688492e-06
8.184927988e-06
5.963148301e-06
9.716828216e-06
8.642436425e-06
4.353125325e-06
5.444203477e-06
3.275817907e-06
5.526422913e-06
6.264064067e-06
7.793491548e-06
3.455327518e-06
3.725373801e-06
)
;

boundaryField
{
    flow
    {
        type            zeroGradient;
    }
    obstacle
    {
        type            calculated;
        value           nonuniform List<scalar> 
30
(
1.905226942e-24
1e-300
3.194925264e-24
1.954963366e-23
2.107063954e-23
2.461964033e-24
3.29706315e-24
1.975391207e-23
9.706021366e-24
1e-300
1.380598181e-24
6.317615981e-24
1e-300
1.33942123e-23
9.925887624e-24
1e-300
1.141535964e-23
1e-300
3.485302536e-24
3.3740918e-24
1e-300
9.104260578e-24
1.686811959e-23
7.970302627e-24
4.36962015e-24
1.623101383e-23
2.59449863e-23
3.554613797e-24
1e-300
6.449288097e-24
)
;
    }
    frontAndBack
    {
        type            empty;
    }
    procBoundary1to0
    {
        type            processor;
        value           nonuniform List<scalar> 
21
(
1.18337404e-05
1.538457518e-05
9.46770498e-06
7.543964963e-06
8.432119078e-06
8.135473823e-06
8.653266772e-06
1.17600245e-05
6.508379054e-06
4.881284291e-06
5.472793145e-06
4.881284311e-06
7.026172009e-06
8.505834911e-06
3.254189527e-06
3.845698382e-06
4.80756839e-06
5.251645445e-06
4.955000226e-06
3.180473627e-06
5.399077245e-06
)
;
    }
    procBoundary1to3
    {
        type            processor;
        value           nonuniform List<scalar> 
36
(
8.137233258e-06
1.067231601e-05
1.399091525e-05
1.003193181e-05
8.137233258e-06
1.762379289e-05
7.964005557e-06
7.508233966e-06
5.282893831e-06
8.971726192e-06
1.030551757e-05
1.067231601e-05
1.238607108e-05
3.652885839e-06
8.204256862e-06
9.031508507e-06
1.046844521e-05
7.964005557e-06
6.609491737e-06
4.590387745e-06
2.95113189e-06
4.663002546e-06
4.619410063e-06
3.675589893e-06
3.652885839e-06
5.765228807e-06
6.905518603e-06
6.578260798e-06
2.818428305e-06
4.912581322e-06
2.707154347e-06
4.442327761e-06
4.590387745e-06
4.711466293e-06
6.905518603e-06
3.278041767e-06
)
;
    }
}


// ************************************************************************* //
