/*--------------------------------*- C++ -*----------------------------------*\
| =========                 |                                                 |
| \\      /  F ield         | OpenFOAM: The Open Source CFD Toolbox           |
|  \\    /   O peration     | Version:  2406                                  |
|   \\  /    A nd           | Website:  www.openfoam.com                      |
|    \\/     M anipulation  |                                                 |
\*---------------------------------------------------------------------------*/
FoamFile
{
    version     2.0;
    format      ascii;
    arch        "LSB;label=32;scalar=64";
    class       volScalarField;
    location    "0.005";
    object      rhoNMean;
}
// * * * * * * * * * * * * * * * * * * * * * * * * * * * * * * * * * * * * * //

dimensions      [0 -3 0 0 0 0 0];

internalField   nonuniform List<scalar> 
546
(
3.062137903e+20
3.074939995e+20
3.041623122e+20
3.031020417e+20
2.9805058e+20
2.984786113e+20
3.016446358e+20
3.001490619e+20
3.069568592e+20
3.066083612e+20
3.00250692e+20
3.023418651e+20
2.876321879e+20
2.981850729e+20
2.967007284e+20
2.904584204e+20
2.823893513e+20
2.883057315e+20
2.919650909e+20
2.861057798e+20
2.838260698e+20
2.875523322e+20
2.867378983e+20
2.802265397e+20
2.651439717e+20
2.612719173e+20
2.524185042e+20
2.446618895e+20
2.251101107e+20
1.842430059e+20
2.722533494e+20
2.722567808e+20
2.710535772e+20
2.726216353e+20
2.711071885e+20
2.741805914e+20
2.712234554e+20
2.72311589e+20
2.694034743e+20
2.71311027e+20
2.707359337e+20
2.708739489e+20
2.692726863e+20
2.700705934e+20
2.721664948e+20
2.696894259e+20
2.657226004e+20
2.669531682e+20
2.636457122e+20
2.620855302e+20
2.574439413e+20
2.586083108e+20
2.591992488e+20
2.490021139e+20
2.439864639e+20
2.44720283e+20
2.352402769e+20
2.227789204e+20
2.046794275e+20
1.704995659e+20
2.54808747e+20
2.600982229e+20
2.591825179e+20
2.582072108e+20
2.536764922e+20
2.533290988e+20
2.549193545e+20
2.539755574e+20
2.568872683e+20
2.543492843e+20
2.592369915e+20
2.580925481e+20
2.566738967e+20
2.570275382e+20
2.544970472e+20
2.47408126e+20
2.538439188e+20
2.501878695e+20
2.49535126e+20
2.469112795e+20
2.442528766e+20
2.455946373e+20
2.517742982e+20
2.389429487e+20
2.317580124e+20
2.272018088e+20
2.245419937e+20
2.152776263e+20
1.92841035e+20
1.720778965e+20
2.405542456e+20
2.441203407e+20
2.512502642e+20
2.506650996e+20
2.506442627e+20
2.491187461e+20
2.491655184e+20
2.502629484e+20
2.528311784e+20
2.511164174e+20
2.505510539e+20
2.501474846e+20
2.50258894e+20
2.495389401e+20
2.45382332e+20
2.410665253e+20
2.413349605e+20
2.443961277e+20
2.432551395e+20
2.433509864e+20
2.389165157e+20
2.376294633e+20
2.34736497e+20
2.318518847e+20
2.296890847e+20
2.22680735e+20
2.19032101e+20
2.070827008e+20
1.959516476e+20
1.808584269e+20
2.245319527e+20
2.303617346e+20
2.381360904e+20
2.436826823e+20
2.470712241e+20
2.471253492e+20
2.445098857e+20
2.461436078e+20
2.502812278e+20
2.45174283e+20
2.454818361e+20
2.486053229e+20
2.499686449e+20
2.4841813e+20
2.458873162e+20
2.455832775e+20
2.405674464e+20
2.425202188e+20
2.393424239e+20
2.380183656e+20
2.35982831e+20
2.313506572e+20
2.27664606e+20
2.284466632e+20
2.233897447e+20
2.209338313e+20
2.20273766e+20
2.075693623e+20
1.976622022e+20
1.812572839e+20
2.09635842e+20
2.157579056e+20
2.239882651e+20
2.301536763e+20
2.34498566e+20
2.387977931e+20
2.408163545e+20
2.42572882e+20
2.45786642e+20
2.476049378e+20
2.475346997e+20
2.463506424e+20
2.444342289e+20
2.460277294e+20
2.456623231e+20
2.466822194e+20
2.399981641e+20
2.429866331e+20
2.406811206e+20
2.387898497e+20
2.365190963e+20
2.302900489e+20
2.29547592e+20
2.319544193e+20
2.286927311e+20
2.203405438e+20
2.131619042e+20
2.091020648e+20
2.020373823e+20
1.84317078e+20
1.899657963e+20
2.01655786e+20
2.086246461e+20
2.168678155e+20
2.227070764e+20
2.310524208e+20
2.331242356e+20
2.370016039e+20
2.370786798e+20
2.426043222e+20
2.451816534e+20
2.48439394e+20
2.494078241e+20
2.495339808e+20
2.440223743e+20
2.417218574e+20
2.422752926e+20
2.410030896e+20
2.403399863e+20
2.378724112e+20
2.368660928e+20
2.349090022e+20
2.309330827e+20
2.30724008e+20
2.292317456e+20
2.240870491e+20
2.175021921e+20
2.123464723e+20
2.031721084e+20
1.921289621e+20
1.717898488e+20
1.82523007e+20
1.923776423e+20
2.036461826e+20
2.088817747e+20
2.159296161e+20
2.243714585e+20
2.303756611e+20
2.318977522e+20
2.347791511e+20
2.394830194e+20
2.434810495e+20
2.423090135e+20
2.437018009e+20
2.464622989e+20
2.467931224e+20
2.457519795e+20
2.422895727e+20
2.425056751e+20
2.409687687e+20
2.409248782e+20
2.363302144e+20
2.33666618e+20
2.290025072e+20
2.286165078e+20
2.261141122e+20
2.193147988e+20
2.132023227e+20
2.074061526e+20
1.991944086e+20
1.557585825e+20
1.655462249e+20
1.750423437e+20
1.844376543e+20
1.958145303e+20
2.029865076e+20
2.111226167e+20
2.176014486e+20
2.256968441e+20
2.272325924e+20
2.313441889e+20
2.363168283e+20
2.405527593e+20
2.444010678e+20
2.459923132e+20
2.488750607e+20
2.473632513e+20
2.458671285e+20
2.453381308e+20
2.425690762e+20
2.419080325e+20
2.398567436e+20
2.350574609e+20
2.324994702e+20
2.314531165e+20
2.297287759e+20
2.238491009e+20
2.172074898e+20
2.095796295e+20
2.019977986e+20
1.397632102e+20
1.47398786e+20
1.565231271e+20
1.660136158e+20
1.764332228e+20
1.853999014e+20
1.968412755e+20
2.039853966e+20
2.125848549e+20
2.203777611e+20
2.255874568e+20
2.315292929e+20
2.345805087e+20
2.396946569e+20
2.416874467e+20
2.428964152e+20
2.437086653e+20
2.437708254e+20
2.424953387e+20
2.433874765e+20
2.44326482e+20
2.429855383e+20
2.410541249e+20
2.331038836e+20
2.327434761e+20
2.310856473e+20
2.275242086e+20
2.227901082e+20
2.127410505e+20
2.051772493e+20
1.318485295e+20
1.390505119e+20
1.464962478e+20
1.537049264e+20
1.619145759e+20
1.699091571e+20
1.793591881e+20
1.909321479e+20
2.004928465e+20
2.106503388e+20
2.165190259e+20
2.211538602e+20
2.272898403e+20
2.31268744e+20
2.34537672e+20
2.355163648e+20
2.391391557e+20
2.427508618e+20
2.41678682e+20
2.421676961e+20
2.438270196e+20
2.42126447e+20
2.402784637e+20
2.396930685e+20
2.303587627e+20
2.284652923e+20
2.28161673e+20
2.277182514e+20
2.230438977e+20
2.13063207e+20
1.24081913e+20
1.296310203e+20
1.344248344e+20
1.414054133e+20
1.488057306e+20
1.570079647e+20
1.663637759e+20
1.746865251e+20
1.835154169e+20
1.920073145e+20
2.000719107e+20
2.070303895e+20
2.149222662e+20
2.221881987e+20
2.265029213e+20
2.331370042e+20
2.344781621e+20
2.378868258e+20
2.430225474e+20
2.422875889e+20
2.408407583e+20
2.43770387e+20
2.409631812e+20
2.403622404e+20
2.39685275e+20
2.366120166e+20
2.332669159e+20
2.273434664e+20
2.257762666e+20
2.230175105e+20
1.161941523e+20
1.197640554e+20
1.261966002e+20
1.298674509e+20
1.364919212e+20
1.444188249e+20
1.517069831e+20
1.58530767e+20
1.663616383e+20
1.729223501e+20
1.822933328e+20
1.946589274e+20
2.046307113e+20
2.119422093e+20
2.181331828e+20
2.223088956e+20
2.277179349e+20
2.319515718e+20
2.350782355e+20
2.389253814e+20
2.407671573e+20
2.450643342e+20
2.434934459e+20
2.448143923e+20
2.443022463e+20
2.395454916e+20
2.368200741e+20
2.341063779e+20
2.313764981e+20
2.25997535e+20
1.106260578e+20
1.141277284e+20
1.176496196e+20
1.231235913e+20
1.287079666e+20
1.335576043e+20
1.389884683e+20
1.465510991e+20
1.535499238e+20
1.634062888e+20
1.720629057e+20
1.79754615e+20
1.880274646e+20
1.975154975e+20
2.054435794e+20
2.12705758e+20
2.205002507e+20
2.275026921e+20
2.30891578e+20
2.352034918e+20
2.35819847e+20
2.382817371e+20
2.45162455e+20
2.458289433e+20
2.442859127e+20
2.423910784e+20
2.437046687e+20
2.398903712e+20
2.335273934e+20
2.292966464e+20
1.097287025e+20
1.119852919e+20
1.14790002e+20
1.161365875e+20
1.195234557e+20
1.24256638e+20
1.295223291e+20
1.352572019e+20
1.42220517e+20
1.498455411e+20
1.566761121e+20
1.627810722e+20
1.735248374e+20
1.855238232e+20
1.954738926e+20
2.064700186e+20
2.127844447e+20
2.181897782e+20
2.231074981e+20
2.287032221e+20
2.35609549e+20
2.403075025e+20
2.425038091e+20
2.438484103e+20
2.465998471e+20
2.453355465e+20
2.449685094e+20
2.451261759e+20
2.413236856e+20
2.35199716e+20
1.055559959e+20
1.053003434e+20
1.079870236e+20
1.096679883e+20
1.133064602e+20
1.171213942e+20
1.220179383e+20
1.271225682e+20
1.327976164e+20
1.378411821e+20
1.460196177e+20
1.547725631e+20
1.603455478e+20
1.684190712e+20
1.793643945e+20
1.87621652e+20
1.967530549e+20
2.059451134e+20
2.130181685e+20
2.221820995e+20
2.262354307e+20
2.308097481e+20
2.355014601e+20
2.409342745e+20
2.438993499e+20
2.441160059e+20
2.448798168e+20
2.442815111e+20
2.432600537e+20
1.042009882e+20
1.058382134e+20
1.070216755e+20
1.108607797e+20
1.114020723e+20
1.13549114e+20
1.169211451e+20
1.214330523e+20
1.249666445e+20
1.304963775e+20
1.354841681e+20
1.404392419e+20
1.463889827e+20
1.539130116e+20
1.614799534e+20
1.710215781e+20
1.829530445e+20
1.941566123e+20
2.049343014e+20
2.065282761e+20
2.146110972e+20
2.254271532e+20
2.302376603e+20
2.356996251e+20
2.376381255e+20
1.042638039e+20
1.055805785e+20
1.068258721e+20
1.071447751e+20
1.088366953e+20
1.105497042e+20
1.115333783e+20
1.132416672e+20
1.171166106e+20
1.20495145e+20
1.23941649e+20
1.302590185e+20
1.37711019e+20
1.449118157e+20
1.520052507e+20
1.59654085e+20
1.663015422e+20
1.767455074e+20
1.841819187e+20
1.022985941e+20
1.026516768e+20
1.033925101e+20
1.042729014e+20
1.056611747e+20
1.06362638e+20
1.082434588e+20
1.101249667e+20
1.135133159e+20
1.155713879e+20
1.214530368e+20
1.244954315e+20
1.280885141e+20
1.334458294e+20
1.016166027e+20
1.018200127e+20
1.022131444e+20
1.031443372e+20
1.04255996e+20
1.049327956e+20
1.064318929e+20
1.089189608e+20
1.003423578e+20
)
;

boundaryField
{
    flow
    {
        type            calculated;
        value           nonuniform List<scalar> 
15
(
1.842430059e+20
1.704995659e+20
1.720778965e+20
1.808584269e+20
1.812572839e+20
1.84317078e+20
1.921289621e+20
1.991944086e+20
2.019977986e+20
2.051772493e+20
2.13063207e+20
2.230175105e+20
2.25997535e+20
2.292966464e+20
2.35199716e+20
)
;
    }
    obstacle
    {
        type            calculated;
        value           nonuniform List<scalar> 
30
(
133.3194928
133.5793133
136.5983901
137.1297566
132.6554433
130.4184276
135.9366922
126.0049321
141.6702879
129.6648514
129.0387275
134.023041
124.0140831
134.7200265
131.3695909
124.5152708
124.4443337
121.1395008
126.7420246
131.9599175
120.5389734
118.4757443
127.6659209
125.8658088
118.2271336
109.3648116
108.7689939
110.913538
95.70016406
86.17561898
)
;
    }
    frontAndBack
    {
        type            empty;
    }
    procBoundary1to0
    {
        type            processor;
        value           nonuniform List<scalar> 
21
(
3.059677541e+20
2.733857717e+20
2.557785842e+20
2.368262485e+20
2.190854371e+20
1.978748561e+20
1.803344804e+20
1.604467768e+20
1.457659546e+20
1.322031198e+20
1.26279123e+20
1.185601111e+20
1.142796889e+20
1.090104488e+20
1.075450399e+20
1.053491523e+20
1.033136136e+20
1.029706453e+20
1.02097636e+20
1.009662855e+20
1.005030557e+20
)
;
    }
    procBoundary1to3
    {
        type            processor;
        value           nonuniform List<scalar> 
36
(
2.400201763e+20
2.406991112e+20
2.45683576e+20
2.436326296e+20
2.400201763e+20
2.428648761e+20
1.964051586e+20
2.048111213e+20
2.122968166e+20
2.208066911e+20
2.295043862e+20
2.406991112e+20
2.3513363e+20
1.40310615e+20
1.484075711e+20
1.553479441e+20
1.619740044e+20
1.964051586e+20
1.716219461e+20
1.106201943e+20
1.129293719e+20
1.143115877e+20
1.185463946e+20
1.220129566e+20
1.40310615e+20
1.264680428e+20
1.015036204e+20
1.016166324e+20
1.012129328e+20
1.031882437e+20
1.050864921e+20
1.058217805e+20
1.106201943e+20
1.078784844e+20
1.015036204e+20
1.009794799e+20
)
;
    }
}


// ************************************************************************* //
