/*--------------------------------*- C++ -*----------------------------------*\
| =========                 |                                                 |
| \\      /  F ield         | OpenFOAM: The Open Source CFD Toolbox           |
|  \\    /   O peration     | Version:  2406                                  |
|   \\  /    A nd           | Website:  www.openfoam.com                      |
|    \\/     M anipulation  |                                                 |
\*---------------------------------------------------------------------------*/
FoamFile
{
    version     2.0;
    format      ascii;
    arch        "LSB;label=32;scalar=64";
    class       volScalarField;
    location    "0.005";
    object      rhoN;
}
// * * * * * * * * * * * * * * * * * * * * * * * * * * * * * * * * * * * * * //

dimensions      [0 -3 0 0 0 0 0];

internalField   nonuniform List<scalar> 
546
(
2.916407275e+20
2.485950518e+20
3.870502648e+20
3.89951014e+20
2.542265458e+20
3.49310237e+20
2.933236311e+20
2.482955022e+20
4.408793124e+20
3.122382572e+20
2.904995891e+20
2.806149478e+20
2.459740267e+20
3.09958538e+20
3.12490235e+20
1.890381778e+20
2.922653797e+20
2.818989375e+20
2.196703023e+20
3.648909483e+20
2.365874436e+20
4.109860163e+20
2.407224623e+20
1.753878048e+20
2.041704951e+20
3.845384708e+20
2.494418317e+20
1.81798697e+20
1.975888119e+20
2.136728845e+20
3.365085319e+20
2.259955017e+20
3.415149395e+20
2.064446544e+20
2.657822979e+20
3.143792135e+20
3.87187193e+20
3.192370742e+20
3.813010269e+20
2.64201602e+20
2.904995891e+20
3.904207969e+20
3.197662345e+20
3.719502453e+20
3.499890629e+20
2.646534489e+20
1.143647138e+20
2.690853492e+20
2.842792145e+20
3.388273094e+20
2.497311907e+20
1.988642016e+20
3.075898132e+20
2.428446528e+20
3.266727921e+20
1.922692356e+20
2.632997114e+20
2.51721273e+20
1.552483522e+20
1.566934486e+20
2.692068253e+20
2.259955017e+20
2.732119516e+20
2.867286867e+20
3.235610586e+20
2.212298168e+20
2.581247951e+20
2.364719068e+20
3.098070846e+20
2.161649473e+20
2.904995889e+20
2.806149478e+20
2.090779225e+20
3.719502453e+20
2.124933598e+20
3.024610844e+20
2.287294276e+20
2.434581731e+20
1.938267373e+20
2.476045723e+20
2.102999497e+20
2.518946552e+20
1.872285819e+20
1.753878048e+20
2.586159604e+20
1.373351681e+20
2.07868193e+20
2.657057879e+20
2.25815785e+20
2.564074616e+20
3.140746296e+20
1.242975258e+20
2.049089637e+20
1.835063596e+20
2.888938021e+20
2.328734913e+20
2.346589049e+20
3.074134789e+20
2.383131418e+20
2.642016022e+20
2.178746918e+20
2.196116981e+20
2.336753252e+20
2.603651719e+20
2.999906256e+20
2.394483585e+20
2.541438085e+20
3.587804656e+20
2.97200997e+20
2.476045723e+20
1.708687094e+20
2.253794285e+20
1.471081714e+20
1.214223263e+20
2.586159604e+20
2.060027522e+20
1.940103137e+20
1.258606366e+20
1.693618389e+20
2.136728839e+20
2.243390211e+20
1.58196851e+20
3.642826019e+20
1.835063594e+20
1.848920333e+20
2.910918644e+20
2.111930144e+20
1.655303348e+20
2.502287989e+20
2.521924383e+20
5.204784305e+20
1.46407799e+20
3.32064936e+20
2.85161855e+20
3.624886726e+20
3.528712651e+20
3.303869513e+20
2.434581735e+20
2.196703023e+20
1.56381835e+20
2.76018684e+20
2.51894655e+20
2.674694025e+20
1.753878048e+20
2.858386936e+20
2.334697854e+20
1.662945538e+20
1.957832128e+20
2.399292718e+20
1.851831671e+20
1.794712172e+20
1.807964015e+20
2.618281205e+20
2.867286869e+20
1.733362814e+20
1.746551186e+20
2.463918501e+20
2.246483115e+20
1.787348564e+20
2.281741108e+20
2.057705421e+20
1.464077987e+20
3.689610395e+20
1.98373464e+20
2.624917972e+20
2.394483585e+20
3.176797606e+20
2.562717612e+20
3.101227797e+20
2.736682117e+20
2.1029995e+20
2.253794289e+20
2.942163445e+20
2.69827392e+20
3.811182548e+20
2.060027522e+20
1.940103145e+20
1.957832125e+20
9.879440567e+19
1.424485887e+20
1.794712169e+20
2.485950516e+20
1.935251322e+20
1.835063594e+20
2.426707937e+20
1.630114441e+20
2.463918501e+20
2.482955022e+20
2.859757702e+20
2.521924385e+20
2.299788416e+20
1.586084489e+20
9.838961068e+19
1.983734643e+20
1.999937502e+20
3.906789004e+20
2.795581893e+20
3.203397014e+20
2.325920855e+20
2.867000332e+20
2.628749393e+20
3.446979512e+20
2.273489927e+20
2.293532848e+20
2.450045971e+20
3.296044064e+20
2.49441833e+20
1.678141821e+20
2.117022998e+20
1.851831687e+20
1.458203637e+20
1.920961764e+20
2.845957831e+20
2.752595395e+20
1.155575208e+20
2.67804515e+20
2.229259596e+20
2.482955022e+20
2.740601133e+20
1.801374561e+20
2.299788412e+20
2.806149476e+20
2.951688318e+20
1.611784398e+20
2.874910169e+20
3.402687208e+20
1.779006656e+20
2.562717599e+20
2.325920836e+20
2.867000299e+20
2.891624289e+20
2.253794258e+20
1.203612304e+20
2.158619132e+20
1.225022964e+20
2.609368172e+20
1.52436673e+20
2.51721271e+20
9.879440567e+19
2.421626009e+20
2.467729234e+20
1.242975259e+20
1.707574696e+20
1.490989171e+20
2.195592897e+20
2.445171661e+20
2.229259596e+20
2.246483115e+20
2.144818276e+20
2.281741108e+20
2.299788408e+20
2.684142981e+20
3.074675336e+20
2.851618554e+20
2.499921882e+20
2.394483569e+20
3.176797601e+20
2.818989382e+20
3.488881269e+20
2.736682103e+20
1.971562032e+20
1.193185216e+20
2.54095933e+20
1.888791741e+20
2.313932265e+20
2.19736269e+20
2.078681941e+20
2.097677277e+20
1.975888113e+20
2.136728851e+20
2.243390211e+20
1.242975258e+20
2.16292795e+20
2.064446544e+20
1.848920333e+20
1.979424676e+20
1.525282879e+20
1.418831443e+20
2.502287987e+20
1.441099643e+20
2.420829919e+20
2.684142977e+20
1.844805192e+20
2.975601965e+20
2.249929685e+20
3.024610849e+20
2.668510006e+20
1.922038215e+20
2.196703021e+20
2.21540934e+20
2.365874438e+20
3.181827215e+20
2.139755226e+20
1.618964349e+20
1.905591294e+20
3.158708867e+20
1.662945538e+20
2.657057884e+20
1.834753248e+20
1.994280242e+20
1.009525595e+20
2.14695726e+20
1.70757469e+20
1.835063591e+20
1.733362812e+20
1.746551189e+20
1.17329453e+20
1.537067401e+20
2.383131422e+20
2.161649468e+20
3.510203349e+20
2.196116981e+20
3.689610412e+20
2.355684889e+20
2.249929703e+20
2.394483589e+20
2.54143806e+20
2.434581719e+20
2.196703021e+20
2.345727517e+20
1.971562032e+20
2.253794296e+20
2.006020524e+20
2.698273915e+20
2.450045928e+20
1.648022018e+20
2.632997126e+20
2.517212732e+20
2.117022998e+20
1.851831687e+20
6.730170658e+19
7.909842592e+19
1.479898079e+20
1.720372124e+20
1.386690249e+20
1.164367452e+20
2.229259579e+20
1.182359522e+20
1.906505123e+20
1.80137457e+20
2.299788437e+20
2.562136498e+20
2.582727288e+20
1.859751228e+20
2.249929685e+20
1.890381781e+20
3.430941437e+20
2.690853501e+20
2.196703021e+20
2.345727517e+20
3.417374159e+20
2.651522657e+20
1.738551091e+20
2.428446524e+20
2.313932306e+20
2.472033048e+20
1.801524349e+20
1.678141821e+20
2.258157844e+20
2.136728831e+20
1.346034123e+20
1.129977501e+20
1.138383129e+20
2.064446549e+20
1.155575207e+20
1.047930715e+20
7.039767198e+19
1.891775263e+20
1.668191995e+20
1.080824734e+20
2.057705412e+20
1.586084474e+20
3.320649345e+20
3.223568795e+20
3.12490234e+20
2.52050902e+20
2.541438081e+20
2.306445858e+20
2.71357432e+20
2.476045733e+20
2.760186867e+20
1.856065891e+20
3.744571645e+20
1.484050653e+20
2.450045928e+20
3.433379173e+20
2.494418308e+20
1.258606366e+20
3.669506496e+20
1.994280242e+20
1.794712164e+20
1.694966264e+20
1.93525132e+20
1.94975506e+20
1.733362811e+20
1.630114433e+20
1.407953419e+20
1.18235953e+20
2.502287993e+20
1.321008008e+20
1.936663917e+20
1.09805849e+20
1.598831166e+20
1.611784385e+20
3.49989062e+20
2.142432685e+20
1.90607856e+20
2.562717599e+20
2.196703021e+20
3.257954885e+20
2.365874418e+20
2.518946545e+20
3.477102242e+20
4.317238265e+20
2.177818603e+20
3.433379203e+20
2.494418308e+20
2.51721271e+20
2.96383217e+20
1.566934491e+20
1.009525599e+20
6.779865104e+19
9.1070651e+19
6.881488497e+19
1.271132738e+20
1.047930715e+20
1.055965072e+20
8.276516776e+19
1.429878853e+20
1.080824734e+20
1.210414957e+20
2.074110498e+20
2.336753261e+20
2.231701474e+20
2.499921892e+20
2.268458137e+20
2.795581889e+20
2.050174096e+20
3.10122782e+20
2.21540934e+20
2.1029995e+20
2.784098837e+20
2.273489927e+20
2.428446524e+20
2.586159613e+20
2.06002754e+20
2.078681941e+20
2.237522429e+20
2.681562464e+20
1.851831671e+20
1.009525592e+20
6.779865006e+19
1.479898068e+20
6.881488497e+19
1.155575207e+20
1.979424684e+20
8.213061732e+19
1.182359539e+20
4.76626288e+19
1.20091638e+20
1.573539432e+20
1.83009747e+20
1.229870128e+20
1.611784398e+20
1.499953123e+20
1.386279972e+20
2.287294291e+20
2.050174096e+20
1.421396072e+20
2.21540934e+20
2.234436988e+20
2.916674972e+20
2.942163435e+20
2.023705437e+20
2.722273253e+20
2.746703339e+20
3.048733487e+20
1.678141821e+20
2.540427574e+20
7.851865717e+19
9.039820073e+19
1.366059765e+20
1.146914749e+20
1.50224777e+20
1.862987924e+20
1.055965064e+20
1.300595474e+20
9.532525615e+19
1.321008018e+20
7.262489801e+19
1.586084499e+20
1.96779222e+20
1.115850737e+20
1.249960936e+20
1.512305412e+20
7.624314242e+19
1.665766453e+20
1.033742598e+20
2.215409322e+20
2.23443695e+20
2.121218125e+20
2.273489908e+20
2.023705454e+20
2.586159636e+20
1.458203644e+20
7.909842564e+19
1.138383121e+20
1.146914741e+20
1.271132728e+20
1.047930715e+20
1.642612346e+20
1.064123585e+20
1.07240914e+20
9.607330968e+19
4.841659792e+19
1.09805849e+20
1.475844165e+20
7.439004912e+19
1.749945324e+20
2.142432702e+20
1.397790944e+20
1.922038199e+20
1.550613897e+20
1.12169511e+20
1.016979758e+20
9.1070651e+19
1.146914749e+20
1.50224777e+20
1.047930707e+20
9.386356124e+19
5.911797652e+19
1.191565711e+20
1.080824734e+20
1.210414957e+20
1.708090985e+20
1.229870128e+20
1.983734643e+20
1.794712164e+20
9.039820007e+19
1.138383129e+20
6.881488497e+19
1.155575216e+20
1.280804207e+20
1.642612334e+20
7.094157237e+19
7.851865773e+19
)
;

boundaryField
{
    flow
    {
        type            zeroGradient;
    }
    obstacle
    {
        type            calculated;
        value           nonuniform List<scalar> 
30
(
40.9726224
1e-300
68.70807019
420.4222292
453.1320332
52.94546307
70.90458387
424.8153133
202.2541161
1e-300
29.69028347
135.8627093
1e-300
278.0504257
205.1249369
1e-300
231.1596605
1e-300
74.95274271
72.56111398
1e-300
195.7905501
334.2870515
161.0885916
88.32428737
325.907154
535.6291713
76.44330747
1e-300
138.6943677
)
;
    }
    frontAndBack
    {
        type            empty;
    }
    procBoundary1to0
    {
        type            processor;
        value           nonuniform List<scalar> 
21
(
2.449773118e+20
3.229246383e+20
2.004359824e+20
1.55894653e+20
1.781653178e+20
1.670299854e+20
1.781653177e+20
2.449773118e+20
1.336239882e+20
1.002179912e+20
1.113533235e+20
1.002179916e+20
1.447593206e+20
1.781653164e+20
6.681199412e+19
7.794732648e+19
1.002179912e+20
1.113533235e+20
1.002179919e+20
6.681199412e+19
1.113533235e+20
)
;
    }
    procBoundary1to3
    {
        type            processor;
        value           nonuniform List<scalar> 
36
(
1.709383081e+20
2.197362709e+20
2.910154718e+20
2.097677277e+20
1.709383081e+20
3.669506496e+20
1.69413654e+20
1.577249625e+20
1.060609081e+20
1.872285822e+20
2.158619132e+20
2.197362709e+20
2.586159591e+20
7.499765615e+19
1.764356314e+20
1.90607856e+20
2.178309977e+20
1.69413654e+20
1.421396072e+20
9.532525688e+19
6.004581855e+19
9.683319584e+19
9.760519915e+19
7.379220824e+19
7.499765615e+19
1.239834152e+20
1.468970772e+20
1.366059765e+20
5.734573747e+19
1.040017687e+20
5.821837305e+19
9.386356265e+19
9.532525688e+19
9.458876315e+19
1.468970772e+20
6.730170614e+19
)
;
    }
}


// ************************************************************************* //
