/*--------------------------------*- C++ -*----------------------------------*\
| =========                 |                                                 |
| \\      /  F ield         | OpenFOAM: The Open Source CFD Toolbox           |
|  \\    /   O peration     | Version:  2406                                  |
|   \\  /    A nd           | Website:  www.openfoam.com                      |
|    \\/     M anipulation  |                                                 |
\*---------------------------------------------------------------------------*/
FoamFile
{
    version     2.0;
    format      ascii;
    arch        "LSB;label=32;scalar=64";
    class       volScalarField;
    location    "0.005";
    object      translationalT;
}
// * * * * * * * * * * * * * * * * * * * * * * * * * * * * * * * * * * * * * //

dimensions      [1 2 -2 0 0 0 0];

internalField   nonuniform List<scalar> 
546
(
932.9893723
910.3693246
894.0767132
878.2569513
868.634158
869.3381606
861.4945304
842.116999
825.6028114
822.5426167
815.931568
812.5054262
813.8175222
812.2955799
799.166221
788.4997291
800.4976742
778.6707538
775.3991277
783.5578841
778.3473886
761.6912065
766.9233649
782.0194342
773.1363504
768.5719361
758.1550373
745.02231
748.8121193
736.7877419
1026.342246
1008.75573
1003.923337
988.7486156
979.3477415
961.9595068
952.7381738
940.6491797
934.9131539
921.3102026
908.4033851
901.5595663
908.0610881
900.5017122
893.4218792
881.8003641
875.7554798
877.8886632
864.0627649
862.1375543
866.8872546
864.4285858
853.672513
850.7651804
837.6420729
825.8781128
820.3733918
812.5903354
786.162162
727.6824971
1026.512922
1029.181198
1011.238807
1019.16955
1008.598137
995.6813369
994.0380391
990.2644852
974.2458639
975.1488689
962.6499055
955.6286055
952.9580526
937.1185773
941.5448787
931.2917445
915.0215394
918.5596122
911.6755065
915.1885369
897.470642
897.4669249
882.0725616
885.622607
885.2876292
869.4787784
850.3836741
829.4896771
807.6593505
750.230518
1025.0861
1016.777108
1018.570509
1003.033115
1002.654043
1001.521657
986.2325331
987.9308785
979.3633799
976.5064763
971.790796
965.5682496
961.180493
956.4429902
947.7946309
942.0118728
938.0940127
929.4842036
930.5960913
926.3779873
918.2344271
919.8822363
914.0793693
905.3891873
898.6658075
884.0601436
859.7707705
845.6899664
811.4793047
762.1595
1001.869024
995.7769597
993.7667969
985.7369729
979.31015
978.5365826
959.7122697
958.7067228
964.3550089
956.4245578
959.3436663
957.0315896
951.2068698
949.7819121
935.2104507
934.4573828
933.4051168
940.9195947
947.2968541
934.8564581
919.703914
916.9886382
919.4067843
917.5670671
910.1268147
890.2485169
872.0129182
841.6968614
811.9444154
759.7957129
971.9400365
971.2257611
970.1761502
966.3271549
949.6323308
937.2485301
939.6013837
942.9393486
943.7776701
937.2166353
934.3635887
943.4849837
944.1830703
946.5591886
934.0175095
937.0748727
927.7846728
934.9221032
924.4456624
923.6523871
914.7999628
907.9575841
900.8147665
898.3393411
896.8710083
887.5440806
863.3664794
837.106306
817.7791016
765.3842716
947.2908604
952.513967
947.4327875
940.9783415
926.0698673
932.2771524
923.9494305
923.8727225
915.9128662
915.9613613
916.777812
918.2536949
914.938327
918.9771976
921.3995286
920.0080273
924.2997381
920.912774
919.5934696
914.3598148
909.3136124
899.7994446
898.6868427
889.5171765
883.6805461
862.1586049
854.3816339
846.3647536
812.1445837
778.7130568
906.5197034
912.6230565
909.335885
924.8144552
908.4283824
912.8645521
910.3139979
900.4234327
902.8770754
901.8417019
899.9315694
891.8255266
895.9423968
901.1595269
899.5187946
903.4137996
900.9616187
892.9050582
900.5725674
898.1774326
900.182241
899.2003249
888.7329053
876.5444492
876.0980433
866.4686321
844.8989467
827.2413306
803.9860179
775.0262708
852.698114
881.6616566
883.3593195
887.9298442
890.4334501
891.3531118
892.4311461
885.6993388
892.3966566
878.8891573
878.7736853
882.3742123
874.4696633
876.2598815
880.3554083
882.6997648
877.4793885
870.9094501
869.5520393
873.1092093
869.9485947
866.4958926
870.6224732
862.4922693
865.5515241
863.4582224
843.3568204
833.9162371
815.5472319
780.8589845
788.3731713
820.8067115
843.7680371
859.6171056
866.8466305
859.3500484
858.7513084
870.5620573
870.608278
874.7093057
863.3323645
870.2552381
862.9527731
873.2819383
858.9624136
859.3946252
861.0251249
855.422138
849.6871813
847.3400571
854.5696421
852.0821509
853.5518919
852.2354075
853.2351597
848.8367644
838.2266837
825.4585474
809.3212333
788.1884321
703.728206
744.8256586
779.2083974
801.7504519
823.7846367
840.686023
842.7113617
848.1512922
849.1676779
857.1558384
846.9890636
842.8636572
854.854656
851.8981366
849.5443914
847.9028778
842.8312044
848.752072
843.649781
841.071992
851.2272798
849.2045791
855.7509132
847.5772142
836.2900216
843.7474768
835.8663541
811.3942607
800.0263477
780.4942492
646.7648128
692.0734343
709.5655168
736.5448226
763.8688393
793.9689012
810.4329497
822.1242955
829.9254165
828.9100088
827.8922508
830.0170784
835.2193068
841.8039205
840.8077116
832.9626438
832.2014329
832.1860854
835.2745366
830.4423555
833.7139004
834.7371037
828.0312707
825.3901221
827.0519826
817.8052244
818.1229835
804.4492468
792.1184527
776.5561941
566.8426951
612.7299077
658.99691
676.2858548
711.5357655
743.5704791
764.7835831
783.1710149
792.6821458
806.8543803
816.8969165
820.4705314
817.9595517
820.8071684
824.8762356
829.2694674
823.963689
825.0830621
822.1717028
818.5905507
820.7447791
828.0742922
821.0893626
831.112825
818.6978117
806.5607158
801.160242
792.3906924
790.9274289
774.3261804
515.7676336
544.2480382
583.7830773
611.128755
657.3519057
688.4461977
704.9521665
730.3191179
748.8168934
772.3458182
776.2362977
791.4757942
799.0047131
805.0507773
806.2440203
812.7837331
818.1457732
812.2929296
806.6470492
803.3485321
799.0548624
805.074845
806.79119
802.8437995
802.4338736
792.1491267
802.5891377
802.239692
785.5565705
767.2023136
467.1276045
487.2001417
517.9896796
545.9765053
590.1870303
623.3723356
644.0676097
679.9658807
706.9920555
727.9209001
744.9467392
754.6946168
770.995812
779.0135529
782.2884988
789.7333193
791.3010994
789.9248937
786.1060093
784.3741412
784.2844221
791.6576756
790.3145994
789.2730051
794.3167625
783.0956019
777.0821483
782.4271761
779.5683086
758.12594
431.4124523
451.0544854
477.7526586
506.2873898
527.9094446
562.7141529
598.025843
634.463699
655.6214107
666.3273889
692.2986703
716.0684065
720.2085518
735.6658834
766.4677356
769.9191278
776.0145877
779.3714184
780.0285155
775.2684021
769.9498865
772.3457082
777.5446498
778.0105471
778.2437352
768.673015
765.9795416
767.2725681
760.4149724
401.7920623
410.3991372
432.100903
465.1632212
484.0663139
506.0414446
537.5620101
571.3954282
607.8010397
627.9572931
656.3620368
683.8702514
695.3889327
713.0973352
735.9723018
745.3724333
761.300254
772.6821047
775.5355544
767.8349961
757.5296837
771.3646842
766.3705212
773.7398448
764.6444052
378.9230017
386.9549389
413.0847648
432.2567252
450.0968486
463.1848732
486.7487938
519.6198065
540.6410647
585.0365839
606.7718146
624.9803408
656.0125988
676.6004385
700.887507
721.8141441
738.475575
749.5937964
748.26823
357.3136932
371.9741342
371.4346259
394.0510299
426.7900431
438.4084271
453.0075687
473.3798323
502.2315975
524.0543595
562.3358229
586.8754
604.159442
621.9913675
350.5979024
353.5417685
354.0135706
362.707481
390.1216667
411.6384206
414.9889504
433.1059441
335.5848946
)
;

boundaryField
{
    flow
    {
        type            calculated;
        value           nonuniform List<scalar> 
15
(
736.7877419
727.6824971
750.230518
762.1595
759.7957129
765.3842716
778.7130568
775.0262708
780.8589845
788.1884321
780.4942492
776.5561941
774.3261804
767.2023136
758.12594
)
;
    }
    obstacle
    {
        type            calculated;
        value           nonuniform List<scalar> 
30
(
799.7687496
813.8323451
780.8290657
773.5139239
746.7341827
756.7005928
761.3115726
772.1554594
701.0698854
725.1692727
752.0897986
726.2823581
726.5807038
722.6607358
716.4183082
713.9062186
715.3196746
705.2464719
690.6398682
698.734412
712.1956602
698.8157562
676.0526567
716.2302051
702.685094
732.7151148
722.0229613
696.4282154
693.650862
724.7649994
)
;
    }
    frontAndBack
    {
        type            empty;
    }
    procBoundary1to0
    {
        type            processor;
        value           nonuniform List<scalar> 
21
(
953.76957
1052.748068
1045.811383
1042.920758
1009.327391
984.9036566
942.8758633
881.1060191
822.8159672
754.6242809
666.9212712
600.5663454
542.5270369
492.645203
445.2790613
414.6979117
386.2603657
358.1152305
349.1297416
335.470475
328.8969293
)
;
    }
    procBoundary1to3
    {
        type            processor;
        value           nonuniform List<scalar> 
36
(
753.8562588
765.4003365
767.9943256
759.8608412
753.8562588
748.8298549
757.8694639
766.6773055
767.5457779
754.9056258
761.7875999
765.4003365
762.0030154
654.8751403
684.9952969
692.148113
715.4767557
757.8694639
728.7295593
461.4510996
479.9171768
496.6679864
539.4195069
558.6650564
654.8751403
581.5668661
337.9153216
343.5777229
345.5052512
366.9931302
387.0820615
392.6352787
461.4510996
412.0336547
337.9153216
325.0175249
)
;
    }
}


// ************************************************************************* //
