/*--------------------------------*- C++ -*----------------------------------*\
| =========                 |                                                 |
| \\      /  F ield         | OpenFOAM: The Open Source CFD Toolbox           |
|  \\    /   O peration     | Version:  2406                                  |
|   \\  /    A nd           | Website:  www.openfoam.com                      |
|    \\/     M anipulation  |                                                 |
\*---------------------------------------------------------------------------*/
FoamFile
{
    version     2.0;
    format      ascii;
    arch        "LSB;label=32;scalar=64";
    class       volVectorField;
    location    "0.005";
    object      UMean;
}
// * * * * * * * * * * * * * * * * * * * * * * * * * * * * * * * * * * * * * //

dimensions      [0 1 -1 0 0 0 0];

internalField   nonuniform List<vector> 
546
(
(379.2249589 104.7759236 0.03884004387)
(355.8516307 104.7824229 -0.06031329667)
(347.2746933 98.06578946 1.983009444)
(330.8004017 93.22555154 -2.829096031)
(327.4987119 89.07812643 -2.768920874)
(321.4683845 86.98190793 -5.922698011)
(316.5916102 83.06032793 -6.914173301)
(307.6077324 89.09975455 0.4471659832)
(291.7152559 79.31444434 4.55622292)
(281.1800353 79.25289434 3.093352383)
(273.3269605 80.24347151 8.41516267)
(261.4202016 69.92582947 0.7503111109)
(266.0947819 74.29274474 -3.621568791)
(254.0519883 68.15596005 6.692691755)
(249.4329537 68.69568708 -0.1947079589)
(246.8130286 67.27633895 -5.61805781)
(244.7856446 68.4230717 -5.484982787)
(244.0863349 62.91829534 2.374531245)
(233.2946069 65.82494622 4.113855645)
(231.7537526 62.87107816 0.8998667166)
(235.9413083 61.61352859 -0.4353009814)
(235.035447 62.7160896 0.3145880588)
(227.7085518 63.97093784 9.380757758)
(240.3203289 59.7714304 14.68439664)
(252.5874443 64.7047105 -0.1158082746)
(255.1959836 69.38237976 -1.935034315)
(258.6311518 70.28305766 3.718129159)
(270.4842353 69.14559313 5.561873925)
(306.3445217 76.7015183 9.42741996)
(406.3342661 76.4518453 -1.537476339)
(645.9085204 199.8280276 -10.06152359)
(626.0254171 193.3459234 -9.014404898)
(602.0557263 180.9881378 1.374492383)
(580.6819062 173.9987142 -3.302883214)
(573.7002263 160.6756629 -3.552126458)
(555.1413618 157.0930223 -7.759599561)
(531.4198072 153.1651005 -1.75728724)
(518.8137242 149.7009966 -1.194658589)
(510.0038035 148.7843861 -4.249556339)
(491.5581782 146.9435791 -0.6135621853)
(477.8878793 146.7414978 5.090694872)
(465.9666777 134.8059307 -1.453875766)
(454.7185979 132.9436972 -2.400506964)
(440.397863 121.231794 7.339246387)
(428.5454372 119.3858314 7.319012472)
(427.5359849 123.5945435 -2.79678901)
(421.1457406 119.1865836 -6.514267122)
(405.5447857 108.8476502 -0.1379977656)
(403.8122174 117.0603055 4.183750733)
(399.3690987 110.0386299 5.466092687)
(399.5655003 103.131767 -1.114178694)
(389.5448531 105.8686889 8.280033198)
(394.9446492 106.2422797 -7.638288269)
(399.3045413 100.1514218 5.924116856)
(403.0179123 110.6528741 0.04581359254)
(396.7887874 108.3411617 -4.133584119)
(416.7758639 112.0038107 7.08583342)
(437.8553639 105.0609256 2.017122982)
(487.4008196 116.3636859 2.253933398)
(618.4141837 88.94881448 -2.697639187)
(838.1809326 269.9605632 -11.03194956)
(811.0536894 256.3672295 -11.944902)
(801.5074102 254.5182092 -10.17918182)
(778.3904277 238.1089557 -11.78082098)
(760.082516 227.0131243 -1.588146264)
(729.3376431 226.2260676 -8.232761361)
(711.5687981 215.8267185 -13.63332104)
(693.4997073 210.6318423 -15.20277166)
(669.8643617 202.2357146 -8.339541772)
(659.9827478 197.7862102 -0.4782100284)
(641.3869128 201.2697127 -1.964170634)
(626.3967546 190.4022335 4.41968324)
(608.6587501 179.5411827 7.390725126)
(590.7037822 174.0541529 0.2038569036)
(579.604463 168.7232689 2.883625973)
(586.7479999 169.6761175 4.586724636)
(570.8665241 164.9975796 -3.915708593)
(563.4186387 160.6009027 -0.6817021869)
(550.6996676 160.7102856 -1.838618742)
(546.0981486 152.3546139 4.242371053)
(543.6064156 148.3685655 -3.434006619)
(539.6372108 139.6589243 -5.609234081)
(518.6803977 146.3742329 -1.223899573)
(527.1438679 145.87832 0.2051870026)
(531.6816729 144.8617717 -1.982269727)
(534.9831211 143.8615379 4.713533086)
(540.3588187 142.4757472 3.699818393)
(572.0569167 141.6875315 0.3384494854)
(633.3281492 137.1146998 0.7732737825)
(726.9517564 103.5051393 -0.2214024744)
(990.7960767 312.4419099 0.9557913905)
(974.2223558 310.5008919 -1.911850514)
(934.9277346 307.3364769 -5.288307615)
(918.0527592 300.6671939 -7.261342426)
(906.5126395 291.1622562 -7.905742281)
(892.7463249 273.2723427 -5.758254714)
(873.4308056 273.743686 -3.564894427)
(850.0189657 266.6905153 1.37534497)
(816.6885609 257.82972 -2.955376476)
(799.5938666 249.6930492 -1.967529244)
(786.0737752 244.4500678 -3.27102806)
(765.4900394 239.8778271 -3.082880602)
(748.6157813 231.6105029 -3.053185151)
(735.2348525 225.3759356 -7.715715337)
(726.5315911 220.7016479 4.900593684)
(718.1766075 206.4751718 -2.724579514)
(709.249595 208.717264 8.202945346)
(689.2766112 201.3454845 -3.626571312)
(680.2350706 202.293016 -4.362896109)
(671.0329376 194.5556946 -0.5387131019)
(667.6389596 182.8326052 8.699744813)
(645.6393795 177.0147629 2.756515088)
(638.4253697 187.4511052 -5.297274696)
(637.8824284 185.3935943 0.4175717463)
(639.954634 177.6627639 1.896770914)
(653.3176632 175.1032264 -1.249251877)
(653.5940557 171.7284936 -0.6505531547)
(693.493302 166.2266887 -0.01677390202)
(735.6615524 157.6043602 -1.662450334)
(804.0075 133.0538449 8.024220594)
(1107.900635 342.8784239 0.02323012234)
(1086.266506 342.3464576 4.863052655)
(1064.456608 345.3365018 5.071838589)
(1043.793518 338.2963796 0.5594761908)
(1018.567012 325.7929485 1.591665452)
(1002.296639 325.3924192 1.47924406)
(992.5531515 319.8539534 0.8839922267)
(970.1525517 312.0440419 -3.974671431)
(941.9082687 307.9680599 -13.19927062)
(934.5490138 296.4474344 -4.790322491)
(912.3698829 293.6445771 -9.825015218)
(892.7413455 282.6338624 -1.352040835)
(876.0926367 274.4136761 -3.759555462)
(856.5734955 273.337006 1.212973794)
(845.9212838 262.7070887 -3.240097012)
(827.5458183 248.2550402 -3.056795379)
(815.4187707 241.8681459 1.208801117)
(794.9956916 245.9655386 1.709908071)
(785.6335684 231.2864661 -1.5282693)
(771.6956311 229.7649226 0.5991259064)
(764.9180238 226.6045443 -0.7001199397)
(758.0027956 221.5130564 -5.677771313)
(756.4700745 217.5124508 -4.133507458)
(746.472565 217.443288 5.764543201)
(751.4884648 209.6354043 13.49205724)
(753.1267779 205.068939 1.366159001)
(760.0456902 198.8501871 -4.297313205)
(787.501454 191.4693876 -4.100650403)
(817.6900943 176.9867422 -0.8270319204)
(871.6922151 162.9814434 -3.653505502)
(1185.556633 349.4456904 -1.344960198)
(1165.403021 354.9551107 -0.09337958849)
(1147.246573 354.595 -0.07104814883)
(1122.6831 361.6747623 -1.036335216)
(1108.624892 357.4699394 -1.657884726)
(1091.207706 360.7512532 1.342278034)
(1084.199006 348.751412 -3.034250333)
(1063.036247 341.1959797 0.01781951532)
(1039.132419 339.0756073 -2.494080809)
(1027.840789 337.7773816 -3.581276424)
(1013.372283 328.7560735 -3.791376325)
(993.3850284 321.0793331 -0.5715157702)
(976.7687935 316.7203435 0.08267074661)
(956.8151264 306.8324198 8.598428956)
(946.4439609 297.3287846 3.212323452)
(924.9232703 291.3197185 1.01129037)
(923.9192183 286.6131279 1.728807352)
(901.3944023 279.5393913 4.524918542)
(888.9502626 277.5265816 2.898168722)
(871.011049 265.3302799 -1.858234986)
(856.8005243 263.400978 -2.951604726)
(860.2475131 255.2284666 3.351518298)
(851.5908818 250.2668763 -8.467882825)
(832.7815575 244.6932871 4.380866563)
(833.5120723 236.4018336 2.860466384)
(842.7819086 232.3451179 0.6518434326)
(852.0760752 225.9103156 -4.208016265)
(864.147733 216.8318493 -7.732895154)
(888.8039006 205.6647131 -0.4006495365)
(950.5269155 189.7987035 -7.340453728)
(1272.592967 338.8718928 -1.766600507)
(1245.445863 352.3120654 -1.45118201)
(1226.600893 362.349671 -7.872442296)
(1203.637341 371.5797549 -5.864043169)
(1190.591082 370.4041669 -4.004301256)
(1171.847052 375.7395473 -7.208430397)
(1160.687234 374.6638871 -2.177330581)
(1142.305955 373.4299222 -4.529171283)
(1138.766984 365.6514013 0.9632659742)
(1113.584961 359.1149219 3.490171083)
(1086.662292 359.5621807 1.031670428)
(1064.195765 353.1397678 -3.335219834)
(1056.447678 343.6984416 -0.7881673378)
(1039.674982 340.9646759 -0.4745781631)
(1026.488498 336.1806941 -3.619982765)
(1013.899169 330.8645013 -0.4433623591)
(996.4895058 313.4674564 -3.91706665)
(977.4846168 310.0140621 -4.38000425)
(968.121062 306.6736081 0.5676186025)
(954.1042962 301.9818052 -4.148706843)
(950.3061372 291.5905273 0.3729447449)
(944.7593706 291.5341079 -3.855050576)
(940.0894987 274.9042029 -6.246893011)
(932.6412437 269.3320507 -3.861800418)
(929.5646476 275.5462993 -0.5026753205)
(931.465802 266.2941579 2.94874048)
(941.00974 254.1555632 7.435101358)
(945.7826834 243.2287673 8.401802676)
(964.2845016 234.8455895 2.85740712)
(997.0839045 220.1733027 0.8258466127)
(1335.34408 310.3547811 -3.8717269)
(1309.73473 332.629341 -4.243696102)
(1302.233722 349.2223683 -3.905614073)
(1277.190885 366.3940381 -2.163300223)
(1267.993202 368.2293685 -5.466322237)
(1240.463749 382.19874 -0.6065978069)
(1223.436318 385.9713011 -0.9271002252)
(1207.894934 385.2767453 3.597930598)
(1194.227538 386.0246662 -1.475180091)
(1182.631495 381.0854818 -6.472366215)
(1161.468622 379.5298008 -5.013335603)
(1142.437546 374.9941845 -3.209986151)
(1130.8321 374.5316507 -1.723723015)
(1107.759882 374.7934256 0.729944161)
(1097.999059 364.5525791 -0.3977891313)
(1087.92203 352.7130506 1.993742209)
(1071.852874 347.3501505 3.488794204)
(1060.684231 341.3494691 -0.6297320819)
(1048.99 338.3647944 1.328836698)
(1042.437439 328.5072996 -5.99006644)
(1025.835328 320.607786 0.9143303272)
(1024.361251 316.1186004 2.044324392)
(1019.099784 308.4288065 -3.356945835)
(1011.817046 296.322775 -0.2712666557)
(991.6931932 299.5584377 -0.9137117581)
(986.5746575 290.573356 6.841131415)
(993.2333659 279.3067715 0.7858387402)
(1008.892459 271.0565613 4.922020887)
(1020.063941 262.3583767 4.611564935)
(1040.104283 241.9922582 1.237073275)
(1416.064111 271.9504738 1.082596356)
(1382.745791 299.8837885 -1.083503745)
(1360.572441 320.9892895 0.5939579295)
(1336.434107 344.7544006 -2.046665155)
(1316.928058 359.38092 3.295363413)
(1295.507843 371.5021257 -0.2929767422)
(1272.477334 382.092666 -1.353582142)
(1261.729826 386.944781 -0.1273666592)
(1241.973603 397.6977789 -0.4098678962)
(1239.003671 395.0055683 0.9497213401)
(1226.190865 396.7738374 -2.679805923)
(1204.708285 395.6963485 6.715965332)
(1193.810514 391.5509131 2.895135587)
(1177.126311 389.1518496 -2.06638249)
(1167.692334 379.233933 -2.308404252)
(1143.240179 378.7581933 -0.5062662827)
(1132.612644 373.633144 -3.904003976)
(1127.925018 364.7384394 -0.5689533991)
(1109.997234 360.0513346 2.084981698)
(1097.843179 357.3000872 1.448220572)
(1079.639803 348.3774312 -4.912277597)
(1076.100564 341.3223415 -0.04988854391)
(1069.958549 334.895058 -7.032060525)
(1074.682701 327.3312781 1.82894194)
(1060.57801 318.0291225 -0.6183564547)
(1053.42632 317.1198676 -6.318195956)
(1054.279139 308.6551341 -0.2758435696)
(1062.698912 296.7412817 -2.924775218)
(1075.413003 286.5447752 0.2522680643)
(1097.496274 270.3036683 -2.290478514)
(1475.774434 227.5877013 3.235225062)
(1445.423349 256.6880458 8.657245404)
(1420.090945 287.9871804 8.118219129)
(1394.086171 310.9689546 7.019751319)
(1369.094564 338.4493644 3.99725276)
(1356.293357 357.7256196 -0.5902499267)
(1334.242098 366.2612714 -0.7622047358)
(1315.599116 382.331814 -2.523843112)
(1297.8813 385.9829995 -2.238775121)
(1282.300641 395.525733 -0.4352991137)
(1273.521434 396.2764992 2.868174997)
(1256.314398 397.6051765 -3.896322492)
(1244.779171 398.0290448 0.9013159875)
(1221.822036 398.900252 -0.1474063618)
(1212.084555 399.7584112 -1.131230909)
(1203.527787 399.6427409 -5.629975628)
(1196.748648 397.7542267 -5.686371968)
(1179.575887 395.7908291 -6.295480125)
(1173.49377 386.8225947 -7.786864341)
(1161.084661 379.7440759 -3.698241707)
(1139.893094 370.6019236 -7.473891052)
(1130.693096 362.7156025 -1.908389715)
(1125.445673 359.3383919 3.101024783)
(1127.402028 350.0857832 -3.192327178)
(1118.8767 344.6873401 2.863266387)
(1110.354427 341.7281636 -2.925477026)
(1106.358549 335.9178054 -3.488179612)
(1113.36614 325.2012391 1.904690677)
(1123.262131 311.8223166 2.138833788)
(1139.006751 294.4329242 2.670030055)
(1527.604203 187.9270451 -0.04609080889)
(1494.051656 216.4471737 -0.3773298317)
(1468.983966 244.7869962 -5.708647855)
(1455.380302 273.7914363 -0.4879583159)
(1426.604621 297.6814537 3.162911051)
(1407.201557 319.9378895 11.54415621)
(1387.76813 344.2384613 4.761347473)
(1364.925913 359.4146394 8.264141551)
(1348.840022 374.7826352 2.59457275)
(1325.235166 382.3947966 -1.348853893)
(1317.721925 391.6878261 -1.487785125)
(1305.30642 399.7604849 -4.586017561)
(1290.381575 409.4625877 -3.739817195)
(1276.069755 412.8813447 -0.5622550866)
(1261.303509 412.3368127 -1.159224229)
(1257.075466 406.4449225 -0.125730016)
(1245.838331 414.804667 3.887152023)
(1230.286117 410.5042609 0.9878794068)
(1217.582686 406.8817577 1.301328464)
(1215.033087 398.5517515 4.169900383)
(1194.010587 392.5575427 0.8917405361)
(1185.881162 385.6404541 -5.093609152)
(1175.180876 383.0070622 -2.152494664)
(1164.505352 376.4979909 1.794551395)
(1168.517091 374.4032546 0.4222460342)
(1163.235712 361.8048768 3.487248619)
(1152.970512 351.6417981 1.408401157)
(1153.06661 344.4435917 3.52092409)
(1161.60414 334.3117421 0.496205363)
(1172.281493 320.8109541 -0.432974869)
(1569.395553 148.5834712 2.352415679)
(1543.804905 178.9509041 1.321877821)
(1526.516686 202.1864827 0.788882211)
(1504.184042 227.5694574 0.8310330871)
(1484.7287 257.2597863 0.5286482914)
(1454.685212 291.1624016 -1.551100816)
(1430.791303 309.0451919 6.473837775)
(1411.709585 319.4583702 -0.3813518509)
(1398.57842 345.0683078 4.808305462)
(1380.389544 368.4456928 0.07200759112)
(1368.273302 388.6101991 -7.710801164)
(1348.38321 393.5899705 -2.610336956)
(1329.806361 404.8011476 0.2175405537)
(1318.585568 412.8361839 0.7940644013)
(1308.686949 414.5981944 6.362980471)
(1293.537956 417.5147891 8.056807229)
(1286.460957 421.6689329 6.174530987)
(1275.045945 416.108608 1.543052421)
(1262.902504 418.411741 2.932527536)
(1251.711286 414.2789274 0.9970743238)
(1242.291976 411.2018335 1.838100158)
(1224.198657 408.3813301 3.668024439)
(1219.52249 404.1964507 1.042341003)
(1208.362662 394.8331046 -0.1546705956)
(1203.760527 386.3482101 3.337418027)
(1207.034008 376.1915399 -1.442634788)
(1200.299167 370.6164704 -1.748737922)
(1200.615153 363.4486391 -3.219029454)
(1191.15437 356.9672953 1.944912632)
(1201.261231 341.4760879 0.9084538257)
(1621.580868 110.2967549 -3.862035518)
(1599.1096 140.3641996 -4.752331274)
(1569.607985 171.7144798 -3.823693621)
(1551.139024 189.3031961 -0.7707986002)
(1529.096989 218.4452125 -3.220040517)
(1505.571189 245.0358284 -2.137431872)
(1482.369877 270.5999908 -2.611244573)
(1466.83485 297.1716074 -3.629900998)
(1446.282412 326.8612458 -4.092626377)
(1429.299151 342.5473136 -1.346607472)
(1412.321131 360.483836 0.9213709546)
(1386.203138 381.1367576 -4.872597628)
(1369.410802 387.5982259 -5.926862484)
(1351.635967 399.278052 -3.557109134)
(1341.626607 411.0353016 3.091316219)
(1333.773543 419.9865961 3.752750059)
(1316.271282 421.1447954 2.859960404)
(1305.260789 423.0956687 6.959617709)
(1294.9591 423.5749166 3.279028895)
(1290.646474 423.4029841 4.228142057)
(1283.978531 421.0814128 1.789868114)
(1265.592494 421.7904247 0.635223633)
(1261.926824 414.0443117 1.883197731)
(1247.817537 406.3866198 3.656561657)
(1240.721779 401.8271534 1.18343207)
(1239.447207 398.7873797 -1.341525037)
(1232.705882 394.2821926 5.180929467)
(1230.598121 379.8651835 4.797947157)
(1237.660079 369.1690509 0.9349714642)
(1241.852397 359.5814474 6.793770586)
(1643.688323 91.53189122 0.4346558262)
(1628.470589 103.551372 -0.839237591)
(1610.787283 125.7686508 3.474545093)
(1593.3616 148.7667284 -0.4123034585)
(1568.106366 178.175056 -4.058870443)
(1546.762872 201.6541038 -3.681685013)
(1525.571528 226.2765669 -2.934159718)
(1498.295066 264.3546587 -1.047874139)
(1481.542491 283.3125514 -1.748073831)
(1453.369319 309.0401092 -0.8394046858)
(1439.966407 320.4793247 -1.738289875)
(1427.959039 343.1198989 0.573114395)
(1406.407302 369.6548878 -0.7008856833)
(1385.510954 388.5021139 -3.650624721)
(1364.856677 402.4543085 -6.185981773)
(1359.817194 408.601737 -3.442091445)
(1349.313407 413.0254771 -4.480572521)
(1336.466293 417.5712414 -4.792562952)
(1333.578178 423.5675602 2.855712602)
(1326.126936 426.7821174 4.863817929)
(1319.994556 424.4449124 3.756644557)
(1304.877137 425.4652164 3.671897195)
(1290.163521 424.91067 3.359705369)
(1280.40506 418.1817261 3.290042761)
(1276.311744 419.7486007 6.039232884)
(1275.311641 412.2081654 5.644312756)
(1270.155387 404.9098754 -2.244877837)
(1265.744423 396.2135532 3.601945771)
(1267.618083 384.3481389 2.309064197)
(1273.783307 371.7733118 -0.01246463171)
(1669.614371 66.87075081 0.04125753672)
(1658.346104 80.05347681 -2.150427305)
(1642.544805 93.62449882 -5.2062678)
(1626.504688 117.4316418 -5.228696937)
(1605.458212 145.4250062 -4.217553542)
(1582.723557 170.1718985 -3.454218313)
(1564.113647 191.2190424 -3.940507219)
(1542.651675 220.0671132 -6.333822041)
(1517.652726 237.7969644 -5.269877222)
(1499.628629 262.5403606 -3.765153516)
(1480.063303 297.4658485 0.794142796)
(1463.587899 316.6333286 0.7080970209)
(1441.634506 335.8413856 -2.334846907)
(1423.546552 356.3781976 -1.658697059)
(1413.336047 369.3337348 -2.797247341)
(1390.532954 385.6915402 -5.444801476)
(1383.200475 399.3413427 -4.353322075)
(1375.053392 414.1990849 -2.01578006)
(1367.12031 417.3996508 -1.161302894)
(1353.237301 419.2194865 2.142786842)
(1342.65691 422.2174631 2.290696493)
(1336.548487 422.9797481 2.294714041)
(1327.281967 426.3957822 0.9909214959)
(1318.492577 430.5553929 4.523280388)
(1303.846076 423.1138188 0.479797914)
(1304.724045 418.5883716 1.776905576)
(1297.537165 414.9017084 -1.130046546)
(1286.841216 410.7356891 1.955421753)
(1291.788973 401.8835847 1.930536283)
(1299.194528 392.8103249 -3.423008505)
(1679.780669 52.48162735 2.086514109)
(1672.055508 64.46898898 1.767416532)
(1665.880216 81.13675658 2.55297964)
(1646.51884 97.31121569 0.6996447825)
(1639.440168 106.2966655 -0.346585493)
(1615.971523 130.9587199 3.412290472)
(1596.548163 154.3317853 4.174220239)
(1577.012177 177.5198047 3.703353074)
(1559.850074 202.0404764 -1.412668093)
(1545.280417 225.1910665 1.243663717)
(1524.362509 252.7464615 5.097766875)
(1506.847715 276.4697114 -1.795005556)
(1493.948161 294.4894732 -2.724717226)
(1479.090186 317.372367 3.866930291)
(1446.843281 344.8442247 1.512019233)
(1428.552468 364.7544696 1.744652328)
(1412.459725 381.6063824 2.611725734)
(1398.203409 395.6201154 1.018579607)
(1388.719276 401.0544034 -3.546956362)
(1379.012681 410.5365059 -4.57565674)
(1376.771833 419.278695 -1.10487856)
(1360.283801 430.6146856 3.081356988)
(1350.347155 429.8030435 1.670028629)
(1334.595698 431.1441344 -0.8462365001)
(1334.962104 428.1278126 4.506095488)
(1332.44689 429.7017784 7.545664149)
(1321.352713 424.0443349 2.629954715)
(1319.231561 419.8303722 -0.4292664581)
(1311.25582 416.4370195 2.330331729)
(1696.696026 45.92252041 2.898304923)
(1692.377971 52.35070946 -0.1636766847)
(1682.04294 60.72805289 -0.795735833)
(1666.042541 71.39057488 1.470672034)
(1659.037271 85.67091572 3.29158959)
(1649.787755 100.3274367 -0.3119702369)
(1636.768448 119.5267569 0.5506602209)
(1622.074254 137.6408849 -1.143737405)
(1604.304658 167.4654144 1.160293561)
(1586.752839 186.6407409 0.3891573815)
(1564.574002 212.7193997 -2.556142052)
(1545.080712 237.4255744 -2.769986371)
(1527.962733 269.2321024 -2.755255604)
(1510.823975 283.8103777 -0.3195624808)
(1486.481328 308.4236374 1.707526658)
(1467.950139 331.8217646 -4.381478664)
(1446.305324 347.0372476 -5.983288698)
(1425.496719 369.5043 1.291634493)
(1415.937876 385.8956977 1.299421413)
(1415.719506 402.1529413 -2.725762058)
(1404.798312 411.3710557 -4.768806821)
(1386.080123 413.0336822 -0.604660539)
(1377.683167 421.4059976 -0.1150812313)
(1365.343652 429.1750473 1.124569455)
(1364.232387 428.2818666 -0.7301658173)
(1703.447352 31.42195794 -1.975235415)
(1694.922774 35.55965978 -0.5516193731)
(1684.778114 46.18635559 -0.7038524205)
(1678.326115 60.01848294 -1.636125053)
(1673.780665 70.46230653 -1.198189663)
(1669.575241 76.41576545 -0.7873161281)
(1660.691549 90.26950917 0.7942305362)
(1644.585344 112.5235155 0.2260408956)
(1629.042336 128.4938443 3.479866745)
(1612.159557 160.7112831 1.298916504)
(1598.095787 180.1839705 2.033071837)
(1581.790428 197.0038832 2.717129568)
(1559.828843 219.6634485 -0.5411259063)
(1545.748424 245.3919345 -3.566231332)
(1523.438319 271.6993793 -4.115960018)
(1504.428374 291.9935794 0.1921067052)
(1492.446717 312.4232268 -4.656975622)
(1466.671944 339.9669996 -6.562739631)
(1452.689637 363.7190304 5.499467771)
(1708.565325 24.63919635 -0.8193048568)
(1704.146144 26.63351998 1.546927207)
(1708.893409 30.94631261 1.790247331)
(1698.315748 41.40883118 0.3165263251)
(1681.901129 55.13863186 1.717219575)
(1674.088598 61.56471335 1.614972459)
(1668.448086 74.54667841 3.881064084)
(1657.93076 87.56206276 0.386285753)
(1648.443061 103.577387 -0.3157947586)
(1636.12255 116.8701655 -1.444075042)
(1622.311671 142.3169061 3.128901566)
(1608.289276 162.732696 1.311337468)
(1595.34198 181.4606046 4.628055654)
(1578.286225 200.4828884 5.260944372)
(1718.229563 20.09552376 -2.300046753)
(1717.866103 24.88764021 -2.067491411)
(1715.269017 30.40121648 0.3142233805)
(1708.360826 31.9077446 -0.9146975169)
(1702.828814 45.19426619 0.1877252392)
(1695.064664 56.7716996 2.720965116)
(1689.448231 59.16234487 1.907527293)
(1679.633703 66.34816088 1.405671857)
(1723.045277 15.78206334 6.85663779)
)
;

boundaryField
{
    flow
    {
        type            calculated;
        value           nonuniform List<vector> 
15
(
(406.3342661 76.4518453 -1.537476339)
(618.4141837 88.94881448 -2.697639187)
(726.9517564 103.5051393 -0.2214024744)
(804.0075 133.0538449 8.024220594)
(871.6922151 162.9814434 -3.653505502)
(950.5269155 189.7987035 -7.340453728)
(997.0839045 220.1733027 0.8258466127)
(1040.104283 241.9922582 1.237073275)
(1097.496274 270.3036683 -2.290478514)
(1139.006751 294.4329242 2.670030055)
(1172.281493 320.8109541 -0.432974869)
(1201.261231 341.4760879 0.9084538257)
(1241.852397 359.5814474 6.793770586)
(1273.783307 371.7733118 -0.01246463171)
(1299.194528 392.8103249 -3.423008505)
)
;
    }
    obstacle
    {
        type            calculated;
        value           nonuniform List<vector> 
30
(
(201.7672362 54.0633681 1.808499309)
(191.4428716 51.29696293 -2.850303058)
(189.2530554 50.71020319 9.000883353)
(182.3823745 48.86921005 -3.367966744)
(151.5666422 40.61215926 3.715280359)
(176.359784 47.25546179 6.851431315)
(172.5222165 46.22718868 4.379909706)
(159.5533434 42.75218938 3.178061656)
(175.2489062 46.95780299 10.4744208)
(157.7323795 42.26426378 -15.68968855)
(174.5478016 46.76994234 -3.001649472)
(122.0978577 32.71602242 15.05284274)
(153.4486137 41.1164322 7.529194266)
(144.312102 38.66831108 -2.712209513)
(114.8380319 30.77075796 28.07988201)
(144.590092 38.74279827 -14.06903026)
(129.346243 34.65822143 -1.472779917)
(146.5989328 39.28106574 2.995939471)
(134.5589855 36.05497139 -4.216362148)
(166.2834051 44.5555042 26.42407822)
(134.0554519 35.92005013 0.352328274)
(131.4872381 35.23189915 -1.655142033)
(139.1085088 37.27401267 -3.433297254)
(149.9829053 40.18779842 -0.6165168113)
(141.3275444 37.86860128 15.56043099)
(147.0552248 39.40332879 -0.7280642446)
(152.1033802 40.75597777 16.64312455)
(172.925379 46.33521573 -18.6860196)
(199.1911574 53.37310986 -3.078149117)
(226.9817976 60.81958918 9.598651347)
)
;
    }
    frontAndBack
    {
        type            empty;
    }
    procBoundary1to0
    {
        type            processor;
        value           nonuniform List<vector> 
21
(
(395.520608 113.5405283 -0.2237402615)
(666.4871782 199.4296083 -0.8326544121)
(852.5865034 276.1003232 -1.011458629)
(1007.281641 325.1927927 -3.880673814)
(1119.762591 342.3464671 2.950256896)
(1215.016214 334.7673608 -0.5124577581)
(1295.885379 316.7709599 -0.1157065925)
(1366.665465 282.9422482 3.54723014)
(1446.707275 238.6991242 -4.125144128)
(1513.310628 198.9591142 -0.8182942145)
(1553.365712 163.24897 5.967494316)
(1597.908626 124.2431383 0.8219092407)
(1631.540362 95.58228676 -4.666750771)
(1656.434969 72.58733622 0.5829474518)
(1680.719889 58.07742311 3.484427327)
(1683.104819 39.91349321 -0.6119493867)
(1704.658326 37.25050612 2.993146326)
(1710.494126 21.5604389 -3.533353784)
(1716.582549 20.10811917 -1.705133628)
(1722.98065 18.5700318 -1.194467969)
(1725.046265 12.49735135 7.852517785)
)
;
    }
    procBoundary1to3
    {
        type            processor;
        value           nonuniform List<vector> 
36
(
(1312.807503 411.3073235 0.8559253886)
(1358.619875 431.044398 2.153255811)
(1346.64284 435.2825468 4.800298179)
(1341.704273 428.204498 4.361019437)
(1312.807503 411.3073235 0.8559253886)
(1343.790203 425.0689971 7.43648165)
(1433.905112 373.4840973 4.263316845)
(1427.353022 384.0471725 -1.141831024)
(1413.60535 400.4539038 -6.723001669)
(1407.512732 408.4705276 -5.696665885)
(1390.886519 419.4130656 -2.25517837)
(1358.619875 431.044398 2.153255811)
(1374.618575 425.7917015 -7.040239937)
(1557.593682 232.5028444 1.777985893)
(1539.631963 255.7117043 -2.107851371)
(1525.568871 281.7382483 -1.776606979)
(1506.108657 302.5680884 -6.325384664)
(1433.905112 373.4840973 4.263316845)
(1483.625788 321.4444408 -5.468791072)
(1669.372796 80.35250648 0.03934351919)
(1662.39169 91.12785963 1.399024585)
(1654.863923 106.5953449 -1.170841969)
(1634.639943 130.5138221 3.724938657)
(1628.874655 147.6662868 2.937474636)
(1557.593682 232.5028444 1.777985893)
(1612.534149 164.9809157 -3.859641221)
(1723.616462 16.60910667 7.36212385)
(1719.141365 20.64702419 4.608084634)
(1719.248192 25.14009086 5.391856787)
(1712.56625 28.64140488 5.051747412)
(1705.638953 35.79131042 2.605804439)
(1702.689658 42.41147462 1.553275253)
(1669.372796 80.35250648 0.03934351919)
(1694.028654 52.61788523 4.138568037)
(1723.616462 16.60910667 7.36212385)
(1730.086977 10.37110363 -3.235332348)
)
;
    }
}


// ************************************************************************* //
