/*--------------------------------*- C++ -*----------------------------------*\
| =========                 |                                                 |
| \\      /  F ield         | OpenFOAM: The Open Source CFD Toolbox           |
|  \\    /   O peration     | Version:  2406                                  |
|   \\  /    A nd           | Website:  www.openfoam.com                      |
|    \\/     M anipulation  |                                                 |
\*---------------------------------------------------------------------------*/
FoamFile
{
    version     2.0;
    format      ascii;
    arch        "LSB;label=32;scalar=64";
    class       Cloud<dsmcParcel>;
    location    "0.001/lagrangian/dsmc";
    object      coordinates;
}
// * * * * * * * * * * * * * * * * * * * * * * * * * * * * * * * * * * * * * //

6199
(
(0.7474691149 0.1262654426 0.04904431717 0.0772211254) 472 868 1
(0.2223636188 0.3888181906 0.2203948588 0.1684233318) 106 206 2
(0.3190524428 0.3404737786 0.1651604336 0.175313345) 472 868 1
(0.4972364678 0.2513817661 0.04955066685 0.2018310992) 261 453 1
(0.7493091891 0.1253454055 0.03035077417 0.09499463128) 169 272 1
(0.3887178494 0.01820896345 0.2874321119 0.3056410753) 168 328 1
(0.3797635074 0.3101182463 0.171990912 0.1381273343) 472 926 2
(0.196500891 0.01601905668 0.4017495545 0.3857304978) 142 278 2
(0.08044531811 0.4597773409 0.200403854 0.259373487) 352 690 2
(0.5250038532 0.2374980734 0.1033270962 0.1341709772) 292 573 1
(0.5956710503 0.1814261095 0.2021644748 0.02073836531) 351 689 2
(0.3441411003 0.05537827323 0.2725511766 0.3279294498) 349 626 2
(0.1380162247 0.1107685322 0.4309918877 0.3202233554) 323 631 1
(0.01622460705 0.0609508695 0.4918876965 0.430936827) 173 336 1
(0.3179507161 0.003000373707 0.341024642 0.3380242683) 502 986 2
(0.04554256281 0.4057661241 0.07146259451 0.4772287186) 382 691 2
(0.5085574716 0.2317085173 0.01401274686 0.2457212642) 82 159 1
(0.3994740948 0.0629952453 0.3002629526 0.2372677073) 293 574 2
(0.7211130222 0.1342326681 0.1394434889 0.005210820841) 263 513 1
(0.317418236 0.05170080718 0.2895900748 0.341290882) 172 336 1
(0.224645966 0.2023876699 0.387677017 0.1852893471) 259 508 2
(0.280743586 0.359628207 0.3167783406 0.04284986638) 353 692 1
(0.3115875081 0.1546629245 0.3442062459 0.1895433214) 348 683 2
(0.2042258067 0.2279964137 0.169890683 0.3978870967) 409 802 1
(0.05779814293 0.4711009285 0.3712151321 0.09988579649) 292 572 2
(0.1109480482 0.2049349359 0.23959104 0.4445259759) 226 442 1
(0.7019589957 0.06133646756 0.1490205021 0.08768403457) 473 926 1
(0.1628746901 0.418562655 0.2265357678 0.1920268871) 263 456 1
(0.3190194321 0.3404902839 0.07632595714 0.2641643268) 293 574 1
(0.1798779992 0.1134239115 0.4100610004 0.2966370889) 263 515 2
(0.3407885501 0.1655134388 0.1640922862 0.329605725) 230 450 1
(0.3300403731 0.3349798135 0.1729986046 0.1619812089) 322 573 1
(0.6764119041 0.161794048 0.1356894595 0.02610458848) 259 449 1
(0.4490006332 0.2754996834 0.1360760112 0.1394236722) 233 397 1
(0.04667748914 0.2393994432 0.2372618122 0.4766612554) 353 633 2
(0.5435648552 0.1677394406 0.06047813187 0.2282175724) 169 330 1
(0.3578442742 0.01456792586 0.3210778629 0.306509937) 353 692 2
(0.0005677207859 0.1481395045 0.4997161396 0.3515766351) 562 1101 1
(0.07539714827 0.4623014259 0.2315797033 0.2307217226) 473 869 1
(0.8501735841 0.07491320797 0.03258857754 0.04232463043) 293 574 1
(0.01406213786 0.1263168503 0.3666520808 0.4929689311) 142 277 1
(0.3762623081 0.3118688459 0.1006205031 0.2112483429) 198 329 1
(0.3581251898 0.3209374051 0.04784418472 0.2730932204) 323 633 1
(0.0339048807 0.4830475597 0.04009892764 0.442948632) 199 331 1
(0.1889429518 0.4055285241 0.2125624783 0.1929660459) 291 570 2
(0.3292700695 0.3353649652 0.2143579409 0.1210070244) 141 273 2
(0.347527892 0.326236054 0.2774457511 0.04879030289) 593 1164 1
(0.7645396958 0.1177301521 0.06293381248 0.05479633962) 143 279 1
(0.385184515 0.3074077425 0.08466644435 0.2227412982) 442 865 2
(0.03665168638 0.09792587227 0.3837482845 0.4816741568) 351 630 2
(0.5848371403 0.2075814299 0.02419372458 0.1833877053) 54 104 1
(0.09969643692 0.4501517815 0.01867735915 0.4314744224) 202 395 2
(0.3916663166 0.3041668417 0.02872722516 0.2754396166) 413 1269 2
(0.1558656148 0.4220671926 0.2167299465 0.2053372461) 353 1267 2
(0.2467300417 0.3578615355 0.01877344368 0.3766349792) 407 740 2
(0.2824512671 0.2552744909 0.3587743665 0.1034998756) 81 158 2
(0.5853043894 0.2073478053 0.02258681217 0.1847609931) 111 214 2
(0.3103727263 0.333769529 0.3448136368 0.01104410783) 351 686 1
(0.408503248 0.295748376 0.2469155722 0.04883280376) 383 1268 2
(0.06805393331 0.06735793925 0.4659730333 0.3986150941) 31 60 2
(0.2042400806 0.3978799597 0.01382862613 0.3840513335) 202 337 1
(0.3288470014 0.08804960726 0.247526892 0.3355764993) 322 631 1
(0.2691399467 0.3654300267 0.3266158545 0.0388141722) 112 218 2
(0.5170363038 0.2414818481 0.08876303594 0.1527188122) 405 736 1
(0.09302647824 0.3550442683 0.0984424926 0.4534867609) 532 986 2
(0.2802527926 0.1061901678 0.3598736037 0.2536834359) 323 633 2
(0.5246653939 0.2335804569 0.237667303 0.004086846099) 531 1040 1
(0.1494728881 0.1887654292 0.4252635559 0.2364981267) 139 269 1
(0.01155803319 0.3134324754 0.180788508 0.4942209834) 292 572 1
(0.5551976288 0.2064850691 0.0159161165 0.2224011856) 170 274 2
(0.5381809354 0.2309095323 0.121056122 0.1098534103) 80 156 1
(0.378313015 0.3108434925 0.04937346047 0.261470032) 352 690 2
(0.1510005534 0.1104714594 0.3140282639 0.4244997233) 350 686 1
(0.1692178575 0.1414712714 0.4153910713 0.2739197999) 203 397 2
(0.1115320516 0.4442339742 0.3356698097 0.1085641645) 51 56 1
(0.2622032912 0.3688983544 0.1086886161 0.2602097382) 51 96 2
(0.6058446233 0.1970776883 0.04554959083 0.1515280975) 199 390 1
(0.3013530089 0.2128335019 0.3493234955 0.1364899936) 231 453 2
(0.497543118 0.2049568816 0.04627155945 0.251228441) 292 514 2
(0.1613066027 0.3954683321 0.02387836654 0.4193466986) 170 274 2
(0.248680829 0.3756595855 0.1186242621 0.2570353234) 142 275 2
(0.1934944001 0.1733679663 0.2298848336 0.4032527999) 263 1264 1
(0.3303956386 0.3348021807 0.303422027 0.03138015373) 50 94 2
(0.473891064 0.05014396037 0.263054468 0.2129105076) 233 456 2
(0.08420893337 0.2131989589 0.2446965744 0.4578955333) 109 212 1
(0.2682715359 0.01328163497 0.3525825971 0.3658642321) 652 1222 2
(0.102190951 0.06057256006 0.3883319644 0.4489045245) 15 8 2
(0.1327626172 0.4336186914 0.1188589623 0.3147597291) 353 690 2
(0.08915592119 0.4554220394 0.2140573683 0.2413646711) 502 927 1
(0.4170802099 0.291459895 0.1793055164 0.1121543787) 293 515 1
(0.6198056816 0.1900971592 0.06554888258 0.1245482766) 230 448 2
(0.3791048688 0.0865401427 0.2239074229 0.3104475656) 202 337 2
(0.04236373833 0.2116304023 0.2671877286 0.4788181308) 621 1161 2
(0.3325223937 0.1587841501 0.3337388032 0.174954653) 83 159 1
(0.6795671083 0.007600774078 0.1526156718 0.1602164458) 170 274 2
(0.6193621682 0.089919173 0.1903189159 0.1003997429) 321 627 1
(0.5367887092 0.1227929119 0.1088127334 0.2316056454) 413 751 2
(0.7086798639 0.1062030744 0.03945699365 0.145660068) 413 751 2
(0.1779041717 0.3066946028 0.4110479141 0.1043533114) 289 567 2
(0.272383014 0.004245201687 0.3595632913 0.363808493) 83 104 2
(0.2656555615 0.3671722193 0.03968084707 0.3274913722) 291 571 1
(0.4456958034 0.2771520983 0.09509638238 0.1820557159) 171 335 1
(0.01423138506 0.4928843075 0.1916812533 0.3012030541) 81 157 2
(0.6887407516 0.1556296242 0.009993075192 0.145636549) 322 573 1
(0.02610635641 0.4869468218 0.2619467928 0.225000029) 263 513 2
(0.08214473256 0.4589276337 0.2780126611 0.1809149726) 322 632 1
(0.3835356936 0.3082321532 0.2889578464 0.01927430679) 143 277 2
(0.06670718281 0.4666464086 0.0292786533 0.4373677553) 203 338 1
(0.3090530685 0.3454734658 0.2792967096 0.06617675619) 531 1043 1
(0.1356225172 0.3614953011 0.4321887414 0.07069344027) 562 1101 1
(0.07098828752 0.1582311134 0.4645058562 0.3062747429) 112 219 2
(0.3656944128 0.3171527936 0.1599807104 0.1571720832) 592 1160 2
(0.1288513126 0.4355743437 0.3245381548 0.1110361889) 443 867 2
(0.1831876972 0.1662754137 0.4084061514 0.2421307377) 50 97 2
(0.632355257 0.06279085111 0.1210315204 0.1838223715) 532 986 2
(0.8112144342 0.02797964907 0.06641313384 0.09439278291) 287 504 2
(0.2652476607 0.3673761696 0.2499602515 0.1174159181) 352 690 2
(0.5276876082 0.2361561959 0.1076842471 0.1284719487) 442 809 1
(0.6914918906 0.05359194047 0.1542540547 0.1006621142) 593 1162 1
(0.1629513042 0.4185243479 0.3459805292 0.07254381873) 410 804 2
(0.8824129991 0.05879350044 0.03483673252 0.02395676791) 443 867 2
(0.03434454204 0.1796617481 0.482827729 0.3031659809) 532 1045 2
(0.7906330882 0.1046834559 0.04598930091 0.05869415501) 622 1221 2
(0.6889790392 0.1555104804 0.1457993783 0.009711102125) 591 1160 2
(0.1227500964 0.3774452575 0.4386249518 0.06117969426) 231 450 1
(0.1892100517 0.3001532264 0.1052417478 0.4053949742) 412 750 2
(0.3149008886 0.1482063314 0.3425495557 0.1943432243) 261 512 2
(0.5922344125 0.02646270217 0.2038827938 0.1774200916) 263 515 2
(0.3056456494 0.1192765579 0.2279006174 0.3471771753) 81 101 2
(0.1784262676 0.3955771137 0.01520975251 0.4107868662) 171 334 1
(0.6066370461 0.1966814769 0.1946876941 0.001993782859) 142 275 2
(0.4928784278 0.08982683233 0.1637339538 0.2535607861) 467 858 2
(0.3175848858 0.3412075571 0.2097924253 0.1314151318) 171 276 1
(0.05450399546 0.4727480023 0.03446277269 0.4382852296) 289 508 1
(0.03995257289 0.4800237136 0.358468162 0.1215555516) 232 455 1
(0.290677106 0.00644998174 0.3482114653 0.354661447) 109 154 2
(0.1639323387 0.3042019114 0.4180338307 0.1138319193) 143 277 1
(0.7456912813 0.003377025295 0.1237773341 0.1271543594) 412 750 2
(0.04401412822 0.4779929359 0.3848631453 0.09312979059) 622 1219 2
(0.1393312201 0.4303343899 0.01848608399 0.411848306) 622 1221 2
(0.2504111115 0.3747944443 0.2942924482 0.08050199604) 647 1246 2
(0.2849373268 0.1023293174 0.2552020192 0.3575313366) 172 278 2
(0.01980800703 0.08159588693 0.4085001095 0.4900959965) 352 690 1
(0.0727846781 0.463607661 0.1372530229 0.3263546381) 79 154 1
(0.2843981461 0.3578009269 0.3163717708 0.04142915611) 290 566 2
(0.2217105339 0.3331325185 0.3891447331 0.05601221456) 262 514 2
(0.01369871301 0.3583340638 0.1348165797 0.4931506435) 233 397 2
(0.2941885448 0.188043263 0.1648624646 0.3529057276) 321 571 2
(0.3941930398 0.3029034801 0.267950001 0.03495347908) 559 1039 1
(0.332821322 0.333589339 0.1385458648 0.1950434742) 200 333 1
(0.4268321539 0.2865839231 0.2134795826 0.07310434045) 226 442 2
(0.3992153586 0.05414316238 0.2462491583 0.3003923207) 353 1267 1
(0.2362419502 0.08970746942 0.2921715555 0.3818790249) 473 1271 1
(0.5041741684 0.2479129158 0.007667905157 0.2402450106) 141 275 2
(0.08132584418 0.4593370779 0.05788755515 0.4014495228) 439 861 2
(0.09419005065 0.05568906032 0.3972159144 0.4529049747) 76 91 2
(0.127392607 0.06269646349 0.373607233 0.4363036965) 292 572 1
(0.2462174274 0.3768912863 0.2788929859 0.09799830036) 558 1037 1
(0.2875318189 0.3562340906 0.03780390262 0.3184301879) 139 272 1
(0.02243410571 0.3185207599 0.4887829471 0.1702621872) 141 273 1
(0.5769359866 0.2115320067 0.1175185892 0.0940134175) 353 1267 2
(0.6135812206 0.1932093897 0.00244293075 0.1907664589) 173 279 1
(0.2113894256 0.2777346027 0.3943052872 0.1165706845) 77 147 1
(0.002004449205 0.4989977754 0.002465743677 0.4965320317) 261 511 2
(0.2249648328 0.3819009613 0.005616622234 0.3875175836) 410 746 2
(0.6369106826 0.01375505529 0.1815446587 0.1677896034) 173 338 2
(0.07455528009 0.46272236 0.04716355991 0.4155588) 288 562 2
(0.1086314584 0.4456842708 0.4287692196 0.01691505126) 233 397 1
(0.1044343155 0.3926702751 0.4477828423 0.05511256722) 383 751 2
(0.4357401675 0.05265969625 0.2821299162 0.22947022) 172 334 1
(0.1386550167 0.05281790404 0.4306724916 0.3778545876) 350 687 2
(0.7302747646 0.1348626177 0.06241919609 0.07244342161) 468 916 2
(0.1082399778 0.08081711295 0.3650628981 0.4458800111) 263 1264 1
(0.7448438846 0.007162713231 0.1204153445 0.1275780577) 231 394 2
(0.8322215986 0.04860464077 0.08388920069 0.03528455992) 288 562 1
(0.5502918141 0.09701474843 0.1278393445 0.2248540929) 233 1263 1
(0.3397127294 0.1038223091 0.3301436353 0.2263213262) 111 214 1
(0.5036726514 0.09356991966 0.1545937547 0.2481636743) 529 980 2
(0.03448330455 0.4323117053 0.4827583477 0.0504466424) 353 690 1
(0.4310129311 0.1525772361 0.2844935344 0.1319162983) 262 511 1
(0.4688172046 0.0153779434 0.2502134543 0.2655913977) 648 1214 2
(0.5120338064 0.1683390379 0.07564405887 0.2439830968) 291 570 1
(0.5859266575 0.1073406166 0.2070366713 0.09969605463) 293 574 2
(0.1525341136 0.4237329432 0.2063904087 0.2173425345) 411 748 1
(0.4938006676 0.2530996662 0.1913364215 0.06176324471) 171 332 2
(0.2813030059 0.01026158467 0.3593484971 0.3490869124) 233 454 1
(0.2575475292 0.07967420679 0.3712262354 0.2915520286) 352 691 2
(0.5462592344 0.2196442965 0.00722608626 0.2268703828) 142 219 2
(0.182966707 0.07004778101 0.4085166465 0.3384688655) 230 448 1
(0.2513943201 0.37430284 0.3364156535 0.03788718649) 141 273 2
(0.4461458641 0.276927068 0.1871608351 0.08976623285) 173 336 2
(0.413490309 0.1144797341 0.1787751114 0.2932548455) 231 452 1
(0.1254306192 0.1398673557 0.2974173347 0.4372846904) 353 1267 1
(0.0342129279 0.4043054687 0.07858806737 0.482893536) 293 1265 1
(0.6615939722 0.1692030139 0.08019880513 0.08900420879) 141 275 2
(0.6008328113 0.1995835944 0.08796424141 0.111619353) 81 101 1
(0.8587272751 0.07063636247 0.03248894897 0.0381474135) 443 869 1
(0.126929384 0.436535308 0.2306435722 0.2058917358) 533 1046 1
(0.213907626 0.2771414529 0.393046187 0.1159047341) 5 9 2
(0.2214122455 0.3892938773 0.1990985322 0.1901953451) 291 571 1
(0.2911315019 0.3060875233 0.04834672574 0.3544342491) 621 1161 2
(0.2843686045 0.3578156977 0.007876919462 0.3499387783) 32 30 1
(0.9562213662 0.02188931688 0.000434597454 0.02145471942) 381 747 2
(0.270037027 0.2246458311 0.1403356554 0.3649814865) 500 981 1
(0.739606052 0.130196974 0.07400404965 0.05619292434) 199 387 2
(0.6331998031 0.1834000985 0.01391312564 0.1694869728) 317 619 2
(0.1192280091 0.09702134587 0.3433646496 0.4403859955) 227 444 1
(0.1474825582 0.4262587209 0.4242147414 0.002043979466) 261 453 1
(0.1255928193 0.1689159109 0.4372035903 0.2682876794) 383 751 2
(0.2380386151 0.2747613292 0.3809806924 0.1062193633) 258 506 2
(0.7172418099 0.01245731624 0.1413790951 0.1289217788) 410 802 1
(0.008101536434 0.4959492318 0.3540546056 0.1418946262) 471 924 2
(0.6482403243 0.02531216785 0.15056767 0.1758798378) 199 331 2
(0.2020569537 0.3989715231 0.03293173668 0.3660397864) 410 804 2
(0.05570671173 0.3964999985 0.07564664567 0.4721466441) 112 160 2
(0.05874021433 0.4550496402 0.01558025268 0.4706298928) 412 750 2
(0.4362809164 0.01867127703 0.2631882647 0.2818595418) 592 1162 1
(0.7875660409 0.06846677417 0.1062169796 0.0377502054) 383 751 2
(0.391056684 0.304471658 0.2925581137 0.01191354426) 533 1273 2
(0.2265871274 0.0335220264 0.3531844099 0.3867064363) 260 451 2
(0.1621708366 0.4189145817 0.1647479849 0.2541665968) 412 809 1
(0.5715621966 0.2142189017 0.1946763092 0.01954259245) 233 397 1
(0.01446364796 0.492768176 0.1550295916 0.3377385844) 502 927 1
(0.0397287328 0.3591303909 0.4801356336 0.1210052427) 501 981 1
(0.6737326894 0.06927801214 0.1631336553 0.09385564319) 170 330 1
(0.4742967751 0.2628516125 0.2065091894 0.05634242304) 559 1097 2
(0.1785853614 0.07692428846 0.4107073193 0.3337830308) 82 160 2
(0.9080401589 0.04597992054 0.03366880887 0.01231111167) 111 214 2
(0.1888833361 0.4055583319 0.2654864228 0.1400719091) 322 631 2
(0.6530680562 0.1065437622 0.1734659719 0.06692220967) 470 923 2
(0.01395103003 0.2263434952 0.493024485 0.2666809898) 502 986 2
(0.4208665507 0.07702735164 0.2895667247 0.212539373) 473 926 1
(0.4654023711 0.2234518785 0.04384693598 0.2672988144) 290 568 1
(0.1690396405 0.2417125167 0.1737676631 0.4154801798) 468 860 2
(0.328981245 0.3355093775 0.1572498199 0.1782595577) 533 1046 1
(0.5755755667 0.001436808772 0.2107754079 0.2122122167) 139 271 1
(0.4898398805 0.1118694435 0.1432106163 0.2550800598) 379 743 1
(0.6685188101 0.003880097496 0.1657405949 0.1618604974) 202 396 2
(0.3285761285 0.2710224696 0.06468946611 0.3357119357) 473 869 2
(0.3105653923 0.3447173039 0.05112514318 0.2935921607) 533 1044 2
(0.2310576423 0.3844711788 0.3841061232 0.0003650556576) 562 1103 2
(0.1371769116 0.4314115442 0.3730443085 0.05836723567) 322 629 2
(0.1384011926 0.4307994037 0.1999221673 0.2308772364) 500 981 2
(0.3737561756 0.3131219122 0.1606728745 0.1524490377) 503 985 2
(0.4804040093 0.2597979953 0.2355870912 0.02421090415) 231 452 2
(0.1353476358 0.4323261821 0.2482569611 0.184069221) 380 743 2
(0.3159363281 0.3420318359 0.3378325146 0.004199321344) 442 809 1
(0.006006025549 0.01566480628 0.4813321809 0.4969969872) 322 573 2
(0.4197694552 0.1202050306 0.2901152724 0.1699102418) 141 276 2
(0.3218148544 0.3390925728 0.04993785072 0.2891547221) 411 748 1
(0.2688491531 0.3369959029 0.3655754235 0.02857952059) 143 277 1
(0.05102409293 0.4744879535 0.2794724644 0.1950154891) 201 394 1
(0.3693697773 0.1116364883 0.203678623 0.3153151114) 443 810 2
(0.3249995446 0.06931715029 0.3375002277 0.2681830774) 383 751 2
(0.2616674564 0.3691662718 0.01406138795 0.3551048838) 557 1094 1
(0.107254707 0.4463726465 0.07072705977 0.3756455868) 533 1046 1
(0.06956324506 0.04566805642 0.4652183775 0.419550321) 231 450 1
(0.6355515693 0.1822242154 0.1471558359 0.03506837949) 323 1266 2
(0.2266835188 0.3678311281 0.01882711254 0.3866582406) 79 153 1
(0.1874326602 0.4062836699 0.3847773002 0.02150636971) 471 924 2
(0.09380549378 0.2263943656 0.4530972531 0.2267028875) 351 689 2
(0.213531853 0.3932340735 0.1228844847 0.2703495887) 110 212 2
(0.6916148147 0.1541925926 0.07485402386 0.07933856877) 231 394 1
(0.1054885335 0.4472557332 0.3675432014 0.07971253184) 141 276 1
(0.1804448009 0.4097775996 0.1415376807 0.2682399189) 32 59 2
(0.03663095805 0.481684521 0.02476660951 0.4569179115) 173 336 2
(0.2039209862 0.378010946 0.3980395069 0.0200285609) 262 514 2
(0.02793204002 0.4317991529 0.05423482708 0.48603398) 192 375 1
(0.9793357877 0.01033210616 0.002834079875 0.007498026287) 292 514 1
(0.3036120802 0.3481939599 0.1906616438 0.1575323161) 464 852 1
(0.3216302688 0.3391848656 0.2209450112 0.1182398544) 352 632 1
(0.4837029051 0.148630622 0.2581485475 0.1095179255) 80 156 2
(0.5153891411 0.1200408781 0.1222645513 0.2423054295) 375 677 2
(0.4000194153 0.09976237885 0.2999902924 0.2002279135) 383 749 1
(0.3214389127 0.2453154003 0.3392805436 0.09396514331) 441 863 1
(0.2646498649 0.3676750676 0.2531452435 0.1145298241) 137 268 1
(0.6942593981 0.1166849714 0.1528703009 0.03618532954) 82 160 2
(0.6521472526 0.1739263737 0.1178033035 0.05612307015) 471 924 2
(0.2222497463 0.1024309327 0.2864441942 0.3888751268) 111 158 2
(0.1252592509 0.4170455469 0.02032482765 0.4373703745) 200 391 1
(0.08259294063 0.4587035297 0.02440670529 0.4342968244) 592 1163 1
(0.5132224838 0.06496672019 0.1784220379 0.2433887581) 623 1276 1
(0.02480186492 0.4875990675 0.2061616983 0.2814373693) 256 499 2
(0.3250574537 0.02541663943 0.3120546337 0.3374712732) 30 57 1
(0.3867528434 0.3066235783 0.2524017516 0.05422182671) 471 866 1
(0.8316751566 0.004547531113 0.07961489058 0.08416242169) 383 692 2
(0.5960144492 0.2019927754 0.08937130669 0.1126214687) 383 749 2
(0.2141396799 0.2560613669 0.1368687932 0.39293016) 78 151 1
(0.2042314445 0.3978842778 0.02396479607 0.3739194817) 561 1101 2
(0.2735263834 0.3632368083 0.165964987 0.1972718213) 112 160 1
(0.5215492853 0.1720976483 0.2392253573 0.06712770907) 262 511 1
(0.2854578514 0.3572710743 0.2098028709 0.1474682034) 498 975 2
(0.7716776904 0.1141611548 0.05325441776 0.06090673704) 468 919 1
(0.6494657605 0.125165426 0.1752671197 0.05010169377) 232 452 1
(0.008976934148 0.4955115329 0.3092920507 0.1862194822) 231 452 2
(0.03579361962 0.203562683 0.2785405072 0.4821031902) 500 923 2
(0.2074532114 0.3962733943 0.1568135062 0.2394598881) 142 277 2
(0.009502173051 0.4952489135 0.1197644271 0.3754844863) 622 1222 1
(0.3110434033 0.006798273081 0.3444782984 0.3376800253) 320 628 2
(0.1189881159 0.0412185291 0.399287413 0.4405059421) 142 219 2
(0.139581964 0.430209018 0.07275514056 0.3574538775) 648 1248 2
(0.9149468874 0.04252655628 0.02535866134 0.01716789495) 322 629 2
(0.5169912108 0.154515503 0.08698889161 0.2415043946) 173 279 2
(0.1250898122 0.2488681891 0.4374550939 0.1885869048) 350 687 2
(0.5337589891 0.2331205055 0.1264057301 0.1067147753) 202 337 1
(0.3644108155 0.3177945923 0.0911195784 0.2266750139) 563 1274 2
(0.3423011458 0.3288494271 0.270421578 0.05842784915) 290 566 2
(0.6171359737 0.03722261507 0.1914320132 0.1542093981) 255 500 2
(0.8048562167 0.09757189163 0.09039232442 0.007179567212) 231 450 2
(0.15193229 0.424033855 0.1831001014 0.2409337536) 589 1157 1
(0.553504748 0.183730148 0.223247626 0.03951747801) 54 102 1
(0.01303658555 0.4934817072 0.2819353622 0.2115463451) 78 151 2
(0.7182459885 0.04570114805 0.09517585767 0.1408770057) 260 509 1
(0.1005100991 0.4497449504 0.3389876366 0.1107573138) 350 684 2
(0.1482030153 0.4258984924 0.1300456325 0.2958528599) 259 507 2
(0.4542139108 0.1195608271 0.1533322176 0.2728930446) 529 1038 1
(0.308058257 0.3459708715 0.2013830474 0.1445878241) 501 984 1
(0.3985102128 0.3007448936 0.2652348739 0.03551001968) 320 628 1
(0.4372997271 0.07673977893 0.2046103575 0.2813501365) 171 276 2
(0.3237159306 0.02184104263 0.3163009921 0.3381420347) 31 29 2
(0.03110925297 0.09092425085 0.3935211227 0.4844453735) 201 393 1
(0.6893891959 0.1553054021 0.06497815717 0.09032724488) 494 969 2
(0.07792918972 0.2758569677 0.4610354051 0.1851784374) 531 1043 2
(0.08295890927 0.289152325 0.4585205454 0.1693682204) 258 503 1
(0.1385517837 0.289550832 0.4307241081 0.1411732762) 530 1041 2
(0.1300200904 0.1462593796 0.2887305752 0.4349899548) 502 927 2
(0.06000706358 0.4699964682 0.2336325508 0.2363639174) 167 326 2
(0.8207944564 0.08960277178 0.0186301751 0.07097259668) 350 684 2
(0.2594047284 0.1517963767 0.2185012591 0.3702976358) 351 688 1
(0.0330451852 0.4834774074 0.3199873555 0.1634900519) 113 161 1
(0.6066370802 0.1966814599 0.02506081086 0.171620649) 142 275 2
(0.5227039851 0.2386480075 0.07984135207 0.1588066554) 170 330 2
(0.08523208507 0.09827223441 0.3591117231 0.4573839575) 291 512 2
(0.7498767273 0.1250616364 0.05312626767 0.07193536869) 408 742 1
(0.3950894129 0.0003808887381 0.3020744048 0.3024552936) 561 1043 2
(0.7918024595 0.1040987702 0.09681351422 0.007285256022) 49 92 2
(0.7073025225 0.1463487387 0.06555868075 0.08079005799) 468 919 1
(0.8122903283 0.09385483586 0.04601271245 0.0478421234) 408 742 1
(0.06411433228 0.06023056535 0.4077122685 0.4679428339) 262 455 2
(0.3524285013 0.3237857494 0.2625765434 0.06120920597) 27 21 1
(0.4298249563 0.2850875218 0.0934039839 0.1916835379) 561 1101 2
(0.5755307322 0.05870955603 0.2122346339 0.1535250778) 377 737 1
(0.05587340251 0.4720632987 0.3312840089 0.1407792899) 316 620 1
(0.5404696601 0.22976517 0.1050518604 0.1247133095) 533 1046 1
(0.4892289434 0.1141995493 0.141185979 0.2553855283) 229 448 1
(0.4132958738 0.2782701679 0.0150818952 0.2933520631) 530 982 2
(0.5001618867 0.2499190567 0.09042537442 0.1594936822) 533 1273 2
(0.4888167164 0.005680038131 0.2499116037 0.2555916418) 259 507 1
(0.2934799476 0.2077824494 0.3532600262 0.1454775768) 233 454 1
(0.296669765 0.3516651175 0.265975172 0.08568994549) 141 275 2
(0.09504681996 0.45247659 0.2429821845 0.2094944055) 201 393 2
(0.03390514825 0.06313812232 0.4199093036 0.4830474259) 199 331 2
(0.5366168077 0.2316915961 0.02491741532 0.2067741808) 590 1100 1
(0.1948403432 0.2469745168 0.4025798284 0.1556053116) 293 574 2
(0.2322565132 0.3838717434 0.03055496545 0.353316778) 500 982 1
(0.4051383091 0.1389938059 0.2974308454 0.1584370396) 262 514 2
(0.05552484419 0.4722375779 0.2077843354 0.2644532425) 198 388 1
(0.1137170148 0.4431414926 0.2618992567 0.181242236) 562 1103 2
(0.7172318814 0.02064884467 0.1413840593 0.1207352146) 593 1162 1
(0.1266499926 0.4167544204 0.01992058328 0.4366750037) 623 1164 2
(0.2496254941 0.3751872529 0.06091953626 0.3142677167) 441 807 1
(0.2466334887 0.3766832556 0.2101076441 0.1665756115) 530 1040 2
(0.03471259667 0.4826437017 0.004367257082 0.4782764446) 259 508 1
(0.06059307803 0.162383716 0.469703461 0.307319745) 353 692 2
(0.0362863625 0.4818568188 0.1957357947 0.2861210241) 621 1161 1
(0.4397989453 0.02520982476 0.2548907026 0.2801005273) 621 1161 2
(0.6270542811 0.1864728595 0.05517201573 0.1313008437) 292 572 2
(0.04839206009 0.1833877154 0.2924162545 0.47580397) 201 335 2
(0.5586888742 0.2206555629 0.2125470977 0.008108465192) 321 627 2
(0.4854541318 0.2572729341 0.05733593021 0.1999370039) 170 330 2
(0.5413925627 0.2293037186 0.1790944854 0.05020923326) 436 855 2
(0.3908421303 0.3045789349 0.2145747713 0.09000416351) 172 337 1
(0.2686672951 0.3656663524 0.01880695911 0.3468593933) 557 1093 2
(0.4617212538 0.2691393731 0.06253384326 0.2066055298) 592 1162 2
(0.09542791478 0.4522860426 0.3698775138 0.0824085288) 586 1148 2
(0.009004860797 0.2900238242 0.4954975696 0.2054737454) 292 570 1
(0.7125407697 0.1437296151 0.05550729497 0.08822232017) 108 152 1
(0.004110967068 0.4979445165 0.4405421842 0.05740233229) 321 629 2
(0.4407400709 0.10252399 0.1771059745 0.2796299645) 232 454 1
(0.1302302265 0.4348848868 0.102172815 0.3327120717) 323 574 1
(0.5141789308 0.2429105346 0.2271471803 0.01576335428) 529 980 1
(0.07666315762 0.4616684212 0.2122474141 0.249421007) 104 202 2
(0.155264026 0.02270466727 0.3996633197 0.422367987) 167 268 2
(0.8382564022 0.06724996495 0.08087179892 0.01362183397) 503 987 2
(0.07183645368 0.1624766894 0.4640817732 0.3016050837) 200 392 2
(0.7065367091 0.1467316454 0.01632140352 0.1304102419) 113 220 1
(0.3707926489 0.3146036756 0.3021118401 0.01249183542) 109 210 2
(0.950673353 0.02466332349 0.005130112865 0.01953321063) 4 8 1
(0.4657757703 0.2671121149 0.237677213 0.02943490187) 591 1102 1
(0.2055504373 0.3972247814 0.3348067047 0.06241807668) 618 1155 1
(0.489675354 0.1386734182 0.1164889048 0.255162323) 533 1273 1
(0.4659720894 0.004138242757 0.2628757125 0.2670139553) 593 1105 2
(0.01028798455 0.4948560077 0.05678107213 0.4380749356) 142 278 1
(0.8321693468 0.0839153266 0.08210218252 0.001813144083) 197 327 1
(0.4073369875 0.1326030534 0.2963315062 0.1637284529) 441 866 2
(0.06442044519 0.2746652796 0.1931244978 0.4677897774) 231 452 1
(0.5967317427 0.2016341287 0.1164396592 0.08519446946) 401 728 1
(0.4232097697 0.2883951152 0.2725422928 0.01585282241) 286 560 2
(0.5793913906 0.0960427264 0.1142615783 0.2103043047) 113 1259 1
(0.04327545325 0.4783622734 0.04734282529 0.4310194481) 108 211 1
(0.68353071 0.1412566567 0.158234645 0.01697798831) 473 926 1
(0.2318711935 0.3840644033 0.1774003627 0.2066640405) 232 396 1
(0.4611388405 0.2342156637 0.2694305797 0.03521491606) 499 977 1
(0.02081007888 0.4895949606 0.2467565747 0.2428383859) 316 561 1
(0.08688185255 0.4565590737 0.3017353415 0.1548237322) 351 688 2
(0.4872707328 0.04243660749 0.2563646336 0.2139280261) 170 333 2
(0.5542560765 0.2228719617 0.01091654955 0.2119554122) 140 274 1
(0.6935699115 0.133499278 0.01971576624 0.1532150443) 233 397 2
(0.1895503422 0.1242522119 0.4052248289 0.2809726169) 441 866 2
(0.2693265269 0.01969527261 0.3456414639 0.3653367366) 471 866 2
(0.03491965851 0.4825401707 0.4242877544 0.0582524163) 622 1163 1
(0.006245138255 0.4968774309 0.02260329573 0.4742741351) 318 621 2
(0.304459622 0.347770189 0.1937678744 0.1540023146) 561 1099 2
(0.7612224889 0.002382068218 0.1170066873 0.1193887555) 76 147 1
(0.01074890167 0.4946255492 0.4438966882 0.05072886101) 31 59 2
(0.5908121269 0.2045939365 0.09733591802 0.1072580185) 321 627 2
(0.8082657303 0.02606463349 0.06980250137 0.09586713486) 232 396 2
(0.5642022074 0.2178988963 0.1500421504 0.06785674587) 233 456 1
(0.217293124 0.391353438 0.02148414818 0.3698692898) 407 796 2
(0.04204061897 0.4789796905 0.3657090382 0.1132706523) 32 30 1
(0.1995085452 0.009405716031 0.3908400114 0.4002457274) 200 333 2
(0.2318612695 0.3840693653 0.1180982804 0.2659710848) 173 336 2
(0.1147540281 0.442622986 0.1992815823 0.2433414037) 436 856 1
(0.2317907263 0.3841046368 0.1089092623 0.2751953745) 199 390 1
(0.2539323297 0.02447744328 0.3485563918 0.3730338351) 412 750 2
(0.7962117267 0.07299903651 0.02889510014 0.1018941367) 258 447 2
(0.173137305 0.1194470791 0.2939842684 0.4134313475) 77 149 1
(0.6547633914 0.1726183043 0.07496307453 0.09765522978) 409 744 1
(0.289609192 0.355195404 0.2354898561 0.1197055479) 230 448 2
(0.239024556 0.1539982275 0.2264894946 0.380487722) 502 927 2
(0.6626340103 0.1664094888 0.002273506095 0.1686829949) 111 158 2
(0.5636675757 0.2181662122 0.215110871 0.003055341216) 172 336 2
(0.3167722378 0.3416138811 0.1861728361 0.155441045) 589 1098 1
(0.003264307242 0.4656492633 0.03271858312 0.4983678464) 16 9 2
(0.004638712915 0.4976806435 0.363940067 0.1337405766) 561 1101 2
(0.5733635886 0.2133182057 0.07495844632 0.1383597594) 319 567 1
(0.02796563803 0.3601749699 0.486017181 0.1258422111) 261 512 2
(0.1067706128 0.4424522572 0.004162436404 0.4466146936) 262 513 1
(0.01175812308 0.4941209385 0.1804862237 0.3136347148) 282 550 2
(0.07664981492 0.2772427906 0.184432302 0.4616750925) 503 1272 1
(0.0338433089 0.438956715 0.4830783456 0.04412163058) 353 692 2
(0.001675985689 0.4991620072 0.4564461227 0.04271588445) 78 149 2
(0.002263765684 0.4988681172 0.4285712955 0.0702968217) 381 747 2
(0.1866446533 0.4066776734 0.1984444959 0.2082331774) 622 1219 2
(0.2745976817 0.3627011592 0.0173366943 0.3453644649) 111 158 1
(0.271292177 0.3643539115 0.08181787146 0.28253604) 381 689 1
(0.03763581782 0.4811820911 0.4407347509 0.0404473402) 498 919 1
(0.04722967017 0.1404043944 0.4763851649 0.3359807705) 527 1032 1
(0.2984140997 0.3507929501 0.2887449158 0.06204803433) 502 927 1
(0.1913023068 0.3198184516 0.08453039498 0.4043488466) 381 689 2