/*--------------------------------*- C++ -*----------------------------------*\
| =========                 |                                                 |
| \\      /  F ield         | OpenFOAM: The Open Source CFD Toolbox           |
|  \\    /   O peration     | Version:  2406                                  |
|   \\  /    A nd           | Website:  www.openfoam.com                      |
|    \\/     M anipulation  |                                                 |
\*---------------------------------------------------------------------------*/
FoamFile
{
    version     2.0;
    format      ascii;
    arch        "LSB;label=32;scalar=64";
    class       scalarField;
    location    "0.001/lagrangian/dsmc";
    object      Ei;
}
// * * * * * * * * * * * * * * * * * * * * * * * * * * * * * * * * * * * * * //


6199
(
2.627415192e-21
1.879987522e-21
1.863982511e-21
8.749175895e-21
3.221687237e-20
3.653675801e-20
1.41244167e-20
2.923357862e-22
3.498596055e-21
6.852010274e-21
4.07160219e-21
2.866253867e-21
1.274652074e-20
1.72660068e-21
2.027604072e-20
5.003417256e-21
7.228343687e-22
4.642928707e-20
2.147604274e-21
3.65774533e-21
7.88750549e-22
2.67162745e-21
3.975960955e-20
2.574256901e-21
3.494662661e-21
6.107309743e-21
7.733925177e-21
3.871550488e-21
3.28344578e-21
3.971134852e-21
2.453509653e-21
1.946039127e-20
2.265622296e-20
7.107505236e-21
1.419227909e-20
7.073590462e-21
5.044086393e-21
1.064767734e-20
6.732372624e-21
3.067271951e-21
1.809113324e-20
1.046953569e-20
1.973211158e-20
1.395832756e-20
8.329829831e-21
1.344955457e-20
2.045605513e-21
1.101348791e-20
1.329975822e-21
8.357668998e-22
1.283725755e-20
1.76289804e-21
1.201984093e-22
3.506457401e-21
4.772165225e-21
3.546534896e-21
5.07939608e-21
8.147386767e-21
9.716739796e-21
2.433398248e-20
2.797910433e-20
3.923308176e-22
2.204094249e-21
1.834823647e-21
5.8318894e-21
1.598124676e-21
3.558696237e-23
1.308956984e-22
1.073569546e-22
1.196715521e-21
4.802988021e-22
2.192497872e-21
6.861065152e-21
3.262807175e-21
2.902766067e-20
2.026514487e-21
9.080770116e-21
2.821350807e-21
1.006968437e-20
4.042471662e-21
6.376654021e-21
1.562982961e-20
4.768774574e-21
9.644614029e-22
1.186720169e-21
1.956143278e-21
7.713033847e-21
6.097320826e-21
3.837323215e-21
6.784426325e-21
4.199127351e-21
1.781834646e-20
2.031252802e-21
1.01469173e-21
1.35508264e-21
2.126356841e-21
8.961061207e-21
1.497960262e-22
4.341256379e-21
5.029953048e-21
2.48714078e-20
7.055311413e-21
5.48469378e-21
3.143061255e-21
4.504497198e-21
5.140968811e-22
6.343045352e-21
5.617905249e-21
4.922602339e-22
7.172889308e-22
6.876192182e-21
9.215919691e-22
2.152067475e-21
2.477926693e-20
2.768893957e-21
1.877571253e-21
2.863135013e-21
1.037347424e-20
3.997981015e-21
2.543935855e-21
1.469578453e-21
5.54934405e-21
5.716419775e-21
9.897643596e-21
3.088656251e-20
1.863666552e-21
5.194614186e-21
1.415126042e-20
4.038606836e-22
3.170641824e-21
4.573632814e-21
5.698155571e-22
8.094609746e-21
2.491603795e-20
1.512742021e-20
5.529781561e-21
1.152518461e-21
5.579484773e-21
9.752413076e-21
1.797262332e-20
1.025155581e-21
7.087606888e-22
3.082201227e-21
2.888244629e-20
5.383590007e-22
1.583748446e-21
1.49589289e-21
1.344779229e-21
8.886246545e-21
4.734262516e-21
4.127599418e-21
1.267499636e-21
9.412718478e-21
5.042620487e-21
3.130833215e-21
3.186360357e-21
1.372447889e-20
2.472432708e-21
3.526914265e-21
1.122046898e-20
4.685129805e-21
2.843511745e-21
1.376648613e-20
5.688115012e-23
4.394715399e-21
4.86744843e-21
2.448886933e-22
5.602474379e-21
4.798277928e-21
5.118669738e-22
9.053286267e-21
2.607563279e-22
3.851413871e-21
1.037336396e-21
7.567273687e-22
2.668299907e-22
4.896266237e-21
2.516958032e-21
4.740326789e-22
3.566120679e-21
4.612181328e-21
8.733588094e-21
1.787299221e-21
1.022879569e-20
3.100064425e-21
2.014740348e-20
3.315027459e-21
1.791670795e-20
1.399921576e-23
3.467702123e-21
1.190428544e-20
6.704849312e-21
5.687905315e-21
4.435478754e-21
5.395859825e-21
2.098546033e-20
5.576737556e-21
3.990214993e-21
3.134792021e-23
5.605807467e-21
6.075761005e-21
1.29444195e-21
1.231004026e-20
8.601167343e-21
1.127076195e-21
7.80311359e-21
7.744796491e-21
8.17577309e-22
3.49163535e-21
8.828294409e-22
8.058177054e-22
2.068741334e-21
3.520448303e-21
1.106198226e-20
7.147539443e-21
3.0618045e-22
6.150254139e-21
1.048380483e-20
1.915350632e-21
9.293573171e-22
6.799037609e-22
2.304817125e-21
1.25649019e-20
2.937007619e-22
2.459494506e-20
4.987988742e-22
1.54281886e-21
7.322612592e-21
1.545773569e-21
1.313795781e-20
5.284705391e-22
7.416423929e-21
5.576123836e-21
9.171115436e-23
4.540531547e-22
3.278977523e-22
1.262147915e-22
1.777896872e-22
2.397756877e-21
1.47540032e-20
6.671744583e-21
3.845982732e-21
1.984028794e-21
2.524948421e-21
8.226316331e-21
5.510778191e-21
1.102136293e-20
4.060861844e-21
3.767206707e-21
8.95062884e-22
1.298524587e-20
6.063820723e-21
3.137404103e-21
5.095408438e-24
9.045866513e-22
2.204397305e-21
5.39998127e-22
1.625135833e-23
3.471374836e-20
1.636115269e-21
6.748188989e-22
4.731295282e-21
6.490022046e-21
1.059211682e-20
8.754151016e-21
1.037601142e-20
9.11396067e-21
7.664149633e-21
2.178595254e-22
1.019969334e-21
1.85936099e-23
1.382913715e-20
2.560698372e-21
3.521546671e-21
3.862333103e-21
7.44342716e-21
4.27970224e-21
9.775507734e-21
8.861785321e-23
1.608183747e-21
5.610189144e-22
6.360280856e-21
3.974427059e-21
6.753551654e-21
2.883041541e-20
1.010608212e-20
3.242453273e-21
6.969405319e-22
4.923183994e-21
6.492470925e-22
1.02103283e-20
6.471522494e-21
4.691627792e-21
6.097437636e-21
4.70519053e-22
3.270968742e-21
7.544270091e-21
1.208083118e-21
5.001023411e-22
6.60132091e-21
6.528146427e-22
3.055862687e-21
2.520577005e-21
9.011791285e-21
2.123675174e-22
7.473167465e-22
3.317493357e-21
2.754598341e-21
2.30728031e-21
1.20491108e-20
3.107261873e-21
1.086954019e-20
6.407179843e-22
3.156525962e-21
3.103793135e-21
5.579809523e-21
5.328179253e-21
1.343407014e-21
8.424779465e-22
1.716619144e-21
1.977363109e-21
6.425416334e-21
2.099172145e-21
1.979883579e-20
1.310370163e-20
1.863055663e-22
7.735088891e-22
8.19441319e-21
1.714900822e-21
1.259518445e-20
1.599089538e-21
1.234867502e-20
4.144596683e-22
1.7823424e-22
2.19532433e-21
8.220516099e-21
9.788830228e-22
1.505459651e-22
6.900548162e-21
3.270760141e-20
7.676782146e-21
1.354659156e-20
4.74712453e-21
8.586477227e-22
1.055794826e-20
7.748193439e-22
8.953894412e-22
3.329807053e-21
5.284106412e-21
1.403765963e-20
1.49855975e-20
2.278007981e-21
3.040936498e-21
3.241201551e-22
8.423425868e-22
9.479175729e-22
3.362243807e-21
8.78696215e-22
1.694683707e-21
8.219661008e-21
5.722798101e-21
3.300495419e-21
1.710734356e-21
3.585458844e-21
4.786019173e-21
1.604946498e-21
8.00445084e-21
4.334121609e-22
2.046794057e-21
5.209465047e-21
1.223333421e-21
8.703173363e-21
7.30801452e-21
1.000001536e-20
1.998132324e-21
5.986019985e-21
9.10385149e-22
1.144577586e-20
9.096234482e-22
8.213250446e-22
2.443021315e-21
2.939481076e-21
2.87831548e-21
1.393507139e-20
1.664480275e-21
3.444260874e-20
1.038043349e-21
2.548639733e-21
2.045918539e-21
5.12825311e-21
2.542137948e-22
3.513421934e-21
7.838091276e-23
1.960103987e-21
9.180376466e-21
1.373213295e-21
2.211076017e-21
3.970130799e-21
1.477157294e-22
1.488604169e-21
4.306740763e-21
3.042982543e-20
1.904640754e-21
1.475571714e-21
2.358617339e-21
8.398321958e-21
9.687953068e-21
2.529869288e-21
7.197616598e-21
3.383846953e-22
6.191952905e-21
3.824322706e-21
3.164666785e-21
5.529149792e-21
8.911823622e-21
1.483623415e-21
5.044119736e-21
2.073602443e-21
6.063494403e-22
4.536606939e-21
1.544314642e-21
6.475659458e-21
2.023168865e-21
7.539999437e-21
8.067515342e-21
7.290176917e-21
5.608302606e-21
1.366650249e-20
2.677756553e-21
2.322338262e-21
2.963378097e-21
2.326710869e-21
1.187056928e-20
3.651113761e-21
1.104412276e-21
1.166741212e-20
2.906070526e-21
1.432121653e-21
1.211499624e-21
3.515386322e-21
1.946445444e-21
2.798132888e-21
6.125553633e-21
2.067756921e-21
4.107339616e-21
1.020028762e-21
2.959279507e-22
6.269063832e-21
4.826797786e-22
2.44883185e-21
2.29328495e-21
3.989252703e-21
1.292958982e-20
3.429909707e-22
1.000755904e-20
3.023633497e-21
5.017694705e-21
4.02278902e-21
5.409470998e-21
3.142576165e-21
5.62551107e-21
4.463043599e-21
1.532116431e-21
1.183787674e-21
2.084368094e-21
6.134134648e-22
1.71891298e-21
1.264202044e-21
1.21670776e-21
9.893670956e-22
3.877853626e-21
1.013090198e-20
7.158918297e-21
9.841729227e-21
2.748233286e-21
1.644030724e-21
2.057616025e-21
3.025493863e-21
3.387787691e-22
2.119125576e-21
1.242402433e-21
1.476631823e-20
1.354315383e-21
7.525401781e-22
4.656336321e-21
6.693825593e-22
1.130588906e-21
2.224262282e-21
1.286030907e-20
3.819125344e-21
2.813490609e-21
2.343011724e-21
1.954610905e-21
6.652233399e-22
1.27824812e-20
2.012586758e-21
1.241063627e-21
1.882338223e-21
2.562287065e-21
2.615453963e-22
8.278144989e-22
3.379096529e-21
2.292606959e-21
1.922533556e-21
4.840573214e-21
3.270273593e-22
1.897006946e-22
3.637051682e-22
2.191033458e-21
1.340328292e-21
2.142932842e-21
6.946339567e-21
2.576797133e-20
4.411640122e-21
8.606235688e-21
2.689062684e-21
7.044045868e-21
9.367751803e-23
1.056533679e-21
5.878284579e-22
6.009016513e-21
2.383948656e-21
1.261260029e-21
2.9045132e-21
1.719303931e-20
6.110762312e-22
4.175196071e-21
2.192956567e-20
2.73195794e-21
7.270197177e-21
1.508269373e-20
1.077967777e-20
9.266327726e-22
9.774884878e-21
1.738622379e-20
4.857757756e-21
6.828410469e-21
1.056621722e-21
2.213794562e-21
2.331445347e-22
5.728727453e-21
6.508957162e-21
3.871717984e-21
2.045168548e-20
5.417025813e-22
1.149324144e-20
3.321893027e-21
5.104753381e-21
8.482819139e-22
4.132168706e-22
1.351776823e-21
7.734362033e-21
1.19537964e-20
1.231987141e-21
8.997582473e-21
6.691712314e-21
1.541281753e-21
1.291908398e-20
8.02057443e-21
1.953748174e-21
8.742007557e-21
4.431188804e-21
1.204108601e-20
1.548612101e-21
2.101484735e-21
5.050484944e-21
4.075394407e-21
2.525621321e-21
7.866592603e-21
1.12904105e-21
7.3148327e-21
8.95678931e-21
3.178826006e-21
2.435806668e-21
1.559146311e-20
4.672635132e-21
4.00103567e-21
7.575174235e-21
1.577752125e-21
6.280034917e-22
8.00912373e-21
1.521101634e-21
2.031550084e-21
7.883881176e-22
2.207486468e-21
4.523164868e-21
1.653003746e-20
5.988565626e-21
8.86463027e-22
7.592181166e-22
2.167770937e-22
1.000739924e-21
1.339222338e-21
4.590257063e-21
3.67447269e-21
8.374222289e-22
2.719125306e-21
5.094152308e-21
8.942008171e-21
1.888242987e-20
1.680626775e-21
5.209072321e-21
4.817377719e-21
5.920912018e-21
4.255534943e-21
2.69276013e-21
7.47940967e-22
3.208592848e-21
1.906180838e-20
2.225495423e-21
3.438441703e-21
1.051801342e-20
4.871550954e-21
8.314290011e-21
1.642237633e-20
6.873257563e-21
2.370021326e-21
4.873268063e-21
6.857997701e-21
1.703749064e-21
5.338545041e-21
1.133733009e-20
5.478834418e-21
6.445573321e-21
4.983333065e-22
1.110950264e-21
9.027453391e-21
4.568152385e-21
1.134247218e-20
6.887258902e-22
4.808216666e-21
2.057675537e-22
2.709298894e-21
5.05280882e-21
5.488899163e-22
6.607944286e-21
5.495077406e-21
1.948230245e-21
1.075188987e-20
1.408304128e-21
2.988202535e-22
1.02500581e-21
9.719921253e-21
4.988890165e-21
1.418005903e-21
2.911384562e-22
2.029163897e-21
1.230877726e-20
6.661959367e-22
1.566127726e-21
4.993001646e-22
3.677639818e-21
2.762662883e-21
2.960082091e-21
8.997542445e-21
1.472686415e-22
1.610037295e-21
7.24056359e-21
7.437595843e-21
3.422480985e-21
3.799520708e-21
1.211659946e-21
3.358499777e-21
4.826919269e-22
6.454316433e-22
2.666940115e-21
1.862239175e-20
1.947672206e-21
2.914822201e-21
3.514614988e-21
3.179203023e-21
8.100628378e-21
5.207095118e-21
9.300019162e-22
1.597803605e-21
2.535083391e-21
1.579344755e-21
2.845787237e-21
7.967824222e-21
4.861096e-21
1.397763803e-21
7.623174771e-21
1.57874475e-21
2.167143737e-21
4.325463478e-21
2.713884757e-21
3.918445016e-21
5.109706702e-21
7.693918628e-21
3.58166779e-21
1.11092114e-21
6.041105679e-21
1.120112872e-21
7.897553645e-21
3.195792463e-21
1.040717385e-22
1.617270661e-20
6.637242871e-21
1.132180365e-20
5.023370067e-21
7.566096285e-21
1.550271657e-20
3.653920403e-21
6.118184464e-22
2.300728664e-21
2.348872945e-21
5.902408582e-21
3.697531005e-21
4.603729122e-21
1.141423655e-20
8.122294979e-21
1.518227312e-21
2.042071865e-20
5.440318144e-21
1.662139074e-21
7.232598766e-21
2.836372194e-21
3.021913829e-21
1.26458439e-21
4.44153282e-21
4.6236966e-21
1.154019029e-20
5.601009209e-21
1.907371429e-22
2.625990918e-21
2.097988454e-21
1.899338543e-21
6.027434659e-21
4.376589998e-21
1.147220764e-21
5.688285779e-21
3.246830117e-21
4.199970938e-21
6.419551079e-21
7.118292463e-21
1.301983506e-21
1.29802505e-20
9.387727731e-21
1.130900663e-20
2.353800059e-22
2.802451384e-21
3.004726607e-21
2.962746617e-21
8.110055128e-21
1.459478631e-20
2.483828169e-21
6.739491559e-21
2.141194083e-21
7.314084089e-21
2.981003393e-21
1.250642889e-21
1.449683262e-20
8.364678451e-22
4.665640633e-21
2.153881875e-21
5.519102738e-21
2.348466344e-20
1.278368164e-20
3.685076846e-21
9.945202023e-22
3.53983152e-22
6.226761561e-22
2.153065547e-21
1.049939163e-21
6.888488442e-23
3.038275284e-22
4.515905608e-21
4.122762497e-21
1.405105449e-20
7.872152231e-21
9.492752575e-22
2.60254577e-21
3.325022635e-21
3.337349423e-21
1.192600021e-20
5.735119124e-21
5.160036855e-22
5.067819951e-21
5.922526945e-21
5.926962243e-21
8.337800219e-21
3.40292384e-21
2.23384811e-21
4.295532618e-22
3.729745162e-21
1.427048326e-21
1.17252492e-21
3.295045578e-22
1.469774659e-21
4.536236303e-21
1.602814089e-21
2.011708469e-21
4.417497187e-21
9.038695217e-21
9.59353769e-21
3.539110417e-21
6.951321241e-21
6.793257928e-21
2.653817906e-20
3.979805333e-21
4.578079753e-21
9.274393448e-21
3.478722781e-21
1.005491852e-20
3.512935827e-21
1.520513929e-20
2.570515585e-21
4.236940374e-21
6.697917295e-21
1.835582678e-21
3.717952618e-21
1.22811991e-21
1.476407483e-21
1.134056572e-20
2.600739301e-20
1.642312273e-21
2.454835375e-21
5.054938555e-21
7.075709452e-21
4.871699046e-21
1.494199996e-21
8.548472499e-21
5.990598255e-21
3.604855505e-21
1.737183758e-22
1.326030282e-21
5.717760286e-21
4.542466646e-22
3.690764005e-21
1.444959397e-21
6.801008344e-21
2.733292803e-21
2.949199445e-21
6.896936991e-21
2.085979271e-21
5.045415019e-21
4.337408378e-20
1.323688651e-20
1.170807726e-22
4.284195508e-20
7.029972733e-21
5.039815741e-21
6.384494311e-21
1.411372746e-20
8.124202198e-21
2.822219768e-21
9.267076227e-22
6.807512954e-22
1.016316478e-21
3.699708768e-21
1.106928382e-21
7.642683386e-21
2.401141108e-21
1.942017687e-21
5.557776993e-21
3.861322616e-22
1.461400376e-21
9.496742195e-24
4.285027422e-21
5.708354881e-21
5.835177376e-21
3.837071233e-21
2.580840264e-21
3.397316966e-21
1.514154212e-21
9.420260135e-21
3.753484081e-21
2.02372795e-21
2.598790738e-22
2.509924569e-21
6.153465637e-21
1.12238636e-21
1.37442679e-21
3.392357086e-21
8.185982261e-23
2.36011852e-22
5.330913176e-22
3.082292605e-21
4.005842907e-22
2.638357338e-21
7.534425003e-22
4.37340302e-22
1.060933148e-20
3.285722662e-21
1.150584397e-20
1.677413776e-21
2.234100907e-24
6.866056282e-21
1.693602654e-20
1.206206516e-20
6.343614847e-21
2.243645806e-21
8.686038806e-22
2.151601853e-21
5.738439309e-21
3.64586962e-21
7.452293811e-22
3.783182471e-21
5.554792273e-21
2.845370295e-21
1.108866216e-21
4.819811655e-21
4.12715456e-21
8.633524538e-21
1.285739397e-20
1.332221166e-21
4.901282641e-21
1.40755853e-21
5.451851317e-21
2.148118757e-21
1.249349827e-21
1.28653593e-21
9.778303369e-21
2.15526466e-21
2.433887808e-22
5.877721126e-22
9.665951814e-21
1.140023296e-22
1.563036488e-21
1.461971466e-22
2.973954573e-21
1.367407417e-20
2.017211371e-21
2.199555345e-22
6.979394558e-22
7.069794e-21
3.926889669e-21
3.173889342e-22
8.013496707e-21
5.772458608e-22
6.636783649e-21
2.115644693e-21
3.345747185e-21
6.841790358e-22
1.98094985e-21
3.837628533e-21
8.438469436e-21
3.293743492e-21
1.14819426e-21
4.424649607e-21
1.046654559e-21
1.321542518e-21
2.75838828e-21
1.263563734e-20
5.324786931e-21
1.756227572e-20
9.111731565e-21
2.152081743e-21
8.844467851e-21
5.722617608e-22
5.08133557e-21
1.093375248e-20
7.44725702e-21
4.641919053e-22
2.854477235e-21
2.000079915e-20
9.978105356e-21
6.825621234e-22
2.313577459e-21
7.009495272e-21
8.047943107e-22
5.454982872e-22
1.418359424e-21
4.124599999e-21
1.216822301e-21
2.908187411e-21
7.126245679e-21
3.496438785e-21
1.950999811e-20
3.107427437e-21
2.38899838e-22
3.03127993e-21
5.846050473e-21
5.572139468e-22
2.582491058e-22
3.150019222e-21
1.946717877e-21
7.12181156e-21
1.68009339e-22
4.587110677e-21
7.904277204e-21
3.545322386e-20
1.570729173e-21
1.922562178e-21
3.454664878e-22
4.593894329e-21
2.145506848e-21
8.791299921e-21
1.010238444e-21
3.461470735e-21
1.277806224e-21
2.042367253e-22
1.079197708e-20
1.194193365e-20
1.481508347e-21
6.651704446e-22
1.174852918e-20
2.362890335e-21
5.203074856e-22
1.319091484e-21
2.538144103e-21
3.244504587e-21
9.576662397e-21
9.27389508e-21
2.60356318e-21
1.252823273e-20
1.72400972e-22
2.318012805e-21
3.009317105e-21
1.04241743e-21
8.375017466e-21
8.462565949e-21
6.969810907e-21
8.84280266e-22
5.099912695e-22
1.337813478e-22
2.84339911e-21
1.767697087e-20
3.665421427e-21
1.42660962e-20
1.811070132e-20
1.410570257e-23
1.200489442e-22
1.154780305e-20
1.903081117e-21
7.222755006e-21
3.475417037e-21
5.323608403e-21
1.266002323e-21
3.698046157e-21
1.782160076e-21
2.826584451e-21
1.025831015e-21
4.978511928e-21
7.442925594e-21
1.075524939e-21
5.010123271e-21
1.353044949e-20
1.462162281e-20
3.842188662e-21
3.434059109e-21
2.207081916e-21
3.785591411e-21
8.281772459e-21
4.022662506e-20
2.235404325e-20
1.86549142e-21
6.550214285e-21
2.613028677e-21
1.563308525e-22
1.2731236e-21
2.609648597e-21
1.667247898e-20
8.438929189e-22
8.83628707e-22
8.077571079e-21
6.880226822e-21
1.615661444e-21
6.503845158e-21
2.214790745e-20
2.220216566e-21
4.068862681e-21
7.638127833e-22
4.634161497e-21
1.001714939e-21
4.525920869e-21
6.188345695e-21
2.307261398e-21
2.398094825e-20
8.224161699e-22
2.320756504e-21
1.303606229e-22
4.641594221e-21
1.634033762e-20
3.583611318e-21
6.019514544e-21
2.34364013e-21
1.870143124e-21
3.211798982e-21
7.605456528e-22
1.065937342e-20
5.461804714e-21
6.988291581e-21
1.050507768e-21
1.251960839e-21
1.295663012e-20
3.896140985e-21
7.290854051e-21
1.037924565e-20
3.848237999e-21
1.09394245e-20
6.955165063e-21
9.133596213e-22
4.516001871e-22
7.741450265e-21
6.055171225e-21
6.652362562e-21
8.833897134e-21
3.187540165e-22
8.036226643e-21
2.365973488e-20
1.012243993e-21
1.867123668e-22
1.879130923e-21
1.599209264e-21
4.445132549e-21
9.875560661e-22
1.283852851e-21
1.25772817e-21
6.922110231e-23
9.484831331e-21
4.562588175e-21
4.410261168e-21
6.601159528e-21
9.465388148e-21
1.951343471e-21
3.662755992e-21
8.918002553e-21
4.598666359e-22
2.597773996e-21
7.119000316e-21
7.902825387e-21
1.431145086e-21
2.201490182e-22
6.51325054e-21
1.939760682e-21
1.641519333e-20
4.672412328e-21
1.057967291e-20
3.388338206e-22
5.803431723e-22
4.039891916e-21
5.575273889e-22
2.042867756e-21
1.499030689e-20
3.750839701e-22
4.378310066e-21
3.134135238e-21
1.541104994e-21
1.508480593e-20
2.080647873e-21
5.235870994e-22
7.912387521e-22
2.865801884e-21
1.414417146e-21
4.611693893e-21
5.472727467e-22
1.044482991e-22
5.657669451e-22
9.701925341e-22
2.33943243e-22
4.164517469e-22
6.550849206e-21
8.771307038e-21
6.435907932e-22
2.979720929e-22
5.3053101e-21
4.590521225e-21
6.083093638e-21
1.154021063e-21
2.527346127e-21
9.128965591e-21
7.64676249e-22
4.481200042e-22
1.455917963e-20
4.987907661e-21
6.773938302e-21
2.214182167e-21
3.676673876e-21
6.545421485e-21
2.634427639e-20
7.377050832e-21
1.43536503e-21
1.829552727e-22
3.33712099e-21
4.459789246e-21
4.620592511e-21
3.934912918e-21
4.687394312e-20
1.013418279e-20
2.260238567e-20
1.192798625e-20
2.25185136e-21
1.672807221e-20
5.929722679e-21
1.427916551e-21
1.459054831e-21
5.285038458e-21
3.349638147e-21
1.328156837e-21
1.404943825e-22
1.097083143e-21
1.259726088e-20
9.61697245e-21
3.438859917e-21
1.840959188e-21
3.049920233e-21
2.533266472e-21
4.841719919e-21
1.882469874e-20
3.566090405e-21
2.336600025e-21
4.586911752e-21
2.162006e-20
1.936862691e-21
8.189396757e-21
2.346652925e-20
4.721473802e-22
3.68721076e-22
3.792285465e-22
1.89965963e-20
1.341927864e-20
9.589028976e-21
7.769785823e-21
5.133703036e-21
2.612065974e-22
4.54257177e-21
1.152467675e-21
1.986340317e-21
3.517488595e-21
3.246468945e-21
1.198778252e-21
8.632330873e-21
1.913501696e-20
7.204129802e-21
1.143164231e-20
1.317573968e-20
1.480947044e-20
7.149787449e-21
1.226657473e-21
2.762821748e-22
5.49858379e-21
5.518370243e-21
2.096132114e-20
1.054049328e-20
5.501192608e-21
7.911779657e-22
4.495566296e-21
4.822195727e-22
2.487626115e-21
2.089894188e-21
1.645163826e-21
1.225276413e-21
2.067283288e-21
7.648505593e-21
1.18015355e-21
1.862448877e-21
5.561313973e-21
4.95510149e-21
2.420009265e-21
8.291549045e-22
3.673263988e-22
1.139298261e-21
1.915145966e-21
1.026702688e-20
1.217346092e-20
8.027704568e-22
2.241521424e-21
8.077674069e-22
2.427844319e-21
2.089828558e-22
6.076180443e-21
8.261230635e-22
2.672712321e-21
1.71702059e-21
1.314621902e-20
2.077001422e-21
2.181486691e-21
2.130869388e-22
3.341526123e-21
3.424726987e-21
1.406733081e-20
9.18841577e-21
2.228513192e-21
7.556383955e-22
1.89965842e-20
4.442036623e-21
2.397278656e-22
1.937283075e-21
1.028213406e-20
1.508459516e-21
1.359277694e-21
8.076052239e-21
9.488809711e-21
6.849213814e-21
6.704358648e-21
2.062866171e-21
9.63240851e-21
4.965710704e-21
2.680333449e-21
3.614992863e-21
2.059952714e-21
1.293072783e-20
2.869831053e-21
1.665126922e-21
1.488771066e-20
2.382715328e-20
3.227759508e-21
6.324861606e-21
8.240680846e-21
1.801805667e-21
2.335143851e-21
3.501180013e-21
1.316515153e-20
1.050857474e-21
1.942314378e-21
6.107325865e-21
3.725131954e-21
5.737099068e-21
6.918944527e-21
8.468496071e-22
2.668061719e-21
6.27810829e-21
2.492294088e-21
7.346219613e-22
3.965293436e-21
1.953964489e-20
3.684907084e-22
1.913845408e-21
5.172478063e-21
1.414025838e-21
4.233873283e-21
4.733603534e-21
3.401674073e-21
5.007318281e-21
8.684567008e-21
3.779524974e-21
9.636078505e-21
1.081662375e-20
8.396952577e-22
3.221194732e-21
2.470697833e-21
3.387895275e-21
1.973866002e-21
5.102182847e-21
8.268325991e-21
9.301654772e-22
8.905858571e-22
1.045384275e-21
1.526178751e-21
2.215688927e-21
1.660038914e-21
7.935566827e-21
7.334230192e-21
2.254549059e-22
3.726048193e-21
4.895665527e-21
1.533693524e-21
1.641715834e-21
3.953339292e-21
8.158490255e-21
2.94082606e-21
6.229819468e-22
2.029652686e-20
1.833998342e-21
1.531248127e-21
3.537244979e-21
6.46700081e-22
2.134192055e-21
5.225900857e-21
3.04322253e-21
5.274311988e-21
3.872248879e-21
9.599200016e-21
1.03026757e-21
2.31113787e-21
7.172162358e-22
9.505239115e-22
3.567765601e-21
2.836087918e-22
1.119450429e-21
1.092824167e-20
7.108664368e-21
1.262788766e-21
5.073121266e-21
1.785366554e-21
4.625669582e-22
4.901250683e-21
1.524066865e-21
3.163298728e-21
1.179206044e-20
2.808962793e-22
3.176960708e-22
3.702764074e-21
2.043976609e-21
9.350051327e-21
5.755468202e-21
9.120597202e-22
1.598117605e-21
1.116291113e-21
1.872760314e-21
2.780131985e-21
3.740149452e-21
2.703769782e-21
5.541292429e-22
6.330699908e-21
6.072825621e-22
8.324230594e-22
4.361288367e-21
7.018755597e-22
1.448695642e-20
1.281546339e-21
3.515147254e-24
7.338251983e-21
6.375554235e-21
1.883654503e-21
3.207258684e-22
9.169463635e-21
6.655050935e-21
2.195417894e-21
3.243901455e-22
8.316788298e-21
3.428727127e-21
6.956222559e-21
9.287285616e-21
9.283220948e-21
7.22467332e-22
1.207096499e-21
1.959244275e-21
2.072829092e-21
6.808723116e-21
1.199327676e-20
4.326895247e-21
6.190107566e-22
2.458078013e-20
2.042928232e-21
5.656483603e-21
7.972938021e-22
6.657399161e-21
7.382530124e-21
6.217989124e-21
7.66012234e-21
7.473856389e-22
1.550136328e-21
5.426018587e-21
5.579005433e-21
2.842650031e-22
5.14039433e-21
6.1225761e-21
4.772073254e-21
2.680629657e-21
2.535691141e-21
1.575859379e-21
7.230699964e-21
3.621298545e-21
6.793633387e-22
2.904688196e-21
8.524662448e-21
9.397128745e-21
6.638452156e-21
2.604553586e-22
1.724838798e-21
3.678377394e-21
5.029414024e-21
2.189213898e-21
2.524905726e-21
3.117757344e-21
5.157256616e-21
1.941235702e-21
1.358111362e-21
2.598172283e-21
3.082543502e-21
2.103544609e-21
4.394492568e-21
3.265133308e-21
5.241817302e-21
2.107379267e-21
5.751787185e-21
9.019033933e-22
1.396739631e-21
1.524467075e-21
5.605324516e-21
1.149154515e-20
4.049219393e-21
1.673355154e-22
8.190192181e-22
1.151986066e-21
4.196389137e-21
5.082703448e-21
2.858880846e-21
1.051923359e-21
2.211811363e-21
2.615580565e-22
9.608457252e-22
2.352912458e-21
2.532164109e-21
1.768482143e-21
6.463694794e-21
7.561439665e-22
3.958841629e-21
7.71547241e-21
2.77347619e-21
2.705253779e-21
4.550732492e-21
4.384206417e-21
1.520346168e-20
3.595834337e-21
2.567708112e-21
3.402082616e-21
9.749108405e-21
1.31317127e-20
2.857304412e-21
8.238809333e-21
1.592295413e-20
1.857493661e-21
4.162288687e-22
1.682921039e-20
3.934861697e-22
3.502096511e-21
1.630670271e-21
1.387555721e-21
2.269339006e-21
2.499813192e-21
8.360701676e-21
3.410201903e-21
1.276340145e-22
2.416661896e-22
4.498745315e-22
6.765233295e-21
3.540380176e-21
3.267606874e-21
5.974785509e-21
5.860458839e-21
1.074943024e-20
1.169590569e-21
1.596910157e-20
9.257119426e-22
7.948860351e-21
6.830797652e-21
3.291863781e-21
1.147350495e-21
1.876703189e-21
1.247683071e-21
4.942533192e-21
4.50171484e-21
3.72595036e-21
3.810246614e-22
2.024785504e-20
6.361586559e-21
4.984491848e-21
1.865230525e-21
3.515718645e-21
3.228771942e-21
3.563519031e-21
2.624526239e-21
8.184466601e-22
4.167685074e-22
1.29293929e-20
9.91364924e-22
1.435900272e-21
2.648683699e-21
3.118432273e-21
4.181700249e-21
4.425499512e-21
3.162930243e-21
3.773615637e-21
6.343794752e-22
3.165340365e-21
2.329746779e-21
2.320112981e-21
2.199198115e-22
1.039635769e-21
1.030061786e-21
1.692542934e-21
1.614400765e-20
8.146360591e-21
3.781966833e-21
3.921671356e-21
5.36657426e-21
3.864515065e-21
7.458665903e-21
4.759616522e-21
8.825829726e-21
1.796918966e-21
2.296236644e-21
3.876797189e-21
1.291097305e-20
3.020142899e-21
5.546366199e-21
5.396089382e-21
1.452442097e-21
9.769076015e-22
3.072578374e-21
7.659684883e-22
1.923322225e-21
2.346119953e-21
6.608698883e-21
7.357062311e-22
7.650563928e-21
3.859013404e-21
4.874100527e-21
7.819641764e-22
1.044676041e-21
3.250311406e-21
4.067399201e-21
2.25946814e-21
1.588359116e-21
9.472127112e-22
3.501861474e-22
6.767093323e-21
5.274513991e-21
2.50919556e-21
2.080277724e-22
6.018212501e-21
1.97979314e-21
7.356379247e-23
8.144783606e-21
3.986906781e-21
7.835086481e-21
7.970069437e-21
9.917927877e-22
2.309268761e-21
9.475522491e-22
7.082965183e-21
7.383106457e-21
1.121615788e-21
3.397400504e-21
5.737223208e-21
1.514897068e-21
5.623102984e-21
5.273911762e-21
8.851854543e-22
4.37065243e-22
1.085293167e-20
2.093120763e-21
5.552371199e-22
6.118578589e-22
2.845770852e-21
9.288803591e-21
6.615413095e-21
3.002225015e-22
1.84377256e-22
6.31170804e-21
1.007327973e-21
3.189529025e-21
1.295850361e-21
5.323645307e-21
5.578408231e-21
9.334911027e-21
7.235548173e-22
1.149020369e-20
1.693322311e-21
3.855925611e-22
4.811255996e-21
1.343344744e-20
5.930254294e-21
9.816442013e-22
4.295485686e-21
1.000563602e-21
1.436974356e-21
3.171430521e-20
5.511489788e-21
4.073845869e-21
2.618174871e-21
2.973094763e-21
8.945689352e-21
2.202309952e-21
5.012342261e-21
5.155666806e-21
6.889682031e-21
6.942049268e-22
1.245479538e-21
7.435752192e-21
6.120562311e-21
2.639633343e-21
4.754986685e-21
5.63263405e-21
5.713037636e-21
4.562936074e-23
3.701987061e-21
1.426736571e-21
1.727100324e-21
6.880827161e-21
2.213073987e-21
1.623005374e-21
5.753260107e-21
2.352560589e-21
7.23829804e-22
2.405180253e-21
3.638069969e-20
6.664591109e-21
8.030534897e-21
1.830116435e-22
7.051592298e-21
5.177039903e-21
1.808828937e-21
7.11131464e-21
5.527453577e-21
2.908676771e-22
5.315844414e-21
2.529404636e-21
1.113732059e-20
1.80855501e-20
1.892083804e-22
1.121810324e-20
5.846436429e-21
7.76927136e-22
2.443354942e-21
1.059590674e-21
1.48902114e-21
4.809546317e-21
7.844571789e-21
1.445048479e-21
2.482117952e-21
7.769671546e-22
3.745513024e-21
5.621021882e-21
1.062172145e-21
1.02464067e-21
1.586155504e-21
6.767175575e-22
4.294885387e-21
2.046391214e-21
3.207659698e-22
1.201536165e-21
9.656804556e-21
6.620207404e-21
9.086987156e-21
4.957544471e-21
2.667188121e-21
6.621871551e-21
1.094228325e-20
9.65542943e-21
7.166898249e-21
2.57083171e-21
2.94703743e-20
2.983628826e-21
1.61394269e-20
3.792286812e-21
1.040559205e-21
2.086779089e-21
8.01004402e-21
1.376740216e-20
3.316774726e-21
1.13451536e-21
8.238653524e-22
2.67577883e-22
6.336536134e-21
1.116433737e-21
5.38766458e-21
1.161707031e-21
3.719942643e-21
6.589040928e-21
4.103618412e-22
6.777524773e-22
1.166320634e-21
9.378680027e-22
7.292909627e-21
2.835585886e-22
3.789615211e-21
5.720989547e-21
2.096331792e-21
1.897967503e-21
9.475262963e-21
4.688402486e-21
8.455433939e-22
4.969933674e-22
9.587454268e-21
8.436875764e-21
3.142688293e-21
1.14066563e-21
1.09119069e-20
5.675678606e-21
2.744456272e-21
2.022522009e-21
3.687780986e-21
7.682156666e-20
2.790837019e-21
5.18963465e-22
2.824472491e-21
4.970107762e-21
1.681934595e-21
5.076436472e-21
7.048560506e-21
6.465567264e-21
3.977267111e-21
3.009387143e-22
4.962577575e-22
1.131354565e-22
9.810710588e-21
2.168329907e-21
1.316022019e-20
5.038205778e-22
4.573763512e-21
8.112599656e-22
5.323621923e-21
2.718728632e-22
3.283396048e-21
1.402480778e-21
7.655947025e-24
6.149791946e-21
7.100113247e-21
2.114106861e-21
6.247047863e-21
3.83031584e-21
1.741266634e-21
4.095646004e-22
3.94100812e-22
1.055849389e-20
2.123062207e-21
2.10515151e-21
3.577018852e-21
7.210657667e-21
5.345753374e-21
1.503881145e-21
1.348206847e-21
5.211650429e-22
2.000772461e-22
5.374138631e-21
1.715853504e-21
4.684400581e-23
1.15385156e-21
8.779911886e-21
5.09043164e-21
1.90967772e-20
6.495574415e-21
4.002992655e-20
1.01697819e-20
2.04021228e-21
6.246319411e-21
8.072520113e-21
5.968369518e-22
2.708660045e-21
8.365390731e-21
2.837528275e-22
1.988790945e-21
5.440665877e-21
3.111560786e-21
1.120646007e-20
1.076604858e-20
4.914289653e-21
6.563709415e-21
6.150782906e-21
3.859685231e-21
4.394548262e-21