/*--------------------------------*- C++ -*----------------------------------*\
| =========                 |                                                 |
| \\      /  F ield         | OpenFOAM: The Open Source CFD Toolbox           |
|  \\    /   O peration     | Version:  2406                                  |
|   \\  /    A nd           | Website:  www.openfoam.com                      |
|    \\/     M anipulation  |                                                 |
\*---------------------------------------------------------------------------*/
FoamFile
{
    version     2.0;
    format      ascii;
    arch        "LSB;label=32;scalar=64";
    class       labelField;
    location    "0.001/lagrangian/dsmc";
    object      origId;
}
// * * * * * * * * * * * * * * * * * * * * * * * * * * * * * * * * * * * * * //


6199
(
34535
34625
33275
35395
39993
34971
34983
36293
34633
35250
35607
42365
35849
34651
34849
35535
36112
36215
36387
42569
41439
36660
42961
35096
35437
35846
36032
36291
40720
35570
38901
35448
35501
35968
42578
42778
34891
35163
36131
36146
36237
37086
37681
42568
35765
36104
36299
36540
36570
36807
35465
42775
8973
39190
35836
35948
36200
36228
36307
37723
42874
33432
34421
36060
36078
36460
36594
37682
36465
42774
35749
35762
36070
36530
37057
37361
43594
42773
35669
36054
36139
36305
42172
36574
36629
36758
37148
37207
37209
37224
37280
42873
38725
42275
42758
36266
36133
36144
36152
36217
36541
36632
36729
36895
36910
36921
42473
42668
9031
36233
36462
36512
36517
36630
36652
36797
36825
36908
42680
37080
37535
40115
41171
41351
35507
35966
36039
36249
36274
36360
36533
36685
36881
36981
36995
37079
37158
37171
37491
37645
37751
37884
38171
42489
38628
44213
43899
9050
35793
42571
35893
36125
36616
36620
36801
36814
36852
36953
36974
36977
37114
37329
37353
37368
37382
37416
37430
37534
37539
37680
37714
37746
35117
36075
36535
36573
36641
36656
36709
36728
37014
37091
37149
37161
37166
37195
37272
37364
37375
37376
37447
37462
37871
38393
38406
37240
39671
40737
43473
43699
42934
44279
35888
35962
36012
36055
36206
36546
36580
36706
36798
36833
36889
36999
37142
37182
37218
37284
37296
37371
37378
37642
37658
37706
37713
37806
37983
38035
38037
38537
40213
41262
37679
42058
9079
43885
35775
36370
36499
36674
36713
36741
36792
37000
37045
37077
37101
37147
37274
37309
37343
37348
37467
37520
37542
37563
37596
37694
37761
37783
37857
37949
38216
38314
38328
37509
42315
42487
36138
36205
36451
36684
36701
36734
36765
36803
37010
37061
37262
37277
37292
37317
37493
37532
37630
37668
37786
37812
37888
37964
38018
38161
38188
38224
38335
38446
44206
41076
41708
43785
42579
42263
37159
42953
35365
35945
36043
36503
36788
37011
37109
37265
37273
37307
37350
37380
37480
37547
37553
37566
37632
37639
37732
37804
37883
37889
37899
37900
37911
43909
38027
38127
38148
38162
38185
43488
42768
38579
38940
39011
39849
44818
37256
40478
44813
9098
9100
44696
36966
36149
36315
36383
36412
36427
36819
37015
37067
37099
37127
37183
37190
37192
37276
37289
37470
37475
37519
37526
37595
37626
37627
37689
37773
37798
37801
37822
37882
37890
37974
38187
38310
38373
38390
38439
38502
38689
43906
43286
41437
41533
41882
43023
36961
36372
36186
36702
36855
36932
37054
37146
37208
37259
37312
37377
37523
37621
37635
37686
37799
37829
37831
37915
37957
38015
38048
38075
38076
38078
38116
38120
38122
38160
38230
38250
38333
38504
38573
38580
38594
38680
37593
38932
38967
39019
39061
43805
40567
40820
42487
43459
41445
43809
36209
36248
36646
36764
36828
37281
37441
37537
37664
37700
37709
37711
37730
37847
37862
37905
37920
37947
37961
37981
38034
38038
38043
38164
38235
38237
38259
43703
38318
38329
38479
38493
38687
38715
38789
39106
44625
37935
45126
40388
37241
44001
41968
37151
42313
42675
38644
41713
45434
35757
36488
36624
36751
36884
36891
37164
37168
37311
37341
37385
37391
37427
37443
37598
37653
37699
37766
37789
37824
37850
37986
38020
38081
38135
38153
38233
38341
43910
38420
38499
38664
38834
45546
44519
39769
45021
45643
37412
43022
43995
9122
41247
36784
37083
37090
37093
37106
37177
37249
37278
37301
37318
37402
37417
37490
37557
37574
37628
37753
37772
37808
37877
37896
37907
37931
38033
38047
38057
38067
38080
38086
38134
38136
38145
38206
38219
38304
38311
38352
38413
38424
38494
38572
38698
38923
38946
38983
39028
39125
39146
40029
40477
41259
41349
44607
44198
43807
9136
9138
41316
42872
45322
45324
37110
37115
37359
37466
37525
37554
37606
37609
37624
37724
37762
37790
37791
37803
37810
37813
37881
37885
37887
37901
37903
37959
37968
37994
38056
38079
38121
38176
38212
38234
38317
38401
38469
38473
38515
38609
38668
38676
38705
38780
43806
38874
38907
39021
39029
39316
39372
44923
39629
39863
43804
45131
44717
45119
38200
42311
42312
42674
42768
44908
41945
43664
36970
37431
36737
36747
36983
37018
37180
37201
37310
37344
37374
37444
37472
37512
37516
37567
37704
37733
37781
37794
37821
37865
37906
37966
38036
38045
38059
38077
38107
38157
38167
38184
38201
38228
38245
38255
38422
38471
38472
38474
38489
38577
38603
38642
38739
38751
38769
38770
38793
38859
38929
38939
38976
39107
39122
44626
44005
41880
45958
42401
42767
43374
43877
43806
41147
44298
37600
37853
36132
36746
37189
37213
37349
37420
37454
37545
37552
37561
37620
37622
37641
37692
37993
38068
37932
38124
38141
38143
38175
38178
38204
38268
38298
38312
38349
38385
38396
38428
38496
38511
38578
38587
38589
38604
38746
38866
38914
39045
39048
39050
39130
39155
39200
39297
39406
39430
39861
45121
43693
45646
42400
9169
9170
9171
41034
44320
44291
44400
45428
36163
36329
36426
37005
37172
37421
37517
37550
37617
37619
37652
37662
37760
37769
37777
37815
38046
38074
38088
38169
38262
38266
38291
38305
38313
38325
38346
38370
38402
38441
38466
38486
38508
38533
38566
38597
38663
38691
38692
38740
38765
38821
38830
38863
38892
38935
38982
39000
39157
39205
45645
39310
39482
39836
40112
38101
41168
38280
45424
43701
45615
43458
9187
37604
38104
35679
37258
37392
37405
37536
37579
37739
37778
37809
37875
37904
37979
37999
38025
38028
38117
38149
38151
38156
38168
38173
38239
38249
38296
38383
38419
38483
38567
38570
38585
38591
38593
38598
38599
38646
38655
38667
38710
38766
38790
38795
38796
38803
38836
38869
38927
38944
38951
38953
39026
39117
39307
39349
39369
39388
39467
39476
39487
39530
40028
41348
41620
39250
43713
42656
34707
44722
44293
37754
38750
37255
37282
37625
37665
37855
37856
37913
37956
37995
38062
38064
38128
38155
38166
38269
38340
38344
38395
38418
38480
38485
38526
38561
38569
38650
38656
38675
38712
38763
38794
38849
38862
38864
38865
38878
38911
38930
38945
39003
39027
39043
39052
39072
39096
39105
39191
39204
39220
39284
39381
39445
39544
39582
39668
39727
39744
45444
40208
45545
40647
39603
38368
44795
43118
37380
9204
42133
43764
45226
37194
37450
37503
37677
37780
37807
37988
38023
38119
38139
38208
38218
38290
38307
38339
38394
38477
38492
38588
38590
38600
38602
38617
38619
38707
38762
38771
38774
38775
38807
38952
38962
38984
39035
39036
39040
39152
39283
39290
39291
39302
39337
39351
39405
39408
39483
39534
39640
39660
39859
46462
46353
44341
37852
41302
36264
36267
42869
46149
43280
36972
37260
37527
37687
37923
37969
37982
37984
38001
38054
38147
38217
38225
38260
38292
38295
38334
38388
38389
38398
38411
38412
38442
38509
38530
38532
38613
38651
38669
38670
38685
38699
38759
38772
38778
38797
38839
38880
38959
38965
38972
39006
39018
39031
39053
39056
39062
39071
39121
39131
39160
39193
39197
39303
39426
39443
39479
39523
39537
39572
39586
39784
40110
40178
40908
46047
41878
42057
43021
37415
45315
45321
9217
9218
39074
43379
36611
45117
36984
45028
36945
37456
37615
37703
37705
37863
38044
38090
38111
38170
38214
38231
38300
38326
38379
38478
38484
38487
38557
38563
38582
38647
38652
38684
38718
38736
38738
38764
38791
38806
38856
39013
39017
39033
39046
39054
39063
39068
39093
39140
39183
39190
39192
39215
39221
39234
39235
39252
39266
39269
39270
39274
39355
39376
39433
39469
39486
39547
39575
39577
39651
39707
39718
39746
39779
39883
39918
39964
40006
46661
37530
45637
44514
46362
38306
43803
44159
9227
9228
9230
40647
42072
43255
36457
43810
37688
37793
38024
38032
38055
38115
38144
38261
38297
38327
38331
38432
38513
38556
38576
38672
38682
38781
38847
38910
38917
38920
38931
38942
38973
39007
39032
39041
39346
39427
39435
39441
39453
39456
39542
39557
39623
39715
39722
39793
39794
39799
39808
39816
40023
40179
45544
46557
42309
45422
39325
44158
44253
9237
36714
41957
44922
45289
39257
35827
37872
38106
38251
38417
38488
38522
38568
38583
38654
38678
38697
38755
38824
38835
38850
38857
38879
38882
38883
38954
38958
38999
39016
39022
39100
39115
39137
39139
39185
39188
39189
39207
39218
39259
39279
39299
39342
39348
39350
39365
39377
39423
39459
39535
39551
39562
39570
39656
39721
39741
39910
39941
39985
40258
40355
43586
46249
41706
42055
42310
42764
39592
43546
43627
43712
44606
37247
43580
45129
45204
37858
36389
39117
37303
38229
38283
38303
38384
38404
38519
38564
38581
38596
38648
38671
38681
38737
38745
38753
38820
38842
38890
38918
38936
38948
38960
38979
39025
39104
39119
39181
39236
39251
39264
39272
39327
39340
39379
39434
39438
39490
45445
45755
39518
39520
39553
39568
39603
39615
39625
39632
39639
39650
39711
39740
39748
39749
39817
39821
39879
39922
39977
39992
40007
40095
44311
45433
41528
41529
45232
45955
42667
42765
44917
43545
44156
43283
9247
9248
40916
35298
42990
38210
46247
37436
36830
37196
37570
37776
37873
37973
38133
38302
38608
38618
38696
38760
38773
38782
38783
38792
38837
38844
38853
38875
38924
38933
38977
38978
39020
39088
39195
39199
39245
39253
39333
39359
39382
39386
39390
39396
39402
39432
39451
39465
39475
39491
39559
39608
39693
39696
39732
39747
39848
45647
39897
39899
45323
40048
40191
40345
40536
40602
46976
46552
41965
42485
43898
46457
44157
44897
9257
9258
9261
42993
43166
44515
44511
45003
39099
37958
38163
38323
38410
38456
38470
38501
38527
38601
38606
38615
38625
38660
38741
38761
38767
38838
38925
38947
39030
39039
39055
39092
39166
39198
39203
39209
39210
39233
39281
39285
39287
39289
39304
39328
39357
39362
39375
39385
39387
39395
39478
39540
39546
39607
39624
39631
39712
39713
39725
39728
39743
39765
40063
40142
40198
40236
40259
40285
40343
40356
40474
46156
41877
46763
45636
42668
39590
44155
9265
39960
40330
43963
37145
37944
37972
38137
38247
38320
44725
38374
38481
38524
38595
38641
38657
38688
38754
38799
38885
38934
39008
39111
39129
39156
39172
39223
39280
39286
39314
39363
39374
39452
39464
39470
39517
39519
39567
39648
39697
39705
39719
39723
39726
39809
39845
39903
39905
39920
39939
46460
40008
40106
40111
40134
40158
40211
40296
40509
40771
40991
41071
41210
45317
46979
42399
46346
46866
46142
45119
9267
9268
42779
43484
44319
44472
38387
38105
45442
44803
45847
46461
38256
38523
38558
38605
38748
38768
38787
38805
38840
38922
38949
38957
38966
38998
39124
39170
39186
39211
39262
39277
39313
39326
39347
39354
39358
39360
39392
39449
39462
39477
39539
39565
39626
39649
39737
39804
39807
39826
39833
39841
39866
39890
39912
39917
39921
39966
40069
40079
40089
45020
40201
40382
40464
40583
40615
40620
46351
40895
38991
46352
43286
43284
37774
44251
39425
44952
9282
42488
43874
41230
42061
38455
36627
43278
46648
37433
38138
38152
38158
38222
38285
38316
38342
38506
38562
38661
38843
38845
38926
38995
39103
39110
39116
39127
39150
39244
39249
39268
39288
39309
39444
39450
39596
39598
39637
45754
39730
39757
39874
39888
39906
39962
39967
39981
39987
40086
40140
40156
40164
40177
40244
40265
40281
40286
40299
40306
40330
40331
40337
40353
40365
40374
40407
40435
40495
40587
40621
40734
40759
40859
41004
41057
41073
41244
46553
42763
46137
46657
46966
44691
44692
46239
9294
9298
43888
45940
37848
45296
45320
45838
37084
37758
38073
38436
38490
38662
38752
38826
38938
38969
39005
39143
39154
39184
39187
39267
39308
39384
39397
39424
39466
39545
39558
39569
39613
39622
39734
39739
39787
39789
39802
39870
39871
39878
39896
39907
39925
39979
39991
40005
40013
40047
40061
40068
40075
40091
40136
40147
40149
40167
40181
40195
40200
40280
40282
40298
40378
40386
40433
40448
40498
40516
40539
40576
40586
40613
40618
40778
41131
43543
43802
46251
47166
45391
9306
36687
33661
34068
43685
42248
45834
38287
37945
46545
46546
34733
37918
37978
38131
38408
38503
38520
38776
38784
38861
38867
38872
39034
39102
39142
39202
39208
39256
39260
39335
39356
39364
39370
39436
39454
39468
39484
39543
39548
39585
39589
39612
39627
39644
39701
39702
39706
39717
39759
39805
39828
39882
39923
39930
39955
39993
40037
40065
40128
40139
40165
40199
40319
40339
40346
40347
40436
40456
40565
40708
40732
40763
40904
40975
41013
41043
45956
41617
41661
46354
41791
38467
43801
44868
45033
45390
9315
9316
9317
37676
41072
42760
42547
42955
42987
36727
37613
46356
46660
46022
39343
37828
38391
38429
39042
39132
39247
39273
39278
39331
39353
39380
39473
39480
39511
39514
39516
39527
39533
39550
39556
39561
39563
39605
39700
39720
39754
39839
39914
39927
39938
40022
40085
40163
40168
40174
40249
40254
40275
40320
40421
40439
40452
40500
40519
47284
40650
40683
40688
40815
40829
40851
40884
40939
41258
41703
39679
43711
46021
45118
44516
47075
9329
9331
42170
40782
40575
41277
43080
42667
43134
36781
44911
37845
45941
43299
44414
37640
37795
38380
38555
38665
38674
38858
38956
39023
39059
39196
39212
39300
39371
39383
39447
39471
39494
39531
39609
39611
39618
39641
39646
39860
39949
39965
39999
40015
40053
40054
40078
46053
40152
40203
40253
40311
40338
40341
40406
40445
40462
40584
40591
40598
40607
40614
40646
40676
40709
40758
41526
41583
41616
43114
44249
44431
44690
42797
45292
47488
9337
9339
9340
34637
41211
34615
42449
42930
43393
37419
45027
47262
46344
37953
38071
38243
38758
38868
39133
39168
39174
39271
39276
39301
39305
39458
39493
39536
39555
39634
39659
39691
39708
39766
39786
39831
39875
39894
39959
39968
39976
40009
40014
40041
40049
40056
40064
40132
40154
40166
40180
40246
40315
40328
40351
40377
40405
40429
40442
47077
40510
40545
40548
40596
40631
40641
40665
40724
40756
40772
40777
40808
41095
47187
46144
47280
47590
43198
46960
44250
44515
47172
44867
38649
9347
9348
40057
36011
43992
44597
37767
47682
43195
38463
38113
38381
38749
39086
39214
39338
39339
39431
39485
39488
39528
39560
39614
39653
39688
39710
39735
46664
39806
39869
39889
39956
39978
39982
39989
40059
40062
40090
40151
40176
40186
40202
40242
40245
40256
40264
40269
40352
40370
40371
40417
40418
40472
40506
40527
40529
40540
40601
40623
40640
40679
40690
40702
40716
40809
47998
47999
40933
40972
41045
41232
41312
41719
42578
43115
43285
44154
44339
40229
47367
47886
46845
45663
47782
9353
9354
44116
41293
36455
45098
39699
45937
46309
44601
37358
38553
38855
38860
38928
39118
39194
39222
39512
39525
39549
39552
39630
39642
39729
39788
39792
39796
39810
39812
39814
39822
39823
39824
39830
39884
39916
39919
39970
39984
39990
40001
40004
40025
40073
40077
40096
40146
40159
40175
40237
40248
40261
40271
40276
40283
40372
40423
40446
40468
40497
40514
40520
40550
40558
40605
40638
40669
40677
40703
40706
40711
40748
40760
40769
40776
40791
40806
40812
40938
40942
41138
41164
41233
41270
41336
41386
41421
47699
39687
48200
46235
42662
42852
43372
47983
39600
47450
45388
45927
9359
9360
9362
36366
41734
36456
43186
43660
36015
43571
43013
39538
42582
39515
36009
38382
38409
38941
39004
39120
39144
39162
39182
39265
39334
39341
39345
39463
39601
39620
39698
39716
39795
39803
39820
39835
39895
39911
39937
39986
39997
40038
40081
40092
40137
40143
40206
46656
40243
40263
40266
40270
40277
40287
40384
40454
40492
40501
40511
40525
40544
40632
40654
40671
40764
40845
40854
40874
40882
40936
40964
40974
40986
41017
41029
41220
41286
41316
47186
46877
42397
45621
47690
43544
44248
40652
46638
46967
45746
9372
9373
9374
9375
9377
9378
9379
38041
41812
41674
42821
43287
44502
44200
45181
44188
38126
40226
37257
41901
47873
40220
38495
38559
38584
39012
39024
39134
39175
39201
39237
39367
39495
39496
39617
39690
39908
39995
40000
46663
40135
40225
40241
40257
40262
40267
40289
40402
40428
40430
40447
40507
40508
40513
40590
40609
40611
40619
40625
40645
40693
40698
40714
40743
40811
40860
40863
40885
40902
40907
47188
40935
40959
41018
41026
41028
41068
41075
41106
41327
41415
41979
42019
42482
46454
47874
43894
44951
45482
9384
9385
36685
40668
42764
43802
43276
43800
36967
44608
45951
46625
45211
38693
38786
38831
39138
39261
39306
39361
39368
39448
39472
39510
39573
39619
39703
39798
39800
39867
39892
39893
39901
39909
39932
39988
40050
40080
40231
40238
40240
40268
40329
40340
40368
40410
40416
40419
40441
40451
40467
40485
40593
40595
40644
40701
40796
40799
40833
40841
40850
40880
40954
41027
41031
41037
41059
41063
41100
41102
41235
41237
41461
41670
47281
47876
42762
39591
46869
47487
47778
44338
48183
40920
47489
45566
9387
37900
40696
40076
42252
42461
43168
42849
43689
44204
44716
39509
39428
38832
47885
35735
38677
39394
39541
39832
39880
39913
39928
39974
40010
40052
40150
40169
40190
40224
40234
40235
40252
40272
40290
46879
40385
40422
40426
40457
40459
40524
40531
40574
40578
40588
40680
40685
40699
40710
40721
40749
40755
40757
40770
40788
40794
40878
41009
41064
41086
41103
41111
41112
41118
41344
41370
41378
41384
41483
41504
41640
41740
41744
42044
40581
43113
43284
43455
44430
44864
48180
40153
45386
49121
46268
9390
9391
39256
41565
40167
41301
35043
44186
43548
43692
43262
39084
44867
47273
47779
40034
45130
36697
46229
38060
38405
39114
39258
39336
39635
39636
39881
39904
39957
40002
40024
40074
40076
40160
40197
40316
40350
40357
40362
40392
40543
40555
40606
40663
40670
40695
40700
40715
40789
40835
40861
40977
41041
41049
41053
41117
41126
41139
41204
41205
41239
41282
41303
41391
41403
41637
41672
41677
41702
41811
42664
47792
43800
47380
44605
40489
45662
45835
9400
9401
9402
9403
9404
9405
40703
41938
42844
40440
36609
37787
35648
35646
44482
36101
44101
44493
46055
36964
44779
43901
45219
37939
37851
45409
39778
38825
38372
38950
38955
39391
39628
39633
39731
39780
39960
39994
40083
40157
40233
40251
40288
40325
40334
40336
40400
40424
46558
40496
40521
40552
40626
40628
40682
40707
40774
40798
40805
40840
40847
40922
40943
40966
41011
41022
41035
41042
41046
41083
41121
41124
41130
41135
41148
41252
41269
41299
41324
47794
41405
41467
41493
41508
47494
41585
41676
41701
41750
41909
41957
42004
42014
48193
42483
42484
41092
48489
46180
9409
9410
39164
39020
41073
41606
39969
42005
42062
43057
42006
35396
36448
42994
44012
44099
42982
37933
38209
38823
46224
37439
39171
37614
43683
47668
38475
39179
39344
39661
39724
39738
39782
39829
39865
39873
39972
40067
40138
40274
40323
40342
40344
40427
40491
40542
40556
40582
40600
40603
40617
40684
40705
40719
40792
40810
40849
40856
40857
40872
40879
40889
40905
40924
40934
40937
40945
40950
41032
41040
41213
41289
41290
41306
41317
41322
41358
41578
41579
41615
41725
41755
41851
41933
42009
42054
43017
43195
43454
47683
48300
40324
45290
48502
41544
46008
9415
9416
9418
32806
42229
42715
43377
43384
43890
44569
38114
42885
39521
46051
39095
39231
39275
45547
39564
39621
39643
39736
39886
39926
39958
40071
40161
40172
40333
40359
40360
40376
40381
40494
40512
40518
40610
40622
40694
40782
40816
40867
40870
40893
40944
40949
41000
41002
41024
41061
41081
41116
41207
41209
41222
41226
41228
41284
41288
41295
41325
41342
41388
41389
41410
41416
41422
41448
41474
41584
41593
41636
41724
41742
41754
41769
41820
41843
41908
42085
42307
42600
43197
47784
44428
44429
45289
45385
48084
40580
45565
47580
46267
46439
43173
9422
9423
9424
9425
9426
9428
9430
42566
35743
36708
41943
37811
36785
38203
45407
38747
46248
39524
48706
43778
38301
38611
39366
39457
39489
39846
39998
40057
40173
40232
40431
40490
40549
40687
40832
40871
40927
40946
40955
40963
40965
40969
40989
41006
41080
41090
41120
41163
47384
41180
41182
41186
41196
41200
41206
41224
41272
41291
41293
41309
41310
41314
41319
41394
41399
41459
41542
41653
41657
41679
47890
41846
41925
41987
42032
42179
42283
49236
47788
42663
42761
46330
49619
47483
49228
44149
47700
44863
40228
48190
48160
48709
9437
9438
9441
9442
9443
42522
44507
44209
42498
39422
38196
46042
47378
44305
43567
44810
41094
48486
41181
40223
39791
39983
40060
40193
40440
40450
40523
40530
40589
40592
40624
40635
40678
40785
40801
40846
40852
40929
40990
41123
41142
41145
41146
41192
41243
41247
41249
41294
41313
41315
41345
41376
41400
41414
41435
41479
41565
41572
41587
41591
41595
41601
41658
41668
41674
41741
41746
41776
41799
41802
41862
41873
41875
49024
42248
42375
48299
47862
48603
47884
48186
45661
9448
9449
9450
9451
9452
9454
37216
40150
41523
42558
43151
43036
42743
44074
44389
43155
43456
37771
40437
43797
44079
43190
45222
42367
45938
38744
46150
47167
38378
45822
38937
37719
39606
40162
40196
40247
40255
40335
40364
40373
40401
40404
40409
40503
40532
40547
40594
40642
40664
40689
40762
40765
40773
40834
40853
40876
40877
40900
40962
40967
40984
41019
41030
41070
41088
41089
41125
41177
41214
41234
41301
41335
41360
41374
41385
41444
41463
41517
41611
41630
41756
41765
41836
41849
41850
41905
41919
41943
48822
42047
42082
42084
42120
48619
43283
48711
40484
40918
48611
48506
48609
47467
46794
41267
9462
9463
9464
9465
9467
41106
42343
42979
42369
45949
44596
39108
45100
38905
44409
38279
46741
47060
38994
39781
39887
39891
40130
40361
40515
40528
40533
40655
40658
40662
40783
40784
40842
40862
40866
40896
40914
40926
40948
40956
40960
40970
41005
41066
41096
41097
41119
41132
41133
41134
41149
41218
41223
41302
41305
48201
41390
41426
41449
41451
41477
41482
41490
41496
41500
41511
41541
41555
41559
41577
41582
41594
41606
41655
41664
41680
41700
41726
41728
41732
41734
41748
41777
41813
41829
41847
41861
41903
41932
41959
42010
42078
42105
42112
42355
42537
48387
42931
47994
44427
48284
49332
41203
9470
9471
9472
9473
9474
9475
9476
32893
40920
38922
43383
43697
44214
43706
43557
43675
44584
45269
43657
37601
45417
38298
42915
43975
45198
46455
47258
39112
39838
40292
40460
40616
47598
40675
40720
40802
40831
40838
40869
40886
40901
40952
41150
41184
41268
48303
41359
41372
41401
41404
41432
41472
41498
41518
41612
41662
41722
41736
41778
41804
41815
41828
41868
41901
41914
41926
41995
42020
42080
42097
42115
42173
42177
42244
42246
42341
42661
43111
49231
44247
47587
44862
45203
45204
49237
45834
40577
46100
42061
46884
49102
9480
9481
9482
9483
9484
9485
9486
9487
40408
40040
39719
41855
43063
43062
42316
40225
43969
37334
44718
44594
43997
36732
45578
46243
45227
48264
47179
48784
37695
40036
45335
39813
39898
40055
40104
40348
40393
40412
40437
40599
40629
40636
40668
40672
40681
40750
40751
40817
40848
40941
41014
41047
41143
41217
41227
41254
41395
41397
41487
41492
41494
41510
41547
41568
41604
41613
41651
41723
41779
41808
41830
41837
41839
41858
41900
41918
41923
42013
42027
42042
42048
42088
42098
42110
42188
42196
42238
42243
42324
42404
42472
42540
42547
42699
49019
41890
45032
49815
45745
46438
46528
48702
47063
9495
9497
9498
9499
9500
39414
41115
33821
42334
36539
44693
42398
42966
43292
42666
44010
43994
46355
37757
40921
42429
48389
37844
39694
40058
40105
40363
40369
40414
40432
40560
40561
40608
40673
40686
40780
40883
40930
41107
41110
41115
41279
41326
41379
41428
41469
41481
41484
41499
41543
41573
41575
41576
41581
41588
41625
41721
41731
41737
41772
41773
41840
41904
41931
41991
42003
42069
42074
42096
42130
42247
42361
42430
42519
42573
42624
49123
42698
42759
48479
47993
48392
9503
9504
9505
39134
41134
43436
41888
42193
37332
42352
42339
42751
41552
44719
43912
44701
44303
43879
37942
37846
46345
46918
45013
46148
38643
46130
36912
48599
49729
46245
46772
38906
38586
39610
40072
40434
40517
40537
40666
40768
40800
40844
40932
40951
41020
41033
41036
41038
41044
47889
41109
41179
41198
41212
41229
41297
41371
41393
41423
41471
41486
48514
41557
41684
41729
41747
41757
41831
41855
41867
41927
41972
41998
42077
42094
42095
42116
42137
42147
42149
42158
42209
42269
42304
42407
42415
42419
42467
42550
42568
48095
47285
42638
42639
42843
42932
42977
49426
48914
44513
48612
45659
49933
46527
46697
48199
9507
9509
9511
41151
42227
42610
39227
41319
43297
42639
43446
43478
41949
44217
43875
39680
39322
46132
38476
46761
45829
37357
48716
47764
49114
42609
41895
38916
39658
40411
40538
40825
40865
40892
40916
40957
40983
41128
41202
41215
41216
41241
41255
41285
41287
41330
41332
41367
41402
41409
41418
48618
41450
41460
41495
41502
41513
41523
41562
41596
41656
41667
41698
41759
41783
41821
41834
41854
41857
48302
41888
41891
41897
41938
41970
41978
41983
42049
42051
42134
42186
46045
42237
42259
42272
42273
42278
42346
42366
42391
42439
42500
42551
42611
42751
42798
43453
43981
44245
48811
46177
49423
46793
46883
47061
47062
47244
9512
9513
9514
9515
9516
9517
39163
39544
41350
41010
43680
43415
43655
46113
36279
44104
45416
38304
44713
44789
39532
45811
46561
39594
39686
38215
46769
37507
46636
47065
47283
47265
47270
48097
42254
39714
40099
40425
40488
40612
40761
40994
41023
41034
41067
41191
41194
41273
41318
41392
41398
41408
41452
41457
41522
41561
41580
41646
41671
41675
41678
41686
41749
41752
41761
41810
41812
41841
41917
41924
41935
41976
41985
42000
42016
42113
42126
42140
42150
42153
42170
42187
42216
42228
42258
42263
42265
42276
42292
42349
42352
42387
48714
49023
42437
42446
42574
42617
42623
42632
42746
42760
42894
43540
43797
43982
47790
44859
49095
50134
45925
48185
48492
47499
9521
9522
9523
9524
9525
9526
33914
37912
40915
42752
40798
39712
41923
42464
42245
43265
34866
43966
37950
44252
39508
45833
38198
45626
45019
47328
40550
47836
48098
41274
42794
37854
39900
40088
40155
40250
40691
40767
40839
40858
40887
40899
40940
41158
41195
41333
41337
41441
41501
41550
41563
41567
41652
41659
41660
41666
41760
41775
41822
41827
41902
41920
41922
41930
41956
41990
41994
42087
42089
42121
48093
42162
42165
42176
42184
42206
42290
42321
42332
42343
42413
42428
42436
42450
42481
49724
42533
48615
42590
42687
43051
49324
48920
44148
49931
48922
50144
49110
45658
46861
46437
49226
42328
38909
9530
9531
9532
9533
41761
38292
41415
41748
39978
42146
40666
42652
42745
37684
44710
45483
44342
37141
44600
45539
46242
39953
41085
46766
47485
37618
48815
37048
38908
45540
44324
47490
44312
44115
39818
40444
40522
40744
40864
40921
40923
40931
40976
41015
41039
41098
41127
41129
41137
41188
41221
41253
41271
41277
41300
41308
41329
41356
41377
41396
41433
41446
41478
41552
41598
41603
41608
41639
41758
41801
41844
41941
41974
41989
41996
41997
42023
42025
42030
42107
42111
42119
42123
42160
42192
42193
42198
42220
42233
42245
42267
42274
42281
42356
42368
42384
42388
42421
42432
42435
42441
42460
42518
42525
42564
42567
42627
42628
42640
42649
42659
42696
42804
42851
42886
42891
42900
42930
43016
43086
49432
43168
43452
43892
49429
44150
44151
41969
44426
45833
46351
41733
46696
49417
47149
9536
35958
37659
41721
41616
41836
43585
43593
42870
38199
43385
44054
38202
45596
38734
44704
44108
38818
45840
39858
36707
45132
46155
41950
43591
38733
38112
43949
41912
40534
40790
40873
40919
41052
41104
41311
41323
41431
41445
41456
41475
41476
41503
48718
41717
41818
41823
41859
41937
42002
42079
42104
42125
42142
42180
42182
42183
42190
42204
42219
42249
42252
42302
42381
42383
42423
42513
42523
42528
42544
42582
42618
42641
42702
42734
42811
42953
43145
50033
44860
45288
45383
49326
45657
46007
41539
48708
49927
47243
47498
47588
9538
9539
9540
9541
9542
9543
9544
9545
9546
38707
40377
40072
40683
38614
37897
41653
44107
42883
42690
37756
44194
44491
44461
43272
43566
38375
45521
46438
37511
46244
44809
38814
45721
40746
47584
40408
40604
40674
40981
41122
41225
41363
41375
41556
41569
41762
41774
41781
41806
41819
41856
41993
42018
42021
42065
42076
42092
42128
42164
42171
42178
42260
42287
42299
42330
42364
42372
42440
42463
42492
42517
42541
42546
42594
42630
42657
42686
42690
42715
42790
42969
42995
42999
43063
43202
43221
43226
43230
43326
48495
43682
42774
44512
45031
46176
46526
47060
9549
9550
9551
9552
9553
9554
35970
39532
40535
39417
41824
41705
43894
44386
43978
44901
43370
43465
37414
45927
44068
45842
46034
39684
44721
47275
35562
44408
47352
46977
46758
48085
48816
45446
38571
40260
40438
40868
40925
40988
41141
41281
41381
41406
41465
41466
41489
41491
41497
41682
41692
41826
41842
41845
41866
41893
41928
41940
41971
42029
49025
42067
42073
42075
42109
42168
42172
42191
42194
42234
42253
42254
42256
42279
42286
49624
42350
42351
42363
42393
42402
42455
42509
42515
42526
42548
42563
42592
42608
42713
42717
42792
42808
42818
42861
42901
42909
42945
43080
43177
43203
43264
43297
43362
50456
43599
49935
43980
44066
50458
50950
45201
46609
48800
47684
9560
9561
9562
9563
9564
9565
9566
34544
38214
37496
35204
42400
35549
41382
36105
43695
44723
44205
44185
38468
41103
45287
38294
37608
44184
45294
44820
46519
46459
46635
39777
47579
39323
47066
39254
39877
40443
40753
41012
41108
41159
41231
41280
41321
41419
41647
41648
41673
41699
41763
41787
41803
41835
41907
41915
41942
41945
41947
41992
42011
42083
42103
42133
42139
42145
42161
42236
42239
42250
42270
42293
42339
42342
42358
42392
42414
42454
42459
42495
42510
42531
42711
42727
42729
42736
42773
42833
42875
42889
42890
42892
42904
42957
43056
43060
43083
43148
43159
43229
43427
51067
43686
43710
50036
44337
44602
42063
50344
50034
44858
50141
49829
42679
48996
47843
47932
9568
9569
9570
9571
9572
9573
9574
24178
32894
36795
39032
34171
40379
40301
36042
41965
43599
42576
41800
41362
42018
42165
43667
42188
44987
44488
44808
45230
45614
38453
45092
47169
45837
45960
44011
46140
47680
44277
40154
45082
46231
40239
48194
38828
48485
39109
45436
40082
38464
49601
41898
41219
41380
41480
41600
41649
41650
41921
41949
41960
42001
42012
42072
42175
42185
42195
42225
42337
42376
42379
42395
42471
42497
42527
42534
42556
42557
42593
42595
42603
42615
42703
42716
42733
42775
42782
42800
42824
42832
42848
42954
42962
42964
42987
43032
43081
43125
43260
49928
43398
43419
43431
43589
43704
43735
47981
44089
44242
42680
49523
45382
46436
49533
49716
46882
48174
9576
9577
9578
9579
9580
9581
9584
9586
9587
39353
41313
42970
43396
43774