/*--------------------------------*- C++ -*----------------------------------*\
| =========                 |                                                 |
| \\      /  F ield         | OpenFOAM: The Open Source CFD Toolbox           |
|  \\    /   O peration     | Version:  2406                                  |
|   \\  /    A nd           | Website:  www.openfoam.com                      |
|    \\/     M anipulation  |                                                 |
\*---------------------------------------------------------------------------*/
FoamFile
{
    version     2.0;
    format      ascii;
    arch        "LSB;label=32;scalar=64";
    class       Cloud<dsmcParcel>;
    location    "0.001/lagrangian/dsmc";
    object      positions;
}
// * * * * * * * * * * * * * * * * * * * * * * * * * * * * * * * * * * * * * //

6199
(
(0.2927771977 0.2632972057 -1.626303259e-19) 472
(0.2506115607 0.1913279418 1.084202172e-19) 106
(0.2920322439 0.2620766666 -1.084202172e-19) 472
(0.2842091617 0.2230425162 -2.168404345e-19) 261
(0.2697818709 0.2053533518 1.084202172e-19) 169
(0.2652167896 0.2072063862 4.33680869e-19) 168
(0.295730877 0.2633656571 -3.252606517e-19) 472
(0.2963081156 0.2056992963 0) 142
(0.2968730322 0.2407020995 -2.168404345e-19) 352
(0.292579573 0.2320660338 -2.168404345e-19) 292
(0.2859045698 0.2424883021 -9.486769009e-20) 351
(0.2725848788 0.2385644282 -2.168404345e-19) 349
(0.297705026 0.238448021 -2.168404345e-19) 323
(0.2972417199 0.2114779905 6.505213035e-19) 173
(0.2959438829 0.2715323385 4.33680869e-19) 502
(0.2939142783 0.2448145586 0) 382
(0.2952394178 0.1923929173 0) 82
(0.3027956187 0.2332448367 -4.33680869e-19) 293
(0.2999231783 0.2259016164 -1.897353802e-19) 263
(0.2959687776 0.2105585758 0) 172
(0.2719206247 0.2255409072 1.084202172e-19) 259
(0.2985744896 0.2442309291 2.710505431e-19) 353
(0.2643325603 0.2418128223 1.084202172e-19) 348
(0.2735407359 0.2527871814 0) 409
(0.2969594506 0.2305653411 3.794707604e-19) 292
(0.2510366723 0.2170269399 0) 226
(0.2998503147 0.2647890807 5.421010862e-20) 473
(0.2995257924 0.2235367782 -1.084202172e-19) 263
(0.3004065106 0.233273387 0) 293
(0.3032493114 0.2284148011 -4.33680869e-19) 263
(0.280639636 0.2194297528 -2.168404345e-19) 230
(0.2921337704 0.2343964615 1.084202172e-19) 322
(0.2703072284 0.2222737148 6.776263578e-20) 259
(0.2999249377 0.2188678542 -1.084202172e-19) 233
(0.3027976591 0.2399399415 0) 353
(0.2722459204 0.2066835324 -1.084202172e-19) 169
(0.3033234906 0.2443376499 0) 353
(0.2895621597 0.2824938225 -2.168404345e-19) 562
(0.2992314548 0.2617380257 1.084202172e-19) 473
(0.3007366499 0.2318435565 2.439454888e-19) 293
(0.2971263409 0.2056014447 -4.33680869e-19) 142
(0.2612781625 0.2090833954 0) 198
(0.3006233105 0.2386697962 0) 323
(0.2671345382 0.2087278184 2.168404345e-19) 199
(0.288839031 0.2293627307 0) 291
(0.2831926083 0.2007451988 1.084202172e-19) 141
(0.2988738092 0.288051265 -2.439454888e-19) 593
(0.3005059253 0.2046248489 1.355252716e-19) 143
(0.2910252973 0.2579004766 4.33680869e-19) 442
(0.2886739492 0.2388736025 -4.33680869e-19) 351
(0.300802187 0.1886962898 -3.252606517e-19) 54
(0.2967995727 0.2121896825 0) 202
(0.3033054363 0.2520165579 2.168404345e-19) 413
(0.3042052307 0.2415260035 -1.084202172e-19) 353
(0.2554116724 0.2486126941 0) 407
(0.2865370301 0.1931803798 1.084202172e-19) 81
(0.2841666134 0.1963390315 -4.33680869e-19) 111
(0.2831207191 0.2412257391 -7.453889936e-20) 351
(0.3032411881 0.2477811019 -3.252606517e-19) 383
(0.2964070485 0.1840082318 0) 31
(0.2904423328 0.2116947328 0) 202
(0.2959251671 0.2379104043 -4.33680869e-19) 322
(0.2961530007 0.1977373675 3.794707604e-19) 112
(0.2388634384 0.24842396 3.252606517e-19) 405
(0.294119587 0.2726085812 0) 532
(0.3029214113 0.239052652 4.33680869e-19) 323
(0.2839359307 0.2748319781 1.050320855e-19) 531
(0.2672686399 0.201432527 0) 139
(0.2971358962 0.2321264265 4.33680869e-19) 292
(0.2782480883 0.2057512515 -1.084202172e-19) 170
(0.2772044577 0.1912645959 0) 80
(0.2957364119 0.240610603 0) 352
(0.2813638196 0.2428023178 0) 350
(0.3030762687 0.217489413 2.168404345e-19) 203
(0.2773020997 0.1818233573 4.878909776e-19) 51
(0.2753174868 0.1834422489 0) 51
(0.2701594597 0.2129228669 2.168404345e-19) 199
(0.2867883051 0.2210539828 -2.168404345e-19) 231
(0.2937196756 0.2294550427 0) 292
(0.2783110256 0.2046482524 2.168404345e-19) 170
(0.2905060176 0.2021457848 2.168404345e-19) 142
(0.3040616426 0.2275019253 0) 263
(0.2679569246 0.1813133201 -2.981555974e-19) 50
(0.302609577 0.2220800378 -3.252606517e-19) 233
(0.2739986841 0.1965912693 -2.168404345e-19) 109
(0.2960551083 0.2952256122 0) 652
(0.2963284911 0.1734383684 4.33680869e-19) 15
(0.2976850408 0.2415333461 0) 353
(0.2915302791 0.266964027 -2.168404345e-19) 502
(0.3001329184 0.2297802112 -7.047314121e-19) 293
(0.2766778956 0.2177529975 2.168404345e-19) 230
(0.2950739544 0.2126750722 0) 202
(0.2877857247 0.2889739169 0) 621
(0.2984449449 0.1936983126 1.084202172e-19) 83
(0.2792890238 0.206220322 -1.084202172e-19) 170
(0.2842961759 0.2362142467 -3.252606517e-19) 321
(0.3018159802 0.2521678713 -1.084202172e-19) 413
(0.3012864735 0.2526072555 -2.168404345e-19) 413
(0.2713041584 0.2313027627 2.168404345e-19) 289
(0.3037282623 0.1914387168 -2.168404345e-19) 83
(0.2854460904 0.2322035552 -2.168404345e-19) 291
(0.2850227793 0.2093038485 -3.252606517e-19) 171
(0.2895056958 0.1898919644 -4.33680869e-19) 81
(0.2922562161 0.2353989776 1.084202172e-19) 322
(0.2972793109 0.2241906801 -1.084202172e-19) 263
(0.2912510625 0.2387338052 0) 322
(0.298639004 0.2021668378 -1.76182853e-19) 143
(0.2976568634 0.2120856705 0) 203
(0.2836199657 0.2767364079 -5.421010862e-20) 531
(0.2900759276 0.2809440688 2.168404345e-19) 562
(0.2957033978 0.2004586149 0) 112
(0.2909511541 0.2852329647 -1.084202172e-19) 592
(0.2976701619 0.2569171211 0) 443
(0.2723539923 0.1859675335 -4.33680869e-19) 50
(0.294288557 0.274106788 0) 532
(0.2557715268 0.2271219638 5.963111949e-19) 287
(0.2961678531 0.2414345823 -4.33680869e-19) 352
(0.2923879535 0.2571293545 -2.168404345e-19) 442
(0.2998104969 0.2868254487 -3.252606517e-19) 593
(0.2813182185 0.2518609658 2.168404345e-19) 410
(0.3005367778 0.258657185 2.710505431e-20) 443
(0.2956799236 0.277827674 2.168404345e-19) 532
(0.2941630578 0.2913824162 5.421010862e-20) 622
(0.2869309919 0.2860011862 5.421010862e-20) 591
(0.2824069656 0.2190239367 1.084202172e-19) 231
(0.2941708341 0.2507587614 0) 412
(0.2872290681 0.2266334102 7.589415207e-19) 261
(0.3023384405 0.2272048416 -2.168404345e-19) 263
(0.2874848291 0.1893693134 0) 81
(0.2888791606 0.2082641079 -4.33680869e-19) 171
(0.2918677345 0.2018824791 2.422514229e-19) 142
(0.2565148935 0.2609551638 0) 467
(0.2847467738 0.205813504 2.168404345e-19) 171
(0.267169956 0.2259210999 0) 289
(0.2906382386 0.2221461331 -2.168404345e-19) 232
(0.2731617149 0.1930935745 -2.168404345e-19) 109
(0.2978036132 0.2042879849 1.084202172e-19) 143
(0.2943088163 0.2523070955 -1.084202172e-19) 412
(0.2897274361 0.2895212481 1.626303259e-19) 622
(0.2966483321 0.2894617665 0) 622
(0.2524126645 0.2953839534 1.084202172e-19) 647
(0.2953129707 0.2069183108 0) 172
(0.2971044155 0.2443978712 -4.33680869e-19) 352
(0.2694637172 0.1915892298 -2.168404345e-19) 79
(0.2754019216 0.2275191134 1.626303259e-19) 290
(0.2937955147 0.2274711727 -1.626303259e-19) 262
(0.3020172214 0.2178845369 0) 233
(0.2870045449 0.2338924413 0) 321
(0.2702414082 0.2783621748 -1.355252716e-19) 559
(0.2766418549 0.2105884284 -1.084202172e-19) 200
(0.2498314009 0.2150913783 -1.626303259e-19) 226
(0.3032766298 0.24392555 -4.33680869e-19) 353
(0.3038985218 0.2660770103 0) 473
(0.2876361708 0.2011331093 0) 141
(0.2740096851 0.2552432068 0) 439
(0.2506762626 0.1838593377 0) 76
(0.2966938881 0.2331517061 0) 292
(0.2621418623 0.277730592 -1.084202172e-19) 558
(0.2702202957 0.2024545213 -2.168404345e-19) 139
(0.2820253438 0.2027666051 -4.33680869e-19) 141
(0.3025984638 0.2420206196 1.084202172e-19) 353
(0.2995327328 0.2082926853 0) 173
(0.2522642103 0.187379992 2.168404345e-19) 77
(0.2895523514 0.2221741702 -4.33680869e-19) 261
(0.2781715051 0.2499046163 0) 410
(0.3022647921 0.2106503009 0) 173
(0.2593636345 0.2276957124 2.168404345e-19) 288
(0.3008604652 0.2180286005 -1.355252716e-20) 233
(0.3014093405 0.2503851897 -3.252606517e-19) 383
(0.2912176182 0.2097139312 3.252606517e-19) 172
(0.2810084547 0.2434332034 0) 350
(0.2618582223 0.2622919486 1.084202172e-19) 468
(0.3043869659 0.2282691778 -2.168404345e-19) 263
(0.2866632428 0.2183844973 0) 231
(0.262246064 0.2284123417 0) 288
(0.3027001355 0.2213495193 1.084202172e-19) 233
(0.2832323342 0.1976199628 2.168404345e-19) 111
(0.2716851342 0.2730321627 2.168404345e-19) 529
(0.2973111776 0.2424398004 8.131516294e-20) 353
(0.2911996351 0.22581751 1.084202172e-19) 262
(0.2647939787 0.2956190563 0) 648
(0.28760618 0.230753056 2.168404345e-19) 291
(0.3017462207 0.2326492478 0) 293
(0.2840929648 0.2500535765 -3.252606517e-19) 411
(0.2838185151 0.206546531 1.626303259e-19) 171
(0.2982501017 0.2221427189 0) 233
(0.2955901182 0.2440880421 0) 352
(0.2934218637 0.201891695 -2.168404345e-19) 142
(0.2750160511 0.2198792918 0) 230
(0.2828963536 0.2000255598 2.439454888e-19) 141
(0.2988771787 0.2082534883 -1.084202172e-19) 173
(0.2879822025 0.2202162131 0) 231
(0.304321368 0.2442783209 0) 353
(0.3046694465 0.2321901803 -4.33680869e-19) 293
(0.2870354879 0.2019036392 -2.710505431e-19) 141
(0.2848959741 0.1898469122 -1.084202172e-19) 81
(0.3007373585 0.2592473686 -8.131516294e-20) 443
(0.2992317457 0.2776698635 -1.084202172e-19) 533
(0.3018719297 0.1734231333 1.084202172e-19) 5
(0.2842315844 0.2322294963 0) 291
(0.2861167127 0.2896463495 -2.168404345e-19) 621
(0.2983217857 0.1797440036 0) 32
(0.2859112479 0.2468255058 -2.710505431e-20) 381
(0.2809096062 0.2698870304 2.168404345e-19) 500
(0.2695136843 0.2113108716 2.168404345e-19) 199
(0.2538689465 0.2332259817 -3.252606517e-19) 317
(0.2586250738 0.2183499858 2.168404345e-19) 227
(0.2857335691 0.2222086374 -1.6093626e-19) 261
(0.3030336098 0.2504251002 2.168404345e-19) 383
(0.2636980471 0.2247806928 -2.168404345e-19) 258
(0.277048567 0.252754932 -2.168404345e-19) 410
(0.2895290861 0.2630676223 -1.084202172e-19) 471
(0.2716536316 0.2109593325 0) 199
(0.2811690011 0.2502055579 -2.168404345e-19) 410
(0.2939461012 0.1950664084 0) 112
(0.2934883775 0.2503565527 -8.67361738e-19) 412
(0.2955152147 0.2876489171 2.168404345e-19) 592
(0.3012730015 0.248503895 1.084202172e-19) 383
(0.3033077626 0.2753279685 2.710505431e-20) 533
(0.2808199623 0.2219745456 -2.168404345e-19) 260
(0.2921136706 0.2552055302 -2.168404345e-19) 412
(0.3008377071 0.219295621 -1.626303259e-19) 233
(0.2907963473 0.2667278239 -6.505213035e-19) 502
(0.2820911359 0.2698220916 -1.084202172e-19) 501
(0.2768830474 0.2073850665 -5.421010862e-20) 170
(0.2725102265 0.2798201197 2.710505431e-20) 559
(0.2959123809 0.1946682846 0) 82
(0.2853943639 0.1964289973 -2.57498016e-19) 111
(0.2964592483 0.2358161605 0) 322
(0.278636192 0.2643584049 2.710505431e-19) 470
(0.2954020274 0.2723554835 2.168404345e-19) 502
(0.2987810139 0.2654303835 1.084202172e-19) 473
(0.2801641408 0.2299553395 2.168404345e-19) 290
(0.2642131549 0.2603743077 2.168404345e-19) 468
(0.2997898118 0.2771308119 -2.168404345e-19) 533
(0.2721237771 0.2018439596 -1.084202172e-19) 139
(0.2724509187 0.2468991298 0) 379
(0.294599462 0.2152515631 3.252606517e-19) 202
(0.3014809916 0.262537699 -4.33680869e-19) 473
(0.2983614185 0.2749622291 2.168404345e-19) 533
(0.2962983173 0.2806948671 -1.698301059e-19) 562
(0.2900818407 0.2340223243 -1.626303259e-19) 322
(0.2814118956 0.2678225271 0) 500
(0.2986018018 0.2688661999 -4.33680869e-19) 503
(0.2877268731 0.2190627462 -2.710505431e-20) 231
(0.2748348962 0.2448341934 2.168404345e-19) 380
(0.293336151 0.2565941643 -1.592421941e-19) 442
(0.297037716 0.233893926 4.33680869e-19) 322
(0.2870422802 0.2040155273 -3.252606517e-19) 141
(0.2835447736 0.2504933175 0) 411
(0.2982027262 0.2038650934 9.486769009e-20) 143
(0.2836201237 0.2158559115 1.084202172e-19) 201
(0.3025398478 0.2572258345 0) 443
(0.3030316341 0.2498782289 4.33680869e-19) 383
(0.2551613874 0.2818702374 -2.168404345e-19) 557
(0.3004504258 0.2777564638 -2.168404345e-19) 533
(0.2822046323 0.2210152304 2.168404345e-19) 231
(0.3023747919 0.2368521497 8.131516294e-20) 323
(0.273455044 0.1895767351 0) 79
(0.2888447939 0.2637072238 1.355252716e-20) 471
(0.2874769317 0.2439953099 0) 351
(0.2751323285 0.1946503653 0) 110
(0.2851414268 0.2180829182 5.421010862e-20) 231
(0.2829487087 0.2044271252 -5.421010862e-20) 141
(0.2978664281 0.180869755 0) 32
(0.2973193474 0.2089759766 0) 173
(0.2935214234 0.2274965349 -1.490777987e-19) 262
(0.2208734292 0.2070098353 0) 192
(0.2933071298 0.2307524377 0) 292
(0.2312079479 0.2592438083 -4.33680869e-19) 464
(0.2924671288 0.2399408259 1.084202172e-19) 352
(0.2789617452 0.1916418004 -1.626303259e-19) 80
(0.2409588207 0.2426595531 -2.168404345e-19) 375
(0.2987017096 0.2488618694 0) 383
(0.283162817 0.2585035063 2.168404345e-19) 441
(0.2533395517 0.2005837362 2.168404345e-19) 137
(0.2936416665 0.1929521927 2.710505431e-20) 82
(0.2870715347 0.2634375332 1.626303259e-19) 471
(0.2879314151 0.1947674502 -6.505213035e-19) 111
(0.281462042 0.2130883415 6.505213035e-19) 200
(0.2931835372 0.2886993456 0) 592
(0.3028415888 0.292766849 0) 623
(0.2439343575 0.2196002153 -2.168404345e-19) 256
(0.2883196449 0.1820096934 0) 30
(0.2853345855 0.2619598319 5.421010862e-19) 471
(0.3015917496 0.247483182 3.794707604e-19) 383
(0.2994472922 0.247313836 -1.084202172e-19) 383
(0.2658829184 0.1892630106 2.168404345e-19) 78
(0.2887806931 0.278441513 2.168404345e-19) 561
(0.2918651869 0.195404356 1.084202172e-19) 112
(0.2915440484 0.2254884112 -5.421010862e-20) 262
(0.2601659822 0.2671258917 1.084202172e-19) 498
(0.262479843 0.2633353568 -2.710505431e-19) 468
(0.2920306611 0.2198939815 2.439454888e-19) 232
(0.2895257458 0.2183366547 -1.084202172e-19) 231
(0.2802522728 0.2663648884 0) 500
(0.2963883884 0.2021757008 0) 142
(0.2924573394 0.2944327962 -4.33680869e-19) 622
(0.2807013332 0.2373071028 -2.168404345e-19) 320
(0.2964118733 0.2010697846 0) 142
(0.2661674044 0.2950991973 0) 648
(0.2930405895 0.2361834947 -1.490777987e-19) 322
(0.3016497995 0.2082689339 0) 173
(0.2795663129 0.2433748312 4.33680869e-19) 350
(0.2925537076 0.2128329453 3.794707604e-19) 202
(0.3034094408 0.2796263588 0) 563
(0.2756221991 0.2277977467 0) 290
(0.2412016807 0.2216865575 -4.33680869e-19) 255
(0.2850018318 0.218425455 1.253608762e-19) 231
(0.2691139114 0.28817335 4.33680869e-19) 589
(0.2992855814 0.1875667941 2.981555974e-19) 54
(0.266650257 0.1873725923 -1.084202172e-19) 78
(0.2791993527 0.2245328599 0) 260
(0.2747023655 0.2386521626 5.421010862e-20) 350
(0.273754502 0.221831162 4.33680869e-19) 259
(0.2725868566 0.2753351647 -2.168404345e-19) 529
(0.2842136736 0.2711589653 1.084202172e-19) 501
(0.2761066187 0.2367220148 -1.897353802e-19) 320
(0.2873065934 0.2064393683 -2.168404345e-19) 171
(0.2957783178 0.1794853156 0) 31
(0.2894412932 0.2159908816 4.33680869e-19) 201
(0.2335896673 0.2668216245 -5.421010862e-20) 494
(0.2871606075 0.2774767938 -5.421010862e-19) 531
(0.2593956049 0.2231842064 -1.084202172e-19) 258
(0.2792049437 0.2770907712 -1.084202172e-19) 530
(0.2955693656 0.2672394557 0) 502
(0.2588510372 0.2034980389 2.168404345e-19) 167
(0.2774425072 0.2406588885 -1.084202172e-19) 350
(0.2885701627 0.2427619983 -2.168404345e-19) 351
(0.2997440105 0.1957407851 1.084202172e-19) 113
(0.2918677347 0.2028256582 1.084202172e-19) 142
(0.2763084965 0.2063380193 2.168404345e-19) 170
(0.2884859367 0.2278604095 -2.168404345e-19) 291
(0.2623376173 0.2504677339 -1.626303259e-19) 408
(0.2880495144 0.2788217239 0) 561
(0.2620922953 0.1816834714 6.776263578e-21) 49
(0.2623864481 0.2635163278 1.626303259e-19) 468
(0.2625208553 0.2506578772 8.131516294e-20) 408
(0.296476392 0.2229816445 0) 262
(0.2624215954 0.1746849051 -1.084202172e-19) 27
(0.2879198728 0.27943462 -2.168404345e-19) 561
(0.2536495502 0.245784564 -3.252606517e-19) 377
(0.2451253058 0.2353991291 -2.168404345e-19) 316
(0.3001863102 0.2765615572 1.084202172e-19) 533
(0.2724532498 0.2185132674 0) 229
(0.2782425475 0.2729842163 0) 530
(0.3028914269 0.2745098925 -3.252606517e-19) 533
(0.2724548227 0.2248039674 0) 259
(0.2982964239 0.2210254791 6.505213035e-19) 233
(0.2884279667 0.2020853047 -5.421010862e-20) 141
(0.2891973201 0.212612593 0) 201
(0.2737095157 0.2094325231 4.33680869e-19) 199
(0.2765512951 0.2845700604 -1.084202172e-19) 590
(0.3021745608 0.2337559972 0) 293
(0.2778958356 0.2711531398 -4.33680869e-19) 500
(0.2945749176 0.2270314248 0) 262
(0.2613063698 0.2135969828 2.168404345e-19) 198
(0.2967460722 0.2797088635 1.084202172e-19) 562
(0.2999084141 0.2869376767 -3.252606517e-19) 593
(0.3011410462 0.2893817859 0) 623
(0.2833538315 0.2558820747 0) 441
(0.2809989082 0.2737857952 1.084202172e-19) 530
(0.2704765237 0.225955317 -4.33680869e-19) 259
(0.3033314183 0.2451532124 -2.168404345e-19) 353
(0.2835695472 0.2889004572 0) 621
(0.2876897151 0.2900826427 -2.168404345e-19) 621
(0.294787251 0.2302103798 -2.168404345e-19) 292
(0.2879779311 0.2110005377 0) 201
(0.2840653627 0.2344404085 1.965116438e-19) 321
(0.2761667888 0.2064497913 1.084202172e-19) 170
(0.24939429 0.2559876936 1.355252716e-19) 436
(0.2917326514 0.2101861884 3.794707604e-19) 172
(0.2580548736 0.277800771 -4.33680869e-19) 557
(0.2954181381 0.2850590698 1.084202172e-19) 592
(0.2442030508 0.283169709 1.626303259e-19) 586
(0.2895942558 0.2316414198 -1.084202172e-19) 292
(0.2622137216 0.1929181175 -1.084202172e-19) 108
(0.2895443134 0.2357359848 5.421010862e-20) 321
(0.2954981992 0.2209279326 -2.168404345e-19) 232
(0.2984539643 0.2343482272 2.168404345e-19) 323
(0.2703869531 0.2730185615 -1.355252716e-20) 529
(0.2359274953 0.1890116889 -2.168404345e-19) 104
(0.2583145653 0.2023659446 0) 167
(0.3010888436 0.2702861535 -4.743384505e-20) 503
(0.2804278177 0.2154751845 -2.168404345e-19) 200
(0.3008614547 0.1993397637 3.252606517e-19) 113
(0.268110607 0.192749909 1.151964808e-19) 109
(0.2933253412 0.1700619567 3.930232875e-19) 4
(0.2855230033 0.2845388074 -1.897353802e-19) 591
(0.2624132133 0.2891054983 -4.878909776e-19) 618
(0.3029314425 0.2760174744 -2.168404345e-19) 533
(0.3029903587 0.2848665979 0) 593
(0.292937268 0.2058307582 6.505213035e-19) 142
(0.2552515253 0.2097669282 6.860966873e-20) 197
(0.2869952471 0.2598198582 -7.589415207e-19) 441
(0.2893141843 0.2204253777 4.33680869e-19) 231
(0.2088976454 0.2469130728 -3.794707604e-19) 401
(0.2498452223 0.2270783778 -1.897353802e-19) 286
(0.3025890942 0.1993724735 2.168404345e-19) 113
(0.2625290033 0.1965308163 -4.33680869e-19) 108
(0.2997802118 0.2643964895 1.626303259e-19) 473
(0.2917938621 0.2174614078 -3.252606517e-19) 232
(0.2684543111 0.2688418645 5.421010862e-20) 499
(0.245799456 0.2298193066 0) 316
(0.289228476 0.240732497 -2.168404345e-19) 351
(0.2797573297 0.2086109469 3.252606517e-19) 170
(0.2780436288 0.2026010166 -2.168404345e-19) 140
(0.3011361346 0.2196601395 2.168404345e-19) 233
(0.2878899114 0.2604700747 2.168404345e-19) 441
(0.2883822251 0.2617747746 0) 471
(0.2929259121 0.2890211003 -1.084202172e-19) 622
(0.2591037587 0.2335798633 0) 318
(0.2830982245 0.2793000934 0) 561
(0.2485555181 0.1868980788 -2.168404345e-19) 76
(0.2971389837 0.181265277 -2.981555974e-19) 31
(0.2841875659 0.2350963139 -3.794707604e-19) 321
(0.2938971617 0.2192678731 -5.421010862e-20) 232
(0.2998433439 0.2215729908 2.710505431e-19) 233
(0.2522866704 0.2504900602 0) 407
(0.3001266291 0.1793455493 2.710505431e-19) 32
(0.2811070537 0.2106912701 -2.168404345e-19) 200
(0.298062021 0.2085438741 -2.168404345e-19) 173
(0.2461308376 0.2587062031 0) 436
(0.2696787905 0.2139383715 -2.168404345e-19) 199
(0.2960245126 0.2510496305 0) 412
(0.2631056837 0.2219593675 1.084202172e-19) 258
(0.2584193776 0.1892007613 -2.168404345e-19) 77
(0.2697621359 0.2506257085 -5.421010862e-20) 409
(0.2754217457 0.2166687111 1.084202172e-19) 230
(0.2950944502 0.2675220285 -2.168404345e-19) 502
(0.285763479 0.1957214904 -1.084202172e-19) 111
(0.2950291256 0.2088424539 -1.355252716e-19) 172
(0.2693237341 0.2838132754 -1.084202172e-19) 589
(0.3012392963 0.1739211255 0) 16
(0.2895422996 0.2797948399 1.084202172e-19) 561
(0.2694524313 0.2332905043 -1.084202172e-19) 319
(0.2867087554 0.2273894921 -1.084202172e-19) 261
(0.2967725787 0.2256109228 0) 262
(0.2134047354 0.2230235699 0) 282
(0.3045075111 0.2709756479 0) 503
(0.3013260068 0.2450922203 -2.710505431e-20) 353
(0.259086376 0.1849620373 -8.131516294e-20) 78
(0.2895513619 0.2467855777 -5.421010862e-20) 381
(0.2902700231 0.2905632466 -1.084202172e-19) 622
(0.2831167294 0.1943008615 0) 111
(0.2835955011 0.2447549987 2.168404345e-19) 381
(0.2625815787 0.2656617744 8.131516294e-20) 498
(0.2516396806 0.2757894068 2.168404345e-19) 527
(0.2928954464 0.2675980008 -5.963111949e-19) 502
(0.2863930115 0.2447189896 4.33680869e-19) 381
(0.2594553941 0.2695821085 0) 498
(0.2926441182 0.2339125813 0) 322
(0.2480659674 0.2066795509 -4.33680869e-19) 196
(0.253950495 0.2021325027 -1.084202172e-19) 167
(0.2827395217 0.2449327061 1.084202172e-19) 381
(0.2932149767 0.2396147719 2.710505431e-19) 352
(0.2515953418 0.2020237097 -1.084202172e-19) 167
(0.2493276503 0.2940542951 1.084202172e-19) 616
(0.2927597768 0.2318670591 1.084202172e-19) 292
(0.2651432485 0.2339525406 -3.252606517e-19) 318
(0.2624140417 0.2599384303 -3.794707604e-19) 468
(0.2762346793 0.205180568 -2.168404345e-19) 170
(0.2788331892 0.2120284596 -6.505213035e-19) 200
(0.2780714206 0.1954981886 1.355252716e-19) 110
(0.2844547186 0.2220485934 0) 261
(0.2807990472 0.2048455196 -2.168404345e-19) 170
(0.2714721527 0.2535668293 1.084202172e-19) 409
(0.2788418692 0.2529207714 5.421010862e-20) 410
(0.2538390021 0.2553428416 -1.084202172e-19) 437
(0.2579317941 0.1913751814 -4.33680869e-19) 107
(0.2649272211 0.2372709198 0) 348
(0.2937464967 0.2409098005 5.421010862e-19) 352
(0.2686213875 0.2184710695 0) 229
(0.244979639 0.2037818853 0) 166
(0.2996144225 0.2723452255 2.168404345e-19) 503
(0.26285869 0.2856573925 0) 588
(0.2790733248 0.2774696125 -4.33680869e-19) 530
(0.2670856618 0.216222241 -4.33680869e-19) 229
(0.2646971735 0.2192220932 0) 228
(0.2379832013 0.2037501119 -3.252606517e-19) 165
(0.3003457634 0.2228122896 6.505213035e-19) 233
(0.2981804741 0.2511064725 2.168404345e-19) 413
(0.2720485387 0.1809245936 0) 50
(0.3042123263 0.2237783756 4.33680869e-19) 263
(0.2881288919 0.2872063037 2.168404345e-19) 591
(0.2659109674 0.2162395039 -4.33680869e-19) 228
(0.2990235726 0.269839889 -7.453889936e-20) 503
(0.2949202178 0.2333196548 -1.084202172e-19) 292
(0.2716353614 0.20350914 0) 169
(0.2933766832 0.2026147995 0) 142
(0.290664784 0.2084484153 -2.913793339e-19) 172
(0.2351673512 0.1883494084 0) 104
(0.2360998807 0.2045606382 0) 164
(0.2809846759 0.2043791283 4.33680869e-19) 140
(0.2825892335 0.2339581591 1.084202172e-19) 321
(0.2671102036 0.207161423 2.168404345e-19) 169
(0.2547452211 0.2612447824 3.252606517e-19) 467
(0.2404308352 0.2106856732 2.981555974e-19) 195
(0.2828820454 0.2008584923 1.084202172e-19) 141
(0.2763967135 0.2799717408 0) 560
(0.2341408318 0.2107268583 0) 194
(0.300869001 0.2330621897 2.168404345e-19) 293
(0.2773565126 0.2672442243 5.421010862e-20) 500
(0.259222563 0.1944893506 4.33680869e-19) 108
(0.2263312636 0.1809300483 0) 73
(0.282624281 0.239972788 2.168404345e-19) 351
(0.2417099818 0.2681075251 2.168404345e-19) 495
(0.2883082743 0.2204397421 -2.168404345e-19) 231
(0.2757711678 0.2132909201 2.168404345e-19) 200
(0.2614139897 0.2621963466 -1.084202172e-19) 468
(0.2670257713 0.2493546491 -5.421010862e-20) 409
(0.2743490493 0.1851155846 -2.168404345e-19) 51
(0.2860325965 0.1854925951 -7.792703115e-20) 52
(0.2671987962 0.2227155395 2.168404345e-19) 259
(0.275499227 0.2217470008 -1.389134033e-19) 260
(0.2714256365 0.2392658053 -1.084202172e-19) 349
(0.2902256572 0.2030507527 -2.710505431e-20) 142
(0.2652331888 0.2170896505 0) 228
(0.2715391865 0.2567435453 0) 439
(0.2706493637 0.1950672227 4.065758147e-20) 109
(0.2607899475 0.2464070451 3.252606517e-19) 378
(0.2790888001 0.2414718842 -1.084202172e-19) 350
(0.2865798147 0.1968002071 5.421010862e-20) 111
(0.2710188205 0.2150407534 0) 229
(0.294230572 0.2166445177 -5.421010862e-20) 202
(0.271881201 0.1877562719 2.168404345e-19) 79
(0.3004335651 0.2511561297 -1.084202172e-19) 413
(0.2664488602 0.2385131589 -2.168404345e-19) 348
(0.2852416089 0.1994371541 -5.421010862e-20) 141
(0.298498753 0.2054908332 2.168404345e-19) 143
(0.2774414824 0.2092209964 -4.33680869e-19) 170
(0.3033731909 0.2366452242 3.252606517e-19) 323
(0.2849627596 0.2867172251 -4.607859233e-19) 591
(0.2945407404 0.2037003999 1.084202172e-19) 142
(0.2844399007 0.1840724987 0) 52
(0.2924480598 0.257507924 -5.421010862e-19) 442
(0.287024761 0.2145240641 1.084202172e-19) 201
(0.255947848 0.2060039843 2.710505431e-19) 167
(0.2699437756 0.273867592 -2.168404345e-19) 529
(0.291035433 0.2709492599 -2.168404345e-19) 502
(0.2775963698 0.2152099353 -2.168404345e-19) 200
(0.251797818 0.204389621 2.168404345e-19) 167
(0.2831195447 0.2723186856 0) 531
(0.2462172588 0.2410534537 4.33680869e-19) 346
(0.3034558399 0.2519902328 -2.168404345e-19) 413
(0.2764384505 0.2750430483 0) 530
(0.2913153505 0.2873870428 2.168404345e-19) 592
(0.2742253406 0.234565447 2.168404345e-19) 319
(0.2924732018 0.2354533219 1.084202172e-19) 322
(0.3043424521 0.1883598045 2.168404345e-19) 54
(0.2620794845 0.2015280681 0) 138
(0.2650652363 0.2324518394 0) 318
(0.2991015976 0.2762031422 0) 533
(0.2702951494 0.2594322475 4.33680869e-19) 439
(0.2756067542 0.2656542054 3.794707604e-19) 470
(0.2585695936 0.2751157632 0) 527
(0.2739074133 0.2189578667 4.33680869e-19) 229
(0.262393682 0.2217221724 1.084202172e-19) 258
(0.278905359 0.2216992974 2.168404345e-19) 260
(0.3046244703 0.25458688 4.33680869e-19) 413
(0.26637797 0.2802900966 0) 558
(0.2839475383 0.2913112675 2.168404345e-19) 621
(0.2910967417 0.2363261346 6.776263578e-20) 322
(0.2881435687 0.2094447065 0) 171
(0.2756660601 0.1931429835 -2.168404345e-19) 110
(0.3031678595 0.2228561892 0) 233
(0.3024641309 0.2221194932 5.421010862e-19) 233
(0.2924832469 0.1954309402 5.421010862e-20) 112
(0.2948959022 0.2117748959 4.33680869e-19) 202
(0.2685994419 0.1764858999 -5.421010862e-20) 28
(0.2833838469 0.2934044918 7.453889936e-20) 621
(0.2790804801 0.2002112505 0) 140
(0.2677375523 0.2117202804 2.710505431e-20) 199
(0.3020214858 0.2676787967 -4.33680869e-19) 503
(0.2857593437 0.2021871432 -4.065758147e-20) 141
(0.3023671494 0.2198904675 4.33680869e-19) 233
(0.2762223595 0.2565358576 -1.084202172e-19) 440
(0.283334072 0.2279621354 2.168404345e-19) 291
(0.3013510702 0.2771861424 -4.065758147e-19) 533
(0.2800225261 0.255682815 -2.168404345e-19) 440
(0.258732112 0.1840172314 4.33680869e-19) 48
(0.2584513674 0.2974553797 -4.33680869e-19) 647
(0.2846192724 0.2514400474 -4.33680869e-19) 411
(0.2889052211 0.2739451513 1.084202172e-19) 531
(0.2991602719 0.2916679679 0) 623
(0.2807308486 0.2713667424 0) 500
(0.2994614715 0.1848492987 -1.084202172e-19) 54
(0.2881633235 0.1913335478 -2.032879073e-20) 81
(0.2647215808 0.2967850222 0) 648
(0.2949835568 0.2733048416 -2.168404345e-19) 532
(0.2878534217 0.293727407 6.505213035e-19) 621
(0.2928075991 0.2204340735 -5.421010862e-20) 232
(0.3027533272 0.2370347976 -1.727947212e-19) 323
(0.292160805 0.2355868986 -1.355252716e-19) 322
(0.288083215 0.191401355 -2.168404345e-19) 81
(0.2562576569 0.2295948679 7.589415207e-19) 287
(0.2680614515 0.2617989869 0) 469
(0.2911791362 0.2738483549 -1.084202172e-19) 532
(0.278956206 0.2558533838 -2.168404345e-19) 440
(0.2815053035 0.2081091121 -2.168404345e-19) 170
(0.2847708501 0.2434272653 -2.168404345e-19) 351
(0.3026758525 0.2246020747 0) 263
(0.2905530574 0.1963452468 2.168404345e-19) 112
(0.2678325765 0.2090474204 0) 199
(0.2763278753 0.2185136664 2.710505431e-19) 230
(0.2799069817 0.2192419606 2.168404345e-19) 230
(0.3024445134 0.2149190907 0) 203
(0.2876867996 0.2600819264 2.168404345e-19) 441
(0.2588674012 0.2870631408 0) 587
(0.2738754775 0.2572478357 -2.168404345e-19) 439
(0.2866994039 0.2835217502 2.168404345e-19) 591
(0.278680717 0.2681636865 1.084202172e-19) 500
(0.2811937038 0.2299033285 4.33680869e-19) 290
(0.2841885559 0.2161221211 -6.505213035e-19) 231
(0.2784619583 0.2380094904 1.897353802e-19) 320
(0.3000569238 0.2140728502 0) 203
(0.2661356683 0.1817205831 0) 49
(0.2580440305 0.1830241812 2.168404345e-19) 48
(0.2617833445 0.2214084943 -1.084202172e-19) 258
(0.240021184 0.2296764413 -2.075230721e-19) 315
(0.2836191779 0.2645990914 3.252606517e-19) 471
(0.2871238246 0.1967095982 -1.355252716e-20) 111
(0.2503931911 0.2924341408 2.168404345e-19) 616
(0.2726048319 0.2217294043 0) 259
(0.2381036576 0.1794915986 0) 46
(0.2771445581 0.2428471341 -2.168404345e-19) 350
(0.2979107826 0.2334219245 3.917527381e-21) 293
(0.2705364771 0.2145151537 -2.879912021e-20) 199
(0.3000516759 0.2776446544 0) 533
(0.2800986969 0.2534526025 0) 410
(0.2564012879 0.261153541 -1.084202172e-19) 467
(0.2576729775 0.2461086901 0) 377
(0.2812578882 0.2565469154 0) 440
(0.2809791422 0.2924329896 0) 620
(0.3015004238 0.2214584513 1.084202172e-19) 233
(0.2652576326 0.180532047 0) 49
(0.3008983397 0.2960256676 -1.084202172e-19) 653
(0.2251401018 0.2212496213 1.897353802e-19) 253
(0.300580403 0.1674362812 4.33680869e-19) 0
(0.2616311661 0.2635976314 -2.710505431e-20) 468
(0.29002414 0.2699663866 -1.084202172e-19) 502
(0.2985974346 0.2602753863 0) 443
(0.2466579087 0.1857221377 1.626303259e-19) 76
(0.2699315331 0.2721704588 2.168404345e-19) 529
(0.2735316559 0.1988997811 6.505213035e-19) 139
(0.2619836254 0.2294374884 2.168404345e-19) 288
(0.2579271161 0.1888899627 0) 77
(0.2728553857 0.1753847955 0) 28
(0.2533323976 0.2041026719 -2.168404345e-19) 167
(0.2397400558 0.2275529556 3.252606517e-19) 285
(0.2821070368 0.2507194246 0) 411
(0.2656090867 0.2338184678 1.084202172e-19) 318
(0.2711188308 0.2733957949 0) 529
(0.301646356 0.2739502428 0) 533
(0.2862413034 0.1967705597 -5.421010862e-20) 111
(0.2713385969 0.2001921978 5.421010862e-20) 139
(0.2780150596 0.2063129066 1.490777987e-19) 170