/*--------------------------------*- C++ -*----------------------------------*\
| =========                 |                                                 |
| \\      /  F ield         | OpenFOAM: The Open Source CFD Toolbox           |
|  \\    /   O peration     | Version:  2406                                  |
|   \\  /    A nd           | Website:  www.openfoam.com                      |
|    \\/     M anipulation  |                                                 |
\*---------------------------------------------------------------------------*/
FoamFile
{
    version     2.0;
    format      ascii;
    arch        "LSB;label=32;scalar=64";
    class       vectorField;
    location    "0.001/lagrangian/dsmc";
    object      U;
}
// * * * * * * * * * * * * * * * * * * * * * * * * * * * * * * * * * * * * * //


6199
(
(929.7023826 333.0590643 -1127.200034)
(926.5184896 -689.8175402 291.1531065)
(2132.91826 356.9864426 208.1746232)
(1246.428834 163.2319433 26.51851851)
(1765.499116 198.1598112 -280.863394)
(1341.565928 251.1974113 -330.2467923)
(1956.690337 934.7203213 483.730844)
(1919.359813 -198.2743607 -6.656220005)
(1012.496095 346.273648 146.2475767)
(1343.421495 444.169118 -20.24551152)
(1629.709998 -193.9229611 251.4287234)
(994.6449343 282.8288797 564.1435668)
(1451.542533 -312.2307257 -122.3685885)
(1177.734968 -293.3062276 -88.77122747)
(1711.685753 758.2111572 7.454613999)
(1181.451702 404.1861759 460.7731485)
(329.229237 85.85736255 42.98245684)
(1302.975758 650.3668789 -20.5732932)
(1297.344308 372.1856808 -324.7684583)
(1167.40778 446.0289578 -52.48498585)
(1333.927819 -32.96819298 824.1842905)
(1103.076491 660.4792563 -189.6218507)
(1358.248744 223.5678626 -985.9703544)
(893.3014711 -92.2655077 93.20088048)
(1183.455216 -408.7121675 596.31803)
(714.7186613 274.1845141 -526.4309788)
(779.4847876 1354.158342 -326.7869386)
(983.952582 1149.944268 89.1208163)
(752.1998325 628.6184197 247.4003235)
(1122.350635 853.0270998 481.0956341)
(1072.930632 -2.767095702 -386.0400006)
(1291.293578 815.8832552 -500.8229224)
(913.6025562 87.50114323 506.066479)
(1244.151882 -246.4917655 -333.7029398)
(1753.505717 192.8778642 300.224338)
(754.3568316 954.3581217 478.7573536)
(819.9980905 450.9358756 96.73848986)
(1467.686551 681.7104158 373.5465037)
(1633.076338 563.8200962 -160.2488171)
(1229.518187 -141.0987043 228.9743459)
(1855.930592 385.0288359 146.9798226)
(921.123006 228.2602763 369.7400987)
(1530.754589 693.8824525 541.9974774)
(1680.197207 150.276328 -29.00250435)
(1238.122128 -335.8463394 -221.2208229)
(1835.058273 206.7554156 -119.25919)
(1377.923216 280.4943652 -26.50420613)
(1400.972907 159.9150035 -159.2789758)
(1879.322413 452.5312026 -9.16646338)
(1770.230293 498.4468887 85.30231945)
(1015.472481 875.3787652 -644.9973593)
(1011.334641 344.4137323 -714.7258739)
(1489.595509 -279.8362455 -1028.492482)
(1134.590927 223.3038589 22.39896105)
(1221.443422 4.333984445 -951.9747345)
(926.7371029 816.0078589 -56.6640637)
(1338.312475 -346.1224873 -703.5537766)
(1044.254665 -55.65263706 46.81586823)
(1154.864085 -94.02268307 -357.4264409)
(1328.361114 -47.52821336 719.0192254)
(1442.081078 253.2543432 -661.3657628)
(1423.691314 -7.164276705 -53.62860957)
(826.425368 49.66588986 382.6265986)
(1291.971864 212.6062923 -251.4667778)
(1141.814456 41.98189259 719.6870242)
(1153.643737 586.1293279 739.8872863)
(1605.090213 23.54627006 -20.12847266)
(1186.392903 -9.252622447 642.3786492)
(1295.497293 297.3845029 -93.08201844)
(1259.612094 404.3475027 51.61509551)
(2003.804641 167.2899079 -570.4819138)
(1824.720306 580.2588175 201.0988492)
(1522.045751 -374.0239033 -499.2666596)
(1628.854674 366.9213146 355.9725635)
(882.0084001 376.4593886 145.4535563)
(1854.041296 15.86005852 303.8380016)
(914.1250016 179.2577054 -136.5648568)
(1174.995068 533.6205358 -390.6531047)
(1795.749853 170.3020753 -31.95663634)
(1371.791775 -637.6060212 189.8251142)
(1827.774474 933.9396126 101.5936318)
(1876.045216 -335.7598282 -188.776269)
(1233.492178 110.6858819 39.47697913)
(1480.795823 75.66055763 -545.8781202)
(508.698539 -245.7725932 527.1998874)
(1788.898663 195.6079721 -187.9661521)
(1364.850841 -173.4988276 69.4910925)
(1918.158047 140.1270387 -424.7262924)
(1115.21245 104.9147528 -21.68532536)
(1550.816757 159.094605 71.63346097)
(1339.138038 584.7788892 417.416432)
(1720.265759 1113.997256 -93.85905159)
(1708.489838 -47.62989749 483.7054618)
(983.675493 544.8974374 -869.0316052)
(1402.709357 216.6901969 -41.71572248)
(1430.811524 912.6248344 -532.2635855)
(1607.48511 -594.0463077 -99.80981167)
(2259.228446 -463.2965056 72.32327714)
(1021.767776 50.16595543 135.5764174)
(1485.416322 -545.6411613 195.713883)
(626.3261185 850.0887782 -161.7760054)
(1281.504812 -286.2330585 -691.5997333)
(1331.149004 874.8424848 275.7172964)
(1772.33228 -41.83952124 -140.1054029)
(1110.960463 174.963462 239.9369821)
(1419.653318 -322.3410595 32.42012371)
(2253.469094 333.0710614 345.8023541)
(1049.542375 159.1096709 780.6998583)
(1200.432216 107.2468717 -447.3536988)
(1471.949249 -96.2854891 -215.2127831)
(863.3835848 -5.870970038 887.7855997)
(1390.564939 -43.56770117 -197.975666)
(1602.030813 41.93116484 -403.0153217)
(1218.156942 615.9998035 101.4439803)
(1532.838827 14.43504533 -130.5023915)
(2061.671679 -10.75995716 -383.4021731)
(1318.426274 80.89054842 -190.6812857)
(609.8286507 1143.245002 292.5026611)
(915.9067855 250.6910991 263.6011582)
(1394.760472 217.0317773 286.2026945)
(1727.240455 320.6381645 -108.56729)
(1587.296577 60.78673534 -9.39583739)
(1348.115117 348.8630749 -201.6813497)
(1603.256475 198.7065675 -38.24214116)
(1819.232567 789.9593762 -140.5178581)
(1165.896738 275.8680512 319.8957463)
(1575.098354 -381.672317 395.5475835)
(1230.682176 989.9578828 205.155253)
(971.5090336 299.3760586 440.9578981)
(2247.077375 722.0706029 741.1393581)
(1647.282846 1303.187419 308.7301421)
(1967.705542 626.1453853 -496.677136)
(789.6451643 232.8101029 4.903798311)
(803.0374851 861.7074742 32.07136003)
(1210.522742 18.51123434 254.7538503)
(1724.794811 445.555929 417.9123694)
(1849.614531 -190.2403196 123.7121378)
(1965.138131 115.933025 -415.8659632)
(1127.285337 297.833574 -840.9881292)
(1931.718874 -208.5253327 -158.1778383)
(681.6909123 1288.175311 -274.2823737)
(404.2184127 739.2802016 -64.6524492)
(1222.219876 565.8201274 35.18557094)
(1290.281225 379.7228755 -196.1468384)
(1383.791599 -174.8876954 390.9886479)
(1640.363715 267.8419785 -381.8437046)
(1737.145953 -88.18978821 269.4567347)
(1762.792551 -189.9877456 372.0839346)
(1508.038773 -396.5982003 -93.57986468)
(1560.128269 636.72379 771.6437119)
(1324.474866 -63.61198682 -117.3649973)
(1656.192944 313.7080251 -870.3813271)
(1748.608367 164.9411164 -547.457108)
(1341.430085 122.6916757 289.2748431)
(1704.13636 -178.8174075 -309.9026142)
(1156.826799 177.5412864 -708.6983081)
(1495.886595 -185.4662099 -117.061366)
(1422.076364 342.2736584 155.6407922)
(1937.221094 819.2084108 -12.01315351)
(1712.830674 286.6052235 396.1910828)
(1738.553427 96.75318158 -182.5058416)
(1886.88151 188.3004182 457.3054029)
(1121.639809 -178.9886047 63.80453252)
(862.5651925 -179.0173296 -173.4432526)
(1137.637752 -194.9440881 -134.8226485)
(1375.931534 496.6748939 317.6703867)
(1030.778103 2.543015592 -64.7198662)
(1123.085798 -221.5558385 283.7402585)
(1600.459956 -93.2800153 3.150377888)
(1377.448915 294.6051992 501.3446754)
(814.1925654 236.2149027 -51.93908748)
(1270.027448 -171.9164067 70.18839276)
(1998.004975 884.6819055 -62.46989129)
(1117.583949 382.8494529 523.2767645)
(948.5807085 -193.9253746 34.47068409)
(2065.250936 -0.708383193 302.4906962)
(1103.656756 422.012147 447.2669617)
(2133.925761 -160.5196227 -373.7600053)
(1734.200933 -12.74206161 -298.7310721)
(1535.489963 728.3894209 486.0256271)
(1336.39777 85.35831204 -549.610475)
(1892.385055 59.51501713 -7.625770439)
(1574.445668 62.66252501 342.5236526)
(1534.387565 567.6184213 -50.57939638)
(998.9654757 -148.8756299 688.452406)
(1982.434841 585.1439834 40.39633379)
(1891.222974 203.1042887 165.4807873)
(2101.634108 429.1889027 -395.591112)
(721.8108599 383.8326662 -388.3878923)
(1320.67118 322.7417778 -503.9328889)
(1705.438985 141.0247951 462.1622788)
(1514.352211 -51.12338224 250.2962049)
(1620.64841 586.243509 -98.53060976)
(1541.798746 786.8587351 23.94573955)
(1056.376019 89.96411952 178.6548696)
(1143.74752 178.7024772 -911.8047769)
(2000.358619 145.8161227 160.2154227)
(1498.863814 3.863868499 30.740822)
(1467.002852 -462.6902696 64.81467603)
(1611.469634 301.8869211 498.4501783)
(912.734555 154.832793 163.230061)
(1859.132371 -14.80223461 -406.7781676)
(1230.111041 561.6236775 -32.26453934)
(1712.461262 364.6235418 228.6516223)
(1444.923724 -275.8179957 -62.55428836)
(1057.379952 204.0360808 249.1697381)
(771.8210288 -100.0341481 -94.1016924)
(1239.435737 140.0551799 483.6536769)
(1652.492203 138.0822759 202.5740086)
(1476.64067 1120.466273 -342.8205909)
(1513.445539 -187.6599554 466.1100718)
(1508.720346 270.6490885 399.0785467)
(1538.003456 -152.5425225 743.541822)
(1868.739895 -452.1131246 -35.61802565)
(1701.32166 -258.7071426 73.18432546)
(1368.176571 34.05176129 231.815112)
(1894.794671 -135.1710079 302.4754844)
(1498.302461 -101.4529586 75.27601703)
(1737.459771 -45.13110151 -274.9181226)
(887.9372627 566.2915281 -1.522126935)
(1600.721372 33.69694475 -156.8262719)
(1998.666462 -95.81779367 640.4839035)
(2490.716522 2.317695821 -95.9742989)
(1207.40635 522.7330684 619.0110119)
(1468.645465 54.34283286 -212.8402766)
(1573.107808 241.7856199 -110.8898663)
(1883.654443 -7.241829494 160.1581686)
(1544.565699 -130.6634715 73.33198687)
(1328.954821 197.1270979 415.1741049)
(1360.152515 -556.0672969 3.293463201)
(1339.434033 45.07504531 -82.42653639)
(1734.237144 119.3142311 27.44916792)
(918.3454907 798.397822 384.3385439)
(1642.925952 -141.9760163 -125.9048514)
(1495.988576 10.81928991 225.3933718)
(1111.903848 260.8337823 -946.3789304)
(2008.237173 353.7575806 155.4443707)
(1826.20063 827.4520896 -851.0829245)
(1742.233942 342.9172475 42.29068009)
(1015.604111 200.1444194 461.2574691)
(1457.901686 333.8231061 -293.7820749)
(1904.542269 -217.4443967 37.26487046)
(1368.081051 -190.0034073 -232.609437)
(1624.671385 212.7920739 -68.56969774)
(1715.344755 612.9621691 566.6730491)
(1697.213004 -426.2423423 -345.0835442)
(1358.238638 624.4444769 27.70593114)
(1145.130404 834.9089527 -380.4643377)
(1971.589259 -216.5256787 -313.5153191)
(1759.399739 235.8836395 79.07435053)
(1489.845349 410.9001063 160.1060986)
(1556.812037 603.9392457 560.5112365)
(1399.53185 -178.0069393 -32.74308816)
(2099.108749 317.7287071 -160.3510879)
(1197.463906 221.2458467 280.0035906)
(2177.671191 1102.133044 126.5684636)
(795.5945831 415.1807335 605.3596201)
(1944.551032 379.2681499 451.0052025)
(1334.178173 255.8642108 39.13330447)
(1579.858491 -213.6449523 -188.123119)
(1366.371302 -26.42772998 -568.483997)
(1329.865115 260.1676286 208.9765585)
(1435.77676 641.0335597 15.51205489)
(1677.288154 320.773169 80.843828)
(1526.10365 159.6175501 366.0213362)
(1749.475424 548.2783504 -411.8950301)
(959.9445102 104.1318438 -45.72325788)
(869.1504428 -104.2282473 -636.1268851)
(1876.918349 297.5773164 360.1890424)
(1238.81564 499.0021755 107.013622)
(952.8763991 1383.099231 -833.7820331)
(502.150118 -475.7517849 417.0785674)
(1229.552026 -95.77551978 -33.63905483)
(1903.571275 -266.8419604 70.84293535)
(1670.822015 203.1945701 -512.008196)
(1145.020259 453.4605799 -1064.735403)
(1829.280419 351.885401 401.3048671)
(1782.025997 -346.2041208 -54.12805033)
(1780.842381 726.6342871 -504.7226034)
(1883.912056 131.2782763 -218.0030193)
(1884.95703 -453.3627273 136.5229441)
(1790.586857 351.1708785 58.10485199)
(1010.228584 664.7551159 506.6929143)
(1113.304037 587.0224709 13.33231581)
(1780.091227 1494.70957 -785.7867944)
(1674.450954 -439.6879003 524.3514829)
(2332.348307 303.5594997 2.52650239)
(1024.532952 22.56031416 148.145123)
(1810.093181 215.5762016 92.01583136)
(1831.904096 -867.9415415 174.2545144)
(1344.754755 477.9017931 -708.7482843)
(1482.259812 396.6972804 335.9718903)
(1981.175533 151.3770613 -324.7941659)
(1499.207905 -221.42789 74.16020985)
(1189.828508 -115.7671702 -140.6325102)
(1446.307806 209.1131738 235.4902219)
(1186.251736 -81.53389465 241.6829275)
(1557.423406 499.9929845 79.73468405)
(1795.298687 123.7547693 -267.033151)
(1983.046264 546.5875169 37.10350924)
(1592.246294 611.914851 88.72897077)
(1526.067036 235.7008408 557.8868166)
(2251.689854 -0.09612942066 -610.2528469)
(1262.846099 1218.686913 -651.2914142)
(1447.715213 -206.767024 -403.1331012)
(1900.326108 104.7593795 368.3179253)
(1287.257248 343.7594314 58.12065992)
(1303.476539 -361.3864265 716.3049142)
(1733.997511 225.5535536 873.7922727)
(1406.936572 -26.94061469 66.79928723)
(1872.964237 -10.39554493 56.82257453)
(1338.630105 -10.58611619 -152.8221841)
(1951.333153 347.5660806 -140.1559666)
(1097.259387 227.5703705 639.600956)
(1621.602322 189.2329247 -50.9029346)
(1809.669608 83.65852635 327.0439781)
(1455.048053 150.454286 -320.7143615)
(2079.630564 537.4658225 467.7716617)
(1959.593651 -496.2841822 219.4080882)
(871.0191699 188.7177079 228.6784106)
(1721.382074 258.9643641 179.627422)
(1267.668346 94.74135244 169.4887068)
(1730.653471 -41.26566272 -505.4535285)
(1461.734814 335.7100571 -855.8577507)
(1726.98358 307.7997371 389.5647239)
(1247.031966 134.2111239 374.3864018)
(1401.551902 -9.659833291 984.5144614)
(1866.61627 -46.94541877 -212.9336098)
(1189.997273 -54.86597424 15.45640254)
(969.5413645 422.4051866 636.9715109)
(1573.140183 391.5838489 78.28681111)
(1348.965278 527.2919783 865.0285896)
(1453.919905 -311.8903049 -63.74722862)
(1398.308774 -89.85914561 -272.8690835)
(1616.988985 170.241535 -190.2944637)
(753.1117149 29.13204608 574.5456935)
(1694.431181 395.2088946 -8.262399535)
(451.5497746 805.9015607 -458.89708)
(1649.284673 -8.019689181 -381.5513975)
(1118.136571 65.00837841 -399.8828316)
(1506.229655 314.20074 -171.0232248)
(992.5747503 1013.969498 -198.494125)
(1354.297259 465.3130612 707.1771979)
(1754.948233 116.0910696 69.77544262)
(1203.152732 665.8698093 -258.6533484)
(1473.211982 -590.721257 153.5518558)
(1108.379228 298.6944662 228.1644712)
(947.3639297 306.6967408 -336.2512979)
(1603.467211 1152.022044 102.9024494)
(2490.890988 -257.4835918 168.1833038)
(1543.841266 403.4732138 577.3199598)
(1269.993837 458.4450395 306.4858127)
(1482.761576 107.346937 -13.22060676)
(2231.400837 1.420321623 600.3770917)
(1423.650528 245.2456792 309.3830115)
(1537.691 358.766721 529.8079759)
(1528.83701 -1.593076833 -273.5121998)
(2008.68167 333.1160245 -92.84194826)
(1743.274425 109.337878 -339.9360125)
(1603.282236 60.74272001 -17.50422439)
(815.8819683 918.5074203 -713.9362684)
(2254.927158 131.5914938 188.873278)
(1552.272102 663.053557 225.8453388)
(1461.322661 -208.5292153 -254.115075)
(1502.958099 413.2604285 367.4596204)
(1920.901447 -125.5473661 533.8680097)
(1718.472926 785.0445873 -538.8905257)
(1244.289466 679.6724794 -423.5592047)
(1195.937266 119.8273361 -238.7265452)
(1181.72278 283.8005893 233.441061)
(1199.813462 505.3941004 648.0302998)
(1958.141886 323.8801534 161.189245)
(1325.273557 204.2416721 -15.46709467)
(1773.117358 591.9546074 -238.8278403)
(1364.486271 183.279232 -181.5891011)
(1460.226816 -7.022170921 2.539921845)
(1736.616324 184.1745341 454.6400421)
(1582.425101 397.5226317 -311.4331628)
(1227.418852 59.63079212 185.2532452)
(1700.517986 350.664061 -435.6905454)
(1427.600663 614.2201272 432.2103859)
(1716.421918 17.94834959 -254.1347551)
(1244.855739 373.9536415 232.3095801)
(2307.540463 -195.3554076 53.73615561)
(1793.590402 -406.9614331 3.060163307)
(797.8742623 551.1059962 -363.7037945)
(1943.311455 402.1268681 131.626056)
(1624.929315 716.6112892 583.355087)
(1568.746459 -115.4076954 63.70744)
(1724.443442 58.05698061 -196.2805059)
(2072.450237 -326.724577 -299.3539127)
(1877.08781 -212.6603638 183.8794546)
(1756.215408 850.1065196 -595.0220664)
(1067.764462 206.0215831 425.5198909)
(2652.406439 -364.5502526 397.4733046)
(1360.537399 625.7735453 -183.5549092)
(1413.628598 262.8540009 50.71368292)
(1733.422846 -21.28821089 255.1378969)
(2351.450606 325.8241332 359.0295366)
(1449.193982 1343.783558 -266.6663989)
(1736.721931 -116.1059022 13.35510732)
(2437.790517 -118.3750369 475.3394537)
(1262.96128 -289.2175709 -308.3568249)
(1279.803156 390.1288712 -543.8915913)
(1174.074061 227.873467 -238.1050483)
(1887.791057 554.6042743 -234.6503716)
(1788.044073 552.8576457 -857.994612)
(1257.77216 139.3288208 534.0853923)
(1753.489699 22.28149941 425.9983178)
(1504.94164 43.69255479 142.8924685)
(1898.893571 270.9863598 245.3515476)
(1283.456087 67.73275587 -158.1780776)
(1300.658676 139.0456756 407.5277034)
(791.9024866 -50.98930995 861.5213645)
(1304.130698 447.4562695 -539.6118544)
(1566.066856 -169.242886 -243.4525033)
(1185.443768 131.5369063 -132.9015759)
(1676.521915 -151.1321049 -516.9815411)
(1100.51443 -184.7133568 650.1430815)
(1902.240664 56.13353059 216.7611235)
(1705.323977 374.9648618 87.10377154)
(1899.833574 61.29377321 195.4888685)
(1654.56727 -175.1480227 -316.3392968)
(1727.417607 -312.6708069 210.7058597)
(1664.904626 -144.0815107 -295.0818645)
(989.7616313 -395.3824506 -389.4585146)
(1441.212157 145.7082487 -1212.938645)
(1808.118586 -25.37694142 13.79587062)
(937.9027941 467.5743929 -209.9465995)
(1823.488449 505.444253 318.7055687)
(1735.329894 231.54643 -632.0407778)
(705.8880745 243.1762504 298.307984)
(1343.709139 484.6008179 20.68043781)
(989.301414 -394.4713146 317.1615001)
(1670.392737 -114.170844 -265.2759246)
(1666.656137 1033.892477 134.4398862)
(1412.801273 1183.488335 6.054698029)
(1741.804768 -525.0052134 592.0799916)
(1092.732852 -514.1665899 139.2534441)
(1510.645723 -217.8686867 20.99279268)
(2380.786381 473.27356 -843.9563644)
(2000.164469 159.1174647 -806.593021)
(1966.760495 697.9446132 91.63861235)
(1660.726857 -405.1120911 -466.9604825)
(1731.666841 16.95216789 637.1005734)
(1468.842606 -352.00908 -173.7495094)
(1614.183121 510.005273 409.9120665)
(1332.609309 -381.1143152 -204.2553502)
(2008.062598 467.3714803 93.17026774)
(2073.275405 1004.788673 290.7155558)
(1921.192651 -589.3635592 -254.8171146)
(1603.993607 -131.3033204 -194.1471569)
(1725.79384 -13.5359093 -171.0537957)
(1107.984003 271.8145463 -146.3198427)
(2125.016695 784.810598 -147.3397053)
(1643.055711 59.6764738 -273.0979233)
(1548.909228 304.6821932 143.5046848)
(1415.876831 99.02812207 450.4708874)
(1558.029407 -146.2813766 -136.435663)
(1836.150735 161.2447666 30.87252116)
(1655.143134 351.5879095 -247.3570647)
(1400.064286 -74.88083836 -145.1829745)
(1781.597209 21.24676134 227.4024585)
(1230.117383 85.6179395 497.6356993)
(2008.535731 -52.90414603 -29.11556855)
(1861.987477 -74.41722464 -280.220494)
(2235.310909 -273.8342291 222.4519737)
(1613.903978 683.1167232 51.06361371)
(1767.770273 -344.6755732 -314.670153)
(1414.037498 -586.47253 171.5326123)
(1903.465395 295.9175125 -385.8955646)
(1023.527148 348.9356437 -49.84120857)
(1430.566967 294.6294717 337.4654486)
(1163.39266 -222.9459308 -41.16262872)
(1667.417057 44.07105602 80.13349143)
(1064.298572 468.4292164 -316.071673)
(1555.973513 143.6138641 242.3810132)
(1235.13685 65.19241922 104.7106666)
(1264.149034 -29.50651456 21.70191556)
(1219.881861 740.7183917 -118.8691566)
(1930.245883 331.8935493 237.140549)
(2131.343898 -88.02275205 -138.8310646)
(1704.99042 218.5318941 -188.0783095)
(1694.070221 -460.945515 -205.6715221)
(1694.436055 63.51582658 -21.81366588)
(1337.066915 1025.974325 -231.845036)
(2364.812926 -181.3819213 -342.7858039)
(1509.951328 -234.8793348 116.5635233)
(1468.076829 -203.447672 244.3263925)
(1112.792636 600.8927964 80.83871469)
(1622.114876 397.4527578 594.3929843)
(1760.990605 -57.66278132 -222.4429029)
(1322.225536 -199.5545916 477.8975059)
(2246.93998 651.7816215 -81.58874799)
(1755.033311 -249.2406012 -110.6786498)
(1278.470835 169.5621804 73.87124448)
(1328.310107 -114.6358755 -59.84299433)
(1387.834415 -362.8201427 -838.3546963)
(1439.228685 -116.801352 -462.629116)
(1486.785813 253.3099051 177.3234973)
(1420.77146 -15.645331 -30.011699)
(1711.994086 731.262804 -238.8343564)
(1656.445135 -284.5968536 66.88483379)
(1884.319615 -178.4995523 903.8129794)
(1448.241507 -34.57787324 -561.2712915)
(1708.05197 -146.4546637 -42.59332076)
(1618.833597 187.5702062 -434.7306511)
(2284.632855 68.11209577 343.825253)
(1898.082729 73.76736931 224.4763484)
(1276.432164 696.3943821 -456.7357227)
(1950.285908 89.16705966 -364.8562625)
(1361.263795 292.8425146 330.5179235)
(1381.963935 -141.7707335 551.6651815)
(1639.472028 -287.9422264 -255.7135413)
(1603.637921 -214.0373263 34.98072855)
(1460.253681 15.57274458 -579.8039909)
(1615.297585 121.7470968 -139.8024114)
(1496.636263 -142.7269302 -427.8332399)
(1457.860696 -389.2625462 -63.58998386)
(858.5398803 -30.82167783 327.4139125)
(1857.844427 20.72781022 -130.5698812)
(1552.820339 306.2342357 314.6450356)
(1552.139644 679.4217348 -1319.809471)
(2161.25763 413.2324667 -75.37703624)
(1623.219813 344.1116421 122.4998179)
(1684.474115 109.1180967 996.0539327)
(1693.8785 -29.93801621 -317.8738791)
(1416.378134 1100.506656 176.4010364)
(1483.166381 481.3024618 -123.9599165)
(1842.037338 31.91085847 -371.2386177)
(994.7322056 265.4630569 -585.3474523)
(2298.782531 58.20910792 558.9731283)
(1713.215287 166.5849437 132.1723264)
(1773.773751 -325.8982209 -312.0625067)
(864.2718599 -168.2679248 -328.5589952)
(1789.590502 -443.3201432 -106.2991579)
(1743.665593 -142.2652795 -272.792724)
(1936.848721 269.8668908 38.52021348)
(1723.131547 245.5105575 238.808986)
(1428.544009 800.04326 -264.9409279)
(1938.107849 711.227744 291.2673234)
(914.1832414 184.8949752 -23.62905095)
(2149.372918 342.4185237 132.95474)
(1709.971322 97.51657212 661.9258869)
(1567.270169 321.7726951 12.5398157)
(1710.515433 89.88986753 -473.6535372)
(2037.329622 -130.9341725 490.4000347)
(1586.677348 312.0914221 -498.3673157)
(1631.912086 439.6469433 599.1010419)
(882.5409902 200.7074784 -99.21197964)
(1793.41126 71.10703629 692.2020141)
(1887.488466 -219.9865113 -44.42173719)
(2014.824783 -107.1378183 -491.6853906)
(1807.537082 -109.4250156 -256.9466559)
(1690.831947 280.4334225 127.9962875)
(1409.213985 -75.91958422 -377.5214052)
(1451.580167 -161.1638189 -78.36659371)
(1576.049024 11.76412476 -599.3431023)
(863.0953279 332.083842 251.7723291)
(1812.395085 757.0572787 -239.3528138)
(1506.086444 72.632011 261.6360608)
(2273.695808 122.5020535 15.21886215)
(1775.16784 -209.2238203 -150.6454629)
(1787.333437 1150.331599 -359.6133834)
(639.2922881 729.7552891 755.8899708)
(2410.910682 21.49976199 469.8835524)
(1960.592996 318.6288424 230.4744339)
(2067.486692 416.5465335 340.7155691)
(1436.785236 706.6294732 -0.03284790211)
(1036.424882 649.9388827 -457.7354018)
(2355.422657 200.650655 56.33686678)
(575.4778119 309.6809598 -359.4932697)
(1455.854283 118.2476205 136.6501009)
(1489.672256 -217.418793 -292.0254619)
(1824.070812 32.36511426 -43.9099991)
(1544.141437 898.2245805 -194.282589)
(1785.038505 264.3821789 -229.773959)
(1843.573494 47.26252945 -212.1560671)
(1855.510152 -87.97412234 -246.9544662)
(1475.438633 135.8504189 226.0448129)
(1621.784816 135.0194155 11.66738793)
(1734.973222 83.51023418 -167.6775615)
(1728.326917 -252.7633102 268.168541)
(1868.570861 189.6576082 42.53498237)
(2091.554532 241.2114562 270.9269953)
(1821.662924 120.0080455 338.3389662)
(1488.856575 606.3721437 -393.0324618)
(1374.62578 -649.7183131 356.1645673)
(1162.242463 305.267633 200.1909307)
(1716.51635 -232.2426056 -227.2158673)
(1727.972348 -334.7238135 230.8217495)
(1864.327717 891.4855293 210.6916528)
(1528.567055 474.628184 20.06526051)
(1145.365224 1250.327483 198.0947318)
(2199.510139 287.6360063 -137.1176504)
(1874.533723 62.47534166 321.1974748)
(2006.451278 -15.09039071 265.1817417)
(1987.066132 834.0303601 -70.71471048)
(1612.475014 -70.69070264 82.07089135)
(1924.852239 307.8599942 222.8591049)
(1902.342429 127.995891 389.0822858)
(2452.129572 43.00617071 -103.1995622)
(2113.529145 227.6287544 -413.5509463)
(1426.391797 -87.43093303 -248.4454647)
(1708.364426 -785.9467616 193.9921303)
(1559.386793 -26.39001092 -89.72474505)
(1470.382456 263.394106 -233.4141784)
(1016.054141 131.5175414 -49.79249636)
(1212.095215 -78.19384398 -290.7127761)
(1867.394867 -331.9722338 -405.4801704)
(1606.49689 17.16412435 318.2432478)
(1651.935254 -312.4303076 327.9221053)
(1958.250593 624.1557399 -416.6752843)
(1701.463516 138.5307999 277.2116883)
(1458.840086 -38.93674795 -585.6397572)
(1591.40585 520.0790407 474.2923412)
(979.1694517 362.7709591 -128.0238857)
(1442.762861 -470.7809785 281.2242824)
(1485.431494 -408.2143811 264.9021557)
(1869.21162 -196.7479761 -7.106155207)
(1476.763064 330.1423268 -237.9495888)
(1865.192832 152.3661474 -118.1024986)
(1588.984111 -81.15560985 -347.4167036)
(1272.001944 187.5969263 -678.0668897)
(1476.133462 -285.7683078 -166.9071398)
(1590.176814 -74.4180306 186.384298)
(1349.172063 151.6826057 -428.5851546)
(1075.302119 412.6333036 -383.7155553)
(1656.5905 288.2384567 482.4915638)
(1137.898721 -19.07576024 725.7940254)
(1331.380985 -39.43963313 454.2968924)
(1688.016891 -18.48614257 -302.8990798)
(2059.155934 209.1510466 -794.6859122)
(1540.259183 -94.34612863 372.8543382)
(2279.685512 -182.1837431 -575.8746014)
(927.3531709 -363.1104865 -858.9750802)
(2532.167122 767.1754995 175.4188803)
(2043.117761 42.70305716 -58.27467371)
(1875.193764 -382.6381905 180.7030303)
(1717.005223 -153.2357323 -232.2612486)
(1620.598449 30.44947107 -245.6356461)
(1869.612476 15.7476036 -353.5718685)
(1079.092444 926.6792195 -432.45682)
(1320.515989 -42.49207306 101.8738992)
(1730.510951 117.0622791 183.4083198)
(1455.133081 389.7331864 -159.8631364)
(1123.132455 -117.4404262 -216.4951906)
(1972.370305 682.8755081 286.8685685)
(1152.455798 630.8922829 -21.10206554)
(1286.176765 491.5871006 343.0758531)
(1958.413445 -463.390351 221.8589698)
(1613.670485 -558.1407135 -132.9388265)
(1355.058005 123.4490663 -205.3990104)
(1793.270756 115.6981564 35.18266838)
(1256.317795 947.6144173 550.7795991)
(787.2539458 974.08239 550.5020513)
(1429.869299 853.4670072 573.8725961)
(1748.516504 404.8497377 -457.9163219)
(1408.519963 16.53568663 40.38993082)
(1628.351763 -303.2568563 -446.8430379)
(1971.029822 -214.3229312 -42.23300175)
(2176.47587 -19.11148882 68.69567458)
(1492.171841 -306.0713307 7.276493473)
(2007.017594 176.1347717 506.3145748)
(1888.299332 80.52787558 608.8975266)
(896.2652491 500.8331527 538.2108179)
(1575.766894 129.3878051 99.36800481)
(2145.165787 250.7659242 39.40523062)
(1593.051989 319.2420521 -107.3460156)
(1655.933114 92.86018479 132.3857069)
(1436.976665 -459.7931306 -201.877221)
(1745.486173 386.9632959 260.2593926)
(890.0962743 120.2624466 261.5130019)
(1762.097723 300.2032557 -150.2905268)
(1584.704149 491.4926099 -171.6586701)
(1268.865295 261.7624122 -51.39475173)
(2481.107923 -102.3605709 604.2875169)
(1872.206694 -143.3604187 757.9711809)
(2152.982837 719.9115049 -162.7788328)
(1652.353343 470.6273612 -67.1885041)
(2027.347991 182.0096682 180.4277018)
(1785.245087 90.1334655 3.850457594)
(1822.277338 180.7166623 -24.56573183)
(1774.486314 371.3654722 22.72560168)
(1545.05999 -298.3585037 -228.6281867)
(1523.199302 229.0056651 -483.3295434)
(1456.513246 183.5696207 -300.775764)
(1858.420356 353.617619 116.6591574)
(1607.034678 191.4424946 262.8587819)
(2040.677092 631.9167055 -232.8538993)
(1551.091959 592.631172 185.5557263)
(1919.559558 -405.3439663 277.7052991)
(1955.247339 -300.4336021 -601.446992)
(1360.480058 263.9776509 514.3734021)
(1009.609709 -142.9930735 184.5934109)
(1964.749165 62.6224012 -189.1378686)
(813.5644272 360.5356362 285.134419)
(1921.028914 171.0528767 122.6880657)
(1531.186001 96.00356134 244.8406199)
(1650.234755 129.5496453 38.7585541)
(1216.665335 721.7709119 -231.3229117)
(1165.142402 376.8728983 -124.7988499)
(1666.220335 89.67258899 -202.4108697)
(1559.612994 -159.3389225 -218.3019322)
(1574.964951 -5.521140002 265.0487202)
(1318.267531 -278.2605355 602.7375904)
(1651.889532 123.5703718 1.805895792)
(1233.969752 -301.1754637 349.5289014)
(1172.34526 827.3035243 -578.2846449)
(1185.126376 -252.2956948 -12.3664037)
(943.3284219 20.77279392 -375.8042965)
(1932.062903 183.6237068 33.50119923)
(1793.724107 474.8564746 53.83272564)
(1336.083852 -37.37949225 534.3819259)
(2047.470038 240.0572462 117.125953)
(1400.192929 107.9882737 -588.660522)
(1601.75941 192.1754316 -992.0320119)
(1362.238933 -81.67303671 150.0410676)
(1060.466603 -145.9220146 -777.9778676)
(2225.852514 658.4580934 397.9144976)
(1907.842134 -155.0192992 -230.1728305)
(957.4641519 555.3462181 -88.1375728)
(1042.178388 -470.6998969 -309.2656585)
(1416.191108 392.7485295 -442.699918)
(1356.679484 -263.7621806 362.9898692)
(2146.632986 -131.2757086 -58.65991687)
(1262.701468 195.8442362 239.7202328)
(1565.119484 351.8829805 -360.4905669)
(1432.070998 407.2268985 -100.1651475)
(1032.350589 377.9828446 101.4635853)
(1326.25245 581.0279234 573.4051338)
(1229.159579 -46.74087913 309.680857)
(1623.06253 -322.1324498 -46.50539538)
(1582.63033 -18.56896741 -13.0385073)
(1484.963167 -136.4614357 151.3102271)
(1522.143016 372.8033281 -72.65357112)
(1230.901626 265.0698011 1044.504121)
(2002.501743 344.9026311 347.7215909)
(1810.86668 62.61401643 281.2201325)
(2289.074296 141.8736448 -2.238380818)
(1848.090273 239.8733401 -320.5765975)
(1455.141367 -297.0979763 -591.2896965)
(1369.138074 -352.4186328 -332.8916574)
(1031.132475 116.8306611 -152.690482)
(1558.64835 -341.2909743 -224.4764023)
(1890.228815 -3.661598516 402.1419245)
(1740.7235 -303.2527691 154.2567935)
(485.3253917 -1272.690891 -525.1926437)
(2336.480339 34.73380299 -195.2644661)
(1705.440164 -309.4973392 53.96809977)
(1829.198173 213.6468513 273.8711325)
(597.2573065 544.6855995 574.5100743)
(1547.91983 193.0298808 -298.2195109)
(1858.54555 437.5701108 734.7648139)
(1639.018971 141.9439947 14.43879334)
(1370.219935 -368.6362909 -17.96672746)
(1928.867315 511.6059934 172.5412957)