/*--------------------------------*- C++ -*----------------------------------*\
| =========                 |                                                 |
| \\      /  F ield         | OpenFOAM: The Open Source CFD Toolbox           |
|  \\    /   O peration     | Version:  2406                                  |
|   \\  /    A nd           | Website:  www.openfoam.com                      |
|    \\/     M anipulation  |                                                 |
\*---------------------------------------------------------------------------*/
FoamFile
{
    version     2.0;
    format      ascii;
    arch        "LSB;label=32;scalar=64";
    class       Cloud<dsmcParcel>;
    location    "0.004/lagrangian/dsmc";
    object      coordinates;
}
// * * * * * * * * * * * * * * * * * * * * * * * * * * * * * * * * * * * * * //

9485
(
(0.7822713095 0.08310807791 0.1088643453 0.02575626735) 327 642 1
(0.1258777461 0.2537960705 0.1832650564 0.4370611269) 82 104 2
(0.2751202877 0.3624398562 0.09476704474 0.2676728114) 264 521 1
(0.02201998061 0.4889900097 0.1755469653 0.3134430444) 145 284 2
(0.266168895 0.08237884156 0.3669155525 0.2845367109) 149 292 1
(0.09659897154 0.1339389195 0.3177615947 0.4517005142) 47 35 2
(0.3219961964 0.3390019018 0.2817753147 0.05722658709) 26 52 2
(0.6253299099 0.1649067484 0.187335045 0.02242829664) 110 215 1
(0.0606518357 0.02108423436 0.4485898478 0.4696740821) 54 49 2
(0.1738892779 0.1245294148 0.4130553611 0.2885259462) 115 228 2
(0.02019307371 0.4899034631 0.149585396 0.3403180671) 175 346 1
(0.3204205796 0.1865403551 0.1532493551 0.3397897102) 447 880 1
(0.7349374378 0.1325312811 0.0565424376 0.07598884349) 83 162 2
(0.1228858257 0.3500463351 0.08851075209 0.4385570872) 168 331 1
(0.0632463686 0.4683768157 0.4435245966 0.02485221915) 147 288 2
(0.129704081 0.03520991675 0.3999380427 0.4351479595) 144 284 1
(0.2031395084 0.3984302458 0.1024935708 0.295936675) 25 50 2
(0.6348554478 0.1092886087 0.1825722761 0.07328366738) 85 169 2
(0.2386234183 0.3806882909 0.06376416594 0.3169241249) 57 55 1
(0.2454959528 0.1998745491 0.3772520236 0.1773774745) 20 41 2
(0.371386591 0.1030341138 0.3143067045 0.2112725907) 358 703 1
(0.4904370083 0.2183581126 0.03642338324 0.2547814959) 269 471 2
(0.5950012746 0.2024993627 0.1077198154 0.09477954728) 119 235 1
(0.4768976351 0.2615511825 0.2384597689 0.02309141355) 236 465 2
(0.2756598745 0.3570733295 0.3621700627 0.005096733234) 111 217 1
(0.002196295915 0.02904703021 0.498901852 0.4698548218) 55 107 1
(0.2198788848 0.3900605576 0.2572414528 0.1328191047) 82 160 2
(0.09460660807 0.452696696 0.4351239388 0.01757275713) 29 1041 2
(0.6058920501 0.03525882885 0.197053975 0.1617951461) 295 579 1
(0.2318424809 0.03050688236 0.3535718772 0.3840787595) 267 468 2
(0.3539226853 0.2502667836 0.0727718738 0.3230386574) 25 50 1
(0.5876329054 0.01919051424 0.2061835473 0.186993033) 24 46 1
(0.4574449038 0.2557535352 0.2712775481 0.01552401288) 28 57 2
(0.006862816511 0.4477282028 0.0488403889 0.4965685917) 59 58 2
(0.712321099 0.1438394505 0.05614535859 0.08769409191) 25 51 1
(0.1155434766 0.3981624162 0.4422282617 0.04406584553) 235 461 1
(0.4802673217 0.1878008799 0.2598663392 0.07206545921) 87 170 1
(0.3288055313 0.3355972343 0.2244746815 0.1111225528) 28 56 2
(0.7294697725 0.1352651137 0.1096757498 0.02558936397) 264 518 2
(0.1564094463 0.4217952768 0.1927741341 0.2290211427) 208 410 2
(0.1428735123 0.4132433607 0.01531988313 0.4285632439) 142 222 2
(0.80223566 0.09888217001 0.02104652325 0.07783564676) 82 162 2
(0.5166110391 0.2416944804 0.1635424266 0.07815205382) 28 1084 2
(0.07625100561 0.4618744972 0.1271571123 0.3347173849) 145 287 1
(0.2728696389 0.3635651805 0.03413548791 0.3294296926) 24 49 1
(0.280430681 0.2273247999 0.1324598596 0.3597846595) 233 459 1
(0.2116033037 0.09264846692 0.3015498812 0.3941983481) 89 1043 1
(0.5535808177 0.1530626972 0.07014689391 0.2232095912) 88 116 2
(0.04661732148 0.4766913393 0.06931872984 0.4073726094) 237 468 1
(0.02266353425 0.1097138652 0.3789543677 0.4886682329) 202 340 2
(0.03610232926 0.04128763975 0.4406611956 0.4819488354) 149 1045 1
(0.1354373006 0.4322813497 0.3698870026 0.06239434708) 84 164 2
(0.732381594 0.133809203 0.07909185101 0.054717352) 209 412 1
(0.4223397409 0.166719432 0.1221106976 0.2888301296) 207 350 2
(0.1954724125 0.05330830308 0.3489554907 0.4022637937) 208 410 1
(0.807516378 0.09368747827 0.09624181102 0.002554332751) 55 107 1
(0.7478380214 0.1260809893 0.1107572493 0.01532374) 267 524 2
(0.006912945167 0.4965435274 0.02357053714 0.4729729903) 29 1041 2
(0.7508157659 0.1123076112 0.01228450584 0.124592117) 118 233 1
(0.5274695433 0.2362652284 0.0105659166 0.2256993118) 83 164 2
(0.4663867128 0.2668066436 0.1935379578 0.07326868578) 356 702 1
(0.1194751021 0.3589887383 0.08127371064 0.4402624489) 201 338 2
(0.4568235661 0.2715882169 0.09079550742 0.1807927095) 198 332 1
(0.353639489 0.3011575542 0.02202270134 0.3231802555) 88 174 1
(0.6159742539 0.1920128731 0.01503107442 0.1769817986) 175 345 2
(0.3274857443 0.2857063406 0.0505507873 0.3362571279) 55 51 2
(0.2165423466 0.3917288267 0.04970335725 0.3420254695) 170 336 1
(0.07050830138 0.2348782278 0.4647458493 0.2298676215) 59 117 2
(0.294538206 0.1154158083 0.352730897 0.2373150887) 23 47 2
(0.04082898869 0.4795855057 0.139320204 0.3402653016) 21 43 1
(0.0428540233 0.2984189015 0.4785729884 0.1801540869) 114 223 1
(0.1180139888 0.3645285249 0.0764644807 0.4409930056) 26 52 1
(0.2088566491 0.2460099684 0.149561707 0.3955716754) 233 459 1
(0.1666946399 0.1854238023 0.4166526801 0.2312288778) 84 167 2
(0.6560893949 0.1719553026 0.09583027969 0.07612502287) 237 467 2
(0.2202747584 0.3415374604 0.3898626208 0.04832516047) 20 38 1
(0.5097035456 0.2451482272 0.1499597931 0.09518843411) 18 37 1
(0.1107346118 0.2359505256 0.2086821685 0.4446326941) 53 105 1
(0.3137715022 0.3431142489 0.2179668306 0.1251474183) 172 339 2
(0.01572639524 0.467954545 0.4921368024 0.02418225736) 207 409 2
(0.5781151548 0.2109424226 0.1148152018 0.09612722076) 87 170 2
(0.01852639975 0.4907368001 0.4181955652 0.07254123495) 53 47 1
(0.06089869459 0.4695506527 0.4257704118 0.04378024091) 27 52 2
(0.08722439247 0.2921826361 0.1642051677 0.4563878038) 57 113 1
(0.1393820432 0.4303089784 0.3328332868 0.09747569164) 110 217 2
(0.06406612114 0.4679669394 0.2100004729 0.2579664665) 24 1080 2
(0.2656725961 0.3671637019 0.2852939573 0.08186974461) 174 285 1
(0.434004262 0.282997869 0.1559088982 0.1270889708) 28 1084 2
(0.9106046256 0.01013736312 0.03456032409 0.04469768721) 138 214 2
(0.444901487 0.2775492565 0.05567803454 0.221871222) 57 55 1
(0.6101140428 0.04443732104 0.1949429786 0.1505056575) 88 175 2
(0.1901477391 0.1226003762 0.4049261304 0.2823257543) 52 101 1
(0.7160373908 0.02666242901 0.1153188756 0.1419813046) 136 210 2
(0.7688384654 0.05682976868 0.05875099864 0.1155807673) 148 292 1
(0.05091724416 0.4745413779 0.4350563075 0.03948507041) 57 55 1
(0.009234362001 0.04589237666 0.4494904423 0.495382819) 112 221 1
(0.7847550399 0.1076224801 0.07902622423 0.02859625584) 56 111 2
(0.000933495626 0.2251039232 0.274429329 0.4995332522) 80 100 2
(0.4340842687 0.2829578657 0.2805400354 0.00241783028) 263 519 1
(0.4243417416 0.02499633743 0.2878291292 0.2628327918) 29 58 2
(0.02225488795 0.08822375272 0.4006488033 0.488872556) 176 289 2
(0.437870565 0.2810647175 0.1036815755 0.177383142) 57 111 2
(0.5136630519 0.243168474 0.1652797083 0.07788876575) 16 32 2
(0.4249527646 0.2875236177 0.2307564029 0.05676721481) 234 462 1
(0.09541961464 0.4522901927 0.3513209975 0.1009691952) 50 99 2
(0.4782627043 0.04101199958 0.2608686479 0.2198566483) 107 209 1
(0.1520866724 0.4239566638 0.1142972934 0.3096593704) 86 170 2
(0.208150484 0.103927426 0.2919973319 0.395924758) 83 106 2
(0.4349460652 0.2825269674 0.1134571686 0.1690697988) 230 453 2
(0.04325507711 0.4783724614 0.1105064396 0.3678660218) 26 1082 2
(0.005206401269 0.4973967994 0.2329497545 0.2644470449) 176 289 1
(0.4086855279 0.2944779232 0.001179312911 0.2956572361) 21 1077 1
(0.06632224988 0.4668388751 0.2333529479 0.2334859271) 19 36 2
(0.6013720777 0.1970572814 0.1993139611 0.002256679692) 172 340 2
(0.1750775183 0.4124612408 0.08292345237 0.3295377885) 87 114 1
(0.7503484958 0.1248257521 0.06512813962 0.05969761245) 205 402 2
(0.09536977755 0.4523151112 0.04642944381 0.4058856674) 79 98 1
(0.1431374085 0.09058329146 0.3378480043 0.4284312958) 232 399 2
(0.2796355743 0.3601822129 0.05326344285 0.30691877) 51 43 1
(0.6746208971 0.001266703353 0.1626895514 0.1614228481) 89 174 1
(0.2217808728 0.02310136803 0.3891095636 0.3660081956) 23 47 2
(0.258197385 0.3709013075 0.07449526287 0.2964060446) 81 161 1
(0.271943643 0.1211133689 0.3640281785 0.2429148096) 256 502 1
(0.6335400661 0.1832299669 0.02882078512 0.1544091818) 208 410 2
(0.8757399025 0.02341048643 0.06213004875 0.03871956232) 25 51 2
(0.4484454049 0.2757772976 0.1640745817 0.1117027159) 137 212 1
(0.7222402169 0.130765376 0.1388798916 0.008114515541) 417 822 2
(0.3697043705 0.03199131481 0.2831564999 0.3151478147) 26 1082 1
(0.6041091003 0.1979454498 0.03508760968 0.1628578402) 323 578 1
(0.4485234202 0.2096382972 0.06609999274 0.2757382899) 78 96 2
(0.6622001536 0.04487067406 0.1240292491 0.1688999232) 269 1049 1
(0.07585988646 0.4620700568 0.3363441923 0.1257258644) 149 294 1
(0.1960278523 0.3785138025 0.02347227141 0.4019860739) 29 1085 1
(0.1366875276 0.4316562362 0.02437378811 0.4072824481) 325 638 2
(0.04263219333 0.4786839033 0.1490360663 0.329647837) 14 1070 2
(0.3465377578 0.1744693272 0.3267311211 0.1522617939) 59 117 2
(0.2565854706 0.3717072647 0.2612043547 0.11050291) 202 340 1
(0.4149700927 0.2925149537 0.2308205711 0.06169438254) 29 56 2
(0.02255714392 0.3875325752 0.1011888528 0.488721428) 231 397 2
(0.1493428714 0.4253285643 0.232839359 0.1924892053) 147 290 2
(0.3093304054 0.3338350426 0.3453347973 0.01149975468) 387 763 2
(0.01905242173 0.429374249 0.4904737891 0.06109954013) 88 172 1
(0.04782483721 0.4179968139 0.4760875814 0.05809076753) 87 173 2
(0.5004212564 0.1143161473 0.1354732245 0.2497893718) 236 465 1
(0.289795718 0.355102141 0.2621359971 0.0929661439) 76 150 2
(0.5895531368 0.2052234316 0.1439427767 0.06128065489) 56 109 2
(0.03880280528 0.4805985974 0.3532414992 0.1273570981) 80 158 2
(0.81483915 0.09258042499 0.07872123901 0.01385918599) 29 56 2
(0.5295363868 0.2352318066 0.2297580509 0.005473755708) 146 289 1
(0.5468310435 0.1181561519 0.1084283263 0.2265844783) 56 53 2
(0.04034846556 0.4660879248 0.4798257672 0.0137378424) 206 407 2
(0.05715694261 0.4714215287 0.364497718 0.1069238107) 268 470 1
(0.1762223466 0.4118888267 0.1223272296 0.2895615971) 84 108 1
(0.3498631058 0.3250684471 0.07233409537 0.2527343517) 137 268 2
(0.02510640386 0.3324416591 0.4874467981 0.155005139) 260 513 2
(0.4718384061 0.09594027465 0.2640807969 0.1681405223) 110 215 1
(0.4598913685 0.1159098254 0.2700543158 0.1541444904) 22 42 1
(0.4833961732 0.1825299831 0.2583019134 0.07577193032) 105 208 2
(0.5314323622 0.2342838189 0.1242491016 0.1100347173) 174 285 1
(0.8080085631 0.01607691067 0.07991880776 0.09599571843) 258 508 1
(0.7623014612 0.1188492694 0.06137573339 0.05747353598) 57 114 1
(0.2936275884 0.1673503517 0.1858358541 0.3531862058) 59 58 2
(0.5234507552 0.01147623602 0.2382746224 0.2267983864) 108 214 2
(0.044364937 0.4682500139 0.009567517561 0.4778175315) 87 114 2
(0.09368010213 0.05371428756 0.3994456614 0.4531599489) 208 410 1
(0.08813580408 0.455932098 0.07272334492 0.383208753) 329 1051 2
(0.2072632641 0.138624338 0.3963683679 0.25774403) 296 581 1
(0.3793194168 0.1069936317 0.2033466599 0.3103402916) 239 1048 1
(0.07164443315 0.2856890268 0.1784887566 0.4641777834) 43 85 1
(0.6573488341 0.1077887379 0.171325583 0.0635368451) 379 744 1
(0.1672035195 0.4163982403 0.1885409485 0.2278572917) 111 219 2
(0.1332126632 0.4333936684 0.124531485 0.3088621834) 142 278 2
(0.06364132986 0.1816514596 0.2865278755 0.4681793351) 59 58 2
(0.08325440776 0.2268520372 0.4583727961 0.2315207589) 419 823 1
(0.06769867288 0.3304603099 0.4661506636 0.1356903537) 119 233 1
(0.1955693221 0.402215339 0.1154945868 0.2867207521) 87 170 2
(0.5756810334 0.04837659826 0.2121594833 0.163782885) 177 350 2
(0.4213710383 0.2893144808 0.1963468608 0.09296762006) 144 282 2
(0.5405496314 0.2297251843 0.1257763061 0.1039488781) 23 1079 2
(0.07364425539 0.4631778723 0.1068402303 0.356337642) 26 1082 2
(0.2715822813 0.3642088594 0.325165837 0.03904302234) 326 584 1
(0.6702320508 0.1559301962 0.1648839746 0.008953778428) 109 216 2
(0.01636125077 0.2478890664 0.4918193746 0.2439303083) 175 346 2
(0.03930667593 0.480346662 0.1408543744 0.3394922876) 297 527 1
(0.2792666589 0.329330484 0.3603666705 0.03103618656) 48 93 1
(0.4495406934 0.06785373519 0.2073759181 0.2752296533) 51 43 2
(0.1790141705 0.3482142241 0.4104929147 0.06227869069) 208 411 2
(0.1104141324 0.4447929338 0.1687203734 0.2760725604) 27 55 1
(0.05122409196 0.474387954 0.05365022575 0.4207377283) 327 644 2
(0.5307288996 0.1138528082 0.2346355502 0.120782742) 79 157 2
(0.2860831569 0.3569584216 0.3457227508 0.01123567081) 208 352 1
(0.1871430021 0.3956879608 0.4064284989 0.01074053817) 297 586 2
(0.2588850945 0.2553939617 0.3705574528 0.115163491) 50 97 1
(0.1505497926 0.1402018269 0.4247251037 0.2845232768) 116 230 2
(0.1119455321 0.444027234 0.1542645965 0.2897626375) 20 40 2
(0.4441621478 0.02703787519 0.2508810509 0.2779189261) 57 113 1
(0.5141235066 0.2429382467 0.2174216851 0.02551656161) 388 762 2
(0.702943715 0.1485281425 0.05280580179 0.09572234068) 208 352 1
(0.7667673904 0.1166163048 0.04266959085 0.07394671396) 104 147 1
(0.3899035013 0.3050482493 0.247569811 0.05747843834) 173 339 2
(0.3346331858 0.3326834071 0.2345898479 0.09809355921) 53 105 2
(0.8481068887 0.07594655565 0.03168044175 0.0442661139) 81 161 1
(0.4224333412 0.2887833294 0.2809913239 0.007792005547) 56 53 1
(0.7928669342 0.05343267326 0.05013385966 0.1035665329) 88 116 2
(0.3539037228 0.3230481386 0.1717973036 0.151250835) 149 1045 2
(0.01607466451 0.4919626677 0.2610375274 0.2309251404) 86 170 2
(0.3433479475 0.3283260262 0.04512810064 0.2831979256) 52 103 2
(0.1078607001 0.1956935519 0.250376098 0.4460696499) 22 1078 1
(0.3625051673 0.1080837604 0.210663656 0.3187474164) 20 1076 1
(0.6267482972 0.1866258514 0.01100063018 0.1756252212) 86 168 2
(0.6924350506 0.1537824747 0.06331949383 0.0904629809) 119 233 2
(0.6476309535 0.09696634966 0.07921817359 0.1761845233) 84 166 1
(0.1816804375 0.1398428846 0.4091597813 0.2693168967) 179 353 2
(0.3723993865 0.2573077056 0.3138003068 0.0564926012) 117 229 1
(0.1717891097 0.4141054451 0.3954396796 0.01866576553) 111 161 1
(0.1984696894 0.4007651553 0.1309588877 0.2698062676) 24 1080 2
(0.4363952694 0.01808505391 0.2818023653 0.2637173114) 52 104 2
(0.01613541451 0.4919322927 0.3089839574 0.1829483354) 204 402 2
(0.2704045925 0.04055009383 0.3242476099 0.3647977038) 233 401 2
(0.2261324719 0.06281872489 0.386933764 0.3241150391) 51 102 2
(0.2285033899 0.3857483051 0.2539658491 0.131782456) 84 167 1
(0.5186872165 0.1673717835 0.07328460828 0.2406563918) 20 40 1
(0.4506076033 0.2226662643 0.2746961984 0.05202993408) 140 277 2
(0.545109465 0.2274452675 0.0375796691 0.1898655984) 81 102 1
(0.183494766 0.2088781081 0.1993745089 0.408252617) 55 51 2
(0.03816476156 0.4809176192 0.4443568748 0.03656074439) 79 154 2
(0.1696299101 0.415185045 0.2035550198 0.2116300251) 174 344 1
(0.1312650292 0.4343674854 0.3114004307 0.1229670547) 27 52 2
(0.2549829902 0.175920377 0.3725085049 0.1965881279) 23 47 2
(0.01529176641 0.0458430071 0.4465111097 0.4923541168) 114 167 2
(0.5521794406 0.09515491101 0.1287553687 0.2239102797) 117 231 1
(0.08383897291 0.4580805135 0.0880107603 0.3700697532) 24 1080 2
(0.1488862197 0.4255568901 0.3289234713 0.09663341887) 441 868 2
(0.07420494856 0.3320834428 0.4628975257 0.130814083) 110 215 1
(0.01547315069 0.2953500028 0.1969134219 0.4922634247) 298 529 2
(0.4686054414 0.1695725073 0.2656972793 0.09612477206) 57 114 2
(0.4655964301 0.2672017849 0.009754608876 0.2574471761) 382 753 1
(0.1611021201 0.08564020743 0.3338087325 0.4194489399) 89 117 2
(0.2300624422 0.02230732657 0.3849687789 0.3626614523) 145 284 1
(0.3864274503 0.2785093242 0.3067862748 0.02827695061) 24 49 2
(0.3368943269 0.0005001738124 0.3315528365 0.3310526627) 24 49 2
(0.3896930132 0.1628983641 0.3051534934 0.1422551294) 81 161 2
(0.2196003195 0.3901998403 0.3661012196 0.02409862068) 326 642 2
(0.2875494015 0.3562252993 0.08723692827 0.268988371) 296 581 2
(0.4927122263 0.2065403849 0.2536438868 0.04710350197) 233 457 1
(0.1890434677 0.4054782661 0.2589233921 0.146554874) 175 345 2
(0.3561286683 0.166283987 0.1556516788 0.3219356658) 173 283 2
(0.3221170668 0.3389414666 0.3202548308 0.01868663579) 25 48 2
(0.5288897266 0.04782313806 0.1877319987 0.2355551367) 116 229 1
(0.412462646 0.293768677 0.07217137808 0.2215972989) 19 36 2
(0.243085475 0.1111509332 0.2673063293 0.3784572625) 23 1079 1
(0.9319340795 0.03403296025 0.01967067235 0.0143622879) 356 699 2
(0.5510721721 0.224463914 0.06828717494 0.156176739) 107 211 2
(0.0615202242 0.1349354425 0.3343044454 0.4692398879) 85 110 2
(0.3728636152 0.1955524407 0.1180157517 0.3135681924) 14 28 1
(0.8605073912 0.06974630438 0.01226680234 0.05747950204) 176 347 2
(0.04633526262 0.4768323687 0.2665858784 0.2102464902) 110 159 1
(0.4640169778 0.2460414957 0.02195001538 0.2679915111) 174 343 1
(0.4031492168 0.2984253916 0.2345054266 0.06391996506) 323 637 1
(0.3687284474 0.2706220721 0.04501370416 0.3156357763) 57 55 2
(0.3588600617 0.3205699691 0.05401437203 0.2665555971) 294 580 1
(0.2440853228 0.3779573386 0.261647796 0.1163095426) 26 53 1
(0.3415839959 0.329208002 0.07304135909 0.2561666429) 89 1043 2
(0.001248630358 0.4993756848 0.1358763285 0.3634993563) 296 583 2
(0.05506373859 0.2110198051 0.4724681307 0.2614483256) 142 278 1
(0.478833943 0.2605830285 0.1922485903 0.06833443824) 206 407 1
(0.3553343539 0.1388095459 0.322332823 0.1835232771) 23 47 2
(0.1158908877 0.2142762698 0.2277782864 0.4420545562) 115 169 2
(0.7572040022 0.08293179609 0.03846620279 0.1213979989) 116 171 2
(0.002038582105 0.2685200991 0.2304606099 0.4989807089) 264 520 1
(0.4304425236 0.2847787382 0.1148923452 0.169886393) 418 821 2
(0.5400451092 0.2299774454 0.1854636371 0.04451380831) 26 50 2
(0.4609074693 0.2695462654 0.03582842876 0.2337178366) 136 210 1
(0.5669352984 0.2165323508 0.1669972741 0.04953507668) 323 636 2
(0.7500423264 0.1011052224 0.02387361439 0.1249788368) 171 279 2
(0.4300897797 0.2849551102 0.0673504205 0.2176046897) 173 283 1
(0.1339385945 0.3987090729 0.4330307028 0.03432162988) 82 163 2
(0.6062377523 0.1968811239 0.08372748995 0.1131536339) 149 1045 2
(0.03411185512 0.4829440724 0.2199090298 0.2630350427) 149 1045 2
(0.339861229 0.3300693855 0.1560983324 0.1739710531) 21 42 2
(0.04281634417 0.4785918279 0.3513708642 0.1272209637) 136 266 2
(0.5756837926 0.2121581037 0.2066580175 0.005500086231) 58 115 2
(0.08651648135 0.2795201077 0.4567417593 0.1772216516) 146 289 2
(0.5321799447 0.2294328201 0.2339100276 0.004477207561) 198 391 2
(0.09462643479 0.4526867826 0.05049783858 0.402188944) 15 31 1
(0.1460490375 0.08574219502 0.4269754812 0.3412332862) 358 703 1
(0.4298726605 0.02326258655 0.2618010832 0.2850636698) 108 213 1
(0.567889577 0.1933133962 0.02274181525 0.2160552115) 169 275 2
(0.1573385875 0.4213307063 0.2364580478 0.1848726585) 86 112 1
(0.4853147324 0.2573426338 0.1097886598 0.147553974) 14 28 2
(0.08571815302 0.2976350344 0.4571409235 0.1595058891) 23 47 2
(0.7061784156 0.1469107922 0.1041347431 0.04277604907) 57 113 2
(0.1430638359 0.279714784 0.4284680821 0.1487532981) 55 107 1
(0.5278413464 0.1297055744 0.2360793268 0.1063737525) 88 175 2
(0.5621110824 0.2189444588 0.2176172132 0.001327245565) 27 55 1
(0.760854284 0.119572858 0.04335867091 0.07621418711) 79 157 1
(0.2652603516 0.2871253694 0.3673698242 0.08024445481) 167 330 2
(0.008354804815 0.3104530623 0.1853695353 0.4958225976) 202 340 2
(0.2674396341 0.3662801829 0.3403224739 0.02595770907) 53 106 1
(0.7702087213 0.1148956394 0.01112023436 0.103775405) 237 465 2
(0.4587832168 0.05162204875 0.2706083916 0.2189863429) 142 281 2
(0.4186825893 0.07423163734 0.2906587054 0.216427068) 49 98 2
(0.08957569525 0.4552121524 0.1679217036 0.2872904488) 232 399 1
(0.164299053 0.04640719722 0.3714432763 0.4178504735) 265 464 2
(0.4422240062 0.2788879969 0.2352121253 0.04367587155) 83 162 2
(0.5297744715 0.05607347662 0.1790392876 0.2351127642) 25 1081 1
(0.2095942406 0.3952028797 0.1011655586 0.2940373211) 173 283 1
(0.5247617701 0.2376191149 0.06710355731 0.1705155576) 106 209 2
(0.7772258618 0.03992364608 0.07146342303 0.1113870691) 206 406 1
(0.3776397503 0.02479598782 0.286384137 0.3111801249) 472 871 2
(0.3299854162 0.2225816727 0.1124256192 0.3350072919) 176 347 1
(0.1089753737 0.4455123132 0.242642633 0.2028696802) 50 100 1
(0.4829148144 0.2378368856 0.2585425928 0.02070570723) 76 151 2
(0.6382099828 0.03985968911 0.1808950086 0.1410353195) 235 461 1
(0.06648517184 0.4667574141 0.407958866 0.05879854804) 236 407 1
(0.6651728661 0.1643343425 0.003079224409 0.1674135669) 85 168 1
(0.1058993907 0.4470503046 0.4225563873 0.02449391738) 83 164 2
(0.5071926702 0.2464036649 0.1144370253 0.1319666396) 409 805 2
(0.2796462332 0.3601768834 0.2675500588 0.09262682463) 82 104 1
(0.07568373556 0.4621581322 0.3601813601 0.1019767721) 118 233 2
(0.6717931484 0.1641034258 0.08188064274 0.08222278308) 83 165 1
(0.2150709496 0.3924645252 0.04913639809 0.3433281271) 203 400 2
(0.2111666369 0.03279891395 0.3616177676 0.3944166816) 119 176 2
(0.1825074173 0.4087462914 0.1506811056 0.2580651858) 283 555 2
(0.3933596679 0.1433598668 0.1599602993 0.303320166) 48 95 1
(0.07942692641 0.2082117188 0.252074818 0.4602865368) 205 404 1
(0.4167291509 0.2916354246 0.01946767269 0.2721677519) 328 646 2
(0.6440366035 0.1628933802 0.1779816982 0.01508831802) 84 167 2
(0.002031022688 0.4989844887 0.3321954354 0.1667890532) 116 171 1
(0.6777664867 0.1611167566 0.1185282116 0.04258854507) 172 281 1
(0.07872340736 0.3964880924 0.06415020393 0.4606382963) 296 583 1
(0.4115054086 0.2942472957 0.05220862419 0.2420386715) 323 578 1
(0.05809949965 0.4709502502 0.1075217234 0.3634285268) 50 97 2
(0.7205347237 0.004855006904 0.1348776313 0.1397326382) 15 1071 1
(0.1355792359 0.4322103821 0.3518029341 0.08040744795) 52 101 2
(0.09370932893 0.4094371393 0.04370819624 0.4531453355) 170 277 2
(0.3901490177 0.224885501 0.3049254911 0.08003999016) 268 526 1
(0.1725966623 0.2319874328 0.1817142361 0.4137016689) 208 410 1
(0.1955136841 0.389859731 0.01238342692 0.402243158) 233 401 2
(0.3638128421 0.2937318498 0.318093579 0.0243617292) 354 695 1
(0.8402639244 0.07986803781 0.04737560477 0.03249243305) 83 162 2
(0.3289143581 0.3355428209 0.2971810821 0.03836173882) 59 1042 2
(0.09095509098 0.3541383779 0.1003840766 0.4545224545) 204 402 1
(0.6660458351 0.08521027725 0.08176680518 0.1669770824) 144 284 1
(0.2291217686 0.1185124006 0.2669267151 0.3854391157) 86 170 1
(0.5650938406 0.2174530797 0.1194418974 0.09801118227) 174 285 1
(0.1711828796 0.2014912327 0.4144085602 0.2129173275) 58 113 1
(0.9512083651 0.006530937318 0.01786488013 0.02439581744) 148 292 1
(0.2352388366 0.3823805817 0.2834665486 0.09891403308) 170 277 1
(0.03975058139 0.4801247093 0.3144223668 0.1657023425) 87 173 1
(0.688172387 0.1559138065 0.1177280539 0.03818575258) 24 49 1
(0.6981161026 0.1509419487 0.01000518409 0.1409367646) 134 206 1
(0.5851555567 0.02901784625 0.1784043754 0.2074222216) 208 352 2
(0.231904911 0.3840475445 0.3801094813 0.003938063194) 84 164 2
(0.4117696958 0.2941151521 0.02307607626 0.2710390758) 54 107 2
(0.1773004466 0.4002988133 0.4113497767 0.01105096336) 145 284 1
(0.02955414498 0.4852229275 0.3136190165 0.171603911) 26 1082 2
(0.7120340236 0.1439829882 0.1125848474 0.03139814074) 109 213 2
(0.3282529962 0.3358735019 0.3145433875 0.02133011439) 12 24 2
(0.3959792749 0.1539702042 0.3020103625 0.1480401583) 136 269 2
(0.1671967271 0.2166319614 0.4164016365 0.199769675) 53 106 2
(0.6855398995 0.1572300502 0.1052191055 0.05201094476) 23 44 2
(0.8028294892 0.0985852554 0.06667006308 0.03191519233) 238 469 2
(0.7106731986 0.01228915879 0.1446634007 0.1323742419) 139 272 1
(0.7968265441 0.101586728 0.05448322971 0.04710349825) 418 765 1
(0.2451591633 0.3774204184 0.33011522 0.04730519839) 56 53 1
(0.5714767386 0.2142616307 0.07023592533 0.1440257053) 58 57 1
(0.1881215673 0.4059392164 0.3988241742 0.007115042212) 148 292 2
(0.2436028839 0.3781985581 0.1643679971 0.2138305609) 20 41 1
(0.2482192651 0.3758903674 0.07056303733 0.3053273301) 56 53 1
(0.5718514152 0.1316683007 0.08240599167 0.2140742924) 15 1071 1
(0.05402251408 0.472988743 0.1800678281 0.2929209149) 172 340 1
(0.7851146709 0.1074426645 0.06674633439 0.04069633014) 76 92 1
(0.7409295533 0.1295352234 0.02391714049 0.1056180829) 59 115 2
(0.3177067975 0.1878180559 0.1533285453 0.3411466012) 115 169 2
(0.04702295088 0.08525809716 0.3912304274 0.4764885246) 137 270 1
(0.3241253919 0.0782824131 0.3379373041 0.259654891) 267 527 2
(0.7261122848 0.1369438576 0.01149646241 0.1254473952) 115 228 1
(0.8253748845 0.06283549527 0.02447706249 0.08731255777) 148 292 1
(0.04114241982 0.4794287901 0.2700792593 0.2093495307) 325 641 1
(0.01623603899 0.4918819805 0.1820794382 0.3098025423) 101 199 2
(0.1242916174 0.04563185948 0.3922223318 0.4378541913) 144 226 2
(0.7423266723 0.01221176272 0.1166249012 0.1288366639) 149 1045 1
(0.2799446796 0.3600276602 0.0743962859 0.2856313743) 416 817 2
(0.2715714546 0.3642142727 0.161330441 0.2028838317) 229 393 1
(0.05986722633 0.2968727867 0.4700663868 0.1731936002) 111 220 2
(0.7360704154 0.1319647923 0.02925391806 0.1027108742) 86 170 2
(0.1737599542 0.4131200229 0.1832776884 0.2298423345) 26 52 2
(0.6444693169 0.0880700055 0.1777653416 0.08969533607) 48 96 2
(0.8492236242 0.05317869821 0.02220948966 0.07538818788) 286 505 2
(0.4646211924 0.06389260101 0.2037968028 0.2676894038) 27 1083 1
(0.3790609723 0.3104695138 0.03352570995 0.2769438039) 56 112 1
(0.2548995519 0.2374312444 0.1351189796 0.372550224) 113 165 2
(0.08895173935 0.4555241303 0.1676697266 0.2878544037) 287 565 2
(0.08245000299 0.4587749985 0.2619589512 0.1968160473) 59 58 1
(0.372355886 0.2353963264 0.07842573065 0.313822057) 16 32 1
(0.1308553062 0.4345723469 0.3222361519 0.112336195) 209 410 2
(0.03413491371 0.03970351111 0.4829325431 0.443229032) 178 349 1
(0.1419163834 0.4290418083 0.2677081427 0.1613336656) 445 874 2
(0.2306970021 0.384651499 0.1587258632 0.2259256358) 174 344 1
(0.1951653832 0.4024173084 0.006160080742 0.3962572277) 206 406 2
(0.2986307154 0.2909067916 0.3506846423 0.05977785065) 447 878 1
(0.1857297285 0.4071351358 0.2118081409 0.1953269949) 21 42 2
(0.07791978342 0.1729458774 0.4610401083 0.2880942309) 236 466 2
(0.5360603924 0.2238940993 0.2319698038 0.008075704468) 52 104 2
(0.7643329624 0.1178335188 0.04179745921 0.07603605958) 51 102 1
(0.03410435185 0.06965482467 0.4132929994 0.4829478241) 44 29 2
(0.2282814182 0.3858592909 0.1554864725 0.2303728184) 414 757 1
(0.101005707 0.4494971465 0.2878716419 0.1616255045) 117 232 1
(0.3954722259 0.302263887 0.1058643812 0.1963995058) 49 95 2
(0.2408108679 0.379594566 0.08910928617 0.2904852799) 86 168 2
(0.7426327426 0.1093707983 0.1286836287 0.01931283041) 178 352 2
(0.7007975955 0.1496012023 0.05326118885 0.09634001342) 21 40 2
(0.817718289 0.09114085548 0.06100409618 0.0301367593) 267 526 2
(0.6289870057 0.06645847618 0.119048021 0.1855064971) 82 104 2
(0.5272398756 0.02755164985 0.2088284124 0.2363800622) 289 511 2
(0.2995923576 0.01044165867 0.3397621625 0.3502038212) 134 206 2
(0.3505339267 0.1940711442 0.3247330366 0.1306618924) 161 315 1
(0.1358703092 0.3195223619 0.4320648454 0.1125424835) 320 628 1
(0.103275308 0.2245765354 0.448362346 0.2237858105) 138 270 1
(0.2255123659 0.3428980543 0.0443457628 0.3872438171) 173 341 1
(0.3186602368 0.3406698816 0.1073629477 0.2333069339) 75 148 2
(0.3725724603 0.3137137698 0.2943483363 0.01936543359) 267 524 2
(0.5725428069 0.005336404134 0.2137285965 0.2083921924) 75 149 2
(0.6114165176 0.1942917412 0.03158781942 0.1627039218) 106 151 1
(0.1741914657 0.03745876977 0.3754454974 0.4129042672) 135 266 1
(0.249552657 0.0107445507 0.3752236715 0.3644791208) 145 284 1
(0.09704567147 0.4514771643 0.2048401201 0.2466370441) 57 113 2
(0.6054331909 0.1972834045 0.08676432362 0.1105190809) 298 588 1
(0.1698343386 0.07370012878 0.3413827019 0.4150828307) 20 1076 1
(0.786738915 0.09090545336 0.01572508916 0.1066305425) 144 226 2
(0.6848831098 0.1575584451 0.1318249404 0.0257335047) 141 220 1
(0.356144779 0.3219276105 0.1454164756 0.1765111349) 179 1046 2
(0.1985694493 0.3332471337 0.4007152754 0.06746814166) 111 217 1
(0.2781749957 0.305828175 0.05508432714 0.3609125021) 230 453 1
(0.4868950894 0.210662691 0.2565524553 0.04588976428) 174 344 2
(0.1722415505 0.4138792248 0.07007400365 0.3438052211) 148 290 2
(0.14567407 0.281401319 0.145761646 0.427162965) 51 43 2
(0.4815387286 0.2592306357 0.06994468823 0.1892859474) 49 39 1
(0.3655269532 0.154405222 0.3172365234 0.1628313014) 298 585 1
(0.2871040787 0.3564479607 0.2136003515 0.1428476092) 262 514 2
(0.2507640219 0.2365432338 0.3746179891 0.1380747553) 80 156 1
(0.3066791165 0.06344698086 0.2832134609 0.3466604418) 164 323 1
(0.609533513 0.1952332435 0.08864955637 0.1065836871) 176 348 1
(0.1312924203 0.2675778838 0.166775906 0.4343537898) 419 1054 1
(0.1493780255 0.2633867696 0.4253109872 0.1619242176) 228 450 2
(0.2879545347 0.05437922445 0.3560227327 0.3016435082) 207 409 2
(0.05514838743 0.404568256 0.4724258063 0.06785755027) 77 150 1
(0.1576124578 0.4114740991 0.009719672037 0.4211937711) 142 280 1
(0.3060483193 0.2248914131 0.1220844272 0.3469758403) 193 380 1
(0.464072546 0.06670449421 0.2012592328 0.267963727) 49 97 1
(0.5671182087 0.2164408957 0.09685615019 0.1195847455) 229 449 2
(0.3439340924 0.3146982996 0.3280329538 0.01333465423) 88 172 1
(0.003171796371 0.4984141018 0.06025495782 0.438159144) 110 215 2