/*--------------------------------*- C++ -*----------------------------------*\
| =========                 |                                                 |
| \\      /  F ield         | OpenFOAM: The Open Source CFD Toolbox           |
|  \\    /   O peration     | Version:  2406                                  |
|   \\  /    A nd           | Website:  www.openfoam.com                      |
|    \\/     M anipulation  |                                                 |
\*---------------------------------------------------------------------------*/
FoamFile
{
    version     2.0;
    format      ascii;
    arch        "LSB;label=32;scalar=64";
    class       scalarField;
    location    "0.004/lagrangian/dsmc";
    object      Ei;
}
// * * * * * * * * * * * * * * * * * * * * * * * * * * * * * * * * * * * * * //


9485
(
2.162289735e-20
3.396332794e-20
9.161518163e-21
9.962288402e-21
2.583348485e-20
1.407726139e-20
6.467087212e-21
1.407268066e-20
1.292402413e-20
7.558858954e-21
1.47209678e-20
1.03408754e-20
4.059160668e-21
3.040404842e-21
1.669317137e-21
1.94127874e-20
1.263615864e-20
1.358661276e-20
4.693053175e-21
1.335107703e-20
3.277356906e-21
1.602919167e-20
1.59243287e-21
6.148543026e-22
1.399105779e-20
1.175187527e-21
3.174293434e-21
1.414922508e-20
8.426727041e-21
9.44182452e-22
1.381253162e-21
1.855130335e-20
4.048727041e-21
1.147198492e-21
1.909646045e-21
1.162891062e-20
3.960340048e-21
1.248796639e-20
2.923099047e-21
1.289901092e-20
1.133897443e-20
9.294264788e-21
8.427160318e-22
2.599236328e-21
3.020232775e-22
7.361430595e-21
1.628500952e-20
7.460318191e-21
6.24939045e-21
1.705768099e-21
5.590148473e-21
5.786314268e-21
8.489528689e-23
1.67430272e-20
2.386156022e-21
1.102978567e-20
1.454011958e-20
1.653456272e-20
7.660551296e-22
6.1025514e-21
3.659350915e-21
2.530802711e-21
1.044574674e-21
4.423762724e-22
1.80647284e-22
6.63330823e-22
3.645596203e-20
3.883807373e-21
6.128174375e-22
3.215661577e-21
1.387575406e-20
1.622401114e-20
6.105495869e-21
1.479147992e-21
3.566871524e-21
2.223071374e-20
1.837559078e-21
2.548294042e-22
2.446182272e-21
1.919414584e-21
2.335283224e-20
1.802724536e-21
1.359630445e-20
5.630238273e-21
7.896321157e-21
1.001647058e-20
5.339222273e-21
1.24901989e-20
1.717375325e-20
3.083368443e-20
7.362194808e-21
4.010654818e-21
1.048938297e-20
4.789076275e-21
6.956009307e-21
2.78008851e-21
1.264860684e-20
4.090948959e-22
1.698103828e-20
3.332171624e-20
7.454069233e-21
9.67451062e-22
1.761808316e-20
1.815830768e-20
5.885986344e-21
2.257524963e-21
7.880365604e-21
1.047217144e-20
3.656800934e-21
1.554356574e-20
1.368807991e-20
2.598191297e-20
3.321537215e-21
4.061055052e-20
8.455623909e-21
1.483153663e-20
6.396221412e-21
1.02885887e-20
9.751154542e-22
7.423184014e-21
1.352899192e-21
1.539586471e-21
1.307074716e-20
1.200458979e-20
9.075107493e-21
4.254111575e-21
1.046039674e-20
1.236874882e-20
1.186420629e-20
6.709909016e-21
1.709039976e-20
2.320924414e-21
4.903798863e-21
1.951075752e-20
1.115238975e-20
2.45579702e-21
1.541002238e-21
4.45056223e-21
4.78321542e-21
3.182512194e-20
1.678801306e-20
2.081601508e-21
4.67799908e-21
1.694878577e-20
8.34814899e-21
2.758639441e-20
4.13097115e-21
1.634338776e-20
2.27958337e-21
4.644550019e-21
3.814519889e-21
1.958331559e-20
7.529105793e-22
4.665026992e-21
2.46365568e-20
1.178455208e-20
6.848632691e-21
1.137685389e-20
2.82538806e-21
1.741791495e-20
2.051904839e-20
5.651455482e-21
5.894728667e-20
5.19796191e-21
2.047840907e-20
4.905554127e-21
7.354460902e-21
2.353547364e-21
6.569550178e-21
1.703064851e-20
1.609439772e-20
2.339439682e-20
8.934293036e-21
6.349975776e-21
1.400242302e-20
3.026430698e-21
6.943826219e-21
3.671855452e-22
1.769217661e-21
7.993214486e-23
1.932729095e-20
8.243697714e-21
5.329613618e-21
2.691046507e-21
8.585827347e-21
4.182017654e-21
9.189470786e-21
1.749243781e-21
1.944894899e-20
2.243407691e-20
2.60779736e-20
3.220434095e-21
6.760533549e-21
2.882977395e-21
1.599162219e-20
6.896730498e-21
6.843349524e-21
3.732161693e-20
1.541512877e-20
8.138152085e-21
1.115365236e-20
1.8909738e-21
6.394183943e-21
9.923349283e-21
1.584837853e-20
1.497834964e-23
2.324294413e-20
3.114304746e-21
5.887658587e-21
1.913908166e-20
3.788096583e-21
3.800879129e-21
9.637654699e-21
2.209091348e-21
1.255640967e-21
1.662135144e-21
8.436306302e-21
1.245412694e-20
1.022384228e-20
9.809321736e-21
1.011966304e-21
1.134409411e-21
7.876971207e-21
5.346144125e-21
2.390809967e-20
2.090993084e-21
1.280252502e-20
6.17412665e-24
1.631821604e-21
1.756580515e-20
7.215126965e-22
1.024043806e-22
3.859288169e-21
9.468732168e-21
5.119579619e-21
2.539734135e-20
6.716343308e-21
6.608703304e-21
7.485106159e-21
5.096904179e-21
3.004328142e-21
7.6577351e-21
1.88392364e-20
3.019665648e-20
6.392095153e-21
7.881506598e-21
1.564640278e-20
8.874959178e-21
4.060140419e-20
3.788394928e-21
6.524733685e-21
3.956806397e-21
4.421530386e-21
2.963053394e-21
1.299861615e-20
4.655834108e-21
1.038842939e-21
3.723005262e-20
2.904552923e-20
1.027876363e-20
5.089205325e-21
9.593958651e-21
6.094314412e-21
1.146833796e-20
7.75253567e-21
2.993675144e-21
2.535452076e-21
1.629539869e-20
8.981865475e-21
1.06696727e-20
5.635371402e-21
2.223271725e-20
5.2614187e-21
3.246319676e-21
6.325847363e-21
2.418320204e-21
2.032177165e-20
2.746509843e-20
5.868616225e-21
1.636200192e-21
6.906433203e-21
6.83187103e-21
6.555003382e-21
7.700218147e-21
5.486430512e-21
5.839362986e-21
5.159867378e-22
1.986738974e-20
1.117549042e-21
2.954105966e-21
1.376574258e-20
1.671277794e-21
1.577671688e-20
2.468194457e-21
1.124233608e-20
9.77656754e-21
1.271113961e-20
9.095407802e-21
6.061153375e-21
1.549050757e-20
3.453551793e-20
2.521143822e-21
1.646292063e-20
1.213273254e-21
1.2190758e-20
3.218819857e-21
2.344416756e-20
3.567285824e-20
1.923616522e-21
2.34112733e-21
9.10539047e-21
2.73546851e-20
1.124090771e-21
1.751827337e-20
1.804474715e-20
4.319932012e-21
1.116333001e-20
1.263760885e-20
1.775235714e-20
1.498457112e-20
3.859907526e-22
3.494465819e-20
2.057300639e-20
1.73891896e-20
3.370710998e-22
3.991505905e-22
2.214298462e-20
5.630848623e-21
3.357782434e-20
1.222215649e-20
4.919786171e-22
3.752773016e-20
1.238765712e-20
8.211597834e-21
4.848470968e-21
1.406529436e-21
1.219622341e-20
3.430060247e-21
9.576245301e-21
2.054911678e-21
8.778916075e-21
1.238878013e-20
3.154498659e-21
2.349174597e-20
2.193754417e-20
3.179349549e-21
3.043557639e-21
3.708308835e-21
2.171911641e-21
5.865011938e-21
1.202177365e-20
6.691403718e-22
5.287835038e-21
1.054459512e-21
1.677544896e-20
3.320934412e-20
1.708017546e-20
1.010312472e-21
1.012606614e-20
1.727727717e-21
1.901506531e-20
1.27527855e-20
1.960671514e-20
4.033507064e-21
4.36573936e-22
3.096417889e-21
2.994012432e-21
1.070593822e-20
1.014071891e-21
1.33810288e-21
1.168929872e-20
2.384394067e-21
2.037678626e-20
7.041496281e-21
2.135541508e-21
8.157027853e-21
1.183154387e-20
2.287280452e-22
1.669986283e-20
1.373169104e-20
2.465853105e-20
6.421601118e-21
2.834303239e-21
1.568947865e-21
2.391282185e-22
9.055221759e-21
4.348685188e-21
1.299152869e-20
1.113230198e-20
1.680700473e-21
6.667797068e-21
3.226062702e-21
1.951627882e-21
6.217126695e-20
1.157815633e-21
1.089727963e-22
3.401391212e-21
1.783798461e-20
6.154202153e-22
3.639696343e-20
2.39551769e-20
2.479100442e-20
1.319981408e-20
1.064125236e-20
1.08890823e-20
2.000252186e-20
7.346175947e-21
3.142915325e-22
1.792837707e-22
2.217555269e-21
4.027073037e-21
1.105215915e-20
1.181821108e-21
9.337251711e-21
1.436704869e-21
1.330106285e-21
4.222897634e-21
3.007018466e-20
2.777573435e-21
5.661938826e-21
4.183194806e-21
2.896543399e-21
7.23615927e-21
4.160870788e-21
7.393458373e-21
1.938203564e-20
4.041406613e-20
4.713563331e-21
1.437165936e-20
1.269954467e-20
2.839773401e-22
1.520119789e-20
5.744050384e-21
9.205258732e-21
7.996627716e-21
6.865822942e-23
4.332541959e-21
6.647236791e-21
3.643759025e-22
2.993692772e-20
2.003889892e-20
1.080311826e-22
1.540296507e-20
4.310085117e-22
3.505939132e-20
2.930973224e-20
8.022726992e-22
3.527171803e-21
1.077808523e-20
1.032711752e-20
1.471973501e-20
1.917812766e-20
1.247838258e-20
1.501260753e-20
1.665882864e-20
1.647196857e-20
2.702156116e-22
4.513198735e-21
1.046206907e-20
1.977727851e-21
1.63359494e-20
4.696794522e-21
1.900489051e-20
8.680705798e-21
2.177858709e-21
4.295153634e-21
1.595484466e-22
2.597496655e-20
2.805085639e-20
8.07072756e-22
1.827267251e-20
2.550414238e-20
1.149730637e-20
2.667499599e-21
1.527266507e-20
8.976039426e-21
2.357754728e-20
1.942206599e-20
1.901528132e-20
2.196442238e-20
1.008599989e-20
2.989860694e-21
1.354024596e-20
3.856915615e-21
9.364944967e-21
6.028693949e-20
2.810931161e-20
8.687919306e-21
7.844111289e-20
2.529128729e-21
1.48716654e-21
8.483391974e-21
2.409340999e-20
2.710495959e-20
6.023434637e-22
1.264116761e-20
1.191057464e-20
1.489954197e-21
3.800980391e-20
6.857839572e-21
2.549200797e-20
1.109416012e-20
6.600857518e-21
3.486415207e-21
9.099547115e-21
1.331328498e-20
8.797584046e-21
1.017001447e-20
1.351704967e-20
2.402690513e-20
1.624249284e-21
1.273420901e-20
1.980392799e-20
6.682192285e-21
1.070117372e-21
2.186332459e-20
5.955992331e-21
1.235995026e-20
2.146128747e-20
8.169655196e-21
1.14010929e-20
1.332150512e-20
2.548342136e-20
5.581713513e-21
6.621847888e-21
1.140745737e-21
2.622326448e-21
1.823840718e-20
1.58832726e-21
2.083461845e-21
9.906761231e-21
1.837967307e-20
7.405391418e-20
4.843294905e-21
2.774478293e-21
4.008458953e-21
2.377507309e-20
1.254837663e-20
5.86452204e-21
3.930593936e-21
2.52243442e-21
1.143603709e-20
5.30326896e-23
3.64822881e-21
6.605405988e-21
3.956525784e-21
2.227553356e-20
1.270788523e-20
3.578711151e-21
8.304647065e-21
4.140747215e-21
8.442408708e-21
5.294135038e-21
9.546134917e-22
2.409339776e-20
7.458295864e-21
7.713009801e-21
1.403241235e-20
4.136211342e-20
8.400025488e-21
9.420681524e-21
9.48953645e-21
3.208131339e-20
5.061892875e-21
7.393184606e-21
1.089456697e-20
5.778880341e-21
1.533533428e-21
1.628245836e-21
3.653291244e-21
1.112168005e-20
5.597688253e-22
3.230831628e-21
2.71669336e-20
2.395610453e-20
3.107453388e-22
1.420497984e-20
1.060967492e-20
4.328146168e-21
3.938330283e-21
3.162306341e-20
4.904733716e-22
1.084390122e-20
2.294422648e-21
1.72337756e-21
1.497168831e-21
3.34597025e-21
3.618443903e-20
6.804280918e-21
5.466697411e-20
1.11998898e-20
9.993578699e-22
1.933409512e-20
5.211712687e-21
1.368122642e-21
1.464117643e-20
1.299348858e-20
1.638348741e-20
4.788319244e-21
6.349313113e-21
7.153680703e-21
9.113258168e-21
4.521830568e-21
5.668420373e-21
1.425994896e-20
1.498605046e-20
4.039029348e-21
9.560170383e-21
7.332273397e-21
9.63910311e-21
9.581162096e-22
2.649604087e-21
1.642012083e-20
4.250908715e-20
2.760996676e-20
1.378360464e-20
1.08395352e-20
5.660213973e-21
5.094859099e-21
9.303678463e-23
8.426711022e-21
1.678431548e-21
7.446983472e-21
4.372576174e-21
2.117419862e-22
1.26781147e-20
9.670051318e-21
1.296886816e-20
1.490666441e-20
1.974718558e-20
3.694358282e-21
2.602605666e-20
2.901410084e-20
3.306335508e-20
1.357205927e-20
5.478868491e-21
1.007030629e-20
1.155290603e-20
7.515999403e-21
4.056528254e-20
2.016803222e-20
2.418784521e-20
2.805299146e-20
7.755612744e-21
1.807043425e-21
9.46425414e-23
7.658623316e-21
7.304216381e-22
2.901092618e-20
1.078432807e-20
1.092344149e-22
1.075056862e-20
7.462788369e-21
2.487677396e-21
9.030658365e-21
1.551360011e-20
2.124990594e-21
1.156006403e-21
1.064360757e-20
2.655559683e-20
9.063587919e-21
6.832890714e-22
2.66987271e-21
5.187688259e-21
1.74005956e-20
1.493889891e-20
6.093750862e-22
1.245514546e-20
1.07675563e-20
5.714907129e-21
1.147187286e-20
1.683084342e-20
5.484262051e-21
1.084327262e-20
4.623483314e-21
9.752581745e-22
1.35690654e-20
4.548019258e-21
6.802579692e-21
7.282312108e-21
9.596321708e-21
7.044360437e-21
9.004767725e-21
2.057384752e-20
1.031746565e-20
1.86947072e-20
1.758392377e-21
6.647734929e-21
5.446902725e-21
6.713874118e-21
1.247760367e-21
3.78351956e-22
1.055389479e-20
1.183548349e-20
4.170746321e-21
2.406985218e-20
2.863277782e-21
3.004824843e-21
6.772526565e-21
2.394341232e-20
8.420573835e-21
1.307991616e-20
2.506224629e-21
6.790761866e-21
1.596108056e-22
1.748739022e-20
1.273450426e-20
4.22411927e-21
1.621225672e-21
3.203610221e-21
1.005595649e-20
5.264215739e-21
3.086941881e-21
1.050744297e-20
1.440506601e-21
1.446571174e-20
1.018439697e-21
8.826058973e-21
1.538527286e-20
2.813160996e-20
8.954948573e-22
6.639160757e-21
1.716626228e-20
1.146215235e-20
1.108976929e-20
6.534452977e-20
5.337191867e-21
1.37535119e-21
8.579063284e-21
5.979071019e-22
2.669851496e-20
1.951060019e-20
3.274763489e-20
1.10684104e-20
1.538345937e-20
1.877323436e-20
3.437646264e-21
4.73684183e-21
3.353715195e-21
9.047043629e-21
2.731965119e-21
2.657593728e-20
1.534028033e-20
1.400982392e-20
6.085066557e-21
1.491294273e-20
3.406501598e-22
1.983355711e-22
3.768132866e-22
4.974142102e-21
1.148522344e-20
6.154481805e-21
1.289837426e-21
7.830684664e-21
9.328376679e-22
8.351473483e-21
2.618712013e-20
1.564862288e-20
6.803019534e-21
3.28280399e-20
1.873737759e-20
1.430669523e-21
9.13583054e-21
7.172168236e-21
1.510540431e-20
2.285708744e-21
1.076593562e-20
2.277348546e-20
3.662102471e-21
2.282671969e-20
4.278400966e-20
6.681186412e-21
2.577924661e-20
7.339715901e-22
8.206796663e-21
4.910184925e-21
1.332228388e-21
2.563467792e-21
5.742659847e-21
8.103432021e-21
1.992049579e-20
1.439404195e-21
4.775042407e-21
3.702043704e-20
1.138494175e-21
1.720872175e-20
1.687255833e-23
7.646566005e-21
9.411981218e-21
1.849823009e-21
1.389052915e-20
1.26644277e-20
1.791335722e-20
1.350942275e-20
2.015144866e-21
5.427197617e-21
1.054421966e-21
1.059452555e-20
3.233437009e-21
2.359526731e-21
5.973944128e-22
7.131916481e-21
1.06887977e-20
8.184725182e-21
1.433135884e-20
9.547791636e-21
1.764248171e-20
5.559948875e-21
1.574151426e-20
1.745225935e-20
3.485867211e-22
1.913479601e-21
1.970324712e-20
1.95022413e-20
7.623951851e-22
6.133995903e-21
1.849086233e-20
3.08572741e-21
5.295348334e-20
6.273395907e-21
2.190945461e-21
2.799050827e-20
2.320535685e-20
2.762932328e-20
5.492055527e-21
2.661050844e-21
8.122940553e-21
1.123841157e-21
1.299858167e-20
4.389811999e-22
1.327088947e-20
1.895328462e-20
2.127916031e-21
2.677576944e-21
3.996647829e-20
2.40504148e-21
6.660871318e-21
9.751202638e-21
7.665995413e-21
1.173780666e-21
1.007684631e-20
6.354557025e-22
1.694232241e-20
3.006584072e-20
1.026841273e-20
6.807123672e-21
2.8396654e-20
4.175913592e-21
1.276767514e-21
2.385660024e-22
1.410620061e-20
6.434110404e-21
1.291777686e-22
1.392463754e-20
1.23857623e-21
2.362501406e-23
1.306631635e-20
3.021923073e-20
6.434037556e-21
2.066187071e-20
2.575550816e-20
5.212438396e-21
1.650108981e-21
5.095932658e-21
1.270788135e-20
4.354089861e-21
5.775544355e-21
1.154010994e-20
1.581687927e-20
5.394570311e-21
1.053969571e-21
1.208292066e-20
4.840194774e-20
2.180721642e-20
1.711135116e-21
3.559467563e-21
2.647752544e-20
1.548201139e-20
5.862637259e-21
1.752164715e-21
1.357885514e-21
5.22855978e-21
1.769373072e-20
5.34856796e-21
1.442789764e-20
1.804535446e-21
3.146472706e-21
3.561484274e-21
7.168771519e-21
1.377859965e-21
2.079595176e-20
4.048391681e-21
2.013096649e-21
3.919164711e-21
1.133497651e-20
2.172074251e-21
3.256139489e-20
3.187074194e-21
4.047073309e-21
2.416386434e-20
1.404570238e-21
3.551481339e-21
4.577672868e-21
5.814586664e-22
4.968001178e-21
2.40333447e-21
1.497381968e-20
1.615701846e-20
1.158883383e-21
2.747473515e-21
6.304895556e-21
2.564501725e-21
9.17725121e-22
2.1718144e-21
3.30193417e-21
4.763624899e-20
9.403299724e-22
2.385667577e-21
3.537323041e-21
4.29819811e-20
5.782474146e-20
5.498189095e-20
1.955855727e-21
1.277680295e-20
2.508880558e-21
2.644374618e-20
1.712766592e-20
1.193881982e-21
4.04762415e-21
1.01564364e-20
8.520867795e-21
1.323827514e-21
1.654449444e-21
3.704355203e-21
1.023638585e-20
1.993203871e-20
9.35699561e-21
5.924139006e-22
2.166412764e-22
2.52938417e-21
3.395508898e-21
1.960491315e-20
4.541806734e-21
7.75980529e-22
1.965431848e-20
1.757528153e-21
3.345279106e-21
2.836886647e-21
3.759718887e-20
4.186937019e-21
6.050077479e-21
4.131193512e-20
2.283986681e-20
1.204605497e-20
3.661603008e-21
9.129622873e-22
9.108883672e-21
5.51173257e-21
7.148893046e-21
3.277371727e-22
1.297831535e-20
2.88977658e-20
2.754864937e-20
1.408166706e-22
9.773082409e-22
1.014494732e-20
1.275795819e-21
2.180057041e-21
2.02757876e-20
2.134774428e-21
1.117317904e-21
9.962504906e-21
6.944202454e-21
3.40034786e-21
7.995104837e-22
4.498980257e-21
5.149403088e-20
1.234252486e-20
3.534893749e-21
8.160391475e-21
4.814616159e-20
2.273388813e-20
5.774551878e-21
1.040734432e-20
4.602835133e-21
6.233372134e-21
1.457034482e-21
2.340149253e-21
4.282262166e-21
1.953924996e-20
7.413410906e-21
2.672760628e-21
9.532061988e-21
1.099567804e-20
7.754180711e-22
4.237253072e-22
4.518721376e-21
9.04215653e-21
1.865316318e-21
2.911776372e-21
2.017672851e-21
1.614091543e-21
1.352336384e-20
8.13775451e-21
2.533369247e-20
1.622131379e-20
1.91277904e-20
2.876470097e-20
5.775282872e-21
2.385653343e-20
2.129896734e-20
3.114972101e-21
1.350724999e-20
3.071844942e-20
2.151764803e-20
3.846343554e-21
3.382180099e-21
9.739366156e-21
4.486855945e-20
1.310794088e-20
1.261876861e-20
4.002749859e-21
8.839661865e-21
1.157227759e-20
9.845219225e-21
1.768537959e-21
3.023760221e-20
2.424649933e-20
6.843210346e-21
4.321339628e-21
3.648778117e-22
7.343094528e-21
3.871611994e-21
1.140354954e-20
3.230206249e-21
8.477689975e-21
4.864874906e-20
1.084340536e-20
2.904637597e-21
1.594633045e-20
3.668388696e-21
2.070280884e-20
9.427867759e-21
1.249157701e-20
1.092638344e-21
1.462074731e-22
1.566824836e-21
1.690696146e-21
7.660783935e-21
2.814446767e-21
4.525971199e-21
4.120260185e-21
5.516245651e-22
4.157412154e-21
8.08284894e-21
1.40384951e-20
1.063705796e-20
7.327407882e-21
4.319745809e-21
1.02654946e-20
4.343506155e-21
6.633428973e-21
2.957074924e-21
1.038569206e-21
1.060538674e-21
9.648727869e-21
6.104177142e-20
4.384899875e-20
6.924321114e-21
1.298714463e-20
1.381897688e-20
5.194828249e-21
6.27580531e-21
2.411710653e-20
1.030820174e-21
6.583130428e-21
6.12327008e-21
8.090565855e-21
3.028625562e-20
4.39750466e-20
2.556408462e-20
4.15356834e-21
3.286766773e-20
1.307990075e-20
2.402109433e-20
3.312564282e-20
1.014397552e-20
6.664930392e-21
1.363988998e-20
8.28586254e-22
4.70106139e-21
3.955412917e-21
1.954057452e-21
3.579532185e-21
1.71568264e-20
1.101520044e-20
7.683725003e-22
5.214919062e-21
4.784736611e-22
4.230597106e-21
1.171402932e-20
4.263605499e-20
1.065356695e-20
1.522720478e-20
4.223995481e-21
5.35346206e-21
1.935139837e-21
5.518692874e-21
2.396514213e-21
6.61275739e-21
2.172863366e-20
1.909989911e-20
1.403992064e-20
3.949504933e-21
4.488736311e-20
1.524820647e-22
2.280323279e-21
1.150110272e-21
1.253914268e-20
6.722394492e-21
1.241703523e-20
2.620594659e-20
6.752314205e-21
4.040870801e-20
2.854742125e-20
1.442488287e-21
3.05379876e-20
1.90943491e-20
1.760476177e-20
9.752187897e-21
3.457563594e-21
2.015901322e-21
6.664480288e-21
1.232772937e-20
5.770256592e-21
6.3528026e-20
2.743143359e-20
1.75700442e-20
6.431202163e-21
1.319231301e-22
1.214872234e-21
1.649459107e-20
4.915636013e-20
1.280398286e-20
3.037715173e-21
1.7728861e-21
1.339266211e-20
6.11519642e-22
8.242082089e-21
2.102233948e-21
5.598746907e-21
1.577429964e-20
4.609396471e-22
4.571579182e-21
1.77165246e-20
1.480862624e-20
6.186441923e-20
4.76414126e-21
9.627014577e-21
9.28674684e-21
9.493577793e-21
6.070770041e-21
6.104006727e-22
2.964269352e-21
1.136517081e-20
1.539066869e-22
4.231795338e-21
1.110688692e-20
5.407777537e-21
7.073525035e-21
2.297974148e-20
5.028899777e-21
1.133391864e-20
3.326796955e-21
7.769682344e-21
2.386440953e-21
1.622568587e-20
2.522241302e-20
6.714390496e-22
5.927074364e-21
3.140698472e-20
1.846460567e-21
2.894700571e-20
4.765785765e-21
5.129130202e-21
2.888571916e-21
1.357517092e-20
1.808882435e-20
2.429657633e-21
1.108719938e-21
8.341492555e-21
1.115010912e-20
2.676700186e-20
8.685125265e-21
1.438409413e-20
1.162272158e-20
4.156756161e-21
2.215567005e-21
8.226321467e-21
6.842614584e-21
1.011077396e-20
2.068636397e-20
3.866532847e-20
3.060581752e-20
2.713189462e-20
2.500655006e-20
1.551850803e-20
2.942696278e-21
3.04588277e-20
6.13772376e-22
4.103569848e-21
2.542479863e-20
2.719979227e-21
1.575660262e-21
7.932150212e-22
2.787886604e-21
1.849980147e-20
1.268644617e-20
7.821061227e-21
1.356792156e-21
1.862355375e-21
3.686789226e-20
4.768214187e-22
1.468701087e-20
1.695082116e-20
2.264005217e-20
1.12142087e-20
4.737542937e-21
5.075753972e-20
4.378854051e-22
4.617591958e-21
1.522723769e-20
1.198957441e-20
3.288090869e-21
1.850275175e-22
6.991702821e-21
2.436375802e-21
8.244487687e-21
2.371191556e-21
1.174906392e-20
6.245655075e-21
6.47976644e-21
8.595126729e-21
2.12744817e-20
9.068395341e-21
3.725689128e-20
1.745010148e-20
2.248394921e-20
4.53389182e-21
1.23722896e-20
1.930358434e-21
6.595326249e-21
1.094901413e-20
4.145587578e-20
1.471925386e-21
1.119858339e-21
8.351676605e-22
4.511679002e-20
6.735933145e-20
1.34574114e-20
8.679900905e-21
4.755546765e-21
1.584484697e-21
1.622590884e-20
2.061710274e-20
9.247254538e-22
1.106485469e-21
4.155214454e-21
5.445605599e-21
9.840657733e-21
2.418010013e-20
2.601285156e-20
1.375081839e-20
9.543408276e-21
5.13830726e-22
2.529262648e-20
3.065586051e-20
8.611296497e-22
1.14085989e-20
1.329040616e-20
2.103936267e-20
1.738569235e-20
2.072287611e-20
1.329115638e-21
4.502036035e-21
3.054729153e-21
1.8084033e-21
6.045879479e-21
1.393094604e-20
9.195735014e-21
1.574957045e-20
4.075714318e-21
1.004758883e-20
1.925275414e-20
4.943930262e-21
7.726187953e-21
3.906740374e-21
1.397368825e-20
4.972433618e-21
2.725946775e-20
3.922619039e-21
1.155190439e-20
7.559292015e-23
4.301476009e-21
1.240083916e-22
1.968662836e-20
3.54299432e-20
2.002381614e-21
5.312296382e-21
2.907566332e-21
2.961654224e-21
1.138560864e-21
1.807453152e-21
2.699814195e-21
8.624719778e-23
1.26379685e-20
2.198154936e-21
1.035030646e-20
1.384297577e-21
4.328190551e-20
7.509746628e-21
1.60771983e-20
3.387340807e-20
1.726700727e-20
1.732092458e-21
4.631748786e-21
3.295126713e-21
1.879160551e-20
8.699770091e-21
3.85019439e-21
1.110528249e-21
2.911452322e-20
5.608668776e-21
2.882071639e-22
1.158312236e-20
1.299152439e-20
9.36905751e-22
4.539655913e-21
3.051148229e-20
4.016449316e-21
3.93403449e-20
3.142649071e-21
5.815643942e-20
1.573184729e-20
1.003491057e-20
2.060856671e-21
2.915607425e-20
4.768010471e-20
7.058349343e-21
2.173001994e-21
1.227700254e-20
3.309896517e-20
4.321986947e-20
3.222660305e-21
2.170035507e-21
5.750794121e-22
4.485188574e-21
3.626146484e-21
7.417139927e-21
2.892555895e-21
8.163623184e-21
1.073525866e-20
6.906977334e-21
4.78136583e-20
4.787834293e-21
1.097684418e-20
4.102561154e-21
1.904121475e-20
3.955112726e-22
3.853816223e-21
1.229742343e-20
5.483476534e-21
2.120825951e-21
8.494178364e-21
4.326405112e-20
2.855961437e-20
8.71069678e-22
1.754202067e-20
3.427349268e-21
1.454276711e-21
1.888931196e-20
3.939163753e-20
9.149049285e-21
1.645607051e-21
1.36698392e-20
4.936707862e-21
1.774645917e-21
2.062738836e-21
6.106921689e-21
3.104575542e-21
4.603359423e-21
7.629416612e-21
1.516867872e-20
5.456200444e-21
1.009202202e-20
8.624225901e-21
1.387569066e-20
5.007179984e-21
2.440127471e-20
1.435097696e-20
1.843843054e-21
2.924492272e-21
7.499339581e-22
2.955790429e-21
5.034430834e-23
6.206208706e-21
1.837907586e-21
1.041896994e-20
1.308499143e-20
4.74555204e-20
1.715984273e-21
8.789718351e-21
1.955081734e-21
3.989499696e-21
3.892989099e-20
4.660669193e-20
7.438892484e-21
2.07265133e-21
5.203664668e-21
1.732923277e-21
1.523078675e-21
2.40258876e-20
3.362440555e-21
7.219539645e-21
1.536564917e-21
1.3092434e-20
7.618935258e-21
5.488121477e-21
1.201218086e-20
2.086379237e-20
1.166883798e-21
7.407537824e-20
9.530997272e-21
4.933656327e-22
6.010105567e-21
2.511867227e-20
1.059742881e-20
9.661012962e-21
1.368353601e-21
9.953265504e-21
5.163742254e-21
8.556193737e-21
2.96937207e-22
4.378000225e-21
2.129566364e-20
5.695580427e-21
3.599778489e-21
5.710030924e-21
2.821007617e-21
1.47711638e-20
5.258201613e-21
1.069818938e-22
2.507185428e-20
6.998536379e-21
1.090699677e-20
3.694253026e-21
3.638688509e-21
4.620120289e-21
3.014919303e-22
4.226631875e-21
2.464022254e-21
2.801771761e-21
1.77856879e-20
2.12198068e-22
1.77799756e-21
9.248212345e-21
1.385617693e-20
6.186067187e-21
1.805587907e-20
3.953362646e-20
6.464263796e-22
6.406879219e-22
3.467940336e-20
3.525038855e-20
1.440345696e-20
2.462770015e-20
2.236033902e-21
7.260394366e-21
1.250233807e-20
2.188693683e-21
9.005715774e-21
5.441236828e-21
1.564394013e-20
1.562665312e-20
1.910615772e-20
1.695525716e-20
2.197097547e-20
1.478712203e-20
9.56816166e-21
7.519126751e-21
8.7466141e-21
7.25612277e-21
4.661923471e-21
4.534072873e-22
3.094064792e-20
6.995139104e-21
7.027650751e-21
5.589629254e-21
5.797595853e-21
1.80112204e-20
1.284006744e-21
1.57131243e-21
2.710916978e-20
8.146221631e-21
6.385425208e-21
3.479356417e-21
7.700603205e-21
1.971219035e-20
4.185290202e-22
1.023695653e-21
6.276458639e-21
2.182213702e-20
1.882070336e-20
1.995646796e-21
1.083185178e-20
1.044072117e-20
1.317274757e-20
1.796292003e-21
1.017626808e-20
1.25524573e-20
1.178320026e-20
7.681245585e-21
1.019701686e-21
3.744165279e-22
7.130189107e-21
1.657514065e-20
1.609197011e-21
3.622386925e-21
1.945124382e-20
2.143935653e-21
7.95723413e-21
1.859322811e-20
2.718684241e-20
3.218561823e-22
1.372410902e-20
5.90264054e-21
1.278522806e-20
1.425771264e-20
1.473392393e-20
8.775950809e-21
7.823425307e-21
7.338946992e-21
9.666604596e-21
1.217571218e-20
3.772871538e-20
2.523329258e-20
4.619015271e-21
2.179628294e-21
2.443002639e-21
3.91999616e-20
2.062487425e-20
6.807505937e-22
1.611421173e-20
1.155488291e-20
6.644806254e-21
1.413259308e-20
9.575305608e-22
5.540028434e-20
2.889619812e-20
1.209066661e-20
7.259574186e-22
3.896509406e-21
2.771670082e-21
1.977539637e-21
3.619113399e-21
1.359259634e-21
1.626995782e-21
2.242892398e-20
3.454577854e-23
4.158422139e-21
2.08356817e-21
3.085172761e-21
1.350470713e-20
1.089579895e-21
3.279110746e-21
6.69556582e-21
1.563989651e-20
6.976790779e-22
4.153025799e-22
2.130389374e-20
2.727154093e-20
1.497219019e-20
8.746855711e-21
1.275609019e-21
7.343506771e-21
1.609271962e-21
7.821655792e-21
7.731868567e-21
5.593397911e-21
5.899583697e-22
5.050637973e-21
1.718400442e-21
1.052365443e-20
2.400364725e-21
2.131782786e-20
3.563052693e-20
4.20769012e-21
6.800944672e-21
8.480222936e-21
1.079026264e-20
1.377772165e-21
3.14336408e-21
1.476874322e-22
1.971237889e-20
1.871190167e-20
5.894723903e-21
9.349729872e-21
3.172663476e-21
3.797749578e-21
1.327100947e-21
5.385903515e-22
1.846402224e-22
1.372864086e-20
1.24923271e-20
7.490648405e-21
2.908923686e-21
1.109524289e-20
1.509232447e-21
1.074033128e-20
1.497574552e-20
1.839238836e-20
1.434177576e-20
8.079787921e-21
7.488525611e-21
1.320939507e-20
5.389368819e-21
5.148122189e-21
9.535388209e-22
4.049721623e-21
1.398723265e-22
3.638477784e-20
2.196546409e-20
7.811589428e-21
2.703511977e-20
7.649405113e-20
4.618107794e-21
1.676360551e-20
3.040532484e-21
1.067637683e-20
9.75999325e-21
3.045498729e-20
2.082050261e-20
1.937460624e-20
3.031980378e-21
5.363243281e-20
1.056897019e-20
1.024380117e-20
9.086131929e-21
9.939618021e-22
3.659763689e-21
7.466659553e-22
2.127950644e-20
1.603914747e-20
7.703413157e-21
5.525399379e-21
7.413258152e-21
4.987035087e-21
1.116010287e-21
2.348010155e-21
3.074003295e-20
9.100758274e-21
7.444833996e-21
2.457960356e-21
6.43431251e-21
1.02615217e-20
2.027166254e-21
9.796745066e-21
2.791906502e-20
1.410854813e-21
4.414586856e-21
1.711228254e-20
6.040130917e-22
8.999993164e-23
5.891487856e-22
6.574264709e-23
9.065899374e-21
1.547378594e-20
1.132014287e-20
5.323283637e-21
8.084001035e-20
5.021325598e-21
2.181032839e-20
2.90192944e-20
1.872183682e-20
1.06175756e-21
2.722944175e-21
1.002301156e-20
1.043915132e-20
1.119370859e-20
1.082402988e-20
8.260289978e-21
2.489960391e-21
2.804635998e-21
1.26906623e-20
3.602548885e-21
2.261443947e-20
5.247455639e-21
6.573853001e-22
1.130046977e-20
5.296449447e-21
1.402089588e-20
3.01892654e-20
3.802064285e-21
1.545036492e-21
1.80001927e-21
6.46280358e-21
1.258322761e-20
2.216930479e-20
3.343897372e-20
3.558008475e-20
5.090140568e-21
2.461655859e-20
2.142680077e-20
5.409542259e-21
5.207344119e-21
1.552098926e-20
5.284558865e-21
7.350984486e-21
1.125399463e-20
1.89039922e-20
4.905534833e-21
1.051894248e-20
5.75879485e-21
1.862202344e-20
9.017857174e-22
6.349430007e-21
5.974121265e-21
2.025212756e-20
4.376581836e-21
6.64498305e-21
9.306235747e-22
1.937756705e-20
7.606242524e-21
6.525927687e-21
6.579731514e-21
1.91605582e-20
1.426858802e-20
5.218988458e-21
2.009633026e-22
8.699438833e-21
8.504129086e-21
3.320175437e-21
9.649576594e-22
9.916871751e-21
2.091193871e-20
6.251644371e-21
4.842312914e-21
1.827073743e-21
3.043186431e-21
7.152757235e-21
3.96581372e-22
4.892965756e-20
2.022347975e-20
7.306575963e-21
1.11095661e-20
5.062283318e-21
2.296167453e-21
2.185434145e-20
5.089594818e-21
7.658806261e-21
4.377140342e-20
4.266898734e-21
1.629179143e-20
2.863945826e-21
1.803838737e-20
1.061239135e-20
1.096214552e-20
1.157771993e-20
4.247275863e-21
1.934141626e-21
5.934351821e-20
3.941772675e-22
1.115227333e-20
1.898195078e-20
5.222324782e-20
2.589860642e-21
1.80130218e-21
4.174930182e-20
2.500597738e-20
2.590722326e-20
4.635782885e-21
9.898670201e-21
3.908879588e-22
1.707230178e-21
3.907824772e-21
5.050402193e-20
3.223468383e-21
1.118043929e-21
5.176407173e-21
2.196274898e-20
2.919072974e-21
1.039399034e-20
5.837756338e-21
4.248939505e-21
3.717808002e-21
1.176209729e-20
6.322986638e-21
6.642547735e-22
6.153828178e-21
9.365155773e-21
9.300789922e-22
1.202834023e-20
8.228548194e-21
2.354231066e-20
6.008538464e-21
5.86104296e-21
2.383867342e-20
1.01641826e-20
3.377713017e-21
7.057697581e-21
5.764840799e-21
2.347290378e-21
3.703495244e-20
1.23445961e-21
1.098324657e-20
1.859097054e-21
1.373810385e-20
6.186554277e-21
1.575467913e-20
1.52752753e-20
6.175097925e-22
2.129629869e-20
6.821494966e-22
9.046740631e-22
1.811696964e-20
4.211773155e-21
1.230862289e-20
2.093316666e-20
4.296767628e-22
4.389586389e-21
2.542424517e-20
8.731534626e-21
5.193742492e-22
1.365393123e-20