/*--------------------------------*- C++ -*----------------------------------*\
| =========                 |                                                 |
| \\      /  F ield         | OpenFOAM: The Open Source CFD Toolbox           |
|  \\    /   O peration     | Version:  2406                                  |
|   \\  /    A nd           | Website:  www.openfoam.com                      |
|    \\/     M anipulation  |                                                 |
\*---------------------------------------------------------------------------*/
FoamFile
{
    version     2.0;
    format      ascii;
    arch        "LSB;label=32;scalar=64";
    class       labelField;
    location    "0.004/lagrangian/dsmc";
    object      origId;
}
// * * * * * * * * * * * * * * * * * * * * * * * * * * * * * * * * * * * * * //


9485
(
160707
160800
165000
168799
166629
167255
169826
171328
169277
168284
171449
170747
172549
172695
172191
174299
173896
170295
172564
175718
173276
174632
174752
174035
170107
172664
174212
173592
175234
174411
172794
174417
175519
171645
175855
172556
179201
176995
177171
175721
176125
178579
173686
175022
177282
176685
171019
177381
173883
178011
177584
178414
173184
174920
174620
176655
176936
177283
178235
174794
179049
173394
175839
178914
177472
177889
179211
179724
176641
178180
176849
177392
179002
179512
174201
179953
180040
180551
174416
176038
177387
179725
180247
179532
181096
178832
179335
180238
179704
180585
178806
179926
179943
180088
180263
180458
180693
171421
177777
180576
180714
181568
174599
180024
184014
168653
174300
176866
179431
180971
177867
179627
180559
174816
177973
179357
179703
179721
180342
180644
176136
170913
177253
178702
181366
181479
178489
181347
175008
179012
179817
180954
181886
181207
181665
183697
184312
175745
177779
181864
178485
180124
181169
182096
176667
177991
178732
181657
175945
180240
181567
182975
179124
180323
180642
181458
177377
180980
182494
182984
177503
178602
180765
181502
182404
182792
179811
180137
181357
179141
181369
181471
183296
180536
180666
181999
182991
183415
183798
178927
181257
181280
182079
182090
182206
182504
181380
173795
180343
180857
181464
181672
182488
182607
177390
180154
180161
181572
182390
182546
183084
183801
179108
176227
179813
180654
182284
182397
182909
182993
183219
184714
182496
182613
183526
184444
179322
183340
174819
179207
181563
182500
183527
178264
179930
181564
181771
181985
182693
182892
185235
177276
179634
181861
182774
181256
181353
185542
179504
181956
182203
184232
181062
182672
183813
184558
184945
177675
179205
179347
182519
183196
183334
183412
183414
183634
184720
185641
179226
180026
181570
183418
184548
179007
180547
181177
181873
184437
186561
178627
180430
181070
182308
182776
183819
185017
180763
183811
185138
185229
175442
180455
182594
180639
184120
185544
176444
183216
183511
183712
184435
185198
181554
183231
183387
183833
184808
185016
185592
180335
182584
183615
183945
185283
178172
180761
182078
182273
183121
183494
183602
184009
184813
180548
181776
183404
183550
184247
184685
185479
185483
182486
184441
185452
185481
185750
185773
186049
186358
186872
180008
185574
180322
180680
181646
182191
185351
185377
186443
178692
179859
183318
183518
184646
185280
185411
185586
185775
186061
186077
183218
185146
185982
186004
186277
180013
182471
182476
183091
183131
183214
184847
185124
185225
185706
186073
186446
183597
184511
185653
186065
186068
186869
187783
179914
181050
184522
185671
185678
185895
186468
186695
187077
184528
185033
185274
185374
185854
187480
183491
186208
186407
187000
179498
181242
183204
183736
184228
185261
185578
185788
185792
186367
186393
179505
184332
185174
185353
185390
185489
185680
185912
181236
181662
184519
184933
185772
185865
186283
186383
186467
186483
186484
186934
182071
183096
183202
183344
184132
185275
186087
186489
187012
183089
181456
183723
184880
185030
185127
185333
185341
186801
186907
187492
176144
184640
184918
184938
184942
185141
185745
186006
186166
186182
186349
186522
187528
182671
185137
185760
186186
186276
186373
186451
186586
186692
179196
181751
183425
183504
183824
183924
185851
186162
186481
186786
186862
187420
187696
187727
185665
186299
186582
186762
186915
187010
187086
187183
187384
188220
184025
184740
187007
187206
187212
187297
179013
177364
180027
185144
185480
185863
186100
186490
186576
186788
187108
187313
187508
187532
187604
187694
188235
188258
184112
185856
186051
186189
186566
186679
186885
186972
188126
183315
176661
186057
186698
187185
187601
187719
187794
188635
188862
183710
185662
186911
186971
187111
187113
187704
187723
188049
188563
188752
180862
183395
183625
185035
187295
187697
187916
188011
188023
188122
188442
188466
181655
179500
181244
182787
183620
184943
185845
187326
187713
187829
188102
182842
182379
184630
185546
185969
186161
186352
186499
187199
187207
187273
187702
188537
188661
188851
186986
187486
187992
188238
188334
188436
188440
190349
178795
182171
183530
183720
185767
185958
186480
186690
186691
186975
187708
187824
188004
180539
183092
183298
184669
185340
186082
187006
187087
187174
187322
187386
188413
186362
186376
187107
187500
187661
187926
188244
190276
183189
182170
183097
186260
186905
187026
187190
187738
188038
188151
188224
188430
188480
188650
188946
189418
189621
190242
187293
188099
188323
188356
189361
187292
185453
185971
187589
187614
188019
188026
188045
188852
189111
189847
185672
187104
187180
187927
188095
188239
188465
188660
188943
189141
189570
190139
181667
184420
187403
187938
188521
189157
189228
189364
191060
187397
187921
188133
188183
188333
188437
188566
188939
188944
189824
185688
180243
177378
185436
186680
187016
187688
188028
188219
188441
188451
189451
181139
182498
188120
188322
188337
188358
188734
188879
189750
190648
185018
185766
186389
188225
188869
188956
189062
189226
189245
189584
189764
190271
190279
190407
184205
185559
186096
186469
186898
187176
187580
188009
188227
188523
188525
188821
188854
188963
189246
189428
189659
189763
187488
187520
189834
189969
190802
185057
185638
187494
187602
187919
187924
187925
188538
188542
188708
188714
188839
188842
188957
189417
189833
190093
190854
192485
183607
184730
186351
186466
186689
187521
187792
188274
188329
188576
189055
189140
189223
189235
189338
189509
189647
189670
189690
189761
186683
186878
188193
188431
188831
189126
189127
189340
189443
189740
189775
189926
190045
190452
185950
186776
186918
187780
187802
188519
189318
189571
189618
189876
190141
190499
190701
191497
191674
192181
186671
186265
187899
180558
186477
187182
188101
188113
188606
188731
188834
189237
189262
189273
189556
189622
189826
189842
189892
190113
190172
190495
190662
185449
185682
186893
187484
188191
188233
188709
189023
189252
189538
189742
189931
189984
190253
190365
190376
190784
191038
182371
183916
184526
185748
186463
187187
187290
188571
188930
189329
189450
189519
189828
189981
190711
190806
190879
191984
185757
186369
188406
188546
188845
189172
189475
189661
189859
190434
190553
190782
190838
190991
191084
185461
188812
189345
189441
189779
190203
190267
190357
190666
190772
191300
192008
185151
185446
186681
186906
187686
188510
189947
190268
190293
190351
190564
190773
190774
190868
191059
191112
191781
187130
187693
188216
188308
188626
189029
189198
189264
189747
189903
190290
190346
190391
190875
190999
191020
191081
191192
191195
191216
191574
191782
191875
184309
187014
187904
188529
189432
189853
190198
190345
190354
190395
190616
190858
190891
191099
191391
191602
178918
185255
186372
187383
187590
189514
189643
190169
190274
190280
190477
190660
191196
191211
191636
192087
187401
186686
175730
186193
188111
188313
189537
189568
189962
189985
190208
190388
190794
190873
191399
191708
191879
192288
192994
187897
188232
188833
188846
189263
189539
189838
190084
190684
191009
191033
191078
191373
191464
191536
191604
191682
184932
187299
187687
188739
188747
188924
188929
189035
189673
189807
190413
190847
190866
190977
190987
191199
192183
185961
189454
187701
188000
188847
189438
189484
189674
189956
190145
190265
190296
190472
190481
190889
191077
191161
191512
191707
191779
192125
192211
188201
188423
188928
189213
189350
189535
189731
189746
190260
190262
190288
190352
190752
191083
191194
191289
191301
191496
191499
191530
191702
192215
192389
183123
184524
184632
186270
186886
188830
189119
189424
189458
189675
189944
189954
189958
189959
189986
190284
190355
190412
190573
190797
190952
191184
191482
191607
191645
191916
191933
192003
193000
181566
185258
186359
189247
189646
189960
190372
190678
190881
191360
191371
191407
191679
191710
191713
191809
191903
191951
192225
192481
193052
195051
188935
191079
187906
187913
188832
189231
190042
190592
190659
191198
191290
191509
191511
191608
191613
191804
191819
192031
192648
193105
188221
189863
189930
190368
190493
190652
190689
190751
190788
191067
191488
191828
194022
181351
187690
188932
189044
189109
190064
190157
190580
190759
190862
191021
191037
191281
191475
191492
191545
191600
191807
192006
192025
192118
192138
192422
192698
186888
184334
184926
185154
188211
188843
189153
189557
189948
190032
190135
190275
190383
190677
190792
190793
190911
191372
191384
191389
191725
191749
192034
192217
192312
192619
192621
185676
183010
188185
189343
190403
190776
190779
190953
190982
191158
191165
191180
191480
191500
191836
191994
192145
192321
192419
192647
192828
193671
184516
184916
186066
186447
186860
186889
189732
190261
190322
190343
190471
191061
191093
191286
191477
191495
191616
191738
191834
191920
192214
192328
192406
193305
186173
186768
186991
188634
190861
191057
191119
191683
191730
191913
191934
192109
192208
192338
192640
192742
192915
193123
193308
194328
188188
182893
187279
188625
189046
189125
189850
189946
190067
190162
190590
190646
191074
191502
191542
191705
192029
192104
192108
192231
192513
192895
193104
193243
193920
188316
183015
187793
188602
189331
189736
190385
190496
191073
191097
191159
191387
191430
191921
192030
192049
192319
192385
192611
193063
193320
193873
194232
185243
187504
187592
188207
189238
189730
190778
190976
191100
191177
191189
191377
191463
191676
191694
191729
192004
192226
192310
192510
192522
192700
192852
193260
193446
193715
194840
194844
184843
178704
181488
184829
187908
188926
188933
189806
190672
190972
191270
191392
191508
191578
191816
191957
192300
192416
192512
192536
192638
192712
192922
193003
193019
193645
193786
184617
186520
180327
187715
188811
189019
189034
189233
189634
190057
190137
190453
191437
191526
191697
191895
192042
192084
192198
192255
192499
192720
192764
193141
193259
193734
193778
188503
191675
187775
186997
187395
187712
189212
190033
190560
190574
191007
191491
191687
191876
192122
192313
192428
192445
192544
192727
192820
192849
192924
192925
193227
193306
193792
194163
194841
179430
186665
187195
187810
188516
188636
189440
189526
189848
190047
190358
191076
191185
191212
191514
191610
191714
191891
191923
192112
192221
192293
192346
192354
192407
192503
192505
192734
192746
192797
193029
193225
193479
193842
183820
195565
183809
186871
187186
188628
188822
189115
189135
189230
190883
190965
190968
191071
191075
191261
191395
191415
191485
192115
192336
192341
192515
192733
192810
192825
192954
193020
193051
193158
193202
193248
193444
193531
193561
193580
193918
195049
190876
192996
187173
190078
190257
190283
190508
190981
191278
191382
191521
191598
192022
192099
192103
192200
192398
192403
192490
192517
192524
192791
192913
193046
193133
193155
193230
193341
193359
193451
193619
193668
193670
194020
194847
195459
184512
188330
189054
189520
189620
190269
190576
190760
191187
191575
191583
191596
191605
191870
192013
192019
192427
192488
192526
192530
192553
192606
192630
192709
192932
193151
193333
193954
193957
194043
194598
196384
196484
188515
188721
185861
187511
189232
189733
189950
190482
190974
191989
192095
192106
192140
192323
192443
192492
192501
192612
192642
181137
192829
193024
193279
193411
193545
193551
193641
194033
184917
192641
189549
189027
191026
191474
191637
191672
191720
192531
192737
192834
192842
192907
192942
192997
193008
193044
193131
193242
193453
194068
194076
194169
194438
190164
190850
191011
191594
191806
191985
192413
192444
192743
192918
193106
193125
193132
193258
193322
193524
193526
193563
193576
193843
193953
194048
194064
194150
194256
195292
188104
186354
188005
188418
188927
188966
189022
190167
190780
190962
190964
191114
191362
191471
191592
191633
191821
192289
192351
192410
192591
192824
192832
192946
192951
193175
193350
193361
193369
193501
193521
193635
193649
194141
194605
194673
166243
183198
188620
188919
189419
190046
190049
190563
190596
191296
191490
191606
191827
192378
192397
192633
192699
192718
192911
192920
192949
193130
193138
193235
193236
193363
193457
193538
193661
193867
193944
193946
194158
194574
195047
195461
193810
183520
190470
190673
191231
192143
192719
192816
192959
193022
193103
193143
193334
193337
193414
193456
193639
193644
193847
193962
193982
194096
194229
194630
194759
194842
194875
195150
195257
196273
190451
188622
187296
189640
190579
191191
191484
191677
192507
192827
193135
193416
193420
193440
193466
193557
193599
193686
193741
193744
194062
194171
194188
194194
194354
194553
194595
194710
194736
194868
194907
196386
185774
186770
188838
189953
190757
191503
191799
191904
191996
192028
192197
192318
192601
192622
192701
192729
192916
192964
193030
193050
193172
193241
193327
193512
193533
193567
193637
193685
193822
193838
193861
193938
193967
194060
194343
194383
194454
194602
194969
194981
195190
182161
187914
190029
190380
190461
191265
191364
191790
191898
191990
192502
192706
192802
192821
193109
193223
193233
193735
193764
193947
194120
194143
194148
194371
194452
194470
194475
194497
194528
194658
194797
194955
194967
196485
190753
190582
192113
188210
190166
190456
190457
191092
191653
191986
192130
192302
192714
192917
192998
193372
193465
193473
193766
193859
193924
193941
193996
194041
194045
194100
194364
194670
194698
194699
194767
194777
185148
186281
187298
189433
190960
191358
191890
191912
191937
192798
193001
193028
193040
193543
193656
193675
193727
193762
193872
193949
194149
194181
194223
194263
194302
194388
194491
194529
194660
194999
195077
195485
195575
195606
196032
190298
188332
186052
186356
188097
189430
189555
189631
191070
191803
192703
192807
192893
193118
193228
193431
193458
193459
193535
193598
193646
193736
193742
193747
193855
193921
193929
193968
194035
194282
194462
194464
194509
165368
194584
194661
194961
195106
195199
195208
195381
195529
196272
197094
188331
189840
191277
191487
191728
192086
192315
192421
192711
192796
192811
192930
192993
193041
193436
193750
193760
193761
193819
193853
193858
193869
193934
194151
194257
194368
194645
194663
194671
194679
194876
194885
194983
194994
195005
195247
195388
195595
196891
187689
189227
192495
187388
190966
192508
192604
192704
192835
193219
193439
193560
193582
193737
193758
193826
193945
194097
194114
194138
194162
194246
194357
194365
194387
194444
194448
194651
194717
194743
194826
194964
195095
195168
195194
195246
195259
195274
195278
195335
195347
195564
196890
197494
188850
192012
192484
192617
193247
193452
193539
193643
193714
193828
193956
194070
194073
194135
194237
194261
194286
194331
194350
194358
194372
194442
194446
194544
194551
194580
194676
194808
194855
194869
194943
194946
195045
195067
195073
195100
195465
195493
195594
196486
198017
187907
188642
189133
190081
191472
192000
192392
192404
192408
192528
192596
193023
193229
193255
193507
193640
193665
193674
193817
193833
193837
193870
194031
194037
194056
194084
194185
194231
194253
194359
194391
194576
194744
194783
194873
194880
194998
195155
195183
195340
195411
195505
195699
195788
195982
196313
197395
198222
191309
187611
184819
186987
189429
189728
189874
190347
190649
190656
190948
191479
192023
192337
192506
192921
193423
193532
193628
193647
193655
193672
194065
194165
194300
194370
194443
194542
194634
194734
194760
194870
194900
194906
194972
195172
195365
195390
195406
195524
195581
195902
195973
195987
191680
190761
191684
192015
192102
192613
192906
192937
193317
193331
193509
193757
193958
194029
194117
194160
194269
194289
194385
194672
194682
194768
194785
194886
194892
194966
194984
195083
195170
195179
195236
195288
195294
195295
195380
195397
195441
195464
195596
195616
195684
195776
195799
195968
196203
196308
191717
188312
190370
191367
191690
191798
192007
192189
192653
192670
193110
193126
193438
193540
193632
193731
193935
194028
194142
194152
194193
194228
194290
194296
194356
194399
194559
194572
194677
194686
194772
194982
195024
195062
195071
195085
195157
195160
195173
195175
195193
195458
195655
195831
195888
195891
195963
196060
196215
195950
189938
190864
191388
191673
192082
192815
193120
193121
193140
193445
193534
193726
193746
193840
193845
193969
194103
194179
194344
194355
194579
194591
194810
194854
194922
195121
195204
195284
195315
195366
195387
195400
195576
195610
195656
195725
195786
195887
196031
196050
196539
196920
162831
194554
184636
188108
190749
190762
191262
191699
191894
192649
193179
193319
193415
193448
193687
193749
193889
194036
194038
194243
194311
194447
194492
194657
194688
194778
194782
194787
194866
194867
195002
195011
195063
195102
195105
195283
195326
195338
195555
195678
195879
195885
196003
196223
196563
196742
166260
166336
187193
185143
187680
189032
191580
191688
191893
192305
192618
192723
193210
193342
193419
193441
193825
194227
194665
194774
194989
195044
166073
195057
195184
195212
195318
195410
195490
195503
195590
195611
195626
195637
195705
195821
195860
196002
196133
196224
196321
191791
188513
189528
189743
190765
191175
192304
192314
192923
192957
193182
193550
193679
194032
194154
194225
194345
194439
194461
194557
194666
194683
194748
194882
194918
194954
194970
195072
195093
195211
195240
195375
195500
195501
195528
195573
195673
195779
195794
195890
195894
196007
196074
196112
196294
196422
196777
196905
197020
190344
193256
186897
190557
190863
190970
192212
192387
192399
193116
193124
193316
193633
193700
193751
194027
194363
194656
194669
194773
194781
194879
194909
194965
194995
195013
195092
195096
195110
195269
195436
195685
195697
195711
195740
195764
195793
195845
195985
196004
196122
196298
196622
196631
196770
196944
197131
189041
189849
190054
190248
191681
191900
191983
192222
193021
193101
193220
193435
193673
194049
194166
194352
194485
194565
194633
194801
194821
194894
194958
195075
195088
195268
195290
195320
195331
195378
195385
195474
195495
195562
195600
195663
195704
195772
195790
195803
195929
195995
196162
167213
196419
196536
196641
196835
197118
197163
197392
198012
198217
168443
192311
193102
193462
193965
194040
194339
194527
194761
194890
194944
194952
195046
195074
195178
195182
195188
195196
195221
195267
195279
195309
195352
195370
195420
195433
195504
195515
195662
195835
195878
195881
195893
195897
195910
196127
196302
196541
196543
196688
196745
196767
196830
196831
196845
197051
198428
192599
190992
188950
189118
190568
192602
193017
193100
194058
194173
194393
194546
194571
194642
194865
194941
194971
195086
195235
195280
195314
195374
195376
195496
195560
195583
195584
195693
195716
195761
195805
195884
196095
196124
196201
196315
196421
196612
196640
197119
197125
197166
197184
197422
190359
195079
188936
189755
191494
192209
192812
193797
193839
194281
194380
194434
194618
194704
194771
194977
195012
195094
195120
195391
195476
195482
195569
195607
195724
195787
195824
195826
195909
196012
196077
196132
196140
196218
196323
196330
196349
196374
196440
196455
196457
196525
196576
196609
196667
196711
196715
196725
196733
196812
196822
196911
197034
197154
197216
197317
167818
197446
197514
166960
167665
190251
190763
192609
193014
193993
194145
194168
194230
194456
194573
194608
194749
194794
194878
194968
195068
195253
195480
195648
195720
195769
195778
195781
195789
195896
195918
195941
195997
196016
196078
196120
196137
196160
196179
196186
196196
196225
196248
196337
196460
196469
196512
196526
196637
196741
196755
197036
197043
197052
197698
167820
189063
193544
191063
193511
166353
189243
189523
191087
191579
192195
192201
192808
193745
194140
194156
194212
194293
194459
194479
194514
194518
194556
194588
194770
195064
195191
195202
195286
195456
195483
195526
195599
195671
195979
196005
196024
196053
196103
196147
196149
196152
196185
196322
196325
196348
196380
196428
196438
196458
196490
196492
196619
196625
196707
196716
196729
196785
197012
197160
169047
167827
190680
191922
189439
189616
190489
190770
191887
192204
194395
194432
194450
194460
194495
194904
195076
195166
195177
195242
195297
195302
195371
195457
195478
195506
195508
195547
195588
195592
195680
195707
195726
195784
195795
195802
195820
195836
195842
195899
195991
196041
196144
196318
196502
196509
196589
196635
196768
196773
196809
196849
196917
197249
197322
197554
197851
197686
193630
195870
188429
190240
190888
190957
191282
193205
193301
193930
194567
194988
194991
195393
195398
195425
195428
195536
195550
195615
195702
195811
195851
195983
196011
196125
196191
196339
196370
196371
196416
196418
196447
196532
196638
196649
196654
196746
196775
196838
196925
197041
197111
197127
197159
197327
197355
197450
167655
197643
197696
191775
193964
187380
190653
191897
193144
193865
194449
194451
194541
194606
194667
194750
194859
194884
194888
195219
195227
195373
195382
195491
195512
195791
195797
195859
195923
195935
195988
195989
195993
196099
196100
196131
196197
196300
196326
196328
196347
196420
196429
196433
196444
196449
196593
196841
196918
196934
196936
197057
197065
197122
197224
197234
197295
197337
197393
197626
197645
198105
198276
199856
167778
190880
191179
191589
191995
192731
193412
193659
193724
193871
194137
194271
194581
194757
194920
194951
194973
195082
195313
195394
195487
195589
195608
195687
195700
195714
195783
195798
195828
195905
195913
196000
196066
196171
196210
196238
196247
196252
196369
196397
196461
196475
196518
196542
196630
196648
168081
196799
196815
196825
196915
196948
196964
197021
197025
197060
197076
197139
197189
197266
197304
197318
197334
197423
197444
197451
197526
197659
197737
197963
193624
190667
190973
191573
192100
192121
193335
193821
194134
194155
194172
194275
194295
194342
194468
194632
194791
194895
194898
194956
195119
195134
195198
195276
195285
195369
195460
195467
195498
195520
195801
195819
195889
195986
196069
196092
196111
196121
196212
196305
196331
196342
196383
196414
196427
196432
196501
196507
196558
196718
196720
196737
196763
196926
197038
197071
197145
197243
197270
197369
197431
197461
197552
168618
197901
198165
197684
188416
190055
190859
190975
190990
191287
191381
194333
194545
194735
194751
194857
195087
195216
195306
195311
195470
195497
195598
195623
195850
196043
196044
196130
196192
196194
196208
196229
196327
196329
196431
196511
196514
196694
196789
196794
196836
196903
196945
196946
197056
197133
197180
197347
197452
197468
197493
197535
197540
197611
197624
197931
197946
198043
198182
198325
199435
168969
193009
194437
191582
193047
193454
193932
195081
195319
195479
195612
195683
195742
195800
195866
195873
196014
196015
196096
196117
196126
196170
196202
196213
196283
196320
196488
196503
196550
196556
196618
196623
196633
196659
196668
196805
196824
196828
196852
196931
196952
196954
196961
197022
197031
197054
197120
197203
197221
197253
197320
197343
197361
197539
197657
197736
197764
197772
197777
168621
197857
197874
197976
197992
198114
198220
198529
169048
199232
194893
191380
191695
192295
192301
193012
194351
194649
194765
195058
195289
195372
195484
195686
195745
195815
195874
195907
195992
196200
196353
196463
196493
196520
196554
196605
196608
196629
196632
196726
196817
196916
196959
197059
197067
197074
197097
197138
197212
197213
197341
197432
197435
197437
197438
197441
197460
197518
197524
197545
197566
197573
197638
197719
197720
197936
198093
198624
170105
193203
190066
168204
189851
191170
191368
192191
194752
195167
195258
195321
195519
195552
195579
195768
195773
195872
195977
196008
196071
196116
196255
196261
196292
196393
196521
196524
196531
196537
196567
196596
196647
196708
196751
196814
196872
196899
196932
196998
197010
197066
197112
197241
197455
197467
197511
197536
197572
197655
197738
197762
197859
197860
197955
197978
197990
198039
198104
198181
198282
169216
168175
190277
196385
166781
168174
185765
187416
190264
191080
192395
193432
195281
195419
195468
195622
195625
195681
195691
195978
196026
196102
196151
196214
196282
196291
196296
196436
196446
196535
196538
196544
196604
196610
196769
196827
196832
196856
196885
196908
196927
196940
197045
197058
197061
197137
197151
197191
197208
197215
197228
197246
197247
197311
197336
197414
197419
197532
197658
197673
197759
197849
197881
197884
197939
198066
198074
198268
198297
198890
168617
167571
200155
191173
191792
192694
193036
193313
194072
194259
194745
195163
195181
195364
195572
195578
195672
195877
196104
196219
196230
196404
196406
196470
196519
196540
196547
196627
196748
196761
196883
197048
197155
197162
197188
197229
197250
197299
197348
197375
197421
197478
197516
197564
197731
197743
197755
197837
197846
197862
197937
197984
198053
198092
198119
198194
198573
198628
198642
198699
197484
192116
190144
193716
193916
194297
194430
194647
194839
195066
195273
195514
195570
195571
195895
195904
195961
196022
196174
196211
196508
196513
196603
196642
196717
196743
196744
196850
196879
196930
196986
197009
197027
197053
197086
197199
197206
197264
197279
197293
197308
197338
197339
197345
197384
197454
197522
197538
197656
197713
197842
197889
197941
197944
198069
198071
198211
198289
198369
198600
198654
198679
198874
190170
169841
192598
186598
191266
192388
192402
193031
193733
194042
194241
194244
194568
194862
195463
195477
195657
195869
195959
196094
196135
196168
196183
196354
196497
196523
196721
196756
196762
196813
196935
196939
197028
197102
197107
197129
197130
197134
197227
197255
197258
197409
197417
197434
197453
197476
197534
197542
197556
197569
197574
197610
197634
197637
197649
197654
197678
197688
169299
197865
197929
197956
198004
198013
198036
198129
198159
198209
198260
198279
198370
198385
198614
198649
169385
198884
198989
199071
200369
169146
169861
168349
186677
190777
193634
193732
194481
195090
195312
195886
196009
196083
196097
196209
196317
196522
196606
196607
196620
196754
196808
196862
196880
196949
196999
197006
197148
197232
197256
197356
197555
197557
197562
197593
197604
197725
197756
197771
197853
197885
197940
197965
197971
197982
198068
198094
198154
198166
198315
198471
198568
198570
198572
198617
198706
198785
199163
170277
192405
169297
196764
169494
190468
191885
193729
193841
195192
195298
195367
195770
195785
195814
195921
196006
196134
196270
196316
196396
196489
196613
196628
196634
196652
196796
196804
196857
196902
196922
196963
196995
197040
197123
197177
197211
197223
197245
197265
197333
197346
197353
197363
197377
197379
197411
197436
197576
197628
197646
197650
197662
197726
197835
197844
197854
197873
197934
198172
198205
198299
198302
198327
198360
198392
198408
198487
198565
198569
198651
198667
198763
198770
198806
198851
198871
198926
199062
199267
200371
188613
192496
192710
192900
193117
193937
193959
194021
194423
194534
194689
194957
194974
195080
195099
195591
195774
195830
195994
196182
196205
196206
196227
196310
196388
196412
196425
196759
196811
196826
197030
197032
197075
197226
197429
197457
197541
197553
197558
197579
197622
197631
197653
197765
197817
197839
169481
197974
198078
198089
198155
198274
198391
198446
198460
198506
198519
198593
198602
198657
198727
198772
198809
198860
199015
199075
169403
169947
201499
195958
194025
194347
194646
194769
194849
194963
195389
195413
195609
195975
196108
196188
196281
196372
196423
196730
196771
196821
196937
196974
196990
197140
197267
197302
197330
197332
197359
197495
197550
197586
197640
197660
197724
197740
197748
197773
197843
197863
197899
197926
197945
197951
197962
197964
197997
198076
198163
198216
198228
198254
198401
198464
198495
198505
169213
198618
198813
198842
198896
198947
198990
170445
199068
199073
169485
199548
199600
199749
199955
195261
186067
193326
193824
194747
195165
195502
195760
196086
196087
196382
196722
196738
196829
196906
196929
196938
197252
197349
197406
197442
197456
197571
197582
197589
197647
197679
197704
197750
197751
197769
197850
197960
198029
198054
198277
198324
198361
198382
198388
198419
198494
198528
198563
198592
198609
198666
198692
198941
199028
199172
199189
170444
199662
200254
197183
167337
192910
169856
198322
190657
190764
190865
191483
191901
194123
194247
194742
195970
196115
196271
196276
196311
196324
196392
196399
196403
196448
196487
196505
196534
196582
196704
196795
197015
197037
197108
197135
197142
197218
197225
197254
197271
197350
197425
197488
197509
197528
197537
197543
197560
197619
197630
197644
197681
197739
197858
197861
197906
197927
197947
197953
198072
198177
198179
198184
198195
198246
198292
198293
198374
198453
198469
198485
198589
198756
198805
198862
198878
198932
198991
199278
199299
199501
169149
168184
171422
194258
192695
198087
169753
196669
196878
190787
191169
191780
192425
192927
193834
194242
194640
196089
196107
196410
196454
196714
196953
196955
197100
197105
197132
197141
197174
197326
197367
197632
197671
197690
197821
197847
197869
197870
197938
197942
197968
197970
197995
198003
198010
198022
198062
198098
198157
198180
198186
198250
198290
198346
198351
198353
198357
198379
198394
198437
198457
198477
198502
198521
198562
198633
198673
198698
198795
198796
198945
198987
199123
199179
199183
199326
199382
199566
199617
199643
199683
168878
169148
170032
170450
170792
198113
198815
192299
192909
193818
195690
195756
195766
195925
196173
196195
196528
196624
196703
196747
196818
196861
196897
196994