/*--------------------------------*- C++ -*----------------------------------*\
| =========                 |                                                 |
| \\      /  F ield         | OpenFOAM: The Open Source CFD Toolbox           |
|  \\    /   O peration     | Version:  2406                                  |
|   \\  /    A nd           | Website:  www.openfoam.com                      |
|    \\/     M anipulation  |                                                 |
\*---------------------------------------------------------------------------*/
FoamFile
{
    version     2.0;
    format      ascii;
    arch        "LSB;label=32;scalar=64";
    class       Cloud<dsmcParcel>;
    location    "0.004/lagrangian/dsmc";
    object      positions;
}
// * * * * * * * * * * * * * * * * * * * * * * * * * * * * * * * * * * * * * //

9485
(
(0.2849159144 0.1351974822 -1.084202172e-19) 327
(0.2490457812 0.0787626672 -2.168404345e-19) 82
(0.2621663213 0.121152163 -4.33680869e-19) 264
(0.2667837706 0.09618951151 -2.168404345e-19) 145
(0.2981925302 0.1062292373 0) 149
(0.2119708297 0.0631719263 -2.168404345e-19) 47
(0.280711343 0.07770505394 4.065758147e-19) 26
(0.2309790965 0.08285909653 -9.486769009e-20) 110
(0.2663079121 0.07724710594 0) 54
(0.2727075768 0.09527005943 0) 115
(0.2693700442 0.1062934342 2.168404345e-19) 175
(0.2883373383 0.1588552099 2.168404345e-19) 447
(0.2542559974 0.08229088393 -1.084202172e-19) 83
(0.2205111461 0.09274429776 0) 168
(0.2821806017 0.09836515586 -3.117081246e-19) 147
(0.2662050949 0.09933990367 -2.168404345e-19) 144
(0.2735448809 0.07445421516 -2.168404345e-19) 25
(0.2710648038 0.08787870791 -5.421010862e-20) 85
(0.2833336535 0.08218750856 2.168404345e-19) 57
(0.2337602775 0.06784046673 -3.252606517e-19) 20
(0.290972808 0.1429754667 0) 358
(0.3012646473 0.1259236217 0) 269
(0.3001656581 0.1007548004 -5.421010862e-20) 119
(0.2801202778 0.1171050526 -9.486769009e-20) 236
(0.2372687477 0.08429323258 8.809142651e-20) 111
(0.2667083554 0.08271886907 4.33680869e-19) 55
(0.2446765184 0.07870419279 1.084202172e-19) 82
(0.3044389896 0.08420858805 1.897353802e-19) 29
(0.269004996 0.1271351578 1.084202172e-19) 295
(0.2884428724 0.1224779495 0) 267
(0.2729695377 0.07638975638 2.168404345e-19) 25
(0.2613155625 0.07397197281 -1.084202172e-19) 24
(0.2934856141 0.0829073119 1.219727444e-19) 28
(0.3013621232 0.08624981122 4.33680869e-19) 59
(0.2700781131 0.07603220334 -3.252606517e-19) 25
(0.2671395622 0.1146603798 -3.523657061e-19) 235
(0.2837670316 0.09043733553 -5.421010862e-20) 87
(0.2959253254 0.08143958574 -1.084202172e-19) 28
(0.2618551599 0.1183718293 -4.065758147e-20) 264
(0.296583164 0.1140437315 -1.084202172e-19) 208
(0.2477659447 0.09016708531 0) 142
(0.2483990304 0.0806957685 0) 82
(0.2927714559 0.07987755307 2.168404345e-19) 28
(0.2695406283 0.100478438 0) 145
(0.2626283464 0.07532877638 0) 24
(0.2580099892 0.1131845881 -2.168404345e-19) 233
(0.3039925407 0.09675957379 0) 89
(0.2939012774 0.0913450681 -3.252606517e-19) 88
(0.2852215208 0.1210097016 -2.168404345e-19) 237
(0.2505375065 0.1021278141 0) 202
(0.3046622367 0.1086054041 0) 149
(0.2595952512 0.08182873073 2.710505431e-19) 84
(0.3003829912 0.1168939754 -2.168404345e-19) 209
(0.2866780328 0.1114724441 2.168404345e-19) 207
(0.2964341054 0.1171945118 0) 208
(0.2697720357 0.08083909819 1.524659305e-19) 55
(0.2847849234 0.1232209648 -1.355252716e-19) 267
(0.3047736208 0.08181145348 0) 29
(0.294314995 0.09827876569 -2.168404345e-19) 118
(0.2570673882 0.08202489451 1.084202172e-19) 83
(0.276652559 0.1405756883 -1.626303259e-19) 356
(0.2406486484 0.1001613514 -2.168404345e-19) 201
(0.2157899102 0.09552843386 1.084202172e-19) 198
(0.2958305625 0.09318466685 4.33680869e-19) 88
(0.2719696279 0.1031017189 -1.084202172e-19) 175
(0.2708933308 0.07920237168 0) 55
(0.2320300794 0.09720295596 4.33680869e-19) 170
(0.3027411745 0.09186996425 -4.33680869e-19) 59
(0.2570766921 0.07380870887 0) 23
(0.2389681554 0.06981025609 0) 21
(0.2592430318 0.09067436141 0) 114
(0.2814896881 0.07866119266 -2.168404345e-19) 26
(0.258283087 0.1133426274 2.168404345e-19) 233
(0.2646510226 0.08761621969 2.168404345e-19) 84
(0.2870564923 0.118321422 5.421010862e-20) 237
(0.2294380455 0.06474770422 2.710505431e-20) 20
(0.2160245735 0.06239587127 0) 18
(0.2586574812 0.07916099526 2.168404345e-19) 53
(0.2502627894 0.09835947737 0) 172
(0.2859341775 0.1156641385 4.065758147e-20) 207
(0.2841392641 0.08948218651 1.626303259e-19) 87
(0.2547171321 0.07409860301 0) 53
(0.2821716706 0.07602342427 -2.981555974e-19) 27
(0.2892271689 0.08675503694 -2.168404345e-19) 57
(0.2356881942 0.08329979626 0) 110
(0.2609239337 0.07009819534 -2.168404345e-19) 24
(0.2622646521 0.09975175018 5.421010862e-20) 174
(0.2923990404 0.07954915727 0) 28
(0.2174284672 0.08518623065 0) 138
(0.2840567596 0.08295254232 0) 57
(0.2945132801 0.09380756127 -1.084202172e-19) 88
(0.2445634077 0.07597945842 -2.168404345e-19) 52
(0.2028049544 0.08110815147 0) 136
(0.2942462229 0.1040468713 -5.421010862e-20) 148
(0.2854488283 0.08221584718 -5.421010862e-20) 57
(0.2514247658 0.09033829844 0) 112
(0.2789455708 0.08302990502 4.065758147e-20) 56
(0.2345011464 0.07469544713 0) 80
(0.2531298549 0.1188084182 2.032879073e-20) 263
(0.3029902777 0.08549284995 0) 29
(0.2811828159 0.1034875944 4.33680869e-19) 176
(0.283605746 0.08381043856 1.084202172e-19) 57
(0.2037802354 0.05719339543 -5.963111949e-19) 16
(0.2611292361 0.1147560905 2.710505431e-20) 234
(0.2358559309 0.07148000553 1.626303259e-19) 50
(0.207559638 0.07834500579 0) 107
(0.2813596753 0.08769060642 2.168404345e-19) 86
(0.2574938544 0.08114810797 0) 83
(0.2345604834 0.1063153705 -3.252606517e-19) 230
(0.2753266122 0.07389545611 2.168404345e-19) 26
(0.2761148836 0.1022513391 -2.168404345e-19) 176
(0.2400367381 0.06552166646 4.33680869e-19) 21
(0.2212323291 0.06088331796 -2.168404345e-19) 19
(0.2476638588 0.09965079505 2.371692252e-20) 172
(0.2832379061 0.08758768053 2.168404345e-19) 87
(0.2695545518 0.108867943 -1.626303259e-19) 205
(0.2216966355 0.07171909686 -2.168404345e-19) 79
(0.2502236075 0.1082319909 0) 232
(0.2376897407 0.07042038079 0) 51
(0.2997463181 0.09493630717 -2.168404345e-19) 89
(0.2580577409 0.07427564272 -2.168404345e-19) 23
(0.2394609257 0.08109044188 -4.33680869e-19) 81
(0.1991546714 0.1072731012 2.168404345e-19) 256
(0.2947625022 0.114046219 1.084202172e-19) 208
(0.2708000526 0.07575605016 -1.355252716e-19) 25
(0.208696441 0.08169497117 -2.168404345e-19) 137
(0.2858076416 0.15276108 -1.151964808e-19) 417
(0.2802855267 0.07614427764 0) 26
(0.2540256414 0.1277983859 3.252606517e-19) 323
(0.2176712771 0.07176432397 6.505213035e-19) 78
(0.3022731033 0.128209624 0) 269
(0.2984266089 0.107259773 -1.084202172e-19) 149
(0.3011677 0.08123512969 -2.168404345e-19) 29
(0.2672200006 0.1314167618 -4.33680869e-19) 325
(0.1841778624 0.04948352334 4.33680869e-19) 14
(0.3021481866 0.0909621745 1.084202172e-19) 59
(0.246806544 0.1019612423 -5.421010862e-20) 202
(0.2987585833 0.08152981642 -1.084202172e-19) 29
(0.240800935 0.1057974481 0) 231
(0.2889901371 0.1014029723 0) 147
(0.2858358332 0.1483339587 8.809142651e-20) 387
(0.2896324782 0.09184609707 2.710505431e-19) 88
(0.2861923741 0.09330006754 -5.421010862e-20) 87
(0.2800305175 0.1179752743 0) 236
(0.2046343503 0.0695855129 1.084202172e-19) 76
(0.2765628074 0.0817607894 -2.168404345e-19) 56
(0.2360719497 0.07729818107 -2.168404345e-19) 80
(0.3002797208 0.08277026567 -2.032879073e-20) 29
(0.2763761987 0.1008054545 2.303929617e-19) 146
(0.2789530795 0.0819178427 1.084202172e-19) 56
(0.2782344503 0.1138922538 -3.388131789e-19) 206
(0.2925549058 0.1228700577 -2.710505431e-19) 268
(0.2606825453 0.08186286443 0) 84
(0.2070711183 0.08254971318 -2.168404345e-19) 137
(0.2335910022 0.1159330473 2.168404345e-19) 260
(0.230395131 0.08358602308 0) 110
(0.2455896341 0.06963727607 -2.168404345e-19) 22
(0.1948848543 0.0754991728 -1.626303259e-19) 105
(0.262048534 0.1004636789 5.421010862e-20) 174
(0.217897155 0.1102095647 -5.421010862e-20) 258
(0.2852778935 0.08548892108 -2.710505431e-20) 57
(0.3024043336 0.08730836792 -4.33680869e-19) 59
(0.2188953971 0.08120535909 2.168404345e-19) 108
(0.285822647 0.08788055862 4.33680869e-19) 87
(0.2968225302 0.1175598413 0) 208
(0.3044636816 0.1368241978 4.33680869e-19) 329
(0.2751084812 0.1289172112 4.33680869e-19) 296
(0.303352551 0.1234024075 0) 239
(0.1826066661 0.05946446522 -4.33680869e-19) 43
(0.2234809445 0.1353010315 -5.421010862e-20) 379
(0.2432020348 0.08437703887 3.252606517e-19) 111
(0.244346801 0.09112629447 2.168404345e-19) 142
(0.3031729662 0.0868785755 0) 59
(0.2974967072 0.1553360374 -1.084202172e-19) 419
(0.2974375318 0.09972211362 0) 119
(0.2826839843 0.0891128045 -2.168404345e-19) 87
(0.2869946851 0.1087571533 -2.168404345e-19) 177
(0.2606830438 0.0946098672 -2.168404345e-19) 144
(0.2544748835 0.06975124497 -1.626303259e-19) 23
(0.2754142837 0.07400459832 -2.168404345e-19) 26
(0.2778309305 0.131598874 -4.065758147e-19) 326
(0.2248546036 0.08221588638 9.486769009e-20) 109
(0.2723686557 0.106987286 2.168404345e-19) 175
(0.2831628407 0.1264115534 -6.505213035e-19) 297
(0.2144225086 0.06673821355 8.131516294e-20) 48
(0.2416077315 0.07194451015 4.33680869e-19) 51
(0.2938435153 0.1169610776 4.33680869e-19) 208
(0.2844637101 0.08150789598 -2.168404345e-19) 27
(0.289364539 0.1335926238 0) 327
(0.2257074946 0.07685162513 1.084202172e-19) 79
(0.2932827088 0.1125888465 1.694065895e-19) 208
(0.285830757 0.1319184115 -1.016439537e-19) 297
(0.2295849403 0.07114758104 3.794707604e-19) 50
(0.2802972017 0.09717054932 0) 116
(0.235792877 0.06442604766 2.168404345e-19) 20
(0.2878651649 0.08688571988 2.168404345e-19) 57
(0.2915157997 0.1462426702 -1.76182853e-19) 388
(0.2926364791 0.11359529 -3.794707604e-19) 208
(0.1861225491 0.07102696953 -5.421010862e-20) 104
(0.2529433496 0.0982670194 1.084202172e-19) 173
(0.2578031742 0.07717226199 -1.084202172e-19) 53
(0.2397839295 0.07943258442 8.131516294e-20) 81
(0.2780681958 0.08133605645 8.131516294e-20) 56
(0.2937473768 0.09196809675 -5.421010862e-20) 88
(0.303449535 0.1050862274 1.084202172e-19) 149
(0.2818786631 0.08826278351 -1.084202172e-19) 86
(0.250149939 0.07411699574 0) 52
(0.2495572673 0.06718368064 0) 22
(0.23401328 0.06378088699 0) 20
(0.2767043071 0.08819648713 -1.084202172e-19) 86
(0.2998140847 0.09920679019 -5.421010862e-20) 119
(0.2642288683 0.08557752637 1.084202172e-19) 84
(0.3030411209 0.1135215315 -4.33680869e-19) 179
(0.2833566807 0.09584873965 -1.355252716e-19) 117
(0.2398868218 0.08246277198 -1.897353802e-19) 111
(0.2608329553 0.07045948938 0) 24
(0.2496571043 0.07727613501 0) 52
(0.2666384329 0.1075403845 0) 204
(0.257739253 0.1102581738 0) 233
(0.2424985126 0.07606221442 0) 51
(0.2609534897 0.08652241458 7.589415207e-19) 84
(0.2342409729 0.06616379192 0) 20
(0.2328040105 0.09074316868 1.355252716e-19) 140
(0.2385802254 0.07733694064 -1.084202172e-19) 81
(0.2720281881 0.07908934587 2.168404345e-19) 55
(0.2211252014 0.07162227259 -3.523657061e-19) 79
(0.2613379527 0.1040347456 1.084202172e-19) 174
(0.2824393581 0.07673602547 0) 27
(0.2567665741 0.07384220379 1.084202172e-19) 23
(0.2662923283 0.08854523303 0) 114
(0.2874529922 0.09724922288 0) 117
(0.260069595 0.06992601425 0) 24
(0.2432719245 0.1497382209 0) 441
(0.2288823162 0.08299334514 1.084202172e-19) 110
(0.2948703897 0.1287757898 -4.33680869e-19) 298
(0.2864797516 0.08661513104 5.421010862e-20) 57
(0.2475730862 0.1409176839 0) 382
(0.3035326703 0.0927064922 -2.168404345e-19) 89
(0.2675752269 0.0994527499 0) 145
(0.2631032879 0.07512700041 1.76182853e-19) 24
(0.2654107185 0.07587195326 2.168404345e-19) 24
(0.2411118403 0.08111223065 -4.33680869e-19) 81
(0.28110206 0.1341640631 -9.486769009e-20) 326
(0.2754139098 0.127026192 -2.168404345e-19) 296
(0.2533344753 0.1116770562 1.084202172e-19) 233
(0.2735986671 0.1036504894 6.505213035e-19) 175
(0.2564540721 0.09865808072 6.505213035e-19) 173
(0.2679254304 0.07281326311 -2.168404345e-19) 25
(0.2799218889 0.09574535207 0) 116
(0.2225492523 0.06220204267 -1.084202172e-19) 19
(0.2573055134 0.06964854339 2.168404345e-19) 23
(0.27786531 0.1391869388 2.168404345e-19) 356
(0.211257485 0.07695511232 0) 107
(0.2730570493 0.08468210748 4.33680869e-19) 85
(0.1890774557 0.05451437947 2.168404345e-19) 14
(0.2786565188 0.105326705 -5.421010862e-20) 176
(0.230807669 0.0798440634 -1.084202172e-19) 110
(0.2649294746 0.1026022487 0) 174
(0.2534808118 0.130574857 -5.421010862e-20) 323
(0.2860908648 0.08327120662 0) 57
(0.2624763837 0.1267180008 0) 294
(0.2761348403 0.07895240995 3.252606517e-19) 26
(0.303496546 0.09359083527 0) 89
(0.2819352355 0.1268128172 -2.168404345e-19) 296
(0.2440494873 0.09331997391 0) 142
(0.2766623124 0.1123088661 0) 206
(0.2566664582 0.07352552861 0) 23
(0.2722450101 0.09030633495 4.33680869e-19) 115
(0.2784187584 0.09364107485 0) 116
(0.2666922215 0.1213414477 -4.33680869e-19) 264
(0.2911974652 0.1523034705 -1.084202172e-19) 418
(0.2763744665 0.07582846605 -2.710505431e-19) 26
(0.2001466398 0.07968289972 2.168404345e-19) 136
(0.2569168027 0.1292344346 2.710505431e-20) 323
(0.2402077909 0.0960277256 2.168404345e-19) 171
(0.2536094446 0.09820526139 0) 173
(0.2479107876 0.08355425903 1.084202172e-19) 82
(0.3024866508 0.105065192 1.084202172e-19) 149
(0.3046698322 0.1047662765 4.33680869e-19) 149
(0.2425432591 0.06690628913 1.084202172e-19) 21
(0.1982829045 0.0787336891 -2.168404345e-19) 136
(0.2949832734 0.08729620855 -4.743384505e-20) 58
(0.2794799315 0.1027817759 -1.084202172e-19) 146
(0.2172012629 0.09890550848 -1.423015351e-19) 198
(0.1939247116 0.05786965415 0) 15
(0.2901155915 0.1435344347 4.33680869e-19) 358
(0.2193398803 0.08145536654 0) 108
(0.2249602218 0.09194520106 3.252606517e-19) 169
(0.2767203656 0.08588310115 0) 86
(0.1886484337 0.05274798304 -1.084202172e-19) 14
(0.256484955 0.07425865684 0) 23
(0.2868653625 0.08499504354 -5.421010862e-20) 57
(0.267244258 0.08102248183 -2.168404345e-19) 55
(0.2941774768 0.09395201423 1.084202172e-19) 88
(0.2840884951 0.08014830912 2.558039501e-19) 27
(0.2244554927 0.07585160059 -1.626303259e-19) 79
(0.2101600524 0.0920568283 -1.084202172e-19) 167
(0.2490624695 0.101750075 0) 202
(0.2526752456 0.07854467681 -2.846030703e-19) 53
(0.2848700259 0.1182062887 1.084202172e-19) 237
(0.2493161301 0.09461365017 -5.421010862e-19) 142
(0.2264369103 0.07138506827 0) 49
(0.2454603497 0.1070226047 0) 232
(0.2733394615 0.119060134 2.168404345e-19) 265
(0.2531423978 0.08097208484 1.897353802e-19) 83
(0.2718712604 0.07435435394 -2.168404345e-19) 25
(0.2530282623 0.09743065958 0) 173
(0.2037378907 0.07502079279 1.084202172e-19) 106
(0.2789743003 0.1117549179 0) 206
(0.2498301515 0.1554415323 0) 472
(0.2806808581 0.1067479411 2.168404345e-19) 176
(0.2305604688 0.07336573646 -1.084202172e-19) 50
(0.2020852312 0.07110310562 -5.421010862e-20) 76
(0.2691279431 0.1156472978 -1.084202172e-19) 235
(0.2776815728 0.1140711422 -5.421010862e-20) 236
(0.2717819008 0.08703969285 1.084202172e-19) 85
(0.2586759305 0.08358881124 -1.084202172e-19) 83
(0.2266648533 0.1406990498 -2.168404345e-19) 409
(0.2469426318 0.07867639518 1.626303259e-19) 82
(0.2968912017 0.09827916122 0) 118
(0.2546423087 0.08366900203 1.084202172e-19) 83
(0.2582593757 0.104726215 -2.168404345e-19) 203
(0.3037442792 0.09836292838 -4.33680869e-19) 119
(0.1759544143 0.1062462622 -2.168404345e-19) 283
(0.2194791906 0.06881683954 0) 48
(0.2740169308 0.1116687899 0) 205
(0.2955898215 0.1356628063 2.168404345e-19) 328
(0.2630013355 0.08583760495 -1.084202172e-19) 84
(0.2768590557 0.09112607273 -2.168404345e-19) 116
(0.2473217142 0.0974653967 -1.626303259e-19) 172
(0.2816396111 0.1291521135 -4.33680869e-19) 296
(0.2534233617 0.1271197578 -2.168404345e-19) 323
(0.2288210422 0.06962143625 0) 50
(0.1953339997 0.05457267042 1.084202172e-19) 15
(0.2443558045 0.07220574956 1.084202172e-19) 52
(0.2327425454 0.09234624587 -2.168404345e-19) 170
(0.2910441829 0.1256082775 -3.794707604e-19) 268
(0.2965213959 0.116292723 2.168404345e-19) 208
(0.2553632672 0.1095161317 0) 233
(0.2604640721 0.1361166187 1.76182853e-19) 354
(0.2546567017 0.08244485186 2.168404345e-19) 83
(0.3035448922 0.08932517381 -1.084202172e-19) 59
(0.2663529474 0.1090951246 -2.168404345e-19) 204
(0.2641586036 0.09703538295 1.084202172e-19) 144
(0.2810657286 0.09085219848 0) 86
(0.2621399632 0.1005817068 2.168404345e-19) 174
(0.2902112043 0.08727967573 -1.084202172e-19) 58
(0.2935503256 0.1036561307 -3.523657061e-19) 148
(0.2316549921 0.09251183099 -5.421010862e-20) 170
(0.2833538709 0.09261908689 3.252606517e-19) 87
(0.2619890255 0.07397004044 1.084202172e-19) 24
(0.185612441 0.07694265375 -1.084202172e-19) 134
(0.2947260145 0.1137452271 0) 208
(0.2599622479 0.08186199378 2.744386749e-19) 84
(0.2651288318 0.07807844889 0) 54
(0.2673745043 0.09739610859 3.252606517e-19) 145
(0.2768222083 0.07425758434 -3.252606517e-19) 26
(0.2236889994 0.08026504548 -8.131516294e-20) 109
(0.1740076809 0.04965746848 -9.486769009e-20) 12
(0.2030559781 0.08389048594 3.252606517e-19) 136
(0.2567913089 0.07988263373 4.33680869e-19) 53
(0.2540680693 0.07036446167 -1.084202172e-19) 23
(0.2941165181 0.1201059009 0) 238
(0.223683822 0.08773996594 0) 139
(0.2930064049 0.1526999608 2.710505431e-20) 418
(0.2777681247 0.08075802247 1.084202172e-19) 56
(0.2922691774 0.08543697193 2.168404345e-19) 58
(0.2964621551 0.1042109569 1.965116438e-19) 148
(0.2311561873 0.0671657724 -4.33680869e-19) 20
(0.2758019784 0.08025299063 0) 56
(0.1949349433 0.05400494391 0) 15
(0.2462775834 0.1009336223 0) 172
(0.2016157543 0.06873483119 -8.131516294e-20) 76
(0.2999985621 0.08848819247 -1.626303259e-19) 59
(0.271676553 0.09073940205 -2.168404345e-19) 115
(0.2131805925 0.08682045689 4.33680869e-19) 137
(0.2877266895 0.1263442416 4.33680869e-19) 267
(0.2704182591 0.09314746819 -3.252606517e-19) 115
(0.2940304881 0.103806744 5.421010862e-20) 148
(0.2684517616 0.1345332804 -1.084202172e-19) 325
(0.1675780585 0.06524782643 0) 101
(0.2658780322 0.09447427895 -2.168404345e-19) 144
(0.3019673477 0.1061958826 2.168404345e-19) 149
(0.2753849795 0.1497140718 0) 416
(0.2232425567 0.1026635025 0) 229
(0.2413494059 0.0880260675 0) 111
(0.2791313392 0.08829210565 -5.421010862e-20) 86
(0.2812769754 0.07688611107 1.084202172e-19) 26
(0.217850023 0.06850610444 -2.710505431e-19) 48
(0.2020947586 0.1120773657 2.710505431e-19) 286
(0.2873002356 0.07827952448 0) 27
(0.2778723544 0.08466452098 0) 56
(0.2562981797 0.08676221442 4.33680869e-19) 113
(0.2130206209 0.1130250166 6.505213035e-19) 287
(0.2994897744 0.08596791131 1.084202172e-19) 59
(0.2043193607 0.05829297451 -2.168404345e-19) 16
(0.2976777853 0.1137758259 5.421010862e-20) 209
(0.2896898541 0.1106636085 -2.168404345e-19) 178
(0.2672398927 0.1528697431 -3.252606517e-19) 445
(0.261679206 0.1039372361 -2.168404345e-19) 174
(0.2811952977 0.1096287773 4.33680869e-19) 206
(0.2830760502 0.1574398095 1.084202172e-19) 447
(0.243131348 0.06693661097 -1.084202172e-19) 21
(0.28032483 0.1198706357 0) 236
(0.2477085622 0.07648905343 5.421010862e-20) 52
(0.2397072987 0.07376612955 -1.084202172e-19) 51
(0.1898391158 0.05720212352 0) 44
(0.2611332698 0.1453851074 2.168404345e-19) 414
(0.283555832 0.09809859785 1.084202172e-19) 117
(0.2224846107 0.06799175195 -1.084202172e-19) 49
(0.2752361047 0.08738538841 4.33680869e-19) 86
(0.2935128147 0.1097943694 -9.486769009e-20) 178
(0.2388861837 0.0666440632 1.084202172e-19) 21
(0.2864397483 0.1240240783 -2.710505431e-19) 267
(0.2485536556 0.08010675069 2.168404345e-19) 82
(0.2263784215 0.1160900825 0) 289
(0.1892774338 0.07658120554 -4.33680869e-19) 134
(0.1613537597 0.07937975447 -1.084202172e-19) 161
(0.2291169249 0.124698104 1.084202172e-19) 320
(0.2137529252 0.08594004449 2.168404345e-19) 138
(0.2582195354 0.1011817609 0) 173
(0.1969042381 0.06677264271 0) 75
(0.2833573391 0.1218895345 -2.710505431e-19) 267
(0.1958949545 0.06927872669 0) 75
(0.2006869723 0.07412016771 1.084202172e-19) 106
(0.1974554196 0.0830234358 2.168404345e-19) 135
(0.2676493735 0.09948076749 0) 145
(0.2891896929 0.08446095939 0) 57
(0.2927053103 0.1321471279 2.168404345e-19) 298
(0.2350104099 0.06347552798 -2.168404345e-19) 20
(0.2630053818 0.09568242244 1.626303259e-19) 144
(0.2398301431 0.08985377767 1.897353802e-19) 141
(0.3034409833 0.1104136482 1.084202172e-19) 179
(0.2369754572 0.08459061267 -4.33680869e-19) 111
(0.2351586361 0.1077720538 0) 230
(0.2632369301 0.1035568568 2.168404345e-19) 174
(0.2902152316 0.1023749729 -2.168404345e-19) 148
(0.2411399024 0.07092707711 2.168404345e-19) 51
(0.2233450372 0.06729222094 0) 49
(0.2909505171 0.13159986 0) 298
(0.2449322733 0.1141800524 0) 262
(0.2295540433 0.07723864194 -3.252606517e-19) 80
(0.1893299619 0.08676801396 -2.168404345e-19) 164
(0.2774509854 0.1064734063 1.084202172e-19) 176
(0.3042989998 0.1561783455 -2.168404345e-19) 419
(0.2184030616 0.1063652237 -1.084202172e-19) 228
(0.2880468526 0.115370846 -2.168404345e-19) 207
(0.2059498221 0.07090049357 0) 77
(0.2508586219 0.0934619367 -2.168404345e-19) 142
(0.1817123814 0.09029368391 0) 193
(0.2268293742 0.07095079461 -2.168404345e-19) 49
(0.2231376537 0.1042459663 -1.084202172e-19) 229
(0.2908683747 0.09189096937 -8.809142651e-20) 88
(0.2286120672 0.08178684017 -2.168404345e-19) 110
(0.2569158017 0.08329618913 0) 83
(0.3019347487 0.08219943083 4.33680869e-19) 29
(0.2578743411 0.08932592086 -2.168404345e-19) 113
(0.2776188224 0.1321204213 2.168404345e-19) 326
(0.2419796454 0.1110624601 2.168404345e-19) 231
(0.2877233281 0.09576878982 -1.084202172e-19) 117
(0.2944878868 0.1410788592 0) 358
(0.1988488312 0.0638077535 -2.168404345e-19) 46
(0.2941376531 0.1550176886 5.421010862e-20) 418
(0.2567415028 0.07112890973 -1.084202172e-19) 23
(0.2417532888 0.07179738023 0) 51
(0.2979839382 0.0835723252 0) 29
(0.1829166479 0.09821164961 2.168404345e-19) 224
(0.2823073698 0.1477984559 2.168404345e-19) 387
(0.279336332 0.1316863835 0) 326
(0.1732993346 0.05988716806 0) 72
(0.2559410273 0.1083068113 2.710505431e-19) 203
(0.1744515826 0.05660427435 4.33680869e-19) 42
(0.2557413923 0.07281645829 -2.168404345e-19) 23
(0.2364988505 0.1168058654 2.168404345e-19) 291
(0.2472432881 0.07432237918 -5.421010862e-20) 52
(0.2701342404 0.07841250767 -4.878909776e-19) 55
(0.2855514862 0.1062097933 9.486769009e-20) 177
(0.2853760217 0.09851238874 4.33680869e-19) 117
(0.2603911393 0.07745342677 -1.084202172e-19) 54
(0.2553205419 0.09499765067 -3.04931861e-20) 143
(0.256577046 0.07182012651 0) 23
(0.2452206571 0.1242155516 -2.168404345e-19) 292
(0.2475535754 0.08505266172 3.388131789e-20) 112
(0.2684892755 0.09982957764 -1.084202172e-19) 145
(0.2853176497 0.1084575943 0) 177
(0.3024916665 0.1627457409 0) 449
(0.1970990348 0.09831548505 -1.084202172e-19) 225
(0.1674378317 0.0557359584 0) 41
(0.2049127225 0.117167788 2.168404345e-19) 316
(0.2340176631 0.06419589912 2.168404345e-19) 20
(0.2489004835 0.07793101984 -2.168404345e-19) 52
(0.1458856397 0.07775044213 -2.710505431e-19) 159
(0.2964115819 0.1108531337 0) 178
(0.2184738485 0.06771272339 1.084202172e-19) 48
(0.2595438646 0.07388135083 0) 24
(0.1457122634 0.06778658507 0) 129
(0.26353712 0.07252187679 -1.084202172e-19) 24
(0.2254655285 0.06819534312 0) 49
(0.2422271541 0.09707868515 -2.303929617e-19) 171
(0.2894096225 0.08915492396 0) 87
(0.2548772169 0.07695718864 2.710505431e-20) 53
(0.238779633 0.1011999919 2.168404345e-19) 201
(0.2746468967 0.1163723312 -5.421010862e-20) 236
(0.2760504014 0.08567539461 -4.33680869e-19) 86
(0.2746352233 0.07525222807 0) 26
(0.2799546294 0.07956538712 0) 26
(0.2061289714 0.08117510218 -1.084202172e-19) 137
(0.2371696477 0.09917063469 0) 201
(0.2933692814 0.09370493334 -2.267930716e-19) 88
(0.2774224995 0.07798551185 -1.084202172e-19) 26
(0.254561982 0.07078752543 2.168404345e-19) 23
(0.2757268476 0.1010268934 -2.168404345e-19) 146
(0.2856123811 0.1225355304 -3.523657061e-19) 267
(0.2717839705 0.1115584743 0) 205
(0.2063320922 0.06585101345 -1.084202172e-19) 47
(0.2295479239 0.1134936536 1.084202172e-19) 260
(0.2823683939 0.1043893058 0) 177
(0.2943013011 0.09677340028 2.168404345e-19) 118
(0.2566171366 0.08063938406 -2.168404345e-19) 83
(0.1743477612 0.0749574632 8.131516294e-20) 132
(0.2641176177 0.0804948289 0) 54
(0.2524951879 0.07964781979 2.168404345e-19) 83
(0.2420205826 0.07802891593 0) 81
(0.2011804377 0.07617432807 -5.421010862e-20) 106
(0.2974332235 0.1075383104 1.490777987e-19) 179
(0.2491310904 0.06870325369 -1.084202172e-19) 22
(0.1855802514 0.06689574292 2.710505431e-19) 74
(0.2208952692 0.09254530281 0) 168
(0.2687209764 0.0987617334 4.33680869e-19) 145
(0.2890568909 0.1223785686 4.33680869e-19) 267
(0.207842603 0.1095341276 2.168404345e-19) 257
(0.2758259286 0.08260679415 -5.421010862e-20) 56
(0.2123889411 0.06423734278 0) 47
(0.2224585355 0.08931193089 0) 139
(0.1581850991 0.05271330037 4.33680869e-19) 40
(0.1805478728 0.08496543693 0) 163
(0.238373086 0.1627007888 -1.355252716e-19) 500
(0.2313710886 0.06435877317 1.084202172e-19) 20
(0.2864476534 0.1070287587 5.421010862e-20) 177
(0.1845451038 0.06273268339 2.168404345e-19) 74
(0.2802968053 0.08873485186 1.084202172e-19) 86
(0.2511477414 0.09666297547 -4.33680869e-19) 172
(0.2988653193 0.08275335776 -4.33680869e-19) 29
(0.2520249726 0.09626717217 2.168404345e-19) 143
(0.189251376 0.05846802915 0) 44
(0.2967008211 0.1324954119 0) 298
(0.2480248658 0.07172417209 -8.131516294e-20) 22
(0.2544939645 0.07685316805 0) 53
(0.2546913457 0.07283521512 -1.084202172e-19) 23
(0.2585530823 0.1014759551 0) 173
(0.2461432552 0.1263765319 -9.486769009e-20) 322
(0.2988761942 0.1149009832 4.33680869e-19) 209
(0.2681457542 0.1513362443 1.084202172e-19) 415
(0.2582499558 0.08282065882 2.168404345e-19) 83
(0.2445069785 0.09849606117 -1.084202172e-19) 172
(0.278829496 0.1428530599 6.505213035e-19) 386
(0.2963808499 0.1239532561 2.168404345e-19) 268
(0.1889800469 0.0930749752 -4.33680869e-19) 194
(0.2726354071 0.08774605518 2.168404345e-19) 85
(0.221409157 0.06361529469 1.084202172e-19) 19
(0.2570898885 0.07650021406 -1.084202172e-19) 53
(0.2298044088 0.1386132502 -3.252606517e-19) 380
(0.2954386591 0.1330970997 0) 298
(0.2683076384 0.1508636711 1.084202172e-19) 415
(0.2081974804 0.07702685531 0) 107
(0.2421994584 0.1089560871 -2.710505431e-20) 231
(0.2963344288 0.1524409499 -6.505213035e-19) 418
(0.2229513313 0.07864520069 0) 109
(0.2800376962 0.1142133369 2.168404345e-19) 206
(0.2929878758 0.1198916084 2.710505431e-19) 238
(0.2900449334 0.1031662113 1.084202172e-19) 148
(0.2714016847 0.08056829562 0) 55
(0.2223899666 0.0726401456 -2.168404345e-19) 79
(0.2610542099 0.07129158255 0) 24
(0.2931917146 0.09714258916 8.131516294e-20) 118
(0.2357970087 0.1422353455 -3.252606517e-19) 410
(0.2788805508 0.09806354875 0) 146
(0.2702827165 0.08099492449 -1.727947212e-19) 55
(0.2647289596 0.08577341209 4.33680869e-19) 84
(0.2631422706 0.1017127557 1.084202172e-19) 174
(0.250229381 0.09861189576 2.710505431e-19) 172
(0.2933287798 0.09872447564 1.084202172e-19) 118
(0.2071964069 0.06609787797 0) 47
(0.2606098772 0.08883267663 4.878909776e-19) 114
(0.2471948793 0.07499894906 5.421010862e-20) 52
(0.1867040248 0.05918470793 -2.710505431e-20) 44
(0.2773588972 0.08235842933 -4.065758147e-20) 56
(0.2692105653 0.1377495383 2.710505431e-20) 355
(0.2816874428 0.08220208309 0) 56
(0.2624116392 0.0841842333 -5.421010862e-20) 84
(0.2143760284 0.09415933553 -2.168404345e-19) 198
(0.2272101801 0.1612984123 0) 498
(0.2881544312 0.1446631049 -2.168404345e-19) 387
(0.1969094516 0.06444367101 -2.168404345e-19) 45
(0.2761703919 0.09556510161 2.710505431e-19) 116
(0.270205576 0.09588914202 -1.897353802e-19) 145
(0.2548963652 0.09105730402 2.168404345e-19) 113
(0.2014960104 0.1080030566 2.168404345e-19) 256
(0.1991202559 0.06212283629 0) 46
(0.1944253998 0.06072464426 1.626303259e-19) 45
(0.1884565837 0.05109923237 -2.168404345e-19) 14
(0.2756985569 0.07760031677 1.084202172e-19) 26
(0.2463405563 0.07847337266 0) 82
(0.2288804292 0.06468305694 4.33680869e-19) 20
(0.2438951831 0.1032130949 0) 202
(0.2708574168 0.1435616522 -1.355252716e-20) 385
(0.2574151481 0.1343038179 -3.252606517e-19) 353
(0.2452716329 0.1366259446 2.168404345e-19) 382
(0.2204657658 0.07064534494 0) 48
(0.2468435468 0.0685554907 1.490777987e-19) 22
(0.2531976058 0.09450087145 5.421010862e-20) 143
(0.2545862248 0.1371041565 2.168404345e-19) 353
(0.2313121727 0.06824411536 2.168404345e-19) 50
(0.2244411096 0.06490060314 -2.168404345e-19) 19
(0.2690338369 0.0731682792 -1.084202172e-19) 25
(0.2437289028 0.1080138933 -2.168404345e-19) 231
(0.2707635864 0.1075312411 0) 205
(0.2110437175 0.1186087969 0) 317
(0.280772934 0.1363986552 0) 326
(0.1957952474 0.07172236934 0) 105
(0.1795511049 0.05943580784 0) 43
(0.2873015727 0.1039372104 1.084202172e-19) 147
(0.2744146983 0.09915830679 4.065758147e-20) 146
(0.271038082 0.09086471312 0) 115
(0.261462378 0.09627525164 -2.168404345e-19) 144
(0.2037659503 0.06993117902 4.997494389e-20) 76
(0.210768649 0.07354087746 -1.084202172e-19) 77
(0.1825707124 0.06237054561 0) 73
(0.2205835496 0.07020815976 0) 48
(0.2880728795 0.1102495979 -2.168404345e-19) 177
(0.2932456438 0.1182378748 3.930232875e-19) 238
(0.235228884 0.09104426176 0) 140
(0.1737090856 0.0689332311 2.168404345e-19) 102
(0.1931208902 0.07688068443 2.168404345e-19) 135
(0.2815866106 0.1136730023 2.168404345e-19) 206
(0.2564424401 0.1024147003 -2.168404345e-19) 173
(0.2504633257 0.1058855345 0) 202
(0.2821397683 0.101236975 0) 147
(0.2897011624 0.1018852297 -2.168404345e-19) 148
(0.1346002359 0.07145108057 -3.252606517e-19) 157
(0.2586374828 0.08270890347 -2.168404345e-19) 83
(0.2351706478 0.07440321312 0) 50
(0.2537371246 0.08187783273 2.168404345e-19) 83
(0.2398090886 0.06713948096 -2.710505431e-20) 21
(0.2313514409 0.1305240915 1.355252716e-20) 350
(0.30361114 0.1506428908 -2.168404345e-19) 389
(0.2460904528 0.1140470212 3.252606517e-19) 262
(0.2573690033 0.1301542198 -2.168404345e-19) 323
(0.2129637867 0.06272740443 0) 17
(0.2476638597 0.09911206539 2.117582368e-19) 172
(0.2575970946 0.07994681633 -2.168404345e-19) 53
(0.2990433683 0.09018305997 1.626303259e-19) 59
(0.2694712249 0.1186077445 1.084202172e-19) 265