/*--------------------------------*- C++ -*----------------------------------*\
| =========                 |                                                 |
| \\      /  F ield         | OpenFOAM: The Open Source CFD Toolbox           |
|  \\    /   O peration     | Version:  2406                                  |
|   \\  /    A nd           | Website:  www.openfoam.com                      |
|    \\/     M anipulation  |                                                 |
\*---------------------------------------------------------------------------*/
FoamFile
{
    version     2.0;
    format      ascii;
    arch        "LSB;label=32;scalar=64";
    class       vectorField;
    location    "0.004/lagrangian/dsmc";
    object      U;
}
// * * * * * * * * * * * * * * * * * * * * * * * * * * * * * * * * * * * * * //


9485
(
(279.4882307 868.2414349 -173.9827434)
(488.8259702 -107.1723256 505.6694727)
(940.9260766 -30.44054753 58.98442478)
(-326.4572285 681.2765472 147.987771)
(1465.696944 440.9883054 -405.3974501)
(-241.7291646 -396.3030725 149.2186271)
(1807.200097 -37.70876127 96.37893254)
(793.7123081 -57.66133827 112.5600312)
(-153.0426001 174.9058725 -405.4579335)
(1296.926513 -138.0807341 -116.4887443)
(-234.6689081 79.24205069 -501.7612577)
(889.7798925 952.194069 -53.19692118)
(-160.2568356 -287.0302771 68.24885512)
(193.6735165 306.5128805 113.586745)
(-88.4930888 379.223348 510.3319236)
(136.7008846 105.570381 382.6215874)
(-561.8789681 -482.3189081 -360.3020299)
(296.3373664 170.3280639 1151.037265)
(678.848702 628.8051265 -901.3708793)
(-169.6467795 342.9724424 131.3630499)
(1281.017382 210.0577041 593.6322954)
(1351.696291 414.7522718 -317.9136851)
(-176.3940808 376.8171826 -414.3648623)
(1328.02991 1056.539152 -192.5273363)
(45.81255469 -432.7082972 228.1868862)
(606.4560801 594.168859 -497.8227637)
(-209.5204217 235.9602198 -160.1482114)
(566.7909051 277.4685753 -596.2980647)
(790.9619709 579.4241497 -361.3347805)
(879.4384291 -143.5871186 353.554427)
(459.5876297 186.2682625 138.6057784)
(121.2647047 790.325678 -143.7401566)
(40.07016596 238.3948468 -373.198743)
(410.0379979 -134.8028759 3.416200368)
(-195.4669113 -327.7013406 339.5698221)
(1251.689797 1338.372792 -128.8755675)
(668.3112013 -269.8225775 -231.5148616)
(761.6303991 -379.2362345 -514.4373751)
(1100.91779 -365.3660301 763.5151066)
(210.6992241 148.7067455 -1173.462237)
(1318.338374 822.904154 1094.753799)
(-132.2409313 -156.4329455 772.2923242)
(-189.4397131 73.46437808 157.0039405)
(1014.903593 926.7552352 -343.5057429)
(163.1791177 77.90802591 -147.1581828)
(741.1690034 76.18211502 861.3344041)
(1202.822209 -568.9211679 -363.2088377)
(-269.2234531 429.607777 -229.6603769)
(629.617208 527.5627521 81.11278476)
(413.0081645 665.4695959 -689.4602934)
(437.1720865 213.8000976 707.2608069)
(80.38304872 404.8155828 337.8918365)
(686.6282652 685.4296393 -422.1389606)
(1068.328023 446.4337905 -19.90599977)
(397.7126425 -302.9674335 -719.9314677)
(1224.705642 223.1039302 -490.4497333)
(126.2365627 86.33631982 -184.68315)
(838.7760487 46.01682771 -791.4643379)
(-135.9685841 905.5208834 13.06181112)
(538.4343611 629.3824519 -207.9522725)
(1263.117971 -118.8824235 -207.5181317)
(844.6335554 358.9448584 807.7886743)
(-121.4265378 -13.27681146 720.5691644)
(221.9940789 -31.89546664 -690.6530193)
(651.2821339 -801.9169324 285.9079937)
(-905.737953 -275.5472218 -50.34628311)
(1686.3121 876.0532147 1048.286392)
(383.4388272 316.8029176 -223.5167689)
(425.0708852 135.0487151 -364.7400801)
(737.4410934 337.6733145 248.9930033)
(469.5059901 65.61707501 -407.1535951)
(26.68187993 -361.2416899 -44.82851387)
(1679.87188 246.2231243 603.2616137)
(100.8127586 313.5561373 -356.1885657)
(243.0606883 662.0865596 414.3095647)
(93.83944126 144.0939097 -400.873171)
(-44.75203767 38.76286693 -369.3510156)
(186.0827796 1288.894238 898.478873)
(815.0805531 702.4934168 101.3117084)
(890.0003423 911.1379773 -426.025536)
(1100.231745 -309.1860073 -707.5495235)
(880.3433892 -358.0740789 -341.6806705)
(885.04615 389.3156293 456.1002012)
(-25.63501261 320.9301635 31.62513385)
(426.6710643 339.4638209 -964.904759)
(85.57905341 -162.601911 639.5452595)
(1048.939104 8.937118009 289.568679)
(389.0794464 -238.7284556 1004.35213)
(1192.331138 -258.5232379 886.8776325)
(-69.01052084 -181.3626287 -17.38454826)
(249.8841373 957.8776784 -351.1895047)
(256.7723516 -364.4346097 631.8695502)
(16.53950666 325.0006753 33.90567093)
(1314.278649 819.6176376 -325.284169)
(154.9557936 922.1925579 -721.2938785)
(64.59969893 221.8169467 307.3659448)
(-119.3863047 25.46856754 136.6557868)
(-102.8822609 -372.5181872 174.8034218)
(1204.114831 -108.5865988 327.3218219)
(60.55500579 103.6375168 133.2537755)
(1092.105296 815.0648198 27.99854489)
(142.9117934 213.992155 -482.7401765)
(-863.1624768 -540.8898551 -2.948108351)
(933.5806904 450.3794436 1072.257957)
(498.7940861 502.1623583 577.8119334)
(-86.71982082 -434.7051637 479.0307609)
(69.84939351 -211.7960069 502.6340436)
(1427.243132 -94.26130435 352.7441365)
(-37.49965067 842.1745693 356.1699598)
(246.3015587 31.56198474 -580.6004001)
(1332.150972 -490.2876356 294.8967556)
(-82.4464837 128.8247862 445.9293092)
(185.0352236 -12.07352343 -217.7635996)
(282.7782493 372.0891747 -1053.31857)
(416.0568327 520.6060248 598.2883066)
(1753.434933 283.3034743 548.3243719)
(32.56202218 700.5147372 2.286871546)
(772.7479908 -153.8728061 202.9768892)
(233.1901281 309.525496 93.05498863)
(922.268861 -681.9733072 266.6416503)
(559.4462562 -255.0782118 237.3564512)
(1469.118028 -471.328632 468.1634466)
(301.6711014 319.4410715 204.1371441)
(1772.480231 -194.691887 -134.2173664)
(-384.38293 708.8971843 -606.5395833)
(-153.7374986 598.4388802 -940.1052318)
(1052.849073 1348.601425 93.15307923)
(89.16664978 -131.6057406 -177.4197915)
(143.0221623 396.4038629 168.9011069)
(1145.083999 858.99761 1191.747322)
(1253.265015 454.5573193 -156.3701243)
(335.7973208 655.1241862 -478.9365739)
(364.3945319 23.35859027 -345.3072039)
(439.8234429 32.7210701 994.5605781)
(-20.75971597 505.5373434 161.0990568)
(226.4437561 262.2881172 922.2443912)
(433.879113 272.600651 678.728222)
(-207.3956494 225.5848044 -477.2570162)
(660.4753766 257.0973999 405.0252526)
(30.88807937 590.6078588 253.1657769)
(897.4880458 114.9402774 684.6107571)
(416.251937 466.5373727 -436.5809651)
(518.3030766 327.492966 -246.3857816)
(1104.641722 -114.257002 -27.7506471)
(-269.049567 653.194556 -92.53643444)
(317.2073651 600.1979862 273.6895049)
(749.1327968 300.3002648 -144.0693556)
(449.0540822 202.0904432 -476.9134181)
(602.6620564 327.9698305 542.9898577)
(409.0327247 -383.3563553 84.69050518)
(1375.198078 184.8340312 -291.8940601)
(61.7929996 747.8723852 -404.2938785)
(507.3649458 223.6579671 -184.6512293)
(415.9265518 116.5408465 -591.7292477)
(583.0093038 -164.111836 -389.3345197)
(94.16222758 398.311486 84.03792236)
(-158.7110241 491.0996104 -188.8839513)
(644.9339743 -706.6118355 -660.1325867)
(865.5492406 287.410766 -362.6349614)
(882.0042628 -298.8974439 -521.0415879)
(-89.66371461 -37.41046481 -136.007719)
(393.5997249 -559.3409185 246.3848832)
(997.9841381 945.1885204 51.17802413)
(-199.8438024 -101.4584005 -53.12250501)
(259.4319551 782.766127 -819.9658692)
(1123.31257 48.45181183 274.9232547)
(1822.41187 1219.691948 -31.93671501)
(-238.2006408 701.1747392 210.8571996)
(8.210316365 772.6358461 585.1434873)
(-45.00875646 97.70267075 -54.66979987)
(426.4093541 396.8845733 -508.4080922)
(575.2274727 210.3195665 417.8416197)
(961.6319027 394.505039 9.580209501)
(1154.363634 -424.7342732 -479.5313528)
(-242.9372572 -944.7892838 173.0163596)
(693.2441426 261.6086666 353.8531094)
(1270.165577 651.4291971 299.0959106)
(860.3142624 -773.9759905 -259.018145)
(247.6704204 293.3788679 155.736101)
(581.3651091 -645.755429 -358.4535414)
(964.1586289 -11.70871159 64.04382633)
(1288.152771 1671.721923 -663.5794854)
(446.6480069 315.349812 873.9319282)
(649.4200788 354.6204646 -989.3544167)
(-223.1801369 2.840441692 1020.494568)
(1397.929206 65.64473469 215.4055604)
(1368.951774 -424.5356102 -45.36175541)
(1234.388423 -670.8163052 -378.1846067)
(516.189571 1053.489654 -468.8554737)
(164.6405332 61.82493761 416.0751924)
(1584.758817 -645.9807818 108.6686156)
(1554.498218 1029.518376 -393.6205805)
(49.58379361 -520.0791248 144.0248922)
(1231.612747 -683.6033804 -97.55748522)
(-0.8047409745 -54.4318591 98.49319422)
(148.8980909 863.9175361 -141.2726016)
(799.1040789 1188.08243 -274.2582182)
(978.7325195 -250.8331405 140.7489874)
(235.5188808 475.0884108 395.2121424)
(-159.9874751 528.4801054 -43.28339432)
(351.8891293 593.3410377 -377.6554176)
(850.1148319 977.5090887 51.29813178)
(632.8810642 636.5350632 173.6730943)
(968.6027987 207.8848789 -681.5714836)
(-141.4333519 396.4978821 37.95064987)
(1032.73443 681.2089861 225.4920549)
(-175.3501589 412.8650172 -331.9092846)
(394.0080305 -47.45286926 507.7939829)
(422.7153789 -102.9199684 -91.5500049)
(351.0046508 103.503327 226.1553202)
(1476.460081 605.0931844 34.90559089)
(222.3422834 780.7564078 648.1246688)
(1036.156617 -61.00432035 212.696434)
(500.4301094 122.7598576 -543.5692121)
(802.8058468 -30.15410304 429.2314346)
(-163.9479302 402.9900312 -1014.024219)
(1239.284239 -765.9257336 -431.6794001)
(681.3962739 660.541799 -128.7420618)
(112.2103673 837.9937052 897.3660866)
(78.5858861 -194.2063955 199.2587903)
(1042.096644 35.45296693 -185.284967)
(846.3184754 -427.0371492 130.3344244)
(850.4107803 612.8444358 -712.5233357)
(-143.9452677 140.5730538 -163.7389555)
(642.3578389 -147.766098 -814.0685218)
(-472.6061388 476.94809 -422.0409728)
(627.6589047 121.8642127 -319.3107353)
(-287.4723965 239.6459823 -660.7612253)
(283.0106484 413.1247391 315.697782)
(233.4171816 256.0475071 46.06027038)
(752.0897276 -386.1787303 606.3554653)
(263.5425984 -457.1419504 259.2935315)
(-135.889478 1264.790626 82.79921569)
(859.3053848 -194.4985488 -932.3895173)
(1519.01998 197.2788758 -882.9363596)
(253.7728198 253.4032209 -172.1053909)
(386.7863478 436.8527266 -685.8816094)
(1723.019007 -413.8421404 752.8138633)
(1175.371678 -242.8971897 -435.9495416)
(419.6062477 -261.0382713 -425.5395796)
(-493.5022242 9.458232309 618.1084572)
(253.3970732 493.3983123 26.966605)
(483.5426281 179.5508525 -4.251102145)
(1217.146117 213.1648174 -107.4056363)
(1131.735693 406.6750321 115.3532546)
(1640.195738 359.8841272 435.6034654)
(430.4029338 707.4229779 -147.5364409)
(-199.7945602 92.64262528 -548.02436)
(-75.80935677 281.9352329 617.1443992)
(509.8227463 -664.0431627 791.2520312)
(140.9723602 245.0947489 426.1748437)
(644.9627886 890.376164 -564.4438918)
(927.070852 -165.6623754 1395.683506)
(137.6219041 -261.771248 -564.1530136)
(531.7819775 -860.4176505 -580.382402)
(51.76518889 238.6904494 -204.8544255)
(-168.4747894 545.7186195 -735.1837091)
(428.8234543 -33.81262893 51.10805255)
(81.37804807 640.4272623 140.7568611)
(684.8244489 349.7794193 -81.0402677)
(452.868383 21.70475959 -810.4418121)
(681.9588035 666.3190665 55.93246845)
(557.6750174 -491.5676335 387.3839666)
(1950.193857 -180.0044051 312.2157024)
(-442.7714174 -371.0752129 -287.89035)
(1111.913739 -331.8979474 -763.5289558)
(332.1163629 114.7652842 64.72884498)
(777.10242 669.5297402 842.6611881)
(844.0223151 -735.8428591 -548.2105563)
(1338.841206 -4.913524874 378.2605)
(965.9227832 93.08459362 -573.7876098)
(541.1361656 -125.5465701 -116.7447413)
(537.4502479 1.327803853 -434.2455121)
(964.9008987 -61.85248846 -426.737105)
(1497.622578 881.8413673 -91.31246997)
(187.0095125 -13.39652587 -373.5125134)
(300.01237 66.13472241 223.5781676)
(321.5179462 -361.3491409 114.3419554)
(1204.038271 292.2097264 -165.6552292)
(465.1407315 -50.53522355 -774.7352854)
(434.098368 -693.3489014 49.62060922)
(593.219832 -154.6159816 733.5682778)
(306.6926528 -312.2236107 -450.133675)
(1030.9905 306.6406477 -21.6872267)
(-486.8485118 353.6518919 -75.74923647)
(639.7992533 -43.63341394 1054.22777)
(-207.3857337 21.40317392 82.20133837)
(693.2864534 185.0971469 -444.8670998)
(-246.1245084 741.9136797 489.0486675)
(386.9814091 205.0760425 166.0245592)
(39.5534799 384.1081193 -101.4405026)
(-57.46199653 287.4019403 -638.6149137)
(516.3277738 269.9982243 105.8146753)
(465.7655606 189.1589008 -356.8945739)
(731.283204 237.5314667 -536.5395258)
(440.419168 97.80063808 -514.8167564)
(-211.6960363 871.4187381 -74.60356986)
(343.5077431 444.5121714 -177.3478129)
(983.3563492 142.3605803 -134.8312825)
(384.1397318 404.1514964 -440.0017322)
(1400.112767 236.8822635 742.0820765)
(139.3368591 204.3460268 -157.5917123)
(874.7495288 1020.964264 500.4174517)
(617.8928452 565.7931819 -921.8502091)
(974.9808775 158.591803 -304.4181072)
(1139.850436 372.5112976 533.0567368)
(1240.322415 867.0996665 -298.6364147)
(244.6947717 -436.3436978 -19.85258315)
(878.4496092 1074.517446 776.2040531)
(1699.701928 217.0933535 -27.52696869)
(899.2836762 -318.5678857 -64.2035809)
(359.7262305 327.5655624 -13.00939367)
(158.7640073 205.3796966 -179.7462861)
(-532.0343894 2.606240504 -191.8182887)
(566.0446955 618.244233 407.8613051)
(1290.410899 -235.6071062 215.8771288)
(-86.90973177 21.18052036 1298.579585)
(-1.225903431 917.0706642 237.1717225)
(1043.545665 978.71395 -259.2341998)
(388.0765099 1032.862764 -179.0952068)
(206.0958449 199.3638371 -193.524543)
(1050.680146 1197.195618 673.4617101)
(131.3487821 149.6385209 -474.4861576)
(491.1404544 938.7179575 450.1400889)
(423.9302716 502.7405797 -405.722972)
(1684.50768 169.2846874 283.6587003)
(459.869445 1172.210482 385.9854187)
(1136.680864 -73.68624892 -716.8902156)
(866.9849994 -152.984216 -467.9071569)
(478.7378616 436.7451066 -451.0520952)
(89.0576253 881.6993958 -464.8922041)
(1924.690563 749.0937355 210.0635624)
(494.3063734 -473.5763452 1094.272999)
(-402.3603576 390.6684751 122.5189479)
(505.578359 -204.7756901 -10.48961505)
(1724.266176 -73.30517156 -204.1525412)
(1134.963948 1196.947262 776.0071045)
(-123.2954387 885.0385179 -251.6823156)
(795.2198761 520.9783546 -144.381126)
(713.3912864 886.8509502 -10.73974861)
(296.0255964 -617.5786973 298.5009706)
(602.4767097 -57.03518915 753.8681026)
(1019.292381 723.3800921 -146.5922532)
(1569.692455 169.2152731 -148.2498481)
(1628.893136 -23.65588087 128.4355834)
(545.8283838 233.7339514 -506.3020091)
(-77.9672552 401.1499658 -108.6351416)
(154.5717317 1295.389303 -541.4339113)
(1380.896243 768.8128646 -795.2424403)
(3.410527021 873.0994673 42.91441255)
(-483.3062548 470.103185 296.6938352)
(652.0831317 -346.2542527 -67.9062954)
(6.473733293 986.7989228 -55.59506293)
(39.26191695 788.9042303 -415.7050032)
(548.9673322 20.96323163 85.9131944)
(706.2958841 -153.6221579 -538.4467912)
(487.8627476 851.3460534 -184.7128671)
(-689.0713834 909.0591343 190.9112575)
(413.9697134 -15.37850422 231.7380965)
(2171.246573 -571.5351415 -321.5466651)
(1095.738134 589.1444804 148.2411759)
(-482.9117719 -19.69165563 185.5218109)
(482.684679 899.4211636 452.8105174)
(810.6084378 438.0524939 -11.5918812)
(828.419431 1271.673432 -21.65219112)
(504.5922122 -377.7569247 -342.8971607)
(520.2355114 219.3192242 389.9189068)
(48.58547705 711.4390271 -310.8613759)
(-307.0834668 656.0998214 244.4953794)
(454.5335249 218.8433589 -38.2490693)
(415.5549806 -462.7863097 -696.3776301)
(1294.354105 -24.87197155 -131.9206201)
(64.00607106 149.6333081 881.6410109)
(1229.334769 49.60033164 156.7003544)
(602.961639 10.195355 328.6143895)
(381.2090634 1115.478774 133.995594)
(1414.324029 307.4614229 -20.2767038)
(1628.51468 279.5426589 22.11704131)
(475.8517522 391.9040624 -212.7784428)
(812.4628041 129.1774799 -170.4915774)
(234.1334341 569.109106 835.4959118)
(744.4301402 200.4560997 -385.3336295)
(1188.628858 -84.59235589 -420.5452687)
(762.2721058 667.240317 439.0835739)
(951.7256669 1202.379974 462.3027381)
(964.4171784 -89.72055106 -441.1772027)
(430.5691218 -87.75422288 -77.83321732)
(-52.4175401 168.2277531 -289.8862451)
(337.691725 -770.4841016 22.01911048)
(843.8442878 567.6233906 364.1906332)
(-80.17550267 -169.922453 166.2668658)
(591.7661478 409.8734344 838.6022615)
(1380.210086 725.3169838 9.474495399)
(1274.506455 -30.88493003 842.8176614)
(453.8600362 -607.3336919 735.4425346)
(486.6756473 -267.8023858 -1107.589531)
(439.6396225 648.5265387 371.5371817)
(689.48151 764.2482317 -271.8193829)
(1261.560588 767.0282075 519.6137687)
(1155.8503 294.3101944 -864.8133987)
(149.7589251 518.9965938 406.1248165)
(1117.317698 204.0565106 3.718671527)
(-309.6402849 19.59349754 165.7500744)
(202.4037474 -344.7420928 -6.834929325)
(442.247948 780.2881149 30.55038216)
(-441.4004649 -232.6547023 -948.7604024)
(-217.0134033 289.3338011 -11.06442859)
(871.4127405 977.0211946 -208.5657392)
(847.5254973 -40.8922586 -137.0542757)
(596.3389837 138.4292939 -612.2325125)
(1362.111896 150.2359788 -222.7996057)
(1010.323249 349.8390037 259.3203765)
(175.3766712 85.14555303 112.7111991)
(929.0819669 747.0737661 428.1846082)
(580.1170287 85.12582848 -439.7158948)
(1140.200469 -264.8849031 -507.5040233)
(458.9417169 644.2237627 320.1206843)
(419.5541713 930.560171 327.7408437)
(140.6185428 1143.322518 136.8122161)
(1162.455265 -589.7976622 -506.4124248)
(1733.33245 431.2653402 401.1376828)
(1049.018567 79.96194001 -53.20612049)
(254.4432951 785.7265837 294.2626892)
(682.3343101 474.1625265 -427.5051036)
(1006.603679 852.8141538 247.3854166)
(698.8864942 -70.49920559 275.0792599)
(737.3199422 -859.145732 -4.353451996)
(-326.4164882 -210.9141475 1006.554191)
(1176.802906 795.2717442 -18.15344254)
(-6.597820475 -291.4127169 -423.5579274)
(112.6074344 506.1260576 311.1767932)
(664.9643789 198.372932 -443.6492558)
(1473.96941 500.072995 -705.8625447)
(410.9072224 101.8478213 -188.9846179)
(1257.329424 562.6824757 -577.0595378)
(184.3458374 236.9723151 634.9726603)
(29.00914172 95.83796607 -340.6068869)
(-1178.045094 -444.4737078 -262.2912266)
(29.37796586 -92.95029404 121.3834665)
(476.4262804 1837.918133 -136.4262155)
(936.8418912 219.6947899 -6.554915252)
(470.8817478 -2.692316172 -264.1836539)
(1319.060597 120.8019142 -1000.770581)
(557.1742066 784.0874933 94.06164987)
(1179.295036 944.6923048 -187.1877998)
(1353.631659 215.2637624 439.2683837)
(1254.141278 210.8152256 -165.0097615)
(159.5544224 -336.5613019 624.3983633)
(185.5995182 284.6383733 -275.9355872)
(1651.739772 333.4029807 166.6221861)
(1192.887053 -453.5284854 -545.8239243)
(1317.650035 825.92767 -38.52712247)
(1192.822584 956.1293507 331.0895759)
(51.80097306 423.7514685 446.7362485)
(921.3665156 -194.9557697 -680.4583968)
(-329.9901857 -69.46569753 60.50149965)
(702.0844836 459.4749407 -453.6107193)
(1323.501254 -364.2358509 192.6249704)
(710.1957022 508.8041953 -665.8779132)
(577.7411099 -154.8046067 -238.7333052)
(589.1858213 -34.61671166 -724.8867316)
(509.7679128 6.822330511 99.6515066)
(959.3746188 461.9592745 382.373277)
(96.84120254 -648.6709588 243.5951358)
(281.5119686 275.6786518 278.379461)
(-84.03779613 221.5727265 581.668614)
(317.0761827 671.0525501 177.9434683)
(276.538196 177.7696324 43.7173796)
(1081.044576 696.4008017 -376.4550948)
(-451.5794533 1094.546107 197.3716642)
(995.9164769 566.0883499 224.0529706)
(360.0954472 648.8315287 -43.82232963)
(158.4615385 281.256289 109.9723178)
(1134.045554 3.548448658 -71.91924006)
(1289.88732 -65.41944368 284.8860728)
(929.8821782 -233.5431147 -77.90281197)
(198.7665543 289.8162228 -48.46493111)
(636.5067029 234.6544206 602.8656057)
(716.0351222 303.3227865 -32.37904592)
(170.083626 180.4773102 131.9286342)
(330.5989613 369.1828184 226.3598816)
(1036.936227 617.6346057 -659.1443074)
(158.7022101 368.723077 -159.0288209)
(1113.670607 129.862645 -907.9165612)
(486.3988952 295.4687789 397.9163496)
(1644.792748 547.7081684 409.725772)
(270.2207316 34.70169212 160.581728)
(403.9658248 -639.6700975 569.6501092)
(752.0807701 480.7387728 -657.3228003)
(-131.2664235 -96.02743051 -361.9521151)
(32.68788442 -652.5234337 814.154036)
(456.1958595 325.4481463 206.4106104)
(496.3273537 35.47007842 -88.91351874)
(705.1712647 -346.3001814 -367.4025486)
(-518.0669841 -61.79631654 198.0037936)
(-49.90564105 598.8034479 452.9149388)
(31.23517968 57.94314054 686.0174613)
(218.9422657 203.455892 -303.9698615)
(130.2453203 653.6184367 731.4022153)
(-59.1992781 478.4780067 866.5530401)
(-454.0971175 -142.6474139 432.9920515)
(1036.784633 381.0907116 -92.67801945)
(1056.611621 176.2412316 123.7335263)
(-93.03248859 747.7719156 47.81550525)
(582.9450096 -509.39734 -136.3013225)
(116.676047 341.950649 468.0690354)
(776.6950346 856.5170179 168.2834875)
(1702.93162 778.9738779 -686.0712453)
(1048.905435 281.4332842 87.76807334)
(-191.1870316 373.0526441 291.8513269)
(484.3884186 922.8129841 450.0735318)
(1108.126537 511.1833791 432.3706367)
(352.7914596 667.1965853 715.0954224)
(774.0919907 -352.3088861 55.40833755)
(513.7341673 623.8800044 642.2977719)
(965.0040185 982.6197517 -18.63040354)
(1091.000046 474.8130768 -89.93293733)
(766.4290888 321.4407546 -343.0926557)
(578.1724856 84.09687636 278.6280504)
(1406.988047 702.0520752 1074.935808)
(-411.7847223 671.5054436 -222.6751545)
(756.4610683 291.7748771 81.36183168)
(-17.59957943 -466.8184832 -572.101195)
(595.6406835 615.3239106 594.1028662)
(664.5082676 675.9741933 399.2538633)
(-375.8185799 518.7362765 703.3793284)
(606.6242275 -160.0661456 972.8461932)
(331.7152723 732.4648822 795.8475717)
(705.0890243 154.7335369 -113.4076459)
(1098.590385 -666.3260099 239.4390935)
(986.3141305 762.4856813 47.42456202)
(13.14169003 -669.2750586 -118.92239)
(1098.785305 22.05459386 -11.16791038)
(1355.124105 186.0975656 187.3203198)
(-321.7881176 275.6944124 -799.7870954)
(1089.019777 361.7953176 -585.9442056)
(2227.371337 858.6718889 -114.2019268)
(-502.9655857 -2.846426122 421.7518658)
(140.9908253 -197.9562702 -146.6417302)
(455.2967187 -108.8130095 275.7049427)
(655.6222185 553.6827021 18.23691165)
(192.0258209 765.0832295 39.81793124)
(224.9186968 -207.684472 -163.7920835)
(-436.7133337 1178.07354 -485.6285461)
(132.9992553 393.5250479 -894.3005649)
(1456.014262 279.8824031 53.61435538)
(736.0739727 30.71772713 412.2666044)
(427.0133341 -253.5377463 -119.315822)
(-191.6180454 591.0842252 -553.9311649)
(578.1224836 186.8355567 -442.8290985)
(1529.010081 924.4134967 -732.3765579)
(745.2712884 -604.4700284 14.00318754)
(2408.278408 309.4674516 -361.746737)
(727.0652301 -454.9024123 -286.2034433)
(605.3401318 323.9820484 -1046.548599)
(1914.396713 238.6553237 253.899421)
(1566.296748 -151.4095705 -611.6266402)
(2169.172466 -170.1973558 -38.06332485)
(1101.147019 -291.0741875 -213.2300958)
(-464.8182116 -819.3537985 382.2825722)
(-599.2971765 -376.8815613 -62.97788598)
(180.5641168 926.7584432 -24.75067126)
(1348.914089 55.30698513 -42.90234388)
(179.9373817 240.6475904 37.33610574)
(658.3108052 254.0799893 204.9381085)
(479.0156574 -86.6844179 -125.1944611)
(611.9421322 628.250463 1043.534827)
(352.0604954 -151.5387425 -621.552185)
(1293.234526 124.6813306 35.5004908)
(2058.179766 479.5776951 890.3800657)
(431.821746 214.5003791 200.2286107)
(471.4672415 -109.4079969 -142.6054091)
(1464.412092 -19.79796724 169.1684247)
(1511.336742 -72.75053861 142.9094672)
(1018.219775 658.0440694 309.287877)
(1245.450098 917.0782032 278.8155948)
(468.2553595 889.7378614 293.4359715)
(473.2955195 37.36568027 -478.5262369)
(1177.630832 -566.939241 -10.35833667)
(-288.4955305 -193.4242353 601.186247)
(1339.663517 948.1209763 -78.76897015)
(1370.350817 152.1774177 326.6038235)
(-283.0910572 392.8098739 128.9467692)
(852.026681 -191.0985519 -512.6699069)
(143.7134349 -417.8222297 43.80813946)
(-261.3141621 71.15417701 -403.2165443)
(-297.3819364 76.5314876 -904.1014205)
(1898.844631 772.590061 -102.708296)
(490.0160641 146.4786856 396.0405509)
(155.7147425 599.7903829 402.5293832)
(1088.135129 -227.7766147 411.6073344)
(1025.153818 1574.243682 94.23256312)
(1816.590062 746.2865426 759.9481131)
(-154.0924244 567.2323852 627.1368347)
(723.2382591 194.969922 414.4753377)
(1071.274183 177.408879 857.6629711)
(775.3745421 -144.0409811 1046.970673)
(957.4516124 -25.52935969 -556.1460835)
(553.161156 647.2373457 731.0592639)
(-285.1763883 267.1687939 591.9766246)
(62.67548257 437.5466483 590.7103734)
(133.5384121 202.1291043 772.5455472)
(506.5944239 573.9191566 -434.0440819)
(1458.160961 -753.2858568 1001.527093)
(1053.639851 706.0642461 -24.74368973)
(1015.956173 -59.86935363 -243.0608038)
(1622.429228 1277.502029 701.5070696)
(1055.939656 -106.7935507 -236.9031766)
(157.0082646 745.6908146 44.78812187)
(-138.4694963 -53.52233984 21.42661493)
(355.23166 314.8467984 569.8850807)
(978.2670092 213.2710438 138.3007693)
(615.3644387 -152.504742 -11.17926511)
(198.0122228 300.0562515 354.0466049)
(422.5755039 132.0463012 6.297089813)
(53.49464382 -57.78038093 -241.7501311)
(991.8553008 520.2038573 -281.788986)
(1287.758166 114.3562407 -407.6916462)
(576.0094164 316.020916 115.7562702)
(653.0409746 198.0267358 -194.3235595)
(740.9888791 555.8045739 748.8370882)
(433.8188484 -14.32250678 -156.6232941)
(756.3372934 268.4496084 1349.954158)
(542.2814382 -145.6920387 -82.37182909)
(305.068658 657.3267086 -218.8999167)
(-285.6558832 712.3165051 -490.4144545)
(-75.60344611 473.8544041 423.26977)
(1093.73073 235.6075126 -86.95595862)
(378.8113259 76.06437535 471.8924838)
(578.2394679 1000.47074 -596.6064388)
(1062.743366 511.0300405 451.9435501)
(451.2458977 955.5512793 -138.0539818)
(640.3560472 768.0776568 -20.69717362)
(1727.918758 31.30177008 -335.3336541)
(667.9684799 424.4180662 -209.5702419)
(1132.806045 -318.9660446 87.79110261)
(848.379263 266.3785449 -285.7802933)
(160.1832437 -264.2866968 -781.7533216)
(697.2747772 -360.2451797 759.1285788)
(1264.7539 534.3069713 -726.0235564)
(696.9319987 701.2035741 179.6375866)
(-317.6448906 -28.58920907 821.3262531)
(1387.125268 -44.85024616 -737.1272281)
(738.3277472 122.0535259 -506.0334258)
(1402.727381 856.0147575 -292.6190107)
(952.7886846 1016.864596 -62.38607223)
(1270.773947 538.8204975 604.6622186)
(1105.430785 1988.275473 -363.8128344)
(555.9774653 -324.3877015 -286.1620669)
(1217.529105 327.708054 -470.4955009)
(304.3756086 -607.9294299 296.6362209)
(593.8949178 -125.3494733 -524.8230685)
(1303.777263 374.5870207 -137.4625412)
(761.7974564 484.2468165 293.9265369)
(268.7305941 315.8564887 -83.68005737)
(1114.321259 402.2093194 -285.4222265)
(248.341341 574.491537 464.5667769)
(1159.595194 800.7889392 -619.2493371)
(1223.823397 323.4298088 -1167.129728)
(605.6918284 760.6439947 7.799778664)
(581.174888 171.3764883 368.62141)
(694.4420277 281.8561813 -273.9579774)
(235.7429693 -239.8458023 -1254.448316)
(1058.051478 580.3727657 -140.8434268)
(84.59381571 -650.6063707 -315.3114503)
(66.83717167 3.643179945 -140.8236731)
(1142.332717 826.2754724 -42.96568886)
(-238.9860832 647.3066362 68.07925936)
(-206.8729691 27.48660978 227.9313626)
(907.8761819 358.7024536 289.1947516)
(723.9236584 246.9751629 -83.87993752)
(1115.748092 872.6468373 -16.77947173)
(-463.2922774 -26.64208456 -276.7441772)
(229.8113954 -643.8706472 -680.9029662)
(1484.725539 788.5601553 -712.8123923)
(512.3880158 295.432977 149.1880307)
(803.9644755 772.5503605 234.7702731)
(985.2783154 419.4681015 -615.6169278)
(-253.8863315 210.3954641 -457.384909)
(743.135555 -17.80821699 -84.36796494)
(776.0683623 392.9724921 -886.0064256)
(925.7117454 330.431229 375.3084073)
(143.3106025 -361.8571584 565.2999298)
(-263.9543626 415.3651729 -298.0126099)
(1096.389182 258.4965875 309.6599923)
(862.7595192 356.2796789 -206.8558191)
(-257.9316759 781.0793467 -225.4240132)
(445.9472947 -153.9059489 43.62151079)
(950.3615373 679.1140657 -564.1259642)
(1015.31289 -89.04242213 661.8479792)
(-230.8789628 956.8774485 532.0931789)
(299.5362708 775.2181582 193.280387)
(741.6674915 -302.7245623 155.4318201)
(1100.484785 335.1752874 -704.294028)
(1337.606089 695.4743962 -399.2990732)
(1812.593058 732.2103497 -133.4987141)
(753.1240892 934.7943358 644.6847345)
(-277.3787166 -246.932667 148.6360694)
(928.301961 492.3513655 555.1223462)
(708.8072899 904.3881331 17.44184924)
(364.1575846 -329.7867282 136.3244145)
(278.099258 212.4866523 -813.9162537)
(1551.561209 442.4352969 -325.1028342)
(754.3168927 206.0230621 608.3514523)
(334.4210356 422.8770146 -182.355266)
(287.6533541 645.5455047 -393.3194121)
(217.009236 -556.3226664 -709.4516483)
(567.5480726 650.4156547 766.9057686)
(583.200617 861.7836415 -295.1211506)
(-194.8241678 79.14500379 -1191.321672)
(76.81565112 526.0947608 -95.82981121)
(796.1153729 -35.44077784 428.6698538)
(618.2893712 516.9963053 -411.7173916)
(413.1302344 -681.4289498 -712.8266343)
(699.907878 1483.706361 -530.8830546)
(1548.457475 -457.3909863 410.534483)
(852.1823114 129.5963803 -728.4962977)
(-31.02931225 141.2584399 -253.7299147)
(1234.044723 -271.389005 -111.0099842)
(669.6527409 231.910373 400.7675945)
(-216.8577583 273.5392538 484.0783956)
(852.9173256 304.3263565 -1135.920468)
(1428.860458 -222.5214476 -675.4751075)
(-460.0607761 609.2657788 -143.2998037)
(489.3631227 725.0354577 -289.9554909)
(179.0420321 1745.119588 -452.9369938)
(1284.770733 243.5605805 -125.9432079)
(508.4106999 -263.1935757 589.9045461)
(765.5772248 130.6669018 -600.4892889)
(1.278559721 1136.565562 -142.5813568)
(631.8456847 -240.7039863 557.1280767)
(350.0164918 -454.8999042 -668.0973507)
(720.6878069 235.8207853 571.5220885)
(413.4009314 296.5468267 658.11419)
(398.9008986 140.6907412 139.1464299)
(255.7929865 210.6309576 429.2224238)
(315.6353849 636.7909219 601.1478979)
(1184.93301 15.36118785 -717.918725)
(161.0399636 -46.2418057 72.47956108)
(1337.802266 -242.4063515 358.4763292)
(1108.850508 114.7374294 -112.0200318)
(1009.085082 67.58368949 -49.4795285)
(190.4609912 631.5543568 141.6771332)
(664.6043052 297.1884133 -86.92762503)
(682.2543223 1127.282105 253.6398627)
(1233.674642 -95.13588589 354.2826258)
(-124.5322929 112.3764159 -643.5757818)
(450.4826931 724.3802763 -539.8402008)
(1226.494457 -259.5758287 380.6044324)
(505.379006 492.8190424 143.7790332)
(749.4703376 29.54177256 335.0463165)
(891.5094822 173.7160282 -385.0526198)
(773.3433882 745.1763836 181.9441721)
(611.5689592 327.9373471 -853.1624219)