/*--------------------------------*- C++ -*----------------------------------*\
| =========                 |                                                 |
| \\      /  F ield         | OpenFOAM: The Open Source CFD Toolbox           |
|  \\    /   O peration     | Version:  2406                                  |
|   \\  /    A nd           | Website:  www.openfoam.com                      |
|    \\/     M anipulation  |                                                 |
\*---------------------------------------------------------------------------*/
FoamFile
{
    version     2.0;
    format      ascii;
    arch        "LSB;label=32;scalar=64";
    class       volScalarField;
    location    "0.008";
    object      dsmcRhoNMean;
}
// * * * * * * * * * * * * * * * * * * * * * * * * * * * * * * * * * * * * * //

dimensions      [0 -3 0 0 0 0 0];

internalField   nonuniform List<scalar> 
546
(
7.4185
9.57425
9.6805
9.6235
9.6245
9.61275
9.6125
9.56425
9.52775
9.578
9.6115
9.668
9.63375
9.5685
9.565
9.56225
9.585
9.557
9.49425
9.49425
7.4495
9.56975
9.62725
9.6745
9.70225
9.67225
9.6515
9.65975
9.60625
9.58525
9.58975
9.56225
9.60125
9.55975
9.589
9.56475
9.56475
9.64725
9.677
9.6915
7.41825
9.538
9.56775
9.535
9.5345
9.5735
9.62375
9.6
9.6065
9.655
9.60975
9.6155
9.574
9.5595
9.5845
9.584
9.53525
9.5525
9.51625
9.5205
7.4425
9.6035
9.634
9.576
9.57825
9.53375
9.54025
9.5525
9.5985
9.5285
9.605
9.63725
9.71275
9.651
9.66725
9.63475
9.606
9.6015
9.68175
9.6595
7.461
9.59425
9.6235
9.6275
9.61275
9.62175
9.565
9.58825
9.54775
9.45775
9.45525
9.42875
9.43275
9.487
9.5605
9.617
9.6675
9.66775
9.6035
9.59875
7.44725
9.57575
9.59225
9.599
9.63475
9.64425
9.60925
9.59725
9.65975
9.69625
9.7435
9.68625
9.6565
9.606
9.60475
9.6665
9.643
9.5895
9.663
9.67925
7.431
9.5295
9.60375
9.6465
9.598
9.6195
9.63775
9.68125
9.61425
9.656
9.64925
9.7085
9.75675
9.70975
9.694
9.62525
9.68025
9.63025
9.6355
9.63875
7.4395
9.6005
9.66025
9.63475
9.65675
9.649
9.66275
9.633
9.70175
9.64025
9.64425
9.58525
9.56225
9.57525
9.5875
9.64375
9.61175
9.66325
9.70725
9.71575
7.4435
9.573
9.56975
9.59175
9.58725
9.5245
9.5415
9.59875
9.55675
9.66025
9.686
9.717
9.6895
9.686
9.6535
9.57925
9.5995
9.58175
9.52575
9.5105
7.41875
9.51925
9.559
9.59975
9.546
9.60425
9.59975
9.63725
9.58875
9.5265
9.506
9.51775
9.56775
9.6015
9.63325
9.6635
9.624
9.57475
9.556
9.522
7.46325
9.58975
9.601
9.592
9.5975
9.56925
9.60775
9.53225
9.5865
9.65475
9.637
9.634
9.62975
9.6065
9.51325
9.524
9.54825
9.63175
9.688
9.7185
7.398
9.58775
9.62625
9.6305
9.59725
9.56425
9.589
9.53375
9.5225
9.4925
9.44875
9.519
9.508
9.56475
9.63825
9.59
9.654
9.57475
9.59825
9.57475
7.4555
9.602
9.6795
9.65025
9.6485
9.60925
9.57125
9.5975
9.6305
9.62325
9.60675
9.63675
9.6345
9.61025
9.5645
9.624
9.49925
9.5655
9.57525
9.54775
7.4015
9.4645
9.54275
9.5475
9.55875
9.575
9.60075
9.63325
9.6215
9.62925
9.56975
9.50075
9.446
9.48275
9.48175
9.5435
9.56075
9.55225
9.546
9.5645
7.49725
9.61775
9.60275
9.52325
9.5875
9.5645
9.5635
9.577
9.5455
9.497
9.49825
9.5495
9.6115
9.565
9.598
9.55825
9.5285
9.55075
9.59975
9.62975
7.40375
9.54425
9.608
9.66125
9.7035
9.626
9.55725
9.5365
9.56975
9.60625
9.6025
9.57925
9.568
9.5955
9.6595
9.6475
9.6425
9.57375
9.52175
9.52
7.46225
9.6675
9.69475
9.65675
9.55875
9.66175
9.72825
9.761
9.707
9.7495
9.718
9.699
9.732
9.65525
9.62925
9.58275
9.59975
9.57675
9.6405
9.612
7.29125
9.34625
9.41425
9.487
9.47425
9.48725
9.49725
9.49925
9.502
9.495
9.59
9.57075
9.558
9.55625
9.55625
9.56525
9.5455
9.55125
9.57225
9.517
9.40325
9.3405
9.29925
9.229
9.15625
9.13125
9.491
9.464
9.445
9.3185
9.329
9.32775
9.30775
9.2715
9.1405
9.047
9.6585
9.62375
9.588
9.52875
9.40475
9.3
9.2445
9.15525
9.11375
9.12975
9.529
9.4575
9.3955
9.28375
9.28625
9.18375
9.13425
9.1135
9.06575
9.047
9.64275
9.574
9.453
9.47275
9.37075
9.29775
9.18025
9.08975
8.98575
8.96825
9.561
9.48375
9.40675
9.311
9.2605
9.1845
9.20025
9.21075
9.0715
8.98625
9.611
9.5125
9.483
9.43475
9.47125
9.38675
9.2435
9.155
9.14475
9.1035
9.6155
9.541
9.4645
9.40425
9.299
9.26175
9.2205
9.152
9.02225
8.9325
9.716
9.679
9.5355
9.3825
9.24975
9.17725
9.1175
9.0305
8.952
8.895
9.41125
9.342
9.27575
9.1985
9.20975
9.15275
9.10875
8.9785
8.962
8.92625
9.478
9.48725
9.4645
9.4325
9.33475
9.2525
9.242
9.166
9.126
8.9745
9.66325
9.56475
9.43925
9.36825
9.3555
9.27375
9.156
9.0755
9.07525
9.03175
9.59425
9.522
9.4885
9.39775
9.243
9.17775
9.1485
9.13975
9.083
9.027
9.49425
9.4715
9.4205
9.37475
9.3065
9.28925
9.20125
9.13725
9.03375
8.95525
9.5495
9.5615
9.4425
9.445
9.42375
9.3295
9.234
9.1715
9.06975
8.9335
9.5605
9.48575
9.42525
9.34425
9.2855
9.19325
9.08
9.02625
9.03875
9.02425
9.4805
9.4455
9.3915
9.33375
9.28325
9.18975
9.1895
9.10625
9.06775
9.025
9.5335
9.458
9.38225
9.28775
9.2655
9.257
9.202
9.179
9.14275
9.0265
9.53675
9.416
9.3505
9.35
9.19125
9.11825
9.09075
8.945
8.82875
8.81975
)
;

boundaryField
{
    flow
    {
        type            calculated;
        value           nonuniform List<scalar> 
48
(
7.4185
7.4495
7.41825
7.4425
7.461
7.44725
7.431
7.4395
7.4435
7.41875
7.46325
7.398
7.4555
7.4015
7.49725
7.40375
7.46225
7.29125
7.29125
9.34625
9.41425
9.487
9.47425
9.48725
9.49725
9.49925
9.502
9.495
9.59
9.57075
9.558
9.55625
9.55625
9.56525
9.5455
9.55125
9.57225
9.517
9.53675
9.416
9.3505
9.35
9.19125
9.11825
9.09075
8.945
8.82875
8.81975
)
;
    }
    obstacle
    {
        type            calculated;
        value           nonuniform List<scalar> 0();
    }
    frontAndBack
    {
        type            empty;
    }
    procBoundary2to0
    {
        type            processor;
        value           nonuniform List<scalar> 
31
(
7.424
9.535
9.575
9.5025
9.52925
9.50725
9.60975
9.67025
9.73875
9.72975
9.65225
9.60075
9.6125
9.656
9.64575
9.61175
9.60725
9.58925
9.647
9.64575
9.26675
9.165
9.08475
9.0945
9.1745
9.1255
9.60175
9.52
9.46225
9.45825
9.45825
)
;
    }
    procBoundary2to3
    {
        type            processor;
        value           nonuniform List<scalar> 
19
(
9.10125
9.0135
9.05525
9.0125
8.88725
8.884
9.09575
8.86475
8.84625
8.824
8.9415
8.94375
8.97825
8.89525
8.92275
8.9205
9.017
8.96875
8.692
)
;
    }
}


// ************************************************************************* //
