/*--------------------------------*- C++ -*----------------------------------*\
| =========                 |                                                 |
| \\      /  F ield         | OpenFOAM: The Open Source CFD Toolbox           |
|  \\    /   O peration     | Version:  2406                                  |
|   \\  /    A nd           | Website:  www.openfoam.com                      |
|    \\/     M anipulation  |                                                 |
\*---------------------------------------------------------------------------*/
FoamFile
{
    version     2.0;
    format      ascii;
    arch        "LSB;label=32;scalar=64";
    class       volScalarField;
    location    "0.008";
    object      iDof;
}
// * * * * * * * * * * * * * * * * * * * * * * * * * * * * * * * * * * * * * //

dimensions      [0 -3 0 0 0 0 0];

internalField   nonuniform List<scalar> 
546
(
1.666239693e+20
2.291079578e+20
1.666239693e+20
2.291079578e+20
2.915919462e+20
1.457959731e+20
1.457959731e+20
1.666239693e+20
1.874519654e+20
1.666239693e+20
2.082799616e+20
1.457959731e+20
1.874519654e+20
1.666239693e+20
1.24967977e+20
2.082799616e+20
1.666239693e+20
2.082799616e+20
1.24967977e+20
2.291079578e+20
1.24967977e+20
2.291079578e+20
3.124199424e+20
1.666239693e+20
2.499359539e+20
1.666239693e+20
1.041399808e+20
1.24967977e+20
2.915919462e+20
1.457959731e+20
2.291079578e+20
1.874519654e+20
1.041399808e+20
1.874519654e+20
1.666239693e+20
1.457959731e+20
2.291079578e+20
2.082799616e+20
1.666239693e+20
2.499359539e+20
1.24967977e+20
2.499359539e+20
2.082799616e+20
1.666239693e+20
1.874519654e+20
1.666239693e+20
1.874519654e+20
2.707639501e+20
2.082799616e+20
3.124199424e+20
3.124199424e+20
2.082799616e+20
2.082799616e+20
1.041399808e+20
1.457959731e+20
3.124199424e+20
1.874519654e+20
2.291079578e+20
1.457959731e+20
2.291079578e+20
1.666239693e+20
1.041399808e+20
2.707639501e+20
1.24967977e+20
1.24967977e+20
2.707639501e+20
2.082799616e+20
2.291079578e+20
2.707639501e+20
2.291079578e+20
2.082799616e+20
2.291079578e+20
1.874519654e+20
3.124199424e+20
3.124199424e+20
2.499359539e+20
2.707639501e+20
1.874519654e+20
1.874519654e+20
2.082799616e+20
1.24967977e+20
1.666239693e+20
3.124199424e+20
2.499359539e+20
1.666239693e+20
2.499359539e+20
3.124199424e+20
1.457959731e+20
1.24967977e+20
2.499359539e+20
2.291079578e+20
8.331198464e+19
1.457959731e+20
2.499359539e+20
2.291079578e+20
2.291079578e+20
1.874519654e+20
1.874519654e+20
1.666239693e+20
1.457959731e+20
1.24967977e+20
2.499359539e+20
2.082799616e+20
1.666239693e+20
2.291079578e+20
1.457959731e+20
1.24967977e+20
2.082799616e+20
1.666239693e+20
1.457959731e+20
2.707639501e+20
6.248398848e+19
2.499359539e+20
2.707639501e+20
1.457959731e+20
2.915919462e+20
2.499359539e+20
1.041399808e+20
1.874519654e+20
2.082799616e+20
1.457959731e+20
2.291079578e+20
1.457959731e+20
1.874519654e+20
1.874519654e+20
2.082799616e+20
1.041399808e+20
2.291079578e+20
3.124199424e+20
1.874519654e+20
8.331198464e+19
1.24967977e+20
3.124199424e+20
1.24967977e+20
6.248398848e+19
2.291079578e+20
1.666239693e+20
6.248398848e+19
1.24967977e+20
1.041399808e+20
8.331198464e+19
2.707639501e+20
2.082799616e+20
2.082799616e+20
1.041399808e+20
2.707639501e+20
2.082799616e+20
1.874519654e+20
1.874519654e+20
2.291079578e+20
1.666239693e+20
2.707639501e+20
2.499359539e+20
2.082799616e+20
2.082799616e+20
1.874519654e+20
2.499359539e+20
1.666239693e+20
2.082799616e+20
2.291079578e+20
1.24967977e+20
2.707639501e+20
2.082799616e+20
1.457959731e+20
1.041399808e+20
4.373879193e+20
1.24967977e+20
1.874519654e+20
1.457959731e+20
1.041399808e+20
2.499359539e+20
2.291079578e+20
2.291079578e+20
1.874519654e+20
8.331198464e+19
1.666239693e+20
1.874519654e+20
2.707639501e+20
1.874519654e+20
2.082799616e+20
1.666239693e+20
1.457959731e+20
1.874519654e+20
2.291079578e+20
2.291079578e+20
2.082799616e+20
1.874519654e+20
1.666239693e+20
2.915919462e+20
1.041399808e+20
2.291079578e+20
1.041399808e+20
2.082799616e+20
1.24967977e+20
2.499359539e+20
1.457959731e+20
1.666239693e+20
1.457959731e+20
2.291079578e+20
1.874519654e+20
8.331198464e+19
3.124199424e+20
2.291079578e+20
1.874519654e+20
1.457959731e+20
1.666239693e+20
1.874519654e+20
2.915919462e+20
2.291079578e+20
1.666239693e+20
2.291079578e+20
2.707639501e+20
2.707639501e+20
2.291079578e+20
3.124199424e+20
1.874519654e+20
2.707639501e+20
2.082799616e+20
1.874519654e+20
1.24967977e+20
1.457959731e+20
2.082799616e+20
1.666239693e+20
1.457959731e+20
2.291079578e+20
1.874519654e+20
1.666239693e+20
2.291079578e+20
1.666239693e+20
1.874519654e+20
1.874519654e+20
1.666239693e+20
1.874519654e+20
2.082799616e+20
1.666239693e+20
3.124199424e+20
2.082799616e+20
1.874519654e+20
2.707639501e+20
1.874519654e+20
1.457959731e+20
1.666239693e+20
2.291079578e+20
2.082799616e+20
2.499359539e+20
1.666239693e+20
2.082799616e+20
2.499359539e+20
2.915919462e+20
2.082799616e+20
3.749039309e+20
6.248398848e+19
2.707639501e+20
1.666239693e+20
2.082799616e+20
1.874519654e+20
2.082799616e+20
2.499359539e+20
1.457959731e+20
6.248398848e+19
1.874519654e+20
1.666239693e+20
1.041399808e+20
2.082799616e+20
1.666239693e+20
3.540759347e+20
1.666239693e+20
2.291079578e+20
3.332479385e+20
1.24967977e+20
8.331198464e+19
2.291079578e+20
2.291079578e+20
6.248398848e+19
2.082799616e+20
8.331198464e+19
1.041399808e+20
1.874519654e+20
1.041399808e+20
2.707639501e+20
1.041399808e+20
2.082799616e+20
1.874519654e+20
3.332479385e+20
2.707639501e+20
1.041399808e+20
1.24967977e+20
1.457959731e+20
1.24967977e+20
2.082799616e+20
3.332479385e+20
3.124199424e+20
2.082799616e+20
2.707639501e+20
2.082799616e+20
1.874519654e+20
2.291079578e+20
2.915919462e+20
2.707639501e+20
1.666239693e+20
1.24967977e+20
2.499359539e+20
2.499359539e+20
1.874519654e+20
8.331198464e+19
3.332479385e+20
1.457959731e+20
3.540759347e+20
1.24967977e+20
1.24967977e+20
3.124199424e+20
8.331198464e+19
1.666239693e+20
8.331198464e+19
3.124199424e+20
1.457959731e+20
1.457959731e+20
2.082799616e+20
1.874519654e+20
1.457959731e+20
1.666239693e+20
1.457959731e+20
1.457959731e+20
2.707639501e+20
2.082799616e+20
2.499359539e+20
1.041399808e+20
1.874519654e+20
4.165599232e+19
2.707639501e+20
1.874519654e+20
1.24967977e+20
2.291079578e+20
1.24967977e+20
2.082799616e+20
1.874519654e+20
1.24967977e+20
1.874519654e+20
1.874519654e+20
2.499359539e+20
1.457959731e+20
1.457959731e+20
2.707639501e+20
2.291079578e+20
2.499359539e+20
2.082799616e+20
6.248398848e+19
2.082799616e+20
2.499359539e+20
1.24967977e+20
3.540759347e+20
2.499359539e+20
1.457959731e+20
1.666239693e+20
1.874519654e+20
2.082799616e+20
2.499359539e+20
2.082799616e+20
1.24967977e+20
2.707639501e+20
1.504220205e+20
6.492239607e+19
2.615388143e+20
2.853657859e+20
1.768782861e+20
2.227066471e+20
2.090185754e+20
2.315013913e+20
2.119129457e+20
1.920513594e+20
1.933997406e+20
3.246119803e+20
2.397439148e+20
1.536585001e+20
1.989880704e+20
1.55894653e+20
2.299204345e+20
2.104558102e+20
2.754868294e+20
1.280342396e+20
2.148885992e+20
2.380487872e+20
1.743592108e+20
2.19512143e+20
1.989880718e+20
1.336239882e+20
2.71724148e+20
2.104558102e+20
2.331042402e+20
1.280342396e+20
1.289331604e+20
1.947671882e+20
2.179490135e+20
1.975609301e+20
2.21097856e+20
1.336239873e+20
2.71724148e+20
1.473190662e+20
3.390607131e+20
2.77407521e+20
1.933997406e+20
1.298447921e+20
2.179490119e+20
1.53658499e+20
2.432076416e+20
1.781653177e+20
2.71724148e+20
3.367292941e+20
2.331042402e+20
1.280342405e+20
1.719108806e+20
1.947671882e+20
2.615388162e+20
1.317072867e+20
2.210978576e+20
1.55894653e+20
1.254111452e+20
2.104558102e+20
1.695303565e+20
2.774075191e+20
3.00844041e+20
1.731263907e+20
2.179490135e+20
1.756097144e+20
2.653174291e+20
1.781653189e+20
1.672148614e+20
1.262734861e+20
1.48339062e+20
2.56068481e+20
3.00844041e+20
2.164079869e+20
3.923082242e+20
3.073170002e+20
1.547684992e+20
2.227066471e+19
2.926260055e+20
1.894102292e+20
2.542955365e+20
3.200856012e+20
1.933997406e+20
1.947671882e+20
1.961541108e+20
3.073170002e+20
1.547685003e+20
1.113533235e+20
2.299204329e+20
1.894102279e+20
2.331042386e+20
1.280342387e+20
2.148885992e+20
2.596895861e+20
2.397439165e+20
1.975609301e+20
1.768782861e+20
1.55894653e+20
2.508222905e+20
1.894102292e+20
1.059564735e+20
2.133904008e+20
1.93399742e+20
2.380487872e+20
1.307694072e+20
2.634145697e+20
1.326587136e+20
2.449773118e+20
1.881167191e+20
2.104558102e+20
2.542955348e+20
2.347294409e+20
2.363774608e+20
3.46252779e+20
1.743592108e+20
2.41463359e+20
1.989880718e+20
1.781653177e+20
6.270557261e+19
1.894102279e+20
1.48339061e+20
2.133903993e+20
1.719108806e+20
2.164079869e+20
2.179490119e+20
1.975609287e+20
1.768782861e+20
8.908265883e+19
2.508222905e+20
2.525469723e+20
2.754868312e+20
1.493732806e+20
1.504220205e+20
1.947671896e+20
2.833337195e+20
1.536585012e+20
1.547684992e+20
2.4497731e+20
1.672148603e+20
1.262734853e+20
1.059564721e+20
1.066951997e+20
1.074443004e+20
2.164079869e+20
1.307694072e+20
3.07316998e+20
1.547684992e+20
1.336239892e+20
1.045092877e+20
1.683646482e+20
6.357388413e+19
1.707123195e+20
1.933997393e+20
1.731263895e+20
3.487184215e+20
1.536585012e+20
1.989880718e+20
2.227066471e+20
1.045092884e+20
2.946381343e+20
2.331042402e+20
1.493732806e+20
1.504220205e+20
2.380487856e+20
2.615388143e+20
2.414633573e+20
1.547685003e+20
2.672479765e+20
2.508222905e+20
1.683646482e+20
2.331042402e+20
2.347294393e+20
1.933997406e+20
2.164079884e+20
2.17949015e+20
1.097560715e+20
1.326587136e+20
2.004359824e+20
1.672148603e+20
2.104558088e+20
2.119129457e+20
2.77407521e+20
3.00844041e+20
1.731263895e+20
2.179490119e+20
1.317072858e+20
1.547685003e+20
2.672479765e+20
)
;

boundaryField
{
    flow
    {
        type            zeroGradient;
    }
    obstacle
    {
        type            calculated;
        value           nonuniform List<scalar> 0();
    }
    frontAndBack
    {
        type            empty;
    }
    procBoundary2to0
    {
        type            processor;
        value           nonuniform List<scalar> 
31
(
1.457959731e+20
1.24967977e+20
2.915919462e+20
2.707639501e+20
1.874519654e+20
2.707639501e+20
2.291079578e+20
1.457959731e+20
2.499359539e+20
2.499359539e+20
1.457959731e+20
1.041399808e+20
1.874519654e+20
8.331198464e+19
1.666239693e+20
2.707639501e+20
1.457959731e+20
2.291079578e+20
2.707639501e+20
1.874519654e+20
1.719108806e+20
1.298447921e+20
1.089745067e+20
1.975609301e+20
3.758663579e+20
2.227066471e+20
2.926260055e+20
8.418232352e+19
2.331042402e+20
1.493732806e+20
1.493732806e+20
)
;
    }
    procBoundary2to3
    {
        type            processor;
        value           nonuniform List<scalar> 
19
(
3.365085307e+20
2.019051184e+20
2.467729243e+20
1.346034123e+20
1.346034123e+20
1.794712177e+20
2.019051199e+20
2.243390205e+20
1.794712177e+20
3.365085307e+20
2.019051184e+20
2.467729243e+20
2.467729225e+20
3.365085307e+20
1.346034142e+20
1.794712164e+20
1.121695102e+20
2.916407287e+20
1.794712164e+20
)
;
    }
}


// ************************************************************************* //
