/*--------------------------------*- C++ -*----------------------------------*\
| =========                 |                                                 |
| \\      /  F ield         | OpenFOAM: The Open Source CFD Toolbox           |
|  \\    /   O peration     | Version:  2406                                  |
|   \\  /    A nd           | Website:  www.openfoam.com                      |
|    \\/     M anipulation  |                                                 |
\*---------------------------------------------------------------------------*/
FoamFile
{
    version     2.0;
    format      ascii;
    arch        "LSB;label=32;scalar=64";
    class       volScalarField;
    location    "0.008";
    object      iDofMean;
}
// * * * * * * * * * * * * * * * * * * * * * * * * * * * * * * * * * * * * * //

dimensions      [0 -3 0 0 0 0 0];

internalField   nonuniform List<scalar> 
546
(
1.545124895e+20
1.994124422e+20
2.016254168e+20
2.00438221e+20
2.00459049e+20
2.002143201e+20
2.002091131e+20
1.992041623e+20
1.984439404e+20
1.994905472e+20
2.001882851e+20
2.013650669e+20
2.00651708e+20
1.992926813e+20
1.992197833e+20
1.991625063e+20
1.996363432e+20
1.990531593e+20
1.977462025e+20
1.977462025e+20
1.551581574e+20
1.993187162e+20
2.00516326e+20
2.015004488e+20
2.020784257e+20
2.014535859e+20
2.010214049e+20
2.011932359e+20
2.000789381e+20
1.996415502e+20
1.997352762e+20
1.991625063e+20
1.999747981e+20
1.991104363e+20
1.997196552e+20
1.992145763e+20
1.992145763e+20
2.009328859e+20
2.015525188e+20
2.018545248e+20
1.545072825e+20
1.986574274e+20
1.992770603e+20
1.985949434e+20
1.985845294e+20
1.993968212e+20
2.00443428e+20
1.999487631e+20
2.000841451e+20
2.010943029e+20
2.001518361e+20
2.002715971e+20
1.994072352e+20
1.991052293e+20
1.996259292e+20
1.996155152e+20
1.986001504e+20
1.989594333e+20
1.982044185e+20
1.982929374e+20
1.550123614e+20
2.000216611e+20
2.00656915e+20
1.994488912e+20
1.994957542e+20
1.985689084e+20
1.987042904e+20
1.989594333e+20
1.999175211e+20
1.984595614e+20
2.000529031e+20
2.00724606e+20
2.022971197e+20
2.010109909e+20
2.013494459e+20
2.00672536e+20
2.000737311e+20
1.999800051e+20
2.016514518e+20
2.011880289e+20
1.553976793e+20
1.998290022e+20
2.00438221e+20
2.00521533e+20
2.002143201e+20
2.00401772e+20
1.992197833e+20
1.997040342e+20
1.988605003e+20
1.969859807e+20
1.969339107e+20
1.963819688e+20
1.964652808e+20
1.975951996e+20
1.991260573e+20
2.003028391e+20
2.013546529e+20
2.013598599e+20
2.000216611e+20
1.999227281e+20
1.551112944e+20
1.994436842e+20
1.997873462e+20
1.999279351e+20
2.00672536e+20
2.00870402e+20
2.001414221e+20
1.998914861e+20
2.011932359e+20
2.019534578e+20
2.029375806e+20
2.017451778e+20
2.011255449e+20
2.000737311e+20
2.000476961e+20
2.013338249e+20
2.00844367e+20
1.997300692e+20
2.012609269e+20
2.015993818e+20
1.547728395e+20
1.984803894e+20
2.000268681e+20
2.00917265e+20
1.999071071e+20
2.003549091e+20
2.0073502e+20
2.016410378e+20
2.002455621e+20
2.011151309e+20
2.009745419e+20
2.022086007e+20
2.032135515e+20
2.022346357e+20
2.019065948e+20
2.0047467e+20
2.016202098e+20
2.0057881e+20
2.00688157e+20
2.00755848e+20
1.549498774e+20
1.999591771e+20
2.012036499e+20
2.00672536e+20
2.011307519e+20
2.009693349e+20
2.012557199e+20
2.00636087e+20
2.020680117e+20
2.0078709e+20
2.00870402e+20
1.996415502e+20
1.991625063e+20
1.994332702e+20
1.996884132e+20
2.00859988e+20
2.001934921e+20
2.012661339e+20
2.021825657e+20
2.023596037e+20
1.550331894e+20
1.993864072e+20
1.993187162e+20
1.997769322e+20
1.996832062e+20
1.983762494e+20
1.987303254e+20
1.999227281e+20
1.990479523e+20
2.012036499e+20
2.017399708e+20
2.023856387e+20
2.018128688e+20
2.017399708e+20
2.010630609e+20
1.995165822e+20
1.999383491e+20
1.995686522e+20
1.984022844e+20
1.980846575e+20
1.545176965e+20
1.982669024e+20
1.990948153e+20
1.999435561e+20
1.988240513e+20
2.000372821e+20
1.999435561e+20
2.00724606e+20
1.997144482e+20
1.984179054e+20
1.979909315e+20
1.982356604e+20
1.992770603e+20
1.999800051e+20
2.00641294e+20
2.012713409e+20
2.00448635e+20
1.994228562e+20
1.990323313e+20
1.983241794e+20
1.554445423e+20
1.997352762e+20
1.999695911e+20
1.997821392e+20
1.998966931e+20
1.993083022e+20
2.001101801e+20
1.985376664e+20
1.996675852e+20
2.010890959e+20
2.00719399e+20
2.00656915e+20
2.00568396e+20
2.000841451e+20
1.981419345e+20
1.983658354e+20
1.988709143e+20
2.00610052e+20
2.017816268e+20
2.024168807e+20
1.540855156e+20
1.996936202e+20
2.00495498e+20
2.00584017e+20
1.998914861e+20
1.992041623e+20
1.997196552e+20
1.985689084e+20
1.983345934e+20
1.977097535e+20
1.967985287e+20
1.982616954e+20
1.980325875e+20
1.992145763e+20
2.00745434e+20
1.997404832e+20
2.010734749e+20
1.994228562e+20
1.999123141e+20
1.994228562e+20
1.552831254e+20
1.999904191e+20
2.016045888e+20
2.009953699e+20
2.009589209e+20
2.001414221e+20
1.993499582e+20
1.998966931e+20
2.00584017e+20
2.00433014e+20
2.000893521e+20
2.00714192e+20
2.00667329e+20
2.001622501e+20
1.992093693e+20
2.00448635e+20
1.978503425e+20
1.992301973e+20
1.994332702e+20
1.988605003e+20
1.541584136e+20
1.971265696e+20
1.987563603e+20
1.988552933e+20
1.990896083e+20
1.994280632e+20
1.999643841e+20
2.00641294e+20
2.00396565e+20
2.00557982e+20
1.993187162e+20
1.978815845e+20
1.967412517e+20
1.975066806e+20
1.974858526e+20
1.987719813e+20
1.991312643e+20
1.989542263e+20
1.988240513e+20
1.992093693e+20
1.561526942e+20
2.003184601e+20
2.000060401e+20
1.983502144e+20
1.996884132e+20
1.992093693e+20
1.991885413e+20
1.994697192e+20
1.988136373e+20
1.978034795e+20
1.978295145e+20
1.988969493e+20
2.001882851e+20
1.992197833e+20
1.999071071e+20
1.990791943e+20
1.984595614e+20
1.989229843e+20
1.999435561e+20
2.00568396e+20
1.542052766e+20
1.987876023e+20
2.001153871e+20
2.012244779e+20
2.021044607e+20
2.00490291e+20
1.990583663e+20
1.986261854e+20
1.993187162e+20
2.000789381e+20
2.000008331e+20
1.995165822e+20
1.992822673e+20
1.998550371e+20
2.011880289e+20
2.009380929e+20
2.00833953e+20
1.994020282e+20
1.983189724e+20
1.982825234e+20
1.554237143e+20
2.013546529e+20
2.019222158e+20
2.011307519e+20
1.990896083e+20
2.012348919e+20
2.026199536e+20
2.033020705e+20
2.021773587e+20
2.030625486e+20
2.024064667e+20
2.020107347e+20
2.026980586e+20
2.010995099e+20
2.00557982e+20
1.995894802e+20
1.999435561e+20
1.994645122e+20
2.00792297e+20
2.001986991e+20
1.51862127e+20
1.946636591e+20
1.960799628e+20
1.975951996e+20
1.973296426e+20
1.976004066e+20
1.978086865e+20
1.978503425e+20
1.979076195e+20
1.977618235e+20
1.997404832e+20
1.993395442e+20
1.990739873e+20
1.990375383e+20
1.990375383e+20
1.992249903e+20
1.988136373e+20
1.989333983e+20
1.993707862e+20
1.982200394e+20
2.020651235e+20
2.021358802e+20
2.026762349e+20
2.025877568e+20
2.024427258e+20
2.033590071e+20
1.983795299e+20
1.991753788e+20
2.001517772e+20
1.988478436e+20
2.004695756e+20
2.0185996e+20
2.02861493e+20
2.035206834e+20
2.020944953e+20
2.014827036e+20
2.018805924e+20
2.025374104e+20
2.031821323e+20
2.033343768e+20
2.020973554e+20
2.012594292e+20
2.014829655e+20
2.009688547e+20
2.015030599e+20
2.033256011e+20
1.991738005e+20
1.990385825e+20
1.991028081e+20
1.98106312e+20
1.995509268e+20
1.98743685e+20
1.990800776e+20
2.000523929e+20
2.004417888e+20
2.014827022e+20
2.015513868e+20
2.014903914e+20
2.003213075e+20
2.021393919e+20
2.013667355e+20
2.01210736e+20
2.000826417e+20
1.995310488e+20
1.98673006e+20
1.997288888e+20
1.998426599e+20
1.995910277e+20
1.993412102e+20
1.986878022e+20
1.989975887e+20
1.987599156e+20
2.005185411e+20
2.021871485e+20
2.005689215e+20
2.001297607e+20
2.008877528e+20
2.001960895e+20
2.009570464e+20
2.01328507e+20
2.035263659e+20
2.031367685e+20
2.014611706e+20
2.009633669e+20
2.021884633e+20
2.027409976e+20
2.009818125e+20
2.007958885e+20
2.005650074e+20
2.006776677e+20
1.998249098e+20
2.004316673e+20
2.009598879e+20
2.008975133e+20
1.994800131e+20
1.989327125e+20
2.030824478e+20
2.037001787e+20
2.020695907e+20
2.002135435e+20
1.987665834e+20
1.986030198e+20
1.987150116e+20
1.982304407e+20
1.979268021e+20
1.980975626e+20
1.967126068e+20
1.966078166e+20
1.965651492e+20
1.962871575e+20
1.979070277e+20
1.980728216e+20
1.98524309e+20
1.97088979e+20
1.981479e+20
1.987935208e+20
1.981078057e+20
1.996646886e+20
2.005650088e+20
2.012804956e+20
2.005931379e+20
2.002314913e+20
2.014284768e+20
2.012048289e+20
2.017739034e+20
1.998680804e+20
2.019798762e+20
2.012957211e+20
2.000299272e+20
1.999094622e+20
2.010390304e+20
2.006913568e+20
1.995541167e+20
1.992182468e+20
2.006518332e+20
2.01143076e+20
2.005376467e+20
2.003960211e+20
2.010735971e+20
2.005389625e+20
1.986215336e+20
1.986138402e+20
1.993906536e+20
2.006286109e+20
2.00823184e+20
2.010372903e+20
1.984474609e+20
1.993332207e+20
1.996325918e+20
2.00048166e+20
1.999860762e+20
2.010267906e+20
2.005403374e+20
2.005737343e+20
1.997342757e+20
1.994393687e+20
1.996022886e+20
2.012273216e+20
2.000987976e+20
2.015472322e+20
2.025056451e+20
2.018978314e+20
2.012541176e+20
2.013255605e+20
2.00530228e+20
1.989549846e+20
1.99832209e+20
1.996331202e+20
1.997332505e+20
1.993973239e+20
1.995348088e+20
1.989492725e+20
1.978977042e+20
1.981371495e+20
1.99844826e+20
2.00976046e+20
1.981600617e+20
1.987860356e+20
1.990180429e+20
1.991732653e+20
1.994864603e+20
1.988735298e+20
2.002842445e+20
1.998932452e+20
2.004860098e+20
2.00992749e+20
1.992678588e+20
1.990491053e+20
1.988220234e+20
1.981916681e+20
1.99105033e+20
2.003288749e+20
2.005566836e+20
2.014901961e+20
2.021442423e+20
2.01026155e+20
1.993357899e+20
1.981651896e+20
1.981491998e+20
1.995200247e+20
1.975094851e+20
1.973262126e+20
1.98131998e+20
1.963536119e+20
1.95201771e+20
1.964216951e+20
)
;

boundaryField
{
    flow
    {
        type            calculated;
        value           nonuniform List<scalar> 
48
(
1.545124895e+20
1.551581574e+20
1.545072825e+20
1.550123614e+20
1.553976793e+20
1.551112944e+20
1.547728395e+20
1.549498774e+20
1.550331894e+20
1.545176965e+20
1.554445423e+20
1.540855156e+20
1.552831254e+20
1.541584136e+20
1.561526942e+20
1.542052766e+20
1.554237143e+20
1.51862127e+20
1.51862127e+20
1.946636591e+20
1.960799628e+20
1.975951996e+20
1.973296426e+20
1.976004066e+20
1.978086865e+20
1.978503425e+20
1.979076195e+20
1.977618235e+20
1.997404832e+20
1.993395442e+20
1.990739873e+20
1.990375383e+20
1.990375383e+20
1.992249903e+20
1.988136373e+20
1.989333983e+20
1.993707862e+20
1.982200394e+20
1.993357899e+20
1.981651896e+20
1.981491998e+20
1.995200247e+20
1.975094851e+20
1.973262126e+20
1.98131998e+20
1.963536119e+20
1.95201771e+20
1.964216951e+20
)
;
    }
    obstacle
    {
        type            calculated;
        value           nonuniform List<scalar> 0();
    }
    frontAndBack
    {
        type            empty;
    }
    procBoundary2to0
    {
        type            processor;
        value           nonuniform List<scalar> 
31
(
1.546270435e+20
1.985949434e+20
1.994280632e+20
1.979180335e+20
1.984751824e+20
1.980169665e+20
2.001518361e+20
2.014119299e+20
2.028386476e+20
2.026511956e+20
2.010370259e+20
1.999643841e+20
2.002091131e+20
2.011151309e+20
2.00901644e+20
2.001934921e+20
2.000997661e+20
1.997248622e+20
2.009276789e+20
2.00901644e+20
1.991318941e+20
1.9833792e+20
1.9800123e+20
1.996353198e+20
2.028462294e+20
2.032309508e+20
2.006944106e+20
2.0035393e+20
2.00517327e+20
2.018299758e+20
2.018299758e+20
)
;
    }
    procBoundary2to3
    {
        type            processor;
        value           nonuniform List<scalar> 
19
(
2.04176551e+20
2.022079761e+20
2.03144593e+20
2.021855422e+20
1.99375696e+20
1.993027872e+20
2.04053166e+20
1.988709332e+20
1.984559074e+20
1.979567517e+20
2.005927352e+20
2.006432129e+20
2.014171811e+20
1.995551672e+20
2.001721024e+20
2.001216232e+20
2.022864948e+20
2.012040604e+20
1.949954766e+20
)
;
    }
}


// ************************************************************************* //
