/*--------------------------------*- C++ -*----------------------------------*\
| =========                 |                                                 |
| \\      /  F ield         | OpenFOAM: The Open Source CFD Toolbox           |
|  \\    /   O peration     | Version:  2406                                  |
|   \\  /    A nd           | Website:  www.openfoam.com                      |
|    \\/     M anipulation  |                                                 |
\*---------------------------------------------------------------------------*/
FoamFile
{
    version     2.0;
    format      ascii;
    arch        "LSB;label=32;scalar=64";
    class       volScalarField;
    location    "0.008";
    object      internalT;
}
// * * * * * * * * * * * * * * * * * * * * * * * * * * * * * * * * * * * * * //

dimensions      [1 2 -2 0 0 0 0];

internalField   nonuniform List<scalar> 
546
(
301.494529
304.5506287
303.791724
302.088901
301.1762928
299.6040954
298.8035703
298.4888904
297.7558009
297.3565334
297.7752161
299.6951222
299.9141849
298.2773624
298.6806298
297.5041096
295.3759785
295.609371
295.9262605
297.5620457
303.1211042
301.9962615
302.2271783
301.4361037
300.2655338
299.4876562
299.0377861
299.9212524
300.4329061
300.2949747
299.4991528
296.795185
299.0839379
299.1533986
300.1756643
300.9473914
302.9193159
303.6041757
302.0145514
302.5679837
296.4312266
297.6542543
297.8845824
297.4929992
301.8561356
303.4976238
304.6914237
303.2728708
302.2136171
300.9775692
299.8087513
300.1229359
299.159072
299.7582911
299.0781799
301.0281218
300.2222235
301.437718
304.1090508
303.3258707
300.4916303
300.1323219
300.7651294
300.4707952
299.1978011
298.3024906
300.1421894
300.4024667
300.6334363
300.3244785
301.7498144
302.6324867
303.9509131
304.6237742
302.2078831
300.619427
299.9487183
299.1809766
299.3427331
298.3477973
301.9672653
302.2005343
303.5951179
303.6712848
302.1828183
302.6702164
300.6586177
298.8174941
300.9885218
301.790778
301.3169326
300.5459042
298.41875
299.2549699
298.8065404
300.2594857
299.7159451
300.0094823
297.5200348
298.574073
301.1144363
301.0594636
299.6150641
301.2382199
300.9844239
301.3501769
302.8978326
303.1964385
303.5579267
303.6640611
301.5269407
301.6909206
300.8631909
301.1373467
298.4429587
297.4329958
298.3150187
299.9524354
300.0479486
301.0123783
297.0337877
298.12043
297.5648111
299.4920318
301.1734715
299.9267542
301.7996647
301.5516382
299.9700828
298.3706982
301.7088741
301.2384301
301.1816892
301.6230626
301.3144163
300.3708324
298.5886573
298.2550785
299.5425413
300.3511875
300.4234037
301.6244266
300.580484
300.4428644
301.5130278
301.7341605
300.214264
298.7401336
298.8738173
298.2203857
297.7667454
297.695529
299.7479521
299.1854331
299.4929133
299.8215515
299.9140629
300.2707378
299.1983238
299.5640981
303.038518
304.6866329
305.0611573
303.8034986
303.3402374
301.6037484
301.248177
302.4324597
300.9499673
302.9997334
301.309526
302.6579721
301.7088141
301.2859159
300.1942064
299.5990884
300.1715224
298.7734501
300.6724576
300.0627078
300.6932021
300.0987038
298.2531741
297.8402318
296.3328599
295.5711043
296.4724821
298.0192365
299.8233335
300.4067996
301.3679068
299.8016525
300.8359441
299.4372058
299.465762
298.6710701
298.3969186
300.3031352
297.7881777
297.3462375
296.3493772
297.747142
298.725423
300.3212811
299.5818658
300.5969739
299.9595383
298.2083334
298.5442795
297.4710202
297.1141656
297.3166205
295.6967075
297.991024
296.8038036
297.1965776
299.0259108
298.6181653
300.8693851
301.4843215
302.1157509
301.7467939
300.2232709
299.5998239
299.063309
299.5710317
297.1513261
298.3606039
296.8397029
296.8783302
296.1381053
297.938568
298.1775815
298.1725025
298.2018114
298.8093566
298.7230879
299.2626382
298.9974269
298.8724298
299.0028035
300.3552895
300.7594608
303.0043141
303.6526798
304.1855389
302.4237562
300.4588621
300.448507
299.7088771
301.7621035
300.9438211
301.2605621
303.1958509
302.6570945
303.5715045
304.4977097
303.6853184
304.1302365
301.8274651
302.4924768
301.9641845
302.9449356
300.3443661
301.4552678
301.4154071
302.5379976
304.888346
304.4699799
303.6472062
300.6084326
301.0497357
299.2827836
298.2396993
298.9954564
298.815541
296.6232842
299.5040523
299.3738388
301.0349735
303.9100037
304.9583083
304.7292776
306.2656444
304.9987215
305.822904
306.4501684
303.7615078
302.1260374
303.3616928
305.9815745
304.0785719
305.108539
305.7726437
304.0153432
301.6639535
304.2267553
304.4747307
303.0837825
301.8713519
298.3748219
299.2496164
298.941981
299.2875263
300.0077306
300.0457327
301.0973256
301.312432
301.5003504
301.6253376
302.6701989
301.7667481
302.3858206
302.0577115
300.7117176
302.4658285
301.8701972
301.1624421
298.1870577
300.1490916
298.3051595
299.8363916
301.6523723
300.2184051
300.6205496
301.4194597
299.6327221
300.2194027
300.3870675
299.3965053
299.4868439
298.4952691
299.3692823
300.3013879
300.6536669
300.336147
299.790076
299.2009994
298.8274006
298.0310781
300.490557
299.0253655
300.2410717
301.7658551
301.7322666
299.8426261
299.907434
300.0048664
298.8873136
297.162316
296.7827097
297.3719948
297.8310943
295.6404885
295.1321526
293.1348681
295.8193193
295.883482
295.1615324
298.1865715
305.1557743
305.4246325
305.9925813
304.1573005
304.4728871
302.5701275
297.2533241
299.5777129
300.5434573
301.141771
299.7762175
300.5442999
299.859544
300.4011935
300.2390691
302.2422049
300.1867948
302.2570205
301.8214732
300.5279582
302.0216998
302.6534602
302.5484367
303.2093264
303.9884579
305.8145819
306.7049147
304.2468987
300.5282304
301.4306103
299.6723456
299.2296214
299.1722572
301.3946397
298.8613798
298.8586228
295.696609
296.6479949
298.5000435
298.741583
297.8185637
299.104283
299.4156945
297.7104564
296.7792476
297.1704708
298.8411082
298.9289433
299.8900942
298.6701029
298.8813441
299.3815451
299.6775024
301.9052615
301.0158527
301.393663
299.3596389
300.0521255
299.7813322
300.2288267
298.7853194
298.4017916
299.7787961
297.5467027
298.5866812
299.6201729
302.2458093
301.8438734
300.666565
299.2879857
300.4652321
301.8468138
298.9761212
299.779388
300.3615341
299.3688113
298.5499891
299.649917
301.6258833
301.1602711
302.9888214
300.4949486
303.857615
302.7593112
300.9605802
301.0900978
300.5162697
299.7263638
299.8321153
299.5937725
298.1621478
299.2593023
299.5063784
299.3948679
299.5650122
301.3121134
297.5501748
298.5062333
298.9322244
300.5889068
299.4190783
299.9692875
299.8239756
300.6743053
300.2018735
299.0844869
302.7902572
301.1103955
300.277057
300.5388248
300.5326767
299.3083875
299.8637615
297.9016404
298.4469257
299.3748721
299.3493028
300.4985752
299.3920662
300.2559523
300.0719462
301.6755369
302.6999297
302.6842876
303.1026432
304.5500686
300.9998696
300.7934077
299.4038055
298.3196035
301.9043305
300.721427
302.1144418
304.2359977
304.4304194
302.6732747
300.3788265
301.7681674
302.3402833
301.9885913
301.8606273
301.9965061
302.1346848
300.5201338
302.4341255
303.8767229
299.8993837
300.8804313
300.4218751
300.3946471
298.7938383
297.1895749
296.8838245
298.8742527
297.7170157
298.3236658
300.167059
300.516731
299.4333644
300.5910143
300.3725957
300.3354276
301.419914
301.0745428
300.4026343
299.8815509
300.428765
300.092124
298.0075114
298.1412363
298.6699394
298.7667642
299.4997495
302.2709565
301.3309076
300.4993082
298.1838564
298.863819
299.9197651
299.5517023
299.4057022
298.5658925
298.6638067
296.5521065
299.1269982
298.9743104
)
;

boundaryField
{
    flow
    {
        type            calculated;
        value           nonuniform List<scalar> 
48
(
301.494529
303.1211042
296.4312266
300.4916303
301.9672653
301.1144363
297.0337877
300.4234037
303.038518
300.6932021
296.3493772
302.1157509
299.0028035
302.4924768
303.9100037
298.3748219
298.3051595
300.490557
300.490557
299.0253655
300.2410717
301.7658551
301.7322666
299.8426261
299.907434
300.0048664
298.8873136
297.162316
296.7827097
297.3719948
297.8310943
295.6404885
295.1321526
293.1348681
295.8193193
295.883482
295.1615324
298.1865715
298.1838564
298.863819
299.9197651
299.5517023
299.4057022
298.5658925
298.6638067
296.5521065
299.1269982
298.9743104
)
;
    }
    obstacle
    {
        type            calculated;
        value           nonuniform List<scalar> 0();
    }
    frontAndBack
    {
        type            empty;
    }
    procBoundary2to0
    {
        type            processor;
        value           nonuniform List<scalar> 
31
(
299.6645865
298.993703
299.4247316
300.9138697
300.7515362
301.4391972
302.23531
302.0827808
301.334722
300.6243755
302.0769708
300.9711176
299.4553279
301.7764823
301.8776132
301.1988605
300.6812476
300.097402
300.1352733
299.1499459
301.8815529
301.9463403
305.4957893
305.7214858
306.6289699
308.189021
300.0258109
298.3732451
299.7874711
302.0676833
302.0676833
)
;
    }
    procBoundary2to3
    {
        type            processor;
        value           nonuniform List<scalar> 
19
(
304.3509899
302.6787051
305.015559
300.5724801
298.7193907
299.5593252
298.8813015
302.0646507
300.9748856
301.2538689
299.0071413
300.8948025
302.8366071
302.8620426
302.9166643
297.4055066
299.1260791
302.203779
300.3900475
)
;
    }
}


// ************************************************************************* //
