/*--------------------------------*- C++ -*----------------------------------*\
| =========                 |                                                 |
| \\      /  F ield         | OpenFOAM: The Open Source CFD Toolbox           |
|  \\    /   O peration     | Version:  2406                                  |
|   \\  /    A nd           | Website:  www.openfoam.com                      |
|    \\/     M anipulation  |                                                 |
\*---------------------------------------------------------------------------*/
FoamFile
{
    version     2.0;
    format      ascii;
    arch        "LSB;label=32;scalar=64";
    class       volScalarField;
    location    "0.008";
    object      internalE;
}
// * * * * * * * * * * * * * * * * * * * * * * * * * * * * * * * * * * * * * //

dimensions      [1 -1 -2 0 0 0 0];

internalField   nonuniform List<scalar> 
546
(
0.2021370247
0.4419305314
0.3341835241
0.5869613225
0.4650467986
0.4231109055
0.07856657438
0.3174776636
0.3454228459
0.2701587293
0.2866931301
0.2273958775
0.5720125992
0.3725381409
0.1610399913
0.3206811887
0.2464464862
0.3580548277
0.4330711687
0.5927548607
0.5826882854
0.5233983033
0.6030831576
0.2964735804
0.8905485337
0.2561632237
0.09764417013
0.4007281249
0.5967440229
0.3749404879
0.4339202965
0.2784441293
0.300100194
0.2931410446
0.3802535704
0.2073598216
0.7002785196
0.4202626452
0.2424102694
0.4100284368
0.4018715051
0.2724616961
0.4097263115
0.3308923936
0.256724919
0.5896675126
0.4251593072
0.4791517129
0.4477192646
0.661929468
0.5845724162
0.3514574261
0.375003512
0.3676995781
0.3434862272
0.5260579268
0.6091524864
0.3995274846
0.3604044554
0.4619847922
0.3146331497
0.2557763289
0.5750088008
0.2680510525
0.3229089438
0.6405830038
0.3888479133
0.3634621409
0.552968975
0.6067096809
0.4550806026
0.3651707538
0.2622551186
0.5870599328
0.6371868029
0.494629325
0.4300182682
0.7378720919
0.2850923461
0.1451880508
0.1833340092
0.2865494897
0.64616383
0.4185499854
0.4000974373
0.3556965915
0.5851762977
0.1228449371
0.3746338838
0.3963053578
0.3325798471
0.2971987899
0.1713242563
0.2978987556
0.7601363243
0.4479388174
0.2318737754
0.5835407091
0.249784904
0.1234073783
0.2846685265
0.5169444793
0.5774544175
0.3113425884
0.568897233
0.1340112306
0.2002607247
0.573180296
0.4571129681
0.2630885853
0.4832436523
0.09056342206
0.6886881163
0.6735128647
0.3138270068
0.5052918688
0.3994890211
0.3198087381
0.4917903447
0.6659987894
0.2524770859
0.6262391521
0.2811326424
0.2537274229
0.6641309392
0.3699705843
0.2869306109
0.4398649118
0.3688772639
0.4309135704
0.1260505322
0.2286264564
0.5413008895
0.2488525971
0.1591063789
0.4694759193
0.2861937079
0.1081903064
0.2698979528
0.2122347038
0.1921629525
0.590186087
0.390916154
0.4087066917
0.1394390986
0.5836965134
0.263321702
0.2959741801
0.6622522418
0.5606347941
0.2684720204
0.3894967858
0.3038078733
0.5117244549
0.396444528
0.3734724599
0.4242382563
0.5189334557
0.1628839441
0.4826900879
0.2609238586
1.184101359
0.3897074552
0.3694411132
0.1079519453
0.9107825101
0.1077171089
0.7025935621
0.2914962572
0.1127114139
0.436931261
0.5210243959
0.4984538328
0.3812561762
0.2146249398
0.2026802882
0.3830707629
0.4150162224
0.3684643154
0.4612092123
0.3511714834
0.4251620753
0.4068484138
0.5053408203
0.3249334539
0.3693913838
0.2650944909
0.2380316394
0.4369018464
0.1462436147
0.633553874
0.1281308454
0.3837695661
0.2763066272
0.6313627818
0.22577914
0.1673217799
0.17188181
0.2272930748
0.5773826973
0.4720228886
0.6734915967
0.5121588905
0.4046928786
0.2384715032
0.2931027004
0.3425407765
0.3712312185
0.4843987857
0.3236819614
0.4243427484
0.6051656909
0.3468183058
0.7042293988
0.5345319085
0.6132179268
0.4833979413
0.5049461595
0.4732509435
0.1952341599
0.1395253776
0.415457115
0.4852797609
0.4210286454
0.554137621
0.5652462136
0.3490710769
0.5001159446
0.1382046473
0.3135298941
0.3375907134
0.3595051271
0.2363910948
0.4944257657
0.2505974246
0.5446117369
0.6143243807
0.2714752742
0.4332161191
0.3577361049
0.1776841043
0.2901381076
0.385241857
0.3987996079
0.7887566441
0.7598931192
0.6394477217
0.6356795526
0.6762182585
0.3062914583
0.7228432316
0.2910120406
0.5174689765
0.2890650314
0.4944017007
0.3436215302
0.2220488346
0.5204703341
0.3265753588
0.07327568998
0.3307395787
0.2007177152
0.1845731436
0.2404992625
0.3517016787
0.7889779338
0.5575280393
0.5446222203
0.6264567666
0.1608744278
0.06177327152
0.4528722902
0.401875977
0.1554147872
0.3989976762
0.1822265499
0.207822795
0.2946436458
0.2027821673
1.141559409
0.1110213828
0.5784215252
0.2776417904
0.943701401
0.5716455495
0.1389598213
0.2483224387
0.5334763017
0.2415300361
0.3618483159
0.5198202017
0.5045352019
0.4899768449
0.6398750396
0.4351353797
0.4145888176
0.496178425
0.6776593339
0.5537664779
0.2871141565
0.5959859502
0.5287135749
0.6459016793
0.3946852203
0.1408905086
0.5802940631
0.3009266097
0.7906505871
0.1415677053
0.2456809743
0.8218543514
0.2487450145
0.4825846569
0.1656179141
0.4848650015
0.3936206808
0.2770420343
0.3358865987
0.5099095887
0.4023524003
0.379946102
0.1675605659
0.5765357463
0.5030302139
0.6075858003
0.4152432409
0.1435168936
0.5984872882
0.007947716804
0.9280858102
0.3000931989
0.335484981
0.9343465285
0.2925149758
0.4174302696
0.7928275139
0.208443674
0.4308843599
0.5447389148
0.6506305088
0.2562479313
0.290041101
0.5783258054
0.4183541322
0.8158961556
0.6996702076
0.1559970716
0.4815073939
0.5679954307
0.2214380048
0.5083519746
0.2849121105
0.3624962315
0.2365075057
0.4266327053
0.4953644369
0.3978082712
0.1965583303
0.1206010157
0.5052020517
0.2910586914
0.3151925248
0.5375828187
0.5606484784
0.3380932853
0.4583266786
0.2563910853
0.4838738119
0.4996258262
0.7109288394
0.690379415
0.5554142467
0.9270308737
0.2733270332
0.5577067926
0.2588182832
0.2526875556
0.6353506788
0.6794458096
0.09994580208
0.2944657957
0.4701822075
0.3800767735
0.5631378043
0.3559990841
0.5680071938
0.5140629714
0.598366413
0.3526054607
0.4377832982
0.3590335669
0.3818436866
0.3453936398
0.6575597225
0.4206673933
0.3277091707
0.4617883006
0.3530010659
0.5565127246
0.8448993732
0.4769849892
0.2774269416
0.5995955963
0.3782638735
0.4694956744
0.3984132334
0.3696770954
0.6565170628
0.5032734387
0.2735293427
0.2686750768
0.3930107222
0.5282338976
0.2973376111
0.3154293186
0.2703803315
0.1191644695
0.6459511708
0.4149217779
0.7585739012
0.5848154545
0.3403619086
0.4198628831
0.3155449891
0.6829273661
0.2596086003
0.2913024848
0.3016514687
0.2949188751
0.6611782156
0.5990826484
0.5986591578
0.591009891
0.3923561611
0.3853543383
0.000899012843
0.3969701736
0.4965540597
0.3769665803
0.5984858141
0.4423181134
0.3188820947
0.2594073367
0.5795116399
0.2812855886
0.160540841
0.4544158661
0.4829982969
0.3852914565
0.1444755466
0.5820654491
0.297172129
0.4445150526
0.4912788501
0.2767217894
0.4672742962
0.3256162819
0.9067675515
0.1731902715
0.497116806
0.6956173773
0.5079281968
0.1384635188
0.5642766381
0.2533000116
0.3787043495
0.5042581045
0.3808787807
0.4698425699
0.358364827
0.273517399
0.9949190103
0.392732554
0.5672801667
0.5841066152
0.6461623957
0.07571661401
0.3114400835
0.1861410889
0.5530806553
0.4437127222
0.5423888044
0.4713603986
0.4514492571
0.3157608143
0.1098724298
0.4941718744
0.5264648507
0.7740846793
0.222911486
0.3258020286
0.6351338573
0.5869180107
0.1955284225
0.3935169496
0.5269100022
0.2633151938
0.2447759263
0.1775908634
0.2404634837
0.1644803697
0.336623665
0.3925747859
0.4969562345
0.2270233523
0.367876688
0.1898616894
0.2325781061
0.3073951192
0.3318535275
0.4106640521
0.4838384391
1.038906026
0.5809486357
0.3439513471
0.7438510156
0.134030272
0.4100152556
0.4768432588
0.2814546875
0.2916235055
0.1591741957
0.6862478844
0.6000610884
0.3320515123
0.4164561002
0.5050387095
0.3317784934
0.5221905882
0.4971533051
0.3772530504
0.4575241654
0.3559550686
0.2781262742
0.5176403943
0.2523894332
0.2097808561
0.8085416779
0.4398688905
0.3717384922
0.7691995574
0.2602033239
0.3152090148
0.1741457347
0.4028716329
0.6410380264
)
;

boundaryField
{
    flow
    {
        type            zeroGradient;
    }
    obstacle
    {
        type            calculated;
        value           nonuniform List<scalar> 0();
    }
    frontAndBack
    {
        type            empty;
    }
    procBoundary2to0
    {
        type            processor;
        value           nonuniform List<scalar> 
31
(
0.2203897583
0.2047390128
0.4664092861
0.5388854033
0.2371656193
0.6961361604
0.4689220087
0.2811853221
0.8094014225
0.44163974
0.4013099653
0.2050201447
0.4649081886
0.1605597192
0.3177506641
0.3538103975
0.1346987437
0.3849327703
0.6275887557
0.5079828622
0.2446568277
0.08681582479
0.2247809463
0.4614310483
0.5819260567
0.399396565
0.5721185839
0.1240589059
0.5911757904
0.3775361534
0.3775361534
)
;
    }
    procBoundary2to3
    {
        type            processor;
        value           nonuniform List<scalar> 
19
(
0.5896169941
0.1858780527
0.300253837
0.3534208526
0.2378316396
0.4143671391
0.5459687161
0.6262484156
0.3537790924
0.757469122
0.331940972
0.6525610774
0.5231762131
0.382677681
0.1282161049
0.3972242252
0.1673707743
0.3203312165
0.1883894366
)
;
    }
}


// ************************************************************************* //
