/*--------------------------------*- C++ -*----------------------------------*\
| =========                 |                                                 |
| \\      /  F ield         | OpenFOAM: The Open Source CFD Toolbox           |
|  \\    /   O peration     | Version:  2406                                  |
|   \\  /    A nd           | Website:  www.openfoam.com                      |
|    \\/     M anipulation  |                                                 |
\*---------------------------------------------------------------------------*/
FoamFile
{
    version     2.0;
    format      ascii;
    arch        "LSB;label=32;scalar=64";
    class       volScalarField;
    location    "0.008";
    object      internalEMean;
}
// * * * * * * * * * * * * * * * * * * * * * * * * * * * * * * * * * * * * * //

dimensions      [1 -1 -2 0 0 0 0];

internalField   nonuniform List<scalar> 
546
(
0.3215856249
0.4192425504
0.422838787
0.4179929052
0.4167734554
0.4140916601
0.4129744902
0.4104688283
0.4078980928
0.4094995307
0.4115103941
0.4165982168
0.4154258043
0.4103602122
0.4107647083
0.4090290501
0.4070693287
0.406200893
0.4039664148
0.4061994112
0.3246716658
0.4155308282
0.4183471904
0.4193000237
0.4188697869
0.4164928314
0.4149750388
0.4165567902
0.4149564066
0.4138591863
0.4129561842
0.408054372
0.4128782057
0.4111890745
0.4138566038
0.4138712863
0.4165831321
0.4211262993
0.4202132089
0.4216140372
0.3161742571
0.4081976525
0.4097877158
0.4078481888
0.4138081324
0.4177602624
0.4216049034
0.4186064212
0.4174267787
0.4178183397
0.4142452007
0.4149274326
0.4118098128
0.4120097298
0.4121499783
0.4148154891
0.4116006119
0.4140146702
0.4160986233
0.4152123866
0.3215528134
0.4144225696
0.4166153003
0.4137018798
0.4120459561
0.4089043488
0.4117066597
0.412592787
0.4148983815
0.4114493309
0.4167210813
0.4193433518
0.4244697576
0.4227048207
0.4200585502
0.4164458929
0.4142768671
0.4130229195
0.4167001669
0.4143607143
0.3239350909
0.4168764378
0.4200770201
0.4203570589
0.4176557891
0.4187211001
0.4134849638
0.4119518515
0.4131921514
0.4103882191
0.4096355545
0.4074422158
0.4047301162
0.4081984608
0.4107445367
0.4151809735
0.4166056155
0.4170244166
0.4108155248
0.4120670264
0.3224249202
0.4145015636
0.4132237025
0.4157546878
0.4169515204
0.4178698151
0.4184916032
0.4183810388
0.4216077206
0.4233487588
0.4224177913
0.4201641604
0.4177244468
0.4159185519
0.4121435357
0.4133895474
0.4136074718
0.4135703986
0.4168729657
0.4189161975
0.3173614744
0.4084726133
0.4108880479
0.41539009
0.4156220222
0.4148287015
0.4182110466
0.4197533952
0.414662197
0.4142423704
0.4185841055
0.4204976772
0.4225078985
0.4210887938
0.4199755589
0.4156912347
0.4155860582
0.4129776031
0.4149863924
0.4162470418
0.3213502194
0.4163527637
0.4174939974
0.416201302
0.4186375313
0.4186083413
0.4170932455
0.4137673536
0.4169068591
0.4133583497
0.4129008191
0.4102766939
0.4121140387
0.4118998718
0.412850693
0.4157285793
0.4144769535
0.4171932922
0.4175961261
0.4184727519
0.3243217813
0.4193750129
0.4197479623
0.4189784754
0.4181433218
0.4130284917
0.4132778909
0.4173920498
0.4135286619
0.4208542358
0.4196221624
0.4228491005
0.4203300655
0.4195892816
0.4166661289
0.4126416731
0.414304062
0.4116119056
0.4118071827
0.4103141218
0.3207417073
0.4107408928
0.4099195454
0.4110970637
0.4067263721
0.4081563156
0.409209213
0.4129509917
0.4133600629
0.4114757266
0.4119038982
0.4102696642
0.4138477843
0.413376647
0.4147831431
0.4149814649
0.4129058528
0.4134170655
0.409152005
0.4070912007
0.318004378
0.4105404721
0.4123725468
0.4141869092
0.4134040553
0.4135838728
0.414367286
0.4087109658
0.4115000773
0.4129398408
0.4116861984
0.4118384779
0.4094139079
0.4115944027
0.4059751608
0.4069717664
0.410519408
0.413544753
0.4190957136
0.4212743928
0.3213577554
0.4159685116
0.4155301866
0.4148503681
0.4126777297
0.4119569416
0.4096869043
0.4089840088
0.4064190535
0.4051913775
0.4023182581
0.4077736357
0.4076291671
0.4100551813
0.4132468528
0.4120158183
0.4146457085
0.4119846489
0.412629809
0.4114474623
0.3205185176
0.4146656652
0.4185750253
0.420424936
0.4212481533
0.4202707322
0.4161842624
0.4146142548
0.416025524
0.4146889522
0.4168139811
0.4169818137
0.4173232238
0.4189469469
0.4162116389
0.4200661707
0.4158861317
0.4176693083
0.4187075691
0.4143438391
0.3219106995
0.4109170874
0.415660096
0.4122970689
0.4143096711
0.4149591267
0.4176247028
0.4222938396
0.4211999911
0.4204001306
0.4136212493
0.4112417808
0.4064721234
0.4066313369
0.4076187751
0.4100265218
0.4077540579
0.4113480791
0.4109002134
0.4139809109
0.3276031577
0.4217111116
0.4207371833
0.4193576386
0.4204404443
0.420565235
0.4213837823
0.4182763579
0.4146559744
0.4142364084
0.4178688153
0.4175106331
0.4216446781
0.4205180996
0.4195438299
0.4145747948
0.4167955124
0.4181092951
0.4183345289
0.4179631587
0.3176252419
0.4106544179
0.4129723671
0.4157411639
0.4185640712
0.4152736761
0.4137527898
0.4131494266
0.4148484809
0.4166033869
0.4178833508
0.4156272187
0.4159907556
0.4167337057
0.4176438481
0.4195581815
0.4185149502
0.4145567426
0.4082316336
0.4108422247
0.3200601837
0.4167730363
0.4204791348
0.4168400047
0.4131624634
0.4187243079
0.4191071336
0.4213414251
0.4192444782
0.4196914877
0.4184617186
0.4162607881
0.4189000642
0.4168904563
0.4162555698
0.4138079725
0.4137883564
0.4119858316
0.4142104644
0.4118854081
0.3150169401
0.401833846
0.406403013
0.4116234314
0.4110244776
0.4090108306
0.4095304436
0.4097497596
0.4083415737
0.4056857882
0.409221359
0.4092108391
0.4092966159
0.4062117714
0.405513315
0.4031483589
0.4060002545
0.4063329339
0.4062327002
0.4080273187
0.42566364
0.4261878568
0.4281217842
0.4253682222
0.4255047409
0.4247594626
0.4070775746
0.4119066033
0.4152602205
0.4133762179
0.4148577886
0.4188054069
0.4199243854
0.4220499057
0.4188661748
0.4203842924
0.418349983
0.4226056035
0.4233399458
0.421841489
0.4213591017
0.4204898158
0.4208107727
0.4206538951
0.4228558482
0.4292436273
0.4217028607
0.4180392228
0.4130629677
0.4122296898
0.4128136205
0.410536261
0.4111522972
0.4162295181
0.4135344251
0.4156781141
0.4114203187
0.4126191301
0.4127861779
0.4168696085
0.4139930934
0.4154582459
0.4135590941
0.4100701673
0.4070296007
0.4097322415
0.4122703874
0.4118722979
0.4126794212
0.4096533955
0.4105822999
0.4107782408
0.4148224749
0.4213837956
0.4167797489
0.4163891405
0.415145475
0.4146731341
0.4158736707
0.417264333
0.4197913974
0.4184499952
0.4169134114
0.4127866485
0.4167546025
0.4193399423
0.4193442071
0.4183991397
0.4162880091
0.4146120594
0.414474153
0.4176442789
0.414762501
0.4157477727
0.4136159745
0.411117874
0.4185458602
0.4213656933
0.4207490752
0.416240882
0.4157416928
0.4119804666
0.4168256181
0.414306223
0.4112139363
0.4117458269
0.4080879624
0.4067984848
0.4068537008
0.4059553499
0.4073496299
0.4091910715
0.4104623908
0.407343033
0.4097643428
0.413497053
0.4069259622
0.4114416671
0.41388673
0.4176651542
0.4146189457
0.4146319603
0.4169085759
0.4176267584
0.4181498983
0.4126586285
0.4221857788
0.4184214057
0.4146395546
0.4147510903
0.4170860667
0.4146686072
0.4130839085
0.4096902325
0.4133936898
0.4156942661
0.4144076527
0.4157048708
0.4155745434
0.4156655107
0.4114388785
0.4136215944
0.4166493595
0.4192145475
0.4202010891
0.4226578361
0.4123494843
0.4139058829
0.412612483
0.4119741524
0.4167951951
0.4173226095
0.4182412165
0.4212483967
0.4197534231
0.4167144573
0.4138933363
0.4191929535
0.4176323156
0.4201660678
0.4219851868
0.4209079941
0.4197579798
0.4176630851
0.4186626738
0.41735523
0.4137087097
0.4146485387
0.4142242534
0.4134901005
0.4115701869
0.4081591416
0.4055840744
0.408797297
0.4107240818
0.4138906411
0.4106130619
0.4123900042
0.4113829071
0.413295464
0.4136445754
0.4123226079
0.4167468538
0.4154566891
0.415758762
0.4160866098
0.4132685613
0.4123523072
0.4090207133
0.4079068915
0.4105134149
0.4131706247
0.4146552845
0.4204399167
0.4204928901
0.4170130482
0.4103203062
0.4088408763
0.4102522879
0.4125835264
0.4082269063
0.4067041232
0.4084988299
0.4019698774
0.4030815945
0.405393638
)
;

boundaryField
{
    flow
    {
        type            calculated;
        value           nonuniform List<scalar> 
48
(
0.3215856249
0.3246716658
0.3161742571
0.3215528134
0.3239350909
0.3224249202
0.3173614744
0.3213502194
0.3243217813
0.3207417073
0.318004378
0.3213577554
0.3205185176
0.3219106995
0.3276031577
0.3176252419
0.3200601837
0.3150169401
0.3150169401
0.401833846
0.406403013
0.4116234314
0.4110244776
0.4090108306
0.4095304436
0.4097497596
0.4083415737
0.4056857882
0.409221359
0.4092108391
0.4092966159
0.4062117714
0.405513315
0.4031483589
0.4060002545
0.4063329339
0.4062327002
0.4080273187
0.4103203062
0.4088408763
0.4102522879
0.4125835264
0.4082269063
0.4067041232
0.4084988299
0.4019698774
0.4030815945
0.405393638
)
;
    }
    obstacle
    {
        type            calculated;
        value           nonuniform List<scalar> 0();
    }
    frontAndBack
    {
        type            empty;
    }
    procBoundary2to0
    {
        type            processor;
        value           nonuniform List<scalar> 
31
(
0.3198707112
0.4099055794
0.4122185602
0.4111318991
0.4120668385
0.4120555131
0.4175979724
0.4200149634
0.4219427072
0.4205590312
0.4192250933
0.4154617752
0.4138752801
0.4189707839
0.4186662955
0.4162525253
0.4153426467
0.4137594895
0.4163038313
0.414883364
0.4149836646
0.4134177568
0.4175675279
0.4213247222
0.4293720048
0.4323750385
0.4156688666
0.4126780264
0.4149721843
0.4208657017
0.4208657017
)
;
    }
    procBoundary2to3
    {
        type            processor;
        value           nonuniform List<scalar> 
19
(
0.4289771737
0.4225068469
0.4277409823
0.4195202352
0.4111395279
0.412144793
0.4210131732
0.4146911985
0.4123328071
0.4116769519
0.4140476867
0.4167664601
0.4210740591
0.4172164527
0.4185817774
0.410862613
0.4177099004
0.4197495442
0.404355801
)
;
    }
}


// ************************************************************************* //
