/*--------------------------------*- C++ -*----------------------------------*\
| =========                 |                                                 |
| \\      /  F ield         | OpenFOAM: The Open Source CFD Toolbox           |
|  \\    /   O peration     | Version:  2406                                  |
|   \\  /    A nd           | Website:  www.openfoam.com                      |
|    \\/     M anipulation  |                                                 |
\*---------------------------------------------------------------------------*/
FoamFile
{
    version     2.0;
    format      ascii;
    arch        "LSB;label=32;scalar=64";
    class       volScalarField;
    location    "0.008";
    object      linearKEMean;
}
// * * * * * * * * * * * * * * * * * * * * * * * * * * * * * * * * * * * * * //

dimensions      [1 -1 -2 0 0 0 0];

internalField   nonuniform List<scalar> 
546
(
5.873730185
7.88869315
7.892592486
7.828662353
7.840784719
7.844044748
7.855246821
7.816306311
7.805236062
7.856053668
7.886039924
7.948756253
7.921703041
7.856732334
7.844114401
7.843282404
7.854998934
7.842305277
7.789739963
7.783250623
5.919981286
7.944796502
7.912268774
7.941615194
7.942061023
7.904038858
7.896128852
7.894207956
7.848898976
7.824262123
7.844352595
7.82257731
7.850393059
7.838479519
7.863582315
7.839708741
7.836734661
7.897658098
7.915083165
7.93447401
5.873052998
7.889004195
7.842968743
7.810301889
7.828705939
7.871549364
7.89633239
7.890505097
7.890512236
7.904838399
7.866082897
7.867112086
7.811454922
7.80836522
7.833303514
7.831917302
7.798224933
7.808676502
7.795822635
7.795271734
5.902630052
7.95937508
7.907191771
7.850403181
7.86581582
7.826788696
7.832753313
7.837658636
7.874909187
7.810336261
7.874081405
7.910585672
7.981592589
7.91855089
7.936204555
7.906922548
7.885773459
7.876444389
7.929657941
7.917526351
5.923389335
7.934562495
7.872000071
7.856977302
7.852897552
7.845205071
7.802858851
7.831767595
7.80454857
7.739962817
7.762962645
7.735266953
7.742749185
7.780300602
7.828754723
7.871190648
7.908116888
7.904805098
7.842490565
7.838829725
5.894094897
7.908976533
7.834803714
7.839211575
7.862431218
7.877069767
7.845601825
7.836315407
7.886225787
7.917546416
7.937593161
7.894322948
7.86607187
7.843641141
7.844667642
7.891077336
7.864520597
7.820695501
7.872125225
7.910261024
5.877477084
7.876106952
7.850569608
7.891977711
7.852734288
7.861993118
7.880522912
7.92865612
7.870020075
7.88259573
7.899203995
7.927483295
7.963863949
7.926983889
7.895526868
7.845646599
7.878518789
7.848970577
7.849093418
7.856037591
5.898157379
7.944380172
7.909302233
7.885960536
7.905056859
7.9088995
7.908541423
7.870538869
7.931070313
7.890147497
7.889020435
7.833660912
7.810612941
7.828610927
7.839038916
7.872425469
7.870389987
7.900545789
7.919102259
7.924934292
5.889828223
7.905229831
7.809919632
7.819170177
7.808932302
7.75744265
7.778841573
7.835465678
7.808431857
7.89212822
7.903613039
7.932745166
7.913083015
7.913785225
7.89288057
7.821867027
7.826069857
7.810006671
7.787085645
7.789434542
5.878469139
7.880346228
7.831427242
7.876200499
7.841118683
7.864448376
7.860176849
7.886089309
7.850724886
7.801207431
7.764331755
7.782363541
7.818053173
7.849690036
7.87427841
7.901121241
7.861914625
7.81704941
7.804991657
7.789852661
5.918385999
7.953019135
7.893152758
7.868934061
7.877204684
7.831761578
7.855897823
7.803523476
7.836633837
7.869685537
7.862294703
7.853474963
7.837480651
7.828843997
7.766933184
7.783012679
7.813203811
7.883767961
7.938282097
7.963674058
5.862101293
7.92009422
7.865941901
7.866067748
7.844808589
7.823485987
7.833044495
7.797301717
7.802221995
7.778098995
7.753644404
7.80994054
7.814127372
7.856490531
7.897823551
7.851166923
7.885338158
7.819512683
7.837598616
7.802434252
5.919105922
7.948427411
7.905864559
7.884763142
7.883569537
7.866264088
7.846573539
7.854429371
7.877845311
7.881061002
7.852821569
7.888000917
7.887672765
7.863683877
7.83387454
7.875055497
7.785324839
7.840322294
7.845596954
7.815681563
5.853558428
7.848542144
7.821500052
7.811876992
7.819728049
7.812787424
7.845597463
7.848956419
7.869500596
7.875648408
7.823664389
7.76226923
7.72049742
7.734751106
7.738150551
7.791932513
7.81023693
7.806550547
7.818291472
7.82161933
5.905051456
7.894404551
7.802124292
7.753410369
7.801096301
7.776820701
7.793824953
7.801743871
7.77874433
7.734330398
7.722669055
7.776551443
7.82818392
7.802247561
7.831299967
7.799459912
7.781783166
7.783004958
7.837146445
7.860789286
5.858191055
7.884726702
7.86525472
7.907864846
7.941239202
7.886405632
7.815915567
7.802679551
7.84818356
7.870751772
7.885141679
7.84162942
7.832143975
7.83718978
7.8852512
7.879744039
7.888200041
7.823239875
7.782169403
7.785663067
5.90698093
8.015035403
7.949754727
7.916881711
7.851023506
7.919914676
7.966093078
8.011369892
7.928806283
7.970390301
7.92645942
7.92790463
7.956186065
7.89294192
7.890353358
7.836787699
7.857038224
7.831636303
7.890112085
7.867775354
5.793882222
7.732669731
7.699298246
7.745994672
7.746554394
7.774513289
7.761097868
7.757361911
7.758124503
7.758686702
7.831896774
7.808964668
7.803060849
7.804295954
7.795707827
7.801178555
7.779886957
7.773876033
7.805769346
7.773092742
7.930438295
7.924722106
7.949939011
7.942259604
7.940414472
7.973836073
7.799812798
7.845957463
7.893623314
7.825581773
7.881773135
7.929920843
7.961268474
7.993794894
7.942077329
7.93544588
7.940423791
7.95639314
7.961915564
7.974912161
7.929151169
7.898064671
7.92547938
7.898688806
7.930542887
7.963517318
7.813503535
7.804047496
7.81110322
7.789523125
7.836814228
7.804501227
7.818861216
7.853580405
7.867066852
7.896093959
7.930001984
7.929745583
7.881689828
7.929192099
7.900691993
7.882231486
7.836190275
7.820907616
7.780354741
7.818832757
7.82762447
7.821033281
7.820236995
7.810010515
7.834741405
7.82128884
7.874055331
7.93218897
7.864571223
7.844849993
7.895361825
7.870198872
7.896956886
7.875664624
7.954751758
7.924813765
7.872384187
7.869632961
7.931441912
7.921227321
7.841545878
7.827490096
7.816980781
7.837664912
7.807253547
7.845354981
7.874374574
7.879521504
7.828471516
7.824205956
7.945693173
7.9831461
7.934957581
7.852903697
7.815701486
7.795547581
7.794546065
7.781859896
7.772722144
7.751807723
7.724610763
7.711030252
7.730207438
7.71150063
7.759008447
7.771564927
7.761876545
7.707180242
7.761173017
7.793466781
7.799544378
7.856803692
7.865139249
7.89202611
7.861082235
7.863141819
7.905225492
7.903560157
7.920688618
7.844176559
7.927936007
7.900713415
7.870873996
7.876866644
7.920295828
7.897452226
7.850745814
7.834584964
7.881422778
7.897436752
7.858876718
7.867043653
7.875903124
7.863710811
7.781996548
7.78687374
7.821586836
7.86229789
7.881847633
7.900269856
7.787326358
7.804387295
7.823686889
7.825178514
7.84323404
7.882236176
7.859264344
7.863712837
7.833396684
7.817174255
7.859796369
7.911827296
7.856678708
7.9133837
7.930231951
7.908642989
7.883244762
7.896217884
7.86642257
7.814092313
7.840680881
7.827302752
7.83212497
7.829769011
7.848033971
7.828272244
7.770481183
7.79969544
7.828129308
7.879532794
7.772549186
7.794798115
7.807595442
7.808116726
7.826597156
7.794010649
7.846945052
7.812497774
7.838533075
7.850684255
7.802656763
7.783798019
7.781257591
7.753544949
7.791732141
7.839122601
7.857421352
7.890868771
7.928559901
7.891461611
7.822845415
7.797623216
7.805203677
7.868557807
7.792228297
7.774426873
7.816178794
7.731799952
7.680075613
7.734777555
)
;

boundaryField
{
    flow
    {
        type            calculated;
        value           nonuniform List<scalar> 
48
(
5.873730185
5.919981286
5.873052998
5.902630052
5.923389335
5.894094897
5.877477084
5.898157379
5.889828223
5.878469139
5.918385999
5.862101293
5.919105922
5.853558428
5.905051456
5.858191055
5.90698093
5.793882222
5.793882222
7.732669731
7.699298246
7.745994672
7.746554394
7.774513289
7.761097868
7.757361911
7.758124503
7.758686702
7.831896774
7.808964668
7.803060849
7.804295954
7.795707827
7.801178555
7.779886957
7.773876033
7.805769346
7.773092742
7.822845415
7.797623216
7.805203677
7.868557807
7.792228297
7.774426873
7.816178794
7.731799952
7.680075613
7.734777555
)
;
    }
    obstacle
    {
        type            calculated;
        value           nonuniform List<scalar> 0();
    }
    frontAndBack
    {
        type            empty;
    }
    procBoundary2to0
    {
        type            processor;
        value           nonuniform List<scalar> 
31
(
5.880713155
7.909788172
7.853141429
7.812709228
7.820191598
7.795176302
7.863309512
7.920722592
7.956556896
7.937702761
7.865035012
7.815489957
7.829253199
7.868369676
7.869262664
7.862268345
7.845770111
7.844488707
7.898923028
7.903458487
7.838300566
7.800342357
7.780608999
7.824729451
7.927979341
7.933862069
7.885946284
7.877160723
7.853907362
7.919101166
7.919101166
)
;
    }
    procBoundary2to3
    {
        type            processor;
        value           nonuniform List<scalar> 
19
(
7.99475815
7.950994567
7.965783023
7.927553709
7.801915507
7.812917211
7.998559783
7.822448196
7.770553671
7.7513197
7.875324395
7.874490362
7.90469818
7.804213527
7.87817493
7.848873137
7.909249872
7.899695926
7.654276543
)
;
    }
}


// ************************************************************************* //
