/*--------------------------------*- C++ -*----------------------------------*\
| =========                 |                                                 |
| \\      /  F ield         | OpenFOAM: The Open Source CFD Toolbox           |
|  \\    /   O peration     | Version:  2406                                  |
|   \\  /    A nd           | Website:  www.openfoam.com                      |
|    \\/     M anipulation  |                                                 |
\*---------------------------------------------------------------------------*/
FoamFile
{
    version     2.0;
    format      ascii;
    arch        "LSB;label=32;scalar=64";
    class       volScalarField;
    location    "0.008";
    object      linearKE;
}
// * * * * * * * * * * * * * * * * * * * * * * * * * * * * * * * * * * * * * //

dimensions      [1 -1 -2 0 0 0 0];

internalField   nonuniform List<scalar> 
546
(
6.070866892
10.71059859
6.303515489
9.790100533
11.37246501
4.451645107
5.982658954
6.889803802
6.542786961
6.714521686
7.270167217
5.169403063
6.662493443
6.857373722
5.320902355
8.710415666
6.398650677
7.74256013
4.952734159
9.65153004
4.248871656
11.0800856
11.44453898
7.520241995
9.986574069
6.29521287
3.028319927
5.256562874
11.47993666
6.222611717
9.154275838
6.319025154
4.7927654
7.277341812
7.093573394
4.553031754
8.10375954
7.266219762
6.728585223
10.03426366
3.475593389
9.802427836
8.581343047
5.452616543
8.238621341
7.366723175
8.005936873
11.26468853
8.212543067
12.72337736
14.27226432
8.289039658
8.896127602
4.562709348
5.634847635
10.88463213
6.555373722
9.288092556
6.360707888
8.926010782
6.318733504
4.424402887
9.34886885
4.576592603
5.159618865
9.2110223
8.300807142
7.945466881
13.85880316
7.788157584
8.573587907
8.224666357
7.598769787
12.52046627
11.5915764
11.12124349
10.60898743
7.259682249
8.00557431
8.501265607
4.280829693
7.689387931
11.89872394
8.872499403
6.647569649
8.866253311
13.59816356
5.291449235
4.987950146
9.712936319
8.145407144
4.634233263
5.723014218
10.22227937
8.717435348
7.84668128
9.274931877
7.442635436
5.117113964
5.353534216
5.151156886
10.87503716
8.569958794
5.285800764
8.877550299
5.139614444
5.210924568
8.444245148
5.650869545
5.148945609
9.666619012
2.311968237
11.12532611
11.44019102
4.844232833
13.02916264
10.06432791
4.642292654
6.764203047
8.596767079
6.08955802
9.481328973
4.563265867
7.885576034
7.472820035
7.434839981
4.356337153
9.706480604
11.12353017
9.031961074
2.590670685
4.841661197
15.84887293
4.355402227
2.66138673
9.836843145
6.73033964
1.915719928
4.342794526
4.408891539
2.615296381
10.13468367
6.810975578
8.330984025
4.213433259
10.44679269
9.5504919
7.31966714
6.953900167
9.163381525
7.033986405
8.948198461
9.738945936
7.130396869
8.175310836
6.416491608
10.06733296
7.433405461
7.693745317
9.02473148
5.33868869
11.25994069
9.453260296
6.364553176
4.434968407
21.27307716
4.715032293
7.005081712
4.891594935
4.88214602
11.01257411
7.615453164
8.980480025
7.554698238
4.533750216
6.388571339
7.487247929
12.99133148
8.290948509
7.58376271
6.344175737
5.566818004
6.847511525
9.448719802
9.297605691
8.126179073
8.791158029
5.668495287
12.38562545
4.771880159
8.128129698
3.684418377
9.54408575
5.01592398
9.340942074
7.636865059
6.087635037
5.727590958
8.23324136
7.748226301
4.066694096
13.60636732
9.783571173
7.113930344
5.191056611
5.963454372
7.147758589
11.31493438
8.612780293
6.179426488
9.541266745
9.343443209
11.82348286
9.411979895
14.27820977
6.781656029
10.9636584
6.640638989
8.735407319
4.702018206
5.793711869
8.6463153
6.491651446
5.686794163
9.394837317
7.57173554
6.286250959
10.11883459
5.210746538
8.659925902
7.248631278
7.216301327
7.668672716
7.034227091
6.810738733
11.04662017
7.474154916
7.471678163
10.54788918
7.086075106
5.924345398
6.984060549
8.806519727
8.813183632
9.340668561
5.516209277
8.604612376
8.627745956
10.85213535
8.200098754
13.79155897
2.179651492
11.96131978
6.043772077
8.070331997
8.047131721
8.648519347
11.26492603
6.579447683
2.054563128
7.217548461
6.616546846
4.405815379
8.286384727
7.804420097
12.82031873
6.075479175
8.891460137
12.81227746
4.107179204
3.124647948
8.824664692
7.437394309
2.918975921
7.237798754
2.993741473
3.577770953
6.491463961
3.742184146
9.409731955
3.210658253
9.149232459
7.755924474
12.97136733
11.54364492
4.247978298
4.826299794
5.605191718
5.446177657
8.055153983
11.75932301
11.97323283
9.438781051
10.33082638
7.219922764
6.953917784
9.751542936
11.26955044
9.378389881
6.846120992
5.218938615
10.08633239
10.47186749
7.502962458
3.809974943
12.37393213
5.418134636
13.91074926
4.350100771
5.127851674
12.2762898
3.848379584
6.367733704
2.980619481
12.66054441
6.340763007
5.9865233
7.819846214
7.821071004
6.080319319
6.755574498
6.340815311
5.500989458
9.656023437
7.493064192
9.815982063
5.187294929
5.628568155
1.474714038
12.18302029
7.843993876
4.522583986
10.55274827
5.163158377
9.164255501
8.353811865
5.127669141
7.137299331
7.196467167
11.0973481
4.896669951
6.455827836
8.875853619
9.244353519
10.98773518
8.031805556
2.146783964
7.580018141
9.996608036
4.65381479
15.54679519
9.647210714
6.281265086
7.1910823
6.494355145
8.520841837
8.602465139
7.611601809
3.254145839
10.3683701
5.594219593
2.904893319
9.718376808
10.36939082
7.9895289
9.707225322
9.848309164
8.961546329
7.729672579
7.029953178
7.343767588
11.72680893
9.771748418
4.56911672
8.216882819
5.609702628
7.984052776
8.419229314
12.49455999
5.4526074
8.006727679
9.16758826
6.031026571
8.105179788
7.352978764
5.497497713
10.62611841
7.984903339
9.245632876
5.190320319
5.141052972
8.338456576
8.236088794
7.722319927
8.817182094
5.465654045
10.57760708
5.108782079
14.26100665
10.39104553
7.273389699
4.728119035
6.456171676
6.4732875
9.347614764
7.130885085
11.35707418
12.28129264
10.47174107
4.833893559
7.267709782
8.117386183
9.635261556
6.360915196
8.641035391
7.19284767
5.191334554
8.224268217
7.098231549
11.62005654
12.33261144
6.984092692
7.867136189
6.521007743
9.859060913
7.164230749
6.435691918
4.204482383
7.015114645
9.247925876
12.12465516
8.986104939
14.48251887
12.69862298
7.804037334
0.660279609
10.56238924
6.691874083
10.24422605
11.87826794
6.34884213
7.744985512
7.371174349
12.27511228
4.795696838
3.797566365
8.812177533
8.703538651
9.228390603
4.875756391
9.948777833
9.833329778
8.15340822
6.32742354
7.726314859
6.269407527
9.972774492
8.015001469
4.726156416
7.121489871
7.518548208
11.12250746
5.919496563
11.42892881
5.196176482
8.769146475
6.940907324
6.762225751
11.25946018
10.421238
8.957095733
13.9275604
8.220503959
8.703018593
7.691069605
9.440353899
1.991047267
7.403405898
5.331474825
8.215818645
6.755663436
9.746674979
9.762151001
8.33438974
5.543817592
3.782446327
10.64444356
8.701000109
11.26160748
6.595041234
6.592156083
6.417326487
12.21510616
6.995867012
5.545835045
11.01878943
6.077887715
4.592942181
3.839363921
4.043342224
3.969863753
9.816081185
5.845101853
12.35434748
7.484536924
6.07442008
3.885277578
7.013965565
2.309375297
6.237688517
7.018508615
8.992669015
12.56405941
7.343998559
7.417278076
8.801619411
4.071134158
12.49957226
9.135527462
5.680065979
6.310179031
10.79979238
8.89325049
8.893784944
5.392137625
12.65061637
8.878974397
6.906963173
7.945922511
9.206606746
7.900567318
7.769116202
8.229988282
3.955103355
5.386161786
8.077709713
6.972348265
7.49951312
7.982597453
11.31762181
12.54237668
6.771130723
9.532313997
5.943883889
6.98875997
10.44287154
)
;

boundaryField
{
    flow
    {
        type            zeroGradient;
    }
    obstacle
    {
        type            calculated;
        value           nonuniform List<scalar> 0();
    }
    frontAndBack
    {
        type            empty;
    }
    procBoundary2to0
    {
        type            processor;
        value           nonuniform List<scalar> 
31
(
5.753442665
5.752394424
13.12664312
11.49478726
6.497304677
10.08905566
10.98538535
6.960633146
10.20318579
8.957324537
7.464563987
3.104504404
5.810664123
2.485820465
5.791875476
11.09086205
4.959925935
9.168682536
10.0460514
6.867020933
7.040495154
4.615602673
4.337985148
8.511525665
15.65506764
9.683329389
12.81075611
3.344144112
10.25576074
5.545331854
5.545331854
)
;
    }
    procBoundary2to3
    {
        type            processor;
        value           nonuniform List<scalar> 
19
(
12.47193941
6.684387488
9.803293827
4.780624154
5.282483063
7.772744297
9.423223861
9.693916527
7.992711877
12.4318151
8.598159961
11.5628545
9.864409189
15.07112879
5.300417098
6.863248206
4.151731295
10.30517068
6.431946296
)
;
    }
}


// ************************************************************************* //
