/*--------------------------------*- C++ -*----------------------------------*\
| =========                 |                                                 |
| \\      /  F ield         | OpenFOAM: The Open Source CFD Toolbox           |
|  \\    /   O peration     | Version:  2406                                  |
|   \\  /    A nd           | Website:  www.openfoam.com                      |
|    \\/     M anipulation  |                                                 |
\*---------------------------------------------------------------------------*/
FoamFile
{
    version     2.0;
    format      ascii;
    arch        "LSB;label=32;scalar=64";
    class       volVectorField;
    location    "0.008";
    object      momentumMean;
}
// * * * * * * * * * * * * * * * * * * * * * * * * * * * * * * * * * * * * * //

dimensions      [1 -2 -1 0 0 0 0];

internalField   nonuniform List<vector> 
546
(
(0.006335892681 8.460470424e-06 2.436727697e-06)
(0.008334364003 1.876881075e-05 3.207587698e-06)
(0.008385467001 2.220906007e-05 5.720280159e-06)
(0.008322999264 1.377886089e-05 1.707361465e-06)
(0.008330512497 -2.860826788e-06 5.423456228e-07)
(0.008329665523 -1.081359209e-05 6.283672696e-06)
(0.008333692667 2.56258737e-06 1.308825574e-05)
(0.008290794605 -2.95258299e-06 5.747456369e-06)
(0.008270241449 -9.468786216e-06 5.080273011e-06)
(0.00832078034 -9.659801461e-06 -1.0792719e-06)
(0.00834812002 -1.182830588e-05 -1.656785917e-05)
(0.008406263974 4.687499022e-06 -6.349044925e-06)
(0.008378446645 8.921677436e-06 -2.947311081e-06)
(0.008317344625 1.574072462e-05 2.703451496e-06)
(0.008310537212 1.277677456e-05 1.040727828e-05)
(0.008308511269 8.932582096e-06 -3.048539992e-06)
(0.008324389561 2.193586491e-06 -9.066281821e-06)
(0.008306023931 -2.595070545e-06 -2.936975406e-06)
(0.008251337652 4.729869725e-06 -6.608195494e-06)
(0.008245288294 1.042111439e-05 -1.05138868e-05)
(0.006373306169 3.776936311e-06 1.074036301e-05)
(0.008365105337 -3.804977903e-06 1.434048837e-05)
(0.008376465779 4.11564047e-06 2.052731523e-05)
(0.008410725123 9.928470806e-07 1.180920705e-05)
(0.008420189571 1.150520622e-05 7.077053624e-06)
(0.00838667501 1.111962648e-05 -3.352726387e-06)
(0.008373303654 -1.193351063e-05 -5.564967451e-06)
(0.008375333251 -1.706686813e-05 -1.416926089e-05)
(0.008326672958 -1.154866902e-05 -1.151730726e-05)
(0.008303689225 6.693600673e-07 -4.048673552e-06)
(0.008320957862 9.319813098e-06 -4.67802152e-06)
(0.0082954537 3.6524981e-06 -9.47478487e-06)
(0.008325243439 5.104696333e-06 -1.825562565e-05)
(0.008302465762 4.852810678e-06 -1.751253047e-05)
(0.008329200978 1.413720991e-05 -1.297032536e-05)
(0.008308183 1.024630504e-05 2.493336922e-07)
(0.008307488904 1.053256245e-05 3.758450027e-06)
(0.00837352426 2.231640858e-05 -8.267285076e-07)
(0.008396886964 1.09757683e-05 6.428431475e-06)
(0.008417046375 8.847058575e-06 9.602397953e-06)
(0.006329320516 8.27221277e-06 -1.680144553e-05)
(0.008314175972 9.800987073e-06 -2.294611076e-05)
(0.008311297962 -8.80961356e-06 -1.060078341e-05)
(0.008279302029 -1.632245566e-05 -5.854303765e-06)
(0.008290374862 -1.58684791e-05 4.582155718e-06)
(0.00832870144 -1.611556909e-05 9.197445759e-06)
(0.008363592638 9.366137661e-06 1.280758143e-06)
(0.008350741039 2.614542085e-05 5.958524958e-06)
(0.008355045708 2.569169272e-05 -1.817361916e-06)
(0.008382142771 1.81043619e-05 -4.319723909e-06)
(0.008341869954 1.544116228e-05 -9.89060712e-06)
(0.008343758944 1.790210433e-05 -3.401719308e-06)
(0.008298194861 7.905840252e-06 5.720761339e-06)
(0.008289992214 5.070517448e-06 3.424758927e-06)
(0.008312241175 3.373438122e-06 3.04791339e-06)
(0.008312010264 5.393804077e-06 -1.948167534e-06)
(0.008272883455 2.818555244e-06 -3.449029986e-06)
(0.008286583978 -2.91236855e-06 -3.91782834e-06)
(0.008265336658 2.911167888e-06 -2.306081235e-07)
(0.008264784577 -1.429191162e-05 -1.41259126e-05)
(0.006356509861 -1.898903124e-06 9.092459012e-07)
(0.00838122276 -7.197325088e-06 5.83459295e-06)
(0.008372968374 2.618371462e-06 -6.104281259e-06)
(0.008319469033 3.594053897e-06 -3.718946768e-06)
(0.008332437096 4.143344437e-06 -1.884291533e-06)
(0.008292276819 7.948425932e-06 6.957039304e-06)
(0.008298839589 -1.016601111e-05 4.694444902e-06)
(0.008306779572 -1.242335255e-05 1.459458334e-06)
(0.008346153359 -4.799518825e-06 3.526978393e-06)
(0.008281886619 3.394203008e-06 3.681754475e-06)
(0.008348055555 -2.783562843e-06 8.841157939e-06)
(0.008380637502 2.565608388e-08 1.592130131e-05)
(0.008450206935 1.682815173e-05 4.829029353e-06)
(0.008388644906 2.308045818e-05 1.007854042e-05)
(0.008403776052 2.015942036e-05 1.232030175e-05)
(0.008372178807 9.821795183e-06 1.102487062e-05)
(0.008349549616 1.069985474e-05 1.14010344e-05)
(0.008339291457 1.333740699e-06 6.879842969e-06)
(0.008399202379 -6.455138319e-06 -5.327012571e-07)
(0.008386691442 -1.201460305e-05 1.020980596e-05)
(0.006380026164 -5.362928168e-06 -5.817485204e-06)
(0.008366712972 4.709624571e-06 -4.328391021e-06)
(0.008347897361 4.259439924e-06 4.986599062e-07)
(0.008339552563 1.186357378e-06 -8.449355527e-06)
(0.008331709821 5.628242193e-06 -1.182057397e-05)
(0.008331265392 1.234804372e-05 -1.671367031e-05)
(0.008285165682 1.796841068e-05 -8.211889699e-06)
(0.008311954141 1.57458101e-05 4.885459221e-06)
(0.008278716547 -4.801960457e-06 4.764005324e-06)
(0.008207591773 -3.823404598e-06 7.953340457e-06)
(0.008221207696 1.244657883e-05 1.366382515e-06)
(0.008195540399 -1.223601093e-07 5.517222182e-06)
(0.008198789793 -1.356158795e-06 4.443707755e-06)
(0.008241838847 -2.94059489e-06 -1.158159289e-06)
(0.008298879552 -7.429998453e-07 -7.654142316e-06)
(0.00834326091 -4.475943481e-07 -4.091506218e-06)
(0.0083831233 -8.638066738e-06 4.686323275e-06)
(0.008381556244 -1.060322895e-05 4.197443887e-06)
(0.00832238919 -9.624206161e-06 4.105083156e-06)
(0.008317447119 2.538010195e-06 5.536471258e-06)
(0.006355095124 4.762310932e-06 2.765259891e-06)
(0.008341745393 1.006619246e-05 1.00476669e-06)
(0.0083184976 1.317609819e-05 2.840880574e-06)
(0.00832451448 2.494288582e-05 1.400032099e-05)
(0.008350857611 1.967948191e-05 1.789305723e-05)
(0.008363993605 1.664038507e-05 1.612438487e-05)
(0.008332648431 8.72699648e-06 1.365610103e-05)
(0.008320472591 -3.046005077e-07 -1.614729798e-07)
(0.008373470059 1.507589126e-05 9.175077159e-06)
(0.008404184214 -4.026796159e-06 3.022161829e-06)
(0.008431251158 -1.560111707e-05 8.809383636e-06)
(0.0083854024 -1.052863488e-05 1.250885659e-06)
(0.008357721468 -1.01407292e-05 -1.4061329e-06)
(0.008323240041 -1.341333107e-05 3.314172307e-06)
(0.008321368373 -1.910863872e-05 3.466856868e-06)
(0.008371088191 -1.756301005e-05 -1.310840021e-06)
(0.008345407656 -6.523195228e-06 -7.419324813e-06)
(0.008301782217 3.945407897e-06 -1.097009856e-05)
(0.008360008232 6.957972838e-06 -2.406918445e-06)
(0.008388541882 3.292389129e-06 -6.664958718e-06)
(0.006342427944 5.394331758e-06 5.908137011e-06)
(0.008311873168 1.010127178e-05 6.602964733e-06)
(0.008333696804 8.419913186e-08 5.21328963e-06)
(0.008371998654 2.092853157e-06 -1.246356536e-06)
(0.008331735773 -5.54148403e-06 -3.251635658e-06)
(0.008343307191 -9.587283079e-06 -2.762022316e-06)
(0.008361367564 -2.741715243e-06 2.617397297e-06)
(0.008404362153 2.158924279e-06 -9.513196575e-07)
(0.008344897711 5.514604294e-06 -8.18724378e-08)
(0.008370921163 4.136569782e-06 -1.443843338e-06)
(0.008379382299 9.806878045e-06 5.047599387e-06)
(0.008418582847 6.734956215e-06 -1.46173766e-06)
(0.008457014669 -1.815613432e-06 -5.489331771e-06)
(0.008419283537 4.408730274e-07 -8.233153121e-06)
(0.008393813998 2.263444593e-06 -2.793544569e-06)
(0.008338528967 2.806079513e-06 -3.795258375e-06)
(0.008379131432 -4.192039449e-06 8.164048015e-07)
(0.008338913931 -5.063643458e-06 3.434097401e-06)
(0.008338941636 -6.209780585e-06 6.029076499e-06)
(0.008342791528 -4.550977689e-06 1.747113393e-06)
(0.006355758592 -4.264481834e-06 8.245788289e-06)
(0.008374723905 -1.212180923e-05 -2.662765078e-06)
(0.00838591987 -1.436002852e-05 -2.296254286e-06)
(0.008361764577 -5.784298662e-06 -4.722025571e-06)
(0.008380685512 -9.871356944e-06 3.460062584e-06)
(0.008382987553 -1.658084924e-06 -4.095992646e-06)
(0.008385721322 6.232162032e-06 -1.259054135e-05)
(0.008352064953 8.054545351e-06 -7.776439732e-06)
(0.008414783424 -9.595409345e-08 -1.450162212e-05)
(0.008364644867 1.330934086e-05 -1.327570104e-05)
(0.008364543444 1.096527602e-05 -1.410456322e-05)
(0.008311839872 2.212967783e-06 -1.979948313e-05)
(0.008291030259 3.425432993e-06 -1.157091758e-05)
(0.008305859332 1.433662942e-07 -1.235128399e-05)
(0.008316624675 -1.261615022e-06 -5.347906086e-06)
(0.008356044772 -4.956110443e-06 -8.741165019e-06)
(0.008341843485 -6.88275338e-06 -9.67564962e-06)
(0.008380192339 -2.223192414e-06 -1.965216952e-05)
(0.008408281332 -7.714404848e-06 -1.678768929e-05)
(0.008414050143 -5.312003297e-06 -1.740189952e-05)
(0.006350391475 -5.036527906e-06 -2.330520254e-06)
(0.008341419972 -1.347133701e-05 -2.710170222e-06)
(0.008294187013 -2.217481364e-05 -4.098413067e-08)
(0.008309134922 -2.180413554e-05 -9.531057179e-06)
(0.008302224898 -1.913288302e-06 -3.497498217e-06)
(0.008245817389 3.129688843e-06 8.919248345e-07)
(0.008266277478 2.359217639e-06 4.752946601e-06)
(0.00831981555 -1.092544757e-05 6.230290325e-06)
(0.008283679942 -5.313675777e-06 1.263051525e-05)
(0.008373166684 -1.066222272e-05 6.264068356e-06)
(0.00839129049 -9.203457762e-06 6.975944344e-06)
(0.008419607363 -6.666769525e-07 1.488778306e-05)
(0.008395187741 6.131603496e-06 1.972464389e-05)
(0.008394998016 4.406561472e-06 1.519095035e-05)
(0.008370462186 1.275831749e-06 5.310004377e-06)
(0.008299636073 8.297605203e-06 1.848621861e-06)
(0.008311228962 -2.829194543e-06 5.022755616e-06)
(0.00829448069 -1.71639983e-06 -6.494633822e-07)
(0.00826092924 1.464844424e-06 -5.425192675e-06)
(0.008255749731 8.475141318e-07 -3.832081085e-06)
(0.006335204737 2.942145108e-06 -8.876593922e-07)
(0.008301697375 7.467128172e-06 5.025542814e-06)
(0.008297774509 8.515583139e-06 2.249994744e-06)
(0.008341425986 -4.490176841e-06 7.970522881e-06)
(0.0082992728 -1.057529549e-05 1.281248938e-05)
(0.008336054624 -1.269977118e-05 1.330530739e-05)
(0.008332312489 -1.093120376e-05 1.653035807e-05)
(0.008360404484 -6.928536364e-06 3.444590775e-06)
(0.008320094029 -6.40898022e-06 3.35862888e-06)
(0.008267891036 -1.161554425e-05 1.436782136e-06)
(0.008238067729 -8.081832122e-07 -9.319455449e-07)
(0.008249969806 5.592580499e-06 -5.44559572e-06)
(0.008294866884 2.715877002e-06 -1.633326913e-05)
(0.008323710307 1.13028217e-05 -1.253161985e-05)
(0.008349746067 2.844738646e-06 -6.272621108e-06)
(0.008379787678 1.032471288e-05 -8.557251715e-06)
(0.008341657972 2.063275088e-05 -1.108728947e-05)
(0.008296003709 2.309216135e-05 -3.339587311e-06)
(0.00828403394 2.140120692e-05 -5.250882421e-07)
(0.008262607365 1.277947319e-05 -3.234425462e-06)
(0.006374701701 3.579544474e-06 1.019115182e-06)
(0.008374290736 -1.617198563e-06 -3.71412259e-07)
(0.008355409438 7.66065564e-06 8.919124051e-06)
(0.008337393081 1.177782608e-06 1.465168011e-05)
(0.008343478705 -2.6020128e-06 -2.772548582e-06)
(0.008303493856 -9.859691107e-06 -5.46261698e-06)
(0.008335467013 -6.241124754e-06 -5.581726392e-06)
(0.008277866444 -9.203952838e-07 -4.591554116e-06)
(0.008318277103 1.252327346e-06 -3.289219494e-06)
(0.008363150468 8.008510921e-06 -3.722654341e-06)
(0.008352273098 -1.63344191e-06 -3.088327877e-06)
(0.008346692125 -3.290680966e-06 1.409794472e-06)
(0.008333746308 -5.566203332e-06 5.189666548e-06)
(0.008319485171 -1.441061621e-06 7.350544029e-07)
(0.00824936502 7.641401178e-06 -6.645466883e-07)
(0.008260689368 1.101691448e-05 9.354799532e-06)
(0.00828606381 1.12824854e-05 4.760543634e-06)
(0.008361659022 2.877652565e-06 2.94063412e-06)
(0.008414833701 8.270346167e-06 5.654109906e-06)
(0.008440454608 1.301954026e-05 8.884142145e-06)
(0.006320075177 -2.202717661e-06 7.571083511e-06)
(0.008357031154 5.037202818e-06 8.085229252e-06)
(0.008350182604 -5.653280943e-06 -8.336516321e-06)
(0.008347481532 5.751289951e-06 -1.372861446e-05)
(0.00832391277 2.302704303e-06 -9.707224014e-06)
(0.008298998028 -2.195023298e-06 -1.29979802e-05)
(0.008313219201 -3.061170125e-06 -1.17637486e-05)
(0.008270068451 -1.307778425e-05 -2.012333427e-05)
(0.00827027077 -1.353307121e-05 -8.884113514e-06)
(0.008244407563 -4.145676608e-06 -1.101692056e-05)
(0.008214049234 -4.272081129e-06 -2.281523939e-05)
(0.008273624825 1.886808451e-06 -1.869113544e-05)
(0.008270574063 7.00900284e-06 -9.351813615e-06)
(0.008316344198 3.801334837e-06 6.681112044e-08)
(0.008368363888 -5.513979408e-07 -4.801001042e-06)
(0.008324322066 -9.240459816e-06 -6.200473093e-06)
(0.008368192244 -3.180698389e-06 -5.044582782e-06)
(0.00829855178 -5.686734114e-07 3.666100449e-07)
(0.008315129732 -5.213319237e-06 -4.926599063e-06)
(0.008287779624 2.405105176e-06 -1.858164941e-06)
(0.006372580414 2.887386398e-06 -1.75256025e-05)
(0.008376296981 3.363539364e-07 -2.400658235e-05)
(0.008391708541 5.508683438e-07 -1.915461311e-05)
(0.008366155855 8.205778976e-06 -2.169040334e-05)
(0.008363357806 5.615677467e-06 -1.653133045e-05)
(0.008341758025 1.167487913e-06 -1.26519058e-05)
(0.00831465547 4.771299017e-06 -1.635476793e-05)
(0.008329323522 8.127683839e-06 -9.300067818e-06)
(0.00835452325 8.494401608e-06 -8.507930793e-06)
(0.008355235334 -7.236601768e-06 8.975888603e-07)
(0.008332779401 1.368919034e-06 6.281492352e-06)
(0.008362517684 -1.495996648e-05 8.538915005e-06)
(0.008360009044 -1.42408785e-05 -9.97578203e-07)
(0.008337993205 -7.169238506e-06 -4.862892828e-06)
(0.008304402555 -4.244297468e-06 -5.590632552e-06)
(0.008348337897 4.252123938e-06 -3.707471696e-06)
(0.00824922369 3.992029658e-06 -7.604401041e-06)
(0.008307332834 7.803450019e-06 -7.638507532e-06)
(0.008315002314 2.012576541e-05 -5.430849021e-06)
(0.008285866998 2.395064982e-05 -1.35539407e-06)
(0.006316433763 7.103472854e-06 -1.601087252e-05)
(0.008267655901 2.934196426e-06 -1.253501357e-05)
(0.008289634051 2.49155002e-06 -7.335671851e-06)
(0.00828384549 -2.024202309e-07 -5.060284305e-06)
(0.008295319185 -4.490748211e-06 -1.007083141e-07)
(0.008297987634 1.643808041e-05 1.030752393e-06)
(0.00832428792 1.277261733e-05 6.043987574e-06)
(0.008337975065 1.796064374e-05 3.968808354e-06)
(0.008344312633 -1.357824912e-07 -6.632763188e-06)
(0.008349685626 1.876909555e-06 -6.191228817e-06)
(0.008298641919 -5.456531025e-06 -1.635807332e-05)
(0.008237565303 1.338379314e-06 -1.696665578e-05)
(0.008195300506 3.82488114e-06 -2.283952689e-05)
(0.008218614348 5.0793452e-06 -1.388518545e-05)
(0.008220140981 1.026990564e-05 -7.576439184e-06)
(0.008275201405 9.189247405e-06 -6.409991701e-06)
(0.008290846349 2.675368972e-06 -4.75404263e-06)
(0.008285905427 3.656165676e-06 -1.281776576e-05)
(0.008290909019 -7.088028577e-06 -2.068094205e-06)
(0.008300590055 -5.969162381e-06 -1.3419844e-05)
(0.006377252725 -3.007870399e-06 -9.301966793e-06)
(0.008348702902 -2.679550959e-06 -8.341284788e-06)
(0.008302180287 -3.689996759e-06 -7.787004955e-06)
(0.008243640673 3.794599399e-07 4.664370959e-07)
(0.008293790269 4.745908164e-06 2.521744059e-06)
(0.008268062087 6.76536131e-06 2.353643774e-06)
(0.008278148844 -7.898431604e-06 3.399384355e-06)
(0.008287552269 -1.101352194e-05 7.482487226e-06)
(0.008263106746 8.23313263e-06 4.651810542e-06)
(0.008218451413 2.770595505e-05 9.881954355e-06)
(0.008213412431 3.036370929e-05 7.653538168e-06)
(0.00826568406 2.298522304e-05 6.016003277e-06)
(0.008318527321 1.244392527e-05 1.717465807e-05)
(0.00828518428 -4.312905593e-06 1.667952322e-05)
(0.008316248416 -1.638394907e-05 -2.17291254e-06)
(0.008283787309 -1.614018492e-05 -1.012228e-05)
(0.008262030776 -2.023240704e-05 -7.044404131e-06)
(0.008269679966 -1.996799457e-05 -5.950648037e-06)
(0.008320725863 -2.257257431e-05 -1.719068605e-05)
(0.008347578381 -1.775011225e-05 -1.454692519e-05)
(0.006316350854 1.054659763e-05 -8.021187665e-06)
(0.008316811881 1.618701507e-05 -1.189891251e-05)
(0.008338875387 2.311232927e-05 -9.137687668e-06)
(0.008381171949 1.948314334e-05 -7.469642552e-06)
(0.008418174085 1.178349364e-05 -1.483583734e-05)
(0.008360319232 1.086924324e-05 -1.108096851e-05)
(0.008291133859 1.86845537e-05 -9.109817423e-06)
(0.008278224261 2.801837752e-05 -5.669654686e-06)
(0.008317621354 1.003573875e-05 -6.984267599e-06)
(0.008344241978 -9.381034532e-06 -6.939575367e-06)
(0.008350653275 -1.195406253e-05 -2.598834701e-06)
(0.008315050094 -1.012432892e-05 -8.290955889e-07)
(0.00830577368 -2.473213545e-06 -1.442409018e-05)
(0.00831778804 2.1114839e-06 -1.06560795e-05)
(0.0083705054 -6.425856792e-08 -6.689542922e-06)
(0.008362609169 -1.160456508e-05 -2.417760352e-06)
(0.008366509361 -1.263135646e-05 5.093639302e-06)
(0.008305590738 -1.006492653e-05 -1.385319132e-06)
(0.008260345129 5.823012648e-06 -1.519432257e-06)
(0.008259061502 -5.220352757e-06 1.310215502e-06)
(0.006370139511 5.396756196e-06 -1.419435279e-06)
(0.008442218404 6.333091545e-06 -6.171229136e-06)
(0.008424280699 3.019474911e-06 -1.795630721e-05)
(0.00839082929 6.28882297e-06 -1.465255026e-05)
(0.008314045011 1.062592828e-05 -9.309823466e-06)
(0.008394364311 1.455381282e-05 -8.219865671e-06)
(0.008445777517 1.241970166e-05 -1.588702962e-05)
(0.008485796147 3.249894572e-06 -1.655008179e-05)
(0.008416177651 1.336206645e-05 -7.121429034e-06)
(0.008454781916 1.455146783e-05 -5.99026721e-06)
(0.008416745429 2.331037067e-06 -7.686252301e-06)
(0.008409001163 1.311927165e-06 -9.734934503e-06)
(0.008438667137 1.047498263e-06 -1.166593133e-05)
(0.008373826269 4.493693825e-06 -1.036119596e-05)
(0.008362201425 1.926437462e-06 -1.370640917e-05)
(0.008315484839 1.791145143e-05 -1.436980418e-05)
(0.00833515536 2.737203105e-05 -1.883407045e-05)
(0.008309125883 1.346900478e-05 -3.486653502e-06)
(0.008365938781 -7.519498127e-07 -7.909852449e-06)
(0.008345349006 3.059820317e-06 -1.331623159e-05)
(0.006234507469 1.867105878e-05 -9.905124063e-07)
(0.008153950589 2.083785127e-05 2.069559684e-06)
(0.008170053432 2.640895069e-05 1.334108378e-05)
(0.008227123851 2.90088378e-05 6.677001738e-06)
(0.008225934686 2.904050951e-05 -3.170318211e-06)
(0.00824518117 3.051439286e-05 -6.520880007e-06)
(0.008239592405 2.588340471e-05 -1.277766603e-06)
(0.008237450221 2.667584415e-05 8.515872785e-06)
(0.008237477981 2.196701181e-05 6.564297307e-07)
(0.008235443734 2.897939991e-05 -9.618518168e-06)
(0.008313476733 4.739283751e-05 -1.441843125e-05)
(0.008294656488 5.459554563e-05 -4.226916614e-06)
(0.008285707817 4.012181088e-05 3.887029781e-06)
(0.00828657963 3.718461409e-05 8.328969442e-06)
(0.008281805237 4.286145477e-05 6.883144378e-06)
(0.008286610732 4.1498983e-05 5.518816242e-06)
(0.008266345146 2.342296001e-05 5.188871363e-06)
(0.008264741366 3.301487923e-05 2.078105378e-06)
(0.008294317518 2.962150348e-05 5.564320219e-06)
(0.008255171773 3.366024407e-05 1.272771642e-05)
(0.008407087056 3.566029874e-05 -1.075631098e-05)
(0.008401644201 2.920660847e-05 -1.313345793e-05)
(0.008428993655 2.560517828e-05 -1.43216004e-05)
(0.008421078977 1.560217699e-05 -1.670938754e-05)
(0.008409610836 2.584100762e-05 -1.710806306e-05)
(0.008440239898 4.797380519e-05 -9.085531095e-06)
(0.008265084621 1.104610449e-05 -2.193375576e-06)
(0.008306030461 2.399737997e-05 -4.314240296e-06)
(0.008352767885 1.347589705e-05 -4.152947635e-06)
(0.00828701239 1.30101751e-05 -4.695874044e-06)
(0.008350859195 -9.69677882e-07 1.529168177e-06)
(0.008405588547 6.295437805e-08 6.423725907e-06)
(0.008440630053 4.720463138e-06 6.900878094e-06)
(0.008466095445 2.438431686e-05 7.64350339e-06)
(0.008411769517 3.047929325e-05 -4.565951783e-07)
(0.008391508694 3.991275077e-05 -1.880460088e-06)
(0.008420109602 3.229898418e-06 7.357252217e-06)
(0.008440162335 -1.223428483e-06 9.169023641e-06)
(0.008454928644 -8.165448666e-07 1.978078626e-05)
(0.008463126944 -1.320165428e-05 1.700246209e-05)
(0.00840845354 -2.114006402e-06 9.353439174e-06)
(0.008373134597 1.457396093e-05 1.377570075e-05)
(0.008392534872 1.622265669e-05 7.007769083e-06)
(0.008366934762 2.175912042e-05 1.536620536e-05)
(0.008394998217 2.305949929e-05 1.936522017e-05)
(0.008442813814 3.291788739e-05 1.696321548e-05)
(0.008290419986 -9.491461512e-06 -1.380430262e-05)
(0.008280323129 -9.39349331e-06 -1.263155015e-05)
(0.008284813251 -9.258091619e-06 -1.087906891e-05)
(0.008255998734 -7.831535506e-06 -1.092043787e-05)
(0.008310933881 -1.727115519e-05 -7.37895607e-06)
(0.008276322488 -1.037884158e-05 -1.161090009e-05)
(0.008288163133 -3.627199452e-06 -6.771871835e-06)
(0.008324276575 -1.270957375e-06 -1.36953588e-05)
(0.008335315317 3.550938664e-06 -8.829764093e-06)
(0.008372425774 7.013955875e-06 -8.052801277e-06)
(0.008402031169 -1.635500106e-05 -3.691151017e-06)
(0.008398296506 -6.858070137e-06 -4.327393503e-06)
(0.008348974809 7.074315536e-06 -4.740708756e-06)
(0.008409674304 8.724256818e-06 -1.153073962e-05)
(0.008381416503 9.701185765e-06 -4.06196208e-06)
(0.008364968251 8.435222243e-06 -5.363034619e-06)
(0.00831712881 -5.121157809e-06 1.960199675e-06)
(0.008301279279 -1.228888095e-05 1.271372462e-06)
(0.00825825256 -8.247210134e-06 2.020679869e-07)
(0.008299305253 1.443122308e-06 -5.2381541e-06)
(0.008309369283 -6.539014968e-07 2.094858306e-05)
(0.008301773081 5.912803763e-06 1.252281057e-05)
(0.008297171441 -2.116755195e-06 1.04319892e-05)
(0.008279352796 -2.563919283e-07 7.988574667e-06)
(0.008300630867 2.453893591e-06 -2.630549845e-07)
(0.008287471679 -6.998202663e-06 7.814162689e-06)
(0.008345996147 4.316982754e-06 1.146020939e-05)
(0.008410459612 9.036205482e-06 1.167480128e-05)
(0.008342890268 3.416472034e-06 1.012239287e-05)
(0.008319018698 1.256761197e-05 8.546826284e-06)
(0.008366830954 4.722681242e-06 -1.552627268e-05)
(0.008340037447 -5.068938216e-07 -9.045438314e-06)
(0.008368695016 3.790837417e-06 -7.233511369e-06)
(0.008360356442 5.777460734e-08 -3.542207545e-06)
(0.0084439009 -5.384486624e-06 -1.859282393e-06)
(0.008423754431 8.008242512e-06 -4.925291235e-06)
(0.00836214889 9.059606917e-06 -1.423441674e-05)
(0.008350780556 9.931289376e-06 -2.265226734e-05)
(0.008412594038 8.739588099e-06 -1.703857568e-05)
(0.008416534034 9.202987209e-06 -2.534825048e-05)
(0.008338275665 1.102289605e-06 7.526887421e-06)
(0.008325558067 -3.295230514e-06 -1.06222116e-06)
(0.00831339653 -1.629469994e-05 -6.65898935e-06)
(0.008332687431 -6.667868916e-06 -1.083592185e-05)
(0.008299143738 7.482166824e-07 -1.76137188e-05)
(0.008333506444 -5.347493075e-06 -1.807955357e-05)
(0.008360984824 -5.424316576e-06 -1.142798633e-05)
(0.008358385374 -2.416748266e-07 -1.119401588e-05)
(0.008301560263 5.418013833e-06 -9.603913946e-06)
(0.008288655841 1.311171824e-06 9.914287784e-07)
(0.008442890976 7.424311209e-07 -8.214593525e-06)
(0.008473000005 4.476717015e-06 -1.077138282e-05)
(0.008418458572 9.504890589e-06 1.353628188e-06)
(0.008334652157 3.715051624e-06 3.396460714e-06)
(0.00828234516 5.687122678e-06 2.418746809e-06)
(0.008267361357 1.494482453e-05 4.161595979e-06)
(0.008268529611 1.132278957e-05 -8.389953854e-06)
(0.008253681752 1.057445804e-05 -1.148748681e-05)
(0.008240410592 -5.116531665e-06 -1.29663755e-05)
(0.008231806095 -8.704036726e-06 -2.048763402e-05)
(0.008194847448 4.232533079e-06 -1.108894218e-05)
(0.008182014066 8.438907308e-06 -1.35228779e-05)
(0.008191000065 1.416561139e-05 -1.57950161e-05)
(0.008180116369 2.065378424e-05 -1.356706082e-05)
(0.008238094405 1.334330469e-05 -1.21532315e-05)
(0.008249097205 7.500733205e-06 -1.795701796e-05)
(0.008253328853 -1.433407971e-06 -6.805235886e-06)
(0.008191262594 3.602386282e-06 2.438466402e-07)
(0.008241660617 7.058166524e-06 -8.988272622e-07)
(0.008275008364 7.429341035e-06 -6.044661353e-06)
(0.008262780154 1.164431958e-05 -8.290925173e-06)
(0.008325214654 1.323560977e-05 -1.948881386e-06)
(0.008345855273 1.131281868e-05 -9.554817723e-06)
(0.008372107159 4.063810172e-06 -2.189037348e-06)
(0.008345807515 5.413944796e-06 -7.665383664e-06)
(0.008338818134 -5.859531006e-07 -8.277213216e-06)
(0.008384379448 8.838360381e-06 -1.224325635e-05)
(0.008380280505 1.131208247e-05 -1.79596441e-05)
(0.008398599714 1.641661526e-05 -1.00562977e-05)
(0.008318018249 1.696049657e-05 1.075404544e-05)
(0.008413344101 1.286000404e-05 7.197825486e-06)
(0.008384965821 -8.005297746e-07 1.62750542e-06)
(0.008343534805 -4.894148832e-06 1.443067794e-06)
(0.008342353715 1.211079808e-06 3.971093337e-06)
(0.008386653035 1.473624829e-05 6.590394535e-06)
(0.00836709746 2.231465219e-05 5.731510315e-06)
(0.008317147821 8.612814508e-06 7.266831122e-06)
(0.008299863692 1.341479282e-05 2.14132086e-05)
(0.00835496125 9.594199218e-06 1.523574185e-05)
(0.008368868642 1.697551943e-05 -1.24811212e-06)
(0.008340153072 6.039715482e-06 -1.037915861e-06)
(0.008344211437 2.030594893e-05 4.477609729e-06)
(0.008361683763 2.669987824e-05 4.709352985e-06)
(0.008343698347 2.372638211e-05 5.686421718e-06)
(0.008259442674 1.645970362e-05 1.362773929e-05)
(0.00826268413 4.921576379e-06 7.643783176e-06)
(0.008298857514 -4.70779341e-07 2.121388645e-06)
(0.008348735676 -2.598399584e-06 -6.32197232e-06)
(0.008364574892 -5.008869553e-06 -1.461514056e-05)
(0.008380082458 1.911249879e-06 -2.093892671e-05)
(0.008257892587 1.593393893e-05 -7.672733027e-06)
(0.008283566179 6.45436468e-06 -9.400623624e-06)
(0.008297019669 -1.841452894e-07 -1.065320569e-05)
(0.008308367151 2.019603376e-06 -1.573661357e-05)
(0.008320127712 -5.308497743e-06 -1.680588799e-05)
(0.008361612366 1.968885447e-06 -1.540943419e-05)
(0.00833937308 5.866223868e-06 -1.773430399e-05)
(0.008341628827 -3.97353841e-07 -1.559793174e-05)
(0.008309503378 -2.286476088e-06 -8.505705054e-06)
(0.008298006139 -1.578046743e-05 3.066389924e-06)
(0.008331467011 -4.320514411e-06 -6.474390957e-06)
(0.008392388742 2.080131777e-07 -5.478055374e-06)
(0.008341537202 -9.200505378e-07 -2.915741365e-07)
(0.00839790316 2.848554788e-06 -2.904167432e-06)
(0.008421796615 1.291943862e-05 1.559970246e-07)
(0.008402479366 1.433371921e-05 3.610996501e-06)
(0.008376300413 1.007684198e-05 1.103507616e-05)
(0.008381924902 1.283143572e-05 1.677880619e-05)
(0.008352929818 2.731494301e-05 1.804959381e-05)
(0.008292017307 2.822580997e-05 8.866544142e-06)
(0.008319741897 -9.523599059e-06 -6.509940294e-06)
(0.008307978393 -4.55351198e-06 -9.894664333e-06)
(0.00831262249 4.146503898e-06 -5.809446231e-06)
(0.008305160344 3.656594236e-06 -3.483352141e-06)
(0.008320120804 3.926677647e-06 1.090873634e-06)
(0.008295780195 6.064133586e-06 -1.174669856e-06)
(0.008243191492 2.199173238e-05 -1.273136177e-05)
(0.00826813669 3.000992502e-05 -1.473517769e-05)
(0.008314877573 2.421424895e-05 -1.496177103e-05)
(0.008365115922 8.571066663e-06 -1.033529307e-05)
(0.008251519516 -1.10141913e-05 -1.306407431e-05)
(0.008274660041 -1.340226752e-05 -6.186922725e-06)
(0.008287794801 -6.383054266e-06 -1.321165877e-05)
(0.008290764046 -4.559783073e-06 -1.434409106e-05)
(0.008305946449 3.050867646e-06 -1.725266634e-05)
(0.008276760995 1.24259329e-05 -2.416834262e-06)
(0.008333239595 1.199016192e-05 -5.911482042e-06)
(0.008304993048 -3.022174624e-06 -1.324451689e-05)
(0.008330325254 -9.867747126e-06 -1.603192625e-05)
(0.008346116405 9.976680222e-06 -1.05286374e-05)
(0.008290206888 5.835380775e-06 -8.737067714e-06)
(0.008275826231 3.41461741e-06 -1.314708993e-05)
(0.008272856751 -9.848384402e-06 -1.546493728e-05)
(0.008244130173 -6.566745622e-06 -8.001753843e-06)
(0.008282600132 -8.181764806e-06 -1.351316868e-05)
(0.008330616624 -1.812342594e-05 -2.656904761e-05)
(0.008342216934 -1.681221352e-05 -1.442426827e-05)
(0.008379759313 -1.897874258e-05 -8.286319979e-06)
(0.008412648122 -1.436621407e-05 -2.455691615e-06)
(0.008370670513 -1.26863967e-05 8.583188276e-07)
(0.00830209201 2.829687615e-05 1.466631166e-05)
(0.008266611902 3.173570935e-05 3.385947368e-06)
(0.008269450355 2.850052076e-05 1.237525078e-05)
(0.008332659152 2.247702768e-05 1.472889109e-05)
(0.008250466821 1.837976768e-05 6.826743356e-06)
(0.008239484043 2.439803339e-05 1.828185012e-05)
(0.008279093324 2.028494935e-05 2.626355396e-05)
(0.008196544691 2.240005169e-05 1.767402284e-05)
(0.008146123429 2.982637697e-05 1.824264092e-05)
(0.008197113922 2.38493745e-05 1.651473521e-05)
)
;

boundaryField
{
    flow
    {
        type            calculated;
        value           nonuniform List<vector> 
48
(
(0.006335892681 8.460470424e-06 2.436727697e-06)
(0.006373306169 3.776936311e-06 1.074036301e-05)
(0.006329320516 8.27221277e-06 -1.680144553e-05)
(0.006356509861 -1.898903124e-06 9.092459012e-07)
(0.006380026164 -5.362928168e-06 -5.817485204e-06)
(0.006355095124 4.762310932e-06 2.765259891e-06)
(0.006342427944 5.394331758e-06 5.908137011e-06)
(0.006355758592 -4.264481834e-06 8.245788289e-06)
(0.006350391475 -5.036527906e-06 -2.330520254e-06)
(0.006335204737 2.942145108e-06 -8.876593922e-07)
(0.006374701701 3.579544474e-06 1.019115182e-06)
(0.006320075177 -2.202717661e-06 7.571083511e-06)
(0.006372580414 2.887386398e-06 -1.75256025e-05)
(0.006316433763 7.103472854e-06 -1.601087252e-05)
(0.006377252725 -3.007870399e-06 -9.301966793e-06)
(0.006316350854 1.054659763e-05 -8.021187665e-06)
(0.006370139511 5.396756196e-06 -1.419435279e-06)
(0.006234507469 1.867105878e-05 -9.905124063e-07)
(0.006234507469 1.867105878e-05 -9.905124063e-07)
(0.008153950589 2.083785127e-05 2.069559684e-06)
(0.008170053432 2.640895069e-05 1.334108378e-05)
(0.008227123851 2.90088378e-05 6.677001738e-06)
(0.008225934686 2.904050951e-05 -3.170318211e-06)
(0.00824518117 3.051439286e-05 -6.520880007e-06)
(0.008239592405 2.588340471e-05 -1.277766603e-06)
(0.008237450221 2.667584415e-05 8.515872785e-06)
(0.008237477981 2.196701181e-05 6.564297307e-07)
(0.008235443734 2.897939991e-05 -9.618518168e-06)
(0.008313476733 4.739283751e-05 -1.441843125e-05)
(0.008294656488 5.459554563e-05 -4.226916614e-06)
(0.008285707817 4.012181088e-05 3.887029781e-06)
(0.00828657963 3.718461409e-05 8.328969442e-06)
(0.008281805237 4.286145477e-05 6.883144378e-06)
(0.008286610732 4.1498983e-05 5.518816242e-06)
(0.008266345146 2.342296001e-05 5.188871363e-06)
(0.008264741366 3.301487923e-05 2.078105378e-06)
(0.008294317518 2.962150348e-05 5.564320219e-06)