/*--------------------------------*- C++ -*----------------------------------*\
| =========                 |                                                 |
| \\      /  F ield         | OpenFOAM: The Open Source CFD Toolbox           |
|  \\    /   O peration     | Version:  2406                                  |
|   \\  /    A nd           | Website:  www.openfoam.com                      |
|    \\/     M anipulation  |                                                 |
\*---------------------------------------------------------------------------*/
FoamFile
{
    version     2.0;
    format      ascii;
    arch        "LSB;label=32;scalar=64";
    class       volVectorField;
    location    "0.008";
    object      momentum;
}
// * * * * * * * * * * * * * * * * * * * * * * * * * * * * * * * * * * * * * //

dimensions      [1 -2 -1 0 0 0 0];

internalField   nonuniform List<vector> 
546
(
(0.006594788846 4.928129817e-07 6.810598904e-05)
(0.01061352295 8.099452472e-05 -0.0001327095992)
(0.006844427062 0.0006091941114 5.744327076e-05)
(0.01006975738 -0.0002325910879 0.0004458028417)
(0.0123003847 -0.000499552007 -0.0002823309575)
(0.005401207433 -0.0003387669147 0.0004339815039)
(0.006188098285 0.0001926847637 0.0002123751976)
(0.007116281672 -0.0001172778938 0.0001632825647)
(0.007134115287 0.00116457425 -0.0002856120947)
(0.006959585649 -0.0005439658072 7.579383739e-05)
(0.008112848263 -0.0004576752932 0.0004240691619)
(0.005847032072 -2.501737184e-05 -0.0006823384413)
(0.007544275315 -7.746138204e-05 -0.0001265679434)
(0.007014022183 -0.0001011631975 -0.001056195772)
(0.005494783756 -0.0002879996428 -4.294466537e-05)
(0.008948640952 -0.0002287680575 0.0003116891513)
(0.006767705038 -3.137375838e-05 -9.957052642e-05)
(0.00855571562 -0.0002495579694 0.0005493782668)
(0.005168679102 -0.000180139257 0.0001353559773)
(0.009862877284 0.0001006076568 -0.001101991744)
(0.004840325503 0.0002071465323 5.573014274e-05)
(0.01061495577 0.000101777886 0.0001496263965)
(0.01243220556 0.0002250117763 -0.0007091365438)
(0.007518420982 -4.922155503e-05 -0.0005784740495)
(0.01055135575 0.000358693876 -0.0004147799035)
(0.006780738998 8.692893721e-05 -0.0001456343939)
(0.00367332627 0.0003150607448 0.0001642858636)
(0.00552169418 0.0006746148081 0.00052551284)
(0.01211696985 -0.0001431332606 -0.0005999198731)
(0.006266873249 -0.0004209964024 0.0003499002503)
(0.009532179172 0.0001367238876 -0.0003387287761)
(0.007172222615 0.00047479974 -0.0006558083169)
(0.004854795781 1.383728928e-05 -0.0002462202575)
(0.007580019054 -0.0004580216576 8.116562025e-05)
(0.007170278033 2.797956552e-05 -0.0005840007041)
(0.005425892313 -0.0002701682786 0.0001740347352)
(0.009070372089 -0.0002986619739 0.0006173672826)
(0.008176017425 0.0004818922876 0.0002812270057)
(0.007078827918 0.0006212330722 0.0001969876171)
(0.01045057937 0.0006698965795 0.0006906744295)
(0.004370771459 0.0001501040505 -0.0001551030554)
(0.01056365347 0.001110097003 -0.0003038816564)
(0.008738479661 -0.0002405446079 0.0002221274257)
(0.006511605685 0.0001887734471 0.0002278566566)
(0.008415645663 0.0001600842014 4.615230825e-05)
(0.007480828957 0.0001415836696 0.0003938829957)
(0.008076464198 0.0002887761708 0.0008057824058)
(0.01183412701 0.000885457787 -0.0005198204398)
(0.008461154757 -0.0009706115608 0.0004415071577)
(0.01361481513 0.0005858997156 5.662399867e-05)
(0.01441760927 0.0009847507364 0.000456044582)
(0.008641174477 0.0004663974213 -8.438265283e-05)
(0.009204336563 -0.0001373124091 0.0001110419458)
(0.004604477216 0.000232674838 0.0001601266529)
(0.005918288249 0.0004249140503 -0.0004775193758)
(0.01215414484 6.693545577e-05 -8.370347563e-05)
(0.007401757168 -3.751567181e-05 5.897671041e-05)
(0.009734588115 0.000244391073 0.0003457311512)
(0.006409628932 0.0008135993321 0.0008849873336)
(0.00943211498 6.868674336e-05 -7.321422491e-05)
(0.006858524127 0.0001364776659 -0.0004198777738)
(0.004525295611 0.0006475964868 0.0001121359067)
(0.01054126541 -0.0001237489919 0.0001337720262)
(0.005012111961 -0.0003314170904 -0.0006013692741)
(0.00547057832 0.0001496316491 -5.083562397e-05)
(0.01049576318 -0.000490490143 -0.0003051520615)
(0.008689747522 8.18554666e-05 -0.0001492855865)
(0.008907296852 0.00029353164 0.0001371936914)
(0.01305592177 -0.0007603670341 -0.0006383046536)
(0.009007929707 4.842544144e-05 -0.0003464153561)
(0.009179265109 -0.0002757027504 -0.0002614991313)
(0.009116644184 -0.0003593634154 -0.0001566733379)
(0.008097387634 0.0005796558029 -0.000109651874)
(0.01305828142 -0.0004329634877 -0.0005585071081)
(0.01280200356 -0.0001197153949 -0.000244331156)
(0.01103035658 0.0001739296044 0.0001594714043)
(0.01148355181 0.001321192021 1.247392348e-05)
(0.007829340774 -2.571806168e-05 -0.0004015207099)
(0.008170028438 0.0002061493765 -0.0003420050322)
(0.008690189001 0.0001479442609 2.681789965e-05)
(0.004924732912 0.0004565695393 -0.0001666986924)
(0.007537088425 -0.000786117336 -0.0001838165093)
(0.01275474074 -0.0008859250289 0.0003302696064)
(0.009399817618 8.794210344e-05 0.000151913752)
(0.007090843953 -0.0002115331044 0.0002657260309)
(0.009809310907 -0.0006408535931 6.373947412e-05)
(0.01403677488 -0.0003119064023 0.0004060085137)
(0.005844460505 0.0004789640793 -6.986157223e-05)
(0.005209538665 0.0006152422811 0.0005724165712)
(0.01038066372 -0.000268594478 -0.0001680610386)
(0.009132946324 -0.0002317214895 0.0001829820138)
(0.004175483084 0.0002195626269 0.0005688756177)
(0.006164891158 0.0008012370705 0.0002672323919)
(0.01061851257 -1.952402318e-05 -0.0004608009289)
(0.009492433861 0.0007429428782 0.0006188413422)
(0.008962036197 0.0004256234712 -0.0003622196587)
(0.008979915574 0.0001436152203 0.0006206664442)
(0.007940227651 0.0001031426509 2.225204236e-05)
(0.006064552872 -1.098254091e-05 0.0006517030128)
(0.005998504451 -0.0004826858856 9.932537231e-05)
(0.005347060583 0.0006093774373 0.0002409755982)
(0.01096456936 0.0005660724995 0.0003296330327)
(0.008945093476 -0.0001267595801 0.0002798534423)
(0.00617674673 4.453034756e-05 -0.0002953426314)
(0.009347247187 -0.0001964671113 0.0008507811888)
(0.005820073382 3.314064129e-05 2.497095123e-05)
(0.005304410444 -0.0001510229753 0.0006830035582)
(0.008730134243 -0.0003127561984 -0.0001683268151)
(0.006458398502 -0.0006677063689 -0.0003886414322)
(0.005684101399 -0.0001985944766 1.789747058e-05)
(0.0109175968 -0.0007161798259 -1.338976855e-05)
(0.002525502669 1.81086403e-05 -2.450123922e-05)
(0.01116823537 -0.0009905269011 -0.0005317778122)
(0.01189106516 -0.0001113827837 0.0007708230093)
(0.005708494703 8.303951038e-05 0.0001831278334)
(0.01312949755 -0.0006222479713 0.0005155376746)
(0.01046746023 0.0008039270961 -0.0003668133942)
(0.004591247224 -0.0001996860689 0.0003793361295)
(0.007499688176 0.0003710944191 -0.0001369158882)
(0.008762347108 -7.250180829e-05 -1.384883602e-05)
(0.006396510515 -0.0004928526436 -0.0005183106665)
(0.009912144965 0.0004157321902 0.0007815644882)
(0.005456061739 9.365358543e-05 0.000134854967)
(0.008096323115 0.00033177435 -0.0001869371523)
(0.008017483459 0.0005163082367 -0.000528778428)
(0.008109949868 0.000273742285 -0.0002459977233)
(0.004225821091 -0.0007195487226 -0.0002266349983)
(0.01022385557 -0.0006001791415 -0.0006591733004)
(0.01230868266 0.0002230197002 0.0002802559262)
(0.008622987993 -0.0001378435157 -0.0007503119117)
(0.003025443703 -0.0004058245777 -0.0002131972501)
(0.005256856372 2.463862422e-06 9.130786169e-05)
(0.0149496669 -0.000319249802 -0.001263859865)
(0.004847118134 -0.0001139647045 6.80243594e-05)
(0.002744130754 -0.000173465707 -0.0003011285068)
(0.0100063465 0.0009268584486 0.0002825970042)
(0.007046980829 -0.0004391030206 0.0003493708987)
(0.002356561011 -0.0001493721515 -1.124104604e-05)
(0.004832029557 3.795102241e-05 -0.0005175993565)
(0.004490946864 3.21503743e-05 5.349632973e-05)
(0.003061379688 0.0005054724471 -9.838379562e-05)
(0.010969497 -2.814114606e-06 -0.0004479120864)
(0.007924014771 0.000490839341 -0.0001717399228)
(0.008811685043 -0.0005838394505 -6.075159199e-05)
(0.004487154298 0.0001091161163 -0.0007081795385)
(0.01132545459 0.0001830127224 0.0002751368814)
(0.009491799229 0.0003340076139 0.0002401161477)
(0.007559839839 -2.728821442e-05 0.0003223651844)
(0.007643510823 0.0002506491975 -0.0005219508825)
(0.00955276709 -0.0006374583729 0.0004640950932)
(0.007174887733 0.0002874265484 0.0003449421624)
(0.009996514917 -0.0001675220189 -0.0002371135356)
(0.0103088865 -1.155558685e-05 0.0002538306773)
(0.008216261323 0.0002483832333 -9.455188307e-05)
(0.008664124872 0.0001647784891 0.0001660542499)
(0.00729984109 -0.0008523066876 0.0005875729795)
(0.01060171415 -0.0002378647783 0.0001414615488)
(0.007496004865 -0.0003666519674 -0.0001531056987)
(0.008504299115 -0.0001040689601 0.0002505937047)
(0.009449718423 7.868563538e-05 5.1380126e-06)
(0.005410814866 -0.0003677525324 -0.0003975546285)
(0.01150107402 -0.0008253852087 0.0009237243906)
(0.00958597771 0.000743815714 -0.0001446977341)
(0.006326969571 -0.0005869196468 -0.0006843312061)
(0.004379669795 -0.0003749747044 0.0004155278349)
(0.02059213528 -0.0005096038032 0.0005146101178)
(0.005035692114 -0.0001185540392 0.0006954332481)
(0.007521639742 -2.283917311e-05 -0.0004831842529)
(0.005495837376 0.0006979851717 -0.0005252281101)
(0.004478198142 0.0003793685444 0.0006545137735)
(0.01091216303 9.671613069e-05 4.789700069e-05)
(0.008685242231 -0.0007523167552 -0.0004917488945)
(0.009622468097 0.0004283756081 -0.0001839274867)
(0.007933884176 4.298483025e-05 0.0005154491954)
(0.004143989671 0.0001163316545 0.0004340495668)
(0.00697019549 0.0004931043357 0.001060711144)
(0.007957158914 -0.0001082373127 0.0001685215364)
(0.01252068178 0.0003148454642 -0.0006461029529)
(0.008407647247 0.0003911996242 0.0006972760943)
(0.0084352977 5.415600628e-07 -0.0004731487551)
(0.0068573746 0.00041065852 0.0005899372717)
(0.006034628479 0.0002734051085 -0.0001026100099)
(0.007557794782 -4.745793582e-05 9.483928732e-05)
(0.009624214533 0.0005985826098 0.0003722434191)
(0.009533383055 9.085475581e-05 0.0003187951888)
(0.008586561319 -0.0002279914771 -0.0006875210137)
(0.008602305289 0.0003162735516 7.404378675e-05)
(0.006582529558 -5.41054034e-05 -0.0005775835162)
(0.01250163176 -6.211947471e-05 -0.0001176398492)
(0.004793360165 -0.0004661363783 -9.308167678e-06)
(0.008965842805 -6.271192717e-05 0.0004650897228)
(0.004195916745 -0.0002269540353 -0.0002034360038)
(0.009535376159 -0.0003264162239 -0.0007783195783)
(0.005269703024 -0.0002088263124 -0.0001266777197)
(0.009901293921 -0.0003922808199 -0.0001730764825)
(0.007084343129 -2.765330462e-05 0.0001537729713)
(0.006813894375 -0.0003064494124 9.094339093e-05)
(0.006145641989 -0.0002793715396 0.0006123494135)
(0.009224217062 -9.462610131e-05 -0.0004588567217)
(0.008141219156 -4.242278818e-05 -0.0006391695082)
(0.003949015899 -0.0002840378683 -4.805888791e-05)
(0.01373192823 0.0004156222032 -0.0005135160836)
(0.009968131373 -9.59851543e-06 0.0006810231816)
(0.007772685199 -0.0001063347523 0.0008467235871)
(0.00580880367 0.0003432591344 -0.0002719545095)
(0.006771172889 0.0006050697301 -0.000137449619)
(0.007716604577 -0.0004312584872 -0.0002660124265)
(0.01215584251 -0.0002370365078 0.0004463077549)
(0.009365733625 0.0001727905679 0.000226772452)
(0.006755574224 0.0003089007699 0.0003736224075)
(0.009721839619 0.0006605843043 -0.0007909971757)
(0.0107519942 9.949612376e-05 -0.0001400742916)
(0.01193823535 0.0001167841733 0.0005249620667)
(0.009878174836 0.001011919743 -6.50861468e-05)
(0.01437472502 -0.001120938013 -0.0001505476039)
(0.007363643541 6.863413695e-05 0.0001179986214)
(0.01154177203 -0.000304165268 -0.0007497575111)
(0.007610762209 -0.0002324238728 0.0007116694935)
(0.008568635924 0.0002994537048 -0.0001630849137)
(0.005048212153 -0.0002124621626 -0.0002133517849)
(0.00616434506 -6.349853155e-05 -5.909394184e-05)
(0.009098602388 -0.0002622907062 -0.0006932816269)
(0.006935262037 0.0003675279914 -0.0001130682115)
(0.006087523696 0.0001936608735 -1.959123468e-05)
(0.009663112056 -6.349874212e-05 -0.000376856597)
(0.008143657393 -8.919421483e-05 0.0003959757087)
(0.006951926982 -2.060991266e-05 -0.0002962533043)
(0.01004470253 -0.0006940486567 0.0008452793325)
(0.006126177311 0.0001028852672 -0.0006018257853)
(0.008663936288 0.0002860479088 -0.0006393432289)
(0.00779990611 -0.0001553958335 4.209396916e-05)
(0.007156142892 -0.0007015798541 -0.0004321922418)
(0.007930096259 0.0002997205794 0.0004852803668)
(0.008167481797 -0.0001204882017 0.0005925397408)
(0.00714869301 0.0002553109439 0.0002251105767)
(0.01215036698 -0.0003728378405 -3.838024752e-05)
(0.008309548776 -0.0002600722144 -0.0005061221551)
(0.007626765214 -0.0003387905403 0.000593626434)
(0.01129618961 -0.0001016636502 -0.000278804483)
(0.00763507493 -0.0003765625575 0.0002796810118)
(0.006108206582 -0.0004587641917 0.0002647602238)
(0.007173380609 -0.0007387488156 -0.0004506196143)
(0.009275139582 0.0004169272724 -9.18074486e-05)
(0.009256087125 0.0001390046591 -0.0006455250605)
(0.01021155378 0.0001579640472 -0.0005203554326)
(0.006184127065 0.0004929789754 0.0006266437542)
(0.00917993079 0.0004728258286 -0.0007178524262)
(0.009603103344 -0.0006403651335 0.0001869669979)
(0.01165416521 -0.0009562401154 -0.0005698869786)
(0.008702890866 -0.0002793136514 -0.0003788019617)
(0.01484757868 -8.521113344e-05 -0.0005769895304)
(0.002466410272 0.0002771865188 0.0002277227697)
(0.01218837884 -0.0004934602118 0.0006874151252)
(0.006758500018 0.0005673433653 -4.921232254e-05)
(0.008776065138 -0.0006458378046 0.0005193252307)
(0.008017737324 0.0002624820699 -9.781549056e-05)
(0.008907052257 0.0005295073418 -4.519903071e-05)
(0.01148172661 -5.4491045e-05 0.0007172692971)
(0.00644819574 0.0003354261611 -0.0003365159746)
(0.002334831051 -0.0005379815603 -0.0001486747612)
(0.007733011375 -0.0004534051381 -0.0001502632481)
(0.007058889254 -0.0001974832382 -0.0003861326533)
(0.004417084484 0.0002431655402 -0.0001359713765)
(0.008771140692 0.0001648830607 -3.484148651e-05)
(0.007655867643 -0.0001339255966 0.0009450706744)
(0.01405882276 0.0003953560354 -0.001041161436)
(0.00659159636 0.0005114649705 -0.0004215899664)
(0.009603121397 0.0004845965314 0.0003222086498)
(0.01389191284 0.0002039489692 -0.0002208174326)
(0.004837970827 0.000422075376 -0.0001044018886)
(0.003321036798 3.225820209e-05 -0.0001325882581)
(0.009688576518 -9.824300698e-05 0.0002540418286)
(0.008571311605 0.0002468854922 -0.000285462534)
(0.002975809013 -7.719274011e-05 0.0001913797974)
(0.008171231546 0.0003261881162 0.0002021072999)
(0.003211108624 0.0005013124669 -1.953176414e-05)
(0.004077816011 0.0001343155888 0.0004215289136)
(0.007381185116 -5.60292054e-05 -0.0003380520757)
(0.004172874512 7.831265698e-05 0.0001873210803)
(0.01057237035 0.0003474033586 -7.998161148e-05)
(0.003814917864 -0.0003381651425 -0.000421135142)
(0.009026229951 -2.272268443e-05 0.0003276737554)
(0.008057592224 0.000238086785 -3.288596376e-05)
(0.01376088465 -0.0005215726292 -0.0006295857707)
(0.01159741617 0.0004491077085 -0.0003727884747)
(0.004402941571 -0.0001391047586 -0.0003549706348)
(0.005244457112 -0.000595253802 -0.0006495239121)
(0.006135139682 0.0005022780309 -0.0003720239919)
(0.00547189959 -0.0004355271992 -0.0004930466299)
(0.00878153071 4.463858843e-05 0.000457447418)
(0.01300986376 -9.920628875e-06 -0.0005559768416)
(0.01281178946 8.336819894e-05 -0.0005239361061)
(0.009399420697 0.0002445700046 -0.0003984674743)
(0.01109044123 0.0005489635944 0.00155521097)
(0.008083314176 8.147543206e-05 2.374638021e-05)
(0.007551310609 1.493404277e-05 -0.0008088004961)
(0.01014900843 7.694971104e-06 0.0002327586798)
(0.01209776024 -0.0006565675111 -0.0006145026667)
(0.01055782474 -0.00028720506 0.0001169707629)
(0.007299659905 0.000257258637 0.0001525389126)
(0.005359268424 -0.0002875962172 -5.854271721e-05)
(0.01057663035 -0.001221293853 -0.0003916161773)
(0.01077869172 0.0002668688928 -0.0006954405318)
(0.007932252913 -0.0002950510211 -0.0006688345921)
(0.003538758547 0.000365188349 -2.221608856e-05)
(0.01373636407 -0.0003323748134 0.0003187528942)
(0.005889843608 -0.0002915010551 -0.0001984757573)
(0.01482480924 -0.0001286493093 0.001180371647)
(0.004945086318 -0.000132408903 0.0001070822083)
(0.005497391491 -0.0004844508321 -0.0008326335726)
(0.01316038416 0.0003086973772 0.0008144684506)
(0.003825178306 -0.000493166374 -0.0003631391359)
(0.006754950776 0.0005555936579 -0.0006324715787)
(0.003324485519 0.0001212583439 -9.729719295e-05)
(0.01329120183 -0.0004454074693 -0.0003189269433)
(0.006354801842 -4.506212553e-05 7.849222073e-06)
(0.006249680315 0.0004089798109 -0.0005536313316)
(0.008587778297 -0.0001437913287 -0.0001602540792)
(0.008178486596 0.0003674111909 0.0002320341347)
(0.006274114824 -0.0001832133186 -7.646454466e-05)
(0.007093585822 -0.0001360826881 -0.0002381924619)
(0.006480674229 -0.0003257905877 0.0005427469463)
(0.005786119019 0.0004566804467 -0.0003748917844)
(0.01061914232 0.0002074820901 -0.0006705133471)
(0.008052940482 -0.0002289181097 0.0006521249664)
(0.01035594847 0.0001372240984 -0.0007215469044)
(0.004989306285 0.0001538104127 1.260888609e-05)
(0.006645229493 -8.627369848e-05 0.0004983944263)
(0.001656088275 -0.0002405123924 0.000108933384)
(0.01221141978 -0.0003876045242 0.0004069093696)
(0.00814585506 0.0004230735908 0.0008971467472)
(0.005087999057 0.0004192299649 2.397982163e-05)
(0.01027963213 -0.0007027699828 0.0001014822119)
(0.005377705041 -0.0003263911811 3.50134142e-05)
(0.009048541957 -0.0002380149312 0.0002487450158)
(0.00849222414 -0.0004919613555 0.0005508592868)
(0.00517070499 -0.0006013027323 0.0005113239111)
(0.007650010256 0.0004973610575 0.0007147724073)
(0.007674608035 -0.0003255654837 0.0007903818729)
(0.01121177367 -6.001838266e-05 -0.0003445462084)
(0.005623544896 0.0007557470324 0.0004271053056)
(0.0064736585 -0.0002050354235 -3.120979317e-06)
(0.01047984418 0.0002366521729 0.0004686328344)
(0.009586561789 -0.0005641600974 -4.831476419e-05)
(0.01085009179 -8.774610818e-06 -0.0005478493224)
(0.008748737005 0.0004521917125 0.0003282092248)
(0.002466631485 -0.0001193110901 -0.0003498277473)
(0.008272167877 -0.0001841587604 0.0006466247251)
(0.01033656636 -0.0005967327933 0.0001991728758)
(0.00497580063 0.0008064475634 0.0001122580633)
(0.01587304298 -0.0006169950478 -9.99771289e-05)
(0.01050185262 -0.0004860472342 -8.560037121e-05)
(0.00619934939 -0.0004124093696 0.0002410384996)
(0.007541980791 0.000135216259 0.0002064032094)
(0.007136717969 -0.0004136105676 -2.364429711e-05)
(0.009015550183 4.027097905e-05 0.0004067585665)
(0.009789662421 -0.0008825593514 0.0005287713496)
(0.008521509353 -0.0008115164141 0.0002754588593)
(0.004169446998 0.0001070794472 7.747698794e-05)
(0.01107282919 -0.0001196221374 -0.0008083078484)
(0.006090192622 -0.0001594184652 -0.0001887211243)
(0.003073508645 -0.0002553062751 -0.0003408678301)
(0.01046164573 0.0001795292485 -7.591335313e-06)
(0.01135056141 -0.0002573227839 -0.0002223849017)
(0.008164788977 -0.0002389616092 -0.0002948520331)
(0.009855409623 0.0004499183155 -0.0007736319923)
(0.009736744881 -0.000242183778 0.0003654840866)
(0.009630279536 0.0001415362276 0.0003395057996)
(0.00842511456 0.00053675801 -0.0006900389814)
(0.007569755685 -0.0002429246447 -0.0003076115681)
(0.007833626535 0.0005228738032 0.0002163049163)
(0.01268174502 1.207938317e-05 0.0002631412324)
(0.01027160218 -0.0003177086637 1.031676217e-05)
(0.005575052204 0.0001670984546 -5.585663419e-05)
(0.008565267398 -4.205742514e-05 0.0003520039404)
(0.00629846489 -0.0002384344586 0.0006235162249)
(0.008969420015 -0.0002953259586 4.555659187e-05)
(0.008823434045 0.0002247700392 0.0002309155476)
(0.01225701389 -0.0003193132147 0.0002526041854)
(0.005550408259 -1.14252305e-05 9.612081871e-05)
(0.0085963078 -0.0003220014995 0.0007221584186)
(0.009824155794 -0.0008288470383 -2.37071767e-05)
(0.006393947161 0.0002229955212 -0.000158692806)
(0.009036832156 0.0007231970015 0.0007250990929)
(0.008090006756 5.205263267e-05 -0.0003082743809)
(0.005564331845 -0.0004689335653 0.0001700181634)
(0.01100773829 -0.000116497678 -0.001077925003)
(0.008445628323 -0.0003155214222 -0.0005793085624)
(0.009661974927 0.000372843055 0.001472412143)
(0.005459516866 5.55557395e-05 0.000430947998)
(0.005478673231 -0.0003686938506 -0.0001889682926)
(0.00842888193 -0.0009743082049 -0.0006819178828)
(0.008544498528 -0.001032460681 -0.0002462926483)
(0.008092004932 0.0001164142662 0.001002505244)
(0.009456104002 -0.0006520029412 9.412425882e-06)
(0.005641325835 -0.0001633621958 -0.0001582969628)
(0.01140864301 3.178320567e-05 0.0006139035746)
(0.005838482005 0.0007348406564 -8.407241254e-05)
(0.01454812522 0.0004682018143 -0.0009018510083)
(0.01131054968 -4.698717176e-05 -0.001012391132)
(0.007760822066 0.0005273511711 -0.000163883397)
(0.005365586743 -3.406893372e-05 -0.0003242479373)
(0.007847049303 3.503741387e-05 0.0002912803383)
(0.006655903995 3.232609116e-05 -0.0003172882935)
(0.01009763054 -9.929423e-05 -0.0003104849172)
(0.007675378181 -0.0002163125535 0.0002765933452)
(0.01168920027 -0.001249451808 -0.0005019001779)
(0.01332773438 0.0004729887371 -0.0003882886889)
(0.01052022312 -0.0008010559732 0.0006603786247)
(0.005274058291 0.0003552895794 0.000113711328)
(0.007370455832 0.0003147113821 -0.0002746222069)
(0.008223938087 -0.0004624326915 -0.0001461297842)
(0.01063002326 -0.0001144780191 -0.0009741182176)
(0.006179296637 -5.834504899e-05 1.55343202e-05)
(0.009055189975 0.0003558512466 -0.0001822211297)
(0.007253032872 -0.0003291005439 0.0001600389141)
(0.005311041473 -0.0001509465304 -8.304313844e-05)
(0.008630497994 0.0005631380597 -0.0001486104383)
(0.007191535988 0.0002099834121 -0.0002508306138)
(0.01195208126 0.0004257874359 -0.0005340435782)
(0.01261587946 0.0004267995765 -0.0003080765553)
(0.007284941101 2.962012021e-05 0.0002731536363)
(0.008844043341 0.0001269039503 2.426233536e-05)
(0.007028526652 0.0001765926276 -0.0002516909611)
(0.01086620276 0.00076269146 -3.776530319e-05)
(0.007422497933 4.272469162e-05 0.0004195469251)
(0.006935654112 -0.0006108680295 0.0004865221997)
(0.004838237157 0.0003464107553 3.135463661e-05)
(0.00685316098 -0.0005354739231 -0.000221289868)
(0.01032981406 -0.0002652889384 -0.0005105155941)
(0.01230303275 0.001265122695 -0.0002868591691)
(0.009345865091 -0.0005625504343 0.0002466028971)
(0.01592289787 -0.000334433792 0.0008267138501)
(0.01307524965 -0.0001175756013 -7.267322912e-05)
(0.007369795554 0.0005812854426 -0.0003961555089)
(0.0008837305531 -4.013747899e-06 1.125477415e-05)
(0.01187681454 -0.0008492978954 -0.000408464807)
(0.007528329163 0.0003378800521 -0.0002760185117)
(0.01107706132 -0.0007819223731 0.00037230512)
(0.01305197642 -1.262506627e-05 0.0005713030288)
(0.007407140459 3.180581224e-05 -0.0003795763424)
(0.008095263292 -0.0004118701446 0.0001588514277)
(0.007975915537 0.0004102013768 0.0001381033727)
(0.01281398492 0.0004023034116 -6.621926089e-05)
(0.005766861811 0.0005038278928 1.064904229e-05)
(0.004360022029 0.0003970013743 0.0003134810258)
(0.009445545363 3.004421307e-05 -0.0005634253582)
(0.008436967926 0.0002052306613 0.0003408123251)
(0.009803173809 0.001176581461 0.0005200023128)
(0.00516693106 -7.249853691e-05 0.0008026838081)
(0.009804399525 -0.001085026344 0.0001614746283)
(0.01068898802 0.0005273086276 -0.0002137264796)
(0.009363137431 -8.995196709e-05 -0.0004160665661)
(0.007340058427 -0.0003313339053 2.595246523e-05)
(0.00788106327 0.0003161258505 0.0003458625892)
(0.006715960656 2.741222968e-05 -3.734357048e-05)
(0.01056489811 -0.0001286740257 0.0001012556501)
(0.008234089047 0.0003228982088 0.0003958658813)
(0.004699291186 5.671121743e-05 -4.569025054e-05)
(0.008107574235 0.0006697556852 2.130942579e-05)
(0.008011653146 -9.907229849e-05 -7.382496073e-05)
(0.01080780744 0.0007303230365 -0.0008977294238)
(0.005852232956 -0.0002099632109 0.0001786041043)
(0.01151604723 -0.0003291658341 -0.0007372068637)
(0.005526751712 -0.0003760980319 -0.000185553035)
(0.009780356016 0.0008432834924 0.0002664127123)
(0.007581090982 -0.0003988322194 -0.0003930468051)
(0.007947526536 4.174979104e-05 -0.0009092808145)
(0.0112422898 0.0004464890413 0.0006639243135)
(0.01057486051 -0.0002137520881 0.0001424397961)
(0.009721396441 0.0004272064199 0.0003585976801)
(0.01465896493 0.0007243095144 -0.0002521740528)
(0.007920911717 -0.0001630858131 -0.0002087314124)
(0.009555355481 0.0001038339443 -0.0002205240044)
(0.008362609354 -0.000377669981 -0.0003770759577)
(0.00891901225 -0.0001983720869 2.963418573e-06)
(0.002315685782 -0.0001954865086 0.0004414843265)
(0.007845078845 -0.0001111114816 -0.0001451344954)
(0.005770346318 0.0008943336591 -0.0001104590206)
(0.008980016288 0.0001505149574 -3.253411383e-05)
(0.006971161389 -0.0004316195225 2.232587482e-05)
(0.00959970378 0.0006898888807 -0.0008637689877)
(0.009728662106 -0.0003357773693 -0.0003736240942)
(0.008510741802 0.0006930500571 -0.0005878174659)
(0.006735206207 8.320668028e-05 -5.504256029e-05)
(0.003960601687 0.0001207042659 -0.0003114148077)
(0.01071202421 0.000127029946 -0.0003246921391)
(0.009855007505 0.0001922747203 0.0001659220015)
(0.01175366911 -0.0007294914317 -0.0001928237556)
(0.00640267459 0.0005190761494 0.0002763563518)
(0.006809517181 0.0003290014241 0.000269566202)
(0.007471030064 0.0005351047673 0.000278783565)
(0.01199758986 -0.0005937659462 -0.0008643769163)
(0.00671921168 -0.000287449268 -0.0004535032537)
(0.005974593407 -0.0005266461662 0.0004052331976)
(0.01097047835 9.30008983e-05 0.0001809391224)
(0.006701077363 -5.663759774e-05 0.0002008088631)
(0.00507804039 0.0004039040189 0.0003936190451)
(0.004452891829 1.153740434e-05 0.000123523727)
(0.004335042496 3.706306416e-05 -0.0001659008859)
(0.004420219244 -9.662507338e-05 -0.0001554225717)
(0.009749929592 -0.0006299475128 -0.0004993193647)
(0.005743814504 0.0001453371609 0.0002883961994)
(0.01280048043 0.000183180528 -0.0005229964687)
(0.007140598121 0.0003924300795 -4.357832443e-05)
(0.005935012626 0.000357727858 0.0001129154972)
(0.004195159308 0.00054339846 0.000156848884)
(0.007380150164 -0.0007830500658 0.0003035252524)
(0.002444632276 -0.000562490881 0.0001042301765)
(0.006664633233 0.0003727851965 3.369229424e-05)
(0.007852450124 -0.0003573809164 0.0007589618641)
(0.008242510325 -0.000207032473 0.0002840288764)
(0.01396344527 0.001082591757 0.0002005732324)
(0.00699789857 0.0004466627873 -0.0004632789721)
(0.007936092884 -0.0005275043077 0.0001371169253)
(0.009240402369 -0.0007032569385 -0.0001473062274)
(0.004298966998 -0.0002168645238 8.595538315e-05)
(0.01284830997 -0.0005047619047 -0.0009197511452)
(0.009630800006 -3.818553037e-05 -0.001033165966)
(0.005963698172 0.0001217614816 -0.001051069497)
(0.006637270197 -9.130533628e-05 0.0002743151367)
(0.0107597329 0.0008663855844 -0.0006838290586)
(0.0102615473 -0.0001363619211 -0.0005627716266)
(0.009818657059 -0.0001803314415 0.0002514753929)
(0.006120173816 -0.0003715727258 0.0003698649012)
(0.01251220687 -0.0003261707142 2.940515536e-05)
(0.009919247049 3.000326528e-05 0.0003714161491)
(0.006971838432 -0.0002789533665 -0.0004385990685)
(0.008932226969 -0.0006008549002 -0.0004252680564)
(0.009821642263 -9.336704449e-05 -0.0002194442604)
(0.008331410423 0.000208022375 0.0001126097221)
(0.0087981402 -0.0009736317667 -3.217436471e-05)
(0.008768304704 -9.467477574e-05 1.386970464e-05)
(0.004438508248 0.0003645918396 0.0001903662784)
(0.005514353564 -0.0005554429467 -0.0002439581939)
(0.008564810699 0.0002235558065 0.0001931051112)
(0.007235967749 4.490788074e-05 0.0002954359942)
(0.008538849084 0.0001949964325 -7.232156725e-05)
(0.008779342431 0.0003236137406 -4.404221355e-05)
(0.01178315277 -9.391777445e-05 0.00014868553)
(0.01300435511 0.0001391285512 -0.0001005884537)
(0.007158121387 0.0001852737493 1.70454002e-05)
(0.009649097799 -0.0005403031348 -2.800068068e-05)
(0.005854269705 0.0001408684573 6.4331213e-05)
(0.006960806972 -0.0002493956485 -0.0001258938433)
(0.0111060857 0.0009578552657 0.0001653594684)
)
;

boundaryField
{
    flow
    {
        type            zeroGradient;
    }
    obstacle
    {
        type            calculated;
        value           nonuniform List<vector> 0();
    }
    frontAndBack
    {
        type            empty;
    }
    procBoundary2to0
    {
        type            processor;
        value           nonuniform List<vector> 
31
(
(0.006192512541 -0.0004131582927 -0.0003494610639)
(0.005709247816 0.0001325691127 6.44521068e-05)
(0.01306025901 0.0002264170843 8.8385378e-05)
(0.01194195273 0.000410927441 0.0003538476132)
(0.007294782072 -8.115458175e-05 -0.0006704757428)
(0.01098478173 -0.0001288723204 0.0008292574529)
(0.01063480613 -0.0004202533305 -0.0003994897255)
(0.006987337813 0.0002875920547 -0.0001049949954)
(0.01059828402 0.0004780353487 0.0006470577242)
(0.00953341635 -0.0001449125345 0.0001249285918)
(0.00713866095 -0.0003986574444 0.0002986656916)
(0.003742776223 6.528260409e-05 0.0004569830932)
(0.006893212476 0.0005395845942 -3.006721732e-05)
(0.003042555488 -0.0004360425181 0.0004090029675)
(0.006652356269 -0.0002311709693 0.0001281150011)
(0.01150670473 0.0003542756581 8.238026531e-05)
(0.005496861816 -0.0005931689757 3.71346407e-06)
(0.009847439886 -0.0006842418651 0.0009818488799)
(0.01081851564 0.0005398469637 0.0003194117939)
(0.007624163764 2.204890491e-05 0.0008156630917)
(0.007297209192 -0.0001450652641 0.0008052744225)
(0.005184266916 -4.738671852e-05 9.670707008e-05)
(0.004523934943 -0.0002227946888 -0.0005007658647)
(0.008692919584 2.090708215e-05 0.0003795891456)
(0.01590283444 0.000783455904 0.0007989282838)
(0.01008648248 0.0007230190896 0.0004077442731)
(0.01307472417 0.001047484498 0.000159191397)
(0.003614001656 -0.000724863843 0.0002015678468)
(0.01059105053 1.095574817e-05 -0.0001269344385)
(0.005926531443 0.0004595315523 -0.0001400805997)
(0.005926531443 0.0004595315523 -0.0001400805997)
)
;
    }
    procBoundary2to3
    {
        type            processor;
        value           nonuniform List<vector> 
19
(
(0.01377184094 -0.0001216979891 -0.0004621989565)