/*--------------------------------*- C++ -*----------------------------------*\
| =========                 |                                                 |
| \\      /  F ield         | OpenFOAM: The Open Source CFD Toolbox           |
|  \\    /   O peration     | Version:  2406                                  |
|   \\  /    A nd           | Website:  www.openfoam.com                      |
|    \\/     M anipulation  |                                                 |
\*---------------------------------------------------------------------------*/
FoamFile
{
    version     2.0;
    format      ascii;
    arch        "LSB;label=32;scalar=64";
    class       volScalarField;
    location    "0.008";
    object      overallT;
}
// * * * * * * * * * * * * * * * * * * * * * * * * * * * * * * * * * * * * * //

dimensions      [1 2 -2 0 0 0 0];

internalField   nonuniform List<scalar> 
546
(
292.426206
303.9792339
300.5227104
301.2631443
300.8973946
299.5438161
300.0120413
301.158306
300.2244214
299.6118041
301.3312258
301.883969
301.0947909
299.4214733
298.3052748
298.4680977
297.3820689
297.3928784
297.9778157
299.5716991
294.855929
303.6599034
300.1935993
300.140811
300.0251849
300.4111959
300.111361
300.2201118
300.4868254
300.3636697
298.7274485
298.5591356
300.0955231
300.4860845
300.5847995
299.548198
300.110299
301.4730253
300.0865866
299.7589239
293.5861458
302.9785951
298.237974
298.8698988
301.3356828
302.0642781
302.1328825
301.9052925
301.0652247
300.8228707
300.3660402
300.8117735
299.6246469
299.0997704
299.7815359
300.3142453
300.0741019
299.6550062
301.2053038
301.3251164
296.3259541
305.4024764
301.4861326
299.9468831
298.2384425
297.8521809
298.6224744
298.4864722
298.8191667
298.4547308
299.2108881
300.1325231
301.4873991
302.1101259
301.917723
301.6299649
300.799556
301.8294812
302.7984118
300.9591204
294.2665439
304.1091622
301.3036027
302.1174642
300.8040006
301.0178795
299.8143938
299.1276099
300.9749641
300.6270309
300.3217692
299.365336
299.3658825
300.3267087
300.10572
302.4364535
302.8191736
302.700648
300.7092344
301.1101791
294.9976447
304.6717496
298.635539
298.4489079
299.455948
298.7845701
298.9196502
299.8500358
299.482689
300.5283713
300.2401645
299.6602974
299.9718835
300.4895062
300.2232632
300.8728915
301.5658672
301.4243213
302.4417059
303.7972975
291.8631561
301.2976698
297.7806864
299.8742688
299.9320108
299.8949242
301.1456844
301.8301061
300.5705048
299.176288
299.7690698
299.6233667
299.9479842
299.3596816
299.4970015
298.639152
298.0998684
299.3459183
299.9664061
300.0795305
293.6166576
303.816161
299.4677314
299.678252
300.4339637
300.1004381
300.2583259
299.3620366
299.4494411
300.397277
300.3274484
299.1779199
299.6256459
299.5269273
299.5301372
300.2653438
300.2079169
299.576358
299.4964553
300.2489055
295.9724553
304.9650988
300.9273536
300.2511615
299.9165896
299.5785895
299.2936402
300.3715442
300.9258109
302.1233062
300.8474477
302.5100146
302.1681525
301.6558311
300.6536239
300.227977
300.7115919
300.2331769
300.0710341
300.3357172
294.3499575
304.9876086
300.2709731
298.7728657
298.2731876
297.4633733
297.7428098
299.4733146
300.6553783
300.1225524
300.1926039
300.0843436
299.2860478
300.3429818
301.5849657
300.3383828
299.8582174
301.181135
299.0376008
298.2524727
294.1110905
303.7435129
298.7931874
300.0167393
300.5365469
302.0764139
300.4690663
298.6700428
298.2945343
298.4838034
298.2552139
297.8740506
298.2474684
298.5921661
296.8283701
297.7375471
299.8077817
298.8211175
300.2503448
300.8719883
293.3310488
303.0596309
298.2445484
300.0268073
299.045141
298.8912647
298.0643015
298.2061559
297.471847
297.7830701
297.3220821
298.3778751
298.7846522
299.9135151
300.3214837
299.9048701
300.0574463
300.9211032
300.9241792
300.4305203
294.1812997
303.9799647
299.5952489
300.7450328
301.3427295
300.8546487
300.573032
299.7299832
300.172062
299.1223595
300.7744576
301.0979941
301.6432468
301.4167472
300.9224198
302.2774665
301.6866819
301.7984038
302.1197584
301.9731725
294.1170544
304.0538682
301.5349861
301.44397
301.4364153
300.9652039
301.9660526
303.3581332
303.7869198
303.7414483
300.6590003
300.3050116
298.9998261
299.1716717
299.8061699
299.2637605
298.8577699
299.1800493
298.6716768
299.0690008
298.1496489
307.3266614
301.2604299
301.1860626
301.918272
303.1488064
304.1399146
303.665877
302.4862128
303.3389374
303.1511646
302.4224676
302.3741977
302.0074274
300.5936149
299.8496048
301.3392965
302.3809373
301.6082968
299.6810566
293.9556391
302.8636033
299.1027392
301.4039161
301.1471838
300.1491277
300.2947996
298.9581849
299.0140947
300.1079956
300.7919485
300.6608513
300.7902284
301.6579555
300.7679586
300.1849177
299.7177937
298.3926614
297.9561046
300.0653623
293.2128712
303.1782982
300.2490651
298.7860526
298.5711527
298.827768
298.3861107
298.9909909
298.9679467
299.4947279
299.543931
299.749833
300.4158743
300.1943751
300.5760641
299.9343102
299.0598126
299.1738644
299.7455442
297.9909188
295.2581631
302.2652358
298.6128035
298.6173837
297.5077687
297.6992248
298.221969
298.9535808
298.5081269
297.8601088
298.4807962
296.9717022
297.5906812
295.8536363
295.7384528
295.2242506
296.5788667
297.1134397
295.5776197
296.29701
305.2925664
307.1352535
306.3969166
306.5900561
310.6647225
313.2539672
300.5758144
302.9088043
302.5906534
303.0544881
303.4840659
302.9672634
303.3071196
306.7396122
305.8544606
309.3961637
299.0647279
299.9408095
300.2575896
300.8442521
303.3839959
304.4190078
304.9929436
305.2563878
306.6266214
309.3327402
303.4787886
303.5672079
302.5261944
301.4252531
300.2987634
300.7959969
301.4119081
302.6975448
303.7863392
304.4527293
299.1414994
300.5079616
301.2413496
301.4546453
300.493924
302.653406
302.431879
300.7000468
301.6480976
302.0193426
301.3709961
301.4144272
301.5092504
301.3553263
301.4272959
301.6472899
304.012168
304.5377786
303.7699762
305.0699361
302.345707
302.1427929
301.2031275
301.9348282
302.6086617
300.7533993
301.0523596
300.2428986
299.8933239
300.6606749
301.3472336
301.3997014
302.007179
299.6795292
300.5494659
300.9694321
299.7476556
302.0127635
302.3460648
302.2336257
298.8227554
300.4974657
299.7513799
299.680669
301.5301293
300.218313
301.6569936
301.7242805
301.8960926
301.1793353
299.7911036
300.6967002
301.5048103
299.4027645
299.6228963
300.4202288
299.3684049
300.2088535
300.8949325
300.6947869
299.2439941
299.8457034
300.7362331
302.5092704
300.1093605
300.7760507
300.9880697
301.1224041
301.0236072
300.4542524
300.8532223
300.173849
299.6813499
299.9941815
300.7195546
300.2610452
300.0410564
299.7266347
299.9943527
302.1202893
300.552946
300.5855885
300.1390994
301.5342826
301.2111903
301.2795552
302.2208151
301.700485
301.8225961
302.1170336
302.6399098
302.5556395
303.6829939
302.2578213
302.4828203
302.3123778
302.635361
302.638548
301.749077
300.1834791
298.5941308
299.3556328
298.7447192
300.2134244
301.3412334
299.5621798
299.2623676
300.3447639
299.424677
300.6802879
299.4384917
299.8681047
300.3149603
299.1172065
298.5089998
299.1363346
298.5506383
298.2650468
298.5636941
299.4204189
299.1063291
299.7620399
298.505179
299.5498003
299.4130772
298.3361482
299.8239654
300.1207835
300.063402
299.9198196
298.5713494
298.5695743
297.0235413
297.6214844
298.3666787
299.4128446
300.5616347
301.1136152
301.8385433
300.6363135
298.1041565
297.3540108
298.0382942
298.0215368
298.249921
297.1475559
297.4936054
295.9365698
297.1260038
298.4561596
)
;

boundaryField
{
    flow
    {
        type            calculated;
        value           nonuniform List<scalar> 
48
(
292.426206
294.855929
293.5861458
296.3259541
294.2665439
294.9976447
291.8631561
293.6166576
295.9724553
294.3499575
294.1110905
293.3310488
294.1812997
294.1170544
298.1496489
293.9556391
293.2128712
295.2581631
295.2581631
302.2652358
298.6128035
298.6173837
297.5077687
297.6992248
298.221969
298.9535808
298.5081269
297.8601088
298.4807962
296.9717022
297.5906812
295.8536363
295.7384528
295.2242506
296.5788667
297.1134397
295.5776197
296.29701
298.1041565
297.3540108
298.0382942
298.0215368
298.249921
297.1475559
297.4936054
295.9365698
297.1260038
298.4561596
)
;
    }
    obstacle
    {
        type            calculated;
        value           nonuniform List<scalar> 0();
    }
    frontAndBack
    {
        type            empty;
    }
    procBoundary2to0
    {
        type            processor;
        value           nonuniform List<scalar> 
31
(
294.3793123
303.8334942
299.1054415
299.7707319
299.2006619
299.8700463
300.347966
301.5167733
301.6719092
301.0333739
301.0763643
299.6924402
300.4891502
301.8883879
302.8404002
300.780496
299.8362439
301.279247
301.3986064
301.2978529
304.8671889
306.8403586
309.8073221
315.7693422
319.185584
322.3350599
298.8877095
299.8862511
301.6729844
303.7559688
303.7559688
)
;
    }
    procBoundary2to3
    {
        type            processor;
        value           nonuniform List<scalar> 
19
(
318.4094478
314.0784751
312.2951852
308.8211199
305.4026813
305.4037985
302.5623753
303.7884792
301.1136273
300.2778945
300.8260308
303.6445273
301.8129047
300.1451108
301.8306475
299.5180496
300.2452911
301.3594133
298.6232013
)
;
    }
}


// ************************************************************************* //
