/*--------------------------------*- C++ -*----------------------------------*\
| =========                 |                                                 |
| \\      /  F ield         | OpenFOAM: The Open Source CFD Toolbox           |
|  \\    /   O peration     | Version:  2406                                  |
|   \\  /    A nd           | Website:  www.openfoam.com                      |
|    \\/     M anipulation  |                                                 |
\*---------------------------------------------------------------------------*/
FoamFile
{
    version     2.0;
    format      ascii;
    arch        "LSB;label=32;scalar=64";
    class       volScalarField;
    location    "0.008";
    object      p;
}
// * * * * * * * * * * * * * * * * * * * * * * * * * * * * * * * * * * * * * //

dimensions      [1 -1 -2 0 0 0 0];

internalField   nonuniform List<scalar> 
546
(
0.3054645899
0.4179315861
0.4152553802
0.4160886069
0.4161302143
0.4139528037
0.4157581901
0.4165869337
0.4135343985
0.4146758771
0.419700772
0.4216693131
0.4181513294
0.4129835961
0.4099043547
0.4112379783
0.4116771164
0.4102854631
0.4086340156
0.4107716789
0.3099170119
0.4193459665
0.4136556751
0.4162970863
0.4183109766
0.4186334186
0.4174580406
0.4172485934
0.4150805282
0.4140169761
0.4111827786
0.4120963724
0.4152056544
0.414242056
0.4147967383
0.4106642696
0.4101447342
0.4161994706
0.4157423631
0.4150902193
0.3111166405
0.42036716
0.41059796
0.4109942907
0.4126190031
0.4144719617
0.4157044337
0.4154603157
0.4147831202
0.4174604178
0.4155285426
0.416514658
0.4128779643
0.4105011981
0.4137654317
0.4131759577
0.4112621573
0.4099338446
0.4094768477
0.4106477797
0.3141234058
0.4265509478
0.418279838
0.4124996364
0.4098439578
0.4078755629
0.4082323243
0.4082068627
0.4107253177
0.407180024
0.410877255
0.4135698851
0.4187358975
0.416891468
0.4193863626
0.4187790443
0.4162354374
0.4191167401
0.4247176314
0.4204052799
0.3101668552
0.4212645946
0.4147924991
0.4167722646
0.4144796148
0.4149112972
0.4115499126
0.4126643976
0.4131611316
0.4077506959
0.4073807066
0.4047747736
0.4068710286
0.4106349679
0.4137209938
0.420197943
0.4237947693
0.4232591185
0.4181549337
0.4179005632
0.3115087711
0.4227906138
0.4109721302
0.4093385612
0.4134225429
0.4119404472
0.4093310012
0.4106848653
0.4121743113
0.4160627994
0.4194133214
0.4154507543
0.415661932
0.4144272673
0.4162411416
0.4213578234
0.4211195265
0.4169527595
0.422415928
0.4253757755
0.3081539962
0.4157281567
0.4113848619
0.416273683
0.4127666444
0.4147553282
0.4167006529
0.4203994308
0.4160455144
0.4161064354
0.414098704
0.4167402414
0.4196234266
0.4158223732
0.415753669
0.4116970366
0.4144522027
0.4154949807
0.4159650965
0.4156195739
0.3092154051
0.4213950976
0.414918051
0.4144359487
0.4161404764
0.4148307897
0.4171952721
0.4152029556
0.4182451135
0.4183872715
0.4188188537
0.4136816852
0.4118337804
0.4126834518
0.4129362149
0.4167541734
0.41515379
0.4155853511
0.4182896379
0.4200671421
0.3117178936
0.4200138201
0.4102681379
0.4108133688
0.4102777018
0.4084062661
0.408808891
0.4126515438
0.4134733408
0.4188253666
0.4185496313
0.4225045768
0.4213966221
0.4204478925
0.4177289059
0.4140853004
0.4155464239
0.4149636143
0.4104343127
0.4109363232
0.3094647475
0.4218931853
0.4145416544
0.4132425265
0.4111649755
0.412511396
0.412131518
0.4163090691
0.4152719337
0.4108268241
0.4092265956
0.4109144215
0.4102942351
0.4154607047
0.4196752436
0.4188424787
0.4162759658
0.415431586
0.4120131212
0.4091590502
0.3140013047
0.4243203579
0.4125284547
0.4134868964
0.4155997213
0.4169764136
0.4155403984
0.4097656293
0.4109263478
0.41528303
0.4143212901
0.413125384
0.4153001024
0.4129782628
0.4060311652
0.4082064112
0.4123084011
0.4140131875
0.417658561
0.4198483358
0.3057840769
0.418984831
0.4109657009
0.4158357617
0.4126359463
0.4103989653
0.4117847919
0.4086311539
0.407861557
0.4072494192
0.4049990766
0.4087757318
0.4090123457
0.4140456634
0.4181425746
0.4145334152
0.4177326588
0.4157899023
0.4170614829
0.4150224123
0.3119044331
0.4230059453
0.4158745837
0.415200268
0.4159072798
0.4126006564
0.4119394334
0.4129379101
0.4153875436
0.4133364043
0.4145403103
0.4173378453
0.4182067514
0.4148497599
0.4122357873
0.4170818019
0.4094872467
0.4133440729
0.4140944008
0.4146772135
0.3070555749
0.4156565387
0.412435859
0.414812867
0.4142664874
0.4139261342
0.4163088441
0.4187614019
0.4196250962
0.4206175946
0.4137372134
0.4095462599
0.4058316236
0.4087491479
0.4094608435
0.4110515794
0.4128734617
0.4106064195
0.4092939801
0.4094749273
0.3172540938
0.4271695671
0.4127548345
0.4077655154
0.4133631164
0.4144362386
0.4160892648
0.4180568868
0.4154798518
0.4141846213
0.4114264882
0.4137208168
0.4153468074
0.4118878224
0.411673805
0.410419049
0.4102024046
0.4133172474
0.4149402716
0.412908783
0.3097847458
0.4189200909
0.4133424986
0.420640969
0.4212136371
0.41551218
0.4119148049
0.4077693199
0.4091468877
0.4131104784
0.4135613223
0.4130886089
0.412332341
0.4158145007
0.4177740319
0.4142849976
0.4135414382
0.4082023021
0.4077046581
0.4106512111
0.3109540794
0.4245151284
0.4172189726
0.4135254078
0.4084680965
0.4127237867
0.4162009995
0.4184680778
0.415943412
0.4199209671
0.4185946613
0.4191766678
0.4213408482
0.4166428573
0.4160765011
0.4128852105
0.4121084337
0.4119235589
0.4163315589
0.4117929064
0.3058747076
0.4090901398
0.4027296699
0.404465649
0.4014333477
0.4041378613
0.4056945421
0.4073566652
0.4074781621
0.4072734988
0.4131237273
0.4082927741
0.4087459668
0.406699882
0.4069017483
0.4079375716
0.4077376689
0.4091480755
0.4071871395
0.403717977
0.4259816602
0.4301661753
0.4290646435
0.4310386266
0.4399266891
0.4497567639
0.4146609566
0.4195401182
0.4199745642
0.4177521841
0.4234098891
0.4244326984
0.4279710475
0.4368918851
0.4319229785
0.4369681879
0.4157437355
0.4172081898
0.4196840629
0.4225814418
0.424526732
0.4245780712
0.4264774952
0.4253871728
0.4289721048
0.4374738158
0.4143099425
0.4164827161
0.4176398252
0.4122174791
0.4142518233
0.4141179805
0.4162822158
0.4192283968
0.4248922004
0.4286460499
0.4194087878
0.4215674244
0.4191042858
0.4231793717
0.42019139
0.4236745131
0.4205024539
0.4169333336
0.4181588944
0.4208747747
0.4180872905
0.4175799084
0.4163929618
0.4157917785
0.4164113843
0.4159595812
0.4248227624
0.4275076817
0.4231352441
0.4248540395
0.422047166
0.4194886507
0.4191609959
0.4212160609
0.4287443486
0.4239461098
0.4198653975
0.4190207044
0.4197941964
0.4217670376
0.4172663592
0.4173729957
0.4193815884
0.4155160864
0.4146678123
0.415620993
0.4165463865
0.4209100182
0.4181706722
0.4176748719
0.4191831917
0.4233520554
0.4163910519
0.4128325591
0.4124058211
0.4113483513
0.4117943394
0.4119456039
0.4133443136
0.4119492165
0.4064467228
0.4089934391
0.4106366075
0.4055239841
0.4106757583
0.4118367189
0.4101472447
0.4091888192
0.4127962606
0.4120851026
0.4107867062
0.4145187319
0.4180496314
0.4221123627
0.4162120533
0.4164905384
0.4196063856
0.4186640827
0.4200575472
0.415808494
0.4176843758
0.4162523723
0.4132685776
0.413498388
0.4175183226
0.4168683296
0.4134909694
0.4138732818
0.4169660532
0.4220478064
0.4171847816
0.4159054921
0.4173027566
0.4186149823
0.4140423058
0.4127167229
0.4155502359
0.4169436205
0.4172434707
0.4170301828
0.4160940579
0.4179474061
0.4224411633
0.4210385022
0.4181262556
0.4210023149
0.4194431333
0.417561987
0.4135916284
0.4110012899
0.4097947691
0.4136074434
0.4093545359
0.4160496601
0.420775045
0.415253252
0.4131070935
0.4172568697
0.4117193229
0.4100383985
0.4126490486
0.412323364
0.4139785617
0.4105594611
0.4109162744
0.4126152633
0.4093792353
0.4074085203
0.4126708478
0.4164266777
0.4081946888
0.4106639381
0.4092575615
0.4109094478
0.4114423126
0.4077480112
0.4130692237
0.4132631811
0.4149762635
0.4161751063
0.4090101393
0.4088654508
0.406769852
0.4067217128
0.4098187093
0.4146597544
0.417105572
0.4177569348
0.4216735258
0.4173299263
0.410137519
0.4053985541
0.405962931
0.4090709381
0.4056004757
0.4034840448
0.4058312494
0.4005793
0.3985876059
0.4042226621
)
;

boundaryField
{
    flow
    {
        type            calculated;
        value           nonuniform List<scalar> 
48
(
0.3054645899
0.3099170119
0.3111166405
0.3141234058
0.3101668552
0.3115087711
0.3081539962
0.3092154051
0.3117178936
0.3094647475
0.3140013047
0.3057840769
0.3119044331
0.3070555749
0.3172540938
0.3097847458
0.3109540794
0.3058747076
0.3058747076
0.4090901398
0.4027296699
0.404465649
0.4014333477
0.4041378613
0.4056945421
0.4073566652
0.4074781621
0.4072734988
0.4131237273
0.4082927741
0.4087459668
0.406699882
0.4069017483
0.4079375716
0.4077376689
0.4091480755
0.4071871395
0.403717977
0.410137519
0.4053985541
0.405962931
0.4090709381
0.4056004757
0.4034840448
0.4058312494
0.4005793
0.3985876059
0.4042226621
)
;
    }
    obstacle
    {
        type            calculated;
        value           nonuniform List<scalar> 0();
    }
    frontAndBack
    {
        type            empty;
    }
    procBoundary2to0
    {
        type            processor;
        value           nonuniform List<scalar> 
31
(
0.3104679517
0.4209641034
0.4114859481
0.4085288266
0.4085253556
0.4084805672
0.4132517395
0.4187033382
0.4227296154
0.4215126461
0.4169106756
0.4125199559
0.4162566787
0.4192297239
0.4208917363
0.4152889026
0.413397253
0.4164752721
0.4192243501
0.4198481588
0.4218240416
0.4245857126
0.4273895731
0.4444035182
0.4586770124
0.4654521098
0.4130409074
0.4161657405
0.4193221303
0.4247861336
0.4247861336
)
;
    }
    procBoundary2to3
    {
        type            processor;
        value           nonuniform List<scalar> 
19
(
0.4620024073
0.4490282637
0.4447553847
0.4387084594
0.4264703311
0.4255465304
0.4296552916
0.4186354784
0.4126495984
0.4094540972
0.4182455072
0.423114155
0.4187017429
0.4109784715
0.416080612
0.4157267067
0.4203147438
0.4177948911
0.4003918743
)
;
    }
}


// ************************************************************************* //
