/*--------------------------------*- C++ -*----------------------------------*\
| =========                 |                                                 |
| \\      /  F ield         | OpenFOAM: The Open Source CFD Toolbox           |
|  \\    /   O peration     | Version:  2406                                  |
|   \\  /    A nd           | Website:  www.openfoam.com                      |
|    \\/     M anipulation  |                                                 |
\*---------------------------------------------------------------------------*/
FoamFile
{
    version     2.0;
    format      ascii;
    arch        "LSB;label=32;scalar=64";
    class       volScalarField;
    location    "0.008";
    object      rhoMMean;
}
// * * * * * * * * * * * * * * * * * * * * * * * * * * * * * * * * * * * * * //

dimensions      [1 -3 0 0 0 0 0];

internalField   nonuniform List<scalar> 
546
(
3.706339834e-06
4.782700318e-06
4.836271903e-06
4.807566551e-06
4.808188683e-06
4.802877908e-06
4.801877852e-06
4.779115977e-06
4.759751772e-06
4.785395253e-06
4.802014067e-06
4.829339773e-06
4.81175454e-06
4.77932988e-06
4.776790479e-06
4.776320547e-06
4.787268315e-06
4.773157764e-06
4.743391485e-06
4.742857195e-06
3.723040658e-06
4.782485998e-06
4.81127836e-06
4.833866218e-06
4.846459657e-06
4.833397119e-06
4.82207351e-06
4.82549982e-06
4.797334589e-06
4.78613121e-06
4.789878739e-06
4.775855198e-06
4.794827159e-06
4.775540799e-06
4.790239428e-06
4.777737996e-06
4.778392933e-06
4.820084385e-06
4.834956199e-06
4.844666523e-06
3.704943369e-06
4.76176813e-06
4.779104573e-06
4.764313936e-06
4.766484734e-06
4.784077882e-06
4.809014721e-06
4.797892936e-06
4.802160853e-06
4.826491545e-06
4.803889784e-06
4.806363994e-06
4.787181045e-06
4.77740178e-06
4.78973211e-06
4.789800218e-06
4.765176111e-06
4.772702151e-06
4.756302812e-06
4.757223357e-06
3.719564726e-06
4.798450293e-06
4.81516752e-06
4.785460861e-06
4.787550065e-06
4.765225317e-06
4.769183001e-06
4.775046134e-06
4.798183434e-06
4.763458582e-06
4.801072538e-06
4.817086038e-06
4.855267088e-06
4.824347719e-06
4.832544265e-06
4.814944712e-06
4.800384797e-06
4.797602437e-06
4.836877217e-06
4.826240515e-06
3.728816366e-06
4.792902392e-06
4.806153267e-06
4.808486679e-06
4.799878989e-06
4.804926654e-06
4.776566422e-06
4.78934195e-06
4.769591907e-06
4.725130331e-06
4.725212341e-06
4.711414523e-06
4.712282946e-06
4.740690719e-06
4.777317271e-06
4.806728432e-06
4.831734628e-06
4.831597164e-06
4.79970846e-06
4.796184571e-06
3.7210721e-06
4.782599407e-06
4.793174822e-06
4.795598992e-06
4.814600009e-06
4.818528221e-06
4.80068321e-06
4.794148322e-06
4.823586716e-06
4.842037457e-06
4.863280972e-06
4.835212904e-06
4.822288664e-06
4.796213887e-06
4.795194929e-06
4.826769234e-06
4.81456205e-06
4.789240622e-06
4.827642396e-06
4.838131218e-06
3.714185427e-06
4.762994899e-06
4.800622341e-06
4.82213412e-06
4.798303247e-06
4.80747371e-06
4.817914159e-06
4.839185896e-06
4.805258861e-06
4.826958561e-06
4.823689867e-06
4.852709202e-06
4.87571237e-06
4.852935342e-06
4.844412161e-06
4.809775568e-06
4.837495184e-06
4.811800414e-06
4.812222805e-06
4.811693931e-06
3.716715925e-06
4.795773843e-06
4.825345536e-06
4.812514554e-06
4.823340425e-06
4.822138285e-06
4.827883272e-06
4.812339286e-06
4.847458464e-06
4.817004861e-06
4.818062871e-06
4.788975013e-06
4.778440473e-06
4.784425501e-06
4.790150753e-06
4.817217515e-06
4.800618435e-06
4.825229889e-06
4.847967448e-06
4.85251446e-06
3.718704634e-06
4.781957123e-06
4.781003774e-06
4.792639699e-06
4.790908684e-06
4.758229662e-06
4.767995857e-06
4.795926044e-06
4.773053936e-06
4.825931532e-06
4.838918048e-06
4.856153163e-06
4.839975225e-06
4.838332052e-06
4.821215084e-06
4.783122294e-06
4.795151711e-06
4.785935791e-06
4.757973217e-06
4.750950329e-06
3.706391956e-06
4.754618764e-06
4.775091435e-06
4.79439378e-06
4.767072656e-06
4.795280272e-06
4.793428611e-06
4.812725541e-06
4.788722317e-06
4.757026533e-06
4.745530989e-06
4.74896313e-06
4.776398652e-06
4.79377623e-06
4.811633061e-06
4.827608759e-06
4.807170975e-06
4.783511204e-06
4.774310854e-06
4.756812213e-06
3.729940401e-06
4.79248125e-06
4.798566774e-06
4.794811746e-06
4.79842306e-06
4.783881214e-06
4.803265986e-06
4.765912225e-06
4.791648546e-06
4.825767251e-06
4.817171798e-06
4.815408812e-06
4.81329904e-06
4.800264984e-06
4.753643598e-06
4.758194359e-06
4.771471373e-06
4.813423019e-06
4.842144357e-06
4.857000185e-06
3.696119692e-06
4.789065354e-06
4.809001652e-06
4.810663309e-06
4.794424085e-06
4.777650987e-06
4.789067437e-06
4.759968591e-06
4.756158109e-06
4.741751228e-06
4.720806543e-06
4.755824809e-06
4.749774172e-06
4.779375337e-06
4.815932948e-06
4.792567842e-06
4.823611606e-06
4.78513131e-06
4.793495052e-06
4.783304382e-06
3.724843113e-06
4.79653469e-06
4.835253362e-06
4.819158684e-06
4.817415017e-06
4.800717681e-06
4.781919737e-06
4.794579618e-06
4.810508193e-06
4.80715249e-06
4.801213335e-06
4.814930809e-06
4.813117368e-06
4.800322938e-06
4.77880616e-06
4.806912447e-06
4.744726924e-06
4.779014648e-06
4.785114908e-06
4.771987595e-06
3.699038267e-06
4.730363834e-06
4.770204041e-06
4.772280176e-06
4.779744513e-06
4.787113771e-06
4.797997596e-06
4.814011514e-06
4.808493917e-06
4.811591925e-06
4.780452249e-06
4.746659762e-06
4.722008423e-06
4.742303743e-06
4.742508899e-06
4.771825397e-06
4.779506554e-06
4.774011607e-06
4.770674806e-06
4.7798058e-06
3.745456997e-06
4.804540816e-06
4.797880283e-06
4.75776223e-06
4.789478582e-06
4.777030938e-06
4.778994081e-06
4.786548343e-06
4.771070382e-06
4.747877211e-06
4.747086476e-06
4.773782968e-06
4.801996832e-06
4.777324769e-06
4.793615282e-06
4.77610706e-06
4.762562354e-06
4.77368164e-06
4.798185517e-06
4.811385937e-06
3.698559432e-06
4.766156277e-06
4.798836965e-06
4.826536429e-06
4.847582026e-06
4.811638216e-06
4.775140224e-06
4.764954137e-06
4.781486359e-06
4.801109091e-06
4.799413796e-06
4.786776149e-06
4.781638559e-06
4.795593161e-06
4.826378397e-06
4.817465056e-06
4.815612562e-06
4.78321654e-06
4.757845906e-06
4.756981232e-06
3.729283798e-06
4.82980429e-06
4.844999406e-06
4.824598592e-06
4.774832491e-06
4.825865091e-06
4.85791266e-06
4.876236506e-06
4.848277264e-06
4.869116456e-06
4.85312144e-06
4.843817261e-06
4.861383177e-06
4.823975627e-06
4.811747042e-06
4.79031519e-06
4.798805983e-06
4.78542764e-06
4.816453752e-06
4.80304901e-06
3.642823037e-06
4.669688601e-06
4.703927535e-06
4.740414956e-06
4.735654041e-06
4.741983773e-06
4.745964524e-06
4.747639667e-06
4.747265076e-06
4.744375139e-06
4.791619908e-06
4.780384974e-06
4.774348656e-06
4.772484343e-06
4.772915222e-06
4.775842961e-06
4.766347946e-06
4.769942442e-06
4.780870058e-06
4.75402902e-06
4.84679638e-06
4.848472707e-06
4.862131716e-06
4.86005987e-06
4.856965694e-06
4.879988528e-06
4.758529585e-06
4.779971487e-06
4.802600623e-06
4.769774225e-06
4.811655915e-06
4.843776708e-06
4.866871814e-06
4.883548712e-06
4.850351296e-06
4.836475045e-06
4.844893323e-06
4.858852744e-06
4.874687209e-06
4.878394686e-06
4.847688027e-06
4.827701252e-06
4.833738932e-06
4.820967227e-06
4.835740521e-06
4.877479515e-06
4.778293598e-06
4.775101697e-06
4.776739085e-06
4.752462982e-06
4.786403067e-06
4.7678313e-06
4.77408438e-06
4.795590614e-06
4.804991744e-06
4.832236346e-06
4.834644849e-06
4.832646123e-06
4.805262091e-06
4.847733027e-06
4.831110103e-06
4.827894309e-06
4.800171427e-06
4.788500963e-06
4.767069316e-06
4.791533902e-06
4.794536431e-06
4.789635322e-06
4.783667261e-06
4.769320003e-06
4.778036809e-06
4.771360428e-06
4.81259657e-06
4.850963705e-06
4.813637589e-06
4.80094632e-06
4.819699655e-06
4.802971571e-06
4.817903652e-06
4.824483096e-06
4.875755735e-06
4.867660392e-06
4.827406805e-06
4.815299424e-06
4.846242282e-06
4.859575104e-06
4.817787324e-06
4.812580509e-06
4.807578776e-06
4.812176371e-06
4.792879863e-06
4.808115539e-06
4.82141506e-06
4.819344868e-06
4.785027216e-06
4.772488363e-06
4.87107224e-06
4.885051178e-06
4.847259932e-06
4.80161504e-06
4.765624252e-06
4.760692758e-06
4.763143797e-06
4.754610737e-06
4.746774446e-06
4.749385332e-06
4.719341215e-06
4.716113427e-06
4.715388719e-06
4.710185298e-06
4.750565203e-06
4.756065988e-06
4.765689617e-06
4.729524922e-06
4.755336295e-06
4.771611066e-06
4.752211999e-06
4.78985023e-06
4.811612042e-06
4.828046215e-06
4.812412679e-06
4.803264462e-06
4.830939071e-06
4.826399131e-06
4.837518555e-06
4.791231744e-06
4.847322746e-06
4.83125478e-06
4.800363829e-06
4.795269129e-06
4.821499371e-06
4.813490734e-06
4.783554755e-06
4.774779875e-06
4.810222898e-06
4.820672672e-06
4.808325282e-06
4.806331255e-06
4.821998784e-06
4.810664307e-06
4.76326542e-06
4.762412769e-06
4.78386628e-06
4.815708594e-06
4.821287298e-06
4.826727342e-06
4.759970611e-06
4.78007119e-06
4.787232835e-06
4.797946592e-06
4.796591419e-06
4.821361202e-06
4.809442173e-06
4.807203191e-06
4.786346562e-06
4.781301054e-06
4.790366093e-06
4.829803812e-06
4.803578357e-06
4.837549897e-06
4.858621109e-06
4.84519445e-06
4.829752829e-06
4.831767355e-06
4.812664779e-06
4.77553096e-06
4.792373559e-06
4.787374743e-06
4.791168906e-06
4.780730862e-06
4.786206142e-06
4.772969367e-06
4.747550069e-06
4.754984764e-06
4.795174038e-06
4.82263121e-06
4.754568506e-06
4.768916506e-06
4.774154542e-06
4.778876532e-06
4.784637488e-06
4.768951969e-06
4.804191388e-06
4.794724111e-06
4.808343456e-06
4.819665481e-06
4.779961566e-06
4.775781732e-06
4.771964422e-06
4.75720217e-06
4.779272365e-06
4.80801781e-06
4.81162575e-06
4.833324553e-06
4.850080838e-06
4.822008634e-06
4.781437185e-06
4.752600992e-06
4.75141125e-06
4.785278831e-06
4.737765933e-06
4.734839253e-06
4.755125562e-06
4.710756491e-06
4.685027508e-06
4.713056756e-06
)
;

boundaryField
{
    flow
    {
        type            calculated;
        value           nonuniform List<scalar> 
48
(
3.706339834e-06
3.723040658e-06
3.704943369e-06
3.719564726e-06
3.728816366e-06
3.7210721e-06
3.714185427e-06
3.716715925e-06
3.718704634e-06
3.706391956e-06
3.729940401e-06
3.696119692e-06
3.724843113e-06
3.699038267e-06
3.745456997e-06
3.698559432e-06
3.729283798e-06
3.642823037e-06
3.642823037e-06
4.669688601e-06
4.703927535e-06
4.740414956e-06
4.735654041e-06
4.741983773e-06
4.745964524e-06
4.747639667e-06
4.747265076e-06
4.744375139e-06
4.791619908e-06
4.780384974e-06
4.774348656e-06
4.772484343e-06
4.772915222e-06
4.775842961e-06
4.766347946e-06
4.769942442e-06
4.780870058e-06
4.75402902e-06
4.781437185e-06
4.752600992e-06
4.75141125e-06
4.785278831e-06
4.737765933e-06
4.734839253e-06
4.755125562e-06
4.710756491e-06
4.685027508e-06
4.713056756e-06
)
;
    }
    obstacle
    {
        type            calculated;
        value           nonuniform List<scalar> 0();
    }
    frontAndBack
    {
        type            empty;
    }
    procBoundary2to0
    {
        type            processor;
        value           nonuniform List<scalar> 
31
(
3.710537144e-06
4.763762411e-06
4.784149322e-06
4.748506841e-06
4.760943498e-06
4.750979384e-06
4.802614382e-06
4.831653035e-06
4.865513629e-06
4.862017129e-06
4.82414298e-06
4.799359175e-06
4.80217085e-06
4.825493571e-06
4.820702351e-06
4.803496708e-06
4.801093522e-06
4.791101603e-06
4.818601744e-06
4.817824078e-06
4.773708737e-06
4.754618727e-06
4.746277846e-06
4.787219683e-06
4.862614799e-06
4.871795818e-06
4.81198734e-06
4.803854927e-06
4.808995361e-06
4.841210109e-06
4.841210109e-06
)
;
    }
    procBoundary2to3
    {
        type            processor;
        value           nonuniform List<scalar> 
19
(
4.898383286e-06
4.854099044e-06
4.872923703e-06
4.847469882e-06
4.784721361e-06
4.779461935e-06
4.894103718e-06
4.769829737e-06
4.75936357e-06
4.748890606e-06
4.809304711e-06
4.810255551e-06
4.832037377e-06
4.787093353e-06
4.803831862e-06
4.802027041e-06
4.851710563e-06
4.826581094e-06
4.679539731e-06
)
;
    }
}


// ************************************************************************* //
