/*--------------------------------*- C++ -*----------------------------------*\
| =========                 |                                                 |
| \\      /  F ield         | OpenFOAM: The Open Source CFD Toolbox           |
|  \\    /   O peration     | Version:  2406                                  |
|   \\  /    A nd           | Website:  www.openfoam.com                      |
|    \\/     M anipulation  |                                                 |
\*---------------------------------------------------------------------------*/
FoamFile
{
    version     2.0;
    format      ascii;
    arch        "LSB;label=32;scalar=64";
    class       volScalarField;
    location    "0.008";
    object      rhoM;
}
// * * * * * * * * * * * * * * * * * * * * * * * * * * * * * * * * * * * * * //

dimensions      [1 -3 0 0 0 0 0];

internalField   nonuniform List<scalar> 
546
(
3.874007286e-06
5.602522687e-06
4.080829287e-06
5.464641352e-06
7.055275419e-06
3.596578377e-06
3.458697042e-06
3.874007286e-06
4.427198864e-06
4.01188862e-06
4.980390442e-06
3.52763771e-06
4.565080198e-06
3.942947953e-06
2.974446132e-06
4.980390442e-06
3.942947953e-06
5.049331109e-06
2.905505464e-06
5.464641352e-06
3.043386799e-06
5.464641352e-06
7.401644995e-06
4.080829287e-06
5.948892263e-06
3.942947953e-06
2.421254554e-06
3.112327466e-06
6.986334752e-06
3.458697042e-06
5.395700685e-06
4.427198864e-06
2.559135888e-06
4.634020865e-06
3.942947953e-06
3.52763771e-06
5.464641352e-06
4.980390442e-06
3.942947953e-06
6.01783293e-06
2.974446132e-06
6.086773598e-06
4.911449774e-06
4.080829287e-06
4.565080198e-06
4.01188862e-06
4.496139531e-06
6.502083841e-06
4.911449774e-06
7.815288999e-06
7.815288999e-06
4.911449774e-06
4.980390442e-06
2.421254554e-06
3.458697042e-06
7.53952633e-06
4.427198864e-06
5.53358202e-06
3.458697042e-06
5.395700685e-06
4.01188862e-06
2.490195221e-06
6.433143174e-06
2.974446132e-06
3.112327466e-06
6.502083841e-06
4.911449774e-06
5.395700685e-06
6.639965176e-06
5.53358202e-06
5.325093778e-06
5.395700685e-06
4.565080198e-06
7.401644995e-06
7.53952633e-06
5.948892263e-06
6.571024508e-06
4.496139531e-06
4.427198864e-06
4.911449774e-06
3.043386799e-06
4.01188862e-06
7.401644995e-06
6.01783293e-06
4.01188862e-06
6.01783293e-06
7.608466997e-06
3.389756375e-06
3.043386799e-06
6.01783293e-06
5.464641352e-06
2.00594431e-06
3.52763771e-06
6.01783293e-06
5.53358202e-06
5.464641352e-06
4.565080198e-06
4.427198864e-06
4.080829287e-06
3.52763771e-06
2.974446132e-06
5.948892263e-06
4.980390442e-06
3.874007286e-06
5.395700685e-06
3.52763771e-06
3.043386799e-06
4.980390442e-06
4.01188862e-06
3.389756375e-06
6.708905843e-06
1.452752732e-06
6.086773598e-06
6.571024508e-06
3.52763771e-06
7.055275419e-06
5.948892263e-06
2.421254554e-06
4.634020865e-06
4.980390442e-06
3.52763771e-06
5.53358202e-06
3.458697042e-06
4.496139531e-06
4.565080198e-06
4.980390442e-06
2.421254554e-06
5.740404021e-06
7.332704328e-06
4.496139531e-06
1.937003643e-06
2.974446132e-06
7.53952633e-06
2.974446132e-06
1.521693399e-06
5.53358202e-06
3.874007286e-06
1.521693399e-06
2.974446132e-06
2.490195221e-06
2.00594431e-06
6.433143174e-06
4.980390442e-06
5.049331109e-06
2.559135888e-06
6.433143174e-06
5.049331109e-06
4.358258196e-06
4.427198864e-06
5.326760018e-06
4.01188862e-06
6.295261839e-06
6.01783293e-06
5.049331109e-06
4.911449774e-06
4.496139531e-06
5.948892263e-06
4.080829287e-06
5.049331109e-06
5.395700685e-06
2.974446132e-06
6.502083841e-06
5.118271776e-06
3.458697042e-06
2.421254554e-06
1.058291313e-05
3.043386799e-06
4.427198864e-06
3.458697042e-06
2.421254554e-06
5.879951596e-06
5.53358202e-06
5.53358202e-06
4.496139531e-06
2.00594431e-06
4.080829287e-06
4.496139531e-06
6.502083841e-06
4.565080198e-06
5.118271776e-06
4.01188862e-06
3.52763771e-06
4.427198864e-06
5.602522687e-06
5.395700685e-06
5.049331109e-06
4.427198864e-06
4.080829287e-06
6.917394084e-06
2.697017223e-06
5.464641352e-06
2.490195221e-06
5.118271776e-06
3.043386799e-06
5.948892263e-06
3.458697042e-06
4.01188862e-06
3.52763771e-06
5.395700685e-06
4.565080198e-06
2.074884977e-06
7.401644995e-06
5.464641352e-06
4.496139531e-06
3.458697042e-06
4.080829287e-06
4.427198864e-06
6.986334752e-06
5.464641352e-06
3.942947953e-06
5.53358202e-06
6.639965176e-06
6.502083841e-06
5.53358202e-06
7.608466997e-06
4.496139531e-06
6.502083841e-06
4.980390442e-06
4.565080198e-06
2.974446132e-06
3.458697042e-06
5.118271776e-06
4.01188862e-06
3.458697042e-06
5.395700685e-06
4.496139531e-06
4.080829287e-06
5.53358202e-06
3.874007286e-06
4.634020865e-06
4.427198864e-06
3.942947953e-06
4.496139531e-06
5.049331109e-06
3.942947953e-06
7.263763661e-06
4.980390442e-06
4.427198864e-06
6.639965176e-06
4.565080198e-06
3.458697042e-06
3.942947953e-06
5.395700685e-06
5.118271776e-06
6.01783293e-06
3.874007286e-06
5.187212443e-06
6.01783293e-06
6.917394084e-06
4.980390442e-06
8.923338395e-06
1.521693399e-06
6.502083841e-06
3.874007286e-06
5.118271776e-06
4.358258196e-06
5.049331109e-06
6.293595599e-06
3.389756375e-06
1.452752732e-06
4.427198864e-06
4.080829287e-06
2.421254554e-06
4.980390442e-06
4.01188862e-06
8.508028151e-06
3.874007286e-06
5.602522687e-06
7.954836573e-06
3.043386799e-06
1.937003643e-06
5.602522687e-06
5.395700685e-06
1.590634067e-06
4.980390442e-06
1.937003643e-06
2.490195221e-06
4.496139531e-06
2.490195221e-06
6.364202506e-06
2.421254554e-06
4.980390442e-06
4.634020865e-06
7.885895906e-06
6.433143174e-06
2.421254554e-06
3.043386799e-06
3.596578377e-06
2.974446132e-06
5.049331109e-06
7.954836573e-06
7.401644995e-06
5.049331109e-06
6.433143174e-06
4.911449774e-06
4.496139531e-06
5.53358202e-06
6.917394084e-06
6.433143174e-06
4.080829287e-06
3.112327466e-06
6.01783293e-06
5.948892263e-06
4.565080198e-06
2.00594431e-06
8.092717908e-06
3.52763771e-06
8.508028151e-06
3.043386799e-06
3.250208801e-06
7.53952633e-06
2.00594431e-06
3.942947953e-06
1.937003643e-06
7.470585662e-06
3.389756375e-06
3.52763771e-06
5.049331109e-06
4.565080198e-06
3.389756375e-06
4.01188862e-06
3.52763771e-06
3.389756375e-06
6.433143174e-06
4.911449774e-06
5.879951596e-06
2.490195221e-06
4.358258196e-06
9.685018214e-07
6.571024508e-06
4.634020865e-06
3.043386799e-06
5.395700685e-06
2.905505464e-06
4.980390442e-06
4.634020865e-06
2.974446132e-06
4.427198864e-06
4.427198864e-06
6.01783293e-06
3.458697042e-06
3.52763771e-06
6.77784651e-06
5.464641352e-06
5.948892263e-06
4.980390442e-06
1.521693399e-06
4.911449774e-06
5.948892263e-06
2.905505464e-06
8.645909486e-06
6.086773598e-06
3.389756375e-06
4.218710622e-06
4.496139531e-06
4.980390442e-06
6.01783293e-06
5.118271776e-06
2.974446132e-06
6.571024508e-06
3.568440103e-06
1.72433884e-06
6.152918556e-06
6.707413041e-06
4.405153714e-06
5.472793145e-06
5.136422471e-06
5.661050839e-06
4.926975987e-06
4.535826328e-06
4.567672097e-06
7.762121674e-06
5.718328266e-06
3.717877166e-06
4.846022808e-06
3.771982481e-06
5.484020399e-06
5.032419334e-06
6.475211968e-06
3.047428293e-06
5.138416185e-06
5.677896391e-06
4.125992774e-06
5.321632883e-06
4.846022842e-06
3.106757727e-06
6.386771589e-06
5.171741081e-06
5.63010314e-06
2.976796071e-06
3.139952234e-06
4.599968169e-06
5.067314563e-06
4.738608664e-06
5.360075323e-06
3.106757705e-06
6.732697332e-06
3.494829161e-06
8.163734319e-06
6.732253755e-06
4.49654397e-06
3.162153504e-06
5.283737897e-06
3.71787714e-06
6.093678009e-06
4.363491336e-06
6.594327035e-06
8.037938706e-06
5.700246325e-06
3.047428314e-06
4.0680561e-06
4.671599213e-06
6.369341969e-06
3.134852936e-06
5.140525189e-06
3.845698382e-06
3.054179423e-06
4.893097588e-06
4.011723974e-06
6.520357042e-06
7.136880207e-06
4.025188584e-06
5.355879057e-06
4.155584379e-06
6.388180399e-06
4.216059566e-06
3.956930677e-06
3.005519426e-06
3.519026376e-06
6.16548885e-06
7.06575208e-06
5.174747783e-06
9.409730707e-06
7.363095812e-06
3.671550997e-06
5.915088546e-07
7.080295222e-06
4.543109575e-06
6.333230337e-06
7.583254673e-06
4.70992835e-06
4.599968169e-06
4.777006444e-06
7.290437293e-06
3.671551023e-06
2.662680672e-06
5.553205511e-06
4.473448672e-06
5.559959918e-06
3.047428272e-06
5.209544311e-06
6.324307053e-06
5.718328306e-06
4.665950144e-06
4.258786933e-06
3.771982481e-06
6.177543995e-06
4.612770449e-06
2.46348801e-06
5.173223487e-06
4.638800255e-06
5.677896391e-06
3.184670963e-06
6.342364303e-06
3.157498482e-06
5.843154299e-06
4.373713719e-06
4.962758461e-06
6.052657554e-06
5.598723946e-06
5.638032217e-06
8.336901287e-06
4.198133897e-06
5.614023096e-06
4.772839451e-06
4.437207236e-06
1.457904563e-06
4.612770417e-06
3.519026352e-06
5.243855673e-06
3.996927973e-06
5.103116739e-06
5.283737897e-06
4.665950111e-06
4.405153714e-06
2.144887718e-06
5.96998855e-06
6.011038852e-06
6.545355197e-06
3.472928773e-06
3.63956823e-06
4.74323029e-06
6.659650102e-06
3.645218672e-06
3.671550997e-06
5.990586057e-06
3.956930651e-06
3.075180278e-06
2.67391753e-06
2.551295614e-06
2.640336237e-06
5.389640914e-06
3.11252984e-06
7.217778723e-06
3.671550997e-06
3.25418955e-06
2.499026087e-06
4.12346069e-06
1.478092806e-06
3.969061428e-06
4.709928318e-06
4.240081687e-06
8.324126671e-06
3.645218672e-06
4.699656061e-06
5.399077245e-06
2.499026104e-06
7.128980116e-06
5.48981677e-06
3.543560996e-06
3.63956823e-06
5.677896352e-06
6.225059679e-06
5.904657134e-06
3.744734414e-06
6.582094954e-06
5.900803402e-06
3.984138943e-06
5.559959955e-06
5.528091685e-06
4.70992835e-06
5.318009907e-06
5.067314598e-06
2.697145701e-06
3.084315091e-06
4.80756839e-06
4.095300947e-06
5.102080173e-06
5.137405542e-06
6.590989309e-06
7.350264587e-06
4.0968196e-06
5.35587902e-06
3.062194395e-06
3.744734414e-06
6.287231354e-06
)
;

boundaryField
{
    flow
    {
        type            zeroGradient;
    }
    obstacle
    {
        type            calculated;
        value           nonuniform List<scalar> 0();
    }
    frontAndBack
    {
        type            empty;
    }
    procBoundary2to0
    {
        type            processor;
        value           nonuniform List<scalar> 
31
(
3.458697042e-06
3.043386799e-06
6.917394084e-06
6.639965176e-06
4.496139531e-06
6.502083841e-06
5.53358202e-06
3.665519044e-06
5.948892263e-06
5.879951596e-06
3.596578377e-06
2.490195221e-06
4.427198864e-06
2.00594431e-06
3.942947953e-06
6.502083841e-06
3.389756375e-06
5.809344689e-06
6.295261839e-06
4.496139531e-06
3.996927973e-06
3.090522461e-06
2.533657282e-06
4.738608664e-06
9.104809775e-06
5.546509045e-06
7.149480371e-06
2.096560767e-06
5.700246325e-06
3.543560996e-06
3.543560996e-06
)
;
    }
    procBoundary2to3
    {
        type            processor;
        value           nonuniform List<scalar> 
19
(
8.343616849e-06
4.842806435e-06
5.811726706e-06
3.203785551e-06
3.278041767e-06
4.321218243e-06
4.84280647e-06
5.364394658e-06
4.321218243e-06
7.97233577e-06
4.768550219e-06
6.108751571e-06
6.034495312e-06
8.269360634e-06
3.203785597e-06
4.172705781e-06
2.682197329e-06
7.151928024e-06
4.246961997e-06
)
;
    }
}


// ************************************************************************* //
