/*--------------------------------*- C++ -*----------------------------------*\
| =========                 |                                                 |
| \\      /  F ield         | OpenFOAM: The Open Source CFD Toolbox           |
|  \\    /   O peration     | Version:  2406                                  |
|   \\  /    A nd           | Website:  www.openfoam.com                      |
|    \\/     M anipulation  |                                                 |
\*---------------------------------------------------------------------------*/
FoamFile
{
    version     2.0;
    format      ascii;
    arch        "LSB;label=32;scalar=64";
    class       volScalarField;
    location    "0.008";
    object      rhoNMean;
}
// * * * * * * * * * * * * * * * * * * * * * * * * * * * * * * * * * * * * * //

dimensions      [0 -3 0 0 0 0 0];

internalField   nonuniform List<scalar> 
546
(
7.725624475e+19
9.970622111e+19
1.008127084e+20
1.002191105e+20
1.002295245e+20
1.0010716e+20
1.001045565e+20
9.960208113e+19
9.92219702e+19
9.974527361e+19
1.000941425e+20
1.006825334e+20
1.00325854e+20
9.964634063e+19
9.960989163e+19
9.958125314e+19
9.981817159e+19
9.952657965e+19
9.887310127e+19
9.887310127e+19
7.757907869e+19
9.965935812e+19
1.00258163e+20
1.007502244e+20
1.010392129e+20
1.007267929e+20
1.005107025e+20
1.005966179e+20
1.000394691e+20
9.982077509e+19
9.986763808e+19
9.958125314e+19
9.998739906e+19
9.955521814e+19
9.985982759e+19
9.960728813e+19
9.960728813e+19
1.00466443e+20
1.007762594e+20
1.009272624e+20
7.725364125e+19
9.932871368e+19
9.963853013e+19
9.929747169e+19
9.929226469e+19
9.969841062e+19
1.00221714e+20
9.997438156e+19
1.000420726e+20
1.005471515e+20
1.00075918e+20
1.001357985e+20
9.970361761e+19
9.955261464e+19
9.981296459e+19
9.98077576e+19
9.930007519e+19
9.947971666e+19
9.910220923e+19
9.914646872e+19
7.750618071e+19
1.000108306e+20
1.003284575e+20
9.972444561e+19
9.974787711e+19
9.928445419e+19
9.935214518e+19
9.947971666e+19
9.995876057e+19
9.92297807e+19
1.000264516e+20
1.00362303e+20
1.011485598e+20
1.005054955e+20
1.006747229e+20
1.00336268e+20
1.000368656e+20
9.999000256e+19
1.008257259e+20
1.005940145e+20
7.769883967e+19
9.991450108e+19
1.002191105e+20
1.002607665e+20
1.0010716e+20
1.00200886e+20
9.960989163e+19
9.985201709e+19
9.943025017e+19
9.849299034e+19
9.846695534e+19
9.819098439e+19
9.823264039e+19
9.879759978e+19
9.956302864e+19
1.001514195e+20
1.006773264e+20
1.006799299e+20
1.000108306e+20
9.996136407e+19
7.75556472e+19
9.972184211e+19
9.989367308e+19
9.996396757e+19
1.00336268e+20
1.00435201e+20
1.00070711e+20
9.994574307e+19
1.005966179e+20
1.009767289e+20
1.014687903e+20
1.008725889e+20
1.005627725e+20
1.000368656e+20
1.000238481e+20
1.006669124e+20
1.004221835e+20
9.986503458e+19
1.006304634e+20
1.007996909e+20
7.738641973e+19
9.92401947e+19
1.000134341e+20
1.004586325e+20
9.995355357e+19
1.001774545e+20
1.0036751e+20
1.008205189e+20
1.00122781e+20
1.005575655e+20
1.00487271e+20
1.011043004e+20
1.016067758e+20
1.011173179e+20
1.009532974e+20
1.00237335e+20
1.008101049e+20
1.00289405e+20
1.003440785e+20
1.00377924e+20
7.747493871e+19
9.997958856e+19
1.006018249e+20
1.00336268e+20
1.00565376e+20
1.004846675e+20
1.006278599e+20
1.003180435e+20
1.010340059e+20
1.00393545e+20
1.00435201e+20
9.982077509e+19
9.958125314e+19
9.971663511e+19
9.984420659e+19
1.00429994e+20
1.00096746e+20
1.006330669e+20
1.010912829e+20
1.011798018e+20
7.751659471e+19
9.969320362e+19
9.965935812e+19
9.988846608e+19
9.984160309e+19
9.918812471e+19
9.936516268e+19
9.996136407e+19
9.952397615e+19
1.006018249e+20
1.008699854e+20
1.011928193e+20
1.009064344e+20
1.008699854e+20
1.005315305e+20
9.97582911e+19
9.996917457e+19
9.97843261e+19
9.920114221e+19
9.904232874e+19
7.725884825e+19
9.913345122e+19
9.954740764e+19
9.997177807e+19
9.941202567e+19
1.000186411e+20
9.997177807e+19
1.00362303e+20
9.985722409e+19
9.920895271e+19
9.899546575e+19
9.911783022e+19
9.963853013e+19
9.999000256e+19
1.00320647e+20
1.006356704e+20
1.002243175e+20
9.971142811e+19
9.951616565e+19
9.916208971e+19
7.772227117e+19
9.986763808e+19
9.998479556e+19
9.989106958e+19
9.994834657e+19
9.965415112e+19
1.0005509e+20
9.926883319e+19
9.983379259e+19
1.00544548e+20
1.003596995e+20
1.003284575e+20
1.00284198e+20
1.000420726e+20
9.907096723e+19
9.918291771e+19
9.943545716e+19
1.00305026e+20
1.008908134e+20
1.012084403e+20
7.704275779e+19
9.984681009e+19
1.00247749e+20
1.002920085e+20
9.994574307e+19
9.960208113e+19
9.985982759e+19
9.928445419e+19
9.916729671e+19
9.885487677e+19
9.839926436e+19
9.913084772e+19
9.901629374e+19
9.960728813e+19
1.00372717e+20
9.987024158e+19
1.005367375e+20
9.971142811e+19
9.995615707e+19
9.971142811e+19
7.764156268e+19
9.999520956e+19
1.008022944e+20
1.00497685e+20
1.004794605e+20
1.00070711e+20
9.967497912e+19
9.994834657e+19
1.002920085e+20
1.00216507e+20
1.000446761e+20
1.00357096e+20
1.003336645e+20
1.00081125e+20
9.960468463e+19
1.002243175e+20
9.892517126e+19
9.961509863e+19
9.971663511e+19
9.943025017e+19
7.707920679e+19
9.856328482e+19
9.937818017e+19
9.942764667e+19
9.954480414e+19
9.971403161e+19
9.998219206e+19
1.00320647e+20
1.001982825e+20
1.00278991e+20
9.965935812e+19
9.894079226e+19
9.837062586e+19
9.875334029e+19
9.874292629e+19
9.938599067e+19
9.956563214e+19
9.947711316e+19
9.941202567e+19
9.960468463e+19
7.80763471e+19
1.0015923e+20
1.000030201e+20
9.917510721e+19
9.984420659e+19
9.960468463e+19
9.959427063e+19
9.973485961e+19
9.940681867e+19
9.890173976e+19
9.891475726e+19
9.944847466e+19
1.000941425e+20
9.960989163e+19
9.995355357e+19
9.953959714e+19
9.92297807e+19
9.946149216e+19
9.997177807e+19
1.00284198e+20
7.710263828e+19
9.939380117e+19
1.000576935e+20
1.006122389e+20
1.010522304e+20
1.002451455e+20
9.952918315e+19
9.931309269e+19
9.965935812e+19
1.000394691e+20
1.000004166e+20
9.97582911e+19
9.964113363e+19
9.992751857e+19
1.005940145e+20
1.004690465e+20
1.004169765e+20
9.970101412e+19
9.915948621e+19
9.914126172e+19
7.771185717e+19
1.006773264e+20
1.009611079e+20
1.00565376e+20
9.954480414e+19
1.006174459e+20
1.013099768e+20
1.016510353e+20
1.010886794e+20
1.015312743e+20
1.012032333e+20
1.010053674e+20
1.013490293e+20
1.00549755e+20
1.00278991e+20
9.97947401e+19
9.997177807e+19
9.973225611e+19
1.003961485e+20
1.000993495e+20
7.59310635e+19
9.733182955e+19
9.803998142e+19
9.879759978e+19
9.866482131e+19
9.880020328e+19
9.890434326e+19
9.892517126e+19
9.895380975e+19
9.888091177e+19
9.987024158e+19
9.966977212e+19
9.953699365e+19
9.951876915e+19
9.951876915e+19
9.961249513e+19
9.940681867e+19
9.946669916e+19
9.968539312e+19
9.911001972e+19
1.010325617e+20
1.010679401e+20
1.013381175e+20
1.012938784e+20
1.012213629e+20
1.016795036e+20
9.918976495e+19
9.95876894e+19
1.000758886e+20
9.942392181e+19
1.002347878e+20
1.0092998e+20
1.014307465e+20
1.017603417e+20
1.010472476e+20
1.007413518e+20
1.009402962e+20
1.012687052e+20
1.015910661e+20
1.016671884e+20
1.010486777e+20
1.006297146e+20
1.007414827e+20
1.004844274e+20
1.0075153e+20
1.016628006e+20
9.958690024e+19
9.951929126e+19
9.955140405e+19
9.905315599e+19
9.977546342e+19
9.937184248e+19
9.954003881e+19
1.000261965e+20
1.002208944e+20
1.007413511e+20
1.007756934e+20
1.007451957e+20
1.001606538e+20
1.01069696e+20
1.006833678e+20
1.00605368e+20
1.000413208e+20
9.976552439e+19
9.933650298e+19
9.986444438e+19
9.992132996e+19
9.979551384e+19
9.967060508e+19
9.934390109e+19
9.949879434e+19
9.937995778e+19
1.002592706e+20
1.010935743e+20
1.002844607e+20
1.000648804e+20
1.004438764e+20
1.000980447e+20
1.004785232e+20
1.006642535e+20
1.01763183e+20
1.015683843e+20
1.007305853e+20
1.004816835e+20
1.010942317e+20
1.013704988e+20
1.004909063e+20
1.003979443e+20
1.002825037e+20
1.003388338e+20
9.99124549e+19
1.002158336e+20
1.004799439e+20
1.004487566e+20
9.974000657e+19
9.946635625e+19
1.015412239e+20
1.018500894e+20
1.010347954e+20
1.001067718e+20
9.938329172e+19
9.930150988e+19
9.935750582e+19
9.911522036e+19
9.896340105e+19
9.904878129e+19
9.835630338e+19
9.83039083e+19
9.828257462e+19
9.814357875e+19
9.895351384e+19
9.903641079e+19
9.926215451e+19
9.854448949e+19
9.907394998e+19
9.939676042e+19
9.905390287e+19
9.983234428e+19
1.002825044e+20
1.006402478e+20
1.00296569e+20
1.001157456e+20
1.007142384e+20
1.006024144e+20
1.008869517e+20
9.993404021e+19
1.009899381e+20
1.006478605e+20
1.000149636e+20
9.995473111e+19
1.005195152e+20
1.003456784e+20
9.977705836e+19
9.960912339e+19
1.003259166e+20
1.00571538e+20
1.002688233e+20
1.001980106e+20
1.005367986e+20
1.002694813e+20
9.931076682e+19
9.930692008e+19
9.969532679e+19
1.003143054e+20
1.00411592e+20
1.005186452e+20
9.922373046e+19
9.966661033e+19
9.981629591e+19
1.00024083e+20
9.999303812e+19
1.005133953e+20
1.002701687e+20
1.002868671e+20
9.986713784e+19
9.971968435e+19
9.980114428e+19
1.006136608e+20
1.000493988e+20
1.007736161e+20
1.012528225e+20
1.009489157e+20
1.006270588e+20
1.006627803e+20
1.00265114e+20
9.947749229e+19
9.99161045e+19
9.981656009e+19
9.986662523e+19
9.969866195e+19
9.976740441e+19
9.947463627e+19
9.894885211e+19
9.906857473e+19
9.992241301e+19
1.00488023e+20
9.908003086e+19
9.939301778e+19
9.950902146e+19
9.958663267e+19
9.974323013e+19
9.943676488e+19
1.001421223e+20
9.994662261e+19
1.002430049e+20
1.004963745e+20
9.963392942e+19
9.952455266e+19
9.941101172e+19
9.909583407e+19
9.955251649e+19
1.001644374e+20
1.002783418e+20
1.00745098e+20
1.010721212e+20
1.005130775e+20
9.966789494e+19
9.908259479e+19
9.907459992e+19
9.976001237e+19
9.875474256e+19
9.866310632e+19
9.906599902e+19
9.817680595e+19
9.76008855e+19
9.821084753e+19
)
;

boundaryField
{
    flow
    {
        type            calculated;
        value           nonuniform List<scalar> 
48
(
7.725624475e+19
7.757907869e+19
7.725364125e+19
7.750618071e+19
7.769883967e+19
7.75556472e+19
7.738641973e+19
7.747493871e+19
7.751659471e+19
7.725884825e+19
7.772227117e+19
7.704275779e+19
7.764156268e+19
7.707920679e+19
7.80763471e+19
7.710263828e+19
7.771185717e+19
7.59310635e+19
7.59310635e+19
9.733182955e+19
9.803998142e+19
9.879759978e+19
9.866482131e+19
9.880020328e+19
9.890434326e+19
9.892517126e+19
9.895380975e+19
9.888091177e+19
9.987024158e+19
9.966977212e+19
9.953699365e+19
9.951876915e+19
9.951876915e+19
9.961249513e+19
9.940681867e+19
9.946669916e+19
9.968539312e+19
9.911001972e+19
9.966789494e+19
9.908259479e+19
9.907459992e+19
9.976001237e+19
9.875474256e+19
9.866310632e+19
9.906599902e+19
9.817680595e+19
9.76008855e+19
9.821084753e+19
)
;
    }
    obstacle
    {
        type            calculated;
        value           nonuniform List<scalar> 0();
    }
    frontAndBack
    {
        type            empty;
    }
    procBoundary2to0
    {
        type            processor;
        value           nonuniform List<scalar> 
31
(
7.731352174e+19
9.929747169e+19
9.971403161e+19
9.895901675e+19
9.92375912e+19
9.900848324e+19
1.00075918e+20
1.007059649e+20
1.014193238e+20
1.013255978e+20
1.00518513e+20
9.998219206e+19
1.001045565e+20
1.005575655e+20
1.00450822e+20
1.00096746e+20
1.000498831e+20
9.986243109e+19
1.004638395e+20
1.00450822e+20
9.956594703e+19
9.916895999e+19
9.9000615e+19
9.981765992e+19
1.014231147e+20
1.016154754e+20
1.003472053e+20
1.00176965e+20
1.002586635e+20
1.009149879e+20
1.009149879e+20
)
;
    }
    procBoundary2to3
    {
        type            processor;
        value           nonuniform List<scalar> 
19
(
1.020882755e+20
1.011039881e+20
1.015722965e+20
1.010927711e+20
9.968784798e+19
9.965139361e+19
1.02026583e+20
9.943546659e+19
9.92279537e+19
9.897837583e+19
1.002963676e+20
1.003216064e+20
1.007085905e+20
9.977758359e+19
1.000860512e+20
1.000608116e+20
1.011432474e+20
1.006020302e+20
9.74977383e+19
)
;
    }
}


// ************************************************************************* //
