/*--------------------------------*- C++ -*----------------------------------*\
| =========                 |                                                 |
| \\      /  F ield         | OpenFOAM: The Open Source CFD Toolbox           |
|  \\    /   O peration     | Version:  2406                                  |
|   \\  /    A nd           | Website:  www.openfoam.com                      |
|    \\/     M anipulation  |                                                 |
\*---------------------------------------------------------------------------*/
FoamFile
{
    version     2.0;
    format      ascii;
    arch        "LSB;label=32;scalar=64";
    class       volScalarField;
    location    "0.008";
    object      rhoN;
}
// * * * * * * * * * * * * * * * * * * * * * * * * * * * * * * * * * * * * * //

dimensions      [0 -3 0 0 0 0 0];

internalField   nonuniform List<scalar> 
546
(
8.331198464e+19
1.145539789e+20
8.331198464e+19
1.145539789e+20
1.457959731e+20
7.289798656e+19
7.289798656e+19
8.331198464e+19
9.372598272e+19
8.331198464e+19
1.041399808e+20
7.289798656e+19
9.372598272e+19
8.331198464e+19
6.248398848e+19
1.041399808e+20
8.331198464e+19
1.041399808e+20
6.248398848e+19
1.145539789e+20
6.248398848e+19
1.145539789e+20
1.562099712e+20
8.331198464e+19
1.24967977e+20
8.331198464e+19
5.20699904e+19
6.248398848e+19
1.457959731e+20
7.289798656e+19
1.145539789e+20
9.372598272e+19
5.20699904e+19
9.372598272e+19
8.331198464e+19
7.289798656e+19
1.145539789e+20
1.041399808e+20
8.331198464e+19
1.24967977e+20
6.248398848e+19
1.24967977e+20
1.041399808e+20
8.331198464e+19
9.372598272e+19
8.331198464e+19
9.372598272e+19
1.35381975e+20
1.041399808e+20
1.562099712e+20
1.562099712e+20
1.041399808e+20
1.041399808e+20
5.20699904e+19
7.289798656e+19
1.562099712e+20
9.372598272e+19
1.145539789e+20
7.289798656e+19
1.145539789e+20
8.331198464e+19
5.20699904e+19
1.35381975e+20
6.248398848e+19
6.248398848e+19
1.35381975e+20
1.041399808e+20
1.145539789e+20
1.35381975e+20
1.145539789e+20
1.041399808e+20
1.145539789e+20
9.372598272e+19
1.562099712e+20
1.562099712e+20
1.24967977e+20
1.35381975e+20
9.372598272e+19
9.372598272e+19
1.041399808e+20
6.248398848e+19
8.331198464e+19
1.562099712e+20
1.24967977e+20
8.331198464e+19
1.24967977e+20
1.562099712e+20
7.289798656e+19
6.248398848e+19
1.24967977e+20
1.145539789e+20
4.165599232e+19
7.289798656e+19
1.24967977e+20
1.145539789e+20
1.145539789e+20
9.372598272e+19
9.372598272e+19
8.331198464e+19
7.289798656e+19
6.248398848e+19
1.24967977e+20
1.041399808e+20
8.331198464e+19
1.145539789e+20
7.289798656e+19
6.248398848e+19
1.041399808e+20
8.331198464e+19
7.289798656e+19
1.35381975e+20
3.124199424e+19
1.24967977e+20
1.35381975e+20
7.289798656e+19
1.457959731e+20
1.24967977e+20
5.20699904e+19
9.372598272e+19
1.041399808e+20
7.289798656e+19
1.145539789e+20
7.289798656e+19
9.372598272e+19
9.372598272e+19
1.041399808e+20
5.20699904e+19
1.145539789e+20
1.562099712e+20
9.372598272e+19
4.165599232e+19
6.248398848e+19
1.562099712e+20
6.248398848e+19
3.124199424e+19
1.145539789e+20
8.331198464e+19
3.124199424e+19
6.248398848e+19
5.20699904e+19
4.165599232e+19
1.35381975e+20
1.041399808e+20
1.041399808e+20
5.20699904e+19
1.35381975e+20
1.041399808e+20
9.372598272e+19
9.372598272e+19
1.145539789e+20
8.331198464e+19
1.35381975e+20
1.24967977e+20
1.041399808e+20
1.041399808e+20
9.372598272e+19
1.24967977e+20
8.331198464e+19
1.041399808e+20
1.145539789e+20
6.248398848e+19
1.35381975e+20
1.041399808e+20
7.289798656e+19
5.20699904e+19
2.186939597e+20
6.248398848e+19
9.372598272e+19
7.289798656e+19
5.20699904e+19
1.24967977e+20
1.145539789e+20
1.145539789e+20
9.372598272e+19
4.165599232e+19
8.331198464e+19
9.372598272e+19
1.35381975e+20
9.372598272e+19
1.041399808e+20
8.331198464e+19
7.289798656e+19
9.372598272e+19
1.145539789e+20
1.145539789e+20
1.041399808e+20
9.372598272e+19
8.331198464e+19
1.457959731e+20
5.20699904e+19
1.145539789e+20
5.20699904e+19
1.041399808e+20
6.248398848e+19
1.24967977e+20
7.289798656e+19
8.331198464e+19
7.289798656e+19
1.145539789e+20
9.372598272e+19
4.165599232e+19
1.562099712e+20
1.145539789e+20
9.372598272e+19
7.289798656e+19
8.331198464e+19
9.372598272e+19
1.457959731e+20
1.145539789e+20
8.331198464e+19
1.145539789e+20
1.35381975e+20
1.35381975e+20
1.145539789e+20
1.562099712e+20
9.372598272e+19
1.35381975e+20
1.041399808e+20
9.372598272e+19
6.248398848e+19
7.289798656e+19
1.041399808e+20
8.331198464e+19
7.289798656e+19
1.145539789e+20
9.372598272e+19
8.331198464e+19
1.145539789e+20
8.331198464e+19
9.372598272e+19
9.372598272e+19
8.331198464e+19
9.372598272e+19
1.041399808e+20
8.331198464e+19
1.562099712e+20
1.041399808e+20
9.372598272e+19
1.35381975e+20
9.372598272e+19
7.289798656e+19
8.331198464e+19
1.145539789e+20
1.041399808e+20
1.24967977e+20
8.331198464e+19
1.041399808e+20
1.24967977e+20
1.457959731e+20
1.041399808e+20
1.874519654e+20
3.124199424e+19
1.35381975e+20
8.331198464e+19
1.041399808e+20
9.372598272e+19
1.041399808e+20
1.24967977e+20
7.289798656e+19
3.124199424e+19
9.372598272e+19
8.331198464e+19
5.20699904e+19
1.041399808e+20
8.331198464e+19
1.770379674e+20
8.331198464e+19
1.145539789e+20
1.666239693e+20
6.248398848e+19
4.165599232e+19
1.145539789e+20
1.145539789e+20
3.124199424e+19
1.041399808e+20
4.165599232e+19
5.20699904e+19
9.372598272e+19
5.20699904e+19
1.35381975e+20
5.20699904e+19
1.041399808e+20
9.372598272e+19
1.666239693e+20
1.35381975e+20
5.20699904e+19
6.248398848e+19
7.289798656e+19
6.248398848e+19
1.041399808e+20
1.666239693e+20
1.562099712e+20
1.041399808e+20
1.35381975e+20
1.041399808e+20
9.372598272e+19
1.145539789e+20
1.457959731e+20
1.35381975e+20
8.331198464e+19
6.248398848e+19
1.24967977e+20
1.24967977e+20
9.372598272e+19
4.165599232e+19
1.666239693e+20
7.289798656e+19
1.770379674e+20
6.248398848e+19
6.248398848e+19
1.562099712e+20
4.165599232e+19
8.331198464e+19
4.165599232e+19
1.562099712e+20
7.289798656e+19
7.289798656e+19
1.041399808e+20
9.372598272e+19
7.289798656e+19
8.331198464e+19
7.289798656e+19
7.289798656e+19
1.35381975e+20
1.041399808e+20
1.24967977e+20
5.20699904e+19
9.372598272e+19
2.082799616e+19
1.35381975e+20
9.372598272e+19
6.248398848e+19
1.145539789e+20
6.248398848e+19
1.041399808e+20
9.372598272e+19
6.248398848e+19
9.372598272e+19
9.372598272e+19
1.24967977e+20
7.289798656e+19
7.289798656e+19
1.35381975e+20
1.145539789e+20
1.24967977e+20
1.041399808e+20
3.124199424e+19
1.041399808e+20
1.24967977e+20
6.248398848e+19
1.770379674e+20
1.24967977e+20
7.289798656e+19
8.331198464e+19
9.372598272e+19
1.041399808e+20
1.24967977e+20
1.041399808e+20
6.248398848e+19
1.35381975e+20
7.521101025e+19
3.246119803e+19
1.307694072e+20
1.426828929e+20
8.843914303e+19
1.113533235e+20
1.045092877e+20
1.157506956e+20
1.059564728e+20
9.60256797e+19
9.669987032e+19
1.623059902e+20
1.198719574e+20
7.682925005e+19
9.94940352e+19
7.794732648e+19
1.149602172e+20
1.052279051e+20
1.377434147e+20
6.40171198e+19
1.074442996e+20
1.190243936e+20
8.717960539e+19
1.097560715e+20
9.949403591e+19
6.681199412e+19
1.35862074e+20
1.052279051e+20
1.165521201e+20
6.40171198e+19
6.446658021e+19
9.73835941e+19
1.089745067e+20
9.878046504e+19
1.10548928e+20
6.681199365e+19
1.35862074e+20
7.365953308e+19
1.695303565e+20
1.387037605e+20
9.669987032e+19
6.492239607e+19
1.08974506e+20
7.682924951e+19
1.216038208e+20
8.908265883e+19
1.35862074e+20
1.68364647e+20
1.165521201e+20
6.401712024e+19
8.595544028e+19
9.73835941e+19
1.307694081e+20
6.585364336e+19
1.105489288e+20
7.794732648e+19
6.270557261e+19
1.052279051e+20
8.476517826e+19
1.387037596e+20
1.504220205e+20
8.656319536e+19
1.089745067e+20
8.78048572e+19
1.326587145e+20
8.908265946e+19
8.360743071e+19
6.313674307e+19
7.416953098e+19
1.280342405e+20
1.504220205e+20
1.082039934e+20
1.961541121e+20
1.536585001e+20
7.73842496e+19
1.113533235e+19
1.463130028e+20
9.47051146e+19
1.271477683e+20
1.600428006e+20
9.669987032e+19
9.73835941e+19
9.807705538e+19
1.536585001e+20
7.738425015e+19
5.567666177e+19
1.149602165e+20
9.470511396e+19
1.165521193e+20
6.401711936e+19
1.074442996e+20
1.29844793e+20
1.198719582e+20
9.878046504e+19
8.843914303e+19
7.794732648e+19
1.254111452e+20
9.47051146e+19
5.297823677e+19
1.066952004e+20
9.669987098e+19
1.190243936e+20
6.538470358e+19
1.317072849e+20
6.63293568e+19
1.224886559e+20
9.405835955e+19
1.052279051e+20
1.271477674e+20
1.173647204e+20
1.181887304e+20
1.731263895e+20
8.717960539e+19
1.207316795e+20
9.949403591e+19
8.908265883e+19
3.135278631e+19
9.470511396e+19
7.416953048e+19
1.066951997e+20
8.595544028e+19
1.082039934e+20
1.08974506e+20
9.878046435e+19
8.843914303e+19
4.454132941e+19
1.254111452e+20
1.262734861e+20
1.377434156e+20
7.468664028e+19
7.521101025e+19
9.738359478e+19
1.416668597e+20
7.682925059e+19
7.73842496e+19
1.22488655e+20
8.360743015e+19
6.313674264e+19
5.297823606e+19
5.334759983e+19
5.372215018e+19
1.082039934e+20
6.538470358e+19
1.53658499e+20
7.73842496e+19
6.68119946e+19
5.225464384e+19
8.418232409e+19
3.178694206e+19
8.535615974e+19
9.669986965e+19
8.656319476e+19
1.743592108e+20
7.682925059e+19
9.949403591e+19
1.113533235e+20
5.225464419e+19
1.473190672e+20
1.165521201e+20
7.468664028e+19
7.521101025e+19
1.190243928e+20
1.307694072e+20
1.207316786e+20
7.738425015e+19
1.336239882e+20
1.254111452e+20
8.418232409e+19
1.165521201e+20
1.173647196e+20
9.669987032e+19
1.082039942e+20
1.089745075e+20
5.487803575e+19
6.63293568e+19
1.002179912e+20
8.360743015e+19
1.052279044e+20
1.059564728e+20
1.387037605e+20
1.504220205e+20
8.656319476e+19
1.08974506e+20
6.58536429e+19
7.738425015e+19
1.336239882e+20
)
;

boundaryField
{
    flow
    {
        type            zeroGradient;
    }
    obstacle
    {
        type            calculated;
        value           nonuniform List<scalar> 0();
    }
    frontAndBack
    {
        type            empty;
    }
    procBoundary2to0
    {
        type            processor;
        value           nonuniform List<scalar> 
31
(
7.289798656e+19
6.248398848e+19
1.457959731e+20
1.35381975e+20
9.372598272e+19
1.35381975e+20
1.145539789e+20
7.289798656e+19
1.24967977e+20
1.24967977e+20
7.289798656e+19
5.20699904e+19
9.372598272e+19
4.165599232e+19
8.331198464e+19
1.35381975e+20
7.289798656e+19
1.145539789e+20
1.35381975e+20
9.372598272e+19
8.595544028e+19
6.492239607e+19
5.448725337e+19
9.878046504e+19
1.879331789e+20
1.113533235e+20
1.463130028e+20
4.209116176e+19
1.165521201e+20
7.468664028e+19
7.468664028e+19
)
;
    }
    procBoundary2to3
    {
        type            processor;
        value           nonuniform List<scalar> 
19
(
1.682542654e+20
1.009525592e+20
1.233864621e+20
6.730170614e+19
6.730170614e+19
8.973560883e+19
1.009525599e+20
1.121695102e+20
8.973560883e+19
1.682542654e+20
1.009525592e+20
1.233864621e+20
1.233864613e+20
1.682542654e+20
6.730170711e+19
8.973560819e+19
5.608475512e+19
1.458203644e+20
8.973560819e+19
)
;
    }
}


// ************************************************************************* //
