/*--------------------------------*- C++ -*----------------------------------*\
| =========                 |                                                 |
| \\      /  F ield         | OpenFOAM: The Open Source CFD Toolbox           |
|  \\    /   O peration     | Version:  2406                                  |
|   \\  /    A nd           | Website:  www.openfoam.com                      |
|    \\/     M anipulation  |                                                 |
\*---------------------------------------------------------------------------*/
FoamFile
{
    version     2.0;
    format      ascii;
    arch        "LSB;label=32;scalar=64";
    class       volScalarField;
    location    "0.008";
    object      translationalT;
}
// * * * * * * * * * * * * * * * * * * * * * * * * * * * * * * * * * * * * * //

dimensions      [1 2 -2 0 0 0 0];

internalField   nonuniform List<scalar> 
546
(
286.3806574
303.598304
298.343368
300.7126399
300.7114625
299.5036298
300.8176886
302.9379164
301.8701685
301.1153178
303.7018989
303.3432003
301.8818615
300.184214
298.0550382
299.1107564
298.7194625
298.5818834
299.3455192
300.9114679
289.3458122
304.768998
298.83788
299.2772825
299.8649524
301.026889
300.8270776
300.4193514
300.5227715
300.4094665
298.2129789
299.7351026
300.7699133
301.3745418
300.8575562
298.6154024
298.2376211
300.0522584
298.8012767
297.8862174
291.6894253
306.5281556
298.4735685
299.7878318
300.9887144
301.1087143
300.4271884
300.9935736
300.2996297
300.7197383
300.7375662
301.2709987
299.9350302
298.6607566
300.2504398
299.8383276
299.9753541
298.4665316
299.2694724
299.9912801
293.5488367
308.9159127
301.9668014
299.5976084
297.5988701
297.5519743
297.6093311
297.2091426
297.6096537
297.2082324
297.5182706
298.4658806
299.8450564
300.4343604
301.724283
302.3036569
301.3667812
303.595151
305.1021975
302.7000024
289.1327296
305.3815808
299.7759259
301.0815838
299.8847889
299.9163216
299.2515778
299.3343537
300.9659256
299.8511995
299.6583269
298.5782906
299.9973041
301.0412012
300.9718397
303.8877653
304.8879926
304.4947585
302.8353674
302.8009165
290.9197836
307.0799403
297.9825222
296.5893666
298.436964
297.0741655
296.2675287
297.6191006
296.7658638
298.4379114
299.3823137
298.3065486
299.3776786
300.0576125
301.4101328
303.1661553
303.7330995
302.4055785
304.037544
305.6539103
288.4160684
303.4158297
297.9246033
300.1290934
299.1043703
299.8737043
300.7096975
302.0157513
300.9707861
299.7133479
298.4758669
298.5466577
299.1255143
297.850761
298.2853917
297.4846984
297.7740091
300.0731448
300.2489825
299.8984258
289.0788269
305.2773172
298.7258964
299.1685104
299.7145876
299.0112898
300.2877005
299.7766386
299.8331904
301.8485379
302.0345837
300.1661804
299.5441084
299.7545902
299.5549532
300.5612053
300.4038195
299.1134381
299.6952096
300.7054438
291.2617468
305.1507427
298.1714844
297.8829368
297.6341578
298.2284835
297.9906156
298.9976005
300.9097067
301.5390214
300.5393955
302.4113762
302.4743781
301.9024411
300.9599022
300.6472361
301.0716383
301.2063281
299.6700851
300.5177236
290.1211278
308.2468784
301.6161723
299.3946217
299.5667393
298.724886
298.589695
300.4427
301.2100748
299.9330542
299.4090686
300.2728043
298.2527835
300.9468325
302.9977682
301.4499246
300.8324165
301.7664682
299.8705495
298.8566295
292.6188993
307.7410935
298.8383637
299.8137114
301.173001
303.0627072
300.8087517
298.977849
298.1280374
299.1589922
299.0159128
298.2456706
299.9479757
298.9929275
296.8447478
298.0981935
300.329029
298.956419
299.8376513
300.4637661
287.4745807
303.9348555
296.9254001
300.311463
299.033029
298.4380867
298.6729517
298.1031905
297.8932763
298.38623
298.1114
298.6707465
299.189366
301.0741901
301.7345985
300.6352124
300.9470186
302.0267465
302.2086807
301.4692473
290.9669638
306.3964148
298.8191077
299.2388454
299.8027626
298.6340552
299.3392159
299.244064
299.9877654
298.7313478
300.1160271
301.200776
301.8983699
300.230678
299.76597
301.4147744
299.8126633
300.5404608
300.7794397
302.0703107
288.5334395
305.4469906
300.5950197
302.1770393
301.4238469
300.6650685
301.5847559
302.3379913
303.3315464
303.8042764
300.6927121
299.8085288
298.8111877
299.7929866
300.3466456
299.5625735
300.3474271
298.9640473
298.2035688
297.7583522
294.3094123
308.9055634
298.9478647
297.7996747
299.864639
301.3660747
302.5997454
303.6021231
302.7263298
303.3237671
301.2642247
301.3183981
300.5513035
299.4972832
298.3124627
298.640039
299.414324
300.9850751
300.6246397
298.2208597
291.0095173
305.2729278
299.2099114
302.8148426
301.9068193
300.2180578
299.7597822
297.3886869
297.3565909
299.0964343
299.5397817
299.9235868
299.7265002
301.3914516
300.8054525
298.6643105
298.2828581
296.5461409
297.8021359
300.0095428
289.8180123
305.406236
299.313527
297.831151
297.204888
297.0999736
297.5550365
298.1720498
298.0218662
299.5602096
299.5819891
300.586209
301.1136023
300.1230333
300.5243289
299.666419
298.5729704
299.1557744
300.3576399
297.9641459
291.7699005
304.4251493
297.5272914
296.5184028
294.6914368
296.2702906
297.0983257
298.2527238
298.2553358
298.3253041
299.6128538
296.7048404
297.4304058
295.9957348
296.1426529
296.6171723
297.0852316
297.9334115
295.8550112
295.0373024
305.3837612
308.2756674
306.6664735
308.2118932
314.7926128
320.376527
302.790808
305.1295319
303.9554508
304.3296328
305.9559649
304.5825724
305.6055033
310.9652246
309.5980549
314.1654695
298.3166833
298.3966689
299.2150006
301.0551147
304.2921933
305.5960395
306.6226148
306.6210954
308.385397
311.678179
301.3280379
303.1140807
303.8581704
301.4216816
300.7163752
301.8402472
302.9050086
303.5661482
307.0696454
308.1821336
301.4380931
303.0812728
303.0688871
303.2633534
302.2774975
305.0194881
304.4426687
302.693107
304.8939976
305.2519237
303.057588
303.0714165
302.5886879
303.1454753
303.1245971
303.1577863
306.901945
306.29279
305.6060585
307.5207847
304.336419
303.5365711
302.1509911
303.0721626
305.1575566
302.3211379
301.901402
302.0403625
300.764419
301.3543429
300.7481831
301.1035868
302.9009216
299.9405582
300.6056218
300.384511
300.2620118
303.5016804
303.6690852
304.143502
299.0045995
301.0624982
298.5017109
298.6942676
300.557668
300.0338893
300.1899126
301.03426
302.5197675
301.2388269
299.3076596
301.3435912
302.6199403
299.2754259
300.5967286
301.1941798
299.2764225
300.7515105
301.781546
300.283236
300.3732069
300.7386835
301.9389055
303.7895127
300.5695487
301.3138928
301.7641324
301.4211367
301.5714297
301.3674294
299.5618657
299.5494847
299.2842117
299.631086
300.84414
300.8961503
300.159253
300.9432976
301.0259706
303.9505674
301.3553748
300.6435974
300.6371215
302.3865028
301.9706863
301.0155675
301.9014053
301.0446166
300.9692314
300.4950102
303.7332699
303.7304607
306.5357862
304.8832998
302.8684801
303.3730117
302.9826405
301.5735815
299.9615154
298.5236153
297.4043336
297.7472765
296.3476765
299.0299798
300.9949709
297.9392956
297.3474895
300.2278506
297.418378
298.5493313
299.1312304
299.1932203
300.2436838
298.2655794
298.3191076
300.4341744
299.6618475
297.8589095
299.1281464
300.1515877
298.3991758
299.2589125
297.8863887
298.8556576
298.7733982
297.0032953
298.7599997
299.484944
299.8372472
299.945332
297.3330723
297.5545412
296.3675613
297.2749831
298.1645048
299.8435649
301.2695581
300.3420543
302.1769671
300.7276503
298.0510232
296.3474719
296.7839802
297.0014264
297.4794003
296.2019981
296.7134713
295.5262121
295.7920076
298.1107257
)
;

boundaryField
{
    flow
    {
        type            calculated;
        value           nonuniform List<scalar> 
48
(
286.3806574
289.3458122
291.6894253
293.5488367
289.1327296
290.9197836
288.4160684
289.0788269
291.2617468
290.1211278
292.6188993
287.4745807
290.9669638
288.5334395
294.3094123
291.0095173
289.8180123
291.7699005
291.7699005
304.4251493
297.5272914
296.5184028
294.6914368
296.2702906
297.0983257
298.2527238
298.2553358
298.3253041
299.6128538
296.7048404
297.4304058
295.9957348
296.1426529
296.6171723
297.0852316
297.9334115
295.8550112
295.0373024
298.0510232
296.3474719
296.7839802
297.0014264
297.4794003
296.2019981
296.7134713
295.5262121
295.7920076
298.1107257
)
;
    }
    obstacle
    {
        type            calculated;
        value           nonuniform List<scalar> 0();
    }
    frontAndBack
    {
        type            empty;
    }
    procBoundary2to0
    {
        type            processor;
        value           nonuniform List<scalar> 
31
(
290.8557961
307.0600216
298.8925814
299.0086401
298.1667458
298.8239457
299.0897366
301.1394349
301.8967006
301.3060394
300.4092933
298.8399886
301.1783651
301.9629917
303.4822582
300.5015864
299.2729082
302.0671437
302.2408285
302.7297908
306.8576129
310.1030374
312.6816772
322.467913
327.5566601
331.7657525
298.1289751
300.8949218
302.9299933
304.8814925
304.8814925
)
;
    }
    procBoundary2to3
    {
        type            processor;
        value           nonuniform List<scalar> 
19
(
327.781753
321.6783217
317.1482694
314.320213
309.8582084
309.300114
305.0164245
304.9376983
301.2061217
299.6272449
302.0386238
305.4776771
301.1304365
298.3338229
301.1066364
300.9264116
300.9914325
300.7965028
297.4453039
)
;
    }
}


// ************************************************************************* //
