/*--------------------------------*- C++ -*----------------------------------*\
| =========                 |                                                 |
| \\      /  F ield         | OpenFOAM: The Open Source CFD Toolbox           |
|  \\    /   O peration     | Version:  2406                                  |
|   \\  /    A nd           | Website:  www.openfoam.com                      |
|    \\/     M anipulation  |                                                 |
\*---------------------------------------------------------------------------*/
FoamFile
{
    version     2.0;
    format      ascii;
    arch        "LSB;label=32;scalar=64";
    class       volVectorField;
    location    "0.008";
    object      UMean;
}
// * * * * * * * * * * * * * * * * * * * * * * * * * * * * * * * * * * * * * //

dimensions      [0 1 -1 0 0 0 0];

internalField   nonuniform List<vector> 
546
(
(1709.474297 2.28270229 0.6574485358)
(1742.606362 3.924312522 0.6706645795)
(1733.870049 4.592185988 1.182787129)
(1731.229132 2.866078035 0.3551404743)
(1732.567719 -0.5949905415 0.1127962438)
(1734.307155 -2.251481778 1.30831406)
(1735.507009 0.5336635892 2.725653617)
(1734.796696 -0.6178094452 1.202619145)
(1737.536293 -1.989344544 1.067339907)
(1738.786432 -2.018600544 -0.2255345364)
(1738.462217 -2.463196842 -3.450189636)
(1740.66526 0.97062937 -1.314681763)
(1741.245647 1.85414226 -0.6125231568)
(1740.27423 3.293500347 0.5656549273)
(1739.774279 2.674761353 2.178717767)
(1739.521288 1.870180615 -0.6382611807)
(1738.860037 0.4582125643 -1.893831978)
(1740.152818 -0.5436800276 -0.6153107757)
(1739.543885 0.9971493476 -1.393137276)
(1738.46438 2.197222889 -2.216783338)
(1711.855108 1.014476246 2.884836346)
(1749.112353 -0.7956067001 2.998542678)
(1741.006268 0.8554151646 4.26649919)
(1739.958192 0.2053939923 2.443014871)
(1737.389799 2.373940368 1.460252251)
(1735.151241 2.300582014 -0.6936583742)
(1736.452926 -2.474767464 -1.154061098)
(1735.640569 -3.536808366 -2.936330208)
(1735.687349 -2.407309476 -2.400772147)
(1734.948095 0.1398540988 -0.8459177934)
(1737.195932 1.945730488 -0.9766471709)
(1736.956704 0.7647840961 -1.983892827)
(1736.296881 1.064625723 -3.80735844)
(1738.539385 1.016180341 -3.667130322)
(1738.785942 2.951253299 -2.707657008)
(1738.936502 2.144593331 0.05218655614)
(1738.552903 2.204206016 0.7865510602)
(1737.215283 4.62987923 -0.1715174345)
(1736.703833 2.270086398 1.32957388)
(1737.384056 1.826143974 1.982055505)
(1708.34474 2.232750125 -4.534872428)
(1746.027052 2.058266342 -4.818821524)
(1739.091044 -1.843360702 -2.218152636)
(1737.77424 -3.425982392 -1.228782117)
(1739.305867 -3.329178626 0.9613281011)
(1740.920956 -3.368584185 1.922511712)
(1739.148895 1.947620917 0.2663244381)
(1740.501748 5.44935479 1.241904527)
(1739.85128 5.350027521 -0.3784466976)
(1736.694801 3.751039803 -0.8950028957)
(1736.482378 3.214304027 -2.058874696)
(1735.981493 3.724666785 -0.7077531607)
(1733.419894 1.651460469 1.195016709)
(1735.251209 1.061354619 0.7168664234)
(1735.429244 0.7043062209 0.6363431858)
(1735.356359 1.126102099 -0.4067325244)
(1736.112845 0.5914902574 -0.7237990593)
(1736.245782 -0.6102137652 -0.8208826397)
(1737.765021 0.6120652958 -0.04848474384)
(1737.312705 -3.004254907 -2.96936081)
(1708.939171 -0.5105175642 0.244449544)
(1746.651992 -1.499926987 1.215932769)
(1738.873744 0.5437757775 -1.267719396)
(1738.488575 0.7510361074 -0.7771345072)
(1740.438634 0.8654414848 -0.3935815829)
(1740.164686 1.668006317 1.459960199)
(1740.096697 -2.131604326 0.9843289513)
(1739.622894 -2.601724087 0.3056427714)
(1739.440243 -1.000278312 0.7350653515)
(1738.628871 0.712550125 0.7729162354)
(1738.789716 -0.5797793766 1.84149643)
(1739.773264 0.005326058881 3.30517271)
(1740.420616 3.465957985 0.9945960264)
(1738.814321 4.784161408 2.089099088)
(1738.996188 4.171595594 2.549444159)
(1738.790227 2.039856275 2.289719047)
(1739.350066 2.228957717 2.375025104)
(1738.220614 0.2780015052 1.434016899)
(1736.492783 -1.334567331 -0.1101333015)
(1737.727619 -2.489433134 2.115478068)
(1711.005729 -1.438238744 -1.560142585)
(1745.646435 0.9826247618 -0.9030834903)
(1736.918674 0.88624721 0.1037544744)
(1734.340369 0.2467215689 -1.757175613)
(1735.81664 1.172580018 -2.462681663)
(1733.900638 2.569871428 -3.478444421)
(1734.544221 3.761783904 -1.719203498)
(1735.510688 3.287677151 1.020068993)
(1735.728488 -1.00678644 0.9988287084)
(1737.008548 -0.8091638389 1.683200229)
(1739.859947 2.634078203 0.2891684893)
(1739.507394 -0.02597099209 1.171033063)
(1739.87638 -0.2877923102 0.943005292)
(1738.531226 -0.6202882796 -0.2443018027)
(1737.142225 -0.155526586 -1.602184214)
(1735.746262 -0.09311829333 -0.8512039478)
(1735.013188 -1.787777559 0.9699049379)
(1734.738216 -2.194559809 0.8687487273)
(1733.936396 -2.005164739 0.8552776048)
(1734.17995 0.5291727532 1.154349082)
(1707.866699 1.279822267 0.7431352623)
(1744.186515 2.104753421 0.2100879887)
(1735.488045 2.748929191 0.5926928768)
(1735.865424 5.201203407 2.919410278)
(1734.48627 4.087459367 3.716416151)
(1735.798406 3.453416543 3.34632986)
(1735.721368 1.81786552 2.844616157)
(1735.547595 -0.06353589569 -0.03368126493)
(1735.942682 3.125452521 1.902127545)
(1735.671045 -0.8316325915 0.6241508571)
(1733.654956 -3.207940722 1.811407502)
(1734.236437 -2.177491476 0.2587033257)
(1733.144167 -2.10288722 -0.2915903627)
(1735.377162 -2.796649896 0.6909976046)
(1735.3556 -3.984955565 0.7229855968)
(1734.304622 -3.638667853 -0.2715771062)
(1733.367972 -1.354888598 -1.541017591)
(1733.423495 0.8238065717 -2.2905716)
(1731.695835 1.441277598 -0.4985701606)
(1733.839266 0.6805084402 -1.37758949)
(1707.62286 1.452359303 1.590695222)
(1745.093863 2.120781566 1.386305229)
(1735.961759 0.01753921177 1.085961207)
(1736.160473 0.4340097361 -0.2584657549)
(1736.392084 -1.15488408 -0.6776636429)
(1735.486806 -1.994245555 -0.5745267644)
(1735.474582 -0.5690668518 0.5432635805)
(1736.730585 0.4461337766 -0.1965867148)
(1736.617725 1.147618568 -0.01703809101)
(1734.201994 0.8569723004 -0.2991207236)
(1737.131227 2.033065623 1.046418722)
(1734.82121 1.387875501 -0.3012209467)
(1734.51878 -0.3723791098 -1.125852256)
(1734.884754 0.09084667244 -1.696530562)
(1732.679574 0.4672279149 -0.5766529511)
(1733.662798 0.5834117359 -0.7890718228)
(1732.121917 -0.8665723251 0.1687660185)
(1733.013262 -1.052338631 0.7136824276)
(1732.866904 -1.290418344 1.25286728)
(1733.857483 -0.9458161211 0.3630973661)
(1710.046913 -1.147379009 2.218568343)
(1746.27165 -2.527602349 -0.5552315779)
(1737.890024 -2.975958595 -0.4758735449)
(1737.504268 -1.201928555 -0.9811971513)
(1737.527268 -2.046581015 0.7173581542)
(1738.437817 -0.3438484808 -0.8494141817)
(1736.935392 1.290868416 -2.607880233)
(1735.551975 1.673727656 -1.615937545)
(1735.916561 -0.01979472216 -2.991592859)
(1736.482546 2.762990955 -2.7560074)
(1736.080177 2.275868188 -2.927434448)
(1735.619804 0.4620963311 -4.134388481)
(1735.091251 0.7168516616 -2.421484091)
(1736.020203 0.02996520567 -2.58156052)
(1736.19268 -0.263376893 -1.11643795)
(1734.620607 -1.028832605 -1.814567225)
(1737.660178 -1.433722232 -2.015500659)
(1736.74468 -0.4607433148 -4.072794452)
(1734.393108 -1.59126581 -3.462830449)
(1733.956738 -1.094690874 -3.586161292)
(1707.689128 -1.354376968 -0.6267021675)
(1744.352732 -2.8171179 -0.5667491682)
(1734.821264 -4.638108374 -0.008572285782)
(1733.728268 -4.549504431 -1.988686356)
(1732.912365 -0.3993581236 -0.7300281529)
(1732.959099 0.6577422835 0.1874488829)
(1733.700642 0.494802787 0.9968436935)
(1734.767274 -2.2780684 1.299079733)
(1735.509394 -1.113265395 2.646212555)
(1735.036361 -2.209360544 1.298001912)
(1734.125358 -1.901966033 1.441633083)
(1733.801855 -0.1372849929 3.065756487)
(1734.5518 1.266866711 4.075360507)
(1735.101668 0.910760449 3.139708102)
(1736.172736 0.2646286728 1.101383009)
(1735.192112 1.734767521 0.3864885209)
(1733.256727 -0.590011477 1.047465423)
(1733.094854 -0.3586341114 -0.1357024855)
(1736.228613 0.3078715153 -1.140231865)
(1737.704914 0.1783883377 -0.8065925382)
(1709.264647 0.7938030147 -0.2394942043)
(1746.027975 1.570499874 1.056981235)
(1737.720549 1.783334048 0.4711940651)
(1739.829135 -0.9365473607 1.6624673)
(1740.9579 -2.218404511 2.687705915)
(1738.387362 -2.648389761 2.774667305)
(1738.278207 -2.28045615 3.448545792)
(1737.145493 -1.439628399 0.715725579)
(1737.435056 -1.338348686 0.7013622126)
(1738.037612 -2.441765707 0.3020336604)
(1735.96332 -0.1703040638 -0.1963838287)
(1737.214962 1.177642434 -1.146691514)
(1736.636217 0.5686035023 -3.419578288)
(1736.357708 2.357811703 -2.614143682)
(1735.324777 0.5912210284 -1.30363663)
(1735.805053 2.138680534 -1.772565289)
(1735.253024 4.292077605 -2.306406311)
(1734.291685 4.827450038 -0.6981456024)
(1735.126638 4.482575094 -0.109981997)
(1737.005161 2.686562475 -0.6799565165)
(1709.062617 0.9596787319 0.273225594)
(1747.381012 -0.3374449433 -0.0774989488)
(1741.230212 1.596446606 1.858705833)
(1738.836376 0.2456368822 3.055736259)
(1738.795975 -0.5422641496 -0.5778041133)
(1735.723252 -2.061023396 -1.141879728)
(1735.374855 -1.299350228 -1.162068977)
(1736.890243 -0.1931204857 -0.9634155854)
(1735.99483 0.2613562605 -0.6864484033)
(1733.019856 1.659531118 -0.7714119118)
(1733.854106 -0.3390873273 -0.6411081039)
(1733.32991 -0.683364818 0.2927673489)
(1731.400073 -1.156421674 1.078193253)
(1733.1304 -0.3002045982 0.1531278805)
(1735.377264 1.60748298 -0.1397973312)
(1736.097508 2.31535613 1.96603981)
(1736.584622 2.364571537 0.9977097759)
(1737.15441 0.5978391165 0.6109236833)
(1737.83206 1.707992484 1.167687183)
(1737.7917 2.680572321 1.829141817)
(1709.921675 -0.5959540935 2.048386995)
(1745.02341 1.051813338 1.688268723)
(1736.365094 -1.175562279 -1.733523281)
(1735.203858 1.19552951 -2.853788257)
(1736.165308 0.4802879892 -2.024690316)
(1737.045684 -0.4594356732 -2.720579681)
(1735.874324 -0.6391996282 -2.456375642)
(1737.420803 -2.747451794 -4.227619129)
(1738.855307 -2.845378748 -1.867918036)
(1738.68412 -0.8742923043 -2.323386451)
(1739.967346 -0.9049472987 -4.832911321)
(1739.682422 0.3967363238 -3.930156427)
(1741.256271 1.475649702 -1.968896473)
(1740.048356 0.7953622741 0.01397904867)
(1737.641279 -0.114494522 -0.996899478)
(1736.923157 -1.928081171 -1.293768455)
(1734.839562 -0.6594018443 -1.045810317)
(1734.237003 -0.1188417568 0.07661441686)
(1734.669514 -1.087582063 -1.027767633)
(1732.647342 0.5028124878 -0.3884688895)
(1710.831898 0.7751699361 -4.705057897)
(1746.32261 0.07012436231 -5.00498462)
(1735.526127 0.1139275034 -3.961449727)
(1736.019999 1.702740979 -4.500869293)
(1736.067534 1.165703484 -3.431576975)
(1737.606454 0.2431902875 -2.635419669)
(1738.769349 0.997778984 -3.420125981)
(1737.237503 1.695181744 -1.939704533)
(1736.72363 1.765801297 -1.768613721)
(1738.084105 -1.505382195 0.1867194482)
(1735.556998 0.2851193935 1.308313527)
(1736.788755 -3.106995109 1.773424239)
(1736.921917 -2.958764022 -0.2072623887)
(1736.965057 -1.493490875 -1.013034517)
(1737.756728 -0.8881501626 -1.169880586)
(1736.736 0.8845852685 -0.7712792227)
(1738.608738 0.8413613094 -1.602705733)
(1738.294072 1.632857523 -1.598343611)
(1737.680803 4.205910578 -1.134946417)
(1736.355519 5.019009239 -0.2840313481)
(1707.58811 1.920356682 -4.328387912)
(1747.784355 0.6202897977 -2.649904744)
(1737.794438 0.5223151879 -1.537810917)
(1735.825472 -0.04241583131 -1.060349376)
(1735.515185 -0.9395372909 -0.02106981113)
(1733.400966 3.433818621 0.2153181316)
(1734.950415 2.662072474 1.259689579)
(1732.022252 3.730910009 0.824428513)
(1735.327688 -0.0282380499 -1.379384752)
(1735.327051 0.390080785 -1.286731899)
(1735.953313 -1.141425694 -3.421867318)
(1735.444653 0.2819623443 -3.574441108)
(1735.553979 0.810011503 -4.836824682)
(1733.042587 1.071071251 -2.927940976)
(1733.289522 2.165500553 -1.597559297)
(1734.179421 1.925730017 -1.343299716)
(1734.665756 0.5597584064 -0.9946722694)
(1735.627415 0.7658476721 -2.684904607)
(1737.890205 -1.485749682 -0.4335013996)
(1736.59567 -1.248829478 -2.807612812)
(1702.663448 -0.8030716682 -2.483533197)
(1737.669264 -0.5577121856 -1.736125284)
(1730.385045 -0.7690889605 -1.623009432)
(1732.671848 0.07975596964 0.0980370757)
(1731.668725 0.9909028891 0.526517452)
(1730.795173 1.416227234 0.4927001322)
(1732.194831 -1.652739357 0.7113179674)
(1731.425586 -2.300931936 1.563232352)
(1731.918853 1.725636382 0.9750035463)
(1730.973875 5.835440518 2.081341601)
(1730.200719 6.396283161 1.612260111)
(1731.474622 4.814886474 1.260217173)
(1732.305874 2.59140639 3.576565888)
(1734.272774 -0.9027867692 3.491394038)
(1734.859376 -3.417869 -0.4532930601)
(1734.42245 -3.379359952 -2.119357853)
(1734.786899 -4.248218824 -1.479120609)
(1732.348445 -4.182933859 -1.246553182)
(1734.14009 -4.704397991 -3.582747268)
(1734.963375 -3.689189037 -3.023437609)
(1707.786767 2.851542019 -2.168732939)
(1744.972552 3.39624094 -2.49654267)
(1737.686745 4.816235568 -1.904146304)
(1736.477508 4.036671768 -1.547619636)
(1736.571767 2.430798196 -3.060461331)
(1737.520332 2.258948564 -2.302951305)
(1736.312123 3.912880631 -1.907759143)
(1737.314573 5.880093852 -1.189865531)
(1739.547231 2.098874282 -1.460689642)
(1737.982166 -1.953930718 -1.445410891)
(1739.931923 -2.490733876 -0.5414900259)
(1737.087726 -2.115062123 -0.1732054232)
(1737.014117 -0.5172313871 -3.016558027)
(1734.464906 0.4402967119 -2.222056614)
(1734.324314 -0.01331403438 -1.386037806)
(1735.8941 -2.408852986 -0.501873978)
(1737.371778 -2.623000979 1.05773445)
(1736.40283 -2.104217203 -0.2896208273)
(1736.152303 1.223875839 -0.3193529775)
(1736.198042 -1.097408735 0.2754300338)
(1708.140183 1.447129392 -0.3806187342)
(1747.942131 1.311252209 -1.277738965)
(1738.757839 0.6232147123 -3.706152613)
(1739.176665 1.303491441 -3.037050644)
(1741.222342 2.225403362 -1.949769648)
(1739.452752 3.015793551 -1.703293713)
(1738.561005 2.556592209 -3.270340726)
(1740.234736 0.666475994 -3.394027704)
(1735.910962 2.756044203 -1.468857626)
(1736.409879 2.988523271 -1.230257535)
(1734.295243 0.4803170694 -1.583774978)
(1736.027746 0.2708457182 -2.009765022)
(1735.85723 0.2154732974 -2.399714424)
(1735.876571 0.9315332772 -2.147854127)
(1737.872201 0.4003613334 -2.8485307)
(1735.895136 3.73909664 -2.99976173)
(1736.922766 5.703925341 -3.92474097)
(1736.339259 2.814587492 -0.7285981032)
(1736.949883 -0.1561210491 -1.642256493)
(1737.510691 0.6370579002 -2.772453822)
(1711.449446 5.125436672 -0.2719079122)
(1746.144398 4.462364208 0.4431900842)
(1736.857843 5.614234168 2.83615844)
(1735.528203 6.119472255 1.408526848)
(1737.02188 6.132312298 -0.6694573091)
(1738.761996 6.434942489 -1.375137563)
(1736.126 5.453771215 -0.2692322281)
(1735.06222 5.61875922 1.793706638)
(1735.204976 4.627298341 0.1382753481)
(1735.833169 6.108159465 -2.027351945)
(1735.00338 9.89077565 -3.009093277)
(1735.144038 11.42074246 -0.8842209648)
(1735.463497 8.403619795 0.8141487061)
(1736.32411 7.791458582 1.745206237)
(1735.167052 8.98014165 1.442125841)
(1735.10955 8.689352506 1.155569035)
(1734.314246 4.914236282 1.088647204)
(1732.671089 6.921441849 0.435666762)
(1734.897083 6.195839485 1.163871879)
(1736.45801 7.080361507 2.677248365)
(1734.565762 7.357498841 -2.219261991)
(1732.843456 6.023878082 -2.70878248)
(1733.600435 5.266245297 -2.945539371)
(1732.710955 3.210284936 -3.43810323)
(1731.453621 5.320401511 -3.522376756)
(1729.561422 9.830720896 -1.861793536)
(1736.898862 2.321327269 -0.4609355762)
(1737.673642 5.020402325 -0.9025661153)
(1739.217674 2.805958293 -0.8647289168)
(1737.401394 2.727629125 -0.9845065662)
(1735.547874 -0.2015268546 0.3178049727)
(1735.337745 0.01299696122 1.326181262)
(1734.302931 0.9699172937 1.417928879)
(1733.594962 4.993155243 1.565153506)
(1734.259851 6.283935202 -0.09413651722)
(1735.046416 8.252446337 -0.3888079789)
(1737.934984 0.6666603788 1.518558145)
(1737.068971 -0.2517936943 1.887075844)
(1734.455624 -0.1675071305 4.057857543)
(1734.818006 -2.706147233 3.485257587)
(1734.528603 -0.4360854887 1.929463926)
(1734.393692 3.018819966 2.853470011)
(1736.240825 3.356130093 1.449761599)
(1735.530313 4.513434627 3.187369802)
(1736.031572 4.768555961 4.00460283)
(1730.978836 6.748954515 3.477865038)
(1735.016867 -1.986370515 -2.888960743)
(1734.062153 -1.967181833 -2.645294478)
(1734.407742 -1.938161464 -2.277509555)
(1737.204217 -1.647889849 -2.297848066)
(1736.363145 -3.608378766 -1.541649537)
(1735.867309 -2.176847487 -2.435258162)
(1736.073867 -0.7597686097 -1.418465049)
(1735.818848 -0.2650262453 -2.855823171)
(1734.720008 0.7390103569 -1.837623156)
(1732.619262 1.451492719 -1.666475044)
(1737.879706 -3.382875386 -0.7634792488)
(1737.825674 -1.419112834 -0.8954501101)
(1737.465023 1.472201807 -0.9865661157)
(1734.764324 1.799657029 -2.378583878)
(1734.884183 2.00806555 -0.8407926943)
(1732.632845 1.747184529 -1.110843419)
(1732.673288 -1.066869775 0.4083603482)
(1733.586219 -2.566331518 0.2655053162)
(1732.354202 -1.730037805 0.04238830474)
(1732.076914 0.3011816961 -1.093210276)
(1733.09128 -0.1363847175 4.369261421)
(1733.278741 1.234499782 2.614564519)
(1734.479216 -0.4424963275 2.180751426)
(1735.960848 -0.05375859203 1.674992381)
(1737.247158 0.5135777913 -0.05505503516)
(1736.920068 -1.466710128 1.637722156)
(1734.198166 0.8970173773 2.381294426)
(1733.77088 1.862765016 2.406697305)
(1733.177896 0.709748495 2.102857286)
(1732.787277 2.617736407 1.780237835)
(1735.965216 0.9798704443 -3.221419133)
(1736.432815 -0.1055375436 -1.883300407)
(1736.999247 0.7868230024 -1.501381491)
(1732.902008 0.0119752948 -0.7342149355)
(1731.813766 -1.104338879 -0.381332145)
(1730.555082 1.645193351 -1.011839536)
(1732.223786 1.876702603 -2.948667331)
(1734.218337 2.062444825 -4.7042282)
(1735.900425 1.803374159 -3.515832409)
(1731.948546 1.893784336 -5.216145433)
(1730.727221 0.2287958207 1.562312098)
(1729.957151 -0.684711769 -0.2207175876)
(1729.227313 -3.389377626 -1.385102493)
(1731.583963 -1.385624383 -2.251771552)
(1731.556804 0.1561100432 -3.674976069)
(1733.216762 -1.112180652 -3.760216123)
(1734.135046 -1.125046591 -2.370255659)
(1734.34058 -0.05014682145 -2.322725638)
(1734.903458 1.132284852 -2.007076138)
(1736.757685 0.274735468 0.2077383333)
(1733.271559 0.1524163643 -1.686403551)
(1734.475177 0.9164114872 -2.204968264)
(1736.74585 1.960879078 0.2792563649)
(1735.801827 0.7737087611 0.7073579798)
(1737.934995 1.193363634 0.5075403936)
(1736.587883 3.139212146 0.874157647)
(1735.939531 2.377167278 -1.761431989)
(1735.932174 2.224042855 -2.416073038)
(1736.002139 -1.077896522 -2.731618206)
(1733.236097 -1.832665938 -4.313744324)
(1736.438853 0.8968482858 -2.349680109)
(1734.906124 1.789377511 -2.867377579)
(1737.078437 3.004123782 -3.349674236)
(1736.686744 4.384919687 -2.880366688)
(1734.12932 2.808782559 -2.558270643)
(1734.43708 1.577087707 -3.775603199)
(1731.822573 -0.3007766108 -1.427964562)
(1731.941945 0.7616803677 0.05155837938)
(1733.139384 1.484262329 -0.1890144474)
(1734.216861 1.556987972 -1.266796742)
(1738.722969 2.450294638 -1.744645478)
(1738.094983 2.763261718 -0.4068773119)
(1734.523731 2.351149383 -1.985783068)
(1734.056963 0.8417090457 -0.4534002472)
(1734.225236 1.124995955 -1.592835897)
(1736.073081 -0.1219905973 -1.723247446)
(1735.558931 1.829532571 -2.534342944)
(1736.342204 2.343793408 -3.721126997)
(1736.137984 3.39360254 -2.078813256)
(1736.091822 3.539903197 2.244526254)
(1735.668232 2.653011718 1.484907415)
(1735.566888 -0.1656981077 0.3368701288)
(1738.104673 -1.019537061 0.3006163377)
(1739.705007 0.2525572132 0.8281273126)
(1739.42842 3.056362172 1.366876573)
(1738.259804 4.635856475 1.190718053)
(1738.696063 1.800505053 1.519127823)
(1738.271482 2.809510213 4.484648332)
(1736.917691 1.994543584 3.16736712)
(1736.037522 3.521400557 -0.2589082904)
(1734.523474 1.256095444 -0.2158580795)
(1736.087464 4.224833424 0.9316065606)
(1734.070069 5.537097672 0.9766391897)
(1734.417081 4.932038611 1.182045006)
(1733.987495 3.455550377 2.861007752)
(1734.978577 1.033420793 1.605023241)
(1734.759508 -0.09840980359 0.4434464764)
(1733.64636 -0.5395674454 -1.312781327)
(1734.925628 -1.038907089 -3.031377236)
(1736.183104 0.3959722071 -4.338120888)
(1734.862095 3.34748683 -1.611928655)
(1732.937827 1.350265388 -1.966628372)
(1733.155657 -0.03846591461 -2.22533686)
(1731.650612 0.4209307747 -3.279864265)
(1734.59171 -1.106722937 -3.503714726)
(1734.284576 0.4083671321 -3.196075454)
(1733.958488 1.219730617 -3.687393122)
(1735.235332 -0.08265800824 -3.244699906)
(1736.084772 -0.4777080093 -1.777076721)
(1735.512164 -3.300454678 0.6413296066)
(1739.213006 -0.9019173748 -1.351544085)
(1737.625185 0.04306865989 -1.134219026)
(1736.525686 -0.1915344082 -0.06069936095)
(1735.982747 0.5888424613 -0.6003384965)
(1733.371759 2.659075142 0.03210726277)
(1734.188267 2.958337248 0.7452738043)
(1734.31244 2.086409458 2.28481178)
(1734.753411 2.655640219 3.472602251)
(1735.614301 5.67563798 3.750436533)
(1736.355052 5.910507169 1.85666143)
(1736.037851 -1.987240548 -1.358395837)
(1735.393371 -0.9511501029 -2.066824693)
(1734.988403 0.8654472382 -1.212532128)
(1737.215623 0.7648609264 -0.728623351)
(1738.354044 0.8204154879 0.2279203198)
(1738.075306 1.270515924 -0.2461088195)
(1736.304278 4.632227583 -2.681669827)
(1738.83558 6.311255768 -3.098890622)
(1734.009549 5.049712222 -3.12017268)
(1734.554345 1.777259402 -2.143081779)
(1735.492823 -2.316549081 -2.747688732)
(1735.123697 -2.81033805 -1.297343478)
(1735.971202 -1.33700202 -2.767329514)
(1734.877223 -0.9541537728 -3.001561343)
(1735.961495 0.6376382021 -3.605846083)
(1735.551343 2.605589861 -0.5067851968)
(1734.57694 2.495771078 -1.230484293)
(1732.110723 -0.6303125172 -2.762310528)
(1732.473009 -2.052213453 -3.334189081)
(1731.679603 2.069994331 -2.184516217)
(1734.366851 1.220800773 -1.827853131)
(1732.873631 0.7149860695 -2.75286658)
(1733.637559 -2.063800886 -3.240790566)
(1732.97873 -1.380379767 -1.682029386)
(1733.025344 -1.711926875 -2.827453144)
(1732.65095 -3.769417389 -5.52598777)
(1733.762634 -3.494081709 -2.997795137)
(1733.746456 -3.926643529 -1.714414145)
(1734.537712 -2.962056624 -0.5063197289)
(1735.930221 -2.630936122 0.1780002677)
(1736.317281 5.918069202 3.06734379)
(1739.386899 6.677545496 0.7124409083)
(1740.419829 5.9983275 2.60454213)
(1741.311102 4.697119744 3.077958801)
(1741.425587 3.879416574 1.440920352)
(1740.182423 5.152874698 3.861134272)
(1741.088267 4.265912453 5.523209349)
(1739.963572 4.755085882 3.751843865)
(1738.756798 6.366318431 3.893817249)
(1739.235139 5.060277382 3.504039111)
)
;

boundaryField
{
    flow
    {
        type            calculated;
        value           nonuniform List<vector> 
48
(
(1709.474297 2.28270229 0.6574485358)
(1711.855108 1.014476246 2.884836346)
(1708.34474 2.232750125 -4.534872428)
(1708.939171 -0.5105175642 0.244449544)
(1711.005729 -1.438238744 -1.560142585)
(1707.866699 1.279822267 0.7431352623)
(1707.62286 1.452359303 1.590695222)
(1710.046913 -1.147379009 2.218568343)
(1707.689128 -1.354376968 -0.6267021675)
(1709.264647 0.7938030147 -0.2394942043)
(1709.062617 0.9596787319 0.273225594)
(1709.921675 -0.5959540935 2.048386995)
(1710.831898 0.7751699361 -4.705057897)
(1707.58811 1.920356682 -4.328387912)
(1702.663448 -0.8030716682 -2.483533197)
(1707.786767 2.851542019 -2.168732939)
(1708.140183 1.447129392 -0.3806187342)
(1711.449446 5.125436672 -0.2719079122)
(1711.449446 5.125436672 -0.2719079122)
(1746.144398 4.462364208 0.4431900842)
(1736.857843 5.614234168 2.83615844)
(1735.528203 6.119472255 1.408526848)
(1737.02188 6.132312298 -0.6694573091)
(1738.761996 6.434942489 -1.375137563)
(1736.126 5.453771215 -0.2692322281)
(1735.06222 5.61875922 1.793706638)
(1735.204976 4.627298341 0.1382753481)
(1735.833169 6.108159465 -2.027351945)
(1735.00338 9.89077565 -3.009093277)
(1735.144038 11.42074246 -0.8842209648)
(1735.463497 8.403619795 0.8141487061)
(1736.32411 7.791458582 1.745206237)
(1735.167052 8.98014165 1.442125841)
(1735.10955 8.689352506 1.155569035)
(1734.314246 4.914236282 1.088647204)
(1732.671089 6.921441849 0.435666762)
(1734.897083 6.195839485 1.163871879)
(1736.45801 7.080361507 2.677248365)
(1736.317281 5.918069202 3.06734379)
(1739.386899 6.677545496 0.7124409083)
(1740.419829 5.9983275 2.60454213)
(1741.311102 4.697119744 3.077958801)
(1741.425587 3.879416574 1.440920352)
(1740.182423 5.152874698 3.861134272)
(1741.088267 4.265912453 5.523209349)
(1739.963572 4.755085882 3.751843865)
(1738.756798 6.366318431 3.893817249)
(1739.235139 5.060277382 3.504039111)
)
;
    }
    obstacle
    {
        type            calculated;
        value           nonuniform List<vector> 0();
    }
    frontAndBack
    {
        type            empty;
    }
    procBoundary2to0
    {
        type            processor;
        value           nonuniform List<vector> 
31
(
(1708.419772 4.776623001 0.07431845685)
(1748.05615 3.111961558 -1.267596158)
(1739.235987 -2.086293002 -2.538938138)
(1741.405265 0.2193998692 -2.119160795)
(1740.0336 0.02262441336 -1.938748309)
(1738.838981 2.316563213 -1.407394943)
(1736.79094 1.145416211 -3.097423171)
(1737.441378 1.529111746 0.3455056719)
(1734.918048 1.612197191 1.027037993)
(1733.522366 2.073937551 0.0385394035)
(1732.457266 2.514209204 4.205338014)
(1731.768455 -0.780037956 2.640511061)
(1732.243288 -1.088413016 1.825191613)
(1732.203012 -2.27059819 0.2163730492)
(1732.866809 -3.823037692 -2.975107809)
(1736.14021 -2.250591663 -2.429622357)
(1734.93752 -0.1385552248 -1.909531791)
(1736.031496 3.666572225 -2.872001891)
(1737.090475 4.392845399 -2.480029941)
(1737.654082 6.284481493 -2.996163418)
(1737.479833 4.173465529 0.5137156956)
(1735.865879 5.772213542 1.273657005)
(1734.487513 4.604405832 2.230858935)
(1729.29655 6.884389826 -0.4782182032)
(1725.607399 8.954593995 2.401813643)
(1723.45758 10.61344158 4.404973149)
(1737.840612 3.794505443 -3.696353219)
(1737.693825 5.504934532 -3.390119551)
(1733.413329 4.359296062 -3.645186477)
(1734.435674 5.529934023 -2.971904719)
(1734.435674 5.529934023 -2.971904719)
)
;
    }
    procBoundary2to3
    {
        type            processor;
        value           nonuniform List<vector> 
19
(
(1726.598027 12.17178897 -1.651124728)
(1731.580633 10.19622437 1.244096343)
(1730.755189 8.827776128 1.522076812)
(1731.84055 4.433391095 -1.249864995)
(1730.255052 -0.8649331653 -0.4885695079)
(1732.699125 2.900229938 2.624281994)
(1733.564154 3.451174467 -4.873925976)
(1736.855473 -0.3430780932 0.6055130244)
(1733.566247 -0.6461524961 -3.834906686)
(1733.724591 2.672627051 -2.213369342)
(1736.122168 2.492937273 3.531771658)
(1734.977773 2.626344878 -2.260116648)
(1735.459442 -0.6823299631 -3.656656939)
(1732.906839 0.849744919 1.375697136)
(1737.845536 2.045787291 -0.4948052719)
(1734.717725 4.034183566 -1.393962228)
(1732.192688 2.269825325 -1.709526212)
(1736.009429 0.108749752 0.4493460442)
(1736.28158 3.31438417 2.945234696)
)
;
    }
}


// ************************************************************************* //
