/*--------------------------------*- C++ -*----------------------------------*\
| =========                 |                                                 |
| \\      /  F ield         | OpenFOAM: The Open Source CFD Toolbox           |
|  \\    /   O peration     | Version:  2406                                  |
|   \\  /    A nd           | Website:  www.openfoam.com                      |
|    \\/     M anipulation  |                                                 |
\*---------------------------------------------------------------------------*/
FoamFile
{
    version     2.0;
    format      ascii;
    arch        "LSB;label=32;scalar=64";
    class       volScalarField;
    location    "0.011";
    object      dsmcRhoNMean;
}
// * * * * * * * * * * * * * * * * * * * * * * * * * * * * * * * * * * * * * //

dimensions      [0 -3 0 0 0 0 0];

internalField   nonuniform List<scalar> 
546
(
7.418363636
9.575818182
9.658545455
9.631090909
9.612363636
9.618727273
9.626727273
9.599818182
9.550727273
9.624545455
9.635090909
9.678909091
9.656181818
9.601636364
9.601272727
9.594727273
9.605090909
9.620545455
9.551454545
9.526727273
7.466545455
9.573090909
9.632363636
9.672181818
9.684
9.656909091
9.628363636
9.645636364
9.612545455
9.577818182
9.579818182
9.563090909
9.577454545
9.552
9.589454545
9.546727273
9.556
9.601090909
9.633818182
9.616909091
7.414727273
9.527272727
9.557636364
9.529454545
9.538909091
9.558363636
9.605636364
9.602363636
9.588909091
9.624727273
9.594181818
9.594
9.557272727
9.509818182
9.544181818
9.566
9.523636364
9.528727273
9.507272727
9.501636364
7.454727273
9.592363636
9.621636364
9.563090909
9.585636364
9.539636364
9.534181818
9.536909091
9.604363636
9.557454545
9.604181818
9.626
9.684181818
9.662
9.623818182
9.594545455
9.596181818
9.582727273
9.663090909
9.659090909
7.443090909
9.587090909
9.618181818
9.617454545
9.601454545
9.615090909
9.580545455
9.584181818
9.522181818
9.474363636
9.481454545
9.436727273
9.465454545
9.524727273
9.602909091
9.650181818
9.688545455
9.666363636
9.625636364
9.613454545
7.430545455
9.572363636
9.604909091
9.622181818
9.673818182
9.691636364
9.649090909
9.634727273
9.677454545
9.687090909
9.718545455
9.695272727
9.671272727
9.604181818
9.589636364
9.601818182
9.606545455
9.570363636
9.609636364
9.620909091
7.444909091
9.550909091
9.602545455
9.599272727
9.540181818
9.562909091
9.594909091
9.646909091
9.638181818
9.658
9.671272727
9.675636364
9.695454545
9.661818182
9.646727273
9.630363636
9.644181818
9.607090909
9.617636364
9.611636364
7.420909091
9.603090909
9.663090909
9.661272727
9.679818182
9.655454545
9.681454545
9.642727273
9.649636364
9.624909091
9.623818182
9.577454545
9.587636364
9.586545455
9.611636364
9.638181818
9.640727273
9.681454545
9.712727273
9.704909091
7.444909091
9.562727273
9.571636364
9.597272727
9.593818182
9.553090909
9.539818182
9.596727273
9.568181818
9.637272727
9.669636364
9.683272727
9.685272727
9.696727273
9.645454545
9.571636364
9.593272727
9.586727273
9.543454545
9.534909091
7.417454545
9.515636364
9.570727273
9.557454545
9.556181818
9.576363636
9.580727273
9.601454545
9.576181818
9.529818182
9.493272727
9.524181818
9.547454545
9.581090909
9.602181818
9.607636364
9.601272727
9.539818182
9.527272727
9.494727273
7.467272727
9.582363636
9.612363636
9.585818182
9.584181818
9.556545455
9.578363636
9.519454545
9.566545455
9.601454545
9.595090909
9.586727273
9.574909091
9.545454545
9.520363636
9.533454545
9.546363636
9.592909091
9.654727273
9.677454545
7.413090909
9.593636364
9.623090909
9.623090909
9.600363636
9.567454545
9.606545455
9.566
9.524
9.529272727
9.494
9.532181818
9.531454545
9.571818182
9.616
9.589272727
9.621636364
9.548363636
9.590363636
9.596545455
7.463272727
9.589818182
9.658181818
9.621090909
9.646363636
9.620909091
9.610181818
9.614363636
9.65
9.650727273
9.646181818
9.688
9.690909091
9.662545455
9.650363636
9.691090909
9.605636364
9.676727273
9.659818182
9.643090909
7.414545455
9.497818182
9.573090909
9.569636364
9.580181818
9.607454545
9.627636364
9.682181818
9.663454545
9.647090909
9.592181818
9.532909091
9.486727273
9.539454545
9.545090909
9.562909091
9.587090909
9.555454545
9.551272727
9.561818182
7.456363636
9.612
9.627818182
9.568909091
9.620181818
9.608
9.558909091
9.592
9.573454545
9.553090909
9.533090909
9.576909091
9.61
9.552
9.554545455
9.529272727
9.515636364
9.526909091
9.569272727
9.590181818
7.407818182
9.522727273
9.577636364
9.612727273
9.645272727
9.587090909
9.546363636
9.515272727
9.513454545
9.574545455
9.590545455
9.583272727
9.572545455
9.589272727
9.643090909
9.636727273
9.627272727
9.592363636
9.551454545
9.562
7.475272727
9.644909091
9.666363636
9.603636364
9.540545455
9.624545455
9.655818182
9.680727273
9.660727273
9.694727273
9.667454545
9.626909091
9.651636364
9.594363636
9.607272727
9.588181818
9.592727273
9.576363636
9.622909091
9.598545455
7.289818182
9.362
9.437272727
9.491454545
9.486909091
9.494363636
9.518
9.510727273
9.484181818
9.482909091
9.543636364
9.539090909
9.555636364
9.547272727
9.514363636
9.518363636
9.512363636
9.548
9.562363636
9.557272727
9.365090909
9.309272727
9.237272727
9.159818182
9.106
9.093272727
9.509818182
9.468
9.406545455
9.287090909
9.268545455
9.247272727
9.233090909
9.174181818
9.062545455
8.992363636
9.604181818
9.558545455
9.533454545
9.482181818
9.377272727
9.280363636
9.183636364
9.158
9.096
9.076545455
9.506181818
9.426545455
9.360727273
9.290909091
9.261272727
9.188727273
9.148181818
9.100909091
9.076727273
9.036545455
9.643818182
9.589636364
9.467636364
9.463272727
9.376545455
9.295636364
9.190727273
9.124727273
8.995636364
8.977818182
9.590363636
9.486363636
9.435272727
9.341454545
9.283272727
9.211636364
9.219090909
9.217636364
9.107272727
9.020909091
9.572545455
9.508363636
9.451272727
9.426
9.432545455
9.378727273
9.255454545
9.174181818
9.152181818
9.094181818
9.580909091
9.541090909
9.466909091
9.415454545
9.281454545
9.212181818
9.166181818
9.119636364
8.977818182
8.888909091
9.695272727
9.627636364
9.464
9.314363636
9.228909091
9.154363636
9.094363636
8.996909091
8.960363636
8.913636364
9.430545455
9.358727273
9.307818182
9.208181818
9.202909091
9.159272727
9.119272727
8.997818182
8.959454545
8.889272727
9.472909091
9.478
9.448545455
9.449090909
9.360545455
9.294545455
9.228727273
9.176181818
9.125090909
8.986363636
9.650363636
9.541454545
9.444181818
9.378727273
9.342181818
9.251272727
9.176545455
9.103818182
9.061090909
9.020181818
9.576363636
9.517818182
9.460181818
9.355636364
9.280181818
9.217090909
9.17
9.159090909
9.107090909
9.07
9.55
9.511818182
9.475272727
9.424545455
9.322727273
9.304181818
9.196545455
9.133454545
9.032727273
8.968363636
9.569090909
9.534909091
9.433090909
9.410727273
9.371272727
9.253636364
9.179272727
9.113090909
9.033090909
8.898363636
9.516363636
9.466727273
9.386
9.330181818
9.267090909
9.212181818
9.130545455
9.08
9.058
9.039454545
9.512909091
9.471090909
9.404363636
9.352545455
9.318
9.204181818
9.168909091
9.077090909
9.027272727
9.001090909
9.540363636
9.452181818
9.384
9.293818182
9.241090909
9.209636364
9.173090909
9.163272727
9.114909091
8.997272727
9.517818182
9.431272727
9.362545455
9.369090909
9.215818182
9.142545455
9.100363636
8.964
8.845818182
8.85
)
;

boundaryField
{
    flow
    {
        type            calculated;
        value           nonuniform List<scalar> 
48
(
7.418363636
7.466545455
7.414727273
7.454727273
7.443090909
7.430545455
7.444909091
7.420909091
7.444909091
7.417454545
7.467272727
7.413090909
7.463272727
7.414545455
7.456363636
7.407818182
7.475272727
7.289818182
7.289818182
9.362
9.437272727
9.491454545
9.486909091
9.494363636
9.518
9.510727273
9.484181818
9.482909091
9.543636364
9.539090909
9.555636364
9.547272727
9.514363636
9.518363636
9.512363636
9.548
9.562363636
9.557272727
9.517818182
9.431272727
9.362545455
9.369090909
9.215818182
9.142545455
9.100363636
8.964
8.845818182
8.85
)
;
    }
    obstacle
    {
        type            calculated;
        value           nonuniform List<scalar> 0();
    }
    frontAndBack
    {
        type            empty;
    }
    procBoundary2to0
    {
        type            processor;
        value           nonuniform List<scalar> 
31
(
7.434181818
9.566181818
9.596363636
9.528181818
9.563818182
9.534909091
9.601636364
9.651454545
9.710545455
9.671636364
9.646909091
9.626727273
9.647636364
9.648545455
9.604727273
9.623636364
9.587090909
9.583636364
9.627636364
9.617636364
9.310363636
9.259818182
9.190727273
9.157272727
9.196181818
9.147818182
9.588
9.468
9.436727273
9.403090909
9.403090909
)
;
    }
    procBoundary2to3
    {
        type            processor;
        value           nonuniform List<scalar> 
19
(
9.054
8.976545455
9
8.991636364
8.925454545
8.936727273
9.049090909
8.810181818
8.885636364
8.802727273
8.926181818
8.942545455
9.011090909
8.904
8.878727273
8.934545455
8.981454545
8.917090909
8.756181818
)
;
    }
}


// ************************************************************************* //
