/*--------------------------------*- C++ -*----------------------------------*\
| =========                 |                                                 |
| \\      /  F ield         | OpenFOAM: The Open Source CFD Toolbox           |
|  \\    /   O peration     | Version:  2406                                  |
|   \\  /    A nd           | Website:  www.openfoam.com                      |
|    \\/     M anipulation  |                                                 |
\*---------------------------------------------------------------------------*/
FoamFile
{
    version     2.0;
    format      ascii;
    arch        "LSB;label=32;scalar=64";
    class       volScalarField;
    location    "0.011";
    object      iDofMean;
}
// * * * * * * * * * * * * * * * * * * * * * * * * * * * * * * * * * * * * * //

dimensions      [0 -3 0 0 0 0 0];

internalField   nonuniform List<scalar> 
546
(
1.545096493e+20
1.994451043e+20
2.011681476e+20
2.005963245e+20
2.002062729e+20
2.003388147e+20
2.005054387e+20
1.999449762e+20
1.98922511e+20
2.004599958e+20
2.006796364e+20
2.015922814e+20
2.011189178e+20
1.999828453e+20
1.999752715e+20
1.998389428e+20
2.000547966e+20
2.003766838e+20
1.989376586e+20
1.98422639e+20
1.555131801e+20
1.993883007e+20
2.006228328e+20
2.014521658e+20
2.016983148e+20
2.011340655e+20
2.005395208e+20
2.008992771e+20
2.002100598e+20
1.994867603e+20
1.995284163e+20
1.991800207e+20
1.994791865e+20
1.989490193e+20
1.997291224e+20
1.98839199e+20
1.990323313e+20
1.999714846e+20
2.006531281e+20
2.003009456e+20
1.544339112e+20
1.984339998e+20
1.990664135e+20
1.984794427e+20
1.986763619e+20
1.990815611e+20
2.000661573e+20
1.999979929e+20
1.997177617e+20
2.004637827e+20
1.998275821e+20
1.998237952e+20
1.990588397e+20
1.980704566e+20
1.987861823e+20
1.992406113e+20
1.983582616e+20
1.98464295e+20
1.980174398e+20
1.979000457e+20
1.55267031e+20
1.99789713e+20
2.003994052e+20
1.991800207e+20
1.996495974e+20
1.986915095e+20
1.985779023e+20
1.986347059e+20
2.000396489e+20
1.990626266e+20
2.00035862e+20
2.00490291e+20
2.017021017e+20
2.012400989e+20
2.004448481e+20
1.998351559e+20
1.998692381e+20
1.995890068e+20
2.012628203e+20
2.011795084e+20
1.550246689e+20
1.996798926e+20
2.00327454e+20
2.003123063e+20
1.999790584e+20
2.002630765e+20
1.995435639e+20
1.996193021e+20
1.983279663e+20
1.973320094e+20
1.974796989e+20
1.965481194e+20
1.971464509e+20
1.983809831e+20
2.000093537e+20
2.009939498e+20
2.017929875e+20
2.013309847e+20
2.004827172e+20
2.002289944e+20
1.547633722e+20
1.993731531e+20
2.000510097e+20
2.00410766e+20
2.014862479e+20
2.01857365e+20
2.009712284e+20
2.006720626e+20
2.015619861e+20
2.017626922e+20
2.024178274e+20
2.019331031e+20
2.014332312e+20
2.00035862e+20
1.997329094e+20
1.999866322e+20
2.000850918e+20
1.993314971e+20
2.001494693e+20
2.003842576e+20
1.55062538e+20
1.989262979e+20
2.000017798e+20
1.999336155e+20
1.987028703e+20
1.991762338e+20
1.998427297e+20
2.009257855e+20
2.007440139e+20
2.011567869e+20
2.014332312e+20
2.01524117e+20
2.0193689e+20
2.01236312e+20
2.009219986e+20
2.005811768e+20
2.008689819e+20
2.000964526e+20
2.003160932e+20
2.001911253e+20
1.54562666e+20
2.000131406e+20
2.012628203e+20
2.012249513e+20
2.016112159e+20
2.011037702e+20
2.016452981e+20
2.008386866e+20
2.009825891e+20
2.004675696e+20
2.004448481e+20
1.994791865e+20
1.996912534e+20
1.996685319e+20
2.001911253e+20
2.007440139e+20
2.007970306e+20
2.016452981e+20
2.022966463e+20
2.021338093e+20
1.55062538e+20
1.991724469e+20
1.993580054e+20
1.998919595e+20
1.998200082e+20
1.989717408e+20
1.986952965e+20
1.998805988e+20
1.992860542e+20
2.007250793e+20
2.01399149e+20
2.016831672e+20
2.017248232e+20
2.019633984e+20
2.008954902e+20
1.993580054e+20
1.998086475e+20
1.996723188e+20
1.987710346e+20
1.985930499e+20
1.544907148e+20
1.981916376e+20
1.993390709e+20
1.990626266e+20
1.990361182e+20
1.99456465e+20
1.995473508e+20
1.999790584e+20
1.994526781e+20
1.984870165e+20
1.977258479e+20
1.983696223e+20
1.988543466e+20
1.995549247e+20
1.99994206e+20
2.001078133e+20
1.999752715e+20
1.986952965e+20
1.984339998e+20
1.977561432e+20
1.555283277e+20
1.99581433e+20
2.002062729e+20
1.996533843e+20
1.996193021e+20
1.99043692e+20
1.99498121e+20
1.982711627e+20
1.99251972e+20
1.999790584e+20
1.998465166e+20
1.996723188e+20
1.994261698e+20
1.988126906e+20
1.982900973e+20
1.985627547e+20
1.988316252e+20
1.998010737e+20
2.010886226e+20
2.015619861e+20
1.54399829e+20
1.998162213e+20
2.004297005e+20
2.004297005e+20
1.999563369e+20
1.992709065e+20
2.000850918e+20
1.992406113e+20
1.983658354e+20
1.984756558e+20
1.977409955e+20
1.985362463e+20
1.985210987e+20
1.993617923e+20
2.002820111e+20
1.997253355e+20
2.003994052e+20
1.988732811e+20
1.99748057e+20
1.998768119e+20
1.554450157e+20
1.997366963e+20
2.011605738e+20
2.003880445e+20
2.009144248e+20
2.003842576e+20
2.0016083e+20
2.002479289e+20
2.009901629e+20
2.010053106e+20
2.009106379e+20
2.017816268e+20
2.018422173e+20
2.012514596e+20
2.009977368e+20
2.018460042e+20
2.000661573e+20
2.015468385e+20
2.01194656e+20
2.008462604e+20
1.544301243e+20
1.978205206e+20
1.993883007e+20
1.993163494e+20
1.995359901e+20
2.001040264e+20
2.005243732e+20
2.016604457e+20
2.012703942e+20
2.009295724e+20
1.997859261e+20
1.985513939e+20
1.975895192e+20
1.986877226e+20
1.988051168e+20
1.991762338e+20
1.996798926e+20
1.990209706e+20
1.989338717e+20
1.991535124e+20
1.553011132e+20
2.001986991e+20
2.005281601e+20
1.993012018e+20
2.0036911e+20
2.001153871e+20
1.990929218e+20
1.997821392e+20
1.993958745e+20
1.989717408e+20
1.985551808e+20
1.994678258e+20
2.001570431e+20
1.989490193e+20
1.99002036e+20
1.984756558e+20
1.981916376e+20
1.98426426e+20
1.993087756e+20
1.997442701e+20
1.542900086e+20
1.983393271e+20
1.994829734e+20
2.002138467e+20
2.008917033e+20
1.996798926e+20
1.988316252e+20
1.981840638e+20
1.981461947e+20
1.99418596e+20
1.997518439e+20
1.996003676e+20
1.9937694e+20
1.997253355e+20
2.008462604e+20
2.007137186e+20
2.005167994e+20
1.99789713e+20
1.989376586e+20
1.991572993e+20
1.556949517e+20
2.008841295e+20
2.013309847e+20
2.000245013e+20
1.987104441e+20
2.004599958e+20
2.01111344e+20
2.016301505e+20
2.012135905e+20
2.019217424e+20
2.013537061e+20
2.005092256e+20
2.010242451e+20
1.99831369e+20
2.001002395e+20
1.997026141e+20
1.997972868e+20
1.99456465e+20
2.004259136e+20
1.999184679e+20
1.518323051e+20
1.949917e+20
1.965594801e+20
1.976879788e+20
1.975933061e+20
1.977485694e+20
1.982408674e+20
1.980893911e+20
1.975365025e+20
1.975099941e+20
1.987748215e+20
1.986801488e+20
1.990247575e+20
1.988505597e+20
1.981651293e+20
1.982484413e+20
1.981234733e+20
1.988657073e+20
1.991648731e+20
1.990588397e+20
2.012451281e+20
2.01460097e+20
2.013254464e+20
2.010691319e+20
2.013317091e+20
2.02513228e+20
1.987728648e+20
1.992595611e+20
1.993368756e+20
1.981776038e+20
1.991704763e+20
2.001183675e+20
2.012343055e+20
2.013844311e+20
2.00370937e+20
2.002659155e+20
2.007452415e+20
2.011651428e+20
2.020262435e+20
2.023406565e+20
2.015069001e+20
2.008344826e+20
2.001564485e+20
2.010292206e+20
2.011106112e+20
2.021407005e+20
1.986968581e+20
1.983871261e+20
1.98365929e+20
1.982590801e+20
1.990141937e+20
1.988513971e+20
1.993837202e+20
1.997760072e+20
2.00684494e+20
2.012498725e+20
2.015737138e+20
2.018194677e+20
2.00631471e+20
2.01937156e+20
2.014912732e+20
2.011649952e+20
2.003109928e+20
2.002988424e+20
1.988915913e+20
1.999419785e+20
2.004564145e+20
1.996460332e+20
1.999456437e+20
1.993376729e+20
1.994869486e+20
1.993471681e+20
2.009291769e+20
2.023383126e+20
2.013598488e+20
2.009016417e+20
2.000839814e+20
2.001090373e+20
2.002847044e+20
2.011417904e+20
2.026946494e+20
2.029631503e+20
2.017217187e+20
2.013844311e+20
2.023527792e+20
2.025334755e+20
2.002587982e+20
2.007978018e+20
2.006160592e+20
2.009167619e+20
1.99447878e+20
1.993589722e+20
1.997760285e+20
2.001870921e+20
1.984976352e+20
1.97961914e+20
2.026492093e+20
2.026192011e+20
2.005544131e+20
1.98759579e+20
1.983187361e+20
1.981077406e+20
1.982107569e+20
1.974930795e+20
1.981117203e+20
1.985126068e+20
1.971159176e+20
1.969598518e+20
1.972447155e+20
1.964937582e+20
1.977600243e+20
1.982139786e+20
1.987536508e+20
1.975130365e+20
1.980916205e+20
1.979700124e+20
1.980013963e+20
1.994700169e+20
2.002269113e+20
2.016345296e+20
2.011474528e+20
2.011413885e+20
2.011391991e+20
2.014283321e+20
2.017538036e+20
2.001322915e+20
2.017105273e+20
2.008054547e+20
2.001344388e+20
2.001330372e+20
2.007528378e+20
2.002049307e+20
2.000019029e+20
1.998398653e+20
2.003387787e+20
2.008854449e+20
2.001637885e+20
2.003080124e+20
2.004734982e+20
1.99640298e+20
1.994205285e+20
1.994652089e+20
1.99859244e+20
2.010531673e+20
2.013558289e+20
2.019949289e+20
1.996127395e+20
2.001817402e+20
2.007932968e+20
2.011107532e+20
2.003347818e+20
2.013499271e+20
2.004378023e+20
2.004904194e+20
1.997116634e+20
1.997314181e+20
2.000117749e+20
2.006677005e+20
1.998994068e+20
2.008158851e+20
2.013779683e+20
2.002560817e+20
2.000613421e+20
2.000434101e+20
1.997197033e+20
1.981724744e+20
1.98909677e+20
1.992327758e+20
1.989014921e+20
1.990971224e+20
1.991392184e+20
1.993589722e+20
1.989993374e+20
1.993170272e+20
2.002704394e+20
2.013146613e+20
1.988374719e+20
1.993246111e+20
1.9929064e+20
1.995743423e+20
2.002331981e+20
1.991858458e+20
1.998354677e+20
1.992531678e+20
1.99591066e+20
2.004602776e+20
1.994113216e+20
1.989266583e+20
1.988591082e+20
1.983211573e+20
1.985805094e+20
1.993038879e+20
1.999266128e+20
2.011449633e+20
2.015286858e+20
2.003752442e+20
1.989400797e+20
1.98486613e+20
1.984044586e+20
1.999274064e+20
1.980374273e+20
1.978519857e+20
1.983415263e+20
1.96770685e+20
1.955791448e+20
1.970953827e+20
)
;

boundaryField
{
    flow
    {
        type            calculated;
        value           nonuniform List<scalar> 
48
(
1.545096493e+20
1.555131801e+20
1.544339112e+20
1.55267031e+20
1.550246689e+20
1.547633722e+20
1.55062538e+20
1.54562666e+20
1.55062538e+20
1.544907148e+20
1.555283277e+20
1.54399829e+20
1.554450157e+20
1.544301243e+20
1.553011132e+20
1.542900086e+20
1.556949517e+20
1.518323051e+20
1.518323051e+20
1.949917e+20
1.965594801e+20
1.976879788e+20
1.975933061e+20
1.977485694e+20
1.982408674e+20
1.980893911e+20
1.975365025e+20
1.975099941e+20
1.987748215e+20
1.986801488e+20
1.990247575e+20
1.988505597e+20
1.981651293e+20
1.982484413e+20
1.981234733e+20
1.988657073e+20
1.991648731e+20
1.990588397e+20
1.989400797e+20
1.98486613e+20
1.984044586e+20
1.999274064e+20
1.980374273e+20
1.978519857e+20
1.983415263e+20
1.96770685e+20
1.955791448e+20
1.970953827e+20
)
;
    }
    obstacle
    {
        type            calculated;
        value           nonuniform List<scalar> 0();
    }
    frontAndBack
    {
        type            empty;
    }
    procBoundary2to0
    {
        type            processor;
        value           nonuniform List<scalar> 
31
(
1.548391104e+20
1.992443982e+20
1.99873025e+20
1.984529343e+20
1.991951684e+20
1.985930499e+20
1.999828453e+20
2.010204582e+20
2.022512034e+20
2.01440805e+20
2.009257855e+20
2.005054387e+20
2.009409331e+20
2.009598677e+20
2.000472227e+20
2.004410612e+20
1.996798926e+20
1.996079414e+20
2.005243732e+20
2.003160932e+20
2.000691014e+20
2.003898612e+20
2.003109942e+20
2.010132574e+20
2.033256098e+20
2.037279915e+20
2.004070101e+20
1.992595598e+20
1.999764674e+20
2.006529338e+20
2.006529338e+20
)
;
    }
    procBoundary2to3
    {
        type            processor;
        value           nonuniform List<scalar> 
19
(
2.031165491e+20
2.013789414e+20
2.019051199e+20
2.017174894e+20
2.00232773e+20
2.004856657e+20
2.030064205e+20
1.976467559e+20
1.993394972e+20
1.974795214e+20
2.002490886e+20
2.006161902e+20
2.021539308e+20
1.997514638e+20
1.991845008e+20
2.004367176e+20
2.014890715e+20
2.000451454e+20
1.964353252e+20
)
;
    }
}


// ************************************************************************* //
