/*--------------------------------*- C++ -*----------------------------------*\
| =========                 |                                                 |
| \\      /  F ield         | OpenFOAM: The Open Source CFD Toolbox           |
|  \\    /   O peration     | Version:  2406                                  |
|   \\  /    A nd           | Website:  www.openfoam.com                      |
|    \\/     M anipulation  |                                                 |
\*---------------------------------------------------------------------------*/
FoamFile
{
    version     2.0;
    format      ascii;
    arch        "LSB;label=32;scalar=64";
    class       volScalarField;
    location    "0.011";
    object      iDof;
}
// * * * * * * * * * * * * * * * * * * * * * * * * * * * * * * * * * * * * * //

dimensions      [0 -3 0 0 0 0 0];

internalField   nonuniform List<scalar> 
546
(
1.24967977e+20
2.082799616e+20
2.082799616e+20
1.666239693e+20
1.874519654e+20
1.874519654e+20
1.24967977e+20
1.874519654e+20
2.291079578e+20
1.666239693e+20
2.499359539e+20
2.082799616e+20
2.499359539e+20
2.707639501e+20
2.291079578e+20
1.874519654e+20
2.291079578e+20
1.457959731e+20
2.082799616e+20
1.666239693e+20
2.082799616e+20
3.124199424e+20
1.24967977e+20
2.291079578e+20
1.874519654e+20
1.874519654e+20
1.666239693e+20
1.666239693e+20
1.874519654e+20
2.499359539e+20
1.874519654e+20
3.124199424e+20
6.248398848e+19
1.041399808e+20
1.666239693e+20
2.499359539e+20
2.499359539e+20
8.331198464e+19
2.707639501e+20
3.332479385e+20
1.666239693e+20
1.874519654e+20
1.041399808e+20
2.082799616e+20
1.24967977e+20
1.041399808e+20
2.499359539e+20
1.874519654e+20
2.915919462e+20
1.874519654e+20
2.707639501e+20
2.082799616e+20
1.041399808e+20
3.332479385e+20
2.082799616e+20
1.666239693e+20
1.24967977e+20
3.540759347e+20
1.457959731e+20
1.457959731e+20
1.24967977e+20
2.291079578e+20
3.124199424e+20
1.457959731e+20
2.082799616e+20
2.915919462e+20
2.291079578e+20
1.874519654e+20
1.041399808e+20
1.666239693e+20
1.24967977e+20
2.082799616e+20
2.707639501e+20
1.457959731e+20
2.499359539e+20
1.874519654e+20
2.082799616e+20
1.874519654e+20
2.291079578e+20
2.915919462e+20
2.291079578e+20
2.499359539e+20
1.874519654e+20
2.082799616e+20
1.874519654e+20
2.707639501e+20
2.707639501e+20
2.291079578e+20
1.041399808e+20
1.874519654e+20
3.540759347e+20
2.291079578e+20
2.082799616e+20
2.291079578e+20
2.082799616e+20
1.041399808e+20
2.499359539e+20
2.499359539e+20
1.666239693e+20
3.124199424e+20
1.041399808e+20
1.24967977e+20
2.291079578e+20
2.082799616e+20
1.874519654e+20
1.041399808e+20
1.24967977e+20
2.082799616e+20
3.332479385e+20
2.291079578e+20
1.666239693e+20
2.915919462e+20
2.499359539e+20
2.291079578e+20
2.915919462e+20
2.082799616e+20
1.874519654e+20
1.666239693e+20
1.24967977e+20
2.082799616e+20
1.24967977e+20
2.707639501e+20
1.24967977e+20
1.457959731e+20
2.499359539e+20
2.707639501e+20
1.874519654e+20
1.874519654e+20
2.707639501e+20
1.457959731e+20
2.499359539e+20
1.457959731e+20
1.457959731e+20
2.082799616e+20
1.666239693e+20
1.874519654e+20
2.291079578e+20
1.666239693e+20
2.499359539e+20
1.666239693e+20
1.457959731e+20
2.707639501e+20
1.041399808e+20
2.082799616e+20
1.874519654e+20
1.666239693e+20
1.24967977e+20
1.666239693e+20
2.082799616e+20
1.874519654e+20
1.457959731e+20
2.291079578e+20
2.499359539e+20
1.874519654e+20
1.24967977e+20
3.124199424e+20
2.082799616e+20
2.082799616e+20
1.041399808e+20
8.331198464e+19
1.457959731e+20
2.082799616e+20
1.874519654e+20
1.24967977e+20
1.874519654e+20
1.666239693e+20
1.24967977e+20
2.291079578e+20
2.499359539e+20
2.291079578e+20
1.457959731e+20
1.666239693e+20
4.165599232e+19
1.874519654e+20
1.24967977e+20
1.041399808e+20
2.707639501e+20
2.915919462e+20
1.874519654e+20
1.874519654e+20
1.24967977e+20
2.082799616e+20
3.332479385e+20
1.041399808e+20
3.540759347e+20
2.291079578e+20
1.24967977e+20
1.666239693e+20
1.457959731e+20
2.082799616e+20
1.457959731e+20
1.874519654e+20
1.666239693e+20
1.666239693e+20
3.124199424e+20
1.457959731e+20
2.291079578e+20
1.24967977e+20
8.331198464e+19
1.666239693e+20
1.24967977e+20
2.707639501e+20
2.499359539e+20
1.457959731e+20
2.499359539e+20
2.707639501e+20
1.457959731e+20
2.082799616e+20
2.499359539e+20
1.874519654e+20
1.24967977e+20
2.291079578e+20
2.499359539e+20
2.291079578e+20
2.291079578e+20
1.874519654e+20
2.499359539e+20
1.666239693e+20
8.331198464e+19
1.666239693e+20
1.457959731e+20
1.874519654e+20
1.874519654e+20
1.666239693e+20
3.332479385e+20
1.666239693e+20
8.331198464e+19
2.499359539e+20
4.165599232e+19
1.666239693e+20
2.915919462e+20
2.082799616e+20
1.24967977e+20
2.082799616e+20
1.874519654e+20
1.874519654e+20
2.082799616e+20
1.874519654e+20
2.291079578e+20
2.707639501e+20
1.24967977e+20
2.291079578e+20
1.457959731e+20
1.457959731e+20
2.499359539e+20
2.082799616e+20
1.041399808e+20
1.874519654e+20
2.499359539e+20
2.499359539e+20
1.666239693e+20
6.248398848e+19
2.082799616e+20
1.457959731e+20
2.499359539e+20
2.082799616e+20
1.666239693e+20
1.874519654e+20
2.291079578e+20
2.291079578e+20
2.291079578e+20
2.291079578e+20
1.457959731e+20
2.707639501e+20
1.041399808e+20
1.457959731e+20
2.291079578e+20
2.707639501e+20
2.499359539e+20
3.332479385e+20
1.666239693e+20
2.291079578e+20
2.707639501e+20
2.082799616e+20
3.124199424e+20
2.915919462e+20
1.666239693e+20
3.124199424e+20
1.457959731e+20
1.457959731e+20
1.666239693e+20
2.707639501e+20
1.666239693e+20
3.124199424e+20
1.666239693e+20
2.082799616e+20
2.499359539e+20
1.24967977e+20
2.291079578e+20
1.874519654e+20
1.874519654e+20
1.666239693e+20
2.499359539e+20
2.291079578e+20
2.082799616e+20
1.457959731e+20
1.666239693e+20
1.041399808e+20
1.874519654e+20
1.874519654e+20
1.457959731e+20
1.24967977e+20
1.874519654e+20
1.457959731e+20
1.666239693e+20
2.915919462e+20
3.749039309e+20
1.666239693e+20
2.499359539e+20
2.707639501e+20
1.874519654e+20
2.082799616e+20
8.331198464e+19
3.332479385e+20
2.707639501e+20
2.915919462e+20
2.291079578e+20
2.082799616e+20
1.24967977e+20
2.707639501e+20
2.082799616e+20
3.124199424e+20
2.291079578e+20
1.666239693e+20
1.874519654e+20
1.666239693e+20
1.457959731e+20
3.540759347e+20
1.457959731e+20
2.499359539e+20
2.707639501e+20
1.666239693e+20
2.499359539e+20
4.165599232e+19
8.331198464e+19
3.749039309e+20
2.082799616e+20
3.332479385e+20
1.666239693e+20
1.666239693e+20
1.457959731e+20
1.041399808e+20
2.291079578e+20
2.291079578e+20
2.082799616e+20
1.041399808e+20
1.874519654e+20
1.666239693e+20
1.874519654e+20
2.082799616e+20
2.291079578e+20
1.874519654e+20
2.915919462e+20
8.331198464e+19
1.24967977e+20
1.24967977e+20
2.499359539e+20
1.874519654e+20
1.666239693e+20
2.915919462e+20
2.148886007e+20
8.656319476e+19
1.08974506e+20
1.756097144e+20
1.768782861e+20
3.117893059e+20
1.881167178e+20
3.367292964e+20
2.542955348e+20
1.707123195e+20
1.933997406e+20
1.514855908e+20
1.961541121e+20
1.756097144e+20
1.547684992e+20
1.336239882e+20
1.672148614e+20
2.104558102e+20
1.48339062e+20
1.707123195e+20
2.79355179e+20
2.380487872e+20
8.717960539e+19
2.414633573e+20
2.432076433e+20
1.336239882e+20
2.090185754e+20
2.315013913e+20
2.966781239e+20
1.707123195e+20
3.00844041e+20
1.514855908e+20
1.961541121e+20
1.536585012e+20
2.432076416e+20
1.336239873e+20
1.463130028e+20
2.315013897e+20
1.695303565e+20
2.133904008e+20
1.933997406e+20
1.731263895e+20
2.615388143e+20
2.414633556e+20
2.432076416e+20
2.227066471e+20
2.090185754e+20
2.315013897e+20
1.695303565e+20
8.535616032e+19
1.504220205e+20
1.514855908e+20
6.538470404e+19
2.195121445e+20
1.768782861e+20
2.895186412e+20
1.254111452e+20
2.946381343e+20
2.119129457e+20
3.20085599e+20
1.933997406e+20
1.947671896e+20
2.397439148e+20
1.536585001e+20
3.095370006e+20
2.449773135e+20
1.254111461e+20
3.156837153e+20
1.695303565e+20
8.535616032e+19
2.363774608e+20
6.492239607e+19
2.615388162e+20
2.414633573e+20
1.10548928e+20
2.004359824e+20
1.254111452e+20
2.735925533e+20
1.907216524e+20
1.066952004e+20
2.578663208e+20
1.514855908e+20
2.179490119e+20
1.317072858e+20
1.326587145e+20
1.781653177e+20
1.463130028e+20
3.57774875e+20
1.695303554e+20
1.707123183e+20
4.297771985e+19
1.514855919e+20
1.961541135e+20
1.756097156e+20
1.547685003e+20
1.781653177e+20
2.299204329e+20
2.104558102e+20
1.271477683e+20
1.493732806e+20
2.578663226e+20
1.731263907e+20
3.051286167e+20
1.975609273e+20
1.768782848e+20
2.227066471e+20
2.299204345e+20
2.315013913e+20
1.271477674e+20
1.493732806e+20
2.363774608e+20
2.380487856e+20
3.051286189e+20
2.195121445e+20
1.547685003e+20
2.449773118e+20
1.254111452e+20
2.525469706e+20
2.119129442e+20
3.20085599e+20
1.933997406e+20
2.164079869e+20
2.179490119e+20
1.975609287e+20
1.768782861e+20
1.55894653e+20
3.344297206e+20
1.473190672e+20
2.966781259e+20
1.920513607e+20
1.504220205e+20
1.082039942e+20
2.61538818e+20
1.536585012e+20
2.653174272e+20
2.4497731e+20
2.71724148e+20
1.052279044e+20
3.390607108e+20
1.066951997e+20
1.289331604e+20
2.81330383e+20
1.525643084e+20
2.414633556e+20
1.768782848e+20
1.558946541e+20
2.508222905e+20
2.104558102e+20
1.059564735e+20
2.560684792e+20
1.289331595e+20
1.947671882e+20
2.179490135e+20
2.195121445e+20
2.210978576e+20
2.227066471e+20
1.463130037e+20
2.104558102e+20
2.119129457e+20
2.987465611e+20
2.363774608e+20
2.380487856e+20
2.397439131e+20
1.975609287e+20
1.989880718e+20
1.55894653e+20
2.926260055e+20
2.525469723e+20
2.119129457e+20
1.493732795e+20
2.578663208e+20
1.947671896e+20
1.961541135e+20
2.634145716e+20
3.095369984e+20
2.449773118e+20
2.71724148e+20
1.68364647e+20
1.907216511e+20
2.347294409e+20
1.504220205e+20
2.380487856e+20
8.717960478e+19
4.39024286e+19
1.989880718e+20
1.781653177e+20
)
;

boundaryField
{
    flow
    {
        type            zeroGradient;
    }
    obstacle
    {
        type            calculated;
        value           nonuniform List<scalar> 0();
    }
    frontAndBack
    {
        type            empty;
    }
    procBoundary2to0
    {
        type            processor;
        value           nonuniform List<scalar> 
31
(
1.457959731e+20
1.457959731e+20
2.499359539e+20
2.499359539e+20
2.291079578e+20
1.041399808e+20
2.082799616e+20
2.082799616e+20
2.291079578e+20
2.291079578e+20
1.041399808e+20
1.24967977e+20
1.874519654e+20
2.915919462e+20
2.082799616e+20
2.082799616e+20
1.24967977e+20
1.041399808e+20
2.082799616e+20
2.499359539e+20
1.719108806e+20
6.492239607e+19
1.743592108e+20
1.756097156e+20
1.547685003e+20
2.895186412e+20
1.881167178e+20
1.052279044e+20
2.331042402e+20
2.133904008e+20
2.133904008e+20
)
;
    }
    procBoundary2to3
    {
        type            processor;
        value           nonuniform List<scalar> 
19
(
1.346034123e+20
2.692068246e+20
2.019051199e+20
1.346034123e+20
1.794712164e+20
1.12169511e+20
1.794712177e+20
2.692068246e+20
1.570373155e+20
2.916407266e+20
1.570373143e+20
2.019051199e+20
6.730170614e+19
3.813763348e+20
1.346034142e+20
1.346034123e+20
1.794712164e+20
1.570373155e+20
1.346034123e+20
)
;
    }
}


// ************************************************************************* //
