/*--------------------------------*- C++ -*----------------------------------*\
| =========                 |                                                 |
| \\      /  F ield         | OpenFOAM: The Open Source CFD Toolbox           |
|  \\    /   O peration     | Version:  2406                                  |
|   \\  /    A nd           | Website:  www.openfoam.com                      |
|    \\/     M anipulation  |                                                 |
\*---------------------------------------------------------------------------*/
FoamFile
{
    version     2.0;
    format      ascii;
    arch        "LSB;label=32;scalar=64";
    class       volScalarField;
    location    "0.011";
    object      internalT;
}
// * * * * * * * * * * * * * * * * * * * * * * * * * * * * * * * * * * * * * //

dimensions      [1 2 -2 0 0 0 0];

internalField   nonuniform List<scalar> 
546
(
300.4258329
302.9941
302.8513209
301.2218072
299.5564055
297.5081303
296.6217809
296.8098668
297.4340544
298.051727
297.8315303
300.364803
301.1487853
300.5258913
301.449211
299.859486
298.1734387
297.941075
297.7543774
298.6767531
302.3021134
302.0125215
301.7864746
301.801047
300.9188758
300.7489785
301.1833963
300.6740091
299.9548155
299.4951372
299.0336166
296.9296229
298.8698013
298.7371418
299.226265
300.3564168
302.2652204
302.9392472
301.6230876
302.6222384
299.2946248
299.7079938
299.9587742
299.3287759
302.6709016
304.122304
303.7417649
303.0849493
302.7911346
301.6997706
300.7865707
300.0563783
298.9969532
300.0835583
299.2229895
300.4596686
300.3727519
301.2039688
303.4440761
302.4234121
301.6059246
300.5907853
299.9722014
299.8295158
299.1134487
297.6782032
300.4921152
300.2418966
300.536109
299.0059315
299.5157085
301.080479
301.6445775
302.2956933
300.5143066
298.9226002
298.6432719
297.7594336
297.7897656
296.8771295
301.006352
301.1309907
303.1864
303.5878122
302.2634687
302.6569993
299.8726089
298.400211
299.4537731
300.3005326
299.668222
298.6264643
296.8851736
297.784782
298.2316754
299.2666665
298.7352667
299.1149836
298.0251003
299.1050055
302.194897
301.3051883
300.3343285
300.7101013
300.9088691
301.2309281
302.6293726
303.6025677
303.9480548
303.756217
303.4962311
303.7940513
302.492835
302.3997351
301.1810856
300.2554656
300.4491547
301.6199046
302.3272664
302.427372
297.4027409
298.8095012
298.7248808
300.2825848
302.0793378
301.8704614
303.9808275
303.3919888
301.477674
300.3568914
302.6132378
301.0575555
301.445245
301.7575479
300.8648311
299.8256943
299.4963127
298.7981996
300.3318982
300.7564392
301.6352844
301.9507451
300.3286167
300.0196407
300.1729784
299.7070615
299.7985984
298.5571474
299.6850872
299.0090962
298.3561528
298.0689378
300.1317973
299.9598239
300.8073358
301.5565481
302.159361
301.2818286
300.5869394
300.8001893
299.9931229
302.2677176
304.0407204
304.4119437
303.7300974
303.0155561
301.9338295
302.3569523
301.305392
303.4614537
301.9721824
304.0608213
303.1335534
302.7009875
302.2890955
302.09212
301.8953768
301.7358256
302.8765152
301.853498
301.5492062
301.0668749
299.2580451
297.9274593
296.7114284
297.1315385
298.4814556
299.9209244
300.3057052
300.2789573
301.637291
300.6330066
301.1714796
299.5720535
298.8868388
298.8203057
299.0649306
300.5717764
298.0533359
297.2352914
298.1879567
298.9524837
299.5794103
302.0449324
301.8606282
301.7722309
300.3819091
298.6156653
300.0632531
298.8914938
298.603666
298.8255429
297.2426335
299.5274751
298.4553814
297.8395378
298.9310716
298.7855296
300.7926903
302.4401032
303.876362
302.9178776
301.880995
301.058101
301.3548329
302.02576
300.0481504
301.594361
299.1142079
298.6489769
296.5191661
297.3261859
298.0573482
297.4041043
297.2605514
298.1984146
298.8138679
299.3117767
299.3531604
298.6246078
301.5137581
302.2884355
303.3770867
304.381076
304.5940661
304.0611577
302.7776459
300.7169984
300.1527141
300.5785295
301.5207318
301.4002347
301.1060234
301.7159111
301.4009314
302.1766999
301.7717387
301.8227607
301.9779911
301.1352267
302.1185672
302.0193218
303.7737736
301.7788837
301.8758547
302.0453529
301.4055533
303.7090044
303.3919846
304.017988
301.2907324
301.634452
301.2529071
300.3677016
301.2904285
301.0284031
299.133704
301.3081438
300.9227442
300.6669158
302.8189717
303.0183133
302.9037636
303.8812
303.3462497
304.0799813
305.7223243
303.5886376
302.8490398
303.4145669
304.2856537
303.5211349
303.6646737
304.3456725
302.9518881
301.6436614
304.1707366
303.9500521
303.6841068
303.841645
296.6877018
297.4133732
296.8875611
297.9311189
298.7862479
299.8137867
300.9510697
301.3972227
300.721167
300.3087232
300.5811727
299.8528318
300.694476
300.4025159
300.4893397
301.3018853
301.20721
300.9805678
298.808003
299.9508401
298.568285
300.2023044
302.3456105
300.5168936
301.2257475
301.3728582
299.7944643
299.9173102
300.9264907
300.3846873
301.1064765
300.5182257
300.8519626
300.9136009
300.6518539
300.3519789
299.4805639
299.3568182
299.1383238
298.9105342
301.6758357
300.0245271
300.5891898
302.0119436
301.8575036
300.9769395
301.2282559
300.7881079
299.4153594
298.4931092
297.9839516
297.9266407
298.1301207
296.5157143
296.8713049
295.009696
297.3529832
297.4701269
296.1981208
298.3951189
303.3659452
304.7491051
305.5685248
304.7328813
305.338512
304.5123127
297.5542079
299.2260376
301.2189517
301.760623
301.2280782
301.8691611
300.5381822
300.842873
300.8036421
302.166823
300.8062897
303.3459958
302.2293841
300.2967016
301.7880965
302.4346184
302.8631087
302.9271825
303.9885501
306.0458364
304.6055845
302.553553
299.8711619
299.6424233
298.9101735
298.0348241
297.8238875
299.7413353
298.7526094
299.728298
294.2525144
295.3379777
296.9969192
297.8169654
296.7135412
298.6362417
298.9353255
297.4700216
296.3801693
297.3871116
299.8166109
299.2271604
299.885788
299.4977315
299.567619
299.995605
300.3576507
301.6876679
300.7552376
300.3488334
301.9191126
302.4849809
301.1076878
300.2785897
299.1685359
298.4927428
299.4237542
297.9480702
299.4038729
299.8512544
301.5969424
301.5267144
301.9620886
301.1220143
301.1169947
302.4260172
299.7662539
300.1371298
301.4979303
300.6438193
300.6523044
301.5098044
302.0101206
302.9161815
304.6403855
302.4565008
305.3970598
304.5617999
302.8004552
301.4100764
301.4113136
300.9976803
301.1085634
301.0922111
300.4557561
300.6488847
299.9533678
299.5078632
301.7376648
302.5499905
298.3233526
298.8241448
299.9816501
302.1576586
301.4474648
302.0466481
302.1635011
302.8017573
301.8265419
301.3654333
304.097635
302.7447973
302.0928422
301.0629533
301.4877579
300.9682578
300.7645086
299.4953692
299.6001789
298.9672576
297.8486851
299.8245653
299.6650137
301.0452583
301.6986599
302.1521098
302.7299697
303.242757
303.5565752
305.2529717
300.8904906
300.325427
298.3293022
297.7444163
300.1913714
299.8081342
303.0143923
303.7399204
304.0497576
303.1738741
300.2205553
302.0929973
302.5368102
302.1383073
301.2744087
301.6535915
301.1691773
299.1397415
300.5106922
301.8586385
302.1042785
303.238655
302.879971
302.866493
301.537069
299.7509324
298.8418957
300.7022979
300.5700023
300.8606319
300.9367834
300.5099229
299.8324776
300.2804035
301.1542534
301.1325089
302.3844568
301.972653
300.3735224
299.9792117
300.7898568
299.9755936
298.1105666
299.1155406
298.8335984
299.7774964
300.1397607
302.7002167
301.1475796
300.8780782
299.0431176
299.1184376
299.7621807
299.1779336
298.9014196
297.2401222
298.6055029
296.1774668
298.8426455
298.6751897
)
;

boundaryField
{
    flow
    {
        type            calculated;
        value           nonuniform List<scalar> 
48
(
300.4258329
302.3021134
299.2946248
301.6059246
301.006352
302.194897
297.4027409
301.6352844
299.9931229
301.5492062
298.1879567
303.876362
301.5137581
302.1185672
302.8189717
296.6877018
298.568285
301.6758357
301.6758357
300.0245271
300.5891898
302.0119436
301.8575036
300.9769395
301.2282559
300.7881079
299.4153594
298.4931092
297.9839516
297.9266407
298.1301207
296.5157143
296.8713049
295.009696
297.3529832
297.4701269
296.1981208
298.3951189
299.0431176
299.1184376
299.7621807
299.1779336
298.9014196
297.2401222
298.6055029
296.1774668
298.8426455
298.6751897
)
;
    }
    obstacle
    {
        type            calculated;
        value           nonuniform List<scalar> 0();
    }
    frontAndBack
    {
        type            empty;
    }
    procBoundary2to0
    {
        type            processor;
        value           nonuniform List<scalar> 
31
(
300.2356929
299.9558659
299.6629853
300.6418648
301.4637816
301.5261841
301.7782705
302.3861674
302.5527131
302.0304957
303.015863
302.0755569
300.8809047
301.6051817
301.483074
301.1883072
301.0247122
300.6888182
300.074013
298.9512729
302.3850089
301.8760724
304.1306302
304.2647445
305.4643149
307.2800938
300.9629284
298.6814409
299.7293607
301.8544659
301.8544659
)
;
    }
    procBoundary2to3
    {
        type            processor;
        value           nonuniform List<scalar> 
19
(
304.6974441
303.5316652
305.2525321
300.177226
299.4198368
299.7171845
298.6582492
303.8304525
301.274241
303.2624224
301.4427682
300.3407644
303.7186887
303.2685731
301.0730529
300.1052431
299.2523396
301.5309524
300.0399583
)
;
    }
}


// ************************************************************************* //
