/*--------------------------------*- C++ -*----------------------------------*\
| =========                 |                                                 |
| \\      /  F ield         | OpenFOAM: The Open Source CFD Toolbox           |
|  \\    /   O peration     | Version:  2406                                  |
|   \\  /    A nd           | Website:  www.openfoam.com                      |
|    \\/     M anipulation  |                                                 |
\*---------------------------------------------------------------------------*/
FoamFile
{
    version     2.0;
    format      ascii;
    arch        "LSB;label=32;scalar=64";
    class       volScalarField;
    location    "0.011";
    object      internalE;
}
// * * * * * * * * * * * * * * * * * * * * * * * * * * * * * * * * * * * * * //

dimensions      [1 -1 -2 0 0 0 0];

internalField   nonuniform List<scalar> 
546
(
0.2081279139
0.3286859527
0.2982171141
0.3634406353
0.6288670174
0.414477219
0.2825212261
0.2902289763
0.3997450778
0.5939868477
0.4024228982
0.3840727598
0.5217250474
0.5570916259
0.6861948812
0.5698158324
0.5017370609
0.2439424396
0.3832113164
0.4242546024
0.3068288704
0.4175163774
0.2445618173
0.3257681292
0.3707094125
0.3949400348
0.4864606312
0.2156591604
0.380738245
0.6158623587
0.4195577819
0.5324513877
0.1136350869
0.2035881325
0.2166233866
0.5658291121
0.3830522445
0.0856968161
0.3144009977
0.5240992266
0.3796192759
0.4649410481
0.1359953575
0.4961282768
0.2748066306
0.2965413836
0.4940594566
0.5276667683
0.7370984967
0.2716996618
0.6899105334
0.5799811144
0.149973921
0.7287893587
0.3085321337
0.319360215
0.2891748645
0.7668348323
0.2765521814
0.3182088819
0.213765873
0.4037425778
0.6786680598
0.3105498496
0.4420290021
0.5000198571
0.6526339812
0.6223079737
0.1568235234
0.4575063639
0.3957284089
0.424471196
0.7978480971
0.2864340645
0.4129797827
0.3203406005
0.5073585724
0.3596510666
0.2844010161
0.3635403545
0.6097428194
0.4564590574
0.4422939589
0.3513589942
0.3480310835
0.5293670642
0.6911667513
0.5112140141
0.1636946661
0.3861924131
0.7933548431
0.2543565861
0.4812276895
0.544682223
0.5929102735
0.3165606129
0.382485788
0.4533000659
0.3028805571
0.5225789127
0.1184339694
0.1729361348
0.415666614
0.3060972642
0.5356014666
0.3828667079
0.2455968896
0.2800299015
0.5084657273
0.2928510867
0.4616030041
0.5574657522
0.4010408483
0.646902681
0.3360035675
0.279659537
0.3227753637
0.254333516
0.5389522312
0.3541117106
0.3572995535
0.3424656087
0.1332674927
0.3980397168
0.3188873156
0.4693710537
0.4552121457
0.230911569
0.4201290507
0.1690753885
0.486067781
0.1741289366
0.3464010768
0.3377890686
0.3253588462
0.4368526297
0.219428136
0.2265697533
0.5992855882
0.1693878893
0.1895805622
0.8859517816
0.2254553967
0.5357893088
0.5779184531
0.2315586081
0.4409932376
0.4113585175
0.4030095831
0.43307858
0.2345498314
0.3557449839
0.3865300593
0.2684828847
0.1844352974
0.5586930495
0.3565844517
0.2703690241
0.1589092654
0.2590566186
0.06877891536
0.3151323111
0.3346055731
0.323857187
0.5348853451
0.2104392105
0.3386163995
0.3775082177
0.6293719519
0.6202953423
0.4369468444
0.2466638815
0.1261536645
0.2659243482
0.3020133531
0.1496386379
0.5452613816
0.7570618821
0.4447349269
0.3343927505
0.2459983128
0.650213597
0.5820700509
0.06565221967
0.5967673879
0.3867814166
0.2619562013
0.2646710531
0.4529705493
0.4377823208
0.2858101675
0.2383842051
0.2936843532
0.3997599212
0.6544743874
0.2695450841
0.3867837665
0.2735205455
0.1483212566
0.2619238975
0.1795689975
0.7697304648
0.4473790892
0.1668202369
0.3553009022
0.4719838512
0.275226711
0.4608360063
0.5488509849
0.3076686025
0.2900025964
0.7264106265
0.3648739194
0.7178088859
0.5181141057
0.4128438101
0.4353310634
0.3899053884
0.1676045258
0.1494906911
0.3670629683
0.2701514211
0.3590132637
0.139844686
0.644210703
0.6278838279
0.2257284743
0.7289454201
0.1309900656
0.3823087919
0.877243246
0.2488673771
0.1401947013
0.403158082
0.4929573723
0.3721708675
0.766047161
0.3252218628
0.934039628
0.4172317931
0.2907301847
0.5297861687
0.3047315348
0.273227443
0.7498742931
0.7098811105
0.09650804011
0.3009126925
0.3215406795
0.4689159046
0.2189631864
0.07045532699
0.3833342086
0.2776562391
0.7452129449
0.5506982563
0.2927659516
0.2857107635
0.5464961061
0.383313822
0.3622200014
0.306807222
0.2101050318
0.714974576
0.1892551355
0.3658851897
0.4100512491
0.4176886883
0.4109009456
0.7253227068
0.4556592408
0.3290226382
0.4946987096
0.5279398852
0.4495342942
0.9166975352
0.3647752402
0.5410845002
0.5366372857
0.1692750895
0.424691386
0.4249115776
0.394183694
0.429023906
0.3178076628
0.2807019298
0.8203034314
0.4476322373
0.5052965346
0.2904560608
0.4829724109
0.2374723411
0.4829799584
0.4196275529
0.3335611192
0.2362190762
0.2357485856
0.1309684397
0.2956721317
0.3613829192
0.2867551034
0.05114236769
0.2687707431
0.4714835473
0.272354658
0.6994308871
0.7688712769
0.3319489945
0.447584827
0.3397350959
0.2816261605
0.5336892954
0.1629677243
0.8042715636
1.005773501
0.3342445951
0.3870487732
0.7637313087
0.1681701229
0.6000927668
0.6613241897
0.4821576788
0.7733628557
0.5053682906
0.2301844627
0.2619335694
0.120527426
1.245609333
0.6772936791
0.2154488326
0.6000008872
0.2808258975
0.6525175199
0.1204310643
0.1475442259
0.8177159459
0.4533732593
0.6029599464
0.4350977975
0.2550147446
0.481022805
0.3035052135
0.5269713676
0.6821036297
0.3876013074
0.2061681888
0.5471555846
0.4210959017
0.2850429895
0.5178991213
0.4538672474
0.2728592967
0.6636468078
0.1257161456
0.377547747
0.2594873762
0.7530100616
0.4272797773
0.1891773664
0.8761152439
0.4398893752
0.1175806508
0.2008972148
0.1923539919
0.2986033394
0.6302586047
0.344705514
0.5104576799
0.7255772444
0.3351283521
0.4827491621
0.1021856088
0.2954996054
0.3932596549
0.2549265142
0.3212661106
0.5645891145
0.4897194832
0.2885669999
0.2413134438
0.5622173331
0.5381002143
0.1321632886
0.3649351733
0.5153936338
0.08725875366
0.3289730471
0.3254119641
1.083478827
0.2783136532
1.015570612
0.2548013359
0.4300097533
0.3387742848
0.4902135168
0.1183583247
0.2230325679
0.336654875
0.19013515
0.5549457967
0.4867794523
0.398058154
0.5364011876
0.3959974004
0.5383630247
0.4167891029
0.5399211397
0.3851500425
0.4569717556
0.01384771745
0.3744061649
0.3056383327
0.2401692729
0.4945073237
0.3881849755
0.4929945376
0.3136258636
0.8230408223
0.3770719799
0.6216656613
0.3928410609
0.2490999559
0.7078440579
0.5164718879
0.8804325824
0.4100381155
0.3417179009
0.6379355046
0.4956966721
0.2948772901
0.3783333147
0.1084729068
0.844943316
0.3808511241
0.1981723039
0.4866162225
0.198142373
0.6624601292
0.4127935678
0.2290757706
0.4041058921
0.4884626513
0.2854432861
0.1158018873
0.3827677229
0.242003145
0.3106980232
0.7291233666
0.2818943032
0.2338928097
0.04637115528
0.2959058198
0.3176856001
0.3608672523
0.8632929289
0.549494468
0.7376698618
0.3933944124
0.2778107154
0.3394690173
0.5324121113
0.3422189575
0.5261016922
0.2409669991
0.2954758153
0.6036091029
0.6813419169
0.4747963273
0.1617776011
0.1319039611
0.4618272541
0.6706336993
0.7623336567
0.5352131372
0.1927616143
0.5527441266
0.2305054379
0.55604823
0.3008981161
0.5040012906
0.3362447814
0.2115566058
0.4486321334
0.3753936635
0.274528661
0.1775323919
1.116112755
0.3521790581
0.4816014995
0.4032643909
0.2120453333
0.1774945837
0.554559378
0.43847393
0.3095312715
0.4904356173
0.547417152
0.2168540785
0.6227699092
0.3384569807
0.225516977
0.7205961906
0.2160826259
0.4029936971
0.2345096972
0.2876599771
0.4426017044
0.2119572974
0.1063867057
0.5998867753
0.3250330074
0.7516915413
0.5837601857
0.3414190165
0.5545520288
0.3060112915
0.342035533
0.3123178416
0.3884606825
0.8723597734
0.5383082453
0.5728055602
0.5273796108
0.3708664714
0.2399927084
0.3550722925
0.4737283891
0.4751887374
0.3323723282
0.6690656868
0.445983656
0.660696645
0.3050424986
0.4404678048
0.633874951
0.3392723693
0.399193191
0.350260009
0.2394588599
0.417469949
0.3154852931
0.811891898
0.3646188316
0.03570360781
0.3496855841
0.6032467438
)
;

boundaryField
{
    flow
    {
        type            zeroGradient;
    }
    obstacle
    {
        type            calculated;
        value           nonuniform List<scalar> 0();
    }
    frontAndBack
    {
        type            empty;
    }
    procBoundary2to0
    {
        type            processor;
        value           nonuniform List<scalar> 
31
(
0.1952160204
0.2540473612
0.5230292145
0.3977286058
0.4512201355
0.2044556485
0.4600132889
0.2851139866
0.4585264564
0.6476639703
0.4844827485
0.1195452107
0.3256873749
0.4566743038
0.4868793822
0.4680410365
0.06078557413
0.2808033582
0.3847870916
0.3556132963
0.4453789286
0.1064210615
0.2505283468
0.7963874009
0.3187325148
0.3564221867
0.3586015432
0.2874095331
0.6954725809
0.3522622933
0.3522622933
)
;
    }
    procBoundary2to3
    {
        type            processor;
        value           nonuniform List<scalar> 
19
(
0.1907774664
0.7745742111
0.3447778928
0.2443380454
0.3773641921
0.1719696714
0.2534923646
1.004805108
0.230060282
0.9358218565
0.3775915351
0.4492054689
0.06006576063
0.7150443233
0.2203370651
0.2792442447
0.4112080976
0.3237637484
0.223644541
)
;
    }
}


// ************************************************************************* //
