/*--------------------------------*- C++ -*----------------------------------*\
| =========                 |                                                 |
| \\      /  F ield         | OpenFOAM: The Open Source CFD Toolbox           |
|  \\    /   O peration     | Version:  2406                                  |
|   \\  /    A nd           | Website:  www.openfoam.com                      |
|    \\/     M anipulation  |                                                 |
\*---------------------------------------------------------------------------*/
FoamFile
{
    version     2.0;
    format      ascii;
    arch        "LSB;label=32;scalar=64";
    class       volScalarField;
    location    "0.011";
    object      internalEMean;
}
// * * * * * * * * * * * * * * * * * * * * * * * * * * * * * * * * * * * * * //

dimensions      [1 -1 -2 0 0 0 0];

internalField   nonuniform List<scalar> 
546
(
0.3204398224
0.4171681599
0.4205738738
0.4171218908
0.4140091056
0.4114504486
0.4105658255
0.4096778015
0.4084399603
0.41245157
0.4125984386
0.4180002501
0.4181071947
0.4148854826
0.4161443936
0.4136676102
0.4117859495
0.412127094
0.4089109671
0.4091157928
0.3245353335
0.4156982755
0.4179590485
0.4197070694
0.4189915862
0.4175835619
0.4169505977
0.4169921354
0.4145675791
0.4124368434
0.4118872708
0.4082751073
0.4115600629
0.4102840423
0.4125672089
0.4122802409
0.415303327
0.4181934383
0.4177958458
0.4184440919
0.3190767715
0.410551851
0.412204913
0.4101262839
0.4151169539
0.4179582587
0.4194997866
0.418450036
0.4174586335
0.4175077127
0.4149229693
0.4139078542
0.4108675407
0.4103132156
0.410614945
0.4132545566
0.4113054162
0.4126640892
0.4147970951
0.4131568001
0.3232754452
0.4145743109
0.4149837014
0.4122624295
0.4122474524
0.4083005327
0.4119244788
0.4116992047
0.4150174376
0.4108876949
0.4136005125
0.4167058009
0.4200099199
0.4199524155
0.4158279261
0.412367326
0.4120522534
0.4102567623
0.4137394414
0.4123007134
0.3221291854
0.4150910688
0.419279655
0.4198030266
0.4172763614
0.4184130363
0.4130742511
0.4112020399
0.4099844168
0.4090790534
0.4085232224
0.4051825998
0.4040462444
0.407808374
0.4117728197
0.4152359366
0.4161464242
0.4157214066
0.412461469
0.4134321526
0.3228560374
0.414693176
0.4147623481
0.4160281009
0.4185371374
0.41975682
0.419854262
0.4205774238
0.422923287
0.4230772194
0.4240876867
0.4234872956
0.4206295826
0.4175830577
0.41527035
0.4145200006
0.4149916124
0.4150395929
0.4177200888
0.418348578
0.3183504413
0.4103365516
0.412438177
0.4144475405
0.4143608952
0.4150608167
0.4193611047
0.4208171059
0.4177835742
0.4170862689
0.4207970081
0.4188226492
0.4202209525
0.4191969297
0.4173039696
0.4151572482
0.4152962024
0.4127346849
0.4153085806
0.4156361914
0.3218402408
0.416915687
0.4172668387
0.4167591264
0.4177725345
0.4160742029
0.4173220186
0.4139314709
0.415792997
0.4137920353
0.4128416436
0.41045723
0.4137372785
0.4134531607
0.415706529
0.4178928769
0.4188388332
0.4193866868
0.4197709606
0.419730634
0.321123278
0.4155991275
0.4184263581
0.4200593104
0.4189675658
0.416207523
0.4141455159
0.4171999065
0.4145122918
0.4204930032
0.419834545
0.423334554
0.4221307171
0.4220268762
0.4192241283
0.4157446588
0.4164130621
0.4159090215
0.4155969001
0.4138222715
0.3215986179
0.4119095891
0.4118052375
0.409405681
0.4076803404
0.4091197742
0.4111657417
0.4140424662
0.413482427
0.4114438779
0.4117201098
0.4116853647
0.4134305189
0.4126837306
0.4126461593
0.4127886557
0.4128529439
0.4122772648
0.4082852353
0.4057737588
0.3201497765
0.4118849317
0.4140409
0.4162956103
0.4159705707
0.414649641
0.4136815809
0.408719861
0.4127328564
0.4126213316
0.4119507707
0.411897523
0.4092105766
0.4110875934
0.408539489
0.4082570941
0.4103081304
0.4121079378
0.4175498951
0.4208250737
0.3238898474
0.4178392649
0.4176874743
0.4165489048
0.4159747166
0.4154717353
0.4144377302
0.4148152214
0.4095977099
0.4091870478
0.4047651266
0.4074990192
0.4084699431
0.4093007012
0.410991485
0.4111422338
0.4133812545
0.4109167509
0.4127812982
0.4120421148
0.3235471185
0.4168050734
0.4212881504
0.421059099
0.4224605483
0.4206085979
0.4183661156
0.4156996055
0.4164574913
0.4170797348
0.4181900665
0.4198351601
0.4195512828
0.4191706382
0.4182051329
0.421051028
0.4167789702
0.4199345222
0.4194163286
0.4175215668
0.3220794669
0.4124389476
0.418122511
0.4152267972
0.4158179372
0.4172358213
0.4172266289
0.4227970929
0.4215388453
0.4216933401
0.4155318004
0.4134352345
0.4109119322
0.4119816426
0.4134914127
0.4139030174
0.4123379284
0.4139647022
0.4132542705
0.4133588254
0.3246468928
0.4187778753
0.4193084749
0.4180876623
0.4195879436
0.4200702399
0.4201811588
0.4186930711
0.4168655163
0.4167555848
0.4170770586
0.4179413996
0.419583837
0.4179867693
0.4161834297
0.4132901462
0.4161561885
0.4163468984
0.4178323742
0.418962575
0.3160028135
0.4072142147
0.4088381708
0.4117784164
0.414358457
0.4132753817
0.4130807483
0.4123458017
0.4113422659
0.4134159263
0.4144824754
0.4131645894
0.4138604996
0.4141811471
0.4166260497
0.4174769557
0.4169363199
0.4151118983
0.4103579285
0.4123822013
0.3209015435
0.4163065564
0.420211455
0.4149594782
0.4132057784
0.4170474358
0.416211216
0.4174559047
0.4179952369
0.4187111024
0.4185364884
0.4159669035
0.4174984721
0.4151060689
0.4153030266
0.4140643583
0.4130587535
0.412183757
0.4138848497
0.4125225913
0.3161974124
0.4038559514
0.4078692405
0.4121525403
0.4117444989
0.4108659711
0.4122327564
0.4113158833
0.4082959167
0.4069836734
0.4088912799
0.4086179287
0.409606237
0.4070316061
0.4061150256
0.4037380424
0.4066884461
0.4083728486
0.4072383267
0.4100405283
0.4214497531
0.4238235446
0.4246791015
0.4229785289
0.4243726304
0.4257080429
0.4082975698
0.4115969545
0.4144990516
0.4128295176
0.4141655909
0.4170223208
0.4174988427
0.4182338902
0.4160748076
0.4177413061
0.4168557284
0.4212545435
0.4215004827
0.4194568762
0.4198030886
0.4192985735
0.4184750442
0.4203887021
0.4220324193
0.4270648654
0.4178134945
0.41435191
0.4106344528
0.4101002076
0.4106561674
0.409118634
0.4099235082
0.4133743911
0.4138844658
0.416405985
0.4094564167
0.4114678949
0.4113434662
0.4151636019
0.4127121073
0.4147138354
0.4133668298
0.4113156611
0.4069294916
0.4104684012
0.414886449
0.412396811
0.4139247854
0.4121321767
0.412537048
0.4128369534
0.4166153866
0.4213949079
0.4180610214
0.4165460655
0.4170196587
0.4178535729
0.4163161219
0.4169464501
0.4186121238
0.418219784
0.4169581937
0.4142095148
0.4182348218
0.4192337974
0.4169386362
0.4179634941
0.4181881452
0.4176498009
0.4145894905
0.4162061926
0.4134088004
0.4147719685
0.4131362221
0.4108540058
0.4205939798
0.4217311103
0.418126142
0.4156273739
0.4170660355
0.4136356572
0.4178743105
0.4152225332
0.4141143637
0.4130469894
0.410142569
0.409255438
0.4099983274
0.4084151857
0.4101782587
0.4113840767
0.4115498605
0.4083735412
0.4126190086
0.4134758565
0.4077642109
0.4114782758
0.4146395641
0.4205833874
0.418581254
0.4194006178
0.4195583047
0.421048912
0.4203710123
0.4163554048
0.4234432447
0.4196679428
0.4173648443
0.4159390594
0.4178159133
0.4159576013
0.4152544697
0.4131672042
0.4143436542
0.4145965658
0.4115615564
0.414590299
0.4147120091
0.4148906065
0.4153333889
0.4160508262
0.4176699777
0.4208767714
0.4219465615
0.4256513045
0.4146200684
0.4150210885
0.4135220997
0.413363875
0.415152984
0.4167239778
0.4192726087
0.420386829
0.419181099
0.4180148982
0.4145239132
0.4184771349
0.4174873593
0.418848975
0.4188203731
0.4170112931
0.4159367577
0.4130969275
0.4143186116
0.4129529211
0.414826402
0.417060394
0.41587441
0.4162649204
0.4145253636
0.4125246744
0.4105317161
0.4137468969
0.415543111
0.4181136728
0.4130732855
0.4134979341
0.4124954638
0.4136997887
0.4162734257
0.4140661404
0.4171436497
0.4153617023
0.4138627571
0.4151194561
0.4140631677
0.4119386204
0.4092384764
0.4095072803
0.4096563078
0.4124472389
0.4142359068
0.420315587
0.418957386
0.4161867146
0.4106858133
0.4098528941
0.4105649479
0.4129100865
0.4086286898
0.4059770151
0.4088509954
0.4023148037
0.4034769384
0.406377075
)
;

boundaryField
{
    flow
    {
        type            calculated;
        value           nonuniform List<scalar> 
48
(
0.3204398224
0.3245353335
0.3190767715
0.3232754452
0.3221291854
0.3228560374
0.3183504413
0.3218402408
0.321123278
0.3215986179
0.3201497765
0.3238898474
0.3235471185
0.3220794669
0.3246468928
0.3160028135
0.3209015435
0.3161974124
0.3161974124
0.4038559514
0.4078692405
0.4121525403
0.4117444989
0.4108659711
0.4122327564
0.4113158833
0.4082959167
0.4069836734
0.4088912799
0.4086179287
0.409606237
0.4070316061
0.4061150256
0.4037380424
0.4066884461
0.4083728486
0.4072383267
0.4100405283
0.4106858133
0.4098528941
0.4105649479
0.4129100865
0.4086286898
0.4059770151
0.4088509954
0.4023148037
0.4034769384
0.406377075
)
;
    }
    obstacle
    {
        type            calculated;
        value           nonuniform List<scalar> 0();
    }
    frontAndBack
    {
        type            empty;
    }
    procBoundary2to0
    {
        type            processor;
        value           nonuniform List<scalar> 
31
(
0.3209198571
0.412569464
0.413467034
0.4118704012
0.4145410512
0.4133735445
0.4166144316
0.4196196148
0.4224212601
0.4200024709
0.4202954041
0.4181146104
0.4173655919
0.4184096924
0.4163408867
0.4167526812
0.4149445702
0.414332209
0.4153834177
0.4133994077
0.4176321075
0.4175976412
0.4205508838
0.4222113812
0.4287520082
0.4321541938
0.4163700803
0.4108478379
0.4137726504
0.4181159366
0.4181159366
)
;
    }
    procBoundary2to3
    {
        type            processor;
        value           nonuniform List<scalar> 
19
(
0.4272358838
0.4219603654
0.4254614428
0.417998666
0.4138751325
0.4148093841
0.4185408867
0.4145477788
0.414580586
0.4134226508
0.416705295
0.4159430404
0.423845238
0.4181874353
0.4139815912
0.4152450524
0.416238887
0.4164026816
0.4068668327
)
;
    }
}


// ************************************************************************* //
