/*--------------------------------*- C++ -*----------------------------------*\
| =========                 |                                                 |
| \\      /  F ield         | OpenFOAM: The Open Source CFD Toolbox           |
|  \\    /   O peration     | Version:  2406                                  |
|   \\  /    A nd           | Website:  www.openfoam.com                      |
|    \\/     M anipulation  |                                                 |
\*---------------------------------------------------------------------------*/
FoamFile
{
    version     2.0;
    format      ascii;
    arch        "LSB;label=32;scalar=64";
    class       volScalarField;
    location    "0.011";
    object      linearKE;
}
// * * * * * * * * * * * * * * * * * * * * * * * * * * * * * * * * * * * * * //

dimensions      [1 -1 -2 0 0 0 0];

internalField   nonuniform List<scalar> 
546
(
4.664341327
7.751352109
7.928141035
7.052233737
7.253640672
7.990906153
3.487306062
8.387491554
8.670825756
5.843938114
9.345072393
7.827645092
9.351487238
11.33128602
8.684922245
8.24168041
8.788748818
5.72037573
7.530960197
6.933193832
8.326941813
11.47694328
5.126296402
9.047715027
6.3184387
7.356885989
8.740179122
7.709998845
7.931941885
10.49310125
6.504081903
10.44439919
2.962623547
4.089022923
7.706883122
11.01139385
9.07344004
2.837187473
11.19224443
12.00685304
6.506053558
7.729326123
3.580550466
8.415992352
5.125919818
4.26225622
10.12284016
5.222395104
10.98504164
7.121293793
10.26237872
7.082006274
3.969766124
12.50776488
8.358690493
6.127699915
3.762985985
11.46082598
4.513939501
5.24115556
4.815161251
10.24182419
11.17671433
5.878839057
6.95519824
11.10864387
9.162827015
8.007920021
3.551408849
7.241729108
4.668876551
8.031972463
11.07610784
6.644523439
9.264516054
7.161351118
8.701469376
7.052095677
9.477282182
10.89757068
8.340367418
8.693861937
7.504909682
7.310475243
8.147326785
11.46755582
11.08338992
9.131391693
5.12422203
8.240258453
14.49728112
8.63768364
8.219792877
9.212166612
8.965268702
4.844589035
10.92094625
8.970188031
7.620295601
12.28626145
4.443374398
5.30388555
9.726097394
7.728065746
7.802912922
3.543811214
4.613190769
8.63584911
13.21116036
9.662559942
6.05949981
11.00501324
10.94502577
8.96518363
10.91143052
8.857561475
6.963942471
6.381543646
5.659129393
7.584784971
4.865801867
11.54569753
4.527409435
5.243778765
10.14352834
10.95246391
7.729498602
8.058663978
10.75982558
5.362115003
11.34807401
5.302693044
4.845899515
9.031383683
6.183809171
8.147047694
8.916000425
6.824108982
11.25510921
5.848544991
4.821299393
10.67043937
3.609163298
8.848326762
7.814418355
6.614378416
5.386591748
7.284346766
8.50582625
6.588155641
4.969012717
10.47616786
10.71258596
6.927688832
6.036394896
10.36904546
6.964508539
8.441377753
3.998337196
3.272069972
6.158792599
9.164779406
7.304478598
4.207144633
7.902044559
7.482132592
4.153107496
8.593755061
8.769376339
8.401569057
6.002257455
7.323605377
1.166242587
7.684725087
4.73283113
2.984078903
12.0235403
12.10064745
7.37143061
5.938049224
5.101074003
8.776526228
12.64171
3.720379314
13.77911748
9.154545408
4.619468438
5.996801849
6.981114305
9.335497783
5.66142668
7.578746849
7.809829801
5.990159533
12.13453737
5.705413872
12.05575798
3.916193135
3.125888534
7.33146093
5.019862712
9.52817042
9.563218765
5.446290089
10.04596161
9.975577806
5.333583143
9.363747464
10.36192814
8.009860721
4.360516214
9.524271021
10.13535416
9.062482411
7.770306768
7.005206982
8.96849585
7.504186243
3.884239321
6.298359363
4.710075643
7.836148245
7.243389474
7.445319512
14.19449146
4.872967321
3.815223785
11.04214107
1.250823816
6.797728408
11.30185167
6.690082225
5.344754838
7.593112576
8.123679174
7.048844113
8.147916741
7.254908459
8.25637801
9.41717387
4.885048393
9.401527751
6.077479473
6.309867017
9.142358998
8.640796452
4.094903083
7.352502507
11.20176293
10.74163269
6.327894859
2.895606763
6.478881837
5.35824449
9.403052414
7.294008724
5.950001089
6.496005407
8.055363481
9.178853421
9.351551097
8.124771904
4.352160919
10.96602697
4.007051134
4.883189406
8.807121016
11.3126547
9.636326787
12.64934348
5.50275635
9.795163017
11.77352078
7.927920588
11.84166099
11.39569362
6.500592593
13.17851399
6.408553431
6.056496151
6.22313734
10.70308227
7.120990594
10.97910374
7.451055922
8.289858286
7.685156418
3.533392972
8.952307788
7.328649637
7.703807392
7.452700683
9.425195129
7.907676706
6.799219349
4.611187782
6.469112934
3.381412873
9.062061767
8.332112634
6.153348739
4.999722722
8.353622176
5.549258904
6.495015551
10.45288722
13.99467247
6.518868461
9.547113504
9.814779076
7.261292448
7.525604197
3.748735593
13.31448243
11.54420941
12.51791467
9.694716362
9.235900751
4.999344004
11.23876502
7.456104694
12.33285985
8.871617335
6.273829646
7.141099732
6.062174881
5.045136955
14.73508994
5.288189162
9.568950734
9.783269943
6.166926105
9.211629304
1.72612286
3.274860218
14.91226936
7.907877479
13.5177309
6.588903504
6.549327262
6.341370468
4.281114835
8.274821448
8.266820603
7.537003136
5.788576838
9.124307944
5.757794613
6.953608772
7.587065714
9.124398077
8.636345724
10.69733024
3.20988714
5.490733801
4.399787247
9.868153465
6.660489726
7.558811267
11.19773037
9.05378913
3.622649624
4.377959194
6.963265129
8.467765439
11.04796166
7.244904482
12.53002792
9.694745103
7.081182907
8.031752538
8.278026977
6.750588795
7.145053916
5.579853187
4.93571574
7.112175447
7.200548865
5.922281871
7.631086962
11.1431159
9.267034874
4.20554165
7.869645325
10.8770276
4.712044436
8.400798965
9.890704461
9.944461768
6.394962332
10.83235741
5.53150912
6.889517594
5.887348053
9.743601707
5.331045732
4.249147455
10.50309302
6.664246074
8.461388639
8.107478894
6.86192374
8.890135791
9.203662893
9.579392199
8.295661405
8.05392228
10.45634154
6.740034446
4.237250766
5.903102373
5.572581377
2.606463556
8.643377723
7.21233097
11.5549049
5.994935152
10.45228592
7.564481333
10.27344364
6.964915373
5.890367456
8.742638109
5.215159159
11.96526163
8.982496654
4.955513591
12.04708918
6.500227419
3.584056094
8.336561661
1.944675289
9.553227978
9.54740568
3.883354641
7.954913298
6.503850507
10.27690403
7.10301685
3.761674283
11.41761828
6.116281495
8.411785366
6.638466022
5.071628121
7.46910546
4.0600276
14.20420704
7.294844878
7.514102935
1.743607167
5.858800832
7.324295075
6.919831926
5.400508039
7.895233392
9.259673599
8.219254333
5.613251964
6.103543921
11.06057302
5.801616757
12.22601901
7.114966905
6.339872238
8.689251318
6.177134685
10.81985476
4.013748073
6.658393754
9.130784611
7.530666853
12.42520429
9.260429997
5.501123045
10.62805637
4.404522121
9.037490747
9.692538455
12.10974849
8.363460583
8.641382872
8.413694966
7.528931209
7.11266837
6.294692569
11.99693783
6.348613832
12.22954237
7.327790525
5.283681938
4.916006149
8.942453594
5.874891229
12.16497558
9.582237653
11.74684703
3.670830304
13.38844802
4.354121483
5.543142905
10.90124009
4.876159325
9.506264188
7.251531069
5.941688435
8.158845135
8.775478265
4.785529401
9.868931636
4.692120156
6.704752761
9.138518592
8.517358029
6.513577123
9.823804427
6.677563873
8.25626109
7.61669686
11.99263877
9.622557073
11.73098013
8.577333461
7.927162579
7.981605609
4.993416574
10.78177303
9.555505779
9.647259148
5.943879128
9.664874127
7.268338425
7.495709697
11.27987483
11.86070765
9.004679701
10.65106515
6.576753639
7.328117305
8.360207345
6.234572526
10.28869283
3.85385955
1.658988308
8.91117672
7.426513286
)
;

boundaryField
{
    flow
    {
        type            zeroGradient;
    }
    obstacle
    {
        type            calculated;
        value           nonuniform List<scalar> 0();
    }
    frontAndBack
    {
        type            empty;
    }
    procBoundary2to0
    {
        type            processor;
        value           nonuniform List<scalar> 
31
(
4.600345461
5.299434428
9.776925958
8.805526312
8.470639089
3.998274892
7.628944359
8.010016759
9.573328165
9.524177938
4.709885743
5.117365645
8.66503491
11.27102261
7.146575908
7.956813459
4.646525644
5.51167969
7.680869828
8.123886894
6.680352592
3.547695493
6.243071494
6.632931111
6.610084581
11.33186926
7.519047222
3.468000797
8.982489254
7.494572139
7.494572139
)
;
    }
    procBoundary2to3
    {
        type            processor;
        value           nonuniform List<scalar> 
19
(
5.723283694
11.01364604
8.483380095
4.574732427
7.890465384
4.315362925
7.307330911
10.38784938
5.068089983
11.37003735
5.598806728
7.03530753
2.390406845
14.73156067
4.636322135
5.921219138
6.342291038
5.543643979
6.725096741
)
;
    }
}


// ************************************************************************* //
