/*--------------------------------*- C++ -*----------------------------------*\
| =========                 |                                                 |
| \\      /  F ield         | OpenFOAM: The Open Source CFD Toolbox           |
|  \\    /   O peration     | Version:  2406                                  |
|   \\  /    A nd           | Website:  www.openfoam.com                      |
|    \\/     M anipulation  |                                                 |
\*---------------------------------------------------------------------------*/
FoamFile
{
    version     2.0;
    format      ascii;
    arch        "LSB;label=32;scalar=64";
    class       volScalarField;
    location    "0.011";
    object      linearKEMean;
}
// * * * * * * * * * * * * * * * * * * * * * * * * * * * * * * * * * * * * * //

dimensions      [1 -1 -2 0 0 0 0];

internalField   nonuniform List<scalar> 
546
(
5.879864869
7.899731197
7.889356136
7.855027868
7.844868948
7.854616209
7.867104706
7.847961806
7.823734385
7.883044867
7.896433089
7.940187476
7.918810248
7.860288862
7.867343244
7.861508332
7.860544236
7.876717129
7.824834547
7.800400559
5.919340224
7.931838306
7.896089772
7.92849545
7.92440443
7.897057398
7.880556318
7.893666614
7.856044954
7.825527891
7.835607127
7.822762074
7.83823738
7.836239895
7.858692964
7.824346828
7.833071733
7.860938546
7.886646973
7.87725633
5.868678487
7.871200083
7.830172741
7.802270367
7.819224959
7.84372995
7.865705008
7.875686665
7.865564645
7.877291704
7.854668388
7.84982023
7.802535905
7.770848141
7.803130456
7.816454862
7.787675096
7.782495652
7.785502756
7.771869707
5.905781813
7.938500136
7.883953092
7.827446428
7.846855515
7.817221039
7.81543291
7.81190076
7.871302049
7.822630942
7.856738595
7.887711665
7.94008806
7.917741101
7.892981239
7.85982839
7.875683624
7.857435909
7.906981969
7.914926031
5.911421652
7.935641868
7.871233525
7.85666007
7.849078358
7.845282279
7.818816527
7.831450615
7.780854648
7.762974964
7.782487789
7.737057866
7.765295478
7.808803718
7.859520055
7.897764783
7.924875698
7.916314443
7.873770851
7.8611843
5.885207495
7.911789741
7.846182776
7.8621104
7.900171863
7.921809515
7.879212993
7.864421248
7.892573962
7.905083247
7.919843902
7.906158397
7.894219234
7.853984334
7.849844905
7.85633536
7.848722993
7.810514659
7.838798191
7.868330084
5.890351689
7.890095614
7.856727062
7.858401679
7.80876795
7.823018475
7.846126391
7.897943407
7.89340899
7.891275364
7.915644739
7.89751115
7.916517939
7.891102278
7.863110378
7.854177203
7.852847688
7.8434601
7.848325811
7.838574748
5.894958481
7.960535587
7.924019123
7.915501486
7.93001156
7.908341218
7.919952438
7.87632219
7.886945688
7.867531666
7.86980679
7.821707356
7.821964543
7.833415597
7.848954063
7.865728402
7.882847731
7.903753236
7.918119824
7.917909476
5.892152268
7.897194324
7.811523259
7.819355447
7.81667202
7.787179682
7.784372722
7.84577682
7.82340413
7.878323195
7.895301451
7.913039436
7.914878577
7.920878983
7.881401524
7.815508872
7.834837579
7.825438889
7.802574048
7.809502331
5.870162898
7.862526416
7.831648846
7.832820592
7.83744531
7.841574807
7.850361333
7.859542083
7.837200981
7.803460644
7.764094222
7.793182085
7.810695901
7.843072336
7.862982446
7.861744647
7.847781859
7.796472744
7.79318667
7.767391268
5.918255283
7.935246594
7.88214827
7.845080638
7.842197921
7.800650787
7.8245515
7.781292079
7.822690657
7.839205138
7.837432303
7.819963267
7.810090495
7.794175047
7.781891889
7.799797775
7.813651499
7.854868225
7.907929375
7.922674629
5.874089116
7.932978374
7.869411976
7.872178864
7.857422171
7.841788205
7.867266628
7.83891408
7.812037378
7.805121076
7.781064853
7.822101804
7.820303988
7.839821686
7.864461721
7.84898414
7.863598659
7.800207557
7.835301891
7.833058091
5.92440757
7.944253818
7.895926749
7.872711397
7.895654684
7.87718545
7.870103143
7.857691913
7.879164941
7.894096525
7.878960818
7.919610182
7.932606295
7.90634888
7.901501265
7.928089264
7.861054509
7.925509134
7.909254757
7.897087215
5.871817183
7.875568818
7.855960794
7.8386847
7.84486327
7.848009871
7.877060684
7.905615899
7.913186068
7.895775341
7.845262305
7.798205814
7.756437986
7.793511354
7.804930164
7.81687589
7.842782367
7.823984415
7.8310258
7.832176366
5.892888583
7.922194748
7.841554214
7.804311975
7.835931911
7.827008004
7.797480408
7.826315851
7.808127317
7.791981349
7.768779919
7.812665916
7.842920914
7.799276944
7.800599726
7.783294066
7.780692204
7.770676444
7.813452591
7.826865872
5.86313746
7.868916239
7.845074757
7.874841105
7.898705269
7.858171374
7.815740486
7.793741265
7.808028225
7.844087823
7.870776659
7.839141539
7.836307942
7.831574784
7.86871748
7.861634286
7.855549268
7.819646371
7.78582252
7.800785267
5.914875658
7.990834258
7.921482246
7.869860399
7.836390506
7.889718979
7.913014733
7.939109826
7.895263124
7.936812147
7.900499149
7.875335441
7.891980942
7.846087172
7.86671065
7.840744383
7.863168287
7.841933325
7.877681885
7.858097926
5.786206505
7.738489745
7.705830581
7.741419977
7.746411563
7.76573232
7.766965207
7.753099544
7.739012478
7.736105911
7.783373087
7.778353438
7.79802045
7.790564648
7.759537013
7.764073608
7.747944885
7.770683751
7.795712034
7.802435864
7.899257676
7.906692856
7.909967101
7.895990737
7.912636037
7.948389224
7.811071555
7.842983214
7.86061462
7.808581844
7.849509737
7.879078352
7.907013888
7.90612644
7.867838325
7.87352244
7.892381155
7.908494957
7.916257694
7.927869736
7.890242994
7.868230861
7.861666871
7.892799035
7.906540506
7.922043671
7.787578197
7.771519657
7.77797182
7.779902685
7.815013088
7.805770367
7.830992412
7.848358981
7.885171014
7.89310292
7.937677595
7.954296733
7.91056229
7.946947587
7.927833828
7.892977992
7.85997877
7.850459818
7.796942342
7.831167599
7.85657386
7.828491928
7.841979632
7.826899923
7.841805078
7.831765097
7.890287947
7.949203681
7.896413984
7.874667219
7.866328933
7.870603138
7.879188856
7.883497602
7.939497854
7.942023194
7.894104054
7.892175347
7.937730502
7.926323893
7.825887264
7.827724942
7.827605531
7.854380338
7.801830982
7.807640409
7.841275664
7.864393391
7.803404255
7.80564359
7.940691094
7.945967817
7.883313763
7.804670654
7.800022334
7.777380848
7.778886667
7.748080372
7.764503591
7.763885306
7.740657965
7.729565039
7.748785738
7.721818285
7.758445126
7.777506824
7.779119036
7.733776923
7.768128146
7.768519601
7.795778528
7.852849788
7.858738077
7.900654355
7.881658324
7.899697346
7.896867353
7.909543793
7.915158292
7.856597507
7.913031733
7.87895279
7.870140911
7.881432624
7.908407733
7.876200484
7.86701958
7.861090652
7.876181559
7.899450383
7.855764241
7.870903365
7.86110145
7.835750443
7.828465049
7.836925738
7.850957567
7.895154982
7.912457331
7.936821796
7.841624845
7.852136461
7.881784381
7.883829626
7.866869001
7.906196608
7.867210916
7.876107058
7.851050019
7.851999609
7.870687984
7.884907276
7.849727122
7.87668799
7.888407924
7.840157545
7.837464714
7.845224055
7.821411377
7.769128918
7.804993392
7.809400558
7.799654738
7.812427926
7.821917192
7.837572026
7.811560209
7.830571051
7.847955552
7.892709881
7.785401289
7.802746191
7.814519412
7.819003664
7.858207858
7.801490896
7.824325965
7.781451852
7.798008239
7.838271862
7.814816376
7.799262991
7.787804183
7.769545973
7.777180372
7.808668369
7.838795794
7.885893943
7.899922594
7.851468135
7.800541315
7.798202756
7.795937156
7.862983253
7.785808079
7.775577983
7.800977855
7.735131549
7.687118234
7.750896593
)
;

boundaryField
{
    flow
    {
        type            calculated;
        value           nonuniform List<scalar> 
48
(
5.879864869
5.919340224
5.868678487
5.905781813
5.911421652
5.885207495
5.890351689
5.894958481
5.892152268
5.870162898
5.918255283
5.874089116
5.92440757
5.871817183
5.892888583
5.86313746
5.914875658
5.786206505
5.786206505
7.738489745
7.705830581
7.741419977
7.746411563
7.76573232
7.766965207
7.753099544
7.739012478
7.736105911
7.783373087
7.778353438
7.79802045
7.790564648
7.759537013
7.764073608
7.747944885
7.770683751
7.795712034
7.802435864
7.800541315
7.798202756
7.795937156
7.862983253
7.785808079
7.775577983
7.800977855
7.735131549
7.687118234
7.750896593
)
;
    }
    obstacle
    {
        type            calculated;
        value           nonuniform List<scalar> 0();
    }
    frontAndBack
    {
        type            empty;
    }
    procBoundary2to0
    {
        type            processor;
        value           nonuniform List<scalar> 
31
(
5.883821812
7.926282838
7.860074525
7.817207339
7.838827289
7.805491144
7.843677485
7.891367291
7.930740455
7.896255762
7.866662111
7.842340978
7.850668683
7.867691814
7.836393992
7.866380353
7.840555927
7.842498426
7.884497557
7.876759888
7.873494488
7.873171435
7.871330059
7.884668757
7.958224708
7.961493499
7.878975131
7.837157919
7.843749918
7.879293216
7.879293216
)
;
    }
    procBoundary2to3
    {
        type            processor;
        value           nonuniform List<scalar> 
19
(
7.955224591
7.911878815
7.932836642
7.918294103
7.8357031
7.864502428
7.961329643
7.785612227
7.797807786
7.741887169
7.867401932
7.889253004
7.937756076
7.837559411
7.821886029
7.854081846
7.879951823
7.849270785
7.696104797
)
;
    }
}


// ************************************************************************* //
