/*--------------------------------*- C++ -*----------------------------------*\
| =========                 |                                                 |
| \\      /  F ield         | OpenFOAM: The Open Source CFD Toolbox           |
|  \\    /   O peration     | Version:  2406                                  |
|   \\  /    A nd           | Website:  www.openfoam.com                      |
|    \\/     M anipulation  |                                                 |
\*---------------------------------------------------------------------------*/
FoamFile
{
    version     2.0;
    format      ascii;
    arch        "LSB;label=32;scalar=64";
    class       volVectorField;
    location    "0.011";
    object      momentumMean;
}
// * * * * * * * * * * * * * * * * * * * * * * * * * * * * * * * * * * * * * //

dimensions      [1 -2 -1 0 0 0 0];

internalField   nonuniform List<vector> 
546
(
(0.006338078951 5.321509443e-06 -7.01745034e-07)
(0.008340772871 1.01072378e-05 -4.317484641e-06)
(0.008375581678 1.200181376e-05 3.145337877e-06)
(0.00834326717 1.05066325e-05 9.018113762e-07)
(0.008330386132 -9.985817118e-07 -2.895777225e-06)
(0.008339541448 -8.241844433e-06 2.405692931e-06)
(0.008348758548 -9.303209195e-07 5.161096005e-06)
(0.008325746886 -4.151664197e-06 2.571847163e-06)
(0.008294053446 -1.446430337e-05 3.980382146e-07)
(0.008357199678 -1.708604134e-05 -6.703471745e-06)
(0.008367207287 -1.294392988e-05 -2.117257435e-05)
(0.00840880092 -3.544018068e-06 -1.025996639e-05)
(0.0083885007 5.418899777e-06 -1.018378148e-05)
(0.00833441506 5.992199239e-06 -1.342411286e-06)
(0.00833979348 7.251526169e-06 5.382340322e-06)
(0.008333043702 8.933542737e-06 -6.395987327e-06)
(0.008336018376 -8.425627914e-07 -1.39368311e-05)
(0.008351176155 -8.070094886e-06 -8.553096116e-06)
(0.008294850285 2.476103517e-06 -8.891223814e-06)
(0.008269784232 1.101475614e-05 -1.239638421e-05)
(0.006380267116 9.765193816e-07 6.60508933e-06)
(0.008359253948 -1.670678928e-06 9.034387521e-06)
(0.008369593951 3.894635681e-06 1.238140024e-05)
(0.008401501262 2.405541861e-07 5.088784037e-07)
(0.008403098314 7.78753761e-06 -3.722514569e-07)
(0.008376828363 8.50110262e-06 -7.921204278e-06)
(0.008356167638 -1.134536574e-05 -1.22747337e-05)
(0.008370304656 -2.076392944e-05 -1.577766616e-05)
(0.008333787318 -1.474910819e-05 -1.584423416e-05)
(0.008301604244 -3.34251592e-06 -5.1305879e-06)
(0.008311358148 5.179368484e-06 -3.438954653e-06)
(0.008295229737 -6.217677405e-08 -5.63228007e-06)
(0.008309071399 -1.332900983e-06 -1.514353685e-05)
(0.008297468259 -1.51174293e-06 -1.409096112e-05)
(0.008325086915 7.898566721e-06 -1.314315967e-05)
(0.008290479865 7.9908806e-06 -2.154331007e-06)
(0.008299849425 1.126935181e-05 5.537129656e-07)
(0.008333032093 1.59104717e-05 -2.766214407e-06)
(0.00836102184 7.588318656e-06 4.333226511e-06)
(0.00835168503 6.623740137e-06 6.509172289e-06)
(0.006326755663 -1.105599368e-06 -1.31114387e-05)
(0.008299930214 -4.838841886e-06 -1.890177441e-05)
(0.008299684284 -1.482512713e-05 -8.694936843e-06)
(0.008271874555 -2.285604452e-05 -5.813150443e-06)
(0.008285837316 -1.687819919e-05 -4.089937629e-07)
(0.008305744952 -1.363581815e-05 3.70632799e-06)
(0.008337778273 5.969810451e-06 3.210362637e-06)
(0.008342652752 2.203777026e-05 7.073756204e-06)
(0.008332543915 2.076853182e-05 3.664164097e-07)
(0.008353515449 1.023651321e-05 -5.393398936e-06)
(0.008329589419 9.665453989e-06 -7.71574114e-06)
(0.00832504183 1.145780686e-05 -5.167135527e-06)
(0.008284953179 5.315306319e-06 1.08186703e-06)
(0.008248164934 7.608641319e-06 3.738936398e-06)
(0.008278641056 7.112243667e-07 2.907634318e-06)
(0.008294810411 1.170494227e-06 -5.182896404e-06)
(0.008261606521 -1.146677883e-06 -4.133424519e-06)
(0.00826243191 -2.156120502e-06 -9.936271162e-07)
(0.008256959925 3.762192607e-06 -1.40804215e-06)
(0.008246055044 -8.948147043e-06 -1.149063473e-05)
(0.006363660781 4.32631643e-06 1.900705225e-06)
(0.008365857802 -2.620292246e-08 5.182284899e-06)
(0.008355033847 1.412912135e-06 9.893225737e-07)
(0.008300843302 5.110600612e-06 3.838154386e-06)
(0.008323162033 -1.863992308e-07 2.848935809e-06)
(0.008288210275 9.439792942e-07 7.858642615e-06)
(0.008286104473 -1.012386786e-05 5.135622553e-06)
(0.008285200613 -1.38964618e-05 3.884074601e-06)
(0.008344585766 -4.499209032e-06 5.180001373e-06)
(0.008299258263 2.697466495e-06 8.834557594e-06)
(0.008335816988 -2.026293337e-06 7.339759677e-06)
(0.008362439152 4.204609546e-07 1.184671421e-05)
(0.008415407188 1.036964612e-05 1.864300434e-06)
(0.008393683989 1.265238022e-05 2.52497541e-06)
(0.008364636778 1.602682373e-05 4.7739893e-06)
(0.008331534002 1.14063335e-05 4.337831842e-06)
(0.008340580783 1.234853363e-05 6.619374399e-06)
(0.008322760111 3.427010268e-06 4.367456122e-06)
(0.008380538279 -6.677356533e-06 3.486625521e-06)
(0.008386941739 -1.070651725e-05 7.09066076e-06)
(0.006366073749 -5.736299106e-06 -4.904642755e-06)
(0.008364756241 5.718646506e-06 -6.184101357e-06)
(0.008347681279 1.088041768e-05 -3.90659362e-06)
(0.008337127515 4.521729039e-06 -1.066363786e-05)
(0.008325832281 9.908445188e-06 -6.555188774e-06)
(0.008329361361 1.199982977e-05 -7.95140621e-06)
(0.008299735282 1.093228464e-05 -3.49154369e-06)
(0.008309399657 6.381290596e-06 1.148038547e-05)
(0.008255106218 -8.141806527e-06 9.766366868e-06)
(0.008227622579 -1.635747704e-06 9.467702619e-06)
(0.008242608213 9.944436458e-06 7.793625942e-06)
(0.008200617736 4.245885507e-06 8.711923586e-06)
(0.008226792591 2.668738158e-06 9.652545199e-06)
(0.008274919326 -1.715602679e-06 2.749907437e-06)
(0.008335557132 -7.888790639e-06 -1.885739465e-06)
(0.008375172977 -7.856654076e-06 2.447097557e-06)
(0.008405773587 -1.522405315e-05 3.969891739e-06)
(0.008392106976 -1.099926135e-05 4.113149733e-06)
(0.008351927923 -7.691553036e-06 5.099019807e-06)
(0.008339100558 3.925644933e-06 7.679330545e-06)
(0.006343392815 4.353699188e-06 -1.899155649e-06)
(0.008342396319 7.77581215e-06 -3.669770531e-06)
(0.008329213472 5.70870978e-06 -1.016526622e-06)
(0.008345600929 1.947507312e-05 6.287632629e-06)
(0.008387165561 1.409589226e-05 1.003444508e-05)
(0.008405961997 1.580424549e-05 1.034120791e-05)
(0.00836558894 1.176413646e-05 7.956192944e-06)
(0.008351124588 5.213234556e-06 -4.077639976e-06)
(0.008382971012 1.3879298e-05 3.463003403e-07)
(0.008392299935 -1.226776699e-06 5.519309906e-07)
(0.008410597586 -1.505637154e-05 1.390614709e-06)
(0.008395780047 -1.969949175e-05 -5.212782621e-06)
(0.008378550554 -1.939297592e-05 -6.28999772e-06)
(0.008327913414 -1.663279999e-05 4.132263306e-06)
(0.008318016236 -1.026892968e-05 3.632473125e-06)
(0.008326525923 -1.210679223e-05 -1.430625822e-06)
(0.00832246029 -5.809838964e-06 -2.838634928e-06)
(0.008289234709 -1.991057622e-06 -4.378938446e-06)
(0.008320961891 2.578573408e-06 1.015925748e-06)
(0.008342409622 -1.524133949e-06 -3.785107375e-06)
(0.00635405845 5.476639399e-06 4.758799515e-06)
(0.008326076353 9.462309719e-06 4.189628403e-06)
(0.008334252739 1.734292691e-06 2.693042777e-06)
(0.008332819861 -2.11914515e-06 -3.033011772e-06)
(0.008280733868 -1.203361238e-05 -9.806149993e-06)
(0.008297177538 -1.148951036e-05 -6.958153556e-06)
(0.008323153456 -5.740393626e-06 -3.523563134e-06)
(0.00837101784 1.328010112e-07 -3.824732711e-06)
(0.008365795913 2.813911552e-06 -4.180980121e-06)
(0.008374581885 -1.123801462e-06 -3.157880281e-06)
(0.008394973201 6.156697092e-06 2.673609684e-06)
(0.008385616699 1.338717982e-05 1.000192792e-06)
(0.00840355064 5.117507495e-06 -6.162334751e-06)
(0.008377678819 2.15206046e-06 -4.272489237e-06)
(0.008355134328 -7.050602579e-07 -1.469333039e-06)
(0.0083433937 1.902705868e-06 -1.811111325e-06)
(0.008348804854 -1.249723321e-06 4.20896098e-06)
(0.008325592731 -1.226676006e-06 -8.833172857e-07)
(0.008330606472 -2.848096041e-06 -1.396480431e-06)
(0.008322628764 -3.619031219e-06 -4.692037541e-06)
(0.006346050757 -5.269571128e-06 8.641658413e-06)
(0.008382977877 -8.918959401e-06 2.971471007e-07)
(0.008394473779 -1.086350114e-05 2.265282929e-06)
(0.008388720677 -4.289634347e-06 -1.131103258e-06)
(0.008403977154 -8.259069963e-06 8.452669614e-06)
(0.008385144126 -4.429360544e-06 -2.061723218e-06)
(0.008398871892 2.542307922e-06 -1.06681502e-05)
(0.008359907828 3.086939567e-06 -9.606111437e-06)
(0.008369136186 -4.195339816e-06 -1.423001335e-05)
(0.008345946436 7.772104194e-06 -1.036223509e-05)
(0.008346745675 1.245406448e-05 -1.0646728e-05)
(0.008302086418 3.72686643e-06 -1.774454622e-05)
(0.008306491791 -1.782554797e-06 -6.348850934e-06)
(0.008313035739 -3.000564147e-06 -1.169275213e-05)
(0.008332246029 1.452356804e-06 -6.386143162e-06)
(0.008350816762 -2.322882777e-06 -6.911872878e-06)
(0.008361869243 -6.407725056e-06 -8.351042383e-06)
(0.008390355169 -4.762481485e-06 -1.155563117e-05)
(0.008410828817 -9.665424592e-06 -1.150249727e-05)
(0.008406205002 -1.081346821e-05 -1.294670493e-05)
(0.00635279342 -6.94273307e-06 -5.21377855e-06)
(0.008333115612 -1.651993737e-05 -6.45920631e-06)
(0.008295758236 -2.564342558e-05 -2.976893679e-06)
(0.008309813018 -1.835700816e-05 -9.090359045e-06)
(0.008307556095 1.553113451e-06 -5.242185782e-06)
(0.008272732398 1.046859764e-05 1.742163922e-06)
(0.008268055376 7.428610843e-06 4.413586269e-06)
(0.008324662928 -3.371415159e-06 4.380376999e-06)
(0.008297300122 2.080734345e-06 8.612879206e-06)
(0.008357651535 -4.464839993e-06 -2.343428347e-06)
(0.008380255915 -8.397969526e-06 5.182944154e-06)
(0.008394642808 -1.131078366e-05 1.08600852e-05)
(0.008394998389 -1.092852938e-06 1.206286014e-05)
(0.008403433326 4.899844253e-06 5.930855646e-06)
(0.00835993959 3.035547776e-07 2.691803642e-06)
(0.008292640182 4.099988084e-06 -4.270837237e-06)
(0.008313909518 -7.177971841e-06 3.323469382e-07)
(0.008304980651 -2.809380439e-06 -6.216885352e-07)
(0.008275692342 7.795304495e-07 1.509421615e-06)
(0.00827560379 1.431056699e-06 5.773042122e-06)
(0.006330908613 8.313499788e-07 -3.949120716e-06)
(0.008291693181 8.438095393e-06 1.545821015e-06)
(0.008304906368 9.871671563e-06 -7.512799536e-08)
(0.008301514129 -4.39837224e-06 1.431636046e-06)
(0.008302551925 -9.25154209e-06 4.565491593e-06)
(0.008313089866 -1.216055112e-05 5.321829598e-06)
(0.008320970217 -7.929612798e-06 9.054767225e-06)
(0.008332263929 -6.410672173e-06 1.732757844e-06)
(0.008307878387 -6.820351156e-06 -9.203692105e-07)
(0.008269541728 -1.179442501e-05 -1.732377521e-06)
(0.008232858019 -4.19252584e-06 -7.732377788e-06)
(0.008258361011 1.017197957e-05 -1.257647657e-05)
(0.008281891616 5.339210754e-06 -1.872834408e-05)
(0.008311421406 5.935926834e-06 -1.777409258e-05)
(0.008330925452 1.862444555e-06 -8.143247504e-06)
(0.008334161048 7.238823095e-06 -7.303309971e-06)
(0.008322027302 1.523087222e-05 -1.059084865e-05)
(0.008268605544 2.076172671e-05 -3.86870434e-06)
(0.008264248218 1.742305394e-05 -4.876718863e-06)
(0.008238335924 1.02027811e-05 -1.251187737e-05)
(0.006375837726 5.337348427e-06 9.709800759e-08)
(0.008360142843 -7.402550922e-07 -3.690739707e-06)
(0.008352253426 6.778970103e-06 3.00127565e-06)
(0.008319403884 3.653466441e-06 7.885644684e-06)
(0.008318282184 8.118350748e-07 -5.904879278e-06)
(0.008282086967 -7.672943841e-06 -7.843366107e-06)
(0.008305696979 -4.495584331e-06 -6.970832201e-06)
(0.008259119041 -2.758581014e-06 -8.340915294e-06)
(0.008301033086 2.16224585e-06 -6.573819587e-06)
(0.008323451835 5.096468057e-06 -4.789400109e-06)
(0.008320824193 -2.15269637e-06 -2.089211623e-06)
(0.008307953191 -5.010224397e-06 4.721778685e-06)
(0.008295781728 -2.20276876e-06 3.571405735e-06)
(0.008274710102 -1.695443764e-06 3.263231378e-06)
(0.008259656256 9.317834246e-07 -2.696463751e-06)
(0.008274494748 5.880083769e-06 6.628943833e-06)
(0.008287447999 1.191130671e-05 2.086151105e-06)
(0.00833121044 4.506948556e-06 -1.92740795e-06)
(0.008385168803 1.091237334e-05 9.29744995e-07)
(0.008402440015 1.284587659e-05 4.599757697e-06)
(0.006332532419 2.695237569e-06 1.713049953e-06)
(0.008366620788 1.015429259e-05 4.493273412e-07)
(0.008351783679 3.120134352e-06 -1.41534521e-05)
(0.008349729052 7.964899628e-06 -1.567468955e-05)
(0.008333651353 3.062315627e-06 -1.324492373e-05)
(0.0083116967 4.918956946e-06 -1.376162593e-05)
(0.008341438102 -1.09121793e-06 -1.559693739e-05)
(0.00830883141 -9.04891434e-06 -1.711314868e-05)
(0.008278015048 -6.822394085e-06 -9.457160309e-06)
(0.008275401469 -6.954359501e-07 -1.282478665e-05)
(0.008247799736 -1.664085463e-06 -1.858883071e-05)
(0.008286129241 4.35066693e-06 -1.828062975e-05)
(0.008283833955 8.398844233e-06 -7.724822644e-06)
(0.008309465855 -6.819544754e-08 8.672765596e-07)
(0.008341485262 2.059937866e-06 -3.716844026e-06)
(0.008323610386 -5.512074026e-06 -6.372886718e-06)
(0.008344036941 -5.435538501e-06 -7.229844921e-06)
(0.008278656177 -4.084329778e-06 1.593372997e-06)
(0.008312488481 -6.678421284e-06 -4.390858971e-06)
(0.008314831013 -9.2227378e-07 -3.8124991e-06)
(0.006379409338 2.129174801e-06 -1.810950582e-05)
(0.008369855972 -3.332614556e-06 -2.409309137e-05)
(0.008378835777 3.4884374e-06 -2.02333885e-05)
(0.008348701259 9.750221169e-06 -2.083422208e-05)
(0.008371479334 1.071495519e-05 -1.907707106e-05)
(0.008352297967 4.019637428e-06 -1.645574304e-05)
(0.008343083281 8.248463553e-06 -1.112165795e-05)
(0.008337583899 1.168440369e-05 -8.529355308e-06)
(0.008364386264 5.611751365e-06 -7.434812954e-06)
(0.008374725032 -8.173116261e-06 -3.488765594e-06)
(0.008363797316 -6.642590145e-07 5.270156958e-07)
(0.00840235014 -1.133939607e-05 4.586571125e-06)
(0.008409751033 -1.073952475e-05 -5.421516317e-06)
(0.008385373462 1.54636717e-07 -1.095698834e-05)
(0.008378780524 -1.860074138e-06 -7.403937788e-06)
(0.008406737967 1.32054793e-06 -2.836661495e-06)
(0.008337063595 7.189151518e-07 -7.036235857e-06)
(0.008402075379 2.502968345e-06 -5.442370935e-06)
(0.008387101659 8.350825407e-06 -6.700569312e-06)
(0.0083714582 1.090213634e-05 -3.443377593e-06)
(0.00633252001 3.803057029e-06 -1.646359795e-05)
(0.008296975749 1.552772695e-06 -1.755846834e-05)
(0.008323456696 -8.880069316e-07 -1.550655724e-05)
(0.008311287919 -2.360236723e-06 -1.759569688e-05)
(0.008319689096 -7.783855001e-06 -1.095028851e-05)
(0.008333071273 7.20987634e-06 -9.994497764e-06)
(0.008355294312 6.923270701e-06 -7.096671938e-06)
(0.008390869293 7.448489104e-06 -5.803990285e-06)
(0.008386546493 6.236025844e-09 -1.059309513e-05)
(0.00836910446 1.813488066e-06 -7.301263482e-06)
(0.008320558251 -3.255260263e-06 -1.6032288e-05)
(0.008272582203 -4.54329821e-07 -1.613787305e-05)
(0.008233074401 -8.905484544e-07 -2.199163778e-05)
(0.008275001563 2.377801622e-06 -1.266606713e-05)
(0.008282077398 7.376891884e-06 -1.267719709e-05)
(0.008296353373 9.217445899e-06 -1.882713386e-05)
(0.008319239821 -1.199672874e-07 -1.936915523e-05)
(0.008297524456 -9.330310566e-07 -2.003163891e-05)
(0.008299744886 -4.079732724e-06 -1.323452661e-05)
(0.00830574188 -4.037942839e-06 -1.521692836e-05)
(0.006355917453 -2.230881347e-06 -6.483630597e-06)
(0.0083626428 -2.958553594e-07 -8.625921204e-06)
(0.008333801219 -4.270584169e-06 -4.129948378e-06)
(0.008289530147 -4.184115056e-08 4.628680646e-06)
(0.008325952852 1.678927555e-06 4.811799294e-06)
(0.008314024193 1.95567862e-06 5.801310424e-07)
(0.008280386644 -1.228443744e-05 1.203774472e-06)
(0.00830887887 -9.430604371e-06 2.733418189e-06)
(0.00829217727 2.818343082e-06 5.850538132e-07)
(0.008275158872 2.008264613e-05 3.168537516e-06)
(0.008254548431 2.224719693e-05 1.259464364e-06)
(0.008296824788 1.740998733e-05 -2.151844693e-06)
(0.008326233034 1.116155001e-05 9.642906351e-06)
(0.008278383745 -7.017175354e-06 9.492257475e-06)
(0.008281845508 -1.063138273e-05 -2.481166225e-06)
(0.008263244964 -1.464281348e-05 -5.117425461e-06)
(0.008256163829 -1.243280118e-05 -1.877853829e-06)
(0.008254390426 -7.827377357e-06 -5.002567361e-06)
(0.008296057837 -1.15317289e-05 -1.4894884e-05)
(0.008312828131 -9.163331675e-06 -1.668768893e-05)
(0.006320959046 6.562207044e-06 -6.462851707e-06)
(0.008299135126 1.025756951e-05 -7.042550646e-06)
(0.008316096711 1.26910838e-05 -7.600218788e-06)
(0.008342865771 7.019429328e-06 -5.304118042e-06)
(0.008369448999 3.53464094e-06 -5.700351506e-06)
(0.008325811041 1.054673546e-05 -6.197186643e-06)
(0.008283848543 1.303985601e-05 -6.655585934e-06)
(0.008263220711 1.8766247e-05 -6.565467349e-06)
(0.008272359612 7.021537771e-06 -1.147647011e-05)
(0.008316055537 -7.289460657e-06 -1.367202142e-05)
(0.008336871922 -7.400222176e-06 -1.106094865e-05)
(0.008314784619 -1.624636689e-06 -6.832614244e-06)
(0.008309677209 7.651847708e-07 -1.888580518e-05)
(0.008313192101 9.231943149e-06 -2.038034584e-05)
(0.008355590696 5.858336177e-06 -1.40385396e-05)
(0.008349922411 -2.640938913e-06 -7.971244179e-06)
(0.008342993628 -7.04213907e-06 2.573741562e-06)
(0.008310854406 -1.054314738e-05 -3.758623505e-06)
(0.008274505871 -1.99423315e-06 -2.649032762e-06)
(0.008285991926 -2.446167747e-06 1.165824427e-06)
(0.006379853428 8.12190396e-06 -1.196279026e-06)
(0.008419881804 5.886160399e-06 -4.566365249e-06)
(0.00839726039 3.144755498e-06 -1.346705638e-05)
(0.008343531311 4.674937877e-06 -1.310492204e-05)
(0.008301449084 7.147350232e-06 -1.42580867e-05)
(0.008365384199 8.690564896e-06 -1.232450438e-05)
(0.008388262772 5.686024023e-06 -1.680103429e-05)
(0.008412692488 3.531008157e-06 -1.509986759e-05)
(0.008377802269 7.976343946e-06 -7.487925622e-06)
(0.008414448712 6.778129663e-06 -3.352855354e-06)
(0.008382740203 1.108079855e-06 -4.617006248e-06)
(0.008351827383 -2.639308262e-06 -4.125646961e-06)
(0.008370712033 -2.008409917e-06 -7.812187078e-06)
(0.008322797355 4.433898384e-06 -6.368876096e-06)
(0.008340171684 3.811270592e-06 -9.181076938e-06)
(0.008318841908 1.515339795e-05 -9.814849968e-06)
(0.008333990284 2.696339918e-05 -1.596209349e-05)
(0.008314245691 1.410059683e-05 -3.326116574e-06)
(0.008352220514 3.219952371e-06 -5.906669168e-06)
(0.00833407407 7.1585285e-07 -1.103146007e-05)
(0.006231141161 1.732005475e-05 -4.447376437e-06)
(0.008164298593 2.22320119e-05 -2.895959542e-06)
(0.008182597903 3.054098887e-05 6.452657166e-06)
(0.008226664618 3.090543144e-05 1.688939131e-06)
(0.008230199626 3.301169135e-05 -4.30083704e-06)
(0.008242748713 3.058596577e-05 -4.995738051e-06)
(0.008251440878 2.528926373e-05 -2.911068396e-06)
(0.00824050989 2.490617461e-05 6.376938335e-07)
(0.008220307203 2.570519786e-05 -6.579163341e-06)
(0.008218021343 3.305957913e-05 -1.403818137e-05)
(0.008269030085 4.331440425e-05 -1.780757771e-05)
(0.008266096483 4.680622733e-05 -6.416207974e-06)
(0.008282290008 3.758354539e-05 -1.337880833e-06)
(0.008275175415 2.76537429e-05 1.438698173e-06)
(0.00824399105 3.020335561e-05 -4.585823934e-07)
(0.008247679493 3.117396473e-05 1.508046014e-06)
(0.008235283038 1.715647635e-05 -8.477383856e-07)
(0.008261124778 2.896760193e-05 -4.954792237e-06)
(0.008283187897 2.900098487e-05 -2.475181033e-06)
(0.008286606356 3.149346595e-05 2.620448612e-06)
(0.008370500465 2.510800352e-05 -4.294193312e-06)
(0.008378719418 1.935632664e-05 -9.361488346e-06)
(0.008379114215 1.81371132e-05 -1.149947764e-05)
(0.00836558828 1.84486075e-05 -1.399991396e-05)
(0.008374859848 2.680093765e-05 -1.202622622e-05)
(0.008411625258 5.008637611e-05 -5.510182846e-06)
(0.008280895316 9.276299903e-06 -2.106643246e-06)
(0.008308900228 1.338607681e-05 -4.794192293e-06)
(0.008321282213 8.909529201e-06 -7.371748889e-06)
(0.008267777723 9.253213405e-06 -8.953600785e-06)
(0.008310254081 -3.274800594e-06 -4.590075923e-06)
(0.008343250357 2.232558478e-06 5.802763451e-06)
(0.008378804085 3.161383044e-06 8.392276852e-06)
(0.008374865328 2.404656805e-05 9.649631788e-06)
(0.008335302023 2.48450414e-05 1.982177592e-06)
(0.008333203174 2.789392961e-05 3.635014632e-07)
(0.008368778288 4.375811906e-06 4.977298803e-06)
(0.008384636506 1.741058842e-07 6.971045903e-06)
(0.008405649048 1.815530778e-06 1.728128816e-05)
(0.008414377298 -7.676012058e-06 1.330105373e-05)
(0.008374562646 2.226019955e-06 7.98128453e-06)
(0.008346807359 1.707406155e-05 8.528597499e-06)
(0.008331523494 1.540734716e-05 7.241629719e-06)
(0.008364361187 1.777199771e-05 1.411067713e-05)
(0.008373761981 1.56687299e-05 1.257772981e-05)
(0.008398196219 2.781191603e-05 1.34482696e-05)
(0.008267813617 -5.365152177e-06 -1.185781614e-05)
(0.008249815395 -7.090085812e-06 -6.584395788e-06)
(0.008251526903 -4.336399166e-06 -5.134086094e-06)
(0.008251301489 -4.144916024e-06 -6.626295802e-07)
(0.008288661728 -1.334321184e-05 4.821681762e-07)
(0.00827940422 -6.949638091e-06 -4.773484293e-06)
(0.008299150018 -3.264060469e-06 -6.554967862e-06)
(0.008313791256 2.433259495e-06 -1.292327002e-05)
(0.008350881013 2.42752128e-06 -8.580660351e-06)
(0.008365196442 6.324570022e-06 -7.158248304e-06)
(0.008408563518 -1.378689391e-05 -1.705786269e-07)
(0.008421675193 -2.006769667e-06 3.272462856e-07)
(0.00837428583 4.905141463e-06 -5.60832205e-06)
(0.008419230377 8.881471712e-06 -1.170785931e-05)
(0.008400426395 8.768557442e-06 -6.55398915e-06)
(0.008372472059 8.389921808e-06 -5.132583418e-06)
(0.00833548464 -1.094595531e-06 5.787647636e-06)
(0.008331776303 -7.150154094e-06 8.22148657e-06)
(0.00827013201 -6.418504551e-07 4.053034951e-07)
(0.008308468854 9.80467335e-07 -4.332010051e-06)
(0.008340763012 1.590846149e-06 1.751356618e-05)
(0.008310589197 3.823123705e-06 1.662801395e-05)
(0.008322567761 -1.080636604e-06 1.646406421e-05)
(0.008301901122 6.388166991e-06 1.317337765e-05)
(0.008314424886 6.586551056e-06 4.479102802e-06)
(0.008305048606 -5.245412358e-06 3.691426835e-06)
(0.008364657019 5.446236568e-06 -5.18711237e-07)
(0.008423518525 6.187809376e-06 -4.468148942e-06)
(0.008374410756 5.039172073e-06 4.908254605e-06)
(0.008351240671 1.450162021e-05 7.051129279e-06)
(0.008335828282 8.210040484e-07 -8.572214608e-06)
(0.008339501864 1.871548202e-06 -9.013544268e-06)
(0.008347475534 1.998500461e-06 -1.294893794e-05)
(0.008362791288 -6.623400156e-06 -8.046710147e-06)
(0.008420370108 -7.039639967e-06 -5.329053988e-06)
(0.008431730136 3.042821696e-06 -3.098885442e-06)
(0.008380719222 8.503022262e-06 -4.408604048e-06)
(0.008374883623 7.421548155e-06 -8.632712808e-06)
(0.00841900422 1.288545095e-05 -1.008411195e-05)
(0.008417902783 9.332283212e-06 -1.717173749e-05)
(0.008315176159 -2.189412054e-06 -1.850484065e-06)
(0.00832622841 -8.826285325e-06 -8.836215163e-06)
(0.008321637738 -2.122732703e-05 -9.46421361e-06)
(0.008348560033 -1.616580853e-05 -1.255623679e-05)
(0.008290026625 -9.440593508e-06 -1.97814203e-05)
(0.008292691036 -1.304595936e-05 -2.037950688e-05)
(0.008319177095 -5.766169274e-06 -1.805138697e-05)
(0.008336462627 -2.978025055e-06 -1.824742515e-05)
(0.008268642174 2.062548452e-06 -1.554609136e-05)
(0.00825992818 2.706983376e-06 -7.848455488e-06)
(0.008430180622 -1.763369171e-06 -5.509159972e-06)
(0.008430078285 3.685496739e-07 -7.486790134e-06)
(0.008358258385 5.263467152e-06 4.188790455e-06)
(0.008277970756 5.856780294e-06 5.940607081e-06)
(0.008264347892 5.815655274e-06 4.482342142e-06)
(0.008246860756 1.205417082e-05 6.956965469e-06)
(0.008250105859 5.372933646e-06 -8.231278308e-07)
(0.008220339342 1.241991088e-05 -5.4337123e-06)
(0.008240470449 -7.258823263e-07 -1.176896037e-05)
(0.008246278306 -3.318007891e-06 -1.364643572e-05)
(0.008209406052 4.735407796e-06 2.688358059e-07)
(0.008198982413 1.176948088e-05 -3.736669319e-06)
(0.008214218343 2.122540982e-05 -4.447706637e-06)
(0.00818855963 2.28617404e-05 -2.524027652e-06)
(0.008232881928 1.844664893e-05 -2.046704991e-06)
(0.008254449887 1.39025869e-05 -6.65184384e-06)
(0.008266860899 -1.25465431e-06 5.128340899e-07)
(0.008214470054 -1.982638666e-06 8.833106701e-06)
(0.008243760632 -4.093772176e-06 1.324648919e-05)
(0.008243267692 1.023588869e-06 9.767149975e-06)
(0.00826022448 1.291889715e-05 -1.100322611e-05)
(0.008320581211 1.282994062e-05 -3.389446221e-06)
(0.008337325187 1.213657827e-05 -1.645854107e-05)
(0.0083866895 8.890015091e-06 -8.082086333e-06)
(0.008370014125 2.720498659e-06 -8.461707127e-06)
(0.008377590592 -2.086615648e-06 -5.428193634e-06)
(0.00837423062 1.081961025e-05 -7.97513722e-06)
(0.008387738893 1.214077022e-05 -1.214797796e-05)
(0.008395717478 2.032240477e-05 -5.323308697e-06)
(0.008330851406 2.005936228e-05 6.524799743e-06)
(0.008399640452 1.040047064e-05 1.918269058e-06)
(0.00836408109 -4.842969979e-06 -2.668264309e-06)
(0.008344635545 -7.860688324e-06 4.587771472e-07)
(0.008348909827 -1.428703729e-06 1.669737969e-06)
(0.008374792424 1.113497371e-05 -1.676945032e-06)
(0.008346175298 1.502709259e-05 -5.959874394e-06)
(0.008335769478 7.903852227e-06 -5.827273947e-06)
(0.008327432504 1.555769496e-05 4.277485501e-08)
(0.008347204701 7.453353083e-06 -5.839869941e-06)
(0.008368899361 1.686782042e-05 -1.826691403e-05)
(0.008332002931 3.851915489e-08 -2.897550745e-06)
(0.00834619923 7.080276332e-06 -9.895632908e-07)
(0.008344051306 1.188018723e-05 -1.500785943e-06)
(0.008313231382 9.779685776e-06 6.774429001e-07)
(0.008303140466 8.715974983e-06 5.53199908e-06)
(0.008309592399 8.747679551e-06 1.92999171e-07)
(0.008327243002 3.082633567e-06 -2.66616549e-06)
(0.008377667609 -6.054734382e-07 -4.674060295e-06)
(0.008393899088 4.084189464e-07 -1.017442494e-05)
(0.008418407643 5.522481733e-09 -1.737198702e-05)
(0.008314923868 7.939093701e-06 -8.193026845e-06)
(0.008329884423 4.671496539e-06 -1.344617539e-05)
(0.008355715402 3.425369588e-07 -1.580638614e-05)
(0.008366249608 3.177133463e-06 -2.222134121e-05)
(0.008345103035 -4.451641422e-06 -1.691659364e-05)
(0.008386684786 -5.989526543e-06 -1.730513579e-05)
(0.008346543605 -9.892817257e-08 -1.412192707e-05)
(0.008349858352 -2.737177e-06 -1.803969889e-05)
(0.008321934799 -3.800307054e-06 -1.650843344e-05)
(0.008326407302 -1.061806535e-05 -1.127839015e-05)
(0.008345026298 -6.910900756e-06 -5.835802368e-06)
(0.008366246775 1.750042617e-07 -4.895308786e-06)
(0.008333575112 -6.577751917e-07 1.013491642e-06)
(0.008363511235 4.970847563e-06 -1.522481169e-06)
(0.008377957947 1.093868202e-05 4.501337617e-07)
(0.008331667656 1.318934165e-05 1.381117662e-06)
(0.008327550834 9.965742894e-06 2.518465722e-06)
(0.008328822255 6.991633386e-06 8.896216408e-06)
(0.008311190828 2.066245781e-05 1.343194993e-05)
(0.008251153113 1.836664976e-05 1.002989426e-05)
(0.008283071943 5.371087875e-07 -1.077556167e-05)
(0.008290557516 1.560661052e-06 -1.421707624e-05)
(0.008279191938 4.000601524e-06 -9.002991251e-06)
(0.00829022965 9.378349866e-08 -8.021127462e-06)
(0.008296866157 2.308750966e-06 -3.202350023e-07)
(0.008308935152 2.505536642e-06 -4.075488149e-06)
(0.008287550535 1.500981157e-05 -1.081086687e-05)
(0.008308026851 1.914560937e-05 -1.264876259e-05)
(0.008334278007 1.176850904e-05 -1.462261885e-05)
(0.008379080682 5.382872028e-06 -1.380167225e-05)
(0.00827112691 -7.405738379e-06 -1.4486426e-05)
(0.008291377036 -1.15113175e-05 -9.28249575e-06)
(0.008298575391 -5.186439198e-06 -1.543783296e-05)
(0.0083049862 -4.844045787e-06 -1.319784459e-05)
(0.008338375954 4.910416136e-07 -1.596521683e-05)
(0.008286784788 6.738695704e-06 -5.583197284e-06)
(0.008310684444 3.289097312e-06 -3.28590251e-06)
(0.008274936882 -6.235476091e-06 -1.148305777e-05)
(0.008290477436 -6.747140155e-06 -1.060495086e-05)
(0.008328679997 7.061184377e-06 -4.681336792e-06)
(0.008300106982 1.971657055e-06 -3.935594822e-06)
(0.008279329828 -1.645923184e-06 -3.540290079e-06)
(0.008273622822 -8.539157139e-06 -8.100815429e-06)
(0.008252748407 -1.017482213e-05 -7.06139236e-07)
(0.008262778818 -9.798600051e-06 -8.547212459e-06)
(0.008293860007 -1.082243055e-05 -1.74460783e-05)
(0.008321401457 -7.530430156e-06 -7.767296372e-06)
(0.008370915609 -1.016676276e-05 -4.977039943e-06)
(0.008384834123 -1.460488535e-05 -4.646705246e-06)
(0.008335590413 -1.308649159e-05 -7.067095964e-06)
(0.008282660544 2.714276465e-05 2.915304498e-06)
(0.00827420852 3.405378632e-05 -1.910600796e-06)
(0.008271881564 3.036762359e-05 8.338401752e-06)
(0.00833915138 2.821138128e-05 9.420922272e-06)
(0.008257463671 2.520357538e-05 2.652803025e-06)
(0.008249890326 2.28729841e-05 1.085374424e-05)
(0.008274584866 1.6984604e-05 1.643985049e-05)
(0.008204935462 1.62957675e-05 1.038762303e-05)
(0.008156586272 2.72941958e-05 1.072727417e-05)
(0.008219830418 2.566474545e-05 1.20034283e-05)
)
;

boundaryField
{
    flow
    {
        type            calculated;
        value           nonuniform List<vector> 
48
(
(0.006338078951 5.321509443e-06 -7.01745034e-07)
(0.006380267116 9.765193816e-07 6.60508933e-06)
(0.006326755663 -1.105599368e-06 -1.31114387e-05)
(0.006363660781 4.32631643e-06 1.900705225e-06)
(0.006366073749 -5.736299106e-06 -4.904642755e-06)
(0.006343392815 4.353699188e-06 -1.899155649e-06)
(0.00635405845 5.476639399e-06 4.758799515e-06)
(0.006346050757 -5.269571128e-06 8.641658413e-06)
(0.00635279342 -6.94273307e-06 -5.21377855e-06)
(0.006330908613 8.313499788e-07 -3.949120716e-06)
(0.006375837726 5.337348427e-06 9.709800759e-08)
(0.006332532419 2.695237569e-06 1.713049953e-06)
(0.006379409338 2.129174801e-06 -1.810950582e-05)
(0.00633252001 3.803057029e-06 -1.646359795e-05)
(0.006355917453 -2.230881347e-06 -6.483630597e-06)
(0.006320959046 6.562207044e-06 -6.462851707e-06)
(0.006379853428 8.12190396e-06 -1.196279026e-06)
(0.006231141161 1.732005475e-05 -4.447376437e-06)
(0.006231141161 1.732005475e-05 -4.447376437e-06)
(0.008164298593 2.22320119e-05 -2.895959542e-06)
(0.008182597903 3.054098887e-05 6.452657166e-06)
(0.008226664618 3.090543144e-05 1.688939131e-06)
(0.008230199626 3.301169135e-05 -4.30083704e-06)
(0.008242748713 3.058596577e-05 -4.995738051e-06)
(0.008251440878 2.528926373e-05 -2.911068396e-06)
(0.00824050989 2.490617461e-05 6.376938335e-07)
(0.008220307203 2.570519786e-05 -6.579163341e-06)
(0.008218021343 3.305957913e-05 -1.403818137e-05)
(0.008269030085 4.331440425e-05 -1.780757771e-05)
(0.008266096483 4.680622733e-05 -6.416207974e-06)
(0.008282290008 3.758354539e-05 -1.337880833e-06)
(0.008275175415 2.76537429e-05 1.438698173e-06)
(0.00824399105 3.020335561e-05 -4.585823934e-07)
(0.008247679493 3.117396473e-05 1.508046014e-06)
(0.008235283038 1.715647635e-05 -8.477383856e-07)
(0.008261124778 2.896760193e-05 -4.954792237e-06)