/*--------------------------------*- C++ -*----------------------------------*\
| =========                 |                                                 |
| \\      /  F ield         | OpenFOAM: The Open Source CFD Toolbox           |
|  \\    /   O peration     | Version:  2406                                  |
|   \\  /    A nd           | Website:  www.openfoam.com                      |
|    \\/     M anipulation  |                                                 |
\*---------------------------------------------------------------------------*/
FoamFile
{
    version     2.0;
    format      ascii;
    arch        "LSB;label=32;scalar=64";
    class       volVectorField;
    location    "0.011";
    object      momentum;
}
// * * * * * * * * * * * * * * * * * * * * * * * * * * * * * * * * * * * * * //

dimensions      [1 -2 -1 0 0 0 0];

internalField   nonuniform List<vector> 
546
(
(0.00501650715 0.0004414816162 0.000947022972)
(0.008514985294 -9.805720284e-05 0.0009695039619)
(0.008537072749 0.0006655588485 0.0001615628888)
(0.007168052267 -0.0002015663678 4.821092719e-05)
(0.007798305184 -0.0006212814127 0.000304710457)
(0.00825168903 0.0003215686787 -0.0002523232665)
(0.004369925357 -0.0001565771001 0.0001453746042)
(0.008225521085 -0.0003612744678 -0.000264555726)
(0.009515151504 -0.0001443469564 0.0004293230587)
(0.006609580189 -5.66572737e-05 0.0001877813021)
(0.01029447296 0.0005153413165 -0.0007431984774)
(0.008725043025 0.0002987466109 -0.0007247842729)
(0.01004335519 7.136194429e-07 0.0002763338459)
(0.01148206807 -0.0007203895097 0.001435450929)
(0.009294359587 0.0001052375996 -0.0001962421064)
(0.008579516752 -0.0008268413338 0.0001619760036)
(0.009557197201 -0.0007657968353 0.0002111858763)
(0.006067084923 -0.0001106979059 0.0002801503924)
(0.008326979707 0.00024359768 0.0004403416453)
(0.00713734653 7.204518084e-05 -0.0004590818306)
(0.008690303814 0.0003892332026 -8.725363893e-05)
(0.01232770935 -0.0001809503427 0.0002475852269)
(0.005364789809 0.0005084290685 -0.0001968588224)
(0.009681412311 -0.0002315003232 -0.0001196336626)
(0.007114118408 0.0008696159418 -0.0005217419364)
(0.007836564042 5.616494139e-05 -0.000238272353)
(0.008333945103 -2.11765114e-05 -0.0001093830664)
(0.007677742498 -1.709958331e-05 0.0001550138296)
(0.008022191534 -0.0001268153161 -0.0001389088653)
(0.01089447474 0.0003704529246 -0.0001254201598)
(0.007406770673 3.447318708e-05 -0.0001447007456)
(0.01196897011 -9.484550921e-05 0.0002730904988)
(0.002847266625 -2.553699081e-05 -0.0001030325384)
(0.004196155153 9.963623379e-05 0.0006337763108)
(0.007815470228 -1.789496779e-05 -3.740669996e-05)
(0.0109235557 -0.0004273408641 0.000511326882)
(0.00991886339 0.0003726753601 0.0007953786573)
(0.003146476345 0.0001424559518 -0.0006045899762)
(0.01172941193 0.0001619696845 7.959732696e-06)
(0.01332512866 5.385540847e-05 8.260457755e-05)
(0.006988344786 0.0004032246409 0.001046553992)
(0.008125348532 -0.0002093877517 0.0004001884288)
(0.004032900578 0.0002480960033 0.0003796706919)
(0.008692879901 0.0002134208143 3.066398812e-05)
(0.005368655914 3.842511601e-05 0.0001147513398)
(0.004475686607 0.0001135713117 0.0001680726709)
(0.01081759991 0.0005228747183 0.0009570454021)
(0.006574787007 -3.321305161e-05 0.0009649743326)
(0.01194114009 -7.136254647e-05 4.978290434e-05)
(0.007780684712 0.0001805852277 0.000169427678)
(0.01125141834 -0.0007107815437 0.0005496674122)
(0.008145170273 -0.0001473630642 0.0003001859743)
(0.004126259185 0.000813110233 -0.0007594290333)
(0.01351690066 -0.0003123917574 0.0003955152507)
(0.008671494158 -0.0005649388076 0.000226384903)
(0.006593422285 0.0003192961992 -0.0003553498848)
(0.004528896677 -0.000411228839 -0.0006217741538)
(0.0131894378 0.0001909185404 -8.606680843e-06)
(0.005338011778 -0.0003796215085 -0.0001114692433)
(0.005775977594 9.303670523e-05 -0.0002511396104)
(0.005054124952 0.000231648712 -0.0005784795102)
(0.01030014641 -0.0006347231797 0.0002683259735)
(0.01223198701 -0.0001193817075 0.0007178634118)
(0.006239580329 0.0001473878295 0.0003592704141)
(0.007980100083 4.731023614e-05 -0.0004012740991)
(0.0121220302 3.811739696e-06 -8.122278407e-05)
(0.009663728455 0.0004873788632 -0.0006285734531)
(0.00800086068 6.905814469e-05 -0.0005133274934)
(0.003859091213 0.0001737906292 0.0005679235673)
(0.007339232817 -0.0003478590327 -0.0004177527564)
(0.005012463983 0.0005463680486 -0.0003722105444)
(0.008665409207 0.000197452355 -0.0006909954419)
(0.01158941586 0.0006406156927 -0.0005214724351)
(0.006655533473 0.0001740320292 0.000106935384)
(0.01006205755 0.0005122183961 0.0003304407457)
(0.007767870738 -0.0006088058166 2.672918726e-05)
(0.009022420214 0.0003776276271 0.0001923896395)
(0.007640318201 2.045633476e-06 0.0003510932565)
(0.009920626169 -0.0006138331401 -0.0003343208277)
(0.01201617095 -0.0001370463585 -0.0004419215563)
(0.009265464871 -0.0001903627309 0.0009564025762)
(0.009571689414 -2.647646598e-05 0.0001037342352)
(0.008090292181 0.0002196577339 -0.0005088906004)
(0.008031815253 0.0006104462517 0.0003830742102)
(0.008345848222 9.170538068e-05 0.0003302586513)
(0.01177292899 0.0008245167867 0.0006368692918)
(0.01145931192 0.0005956293875 8.130578929e-06)
(0.009528267612 2.906666453e-05 -0.000644091766)
(0.005036608519 -0.0003778240529 0.0002248877729)
(0.008161228942 -0.0004354356358 -0.000735516546)
(0.01494887589 -0.0001889194497 0.0007246382201)
(0.009056028263 -7.025337925e-06 0.0003692184609)
(0.008720395785 -0.0006399404013 0.0003246781957)
(0.00939287551 8.101450141e-05 -0.0001575735095)
(0.009173810247 -0.0001662915993 5.256134657e-05)
(0.004841228572 -0.00024107241 -0.0002621256695)
(0.01120911222 -0.0009112929987 0.000427080526)
(0.009772432316 -0.0006271882105 0.0004362776989)
(0.007498254381 0.000359336198 0.000252091021)
(0.01274535131 -0.001100149495 0.00159058473)
(0.004435672898 -0.0003238857663 0.0009129389795)
(0.005286544094 -0.0007250431165 0.0001081450431)
(0.009971105813 0.0001742572641 0.0008204274756)
(0.008304108958 -0.00075414355 -0.0001046798904)
(0.00795378311 -0.0004926775681 0.000789879761)
(0.004091287632 -0.0001151588038 0.000141508358)
(0.004836674686 0.0003317072879 -0.000110195094)
(0.009168418749 -0.0003682157068 0.000365090037)
(0.01404200031 0.0001794532651 0.0008796978433)
(0.009662783444 -0.0005495330682 -0.001612695771)
(0.00651233969 0.0001217586349 0.0003764021021)
(0.01187653335 0.0003254435396 3.506752794e-05)
(0.01121597986 -0.0003988882181 -0.0006412094187)
(0.009123701496 -0.000853392848 9.229239131e-05)
(0.01186520085 -0.0001415229635 -0.0002484191711)
(0.009152858079 0.000455322991 6.491817421e-05)
(0.00763864345 0.000382665252 -0.0002959635301)
(0.00691269248 -0.0004318742473 -0.0006216197032)
(0.005710689165 0.0001808927223 0.0002338116718)
(0.008646733144 0.0001040151399 -0.0001448695406)
(0.005154508993 0.0004555025977 0.0002249943666)
(0.01168407354 0.0008419054381 0.0001805789624)
(0.005045149743 -0.000517888533 -0.0005581058613)
(0.005673435364 0.0004398981066 -0.0002952056732)
(0.01068164363 0.0001439998358 6.74825622e-05)
(0.01145903292 -0.0003919640986 -0.0005554864239)
(0.008261225456 0.0004600326617 0.0001197750898)
(0.008179167634 -8.127622091e-05 0.0005830938588)
(0.0112693678 9.868338762e-05 0.0007177697844)
(0.005897893939 -0.0001826816275 0.0002612223722)
(0.01136775998 0.0003973645361 -0.0003383237776)
(0.005790197017 0.001179438794 0.0001899133763)
(0.005388227573 0.0001525948919 -0.000790025458)
(0.009273296281 -0.0001390598681 -0.0006693286175)
(0.00675712648 0.0002060173849 0.0002119213056)
(0.008378789264 -0.001033029805 -0.0003906769243)
(0.009437534848 0.0002760916668 0.0002495126334)
(0.007189425645 0.0001916306222 0.0001533042389)
(0.01128402807 7.677547126e-05 -0.0001362320304)
(0.006304389359 1.689102893e-05 0.0006876362403)
(0.005616348983 -0.000290182089 -4.180579832e-05)
(0.01126354052 0.0004190289272 0.0003922931311)
(0.004040015725 -0.000265761151 0.0001556080834)
(0.009158017512 -0.0005970225909 -4.160987074e-05)
(0.008235220885 -0.0004314345344 -0.0002042442108)
(0.006979201292 0.0006196413981 -0.0009498339007)
(0.005372166471 0.0002620948421 0.0005489601449)
(0.007167942333 0.000439061699 6.281136713e-05)
(0.008926780991 -9.808265862e-05 6.544622037e-05)
(0.007388986098 0.0001757522361 -0.0001328355322)
(0.005610072491 -0.0002241389316 0.0006704860971)
(0.01061727248 0.0004443596625 0.0003720397662)
(0.01053339389 -0.0007724235194 -0.0004383166947)
(0.007648885107 4.012239722e-05 0.000175086913)
(0.005764489046 -0.0002364772761 -2.897477673e-05)
(0.01184546509 0.0005983012141 -0.0007212848715)
(0.007998670178 0.0001666457435 0.001217415958)
(0.008667334214 8.883549267e-05 -0.0006212806599)
(0.004324897112 0.0001267884876 0.000167199192)
(0.003454378388 0.0001922054938 -0.0003251193778)
(0.006279507482 -8.213411191e-05 7.899509758e-05)
(0.009080136974 -0.0001549154447 -0.0009672446846)
(0.007835389336 0.0006004780303 -0.0001438587707)
(0.004682389523 0.0002296271803 -0.0002384397944)
(0.008080491292 0.0006364692124 0.001005006198)
(0.007559834821 -0.0001423521059 -7.37853836e-05)
(0.004606356806 -0.0002151281477 0.0004774093722)
(0.009401154445 0.0001844206531 0.0002781066288)
(0.01003232195 -0.0003502168454 -0.0005113448222)
(0.00925566325 -0.0004145663873 4.401164842e-05)
(0.006194853555 -5.234611573e-05 0.0006643659878)
(0.007290345396 -0.0007950242581 -0.0007403173728)
(0.001482473872 3.613486937e-05 -7.811547321e-05)
(0.007890957385 0.0005893476423 -0.000291477901)
(0.005038898544 0.0002405344589 8.69480175e-05)
(0.003554559978 -0.0004040127105 0.000429988529)
(0.01197124971 0.001029883116 -0.0005459010944)
(0.0125344146 -0.000575501712 0.001016442703)
(0.007542175052 -0.0002598705039 0.0003626691182)
(0.006788863693 0.0001214926824 -0.0006511038406)
(0.005434068496 -9.985171243e-05 -1.61954845e-05)
(0.009086112283 0.001105833604 0.0006444653191)
(0.01350368732 -4.564527677e-05 0.000883959497)
(0.004145713205 -7.393522875e-05 0.0004723322308)
(0.01461820036 0.0005089486611 -0.0002798625588)
(0.009583351323 0.0003315739005 -0.0003014952366)
(0.005275936046 -0.0002243422514 0.0001654205046)
(0.00679259059 -0.0002450225898 0.0008005561921)
(0.006824078463 -3.162306573e-05 -4.519405294e-05)
(0.009166732536 -9.805852338e-05 0.0005757979097)
(0.00603856384 -0.0002062946887 1.139768197e-05)
(0.008057446361 -0.0006726157095 0.000304239181)
(0.007487262013 -0.0001020553897 -0.0003811468114)
(0.006494298021 0.0001859374981 0.0001168208301)
(0.01311384655 9.047540146e-05 -0.001114764978)
(0.005963757016 -0.0007664116098 0.0001362132106)
(0.01138248132 0.0007018533134 -7.325138212e-05)
(0.004551210131 -8.893281358e-05 0.0006450567811)
(0.003361419204 -1.809573741e-05 -0.0001470275131)
(0.007393429335 -0.0001281456721 -0.0003124243789)
(0.004982861305 -0.0001433715803 -9.103114312e-05)
(0.0108398974 -1.718751262e-05 0.00106185811)
(0.01031530446 3.30149118e-05 -0.0008094304829)
(0.005880574788 0.000253916041 -0.00108832948)
(0.01053353146 -0.0003636443894 0.0001617919734)
(0.01074377209 -7.728406264e-05 -0.0002736660768)
(0.005803477364 -0.0002501967313 -0.0001606415822)
(0.009277007404 -6.077531619e-05 0.0004797914807)
(0.01068856905 -0.0001516599407 0.000182960622)
(0.008186879833 -0.0002945519663 0.0003410770101)
(0.004940071429 0.0001233701242 -1.476820391e-05)
(0.009723010402 -0.0001213558518 -0.0003667381524)
(0.01061370422 0.0004125383784 0.0007145855989)
(0.009488870136 0.0001236570361 -0.001622980619)
(0.00871144835 -0.0002794869809 -0.0002062900256)
(0.007622705516 0.0006277012512 9.606445817e-05)
(0.01000880866 0.0004351984371 -0.0001454225009)
(0.007508983356 0.0004430887387 -0.0005227483755)
(0.003819686142 -0.0006505859401 0.0005057745068)
(0.006739382291 -0.0004291018018 0.0001749332308)
(0.005386396449 -0.0006860451885 -0.0001957957907)
(0.007924929045 -0.0003882508269 4.869351755e-05)
(0.007840446269 -0.0001210765125 -0.0005500047748)
(0.007255299501 -6.795878732e-05 0.0004181232544)
(0.0145848362 -0.0003938215981 6.412627195e-05)
(0.006042280407 9.502842593e-07 0.0001508908957)
(0.003921690545 -0.0002128316119 2.211667911e-05)
(0.01123065723 0.0009938012082 -0.0003634464424)
(0.001412444357 1.642529673e-05 2.182707436e-06)
(0.007068778768 0.000263647184 -0.0003751650597)
(0.01204912983 0.0002641075758 -0.0008511408414)
(0.007854205339 0.0002214192644 0.0008266951255)
(0.005359802068 -0.0004508571458 -0.0002282165202)
(0.008408656219 0.0004982140888 1.042585401e-05)
(0.00832494123 0.0003280243957 -0.001017453009)
(0.007557601638 0.0002633753697 -0.0008614230531)
(0.008745323716 0.0004027266057 0.0001288441483)
(0.007715533003 0.0003263307581 0.0002393438573)
(0.009100234231 0.0009217542439 -0.000241541548)
(0.01079190406 -0.0004018959571 -5.605408805e-05)
(0.005255423557 -0.0005800399315 0.0001649329088)
(0.01001644464 0.0007974323366 -0.0002565054652)
(0.006239893386 -0.0001452094691 0.0002141577386)
(0.006333477399 9.142701777e-05 5.705295242e-05)
(0.009929405778 0.0007907817274 0.0003766148592)
(0.008991989947 0.0008325651121 -0.0006726395938)
(0.004377335485 9.470766547e-05 -0.0004967034864)
(0.007800352088 0.0007692963722 -3.190570021e-05)
(0.01096894435 -0.0004282446968 -0.0002016678392)
(0.01095402967 -3.634610766e-05 -0.0002282886086)
(0.006799022064 -0.0001752025586 -0.0002917117314)
(0.002956554812 0.0001545194379 1.677102468e-06)
(0.007792950084 0.0007377290484 5.848016102e-05)
(0.005763546613 0.0003988715351 0.0005805575148)
(0.01053364723 -0.0003850617063 -0.0009349512335)
(0.008209067827 -0.0005546512473 0.000259298837)
(0.0067048066 0.000331769889 7.176969914e-05)
(0.00725721028 0.0003758567446 0.000259102881)
(0.008954629118 0.0006289074668 -0.0001561753517)
(0.009571611087 0.0008383986584 0.0001525609903)
(0.009892320666 -0.0003364253962 -0.0003031508111)
(0.00897831814 0.0001028996466 2.334108722e-05)
(0.005125797003 -3.665632321e-05 0.0006464649752)
(0.01152879202 0.0003198566184 -0.0002341376786)
(0.004365062376 -0.0002491290648 0.0005028487884)
(0.005718819404 -0.0001463561571 0.0004654023167)
(0.009358332674 0.0004489237603 -0.0002168897326)
(0.01179377613 -0.000611500996 0.0002723121362)
(0.01016604533 -0.000503962272 0.0006389558975)
(0.01336248321 6.164320096e-05 -0.0003638891649)
(0.006435938271 0.0004639393004 8.957668851e-05)
(0.009965214483 -0.0007711548028 0.0002023907066)
(0.01200720846 -0.0007888519469 -0.0008213648234)
(0.008595654267 0.0003832617157 -4.465035232e-05)
(0.01279058734 -0.0005286600809 -0.0009326382814)
(0.01200012097 0.0009450599569 0.0001107583233)
(0.00679018474 -0.0001108764185 -7.450807228e-05)
(0.01343930712 -0.0005678049258 -0.0007504615026)
(0.006354973796 0.0002526488321 -0.0008127518135)
(0.006115257289 -0.0003601375113 -0.0003170828778)
(0.006822449029 -6.26532007e-05 0.0002310533771)
(0.01119365892 -0.0002460167485 -0.0003250984288)
(0.007191220843 0.0005952166829 -0.0003360840848)
(0.01234431348 -0.0004711391326 -0.0003669996042)
(0.007533331707 0.0002905645787 0.0002253191707)
(0.00885874747 0.0002636695207 -0.0001845533888)
(0.009169950033 9.752281272e-05 0.0002548716488)
(0.004294150692 -0.0002697856882 0.0001068480271)
(0.009427189989 -0.0002381896315 -0.0005981368622)
(0.007744883528 0.001032113109 4.143438778e-05)
(0.007962359476 0.0003232970128 0.0005664998714)
(0.00731623039 -0.000204510846 0.000159009873)
(0.01019758216 0.0008520411573 -0.000152130551)
(0.008851035328 0.001122784572 0.0009410997923)
(0.008080519037 -0.0003189355393 0.0004110755253)
(0.005408937113 0.0001295876233 0.0001249331089)
(0.006494414356 -0.0002577022375 -0.001128536454)
(0.003952651266 8.979516633e-05 0.0003050933781)
(0.008989925848 0.0001832780362 2.428030732e-05)
(0.008280835733 -0.0001063635581 -0.001211282718)
(0.0060924661 0.0005597542162 0.000484362617)
(0.00526955683 -2.663020159e-05 -0.0006713203709)
(0.008676239168 5.043104838e-05 0.0002826360861)
(0.005933556093 -4.108263334e-05 0.0009265599852)
(0.006938109225 0.0008542668725 -0.0001759688989)
(0.01152697848 -0.0007555866541 0.0008046024178)
(0.01487436025 0.0009429180338 -1.833189486e-05)
(0.006998789718 9.903707184e-05 -0.0004330511571)
(0.01040318364 -0.0006653599079 0.0008699167836)
(0.01080853906 0.0003738023871 -0.0003206530737)
(0.007982935498 -7.84679705e-06 -7.567086616e-05)
(0.008397045555 0.001038748134 0.0002323516366)
(0.003594809014 -0.0004996905311 0.0003379677221)
(0.01399523746 0.0006807479418 -0.000260345197)
(0.01181425595 -0.0002564641248 -0.0001716420179)
(0.01262477655 0.0005052025759 0.0004685210725)
(0.00992067271 -0.0001025081492 6.411068066e-05)
(0.009379894199 0.0001847142107 0.0001760227264)
(0.005233659088 -0.0001832121185 -9.305510201e-05)
(0.01167415383 0.0008250014153 -0.0003026048326)
(0.008403892167 -0.0002255700256 0.0001043349895)
(0.01281010849 -0.0003917592785 -0.0003595423406)
(0.009526942638 0.0001080951838 0.0001628571902)
(0.006805412059 4.162769007e-06 -0.0004153677278)
(0.007693844055 8.241194285e-05 0.0002628930618)
(0.006788383054 -0.0003033459503 0.0005853851847)
(0.005670087643 0.0003389873507 -0.0002619640575)
(0.01526011502 0.0001508314546 -0.0006661065327)
(0.005820987669 -0.0007603311294 -9.087858229e-05)
(0.01043492158 -0.0001092581758 -0.0003907920869)
(0.01038768892 -0.0002645663982 -0.0002468041889)
(0.006877175585 -0.000137870779 -0.0003536901082)
(0.009950535585 0.0008265570375 0.0001287938137)
(0.001765637509 0.0002198059999 7.596063691e-05)
(0.003501114438 -0.0002409803404 -0.0005901829722)
(0.01557355558 0.0006547646011 -0.0003401481792)
(0.008340447168 0.0003767232759 -0.0002421569261)
(0.01395149771 0.0003568557489 0.001452688611)
(0.006989858969 -0.0003242174813 -0.0002452807285)
(0.006868677188 0.0004390658451 -0.0003178803856)
(0.006347559176 -0.0001411905459 0.0006215076605)
(0.004401920772 -0.000439336526 0.0007621128521)
(0.009202671941 -5.553456973e-05 -5.083965715e-05)
(0.009214913511 0.0002018045612 0.0006118821209)
(0.008264792773 -0.0002315622133 -0.0001784496847)
(0.005274621801 -0.0001445382344 -0.0002095637897)
(0.008678615356 -0.0006824516977 0.000824772376)
(0.006613686448 0.0003473708261 -0.0003146877304)
(0.007631626201 0.0001318503489 -0.0003686570002)
(0.008368807753 0.000394450827 -0.0001452581986)
(0.009570539709 -0.0001550272122 -0.0004886799683)
(0.008433612897 0.0007501473965 -0.0005686871933)
(0.0115976592 0.001069372118 0.0005060569196)
(0.003561257483 0.0002072435123 1.321655442e-06)
(0.005636840109 -0.0002031039105 9.129667984e-06)
(0.004897990229 -0.0001843452248 0.0002581174972)
(0.0103871867 -7.533762889e-05 0.0003743967695)
(0.007155254712 -0.0002293444718 -0.0002844341275)
(0.007457250883 0.0008967216761 0.0002109673285)
(0.01202665398 -0.0008206649042 -2.216254439e-05)
(0.009436128707 0.0002210572942 0.0006120967962)
(0.003912016007 6.226929297e-06 4.290448617e-05)
(0.004780412388 -0.0002144380171 0.0001168093567)
(0.007333585422 -0.0001631993177 -0.0003569663419)
(0.007852573798 -0.0006828381227 2.563024497e-05)
(0.01255564069 -0.0001388251987 -0.0003706655175)
(0.007746992925 -0.0001790553137 0.0007727036423)
(0.01362783411 4.79423499e-05 0.0004686084967)
(0.01046225703 0.0003995643728 -0.0006023940664)
(0.007473661526 0.0009889935394 -0.0005868744088)
(0.008334935241 0.0009135252714 0.0001200726342)
(0.007394027238 -5.922765522e-06 0.000867286465)
(0.007649906731 -0.0001675006003 0.0001869454182)
(0.00739949628 0.0003143924758 0.0008433944759)
(0.006311232991 0.0003969078392 -0.0004728359227)
(0.005431470322 0.0004861685086 0.0003751727779)
(0.007328788033 -0.0003517562113 -0.0006154779899)
(0.008147277031 1.808859993e-05 0.000472151304)
(0.006212615765 0.0002133609949 0.0006377273852)
(0.007586555093 -0.000678356637 -0.0001460630376)
(0.01191515413 -0.0006573955686 0.000347129354)
(0.009871390293 -0.0004393034391 0.0006444996856)
(0.003970078363 -7.840845879e-05 -0.0002047726084)
(0.009125960535 0.0007926621517 -0.0005809797138)
(0.01076585052 -0.000755742167 -0.0004247886023)
(0.005144876162 6.337986866e-05 5.34699232e-05)
(0.008884005756 0.000237629981 0.0001530367081)
(0.01011339734 -0.0006785435845 0.000594915173)
(0.01111758859 9.645764331e-05 -0.0002029057346)
(0.006905738712 -0.0003146101054 0.000293517758)
(0.01182039794 -0.0001432976963 -0.000825841479)
(0.006113178246 0.0003070206415 -0.0002516365245)
(0.007646384619 0.0003675087007 -0.0003000518569)
(0.00634592353 -0.0006155708394 -0.0004662516982)
(0.01007884326 -0.0006981493744 6.236590717e-05)
(0.005662297843 -0.0002240652016 0.0002023775811)
(0.00529546213 -0.0004467366574 0.0001889575835)
(0.01045917868 -6.386553611e-05 -2.978766107e-05)
(0.007305414609 3.177593268e-05 -0.0005495262458)
(0.00899258343 -0.0001688534974 0.0005740759312)
(0.008331507845 -0.0004221635554 -0.001097593523)
(0.007391253893 5.92766534e-05 -0.0003332087273)
(0.009879329639 -0.0004309529992 -0.0009398724244)
(0.009950088589 -0.0002026084529 0.0003884515699)
(0.01034975079 -0.0002259449914 0.0002203676167)
(0.009195484172 0.0004936352935 0.0002455660024)
(0.008608375989 0.0001397309731 0.0001461626129)
(0.01019966041 -0.0004826024837 -0.0003137555914)
(0.006959029844 -0.0005649620811 -0.0002420602956)
(0.004030624753 0.0001252441212 0.0004218542967)
(0.006264877208 0.0002968785179 9.453991638e-05)
(0.005895772054 -0.0001703373032 -0.0003664262504)
(0.002752475788 -0.000104705044 -0.0004321763825)
(0.009354124895 6.942830112e-05 -0.0003244633753)
(0.00754629381 6.552827789e-05 6.049725869e-05)
(0.01224909349 7.720621262e-05 1.319991836e-05)
(0.005714020484 -0.0001908390807 -0.0001850351992)
(0.01115591092 4.017956596e-05 -0.0003148923933)
(0.008388460631 -0.0001013350969 0.0003318609791)
(0.0119934546 -0.0001822815063 -0.0003499826653)
(0.007568741112 -0.0001436481386 -0.0002392529878)
(0.007166489786 -4.548596116e-05 0.0007105917969)
(0.009584236065 -0.0004681523743 -0.0003665455083)
(0.005861740692 7.271804824e-05 -0.0003968201219)
(0.01288097711 -2.408244977e-05 0.000526704058)
(0.009986536348 -0.0006472707761 0.0006341433503)
(0.00532209805 -0.0004417556588 0.0001428770471)
(0.01308431833 0.0006645104561 0.0001870569114)
(0.006939026584 0.0003826829759 -0.0004163593877)
(0.003734032223 -4.35270279e-05 0.0003309944009)
(0.009330073754 -0.0004739739131 -0.000118852309)
(0.002431641933 -7.322590608e-05 5.142507077e-05)
(0.01047387975 0.0008122050341 -1.423995802e-06)
(0.01010957542 0.0005313528545 1.692699968e-05)
(0.0043113434 0.000404979934 -0.0001648539562)
(0.008330619171 0.0008177930342 -0.0004824921061)
(0.005939512115 0.0005868559994 0.0003228072517)
(0.01145738738 0.0001661296812 -0.0001680665252)
(0.007611778268 0.0004172131342 5.892592413e-05)
(0.004110637311 -0.0003189644653 7.383713015e-05)
(0.011615706 0.0001913486621 -0.0004248220601)
(0.006336407252 0.0004297323579 -0.0001161629328)
(0.008972539551 -0.0001330835887 -0.0004716113354)
(0.006381928198 0.000326064154 -3.636220004e-05)
(0.0052362166 -0.0004971781595 -0.0006622713604)
(0.00774208529 0.001003978369 -0.0003278961885)
(0.005060752588 0.000182781707 0.0002633779631)
(0.01511147793 0.001144506094 0.0002388502083)
(0.007206440896 -0.001259046768 -0.0006621501101)
(0.007546057067 -2.699320787e-05 -0.0001486661302)
(0.001865563155 7.246484232e-05 0.0002474409281)
(0.006306702689 0.0004738110523 0.0006179724582)
(0.008009427558 -0.0001155704815 0.0007730488567)
(0.007178596152 -0.0005707304997 0.001065000278)
(0.006131257739 -0.000111216793 -0.0007503235399)
(0.008068026688 -9.266590289e-05 -0.0001898461577)
(0.009655657214 -6.262931867e-05 -0.0007470314451)
(0.008868608983 0.0005771662892 -0.0002486103901)
(0.005760809836 6.972567307e-05 -1.850374184e-05)
(0.0063299566 -0.000298054894 0.0004882331832)
(0.0111803766 0.0002917357517 0.0009830528243)
(0.006720068008 -0.0004681800131 4.152034067e-05)
(0.01294130282 0.0005626592384 -0.0003631240815)
(0.007658012068 -0.0005326570418 -9.78384843e-05)
(0.007108213114 -1.211258593e-05 0.0002899665109)
(0.009105873909 -0.0003653725759 0.0004136090881)
(0.007598490943 0.0009318278213 0.0001656541921)
(0.01070539078 0.0001114797925 2.391981343e-05)
(0.004785996393 -9.447565635e-06 -1.053132518e-05)
(0.006563284438 -0.0006652130817 0.0002013513653)
(0.009820382141 -0.0002146725706 -4.976442413e-05)
(0.008812736314 -0.000341153657 -0.0008665539668)
(0.01299073875 -8.147846745e-05 -4.664932075e-05)
(0.009817243503 0.001382135961 -0.0005621581739)
(0.006271648007 -0.0002729094162 -0.000125803643)
(0.01052642303 -0.0002629322423 0.0005630611191)
(0.005040631968 0.0001476371746 6.589348212e-05)
(0.01001035647 -0.0002547571131 0.0003029506308)
(0.009595512179 0.0005655289954 0.0005945070387)
(0.01310235162 -4.544478897e-05 0.0003850968469)
(0.008662564524 -0.0006545433444 0.0008162900895)
(0.009003681887 -0.000204936418 0.0001454642958)
(0.009009921571 0.0009926822217 0.0004520790418)
(0.008294489224 0.0003209301143 0.0005657129608)
(0.007675074563 -9.166600236e-07 -9.433827311e-05)
(0.006547856178 0.0001271766898 0.000644985746)
(0.01324311368 0.0002328929984 0.0003270406666)
(0.006436169086 0.0004317870571 0.0001221896307)
(0.01274779034 0.0005002598512 0.001848887413)
(0.008102001912 1.418294272e-05 -0.0002911589175)
(0.005761392673 -0.0008901081552 0.0001611482241)
(0.004894334683 -6.815004413e-05 0.0002109270165)
(0.01002690259 -0.001634568577 -7.192822989e-05)
(0.006256565227 2.114846263e-05 0.0001123290323)
(0.01222745046 0.0002821484992 -7.981195876e-05)
(0.01034559312 0.0005632388639 0.0002990805909)
(0.01218397186 8.009385096e-05 -0.0002674865875)
(0.004034398095 0.000535429634 -0.0001607221112)
(0.01443049631 -0.0007717427396 -0.0004784837802)
(0.004429525304 -0.0007731353432 0.0002557779548)
(0.005622516275 -0.000358776263 0.0006823794975)
(0.01156617797 0.0001962054282 0.0001845872648)
(0.005722702654 0.0002276931493 0.0002611068166)
(0.01018514234 0.0002744194655 -7.144445114e-05)
(0.007469191085 0.0003631250308 0.0001260557309)
(0.006491998257 -0.0001860901844 -0.000134649786)
(0.009482586973 -1.812866933e-05 -0.0002446297969)
(0.00897537695 5.701036064e-05 0.0004347556005)
(0.00487391142 8.275567442e-05 -0.0005256655123)
(0.01062347479 9.032209082e-05 -0.0002143465038)
(0.005137018567 -0.0005785190421 -8.168472615e-05)
(0.00740635538 0.0003506618972 -0.0008344051002)
(0.009382078605 0.0002310396872 -7.836409446e-06)
(0.009220451474 0.0003458315451 -0.0004302261842)
(0.007883115342 -0.0002307194681 -0.0005902025355)
(0.009776539812 -0.0006196304517 4.041455084e-06)
(0.006755056255 -7.315924163e-05 -0.0004068352263)
(0.008657544368 -0.0007105585244 0.0008067174686)
(0.008552779851 -0.0003792386118 0.0001245762565)
(0.01274173136 8.572310551e-05 -0.000569239401)
(0.01022220236 -0.0006266940179 0.0002501155027)
(0.01130946692 0.0005824072949 0.0001958513628)
(0.009644270723 0.0001275730813 -0.0006598678101)
(0.008251105881 -0.0004288312233 -0.0003003451162)
(0.008329170195 -0.0003183236378 -2.877004865e-05)
(0.005926798053 0.000167163622 -0.0001479772593)
(0.01198872659 -0.0003364356311 -4.666270068e-05)
(0.01045696046 -0.0005479509876 3.355660023e-07)
(0.009739860728 0.0005022167074 0.0005364445627)
(0.006300644193 0.0002768981994 0.000624144072)
(0.01030199309 0.0003448189258 -0.0002686027467)
(0.007990130518 0.0008495412626 4.601787563e-05)
(0.007911094416 1.214705178e-05 0.0008176970941)
(0.01138750368 -0.0007731901665 0.001167512781)
(0.01267316384 -0.0007050868441 0.0003707682518)
(0.009687179958 0.0003533940402 0.0001761285766)
(0.01154001982 0.0007603401602 -0.000903361519)
(0.006979675904 0.0004374334914 0.0004636694102)
(0.00773012771 -1.463813198e-05 0.001127241841)
(0.009279010467 0.0001086626403 0.0001494011696)
(0.006418169872 -0.0006029230857 0.001210693535)
(0.01046109345 0.0001060123298 0.0001601183)
(0.003829940155 -5.344186042e-05 -4.506786273e-05)
(0.001867985271 -0.0002698944697 -9.588929383e-06)
(0.008757507236 -0.0002706263908 2.50487544e-05)
(0.007721731605 -0.0001644090979 0.0001336213927)
)
;

boundaryField
{
    flow
    {
        type            zeroGradient;
    }
    obstacle
    {
        type            calculated;
        value           nonuniform List<vector> 0();
    }
    frontAndBack
    {
        type            empty;
    }
    procBoundary2to0
    {
        type            processor;
        value           nonuniform List<vector> 
31
(
(0.005545551996 0.0002533896387 0.000253951572)
(0.005841953543 0.0001265657035 0.0001541203113)
(0.01027434732 0.0004315761454 -0.001041078239)
(0.009918822669 -0.0002108703132 0.0001888035432)
(0.009202373344 0.0003543782164 -0.0008572970303)
(0.004396656124 3.342393775e-05 -0.0004580697307)
(0.008375973259 0.000256301501 0.0008069287197)
(0.008332290978 0.0004936969597 -4.322861792e-05)
(0.009962561942 -0.0004683655591 0.0005948655777)
(0.009950075768 8.886377416e-05 0.0001029907389)
(0.004683712924 -4.522687348e-05 8.71908968e-05)
(0.005254452097 0.0003470499306 0.0005637016334)
(0.008543821876 -0.0004323839072 -0.0003183504839)
(0.01209081317 -0.0002297086359 -0.0001436853937)
(0.008005496544 0.0005007053799 -0.0001187505668)
(0.008552802831 0.001024357921 -0.0004894305275)
(0.0051719765 -0.0004055912461 -6.733714225e-05)
(0.005130571722 5.547671841e-05 0.0002039956279)
(0.008428710612 -0.0005012877798 7.167949572e-05)
(0.009225401579 -0.000652750788 -0.0003188870757)
(0.00697447776 -0.0002209888408 0.0005235222775)
(0.003244655616 -0.0003733065099 -0.0003213651545)
(0.007058317057 -2.52306455e-05 -0.0003437977873)
(0.007141228985 -4.109884182e-05 0.0004185763176)
(0.007000627574 0.0001433663126 0.0005314779623)
(0.01195535794 0.0005730189854 0.0002005502423)
(0.007854417652 0.000249820228 0.0006203633974)
(0.003975478982 0.0006684078984 2.78085636e-05)
(0.009282670243 0.0009314661787 0.000180935271)
(0.008428197556 0.000468034078 -0.0007811786726)
(0.008428197556 0.000468034078 -0.0007811786726)
)
;
    }
    procBoundary2to3
    {
        type            processor;
        value           nonuniform List<vector> 
19
(
(0.00595747573 -3.868431074e-05 -9.488423157e-05)
(0.01135402159 -0.0006311597654 0.0005139723911)