/*--------------------------------*- C++ -*----------------------------------*\
| =========                 |                                                 |
| \\      /  F ield         | OpenFOAM: The Open Source CFD Toolbox           |
|  \\    /   O peration     | Version:  2406                                  |
|   \\  /    A nd           | Website:  www.openfoam.com                      |
|    \\/     M anipulation  |                                                 |
\*---------------------------------------------------------------------------*/
FoamFile
{
    version     2.0;
    format      ascii;
    arch        "LSB;label=32;scalar=64";
    class       volScalarField;
    location    "0.011";
    object      overallT;
}
// * * * * * * * * * * * * * * * * * * * * * * * * * * * * * * * * * * * * * //

dimensions      [1 2 -2 0 0 0 0];

internalField   nonuniform List<scalar> 
546
(
292.9923639
303.7108044
299.9497269
300.2090211
299.4197532
298.3409828
298.5221853
299.5008949
298.673537
299.5004088
300.4576794
301.6420348
301.2666564
300.378614
299.7985424
299.6657645
298.7200401
298.5915002
298.9574926
299.9319156
294.0602455
303.1692713
299.2189568
300.3347773
300.2873715
300.6683894
300.8292371
300.3669831
300.3076175
300.1961984
298.9993438
298.8623687
300.0479443
300.6771639
301.3149541
300.8372898
301.5224919
302.1710668
301.3673712
301.104196
294.1050896
303.9218765
299.2480784
299.6864628
301.3503216
302.4879263
301.8142002
301.9070653
301.4890488
301.1272953
300.3893801
300.9021756
300.0103594
299.5082142
299.8722316
300.4175319
300.5145355
299.634561
300.3709101
299.9245672
296.3126606
305.2116329
301.1565146
300.0279334
298.7111132
297.9516361
298.8135162
298.4214245
299.2316782
298.2577045
298.626975
299.2282413
299.8412906
300.2116969
299.4936132
299.3475527
299.38388
300.0667687
301.1785688
299.4554194
293.6891152
303.3955802
300.1746045
301.3138716
300.5506781
300.6933704
299.9782461
299.3269967
300.0273982
299.6548696
299.5907973
298.0493556
297.6461484
298.8096617
298.6725265
300.0434424
299.9791293
300.1283632
299.3069244
299.9563901
295.4691868
304.545723
298.861048
298.7957103
299.6623583
299.4729394
299.5781937
300.1092539
300.2850104
301.4578925
301.7399944
301.2113005
301.7418283
301.6320049
301.82073
301.8721608
302.4275938
302.0409269
302.6883218
303.3543329
292.4961361
302.4677647
299.3769746
300.3998901
301.3176404
301.0167285
302.272565
302.7853543
301.483462
300.1816872
300.7586292
299.9880644
300.330813
299.4943255
299.0826095
298.867677
298.3879253
299.4418719
300.2464863
299.9654634
294.7383034
304.6556455
299.8041927
299.9202175
300.2171243
299.4253189
300.3000556
299.2862998
299.6882706
300.4012332
300.0422493
299.240991
299.9369399
299.7983951
299.864059
300.5173351
300.5244316
299.5306541
299.8179989
300.577074
294.4716556
303.7180775
300.4149156
300.8460146
300.3644506
300.5750319
299.5940258
300.351814
300.7265799
301.5085096
300.8916656
302.7642236
302.3481639
302.2608849
301.6813135
301.3326261
301.3955714
301.4840573
301.432707
301.7989781
294.1456166
304.7785069
299.8299734
298.3580529
297.7579888
297.732162
298.2145627
299.8113473
300.6167699
300.3604693
300.6195406
300.9575127
300.1658762
301.1313919
301.5913
300.6554935
300.9654985
301.8810342
299.7647845
298.3177809
294.924685
304.1378107
299.3461746
300.7749429
300.7953325
301.4419433
300.2437279
298.7361578
299.3547562
299.2859242
298.6941332
298.8035981
298.9810354
299.3929045
298.1686213
298.3848483
299.5549878
298.5774129
299.9567642
300.6448439
294.5353809
304.1955873
299.3703472
300.7220004
300.1454113
300.1799552
299.3907626
299.8757845
298.7283634
298.8872723
298.161445
298.1268134
298.7644179
299.4032826
299.0778555
298.9548714
299.3379544
299.8797212
300.1204338
300.0830717
294.6946782
304.3058758
300.0864581
300.9849526
301.4928009
301.1475091
300.9493661
299.6051094
299.2769755
298.8309869
300.2396512
301.1382208
301.3472265
300.3314311
300.061258
301.352221
300.2140761
300.6183682
300.6808026
301.284241
293.6695236
303.6701383
300.8692493
300.4218392
300.4231829
300.1091106
300.6323719
302.8125194
303.3526762
303.5602583
300.5366729
299.9153424
299.1538354
300.008921
301.4707023
300.4109048
300.0141675
299.5726161
299.4064847
298.8997048
296.5746895
305.9748925
300.6751415
300.7622091
301.4623635
302.5927429
303.324237
303.1694685
302.5442312
303.1466494
302.4637725
302.3705492
302.1183254
301.5364513
300.1135886
299.7137409
301.1290043
301.5278916
301.3371244
300.2280066
293.191895
302.1589387
297.9669897
300.7721017
300.8921547
300.5957428
300.8629483
298.7335143
297.8251655
298.9923563
299.9446702
299.8746174
300.1227944
300.3647825
299.928374
298.9065947
298.8611615
298.1094042
297.7050661
299.0485958
293.3702296
303.2651885
300.421693
298.747872
297.9562002
298.0082053
298.4330706
298.8945367
299.8037307
299.8688141
299.8910433
300.2505074
300.5689292
300.3522111
300.4504314
300.2896072
299.5503778
299.4617502
299.5510013
298.3793014
294.947328
302.3868799
298.8924043
298.4206167
297.4200405
297.8928991
298.3605653
298.5264422
297.9692254
298.0652105
297.9152529
296.348691
297.584309
296.2181086
296.6549802
295.8159847
297.1627573
298.3507623
297.1196331
297.5147905
306.2772287
307.0681241
307.216428
307.2156775
310.4272458
313.5232218
300.2888875
301.8667341
301.9443162
302.9460592
303.2987895
303.986824
303.7255114
306.8182512
306.0165352
308.7326422
300.1446691
300.9602156
300.7712546
301.5006385
302.7930691
304.376761
304.366583
305.226505
306.5347141
308.5350228
301.8492712
302.4400906
302.1090494
302.0617431
300.1548884
300.4092389
301.9642603
303.3117093
303.6259676
304.9759714
297.7290387
298.719036
299.378418
300.2062388
299.5402156
301.3409856
301.9325597
300.7891058
302.0866455
302.9333765
300.3816799
300.0569125
300.6876827
301.3618966
301.1972421
301.4921367
303.4336244
304.2010945
304.4247626
304.3535741
302.4524927
302.1566283
301.1179094
301.3505837
302.6532875
300.5072832
300.4630553
299.3554344
300.796207
300.2503122
301.2959676
301.0881789
302.0803797
299.7685457
300.4169617
300.6027389
300.1408893
301.8659343
302.6280179
302.2383321
299.9775139
301.3297615
300.5044082
300.6411285
302.114762
300.9918893
302.0677589
301.9597191
301.504679
301.4059137
301.0289768
300.9986408
301.768649
300.4627841
301.127081
301.0751304
299.9936626
300.5732528
302.1608468
301.646356
298.9747422
299.6358373
300.6673622
301.8715224
300.1814845
301.3132517
301.8278764
301.9442722
301.6344057
301.4833191
301.2911496
300.6500558
300.633391
300.8976937
300.9907657
300.6706936
300.4010054
300.4899848
300.1274094
300.5887684
299.879104
299.9692103
299.2765212
300.3832697
300.9666652
300.7046085
300.8540409
300.7577464
300.8841245
302.3318338
301.1054321
300.9245959
301.7726938
300.1109902
299.6936479
299.8209034
301.1444826
301.483756
300.6952563
299.3896765
298.9472219
299.532318
298.9945245
300.3667536
300.8513418
299.5662678
298.8447971
299.3397788
298.7412434
299.7309397
299.5806883
300.2589588
300.4969533
299.4454253
299.3279519
299.7120086
299.2876908
298.9004864
299.6127275
300.4884371
299.1935063
298.5684194
297.8217621
298.9797858
299.6990186
298.649556
300.2354038
300.3192865
299.7285683
299.8036549
298.801862
299.6967508
298.4896687
298.9316574
298.7338828
299.3340462
299.7663848
301.0634892
301.2699747
300.4264673
298.3150874
297.4063626
297.4457944
297.4748774
297.9374803
296.8385645
297.251809
296.4238201
297.2918258
298.3079371
)
;

boundaryField
{
    flow
    {
        type            calculated;
        value           nonuniform List<scalar> 
48
(
292.9923639
294.0602455
294.1050896
296.3126606
293.6891152
295.4691868
292.4961361
294.7383034
294.4716556
294.1456166
294.924685
294.5353809
294.6946782
293.6695236
296.5746895
293.191895
293.3702296
294.947328
294.947328
302.3868799
298.8924043
298.4206167
297.4200405
297.8928991
298.3605653
298.5264422
297.9692254
298.0652105
297.9152529
296.348691
297.584309
296.2181086
296.6549802
295.8159847
297.1627573
298.3507623
297.1196331
297.5147905
298.3150874
297.4063626
297.4457944
297.4748774
297.9374803
296.8385645
297.251809
296.4238201
297.2918258
298.3079371
)
;
    }
    obstacle
    {
        type            calculated;
        value           nonuniform List<scalar> 0();
    }
    frontAndBack
    {
        type            empty;
    }
    procBoundary2to0
    {
        type            processor;
        value           nonuniform List<scalar> 
31
(
294.0837304
304.0223715
299.1255599
300.0408331
299.7134353
299.8023832
299.7312251
301.043396
301.2750607
300.7072668
300.9537824
300.4893211
301.3758535
301.9972361
301.985996
300.5216221
299.476595
300.851079
300.6376712
300.8853026
305.4349436
308.1560303
311.0925164
313.948198
318.4339349
321.6708348
299.5777976
300.0299469
302.1719443
304.3323538
304.3323538
)
;
    }
    procBoundary2to3
    {
        type            processor;
        value           nonuniform List<scalar> 
19
(
317.6995842
313.2342739
311.0831606
307.4135615
305.6908776
305.4770641
301.6359641
303.3007192
301.821758
301.454217
302.1885745
302.4417897
301.9194687
299.7394266
300.0737584
300.9594401
300.4405432
300.0752116
299.115304
)
;
    }
}


// ************************************************************************* //
