/*--------------------------------*- C++ -*----------------------------------*\
| =========                 |                                                 |
| \\      /  F ield         | OpenFOAM: The Open Source CFD Toolbox           |
|  \\    /   O peration     | Version:  2406                                  |
|   \\  /    A nd           | Website:  www.openfoam.com                      |
|    \\/     M anipulation  |                                                 |
\*---------------------------------------------------------------------------*/
FoamFile
{
    version     2.0;
    format      ascii;
    arch        "LSB;label=32;scalar=64";
    class       volScalarField;
    location    "0.011";
    object      p;
}
// * * * * * * * * * * * * * * * * * * * * * * * * * * * * * * * * * * * * * //

dimensions      [1 -1 -2 0 0 0 0];

internalField   nonuniform List<scalar> 
546
(
0.3072253602
0.4188127808
0.4138580667
0.4147844369
0.413694333
0.4133701581
0.4149498657
0.4158683776
0.4112767473
0.4157927746
0.4186619618
0.4209626655
0.4183799433
0.4145466143
0.4123465373
0.4132221998
0.4130440694
0.4136265954
0.4116647303
0.4119812474
0.3097886214
0.4183519122
0.4120325772
0.4163085625
0.4175261027
0.4173970681
0.4161334495
0.4162824663
0.4153802586
0.4140459038
0.4118085922
0.4127042824
0.4142640085
0.4147247363
0.417366947
0.4133803474
0.413602516
0.4164260433
0.4172054995
0.4149456936
0.309855868
0.4201724228
0.4105771765
0.4109430938
0.4120983003
0.4142146899
0.4150628325
0.4157396539
0.4144666536
0.4161873445
0.4140097886
0.4158523898
0.4131884992
0.4090020735
0.4120998383
0.4131579647
0.4116289939
0.409080481
0.4077955836
0.407467124
0.3138194955
0.4251960865
0.4177143472
0.4127171329
0.4113232668
0.408925608
0.4080893478
0.4075387432
0.4120152385
0.4091740318
0.4115550957
0.4124331989
0.415825092
0.4151272321
0.4134740014
0.413344371
0.4137553401
0.4155552222
0.4215865967
0.4182685626
0.3090779906
0.4202937375
0.4123379156
0.4145623291
0.4133355
0.4138886192
0.4133167766
0.4133305916
0.4112933407
0.4076131485
0.4083473067
0.4038775445
0.4057723269
0.4101476168
0.4127873022
0.4170322457
0.4190343152
0.4180687958
0.4154181722
0.4153935026
0.3108801228
0.4221265452
0.4113713421
0.4116138802
0.4156474969
0.4156739737
0.41279915
0.4125120062
0.414428487
0.417741972
0.4199975846
0.4174867274
0.4188890695
0.4158161297
0.4167402596
0.4182399024
0.4195461024
0.4160051619
0.4185515284
0.4204856902
0.3095967684
0.4187093288
0.4139387125
0.4147173803
0.4126195337
0.4131043976
0.4154333415
0.4194147277
0.4177969425
0.4166807776
0.4164988168
0.4163429068
0.4176317167
0.4139568736
0.4131840233
0.4129463646
0.4127346289
0.4142165428
0.4151117301
0.413814351
0.3095752851
0.4231402971
0.4160524758
0.4165289443
0.4178749362
0.4154223116
0.4184854059
0.4156163473
0.4158003583
0.4170029475
0.4167301219
0.413147199
0.4132895876
0.4130823151
0.4135338963
0.4154926654
0.415061732
0.4153239387
0.4179812459
0.4192117495
0.3112726541
0.4189227171
0.4101098606
0.4118582429
0.411229902
0.4106205461
0.4087965558
0.4125886707
0.4131851515
0.415982824
0.4173307918
0.4203258654
0.4203078844
0.4210042216
0.4178193092
0.41400261
0.4152640684
0.415330631
0.4122949924
0.4136976991
0.3084388853
0.4203731396
0.4131169431
0.4103918689
0.410076957
0.4104981029
0.4105529887
0.4137903465
0.4141962539
0.4116300247
0.4094048108
0.4124259933
0.4111297968
0.4162639132
0.4188691697
0.4170138521
0.4172257683
0.4152703226
0.4121925851
0.4082367111
0.3143104186
0.4237918297
0.4135036516
0.4133783234
0.4135239026
0.4138932558
0.4133644123
0.4089947274
0.4111086437
0.4135288539
0.4121587834
0.4118471087
0.4131993071
0.4107797735
0.4078852716
0.4095028817
0.4117354265
0.4116295202
0.4156158893
0.4166617695
0.3072962077
0.4207766796
0.4118978522
0.4157738476
0.4131923443
0.4112398682
0.4129243824
0.410875649
0.408717104
0.4097312063
0.4085014632
0.4093278465
0.4100849382
0.4138862975
0.4151791498
0.4128805135
0.4145896297
0.412216276
0.4145446342
0.4153960947
0.3113514693
0.4214412601
0.4136722006
0.4132291737
0.4152916506
0.4138911685
0.4141557082
0.4131378846
0.4144323672
0.4130382805
0.4152287709
0.4192268734
0.4201114236
0.4159648999
0.4151070542
0.4191363221
0.4131934731
0.4171416802
0.41641356
0.4178659121
0.3070673506
0.4161962185
0.4114594002
0.4121147989
0.4124829737
0.4127780489
0.4154428094
0.4207170795
0.4214478187
0.4206351703
0.413798504
0.4095080722
0.4061400079
0.4111614754
0.4139037593
0.4124879549
0.4143607056
0.4099906576
0.4097838298
0.4093095369
0.3134895843
0.4255879694
0.4141666868
0.4109356809
0.415244964
0.4166460059
0.4146879874
0.4177295787
0.4161662449
0.416142254
0.4129150437
0.4153008511
0.4160227666
0.4115564864
0.4096848555
0.4088830858
0.4092201951
0.4108171575
0.4124504372
0.4106579242
0.3097971594
0.4180434843
0.4113156051
0.4183227445
0.4192259294
0.4150718481
0.4128791583
0.4062720399
0.4047400933
0.410395662
0.4130196475
0.4132146197
0.4125491107
0.4140944387
0.4153297591
0.4119455233
0.4115239173
0.4085120583
0.4078334595
0.4103148096
0.3115900835
0.4233856644
0.4157548985
0.4108883133
0.4057307876
0.4092872819
0.4130611282
0.4150832348
0.4153959956
0.4175126289
0.415720745
0.4153492928
0.4168438533
0.4138153534
0.4148393043
0.4139210491
0.4132192382
0.4124245583
0.4148364772
0.4113006785
0.3044434231
0.409155797
0.4040319623
0.40398413
0.4016563999
0.4038492251
0.4056920021
0.4061613186
0.4050092304
0.4060113017
0.4087341669
0.4050108966
0.4083564029
0.4063507265
0.4056218112
0.4055771312
0.4062548276
0.4103877713
0.409349949
0.4080243519
0.4281905652
0.4291987579
0.4284961943
0.4287221902
0.4361601999
0.4467034528
0.4145516853
0.4176509209
0.4161626414
0.4155324498
0.4189107073
0.4218981235
0.4248784168
0.4320789121
0.4280923564
0.4328698911
0.4153276112
0.4157326819
0.4181112121
0.4222596576
0.422133038
0.4237862521
0.4219373702
0.4257068623
0.4279238898
0.4328539985
0.4115123138
0.4140929291
0.4157419446
0.415618805
0.4135062424
0.4145509822
0.4194214935
0.4215809178
0.4251368488
0.428556782
0.4175191356
0.4193187701
0.4168407958
0.4207147707
0.4192650199
0.4209739302
0.4202744397
0.4189645624
0.419987796
0.4232271164
0.4161896871
0.4143027606
0.4157695104
0.4164075703
0.4162773271
0.4162693569
0.4237263424
0.4272461312
0.4265623164
0.4258028518
0.4182475261
0.4170975942
0.416339676
0.4194272802
0.4267388658
0.4229240896
0.4193702998
0.4174703944
0.4214763887
0.4201636946
0.4162451721
0.4169503619
0.4184611812
0.4145210807
0.4129831031
0.4120241245
0.4142699023
0.4187538132
0.4157171139
0.4144857228
0.4190206629
0.4213113911
0.4146517678
0.410424756
0.41130322
0.4102973506
0.4102818487
0.4093099808
0.4111608262
0.4130374818
0.409275467
0.4092576148
0.4114963144
0.4069922134
0.4117057318
0.4123561447
0.4116420043
0.410794607
0.413583494
0.4114176233
0.4092481342
0.4133410985
0.416219235
0.419919583
0.4156514144
0.4177033805
0.4187816052
0.4190616758
0.419925014
0.4166268493
0.4169300552
0.4148283557
0.4140042681
0.4155585302
0.416667988
0.4152721796
0.4144180104
0.4154540652
0.4155589106
0.4183443162
0.4162375458
0.4149236518
0.4138159392
0.4133700553
0.4136538882
0.4127289116
0.4133563472
0.4151284437
0.415755341
0.4188624754
0.415113709
0.4164010791
0.4214770592
0.418839803
0.4140057637
0.416753559
0.4149603715
0.4151824762
0.4114732404
0.4093188379
0.4115936945
0.4125651268
0.4093403644
0.4147558526
0.4178401536
0.4122020375
0.4105865247
0.4135573299
0.4102526688
0.4081016468
0.4090510682
0.4102301671
0.4104210061
0.4084282965
0.4094638795
0.4124353947
0.4115523953
0.4096149371
0.4133373634
0.4172515917
0.4090851765
0.4090454594
0.4078850503
0.4107133287
0.4129209046
0.4083759171
0.4122025678
0.411571375
0.4123816985
0.4147145556
0.4095020906
0.4113004232
0.4101058456
0.4090877016
0.4094284826
0.4114303747
0.4133770528
0.4165277796
0.4192411801
0.4151455706
0.4090194334
0.4059430778
0.4052772728
0.4089926346
0.4064323511
0.4050629213
0.4057618632
0.4028725299
0.3999872536
0.4055442692
)
;

boundaryField
{
    flow
    {
        type            calculated;
        value           nonuniform List<scalar> 
48
(
0.3072253602
0.3097886214
0.309855868
0.3138194955
0.3090779906
0.3108801228
0.3095967684
0.3095752851
0.3112726541
0.3084388853
0.3143104186
0.3072962077
0.3113514693
0.3070673506
0.3134895843
0.3097971594
0.3115900835
0.3044434231
0.3044434231
0.409155797
0.4040319623
0.40398413
0.4016563999
0.4038492251
0.4056920021
0.4061613186
0.4050092304
0.4060113017
0.4087341669
0.4050108966
0.4083564029
0.4063507265
0.4056218112
0.4055771312
0.4062548276
0.4103877713
0.409349949
0.4080243519
0.4090194334
0.4059430778
0.4052772728
0.4089926346
0.4064323511
0.4050629213
0.4057618632
0.4028725299
0.3999872536
0.4055442692
)
;
    }
    obstacle
    {
        type            calculated;
        value           nonuniform List<scalar> 0();
    }
    frontAndBack
    {
        type            empty;
    }
    procBoundary2to0
    {
        type            processor;
        value           nonuniform List<scalar> 
31
(
0.3099602067
0.4218914801
0.4122311584
0.4104980754
0.4105295665
0.4094348391
0.4119044136
0.4165140206
0.419448183
0.4169356758
0.4155284203
0.4144553253
0.4185098686
0.4193161719
0.4174984255
0.4152152
0.4113879251
0.4147048527
0.4166838428
0.4178568048
0.4246526861
0.4320765164
0.4365956744
0.444606704
0.459092435
0.4658857372
0.4131762927
0.4139393746
0.4193925774
0.4238363778
0.4238363778
)
;
    }
    procBoundary2to3
    {
        type            processor;
        value           nonuniform List<scalar> 
19
(
0.457621112
0.4444408114
0.4390060076
0.4347930701
0.4283221148
0.428095532
0.4254958563
0.4133431609
0.4158363077
0.4093142559
0.4184235948
0.4207925701
0.4196604948
0.4100766667
0.4116915074
0.4172149229
0.4189933993
0.4130521446
0.4047770492
)
;
    }
}


// ************************************************************************* //
