/*--------------------------------*- C++ -*----------------------------------*\
| =========                 |                                                 |
| \\      /  F ield         | OpenFOAM: The Open Source CFD Toolbox           |
|  \\    /   O peration     | Version:  2406                                  |
|   \\  /    A nd           | Website:  www.openfoam.com                      |
|    \\/     M anipulation  |                                                 |
\*---------------------------------------------------------------------------*/
FoamFile
{
    version     2.0;
    format      ascii;
    arch        "LSB;label=32;scalar=64";
    class       volScalarField;
    location    "0.011";
    object      rhoMMean;
}
// * * * * * * * * * * * * * * * * * * * * * * * * * * * * * * * * * * * * * //

dimensions      [1 -3 0 0 0 0 0];

internalField   nonuniform List<scalar> 
546
(
3.706502557e-06
4.783641465e-06
4.825607491e-06
4.812086978e-06
4.802892933e-06
4.806651402e-06
4.810550478e-06
4.797657608e-06
4.772669428e-06
4.810559377e-06
4.816079667e-06
4.837223454e-06
4.825453137e-06
4.798149489e-06
4.797484546e-06
4.794452785e-06
4.798343265e-06
4.805651658e-06
4.7732347e-06
4.76089699e-06
3.731476688e-06
4.78328595e-06
4.81244007e-06
4.83193515e-06
4.837695719e-06
4.825454349e-06
4.811355424e-06
4.819118093e-06
4.801100779e-06
4.782917786e-06
4.785240032e-06
4.776074389e-06
4.78331829e-06
4.771743983e-06
4.791285263e-06
4.770231037e-06
4.775460909e-06
4.798010699e-06
4.813959188e-06
4.807187363e-06
3.703626059e-06
4.756924409e-06
4.774197635e-06
4.76105195e-06
4.76702167e-06
4.775803284e-06
4.798945838e-06
4.798652088e-06
4.792450079e-06
4.810509542e-06
4.795793086e-06
4.795604763e-06
4.778145449e-06
4.752621005e-06
4.769386973e-06
4.78022821e-06
4.75955063e-06
4.761401709e-06
4.751827079e-06
4.747994614e-06
3.725465425e-06
4.793207915e-06
4.809351202e-06
4.779446214e-06
4.790890327e-06
4.767912844e-06
4.76584807e-06
4.766604694e-06
4.800046768e-06
4.777293394e-06
4.799143969e-06
4.810148157e-06
4.839789312e-06
4.82889733e-06
4.810232264e-06
4.793951095e-06
4.794279723e-06
4.787626466e-06
4.827307245e-06
4.826122321e-06
3.719567278e-06
4.789000016e-06
4.803980609e-06
4.803703634e-06
4.794501598e-06
4.801644011e-06
4.784501699e-06
4.787265384e-06
4.756264124e-06
4.732807294e-06
4.73787058e-06
4.715183515e-06
4.728493059e-06
4.759402032e-06
4.798226818e-06
4.822710582e-06
4.841977614e-06
4.830947751e-06
4.810247829e-06
4.803797247e-06
3.712815258e-06
4.780840478e-06
4.798355497e-06
4.80693292e-06
4.833567383e-06
4.840892249e-06
4.819775652e-06
4.812632028e-06
4.832558134e-06
4.838289999e-06
4.851842246e-06
4.84136209e-06
4.830830585e-06
4.796123115e-06
4.788377524e-06
4.795367096e-06
4.797029549e-06
4.780586452e-06
4.800907911e-06
4.807933573e-06
3.720460268e-06
4.773020701e-06
4.799717837e-06
4.797731907e-06
4.768590624e-06
4.77855595e-06
4.795455861e-06
4.820173126e-06
4.815558362e-06
4.825982622e-06
4.833124429e-06
4.83423475e-06
4.84355596e-06
4.826954154e-06
4.81879401e-06
4.810957647e-06
4.817874738e-06
4.798822915e-06
4.802262451e-06
4.798253894e-06
3.707923216e-06
4.796346921e-06
4.8265677e-06
4.826050749e-06
4.835344769e-06
4.825577272e-06
4.836738843e-06
4.817947522e-06
4.821719434e-06
4.809080893e-06
4.808226718e-06
4.785135817e-06
4.790166649e-06
4.789901603e-06
4.80216471e-06
4.814380103e-06
4.815324444e-06
4.834532742e-06
4.851243422e-06
4.847281975e-06
3.71947003e-06
4.776650377e-06
4.781603881e-06
4.79433168e-06
4.792859368e-06
4.771708197e-06
4.766358848e-06
4.794593999e-06
4.778514597e-06
4.814378588e-06
4.830501957e-06
4.838296171e-06
4.837459681e-06
4.843883982e-06
4.816798877e-06
4.779197225e-06
4.792131448e-06
4.788147052e-06
4.766552927e-06
4.763254605e-06
3.705999656e-06
4.75335771e-06
4.781740247e-06
4.774347748e-06
4.77217713e-06
4.781987797e-06
4.785291686e-06
4.795416629e-06
4.782551554e-06
4.758232256e-06
4.739870749e-06
4.752970839e-06
4.767173791e-06
4.784815974e-06
4.796646238e-06
4.79935028e-06
4.794864801e-06
4.765431282e-06
4.759519085e-06
4.742843889e-06
3.731678454e-06
4.787412771e-06
4.803168696e-06
4.789787579e-06
4.790549467e-06
4.776803028e-06
4.787606661e-06
4.75830273e-06
4.781219358e-06
4.798500157e-06
4.795280679e-06
4.791744502e-06
4.785620427e-06
4.769489371e-06
4.757414284e-06
4.76424242e-06
4.772198374e-06
4.795151697e-06
4.826077446e-06
4.837233565e-06
3.704036977e-06
4.793360451e-06
4.809478973e-06
4.809140537e-06
4.797834002e-06
4.780982714e-06
4.8000128e-06
4.779237972e-06
4.759413355e-06
4.761991747e-06
4.744948501e-06
4.76271107e-06
4.761995383e-06
4.782331194e-06
4.804152459e-06
4.791548189e-06
4.807082428e-06
4.771462161e-06
4.789469252e-06
4.794505953e-06
3.7286384e-06
4.790358304e-06
4.824829736e-06
4.805088507e-06
4.818154136e-06
4.80690573e-06
4.801247256e-06
4.802131651e-06
4.820040395e-06
4.820655805e-06
4.820284726e-06
4.841713478e-06
4.842495474e-06
4.827707445e-06
4.822472726e-06
4.841041756e-06
4.799346948e-06
4.835402292e-06
4.828216822e-06
4.819715516e-06
3.705368075e-06
4.746759855e-06
4.78535417e-06
4.783443144e-06
4.789377078e-06
4.802997565e-06
4.81196841e-06
4.839259523e-06
4.829977735e-06
4.820624677e-06
4.791427689e-06
4.763113392e-06
4.741978201e-06
4.770657633e-06
4.773963642e-06
4.781087952e-06
4.792121148e-06
4.775234376e-06
4.772908495e-06
4.778579201e-06
3.724904092e-06
4.800636087e-06
4.809511919e-06
4.779994899e-06
4.805275012e-06
4.798849499e-06
4.777747066e-06
4.794460775e-06
4.785730816e-06
4.77684741e-06
4.765294727e-06
4.787228197e-06
4.801735805e-06
4.77111725e-06
4.772362423e-06
4.761628242e-06
4.755526207e-06
4.761724581e-06
4.782978756e-06
4.791612377e-06
3.700568623e-06
4.755400141e-06
4.783945326e-06
4.801991043e-06
4.817676001e-06
4.790178274e-06
4.767811241e-06
4.752091102e-06
4.75162429e-06
4.783639344e-06
4.792528013e-06
4.788241574e-06
4.783598407e-06
4.792337873e-06
4.817747573e-06
4.812535083e-06
4.8081698e-06
4.791979517e-06
4.771868421e-06
4.777639404e-06
3.735903432e-06
4.818979e-06
4.831160841e-06
4.798679278e-06
4.767312694e-06
4.809092821e-06
4.823747816e-06
4.836587215e-06
4.825774077e-06
4.842526906e-06
4.828304754e-06
4.809021552e-06
4.82122138e-06
4.793461941e-06
4.80081623e-06
4.792574213e-06
4.794499591e-06
4.784996117e-06
4.80741045e-06
4.795988376e-06
3.642662401e-06
4.677793437e-06
4.715347374e-06
4.742449861e-06
4.740900523e-06
4.744710948e-06
4.755718165e-06
4.752798005e-06
4.737724708e-06
4.738061023e-06
4.768232875e-06
4.764477436e-06
4.773354479e-06
4.768063449e-06
4.75201438e-06
4.753211838e-06
4.750268728e-06
4.769117573e-06
4.776875395e-06
4.775036851e-06
4.827490622e-06
4.83301797e-06
4.830594717e-06
4.824520655e-06
4.831586961e-06
4.86086363e-06
4.769160531e-06
4.783340941e-06
4.784433707e-06
4.756688961e-06
4.781815581e-06
4.803177236e-06
4.828567507e-06
4.831838152e-06
4.807692198e-06
4.806268107e-06
4.817219634e-06
4.825201253e-06
4.846642679e-06
4.853120354e-06
4.832089595e-06
4.816388623e-06
4.801277517e-06
4.82221881e-06
4.82612709e-06
4.848958866e-06
4.766663785e-06
4.759155819e-06
4.758479573e-06
4.756811059e-06
4.774457483e-06
4.770959124e-06
4.781816295e-06
4.789316568e-06
4.811150249e-06
4.825794385e-06
4.835198544e-06
4.841060252e-06
4.813028161e-06
4.844509503e-06
4.834079966e-06
4.826703854e-06
4.8052904e-06
4.806043366e-06
4.771554316e-06
4.796243636e-06
4.80958613e-06
4.791579145e-06
4.797886133e-06
4.784713633e-06
4.7891089e-06
4.784960327e-06
4.822220911e-06
4.854438637e-06
4.832227904e-06
4.81922595e-06
4.799455303e-06
4.799709544e-06
4.802453435e-06
4.820302463e-06
4.856756183e-06
4.864369383e-06
4.833866244e-06
4.826527475e-06
4.851122123e-06
4.856134064e-06
4.800525967e-06
4.812784896e-06
4.80909891e-06
4.818383844e-06
4.784294926e-06
4.782551863e-06
4.792957413e-06
4.801992004e-06
4.761303737e-06
4.748558579e-06
4.85957486e-06
4.858235506e-06
4.810445861e-06
4.765930583e-06
4.754201458e-06
4.748081888e-06
4.750793558e-06
4.735987496e-06
4.75012241e-06
4.759110501e-06
4.728271633e-06
4.723615885e-06
4.730664155e-06
4.714521628e-06
4.745957595e-06
4.758796005e-06
4.771312018e-06
4.74020332e-06
4.753926339e-06
4.750931539e-06
4.750242716e-06
4.785966894e-06
4.804221554e-06
4.836946908e-06
4.826086143e-06
4.824878663e-06
4.823969067e-06
4.831405679e-06
4.837741487e-06
4.798590964e-06
4.840668858e-06
4.820220223e-06
4.80284952e-06
4.801831733e-06
4.814868026e-06
4.801881779e-06
4.7951266e-06
4.790497424e-06
4.80335188e-06
4.815713096e-06
4.800052906e-06
4.805057653e-06
4.807990688e-06
4.788860163e-06
4.782352881e-06
4.783250625e-06
4.794892172e-06
4.825417701e-06
4.833265456e-06
4.848437895e-06
4.788649879e-06
4.800196653e-06
4.815336735e-06
4.823510568e-06
4.805574993e-06
4.8301179e-06
4.807950159e-06
4.806098391e-06
4.78686868e-06
4.789243851e-06
4.80054391e-06
4.816510811e-06
4.799004693e-06
4.820995555e-06
4.832945784e-06
4.806027448e-06
4.801453507e-06
4.800725465e-06
4.792963503e-06
4.756335732e-06
4.770228122e-06
4.777107317e-06
4.770663598e-06
4.772918038e-06
4.775295125e-06
4.781770434e-06
4.773535223e-06
4.782595266e-06
4.804996366e-06
4.83079888e-06
4.769517947e-06
4.781294316e-06
4.780616769e-06
4.787840384e-06
4.802488958e-06
4.776156338e-06
4.792345656e-06
4.779023251e-06
4.786739311e-06
4.806337268e-06
4.783778226e-06
4.771953254e-06
4.771807972e-06
4.758857939e-06
4.765693427e-06
4.782612609e-06
4.796261751e-06
4.825187253e-06
4.834623163e-06
4.805968587e-06
4.772721219e-06
4.761506884e-06
4.759655959e-06
4.796357338e-06
4.750894127e-06
4.74759257e-06
4.759880684e-06
4.720446835e-06
4.693768184e-06
4.729832433e-06
)
;

boundaryField
{
    flow
    {
        type            calculated;
        value           nonuniform List<scalar> 
48
(
3.706502557e-06
3.731476688e-06
3.703626059e-06
3.725465425e-06
3.719567278e-06
3.712815258e-06
3.720460268e-06
3.707923216e-06
3.71947003e-06
3.705999656e-06
3.731678454e-06
3.704036977e-06
3.7286384e-06
3.705368075e-06
3.724904092e-06
3.700568623e-06
3.735903432e-06
3.642662401e-06
3.642662401e-06
4.677793437e-06
4.715347374e-06
4.742449861e-06
4.740900523e-06
4.744710948e-06
4.755718165e-06
4.752798005e-06
4.737724708e-06
4.738061023e-06
4.768232875e-06
4.764477436e-06
4.773354479e-06
4.768063449e-06
4.75201438e-06
4.753211838e-06
4.750268728e-06
4.769117573e-06
4.776875395e-06
4.775036851e-06
4.772721219e-06
4.761506884e-06
4.759655959e-06
4.796357338e-06
4.750894127e-06
4.74759257e-06
4.759880684e-06
4.720446835e-06
4.693768184e-06
4.729832433e-06
)
;
    }
    obstacle
    {
        type            calculated;
        value           nonuniform List<scalar> 0();
    }
    frontAndBack
    {
        type            empty;
    }
    procBoundary2to0
    {
        type            processor;
        value           nonuniform List<scalar> 
31
(
3.715829637e-06
4.779802335e-06
4.795270265e-06
4.761325592e-06
4.778657742e-06
4.764031755e-06
4.797510221e-06
4.82187288e-06
4.851252321e-06
4.832836737e-06
4.820712117e-06
4.810926518e-06
4.819234238e-06
4.820990606e-06
4.799608661e-06
4.809279327e-06
4.790855146e-06
4.788329922e-06
4.808596585e-06
4.803528452e-06
4.797121822e-06
4.804787863e-06
4.80270647e-06
4.821596667e-06
4.876920584e-06
4.885220043e-06
4.805594597e-06
4.777552724e-06
4.796179656e-06
4.812853425e-06
4.812853425e-06
)
;
    }
    procBoundary2to3
    {
        type            processor;
        value           nonuniform List<scalar> 
19
(
4.8745635e-06
4.83284101e-06
4.843089993e-06
4.835271295e-06
4.805072e-06
4.808670065e-06
4.86924878e-06
4.740748251e-06
4.779820964e-06
4.737022062e-06
4.801752027e-06
4.809868607e-06
4.848807341e-06
4.792868977e-06
4.779646585e-06
4.808990142e-06
4.832768814e-06
4.798860005e-06
4.714000106e-06
)
;
    }
}


// ************************************************************************* //
