/*--------------------------------*- C++ -*----------------------------------*\
| =========                 |                                                 |
| \\      /  F ield         | OpenFOAM: The Open Source CFD Toolbox           |
|  \\    /   O peration     | Version:  2406                                  |
|   \\  /    A nd           | Website:  www.openfoam.com                      |
|    \\/     M anipulation  |                                                 |
\*---------------------------------------------------------------------------*/
FoamFile
{
    version     2.0;
    format      ascii;
    arch        "LSB;label=32;scalar=64";
    class       volScalarField;
    location    "0.011";
    object      rhoM;
}
// * * * * * * * * * * * * * * * * * * * * * * * * * * * * * * * * * * * * * //

dimensions      [1 -3 0 0 0 0 0];

internalField   nonuniform List<scalar> 
546
(
2.974446132e-06
5.049331109e-06
5.118271776e-06
4.01188862e-06
4.427198864e-06
4.496139531e-06
2.974446132e-06
4.427198864e-06
5.53358202e-06
3.942947953e-06
6.155714265e-06
5.118271776e-06
5.879951596e-06
6.502083841e-06
5.326760018e-06
4.702961533e-06
5.602522687e-06
3.458697042e-06
5.049331109e-06
3.942947953e-06
5.049331109e-06
7.401644995e-06
2.974446132e-06
5.602522687e-06
4.427198864e-06
4.427198864e-06
4.218710622e-06
4.01188862e-06
4.496139531e-06
5.948892263e-06
4.496139531e-06
7.470585662e-06
1.452752732e-06
2.421254554e-06
4.149769955e-06
5.879951596e-06
5.879951596e-06
1.937003643e-06
6.571024508e-06
8.092717908e-06
4.01188862e-06
4.565080198e-06
2.490195221e-06
4.842509107e-06
3.043386799e-06
2.559135888e-06
6.155714265e-06
4.634020865e-06
6.917394084e-06
4.496139531e-06
6.708905843e-06
4.980390442e-06
2.490195221e-06
7.885895906e-06
4.980390442e-06
3.942947953e-06
2.974446132e-06
8.439087484e-06
3.458697042e-06
3.52763771e-06
2.905505464e-06
5.602522687e-06
7.53952633e-06
3.458697042e-06
5.049331109e-06
6.986334752e-06
5.53358202e-06
4.427198864e-06
2.421254554e-06
3.942947953e-06
3.043386799e-06
4.980390442e-06
6.571024508e-06
3.596578377e-06
6.01783293e-06
4.496139531e-06
4.980390442e-06
4.427198864e-06
5.53358202e-06
7.124216086e-06
5.602522687e-06
5.948892263e-06
4.496139531e-06
4.911449774e-06
4.496139531e-06
6.502083841e-06
6.433143174e-06
5.395700685e-06
2.559135888e-06
4.565080198e-06
8.370146817e-06
5.395700685e-06
5.049331109e-06
5.395700685e-06
5.118271776e-06
2.559135888e-06
6.01783293e-06
5.879951596e-06
4.01188862e-06
7.401644995e-06
2.421254554e-06
2.905505464e-06
5.464641352e-06
4.980390442e-06
4.427198864e-06
2.490195221e-06
2.905505464e-06
5.118271776e-06
8.02377724e-06
5.53358202e-06
3.942947953e-06
6.917394084e-06
6.224654932e-06
5.464641352e-06
6.917394084e-06
5.049331109e-06
4.427198864e-06
4.080829287e-06
3.043386799e-06
5.187212443e-06
2.974446132e-06
6.639965176e-06
3.043386799e-06
3.389756375e-06
6.01783293e-06
6.364202506e-06
4.634020865e-06
4.427198864e-06
6.502083841e-06
3.389756375e-06
5.948892263e-06
3.52763771e-06
3.458697042e-06
5.049331109e-06
3.942947953e-06
4.565080198e-06
5.53358202e-06
4.149769955e-06
6.086773598e-06
3.874007286e-06
3.458697042e-06
6.571024508e-06
2.490195221e-06
5.049331109e-06
4.634020865e-06
4.01188862e-06
2.905505464e-06
3.874007286e-06
4.980390442e-06
4.427198864e-06
3.389756375e-06
5.671463354e-06
6.01783293e-06
4.496139531e-06
2.905505464e-06
7.53952633e-06
5.049331109e-06
4.911449774e-06
2.559135888e-06
2.00594431e-06
3.52763771e-06
4.980390442e-06
4.496139531e-06
3.043386799e-06
4.496139531e-06
4.080829287e-06
2.905505464e-06
5.464641352e-06
6.01783293e-06
5.464641352e-06
3.52763771e-06
4.080829287e-06
9.685018214e-07
4.496139531e-06
2.974446132e-06
2.421254554e-06
6.571024508e-06
7.055275419e-06
4.358258196e-06
4.496139531e-06
2.974446132e-06
5.049331109e-06
7.885895906e-06
2.421254554e-06
8.301206149e-06
5.395700685e-06
3.181268133e-06
4.149769955e-06
3.596578377e-06
5.049331109e-06
3.458697042e-06
4.565080198e-06
4.01188862e-06
3.874007286e-06
7.608466997e-06
3.389756375e-06
5.602522687e-06
2.905505464e-06
1.937003643e-06
3.942947953e-06
2.974446132e-06
6.708905843e-06
6.086773598e-06
3.458697042e-06
6.01783293e-06
6.502083841e-06
3.458697042e-06
5.118271776e-06
5.948892263e-06
4.496139531e-06
3.043386799e-06
5.53358202e-06
6.01783293e-06
5.395700685e-06
5.395700685e-06
4.496139531e-06
5.948892263e-06
4.01188862e-06
2.074884977e-06
3.874007286e-06
3.458697042e-06
4.358258196e-06
4.496139531e-06
4.01188862e-06
8.092717908e-06
3.942947953e-06
2.074884977e-06
6.155714265e-06
9.685018214e-07
3.874007286e-06
6.917394084e-06
5.049331109e-06
2.905505464e-06
4.980390442e-06
4.496139531e-06
4.358258196e-06
4.980390442e-06
4.358258196e-06
5.53358202e-06
6.639965176e-06
2.974446132e-06
5.602522687e-06
3.52763771e-06
3.389756375e-06
5.948892263e-06
4.980390442e-06
2.490195221e-06
4.496139531e-06
5.948892263e-06
6.01783293e-06
3.942947953e-06
1.590634067e-06
5.187212443e-06
3.389756375e-06
6.293595599e-06
4.980390442e-06
3.942947953e-06
4.427198864e-06
5.395700685e-06
5.53358202e-06
5.53358202e-06
5.464641352e-06
3.458697042e-06
6.433143174e-06
2.559135888e-06
3.596578377e-06
5.464641352e-06
6.639965176e-06
6.01783293e-06
7.885895906e-06
4.01188862e-06
5.464641352e-06
6.639965176e-06
5.118271776e-06
7.53952633e-06
6.986334752e-06
4.080829287e-06
7.401644995e-06
3.389756375e-06
3.389756375e-06
4.01188862e-06
6.433143174e-06
3.942947953e-06
7.677407664e-06
4.01188862e-06
5.049331109e-06
6.01783293e-06
2.974446132e-06
5.395700685e-06
4.496139531e-06
4.427198864e-06
3.874007286e-06
6.086773598e-06
5.464641352e-06
5.049331109e-06
3.458697042e-06
3.874007286e-06
2.490195221e-06
4.634020865e-06
4.358258196e-06
3.458697042e-06
3.043386799e-06
4.634020865e-06
3.389756375e-06
4.080829287e-06
6.848453417e-06
8.923338395e-06
4.149769955e-06
5.948892263e-06
6.433143174e-06
4.634020865e-06
5.049331109e-06
1.937003643e-06
8.02377724e-06
6.433143174e-06
6.986334752e-06
5.53358202e-06
5.049331109e-06
2.974446132e-06
6.433143174e-06
4.980390442e-06
7.53952633e-06
5.464641352e-06
3.942947953e-06
4.358258196e-06
4.218710622e-06
3.389756375e-06
8.576968818e-06
3.458697042e-06
6.155714265e-06
6.364202506e-06
4.080829287e-06
5.948892263e-06
9.685018214e-07
2.074884977e-06
8.992279062e-06
4.980390442e-06
7.885895906e-06
4.01188862e-06
3.942947953e-06
3.52763771e-06
2.490195221e-06
5.464641352e-06
5.464641352e-06
4.980390442e-06
2.559135888e-06
4.427198864e-06
3.942947953e-06
4.565080198e-06
4.980390442e-06
5.464641352e-06
4.496139531e-06
6.917394084e-06
2.074884977e-06
2.974446132e-06
2.974446132e-06
6.086773598e-06
4.427198864e-06
3.942947953e-06
7.124216086e-06
5.351800601e-06
2.155856365e-06
2.750080633e-06
4.300901418e-06
4.185603542e-06
7.543964963e-06
4.37371369e-06
8.177260506e-06
6.052657554e-06
4.110325872e-06
4.638800223e-06
3.59367103e-06
4.63272423e-06
4.228242898e-06
3.744734387e-06
3.254189527e-06
4.164486124e-06
5.032419334e-06
3.589169561e-06
4.110325872e-06
6.708392291e-06
5.677896391e-06
2.099066949e-06
5.686681576e-06
5.727761098e-06
3.180473627e-06
4.998052174e-06
5.591389966e-06
6.967909566e-06
3.969061428e-06
7.136880207e-06
3.665302074e-06
4.704865354e-06
3.645218672e-06
5.874127838e-06
3.106757705e-06
3.470962463e-06
5.591389928e-06
4.292296714e-06
5.102591264e-06
4.70992835e-06
4.240081687e-06
6.152918556e-06
5.759340055e-06
5.874127838e-06
5.399077245e-06
4.859681878e-06
5.452068183e-06
4.011723974e-06
1.984530727e-06
3.568440103e-06
3.522039987e-06
1.592335492e-06
5.2489744e-06
4.185603542e-06
7.026172009e-06
2.984994275e-06
6.850336623e-06
5.137405542e-06
7.583254621e-06
4.567672097e-06
4.814861334e-06
5.718328266e-06
3.645218647e-06
7.489468827e-06
6.064302043e-06
3.054179444e-06
7.548629001e-06
4.011723974e-06
2.05516295e-06
5.56690409e-06
1.581076752e-06
6.152918599e-06
5.759340096e-06
2.643445966e-06
4.66013659e-06
2.915809127e-06
6.778992103e-06
4.504421603e-06
2.551295632e-06
6.351032594e-06
3.59367103e-06
5.283737897e-06
3.207511433e-06
3.157498504e-06
4.363491336e-06
3.470962463e-06
8.875552825e-06
4.081867132e-06
4.039693622e-06
1.070360113e-06
3.665302099e-06
4.704865386e-06
4.082925888e-06
3.817917805e-06
4.289775436e-06
5.414835214e-06
5.032419334e-06
3.166615168e-06
3.472928773e-06
6.137648256e-06
4.240081717e-06
7.382804831e-06
4.59329156e-06
4.258786902e-06
5.399077245e-06
5.41483525e-06
5.730711712e-06
3.026328777e-06
3.472928773e-06
5.78028847e-06
5.606265308e-06
7.310663759e-06
5.539608479e-06
3.671551023e-06
5.843154299e-06
3.054179423e-06
5.941377939e-06
5.067262322e-06
7.583254621e-06
4.781056477e-06
5.103116739e-06
5.283737897e-06
4.81126715e-06
4.405153714e-06
3.624550681e-06
8.259787043e-06
3.494829185e-06
7.318625541e-06
4.677090805e-06
3.497311977e-06
2.659004953e-06
6.29720089e-06
3.717877192e-06
6.534547134e-06
5.990586057e-06
6.663512183e-06
2.446548777e-06
8.163734263e-06
2.480663392e-06
3.068824107e-06
6.540931404e-06
3.619261292e-06
5.759340055e-06
4.185603512e-06
3.771982508e-06
5.900803402e-06
5.032419334e-06
2.673917566e-06
6.165488808e-06
3.068824086e-06
4.599968169e-06
5.139455687e-06
5.39429144e-06
5.28689197e-06
5.325361345e-06
3.609332784e-06
4.962758461e-06
5.067262357e-06
7.299018659e-06
5.709160344e-06
5.892789483e-06
5.790469349e-06
4.738608631e-06
4.62647267e-06
3.698266581e-06
7.011110074e-06
6.150360598e-06
5.137405542e-06
3.614193194e-06
6.137648213e-06
4.74323029e-06
4.704865386e-06
6.269705828e-06
7.562652165e-06
5.769438399e-06
6.663512183e-06
3.914478044e-06
4.574564758e-06
5.528091723e-06
3.63956823e-06
5.677896352e-06
2.099066934e-06
1.093389984e-06
4.699656061e-06
4.289775436e-06
)
;

boundaryField
{
    flow
    {
        type            zeroGradient;
    }
    obstacle
    {
        type            calculated;
        value           nonuniform List<scalar> 0();
    }
    frontAndBack
    {
        type            empty;
    }
    procBoundary2to0
    {
        type            processor;
        value           nonuniform List<scalar> 
31
(
3.52763771e-06
3.52763771e-06
5.879951596e-06
6.086773598e-06
5.464641352e-06
2.559135888e-06
4.911449774e-06
4.842509107e-06
5.602522687e-06
5.53358202e-06
2.421254554e-06
2.974446132e-06
4.496139531e-06
7.055275419e-06
4.911449774e-06
5.049331109e-06
3.043386799e-06
2.490195221e-06
4.911449774e-06
5.811010928e-06
4.0680561e-06
1.581076752e-06
4.198133897e-06
4.082925888e-06
3.891101195e-06
6.878740208e-06
4.442898838e-06
2.446548777e-06
5.419673585e-06
5.102591264e-06
5.102591264e-06
)
;
    }
    procBoundary2to3
    {
        type            processor;
        value           nonuniform List<scalar> 
19
(
3.203785551e-06
6.481827318e-06
4.917062686e-06
3.203785551e-06
4.321218212e-06
2.682197348e-06
4.39547446e-06
6.407571103e-06
3.799630017e-06
7.226184188e-06
3.79962999e-06
4.84280647e-06
1.564764668e-06
9.164024647e-06
3.278041814e-06
3.278041767e-06
4.172705781e-06
3.799630017e-06
3.203785551e-06
)
;
    }
}


// ************************************************************************* //
