/*--------------------------------*- C++ -*----------------------------------*\
| =========                 |                                                 |
| \\      /  F ield         | OpenFOAM: The Open Source CFD Toolbox           |
|  \\    /   O peration     | Version:  2406                                  |
|   \\  /    A nd           | Website:  www.openfoam.com                      |
|    \\/     M anipulation  |                                                 |
\*---------------------------------------------------------------------------*/
FoamFile
{
    version     2.0;
    format      ascii;
    arch        "LSB;label=32;scalar=64";
    class       volScalarField;
    location    "0.011";
    object      rhoN;
}
// * * * * * * * * * * * * * * * * * * * * * * * * * * * * * * * * * * * * * //

dimensions      [0 -3 0 0 0 0 0];

internalField   nonuniform List<scalar> 
546
(
6.248398848e+19
1.041399808e+20
1.041399808e+20
8.331198464e+19
9.372598272e+19
9.372598272e+19
6.248398848e+19
9.372598272e+19
1.145539789e+20
8.331198464e+19
1.24967977e+20
1.041399808e+20
1.24967977e+20
1.35381975e+20
1.145539789e+20
9.372598272e+19
1.145539789e+20
7.289798656e+19
1.041399808e+20
8.331198464e+19
1.041399808e+20
1.562099712e+20
6.248398848e+19
1.145539789e+20
9.372598272e+19
9.372598272e+19
8.331198464e+19
8.331198464e+19
9.372598272e+19
1.24967977e+20
9.372598272e+19
1.562099712e+20
3.124199424e+19
5.20699904e+19
8.331198464e+19
1.24967977e+20
1.24967977e+20
4.165599232e+19
1.35381975e+20
1.666239693e+20
8.331198464e+19
9.372598272e+19
5.20699904e+19
1.041399808e+20
6.248398848e+19
5.20699904e+19
1.24967977e+20
9.372598272e+19
1.457959731e+20
9.372598272e+19
1.35381975e+20
1.041399808e+20
5.20699904e+19
1.666239693e+20
1.041399808e+20
8.331198464e+19
6.248398848e+19
1.770379674e+20
7.289798656e+19
7.289798656e+19
6.248398848e+19
1.145539789e+20
1.562099712e+20
7.289798656e+19
1.041399808e+20
1.457959731e+20
1.145539789e+20
9.372598272e+19
5.20699904e+19
8.331198464e+19
6.248398848e+19
1.041399808e+20
1.35381975e+20
7.289798656e+19
1.24967977e+20
9.372598272e+19
1.041399808e+20
9.372598272e+19
1.145539789e+20
1.457959731e+20
1.145539789e+20
1.24967977e+20
9.372598272e+19
1.041399808e+20
9.372598272e+19
1.35381975e+20
1.35381975e+20
1.145539789e+20
5.20699904e+19
9.372598272e+19
1.770379674e+20
1.145539789e+20
1.041399808e+20
1.145539789e+20
1.041399808e+20
5.20699904e+19
1.24967977e+20
1.24967977e+20
8.331198464e+19
1.562099712e+20
5.20699904e+19
6.248398848e+19
1.145539789e+20
1.041399808e+20
9.372598272e+19
5.20699904e+19
6.248398848e+19
1.041399808e+20
1.666239693e+20
1.145539789e+20
8.331198464e+19
1.457959731e+20
1.24967977e+20
1.145539789e+20
1.457959731e+20
1.041399808e+20
9.372598272e+19
8.331198464e+19
6.248398848e+19
1.041399808e+20
6.248398848e+19
1.35381975e+20
6.248398848e+19
7.289798656e+19
1.24967977e+20
1.35381975e+20
9.372598272e+19
9.372598272e+19
1.35381975e+20
7.289798656e+19
1.24967977e+20
7.289798656e+19
7.289798656e+19
1.041399808e+20
8.331198464e+19
9.372598272e+19
1.145539789e+20
8.331198464e+19
1.24967977e+20
8.331198464e+19
7.289798656e+19
1.35381975e+20
5.20699904e+19
1.041399808e+20
9.372598272e+19
8.331198464e+19
6.248398848e+19
8.331198464e+19
1.041399808e+20
9.372598272e+19
7.289798656e+19
1.145539789e+20
1.24967977e+20
9.372598272e+19
6.248398848e+19
1.562099712e+20
1.041399808e+20
1.041399808e+20
5.20699904e+19
4.165599232e+19
7.289798656e+19
1.041399808e+20
9.372598272e+19
6.248398848e+19
9.372598272e+19
8.331198464e+19
6.248398848e+19
1.145539789e+20
1.24967977e+20
1.145539789e+20
7.289798656e+19
8.331198464e+19
2.082799616e+19
9.372598272e+19
6.248398848e+19
5.20699904e+19
1.35381975e+20
1.457959731e+20
9.372598272e+19
9.372598272e+19
6.248398848e+19
1.041399808e+20
1.666239693e+20
5.20699904e+19
1.770379674e+20
1.145539789e+20
6.248398848e+19
8.331198464e+19
7.289798656e+19
1.041399808e+20
7.289798656e+19
9.372598272e+19
8.331198464e+19
8.331198464e+19
1.562099712e+20
7.289798656e+19
1.145539789e+20
6.248398848e+19
4.165599232e+19
8.331198464e+19
6.248398848e+19
1.35381975e+20
1.24967977e+20
7.289798656e+19
1.24967977e+20
1.35381975e+20
7.289798656e+19
1.041399808e+20
1.24967977e+20
9.372598272e+19
6.248398848e+19
1.145539789e+20
1.24967977e+20
1.145539789e+20
1.145539789e+20
9.372598272e+19
1.24967977e+20
8.331198464e+19
4.165599232e+19
8.331198464e+19
7.289798656e+19
9.372598272e+19
9.372598272e+19
8.331198464e+19
1.666239693e+20
8.331198464e+19
4.165599232e+19
1.24967977e+20
2.082799616e+19
8.331198464e+19
1.457959731e+20
1.041399808e+20
6.248398848e+19
1.041399808e+20
9.372598272e+19
9.372598272e+19
1.041399808e+20
9.372598272e+19
1.145539789e+20
1.35381975e+20
6.248398848e+19
1.145539789e+20
7.289798656e+19
7.289798656e+19
1.24967977e+20
1.041399808e+20
5.20699904e+19
9.372598272e+19
1.24967977e+20
1.24967977e+20
8.331198464e+19
3.124199424e+19
1.041399808e+20
7.289798656e+19
1.24967977e+20
1.041399808e+20
8.331198464e+19
9.372598272e+19
1.145539789e+20
1.145539789e+20
1.145539789e+20
1.145539789e+20
7.289798656e+19
1.35381975e+20
5.20699904e+19
7.289798656e+19
1.145539789e+20
1.35381975e+20
1.24967977e+20
1.666239693e+20
8.331198464e+19
1.145539789e+20
1.35381975e+20
1.041399808e+20
1.562099712e+20
1.457959731e+20
8.331198464e+19
1.562099712e+20
7.289798656e+19
7.289798656e+19
8.331198464e+19
1.35381975e+20
8.331198464e+19
1.562099712e+20
8.331198464e+19
1.041399808e+20
1.24967977e+20
6.248398848e+19
1.145539789e+20
9.372598272e+19
9.372598272e+19
8.331198464e+19
1.24967977e+20
1.145539789e+20
1.041399808e+20
7.289798656e+19
8.331198464e+19
5.20699904e+19
9.372598272e+19
9.372598272e+19
7.289798656e+19
6.248398848e+19
9.372598272e+19
7.289798656e+19
8.331198464e+19
1.457959731e+20
1.874519654e+20
8.331198464e+19
1.24967977e+20
1.35381975e+20
9.372598272e+19
1.041399808e+20
4.165599232e+19
1.666239693e+20
1.35381975e+20
1.457959731e+20
1.145539789e+20
1.041399808e+20
6.248398848e+19
1.35381975e+20
1.041399808e+20
1.562099712e+20
1.145539789e+20
8.331198464e+19
9.372598272e+19
8.331198464e+19
7.289798656e+19
1.770379674e+20
7.289798656e+19
1.24967977e+20
1.35381975e+20
8.331198464e+19
1.24967977e+20
2.082799616e+19
4.165599232e+19
1.874519654e+20
1.041399808e+20
1.666239693e+20
8.331198464e+19
8.331198464e+19
7.289798656e+19
5.20699904e+19
1.145539789e+20
1.145539789e+20
1.041399808e+20
5.20699904e+19
9.372598272e+19
8.331198464e+19
9.372598272e+19
1.041399808e+20
1.145539789e+20
9.372598272e+19
1.457959731e+20
4.165599232e+19
6.248398848e+19
6.248398848e+19
1.24967977e+20
9.372598272e+19
8.331198464e+19
1.457959731e+20
1.074443004e+20
4.328159738e+19
5.448725299e+19
8.78048572e+19
8.843914303e+19
1.55894653e+20
9.405835892e+19
1.683646482e+20
1.271477674e+20
8.535615974e+19
9.669987032e+19
7.574279541e+19
9.807705606e+19
8.78048572e+19
7.73842496e+19
6.681199412e+19
8.360743071e+19
1.052279051e+20
7.416953098e+19
8.535615974e+19
1.396775895e+20
1.190243936e+20
4.358980269e+19
1.207316786e+20
1.216038217e+20
6.681199412e+19
1.045092877e+20
1.157506956e+20
1.48339062e+20
8.535615974e+19
1.504220205e+20
7.574279541e+19
9.807705606e+19
7.682925059e+19
1.216038208e+20
6.681199365e+19
7.315650138e+19
1.157506948e+20
8.476517826e+19
1.066952004e+20
9.669987032e+19
8.656319476e+19
1.307694072e+20
1.207316778e+20
1.216038208e+20
1.113533235e+20
1.045092877e+20
1.157506948e+20
8.476517826e+19
4.267808016e+19
7.521101025e+19
7.574279541e+19
3.269235202e+19
1.097560723e+20
8.843914303e+19
1.447593206e+20
6.270557261e+19
1.473190672e+20
1.059564728e+20
1.600427995e+20
9.669987032e+19
9.738359478e+19
1.198719574e+20
7.682925005e+19
1.547685003e+20
1.224886568e+20
6.270557303e+19
1.578418577e+20
8.476517826e+19
4.267808016e+19
1.181887304e+20
3.246119803e+19
1.307694081e+20
1.207316786e+20
5.5274464e+19
1.002179912e+20
6.270557261e+19
1.367962766e+20
9.536082619e+19
5.33476002e+19
1.289331604e+20
7.574279541e+19
1.08974506e+20
6.58536429e+19
6.632935727e+19
8.908265883e+19
7.315650138e+19
1.788874375e+20
8.476517769e+19
8.535615915e+19
2.148885992e+19
7.574279594e+19
9.807705674e+19
8.780485781e+19
7.738425015e+19
8.908265883e+19
1.149602165e+20
1.052279051e+20
6.357388413e+19
7.468664028e+19
1.289331613e+20
8.656319536e+19
1.525643084e+20
9.878046365e+19
8.84391424e+19
1.113533235e+20
1.149602172e+20
1.157506956e+20
6.35738837e+19
7.468664028e+19
1.181887304e+20
1.190243928e+20
1.525643094e+20
1.097560723e+20
7.738425015e+19
1.224886559e+20
6.270557261e+19
1.262734853e+20
1.059564721e+20
1.600427995e+20
9.669987032e+19
1.082039934e+20
1.08974506e+20
9.878046435e+19
8.843914303e+19
7.794732648e+19
1.672148603e+20
7.365953358e+19
1.48339063e+20
9.602568036e+19
7.521101025e+19
5.41019971e+19
1.30769409e+20
7.682925059e+19
1.326587136e+20
1.22488655e+20
1.35862074e+20
5.26139522e+19
1.695303554e+20
5.334759983e+19
6.446658021e+19
1.406651915e+20
7.628215418e+19
1.207316778e+20
8.84391424e+19
7.794732703e+19
1.254111452e+20
1.052279051e+20
5.297823677e+19
1.280342396e+20
6.446657977e+19
9.73835941e+19
1.089745067e+20
1.097560723e+20
1.105489288e+20
1.113533235e+20
7.315650187e+19
1.052279051e+20
1.059564728e+20
1.493732806e+20
1.181887304e+20
1.190243928e+20
1.198719566e+20
9.878046435e+19
9.949403591e+19
7.794732648e+19
1.463130028e+20
1.262734861e+20
1.059564728e+20
7.468663977e+19
1.289331604e+20
9.738359478e+19
9.807705674e+19
1.317072858e+20
1.547684992e+20
1.224886559e+20
1.35862074e+20
8.418232352e+19
9.536082555e+19
1.173647204e+20
7.521101025e+19
1.190243928e+20
4.358980239e+19
2.19512143e+19
9.949403591e+19
8.908265883e+19
)
;

boundaryField
{
    flow
    {
        type            zeroGradient;
    }
    obstacle
    {
        type            calculated;
        value           nonuniform List<scalar> 0();
    }
    frontAndBack
    {
        type            empty;
    }
    procBoundary2to0
    {
        type            processor;
        value           nonuniform List<scalar> 
31
(
7.289798656e+19
7.289798656e+19
1.24967977e+20
1.24967977e+20
1.145539789e+20
5.20699904e+19
1.041399808e+20
1.041399808e+20
1.145539789e+20
1.145539789e+20
5.20699904e+19
6.248398848e+19
9.372598272e+19
1.457959731e+20
1.041399808e+20
1.041399808e+20
6.248398848e+19
5.20699904e+19
1.041399808e+20
1.24967977e+20
8.595544028e+19
3.246119803e+19
8.717960539e+19
8.780485781e+19
7.738425015e+19
1.447593206e+20
9.405835892e+19
5.26139522e+19
1.165521201e+20
1.066952004e+20
1.066952004e+20
)
;
    }
    procBoundary2to3
    {
        type            processor;
        value           nonuniform List<scalar> 
19
(
6.730170614e+19
1.346034123e+20
1.009525599e+20
6.730170614e+19
8.973560819e+19
5.608475552e+19
8.973560883e+19
1.346034123e+20
7.851865773e+19
1.458203633e+20
7.851865717e+19
1.009525599e+20
3.365085307e+19
1.906881674e+20
6.730170711e+19
6.730170614e+19
8.973560819e+19
7.851865773e+19
6.730170614e+19
)
;
    }
}


// ************************************************************************* //
