/*--------------------------------*- C++ -*----------------------------------*\
| =========                 |                                                 |
| \\      /  F ield         | OpenFOAM: The Open Source CFD Toolbox           |
|  \\    /   O peration     | Version:  2406                                  |
|   \\  /    A nd           | Website:  www.openfoam.com                      |
|    \\/     M anipulation  |                                                 |
\*---------------------------------------------------------------------------*/
FoamFile
{
    version     2.0;
    format      ascii;
    arch        "LSB;label=32;scalar=64";
    class       volScalarField;
    location    "0.011";
    object      rhoNMean;
}
// * * * * * * * * * * * * * * * * * * * * * * * * * * * * * * * * * * * * * //

dimensions      [0 -3 0 0 0 0 0];

internalField   nonuniform List<scalar> 
546
(
7.725482466e+19
9.972255216e+19
1.005840738e+20
1.002981622e+20
1.001031365e+20
1.001694073e+20
1.002527193e+20
9.997248811e+19
9.946125548e+19
1.002299979e+20
1.003398182e+20
1.007961407e+20
1.005594589e+20
9.999142265e+19
9.998763574e+19
9.991947139e+19
1.000273983e+20
1.001883419e+20
9.946882929e+19
9.921131952e+19
7.775659003e+19
9.969415034e+19
1.003114164e+20
1.007260829e+20
1.008491574e+20
1.005670327e+20
1.002697604e+20
1.004496386e+20
1.001050299e+20
9.974338015e+19
9.976420815e+19
9.959001036e+19
9.973959324e+19
9.947450966e+19
9.986456122e+19
9.941959949e+19
9.951616565e+19
9.998574229e+19
1.00326564e+20
1.001504728e+20
7.721695558e+19
9.921699989e+19
9.953320674e+19
9.923972134e+19
9.933818095e+19
9.954078055e+19
1.000330786e+20
9.999899647e+19
9.985888086e+19
1.002318913e+20
9.991379103e+19
9.991189758e+19
9.952941983e+19
9.903522828e+19
9.939309113e+19
9.962030563e+19
9.91791308e+19
9.923214752e+19
9.900871992e+19
9.895002284e+19
7.76335155e+19
9.989485649e+19
1.001997026e+20
9.959001036e+19
9.982479868e+19
9.934575477e+19
9.928895115e+19
9.931735296e+19
1.000198245e+20
9.953131328e+19
1.00017931e+20
1.002451455e+20
1.008510509e+20
1.006200494e+20
1.002224241e+20
9.991757794e+19
9.993461903e+19
9.979450342e+19
1.006314102e+20
1.005897542e+20
7.751233443e+19
9.983994632e+19
1.00163727e+20
1.001561532e+20
9.99895292e+19
1.001315383e+20
9.977178197e+19
9.980965105e+19
9.916398317e+19
9.866600472e+19
9.873984943e+19
9.82740597e+19
9.857322546e+19
9.919049153e+19
1.000046768e+20
1.004969749e+20
1.008964938e+20
1.006654923e+20
1.002413586e+20
1.001144972e+20
7.738168609e+19
9.968657653e+19
1.000255048e+20
1.00205383e+20
1.00743124e+20
1.009286825e+20
1.004856142e+20
1.003360313e+20
1.007809931e+20
1.008813461e+20
1.012089137e+20
1.009665516e+20
1.007166156e+20
1.00017931e+20
9.986645468e+19
9.999331611e+19
1.000425459e+20
9.966574853e+19
1.000747346e+20
1.001921288e+20
7.753126898e+19
9.946314893e+19
1.000008899e+20
9.996680775e+19
9.935143513e+19
9.958811691e+19
9.992136485e+19
1.004628927e+20
1.003720069e+20
1.005783935e+20
1.007166156e+20
1.007620585e+20
1.00968445e+20
1.00618156e+20
1.004609993e+20
1.002905884e+20
1.004344909e+20
1.000482263e+20
1.001580466e+20
1.000955626e+20
7.728133302e+19
1.000065703e+20
1.006314102e+20
1.006124756e+20
1.00805608e+20
1.005518851e+20
1.00822649e+20
1.004193433e+20
1.004912946e+20
1.002337848e+20
1.002224241e+20
9.973959324e+19
9.984562668e+19
9.983426595e+19
1.000955626e+20
1.003720069e+20
1.003985153e+20
1.00822649e+20
1.011483232e+20
1.010669046e+20
7.753126898e+19
9.958622345e+19
9.967900271e+19
9.994597975e+19
9.991000412e+19
9.948587038e+19
9.934764823e+19
9.994029939e+19
9.964302708e+19
1.003625397e+20
1.006995745e+20
1.008415836e+20
1.008624116e+20
1.009816992e+20
1.004477451e+20
9.967900271e+19
9.990432376e+19
9.983615941e+19
9.938551731e+19
9.929652496e+19
7.724535739e+19
9.909581882e+19
9.966953544e+19
9.953131328e+19
9.95180591e+19
9.972823252e+19
9.977367542e+19
9.99895292e+19
9.972633907e+19
9.924350824e+19
9.886292395e+19
9.918481116e+19
9.94271733e+19
9.977746233e+19
9.999710302e+19
1.000539066e+20
9.998763574e+19
9.934764823e+19
9.921699989e+19
9.887807159e+19
7.776416384e+19
9.979071651e+19
1.001031365e+20
9.982669214e+19
9.980965105e+19
9.952184601e+19
9.974906052e+19
9.913558136e+19
9.962598599e+19
9.99895292e+19
9.99232583e+19
9.983615941e+19
9.971308489e+19
9.940634531e+19
9.914504863e+19
9.928137733e+19
9.941581258e+19
9.990053685e+19
1.005443113e+20
1.007809931e+20
7.719991449e+19
9.990811067e+19
1.002148502e+20
1.002148502e+20
9.997816847e+19
9.963545326e+19
1.000425459e+20
9.962030563e+19
9.918291771e+19
9.923782788e+19
9.887049777e+19
9.926812315e+19
9.926054933e+19
9.968089616e+19
1.001410055e+20
9.986266777e+19
1.001997026e+20
9.943664057e+19
9.987402849e+19
9.993840593e+19
7.772250785e+19
9.986834813e+19
1.005802869e+20
1.001940223e+20
1.004572124e+20
1.001921288e+20
1.00080415e+20
1.001239644e+20
1.004950815e+20
1.005026553e+20
1.004553189e+20
1.008908134e+20
1.009211087e+20
1.006257298e+20
1.004988684e+20
1.009230021e+20
1.000330786e+20
1.007734192e+20
1.00597328e+20
1.004231302e+20
7.721506213e+19
9.891026031e+19
9.969415034e+19
9.965817471e+19
9.976799506e+19
1.000520132e+20
1.002621866e+20
1.008302229e+20
1.006351971e+20
1.004647862e+20
9.989296303e+19
9.927569697e+19
9.87947596e+19
9.934386132e+19
9.94025584e+19
9.958811691e+19
9.983994632e+19
9.951048529e+19
9.946693584e+19
9.957675618e+19
7.765055659e+19
1.000993495e+20
1.002640801e+20
9.96506009e+19
1.00184555e+20
1.000576935e+20
9.954646092e+19
9.989106958e+19
9.969793725e+19
9.948587038e+19
9.927759042e+19
9.973391288e+19
1.000785215e+20
9.947450966e+19
9.950101802e+19
9.923782788e+19
9.909581882e+19
9.921321298e+19
9.965438781e+19
9.987213504e+19
7.714500432e+19
9.916966353e+19
9.97414867e+19
1.001069234e+20
1.004458517e+20
9.983994632e+19
9.941581258e+19
9.909203191e+19
9.907309737e+19
9.970929798e+19
9.987592195e+19
9.980018378e+19
9.968846998e+19
9.986266777e+19
1.004231302e+20
1.003568593e+20
1.002583997e+20
9.989485649e+19
9.946882929e+19
9.957864964e+19
7.784747583e+19
1.004420648e+20
1.006654923e+20
1.000122506e+20
9.935522204e+19
1.002299979e+20
1.00555672e+20
1.008150752e+20
1.006067953e+20
1.009608712e+20
1.006768531e+20
1.002546128e+20
1.005121226e+20
9.991568448e+19
1.000501197e+20
9.985130704e+19
9.98986434e+19
9.972823252e+19
1.002129568e+20
9.995923393e+19
7.591615255e+19
9.749585002e+19
9.827974006e+19
9.884398941e+19
9.879665305e+19
9.887428468e+19
9.912043372e+19
9.904469555e+19
9.876825124e+19
9.875499706e+19
9.938741076e+19
9.934007441e+19
9.951237874e+19
9.942527985e+19
9.908256464e+19
9.912422063e+19
9.906173664e+19
9.943285366e+19
9.958243655e+19
9.952941983e+19
1.00622564e+20
1.007300485e+20
1.006627232e+20
1.005345659e+20
1.006658546e+20
1.01256614e+20
9.938643242e+19
9.962978056e+19
9.966843779e+19
9.908880189e+19
9.958523817e+19
1.000591838e+20
1.006171527e+20
1.006922156e+20
1.001854685e+20
1.001329577e+20
1.003726207e+20
1.005825714e+20
1.010131218e+20
1.011703282e+20
1.0075345e+20
1.004172413e+20
1.000782243e+20
1.005146103e+20
1.005553056e+20
1.010703503e+20
9.934842905e+19
9.919356306e+19
9.918296449e+19
9.912954006e+19
9.950709686e+19
9.942569856e+19
9.969186011e+19
9.988800359e+19
1.00342247e+20
1.006249362e+20
1.007868569e+20
1.009097339e+20
1.003157355e+20
1.00968578e+20
1.007456366e+20
1.005824976e+20
1.001554964e+20
1.001494212e+20
9.944579567e+19
9.997098927e+19
1.002282072e+20
9.982301659e+19
9.997282184e+19
9.966883647e+19
9.974347432e+19
9.967358407e+19
1.004645884e+20
1.011691563e+20
1.006799244e+20
1.004508209e+20
1.000419907e+20
1.000545187e+20
1.001423522e+20
1.005708952e+20
1.013473247e+20
1.014815751e+20
1.008608594e+20
1.006922156e+20
1.011763896e+20
1.012667378e+20
1.001293991e+20
1.003989009e+20
1.003080296e+20
1.00458381e+20
9.972393899e+19
9.967948611e+19
9.988801423e+19
1.000935461e+20
9.924881758e+19
9.898095699e+19
1.013246047e+20
1.013096006e+20
1.002772066e+20
9.937978948e+19
9.915936803e+19
9.905387029e+19
9.910537844e+19
9.874653974e+19
9.905586015e+19
9.925630339e+19
9.85579588e+19
9.847992588e+19
9.862235776e+19
9.82468791e+19
9.888001217e+19
9.91069893e+19
9.937682541e+19
9.875651826e+19
9.904581025e+19
9.89850062e+19
9.900069814e+19
9.973500847e+19
1.001134557e+20
1.008172648e+20
1.005737264e+20
1.005706942e+20
1.005695995e+20
1.007141661e+20
1.008769018e+20
1.000661457e+20
1.008552636e+20
1.004027274e+20
1.000672194e+20
1.000665186e+20
1.003764189e+20
1.001024654e+20
1.000009514e+20
9.991993263e+19
1.001693894e+20
1.004427224e+20
1.000818942e+20
1.001540062e+20
1.002367491e+20
9.982014899e+19
9.971026426e+19
9.973260443e+19
9.992962198e+19
1.005265837e+20
1.006779144e+20
1.009974644e+20
9.980636974e+19
1.000908701e+20
1.003966484e+20
1.005553766e+20
1.001673909e+20
1.006749635e+20
1.002189012e+20
1.002452097e+20
9.985583169e+19
9.986570905e+19
1.000058875e+20
1.003338502e+20
9.994970338e+19
1.004079425e+20
1.006889842e+20
1.001280408e+20
1.000306711e+20
1.00021705e+20
9.985985166e+19
9.90862372e+19
9.94548385e+19
9.961638792e+19
9.945074607e+19
9.95485612e+19
9.956960922e+19
9.967948611e+19
9.949966871e+19
9.965851362e+19
1.001352197e+20
1.006573307e+20
9.941873596e+19
9.966230555e+19
9.964532001e+19
9.978717115e+19
1.001165991e+20
9.959292291e+19
9.991773385e+19
9.962658388e+19
9.979553299e+19
1.002301388e+20
9.970566079e+19
9.946332915e+19
9.94295541e+19
9.916057866e+19
9.929025472e+19
9.965194396e+19
9.99633064e+19
1.005724817e+20
1.007643429e+20
1.001876221e+20
9.947003985e+19
9.92433065e+19
9.920222931e+19
9.996370321e+19
9.901871367e+19
9.892599284e+19
9.917076314e+19
9.838534249e+19
9.778957242e+19
9.854769133e+19
)
;

boundaryField
{
    flow
    {
        type            calculated;
        value           nonuniform List<scalar> 
48
(
7.725482466e+19
7.775659003e+19
7.721695558e+19
7.76335155e+19
7.751233443e+19
7.738168609e+19
7.753126898e+19
7.728133302e+19
7.753126898e+19
7.724535739e+19
7.776416384e+19
7.719991449e+19
7.772250785e+19
7.721506213e+19
7.765055659e+19
7.714500432e+19
7.784747583e+19
7.591615255e+19
7.591615255e+19
9.749585002e+19
9.827974006e+19
9.884398941e+19
9.879665305e+19
9.887428468e+19
9.912043372e+19
9.904469555e+19
9.876825124e+19
9.875499706e+19
9.938741076e+19
9.934007441e+19
9.951237874e+19
9.942527985e+19
9.908256464e+19
9.912422063e+19
9.906173664e+19
9.943285366e+19
9.958243655e+19
9.952941983e+19
9.947003985e+19
9.92433065e+19
9.920222931e+19
9.996370321e+19
9.901871367e+19
9.892599284e+19
9.917076314e+19
9.838534249e+19
9.778957242e+19
9.854769133e+19
)
;
    }
    obstacle
    {
        type            calculated;
        value           nonuniform List<scalar> 0();
    }
    frontAndBack
    {
        type            empty;
    }
    procBoundary2to0
    {
        type            processor;
        value           nonuniform List<scalar> 
31
(
7.741955518e+19
9.962219908e+19
9.993651248e+19
9.922646716e+19
9.959758418e+19
9.929652496e+19
9.999142265e+19
1.005102291e+20
1.011256017e+20
1.007204025e+20
1.004628927e+20
1.002527193e+20
1.004704666e+20
1.004799338e+20
1.000236114e+20
1.002205306e+20
9.983994632e+19
9.980397069e+19
1.002621866e+20
1.001580466e+20
1.000345507e+20
1.001949306e+20
1.001554971e+20
1.005066287e+20
1.016628049e+20
1.018639958e+20
1.00203505e+20
9.962977989e+19
9.998823369e+19
1.003264669e+20
1.003264669e+20
)
;
    }
    procBoundary2to3
    {
        type            processor;
        value           nonuniform List<scalar> 
19
(
1.015582746e+20
1.006894707e+20
1.009525599e+20
1.008587447e+20
1.001163865e+20
1.002428328e+20
1.015032103e+20
9.882337796e+19
9.966974862e+19
9.873976069e+19
1.001245443e+20
1.003080951e+20
1.010769654e+20
9.987573191e+19
9.95922504e+19
1.002183588e+20
1.007445358e+20
1.000225727e+20
9.821766261e+19
)
;
    }
}


// ************************************************************************* //
