/*--------------------------------*- C++ -*----------------------------------*\
| =========                 |                                                 |
| \\      /  F ield         | OpenFOAM: The Open Source CFD Toolbox           |
|  \\    /   O peration     | Version:  2406                                  |
|   \\  /    A nd           | Website:  www.openfoam.com                      |
|    \\/     M anipulation  |                                                 |
\*---------------------------------------------------------------------------*/
FoamFile
{
    version     2.0;
    format      ascii;
    arch        "LSB;label=32;scalar=64";
    class       volScalarField;
    location    "0.011";
    object      translationalT;
}
// * * * * * * * * * * * * * * * * * * * * * * * * * * * * * * * * * * * * * //

dimensions      [1 2 -2 0 0 0 0];

internalField   nonuniform List<scalar> 
546
(
288.0367179
304.1886073
298.0153308
299.5338304
299.3286517
298.8962177
299.7891215
301.2949135
299.4998588
300.4661967
302.2084455
302.4935226
301.3452371
300.2804291
298.6980967
299.5366169
299.084441
299.0251169
299.7595695
300.7686906
288.5656669
303.9404379
297.5072782
299.3572641
299.8663687
300.6146633
300.5931309
300.1622991
300.5428189
300.6635726
298.9764953
300.1508658
300.833373
301.970512
302.7074135
301.1578718
301.0273396
301.6589466
301.1968935
300.0921677
290.6453995
306.7311317
298.7742813
299.9249208
300.469935
301.3983411
300.5291571
301.1218093
300.6209915
300.7456451
300.1245864
301.4660405
300.6859635
299.1246514
300.3050597
300.3894408
300.6090579
298.5882892
298.3221328
298.2586707
292.783818
308.292198
301.9460568
300.1602118
298.4428895
298.1339246
297.6944503
297.2077764
298.3620576
297.7588865
298.0344859
297.9934161
298.6390994
298.822366
298.8131509
299.6308543
299.8776188
301.6049921
303.4377709
301.1742793
288.8109574
304.9053065
298.1667408
299.7979112
299.4088176
299.3842845
300.048671
299.9448539
300.4098149
299.2244275
299.5391808
297.6646164
298.1534649
299.4929149
298.9664272
300.561293
300.808371
300.8039496
300.1614738
300.5239798
290.9853799
306.7060795
297.8788609
297.5194496
298.8313511
298.3009469
297.5440744
297.7803781
297.8429808
299.9256762
300.56917
299.4894666
301.2411571
301.1201847
302.2471596
302.9499576
303.7465531
302.3216084
302.9290255
303.9723067
289.2250663
304.906607
299.8117037
300.4780937
300.8098421
300.4475732
301.1337234
302.3809312
301.4873206
300.0648845
299.5222235
299.2750703
299.5878583
297.9855106
297.8944617
298.2289988
297.6490004
299.8709867
300.189545
299.4381463
290.140316
306.4589124
299.4545766
299.8539354
300.2465549
299.2374904
300.6343604
299.7724014
299.6903928
301.3293245
301.1663137
300.0223599
299.807035
299.6907758
299.2352078
299.8245265
299.4344788
298.3632043
299.3053719
300.4283305
290.7906775
304.6849841
297.9977123
298.4687285
298.1206861
298.9480158
298.0341567
299.0150551
300.3407052
300.2065469
300.1713211
301.8998251
301.8245709
301.9674832
301.2761254
300.8262969
301.0623677
301.3162118
300.4701683
301.7626315
289.2098903
307.2529282
300.2112589
298.6451153
298.4556958
298.1325776
298.036634
299.7382959
300.8241463
300.4148106
299.9410403
301.1738502
299.495474
302.1709508
303.3942741
301.878952
302.2325437
302.7538727
300.9057502
299.0394405
292.7491705
307.5946953
299.1906841
299.9282833
300.0851354
301.2217515
300.1516071
298.816486
298.882425
299.5488779
298.7544446
298.7889681
300.13997
299.3031907
297.9774479
298.7483887
299.9709319
298.4386684
299.3994801
299.4480044
288.3080602
305.0473937
297.696582
300.4979333
299.3391302
298.9494187
298.952504
298.7300668
298.4711337
299.046136
299.2562976
298.6605651
299.2357976
300.7360681
300.2893916
299.4591759
299.6873455
300.2583508
300.6319494
301.055381
290.148625
305.650836
297.8927058
298.7208704
299.4252907
299.2050768
299.7305128
298.8638501
298.6931498
297.6659584
299.3855974
300.9635449
301.5080285
299.4084445
299.1681425
300.8025684
299.1756343
299.81544
299.8160103
301.3835839
288.0368279
304.7706827
298.9328998
299.5171429
299.4547351
298.8182823
300.1169177
302.2148627
303.3264705
303.2551051
300.0339666
298.7692694
297.7544542
299.7697339
301.5908848
299.9992393
300.6011432
298.4155977
298.3956449
297.7215642
292.4118347
307.9459453
299.1893933
298.6828818
300.2064394
301.6012506
301.7255122
302.8900225
302.3410254
302.9680378
301.2491851
301.6034921
301.0874265
299.6636372
298.221389
298.4271273
299.1011827
299.9131179
299.7724695
297.8189143
290.8613572
305.3226491
298.6866089
302.6660902
302.2960925
301.1170469
300.8042007
296.9577088
295.8944978
298.1147784
299.5203353
299.8891411
299.7416734
300.3396269
299.5543969
297.3097344
297.2971292
296.1952952
296.9697748
298.4470995
289.9048594
305.3071112
299.1390814
297.5685243
295.776502
295.7651034
297.5254748
298.2126876
299.055224
299.5248986
299.0807545
300.0720285
300.3802403
299.9779512
300.3161497
300.248026
299.5969204
299.531705
299.8261196
298.0251461
290.4616562
303.9617817
297.761214
296.0263988
294.4617317
295.8368721
296.4487716
297.018665
297.0051361
297.7799448
297.8694537
295.2967244
297.2204345
296.0197049
296.5107637
296.3535105
297.0359401
298.9378525
297.7339746
296.9279049
308.2180843
308.6141368
308.3150301
308.8708749
313.819735
319.5304945
302.1120072
303.6271984
302.4278925
303.7363501
304.6792637
305.3985993
305.8503976
310.8018367
309.4917972
313.109855
299.7035887
299.3696954
299.7991682
302.3032631
303.4630509
305.6715228
305.3688993
306.7593866
308.2321567
310.1944804
300.011729
302.364449
303.6009744
303.674623
300.9846983
301.9921821
304.7245089
305.6919587
306.8748731
308.4744204
300.0467216
300.9730749
300.9660839
301.7990877
301.4246652
303.1441482
303.9307157
303.0018286
305.890963
306.6308864
300.7583926
300.6100806
301.2222791
302.6046733
302.2836575
302.4898245
305.4842736
305.8767122
306.8711127
307.0234012
302.8080794
301.9377265
301.1247237
302.0652464
304.9764553
301.8503102
301.1559227
300.2936773
301.7244297
300.5163507
301.0953178
300.7958219
302.1592404
298.8662332
299.950273
299.38722
300.3906463
303.0184707
303.3814096
303.3013406
299.5276536
301.209733
299.5006
299.1244266
300.4310129
300.0154817
299.848225
300.2249986
300.6408283
301.4031385
300.7740855
300.9992812
302.2087061
300.0431662
301.5746309
301.3592943
300.0205257
301.2835126
302.4429682
301.043933
299.409002
300.1769656
301.1245036
301.6807649
299.3374976
300.8243208
301.6041266
301.3726154
301.506315
301.5619097
299.4201593
299.2535614
299.6604235
300.7875206
300.6594376
300.4723174
300.1586698
301.1530619
300.4788964
301.6697756
301.2327166
300.0656403
299.0175263
299.941944
300.4786687
299.7396077
299.6034217
299.1010726
299.1024906
300.3844085
301.2487264
301.3240419
304.0682882
301.6887062
299.3618323
299.8294162
299.897876
299.9796463
298.4589221
296.8668781
298.098333
297.8251984
296.6330006
299.1857178
300.5692972
298.1747187
297.2952103
299.473137
297.5616109
298.3124739
297.8982949
298.2724946
298.9082748
297.1647135
297.8552072
299.6860594
299.5848875
297.6992788
298.9745444
300.2403072
298.0313215
297.2740837
296.4812852
298.1127074
298.7288621
296.994254
298.8027018
299.2170422
299.2985989
299.6866171
297.4765321
299.5108556
298.7424035
298.8090686
298.6674058
299.0384127
299.5174674
299.9723376
301.3515715
300.1253934
297.829734
296.2649793
295.9015369
296.3395066
297.2948541
296.5708593
296.3493463
296.5880556
296.257946
298.063102
)
;

boundaryField
{
    flow
    {
        type            calculated;
        value           nonuniform List<scalar> 
48
(
288.0367179
288.5656669
290.6453995
292.783818
288.8109574
290.9853799
289.2250663
290.140316
290.7906775
289.2098903
292.7491705
288.3080602
290.148625
288.0368279
292.4118347
290.8613572
289.9048594
290.4616562
290.4616562
303.9617817
297.761214
296.0263988
294.4617317
295.8368721
296.4487716
297.018665
297.0051361
297.7799448
297.8694537
295.2967244
297.2204345
296.0197049
296.5107637
296.3535105
297.0359401
298.9378525
297.7339746
296.9279049
297.829734
296.2649793
295.9015369
296.3395066
297.2948541
296.5708593
296.3493463
296.5880556
296.257946
298.063102
)
;
    }
    obstacle
    {
        type            calculated;
        value           nonuniform List<scalar> 0();
    }
    frontAndBack
    {
        type            empty;
    }
    procBoundary2to0
    {
        type            processor;
        value           nonuniform List<scalar> 
31
(
289.982422
306.7333753
298.7672763
299.6401453
298.5465377
298.6531826
298.3665281
300.148215
300.4232925
299.8251143
299.5790619
299.4318306
301.7058194
302.2586057
302.3212774
300.0771653
298.4445168
300.9592529
301.0134433
302.1746557
307.4682333
312.3426688
315.7337738
320.4038338
327.0803482
331.2646621
298.6543771
300.9289509
303.8003333
305.9842791
305.9842791
)
;
    }
    procBoundary2to3
    {
        type            processor;
        value           nonuniform List<scalar> 
19
(
326.3676776
319.7026797
314.9702462
312.2377852
309.8715715
309.3169838
303.6211073
302.9475637
302.1867694
300.2487467
302.6857787
303.8424733
300.7199887
297.3866622
299.4075621
301.5289048
301.2326789
299.1047178
298.4988679
)
;
    }
}


// ************************************************************************* //
