/*--------------------------------*- C++ -*----------------------------------*\
| =========                 |                                                 |
| \\      /  F ield         | OpenFOAM: The Open Source CFD Toolbox           |
|  \\    /   O peration     | Version:  2406                                  |
|   \\  /    A nd           | Website:  www.openfoam.com                      |
|    \\/     M anipulation  |                                                 |
\*---------------------------------------------------------------------------*/
FoamFile
{
    version     2.0;
    format      ascii;
    arch        "LSB;label=32;scalar=64";
    class       volVectorField;
    location    "0.011";
    object      UMean;
}
// * * * * * * * * * * * * * * * * * * * * * * * * * * * * * * * * * * * * * //

dimensions      [0 1 -1 0 0 0 0];

internalField   nonuniform List<vector> 
546
(
(1709.989094 1.435722588 -0.1893280858)
(1743.603264 2.112875281 -0.9025518891)
(1735.653323 2.487109402 0.6518014329)
(1733.814706 2.183383748 0.1874054605)
(1734.451767 -0.2079125489 -0.6029235433)
(1735.000263 -1.714674884 0.5004924905)
(1735.510018 -0.1933917799 1.072870148)
(1735.377463 -0.8653523316 0.5360630903)
(1737.822737 -3.030652676 0.08339949386)
(1737.261516 -3.551778494 -1.393491114)
(1737.348189 -2.687648621 -4.396225937)
(1738.352797 -0.732655438 -2.121044539)
(1738.386109 1.122982573 -2.110430087)
(1737.006127 1.248856304 -0.2797768784)
(1738.367972 1.511526738 1.12190884)
(1738.059394 1.863308106 -1.334039068)
(1737.270119 -0.1755945219 -2.904508979)
(1737.782251 -1.679292521 -1.779799437)
(1737.783873 0.5187474894 -1.862725044)
(1737.022298 2.313588419 -2.60379173)
(1709.850456 0.2616978379 1.770100655)
(1747.596534 -0.349274316 1.88874084)
(1739.158063 0.8092850247 2.572790531)
(1738.744623 0.04978423315 0.1053156526)
(1737.00431 1.609761767 -0.07694809234)
(1735.966762 1.76172066 -1.641545791)
(1736.759583 -2.358039416 -2.551200777)
(1736.895526 -4.308657525 -3.273973755)
(1735.80762 -3.072026369 -3.300125303)
(1735.677805 -0.6988445274 -1.072689962)
(1736.873823 1.082363361 -0.718658757)
(1736.830096 -0.01301838476 -1.179269754)
(1737.09356 -0.2786561341 -3.165906162)
(1738.875407 -0.316811408 -2.953000238)
(1737.547747 1.648527751 -2.743138626)
(1737.961914 1.675155886 -0.4516198461)
(1738.020598 2.359845891 0.1159496384)
(1736.768135 3.316055903 -0.5765336054)
(1736.828567 1.576315536 0.9001377748)
(1737.332956 1.377882665 1.35405005)
(1708.259841 -0.2985180874 -3.540162665)
(1744.810197 -1.017220681 -3.973528435)
(1738.445896 -3.105260457 -1.821235212)
(1737.404809 -4.800629097 -1.220980259)
(1738.158097 -3.540617257 -0.08579649752)
(1739.130458 -2.855188403 0.7760637885)
(1737.418707 1.243983711 0.6689724671)
(1738.540865 4.592491779 1.474113162)
(1738.681421 4.333593773 0.07645701127)
(1736.513643 2.127947804 -1.12116999)
(1736.853378 2.015402628 -1.608856138)
(1735.973301 2.389230853 -1.077473183)
(1733.926535 1.112420368 0.2264198614)
(1735.498144 1.600935844 0.7867104055)
(1735.787241 0.1491228056 0.6096452929)
(1735.233141 0.2448615789 -1.084236186)
(1735.795491 -0.2409214592 -0.8684484819)
(1735.294019 -0.4528331433 -0.20868374)
(1737.638973 0.7917360089 -0.296315949)
(1736.744818 -1.884616089 -2.420102731)
(1708.151883 1.161282132 0.5101926895)
(1745.356753 -0.005466677626 1.081172566)
(1737.247603 0.2937843538 0.2057081157)
(1736.779311 1.06928719 0.8030542064)
(1737.289202 -0.0389070127 0.5946568622)
(1738.330911 0.1979858536 1.648235375)
(1738.642179 -2.124253167 1.077588391)
(1738.176573 -2.91537954 0.8148514194)
(1738.43843 -0.9373260823 1.079156438)
(1737.23018 0.5646432555 1.849280935)
(1736.938304 -0.4222197437 1.52938935)
(1738.499289 0.08741122745 2.462858487)
(1738.796184 2.142582136 0.3852028082)
(1738.219601 2.620138587 0.5228886094)
(1738.925756 3.3318191 0.9924654441)
(1737.926365 2.379317868 0.9048552552)
(1739.694232 2.575680674 1.380681725)
(1738.389611 0.7158056905 0.9122382777)
(1736.068962 -1.383246641 0.7222713087)
(1737.82204 -2.218451282 1.469225247)
(1711.509236 -1.542195282 -1.318605738)
(1746.660308 1.194121213 -1.291313706)
(1737.659237 2.264875436 -0.8131992899)
(1735.562422 0.9413005846 -2.219878383)
(1736.537596 2.066626736 -1.367230491)
(1734.689482 2.499108585 -1.655975785)
(1734.712579 2.284936933 -0.7297611976)
(1735.729898 1.332971975 2.398109263)
(1735.628216 -1.711807064 2.053369328)
(1738.423322 -0.3456189112 2.000441182)
(1739.728444 2.098925306 1.644963874)
(1739.193758 0.9004708923 1.847631923)
(1739.833915 0.5643950672 2.041357591)
(1738.646845 -0.3604660138 0.5777842296)
(1737.216153 -1.644105404 -0.3930075707)
(1736.611152 -1.629095079 0.5074112401)
(1736.020745 -3.144180822 0.8198905602)
(1737.1554 -2.276833019 0.8514167291)
(1736.278092 -1.598993089 1.060032661)
(1735.939327 0.8171962162 1.598595892)
(1708.512914 1.17261401 -0.5115136406)
(1744.964375 1.626452961 -0.767599452)
(1735.847516 1.189722142 -0.21184896)
(1736.159224 4.051455147 1.308034194)
(1735.191608 2.916250285 2.075991557)
(1736.448895 3.264738127 2.136219395)
(1735.680153 2.440805818 1.65073927)
(1735.25101 1.0832398 -0.8472785686)
(1734.686015 2.872039531 0.0716598395)
(1734.559098 -0.253555843 0.1140756323)
(1733.485377 -3.103227759 0.2866158128)
(1734.177261 -4.068997811 -1.076718189)
(1734.391303 -4.014418553 -1.302053055)
(1736.384412 -3.467967689 0.8615840768)
(1737.126238 -2.144553062 0.758602075)
(1736.368823 -2.524685177 -0.2983349957)
(1734.919538 -1.21113262 -0.5917484765)
(1733.936786 -0.4164881532 -0.9159835284)
(1733.205894 0.5371012017 0.2116111716)
(1735.134127 -0.3170039532 -0.7872628265)
(1707.868917 1.47203276 1.279088922)
(1744.403989 1.982457297 0.8777729377)
(1736.404727 0.3613322177 0.5610835612)
(1736.824821 -0.4416972835 -0.632176168)
(1736.51599 -2.523515505 -2.056404243)
(1736.335752 -2.404389628 -1.456120558)
(1735.63342 -1.197048579 -0.7347712576)
(1736.663315 0.02755108742 -0.7934845099)
(1737.243178 0.5843375453 -0.8682233308)
(1735.311239 -0.2328647966 -0.6543497)
(1736.966082 1.273854456 0.5531845338)
(1734.63167 2.769244878 0.2068978533)
(1734.996087 1.056560002 -1.272274916)
(1735.603561 0.4458423245 -0.8851315137)
(1733.864181 -0.1463146705 -0.3049171715)
(1734.248005 0.3954942047 -0.3764554707)
(1732.881262 -0.2593930705 0.8736136179)
(1734.923934 -0.2556201859 -0.1840695732)
(1734.725363 -0.5930738002 -0.290796358)
(1734.511959 -0.7542392083 -0.9778635404)
(1711.483865 -1.421165116 2.330592601)
(1747.783889 -1.859531754 0.06195279566)
(1739.222218 -2.250771526 0.469336197)
(1738.216424 -0.8888498216 -0.2343745056)
(1738.030597 -1.70806227 1.748100708)
(1737.64581 -0.917892367 -0.4272490319)
(1736.474134 0.5256243938 -2.205649416)
(1735.159586 0.6407167269 -1.993818196)
(1735.716128 -0.8700920643 -2.951232137)
(1735.455615 1.616130892 -2.154722559)
(1735.930139 2.590157497 -2.214273292)
(1734.97404 0.7788423512 -3.708263861)
(1734.071568 -0.3721279296 -1.325392497)
(1735.533718 -0.6264354461 -2.441125748)
(1735.102091 0.3024379402 -1.329846756)
(1734.557011 -0.4824884466 -1.43567245)
(1736.512117 -1.330694355 -1.734263699)
(1735.504881 -0.9850965418 -2.3902271)
(1733.747018 -1.992360257 -2.371041044)
(1734.210027 -2.23083127 -2.670920528)
(1707.983495 -1.866592018 -1.401753074)
(1744.552135 -3.458477398 -1.352245988)
(1734.932136 -5.362933906 -0.6225722067)
(1733.25785 -3.828898246 -1.896063863)
(1733.319394 0.3240473654 -1.093749134)
(1733.704589 2.193888898 0.3651027787)
(1734.669092 1.558550474 0.9259869872)
(1736.26024 -0.7031701036 0.9136074922)
(1736.376431 0.4354353855 1.802417683)
(1735.977215 -0.9273969446 -0.4867561418)
(1734.862337 -1.73852937 1.072961816)
(1735.04112 -2.337761736 2.244609428)
(1735.414648 -0.225914635 2.493635283)
(1734.854377 1.011552769 1.224400846)
(1735.579957 0.06302002332 0.558836628)
(1735.153373 0.8578821696 -0.8936306741)
(1734.908486 -1.497866225 0.06935263396)
(1734.487383 -0.5867364573 -0.1298390648)
(1736.200661 0.1635417589 0.3166694334)
(1737.384305 0.3004367429 1.211995285)
(1708.286347 0.2243254334 -1.065602019)
(1744.386534 1.775186281 0.3252061194)
(1736.795798 2.064451654 -0.0157114338)
(1738.774502 -0.9212509169 0.2998600274)
(1739.782849 -1.938641806 0.9566894666)
(1738.417206 -2.54299083 1.112890669)
(1738.863744 -1.657080345 1.892208003)
(1737.547449 -1.336833203 0.3613362462)
(1737.122599 -1.426090462 -0.1924431342)
(1737.944111 -2.478740923 -0.3640800675)
(1736.937241 -0.8845232416 -1.631347815)
(1737.515607 2.140130859 -2.646024349)
(1737.274952 1.119994988 -3.928605271)
(1737.040975 1.240575785 -3.714686767)
(1736.822988 0.3882805742 -1.697696078)
(1736.518604 1.508292305 -1.521728889)
(1735.612504 3.176496701 -2.208789838)
(1735.122186 4.356736144 -0.8118266974)
(1736.362029 3.660675297 -1.02462429)
(1737.003392 2.151194799 -2.638053805)
(1708.571037 1.430280902 0.02601992877)
(1746.275753 -0.1546252909 -0.7709257346)
(1738.904868 1.41135374 0.6248532668)
(1736.904559 0.7627616843 1.646345387)
(1736.394174 0.1694659622 -1.232610021)
(1733.813791 -1.606292702 -1.641969757)
(1734.832781 -0.9390045277 -1.456016063)
(1735.727949 -0.5797405441 -1.752918166)
(1736.174909 0.4522373245 -1.374925327)
(1734.59447 1.062096049 -0.9981035641)
(1735.211086 -0.4489197847 -0.4356807792)
(1733.805546 -1.045595064 0.9853986755)
(1733.480926 -0.4602890667 0.7462785211)
(1734.925787 -0.3554769981 0.6841888354)
(1736.165018 0.1958592145 -0.5667918726)
(1736.791292 1.234211707 1.391395158)
(1736.610122 2.495978954 0.43714677)
(1737.423749 0.9398969712 -0.401949317)
(1737.470833 2.261126859 0.1926502435)
(1737.034175 2.655624628 0.9509066773)
(1709.629914 0.7276486672 0.4624818715)
(1745.460387 2.118407889 0.09373952695)
(1736.525667 0.6487468537 -2.942824407)
(1736.220638 1.656200223 -3.259353606)
(1736.961168 0.6382704415 -2.760604833)
(1738.491268 1.028858969 -2.878409473)
(1737.794971 -0.2273364624 -3.249353291)
(1738.526405 -1.893380157 -3.580727469)
(1739.29315 -1.433452734 -1.987043277)
(1737.802564 -0.1460388818 -2.693156001)
(1738.227451 -0.3507067491 -3.917604312)
(1739.792551 0.9134853795 -3.838282332)
(1739.572026 1.763723725 -1.622181885)
(1737.534587 -0.01425987552 0.1813501668)
(1736.307358 0.428782784 -0.7736732043)
(1737.14425 -1.150374328 -1.330026636)
(1735.779876 -1.130735448 -1.503998533)
(1735.035488 -0.855991233 0.3339380976)
(1735.576124 -1.394396943 -0.9167736007)
(1734.241462 -0.1923605454 -0.7951808042)
(1710.921965 0.5710327934 -4.856868346)
(1747.229631 -0.6956921266 -5.029496719)
(1736.607556 0.723017721 -4.193596378)
(1737.47086 2.029144969 -4.335866458)
(1737.486825 2.223871402 -3.959414855)
(1737.562256 0.8362213977 -3.423354641)
(1737.69082 1.717983497 -2.316410166)
(1736.225598 2.433170213 -1.776160241)
(1735.335304 1.164254011 -1.542479387)
(1737.25845 -1.695436594 -0.7237118216)
(1735.125162 -0.1378049332 0.1093328975)
(1735.40838 -2.342021296 0.9473032938)
(1736.656457 -2.217766606 -1.119570756)
(1736.926597 0.03203108695 -2.269604872)
(1737.444875 -0.3857096233 -1.535299049)
(1736.555558 0.2727817681 -0.5859609642)
(1737.124589 0.1497943699 -1.466081934)
(1737.616618 0.517633941 -1.125525987)
(1737.101288 1.729587902 -1.387793788)
(1736.91957 2.261987518 -0.7144358585)
(1709.012406 1.02636417 -4.443174772)
(1747.924058 0.3271226567 -3.699042899)
(1739.360641 -0.1855676508 -3.240419976)
(1737.511593 -0.4934179527 -3.678458456)
(1737.112982 -1.625233277 -2.286370092)
(1734.973037 1.501120132 -2.080887535)
(1736.35685 1.43876063 -1.474796036)
(1733.915954 1.539179511 -1.199355037)
(1736.353034 0.001291108611 -2.193197507)
(1736.103725 0.3761935822 -1.514588662)
(1736.550939 -0.6793925473 -3.346035678)
(1736.801441 -0.09538505252 -3.388093402)
(1736.210934 -0.1878010435 -4.637650542)
(1734.562025 0.4984221894 -2.654993946)
(1734.842998 1.545234199 -2.655486728)
(1735.243831 1.927897163 -3.937834661)
(1736.024521 -0.02503427682 -4.041875118)
(1737.616167 -0.1953895836 -4.194901722)
(1738.928139 -0.8547686863 -2.772843146)
(1738.119539 -0.8450090851 -3.184404342)
(1706.330498 -0.5989097416 -1.740616788)
(1741.986405 -0.06162836633 -1.796828805)
(1732.774835 -0.8879454383 -0.8587042611)
(1734.213179 -0.008753388119 0.9683442648)
(1732.669375 0.3493926052 1.001357733)
(1732.503633 0.407530726 0.1208896096)
(1733.115322 -2.571177852 0.2519544159)
(1733.016341 -1.966979148 0.5701200441)
(1732.687773 0.5889054757 0.1222496283)
(1732.347333 4.204163207 0.6633114362)
(1732.222015 4.668587823 0.2642993636)
(1733.116627 3.63675735 -0.4494969958)
(1734.004821 2.324482326 2.008212601)
(1735.103816 -1.470761456 1.98952509)
(1735.376481 -2.227698106 -0.5199031433)
(1735.382215 -3.075169403 -1.074721755)
(1736.119931 -2.614390213 -0.3948782421)
(1733.487581 -1.643811443 -1.050578898)
(1734.496066 -2.410993126 -3.114143876)
(1734.870745 -1.912369147 -3.482687584)
(1708.104805 1.773296948 -1.74644828)
(1745.202271 2.157036045 -1.480958581)
(1738.334396 2.652848837 -1.588692652)
(1737.376371 1.461774765 -1.104566417)
(1737.237829 0.7336817461 -1.183216037)
(1738.100456 2.201741742 -1.293727767)
(1737.453126 2.734977404 -1.395941575)
(1738.859911 3.949050342 -1.38159543)
(1740.954063 1.477713166 -2.415273053)
(1738.43698 -1.523831571 -2.858079474)
(1739.556222 -1.544116624 -2.307957015)
(1736.500653 -0.3392971436 -1.426956877)
(1737.118483 0.1599600772 -3.94803317)
(1734.684057 1.926396551 -4.252693858)
(1734.33551 1.215990686 -2.913921782)
(1735.036164 -0.5487625269 -1.656350352)
(1735.17034 -1.464619463 0.5352850811)
(1734.325945 -2.200165368 -0.7843571726)
(1734.018029 -0.4179145303 -0.5551353324)
(1734.327609 -0.5120034268 0.2440168311)
(1707.713688 2.174013356 -0.3202114421)
(1747.233554 1.221453839 -0.947579404)
(1738.145482 0.6509316501 -2.787540474)
(1738.714098 0.9742134462 -2.730943512)
(1741.326742 1.499240912 -2.990801655)
(1739.493187 1.807111074 -2.562750364)
(1738.951349 1.178756486 -3.482983549)
(1739.386082 0.7300619217 -3.122008747)
(1736.053561 1.652863109 -1.551652751)
(1737.615273 1.399709242 -0.6923772278)
(1736.166342 0.2294966684 -0.9562375374)
(1736.699928 -0.5488243781 -0.8578973741)
(1736.222292 -0.4165769954 -1.6203751)
(1736.281097 0.9249887533 -1.328658947)
(1737.240353 0.7938797091 -1.912399162)
(1735.777379 3.161849409 -2.047928635)
(1738.239857 5.623819269 -3.329251194)
(1737.565818 2.946835584 -0.6951137457)
(1737.363723 0.6697893607 -1.228659219)
(1737.717737 0.1492607558 -2.300143204)
(1710.600784 4.754779018 -1.220913702)
(1745.331149 4.752670719 -0.6190866659)
(1735.311792 6.47693297 1.368437287)
(1734.686683 6.516765036 0.356132206)
(1735.999223 6.963168957 -0.9071772376)
(1737.24992 6.446328576 -1.052906722)
(1735.056745 5.317654002 -0.6121196199)
(1733.822873 5.240318352 0.1341722987)
(1735.074896 5.425641936 -1.388675735)
(1734.469291 6.977448997 -2.962853644)
(1734.191744 9.083953192 -3.734628357)
(1734.942938 9.82400021 -1.346676117)
(1735.108935 7.873612896 -0.2802810557)
(1735.542218 5.799785006 0.3017363733)
(1734.841352 6.355905769 -0.0965027369)
(1735.180289 6.558505237 0.3172688417)
(1733.645718 3.611685429 -0.1784611427)
(1732.212438 6.073996182 -1.038932708)
(1734.017995 6.071120235 -0.5181590115)
(1735.401551 6.595439352 0.5487808143)
(1733.923713 5.201046566 -0.8895290843)
(1733.641271 4.005018554 -1.936986042)
(1734.592676 3.754633593 -2.380551116)
(1733.972943 3.823925488 -2.901824857)
(1733.355917 5.547025825 -2.489084086)
(1730.479581 10.30400767 -1.13358104)
(1736.342332 1.94505927 -0.4417220247)
(1737.04955 2.798478505 -1.002268572)
(1739.24078 1.862190961 -1.540777726)
(1738.137135 1.945305544 -1.882317902)
(1737.88678 -0.6848446032 -0.959902331)
(1737.027377 0.4648086815 1.208109375)
(1735.256693 0.6547248308 1.738046913)
(1733.26694 4.97669154 1.997093339)
(1733.74286 5.167768729 0.4122929485)
(1733.819876 5.803656597 0.0756307087)
(1737.263177 0.9083687766 1.033230615)
(1737.67602 0.03608261606 1.444716093)
(1734.324068 0.3745955496 3.565620432)
(1733.807671 -1.581665299 2.740722002)
(1733.114107 0.4606743958 1.651725278)
(1733.00122 3.544992502 1.770745296)
(1735.27222 3.209009916 1.508271433)
(1734.546174 3.68543992 2.926179355)
(1735.089405 3.246646763 2.606174594)
(1731.958643 5.73564693 2.773434457)
(1734.507402 -1.125557081 -2.487655239)
(1733.461922 -1.489778037 -1.383521792)
(1734.067947 -0.9112993131 -1.078934146)
(1734.628806 -0.871364444 -0.1393012192)
(1736.042631 -2.794707438 0.1009891025)
(1735.375216 -1.456654293 -1.000529279)
(1735.564377 -0.6825984664 -1.370811311)
(1735.903471 0.5080598578 -2.698353687)
(1735.73482 0.5045615194 -1.783494571)
(1733.434079 1.310575942 -1.483330563)
(1739.031695 -2.851360453 -0.03527851552)
(1739.634451 -0.4145310248 0.06759806087)
(1739.920389 1.019138326 -1.165237739)
(1737.891188 1.833306696 -2.416727495)
(1737.750814 1.813904094 -1.355788319)
(1734.614825 1.738230076 -1.06337235)
(1734.647429 -0.2277896733 1.204432439)
(1733.604062 -1.487742317 1.710655927)
(1733.215523 -0.1345160115 0.08494160775)
(1732.286657 0.2044240054 -0.9032089234)
(1734.195581 0.3307657053 3.641387368)
(1734.415512 0.7978838686 3.470257602)
(1734.632196 -0.2252318155 3.431524583)
(1735.0884 1.335120026 2.753221751)
(1736.111051 1.375318706 0.9352685219)
(1735.656732 -1.096229017 0.77146446)
(1734.606766 1.129404204 -0.1075668756)
(1735.2199 1.274670428 -0.9204254654)
(1733.033069 1.04282583 1.015733261)
(1732.900835 3.009118138 1.463124857)
(1736.827985 0.1710619219 -1.786080725)
(1737.501361 0.3899294707 -1.87793536)
(1738.168968 0.4161415594 -2.69631723)
(1734.910071 -1.374063185 -1.669337186)
(1733.743633 -1.44945303 -1.097245525)
(1733.365514 0.6255326141 -0.6370580025)
(1733.750749 1.759052037 -0.9120244179)
(1735.177862 1.537657911 -1.788597051)
(1735.47563 2.656179462 -2.078717397)
(1733.457658 1.92175156 -3.536092139)
(1732.138565 -0.4560775359 -0.3854752747)
(1730.022968 -1.833924748 -1.835987969)
(1730.394383 -4.413992607 -1.967980652)
(1732.647357 -3.355027132 -2.605902143)
(1732.758275 -1.973246561 -4.134657374)
(1733.946912 -2.727823919 -4.261220258)
(1735.708536 -1.203050388 -3.766231456)
(1736.042588 -0.6201645178 -3.799969916)
(1736.634046 0.4331898499 -3.26509129)
(1739.4601 0.5700642269 -1.652807975)
(1734.756818 -0.3628649052 -1.133671181)
(1735.214004 0.07586080861 -1.541051298)
(1737.522597 1.094174491 0.8707696908)
(1736.90544 1.228884935 1.24647369)
(1738.325135 1.223266478 0.9428170392)
(1736.882588 2.538745352 1.465215983)
(1736.574271 1.130954983 -0.1732611238)
(1735.718126 2.622454321 -1.147324038)
(1734.791177 -0.1528133938 -2.477612019)
(1732.735204 -0.6971907649 -2.867434096)
(1736.238247 1.001509254 0.05685709849)
(1735.742832 2.491625306 -0.7910612145)
(1736.377403 4.48677165 -0.9401865132)
(1736.880277 4.849217418 -0.5353730137)
(1734.714599 3.886812842 -0.431252271)
(1734.566869 2.921450485 -1.397799745)
(1732.617961 -0.2629579254 0.107482824)
(1732.936226 -0.4182602584 1.863444689)
(1734.095155 -0.8611349617 2.786431308)
(1735.084504 0.2154501409 2.055838922)
(1738.905773 2.719628854 -2.316350294)
(1738.537143 2.680741615 -0.7082051122)
(1735.416465 2.526232008 -3.425849722)
(1733.880826 1.837939357 -1.670906563)
(1734.327543 0.5637070244 -1.753326998)
(1736.33187 -0.4324700773 -1.125042517)
(1735.962753 2.242885495 -1.653231418)
(1736.086649 2.512885695 -2.514377547)
(1735.462199 4.200804202 -1.10037064)
(1736.103675 4.180260921 1.359732428)
(1735.223106 2.148560653 0.3962818185)
(1735.207253 -1.004719651 -0.5535565152)
(1737.434311 -1.636671791 0.09552186579)
(1738.69271 -0.2975330683 0.3477293795)
(1739.360742 2.312622827 -0.3482847345)
(1738.105118 3.129417442 -1.24115392)
(1738.383608 1.648309396 -1.215249238)
(1738.323136 3.247615766 0.008929105108)
(1737.787468 1.551698328 -1.215790574)
(1737.8318 3.502663071 -3.793189848)
(1735.814811 0.008024735485 -0.6036497517)
(1736.961309 1.47350497 -0.2059420224)
(1735.454964 2.470925591 -0.3121441036)
(1735.952001 2.042174013 0.141462243)
(1736.204055 1.822528617 1.15675259)
(1737.227056 1.828814803 0.04034895641)
(1736.690358 0.6428994555 -0.5560428461)
(1736.153869 -0.1254758605 -0.9686333048)
(1736.693166 0.08450165839 -2.105083)
(1736.313391 0.001139022888 -3.583007021)
(1736.381669 1.657898135 -1.710926264)
(1735.321493 0.9731885746 -2.801171777)
(1735.229717 0.07113458054 -3.282508994)
(1734.473158 0.6586765838 -4.606881418)
(1736.546209 -0.9263493814 -3.52020178)
(1736.331278 -1.240037338 -3.582756395)
(1735.987964 -0.02057595634 -2.937203299)
(1737.346528 -0.5695216322 -3.753501785)
(1738.492396 -0.7939025087 -3.448691525)
(1738.564074 -2.21706509 -2.354941719)
(1738.350165 -1.439607862 -1.215654409)
(1736.993252 0.03633424041 -1.016359971)
(1736.521559 -0.1370649195 0.2111878831)
(1734.809987 1.031083208 -0.3158022345)
(1733.509607 2.263357073 0.0931385912)
(1733.587198 2.7443334 0.287371988)
(1734.381229 2.075567925 0.5245215263)
(1734.909092 1.456370175 1.853098344)
(1734.040082 4.310998361 2.80243109)
(1734.770962 3.861512473 2.108743964)
(1736.410027 0.1125960381 -2.258919573)
(1735.476506 0.3266958325 -2.976084751)
(1735.438219 0.8385838662 -1.88715701)
(1736.931073 0.01964909054 -1.680550011)
(1737.456207 0.4834781738 -0.06706077718)
(1737.627364 0.5239767732 -0.8522969068)
(1736.145257 3.144380605 -2.264750622)
(1737.137765 4.003184109 -2.644748696)
(1734.502458 2.449223297 -3.04321122)
(1734.512425 1.114281957 -2.85701653)
(1734.164124 -1.552722615 -3.03729353)
(1734.128144 -2.407573503 -1.941419025)
(1735.879656 -1.084889136 -3.229255491)
(1734.599639 -1.011739197 -2.756533955)
(1736.261348 0.1022473176 -3.324363048)
(1735.032147 1.410903502 -1.168972891)
(1734.157976 0.6863230553 -0.6856564084)
(1731.512162 -1.304759522 -2.402804332)
(1731.967608 -1.409548278 -2.215485359)
(1732.853841 1.469140425 -0.9739925707)
(1735.052628 0.4121547786 -0.8226959185)
(1734.9981 -0.3449160325 -0.7418953813)
(1733.854939 -1.789501419 -1.697640701)
(1734.186755 -2.138080662 -0.1483841806)
(1733.804103 -2.056070161 -1.793487682)
(1734.16931 -2.262869992 -3.647813388)
(1734.976506 -1.570062383 -1.619447973)
(1734.837462 -2.107019318 -1.031470839)
(1734.330441 -3.020894257 -0.9611308036)
(1734.424656 -2.722966527 -1.470483178)
(1735.416791 5.687062664 0.610826479)
(1737.728984 7.151892698 -0.4012596941)
(1737.915857 6.380214002 1.751891696)
(1738.642639 5.881834754 1.964182735)
(1738.086232 5.305017268 0.5583797395)
(1737.69973 4.817806871 2.286157475)
(1738.401741 3.568283561 3.453836678)
(1738.169235 3.452166303 2.200559267)
(1737.747999 5.814985898 2.285429052)
(1737.869266 5.426142641 2.537812591)
)
;

boundaryField
{
    flow
    {
        type            calculated;
        value           nonuniform List<vector> 
48
(
(1709.989094 1.435722588 -0.1893280858)
(1709.850456 0.2616978379 1.770100655)
(1708.259841 -0.2985180874 -3.540162665)
(1708.151883 1.161282132 0.5101926895)
(1711.509236 -1.542195282 -1.318605738)
(1708.512914 1.17261401 -0.5115136406)
(1707.868917 1.47203276 1.279088922)
(1711.483865 -1.421165116 2.330592601)
(1707.983495 -1.866592018 -1.401753074)
(1708.286347 0.2243254334 -1.065602019)
(1708.571037 1.430280902 0.02601992877)
(1709.629914 0.7276486672 0.4624818715)
(1710.921965 0.5710327934 -4.856868346)
(1709.012406 1.02636417 -4.443174772)
(1706.330498 -0.5989097416 -1.740616788)
(1708.104805 1.773296948 -1.74644828)
(1707.713688 2.174013356 -0.3202114421)
(1710.600784 4.754779018 -1.220913702)
(1710.600784 4.754779018 -1.220913702)
(1745.331149 4.752670719 -0.6190866659)
(1735.311792 6.47693297 1.368437287)
(1734.686683 6.516765036 0.356132206)
(1735.999223 6.963168957 -0.9071772376)
(1737.24992 6.446328576 -1.052906722)
(1735.056745 5.317654002 -0.6121196199)
(1733.822873 5.240318352 0.1341722987)
(1735.074896 5.425641936 -1.388675735)
(1734.469291 6.977448997 -2.962853644)
(1734.191744 9.083953192 -3.734628357)
(1734.942938 9.82400021 -1.346676117)
(1735.108935 7.873612896 -0.2802810557)
(1735.542218 5.799785006 0.3017363733)
(1734.841352 6.355905769 -0.0965027369)
(1735.180289 6.558505237 0.3172688417)
(1733.645718 3.611685429 -0.1784611427)
(1732.212438 6.073996182 -1.038932708)
(1734.017995 6.071120235 -0.5181590115)
(1735.401551 6.595439352 0.5487808143)
(1735.416791 5.687062664 0.610826479)
(1737.728984 7.151892698 -0.4012596941)
(1737.915857 6.380214002 1.751891696)
(1738.642639 5.881834754 1.964182735)
(1738.086232 5.305017268 0.5583797395)
(1737.69973 4.817806871 2.286157475)
(1738.401741 3.568283561 3.453836678)
(1738.169235 3.452166303 2.200559267)
(1737.747999 5.814985898 2.285429052)
(1737.869266 5.426142641 2.537812591)
)
;
    }
    obstacle
    {
        type            calculated;
        value           nonuniform List<vector> 0();
    }
    frontAndBack
    {
        type            empty;
    }
    procBoundary2to0
    {
        type            processor;
        value           nonuniform List<vector> 
31
(
(1707.814857 3.891556112 0.4180148055)
(1746.932021 2.270800788 -0.6661491197)
(1737.917376 -1.226390844 -2.101656012)
(1739.247029 0.3328813432 -0.934271248)
(1738.687838 -0.2482365685 -1.716231966)
(1737.530545 0.5398539643 -1.071728567)
(1735.602374 0.7470765077 -2.244247975)
(1736.091224 1.089352438 0.3261977292)
(1734.984689 2.500720202 0.7523873087)
(1734.62761 2.172619947 -0.03494371821)
(1733.521452 1.114464004 2.378415276)
(1732.560546 -2.219858858 1.846439453)
(1731.336245 -2.0077824 1.597252464)
(1732.913762 -3.155317485 0.07221084341)
(1733.334345 -4.294589757 -2.49096463)
(1735.601364 -3.521798652 -1.036860748)
(1736.52637 -1.451090495 0.1580240938)
(1736.618651 2.087575463 -0.8824564913)
(1737.632512 1.938825155 -1.359553935)
(1737.411024 2.384408816 -1.035873513)
(1736.953587 3.953567389 -0.671152169)
(1734.186213 6.212816422 -0.1431539086)
(1733.527053 6.169438643 0.08325659963)
(1730.282043 7.182437137 -1.150364616)
(1726.598968 8.703668841 0.1690280846)
(1724.293142 11.38193656 2.26076201)
(1738.142681 1.594627698 -2.706469495)
(1738.065937 3.908747661 -3.025132213)
(1734.500004 2.161926525 -2.8836261)
(1734.954203 3.433162544 -1.687049891)
(1734.954203 3.433162544 -1.687049891)
)
;
    }
    procBoundary2to3
    {
        type            processor;
        value           nonuniform List<vector> 
19
(
(1726.903376 11.81549899 -1.024557164)
(1731.547049 8.416270895 0.6849589029)
(1733.188049 7.74564345 1.363877306)
(1733.623282 3.030546792 -0.01937716173)
(1730.321067 -0.5263116842 -0.1582631449)
(1733.170472 2.975699623 1.321900273)
(1734.318401 4.043276624 -3.843874243)
(1738.672293 0.4933186535 -0.2560397696)
(1732.570732 -0.7511316998 -2.545646351)
(1734.775843 1.606585094 0.5507599754)
(1736.506885 2.761277233 2.223043593)
(1737.225177 3.485535073 -5.006869194)
(1736.215587 -1.345691572 -3.545772942)
(1736.037996 0.533812854 -1.031515709)
(1736.258052 1.140863236 1.197234905)
(1733.819733 2.49736963 -2.706670319)
(1732.326079 0.9905523486 -0.8546391877)
(1735.824045 -1.505603886 0.3545598839)
(1734.238247 5.06264328 1.745097526)
)
;
    }
}


// ************************************************************************* //
