/*--------------------------------*- C++ -*----------------------------------*\
| =========                 |                                                 |
| \\      /  F ield         | OpenFOAM: The Open Source CFD Toolbox           |
|  \\    /   O peration     | Version:  2406                                  |
|   \\  /    A nd           | Website:  www.openfoam.com                      |
|    \\/     M anipulation  |                                                 |
\*---------------------------------------------------------------------------*/
FoamFile
{
    version     2.0;
    format      ascii;
    arch        "LSB;label=32;scalar=64";
    class       volScalarField;
    location    "0.005";
    object      dsmcRhoNMean;
}
// * * * * * * * * * * * * * * * * * * * * * * * * * * * * * * * * * * * * * //

dimensions      [0 -3 0 0 0 0 0];

internalField   nonuniform List<scalar> 
654
(
7.304
9.42
9.4784
9.4748
9.4972
9.5336
9.514
9.5344
9.5148
9.4828
9.4728
9.4808
9.432
9.43
9.4608
9.5332
9.5524
9.7668
10.222
13.1152
7.3716
9.5128
9.6148
9.5768
9.6012
9.624
9.57
9.562
9.5848
9.5996
9.6116
9.6268
9.6404
9.6848
9.6516
9.7312
9.8672
10.1168
10.7204
12.4816
7.4916
9.7012
9.7212
9.6828
9.62
9.6584
9.6948
9.662
9.6608
9.5812
9.5676
9.584
9.598
9.6588
9.7332
9.708
9.7516
9.9488
10.3624
11.3792
7.5012
9.5092
9.5936
9.6004
9.534
9.5052
9.4852
9.496
9.5192
9.5916
9.638
9.6464
9.6944
9.5984
9.59
9.5488
9.6248
9.776
10.1008
10.8584
7.464
9.5904
9.5304
9.5116
9.554
9.5792
9.578
9.5448
9.4864
9.484
9.4068
9.4108
9.482
9.5092
9.5512
9.726
9.8112
9.9556
10.1416
10.4944
7.4152
9.5232
9.6092
9.5656
9.5456
9.5836
9.5368
9.5776
9.5904
9.6192
9.644
9.5928
9.5448
9.546
9.6064
9.5588
9.6112
9.7616
9.9292
10.1752
7.4684
9.5712
9.6584
9.6312
9.6832
9.6536
9.6624
9.6316
9.7068
9.7212
9.6632
9.7128
9.7028
9.6696
9.6816
9.6356
9.7604
9.7148
9.892
10.0724
7.4288
9.5316
9.6168
9.6432
9.6224
9.6432
9.7396
9.8064
9.7872
9.714
9.6932
9.608
9.676
9.6816
9.7036
9.782
9.766
9.8112
9.8336
9.8788
7.4672
9.676
9.698
9.654
9.6128
9.5508
9.598
9.5856
9.5376
9.5676
9.716
9.69
9.6088
9.5792
9.5
9.5492
9.636
9.6864
9.7272
9.8456
7.4292
9.4452
9.5512
9.5712
9.6144
9.6472
9.6128
9.578
9.5884
9.5872
9.5292
9.5384
9.5932
9.6128
9.676
9.7076
9.718
9.5996
9.7248
9.7744
7.4988
9.5692
9.6232
9.5856
9.5412
9.4604
9.3992
9.4268
9.5076
9.5424
9.6004
9.652
9.7108
9.6664
9.6316
9.4756
9.5432
9.6008
9.7416
9.7584
7.4692
9.5916
9.6392
9.5816
9.6492
9.6728
9.7244
9.7236
9.7668
9.6408
9.6036
9.5008
9.4576
9.5648
9.6428
9.7384
9.8108
9.7224
9.6808
9.7904
7.474
9.57
9.6164
9.5952
9.578
9.5592
9.5452
9.51
9.4696
9.5228
9.6124
9.6396
9.6572
9.6648
9.5628
9.6384
9.624
9.7192
9.742
9.706
7.4604
9.6476
9.6924
9.726
9.7272
9.7136
9.6836
9.7124
9.6936
9.6576
9.598
9.5852
9.56
9.5544
9.55
9.4568
9.4268
9.444
9.4384
9.5804
7.374
9.5656
9.6244
9.5484
9.6036
9.6324
9.6532
9.6424
9.6724
9.6684
9.6712
9.6508
9.7088
9.6484
9.6572
9.5824
9.5976
9.5772
9.5304
9.5124
7.4696
9.5924
9.6148
9.6128
9.5844
9.6404
9.6552
9.604
9.6248
9.5884
9.5644
9.4988
9.4016
9.4508
9.4924
9.6016
9.6372
9.5816
9.644
9.5972
7.4964
9.578
9.5932
9.6248
9.5896
9.5932
9.464
9.5504
9.5736
9.592
9.6556
9.6784
9.7172
9.7732
9.6784
9.6616
9.6636
9.6852
9.6552
9.6868
7.4136
9.5196
9.5872
9.6016
9.5964
9.5628
9.6628
9.6256
9.59
9.5352
9.5368
9.5752
9.6124
9.622
9.6268
9.6316
9.7028
9.6584
9.6412
9.644
7.4864
9.6032
9.666
9.6044
9.6268
9.6988
9.6832
9.706
9.6856
9.6928
9.6888
9.6248
9.5464
9.5284
9.4684
9.508
9.498
9.5352
9.5724
9.5428
7.4348
9.5952
9.7268
9.7072
9.68
9.6936
9.6884
9.7108
9.7104
9.68
9.6916
9.718
9.7936
9.7732
9.83
9.7612
9.7476
9.7808
9.7744
9.8004
7.4312
9.5404
9.5536
9.542
9.5292
9.548
9.5032
9.3476
9.426
9.4668
9.5584
9.5724
9.5408
9.5488
9.5888
9.6592
9.6536
9.59
9.5864
9.5376
7.4088
9.4948
9.5232
9.438
9.4832
9.442
9.5568
9.6588
9.7032
9.6852
9.5512
9.5532
9.5248
9.5308
9.536
9.5156
9.5184
9.4972
9.5876
9.5968
23.0496
26.24
27.3108
28.2356
28.4784
28.7452
28.5044
28.3196
27.2836
27.4772
15.714
18.7956
20.6024
22.1184
23.426
24.01
24.3992
24.6344
24.9712
24.5512
13.0216
14.9796
16.632
18.2188
19.536
20.8296
21.6632
22.404
22.7972
22.97
11.7736
13.0272
14.2296
15.4836
16.8004
18.1676
19.4164
20.1136
20.674
21.268
11.074
11.8108
12.7068
13.8924
14.8004
15.6376
16.7332
17.5356
18.7012
19.6748
10.55
11.0896
11.716
12.3044
13.0896
13.9836
15.0344
15.9872
16.8932
17.77
10.282
10.5976
10.9572
11.5416
12.0176
12.8196
13.524
14.4568
15.3076
16.1948
10.0504
10.238
10.3676
10.822
11.1588
11.6648
12.3892
13.0036
13.658
14.4088
9.9572
10.108
10.244
10.4792
10.692
10.9808
11.2748
11.8404
12.5208
13.0904
9.8836
9.9076
9.9648
10.0264
10.1332
10.5636
10.8848
11.1432
11.4736
11.8724
9.844
9.8596
10.0408
10.0908
10.1868
10.2204
10.3852
10.7136
11.0056
11.3404
9.7128
9.6976
9.6224
9.6452
9.7244
9.844
9.96
10.1792
10.4204
10.6472
9.7004
9.7292
9.7488
9.7112
9.6492
9.758
9.9148
9.9104
10.0508
10.2628
9.6056
9.5788
9.5104
9.4784
9.4972
9.5028
9.4872
9.5652
9.682
9.7896
9.4552
9.4056
9.4264
9.5424
9.54
9.5992
9.5684
9.5796
9.584
9.658
9.7356
9.7828
9.6464
9.54
9.5148
9.458
9.4436
9.4552
9.528
9.4608
9.5828
9.5388
9.4256
9.3848
9.2308
9.2488
9.2492
9.2088
9.1348
9.278
9.598
9.4324
9.3696
9.372
9.3976
9.3208
9.2548
9.2368
9.218
9.2472
9.5332
9.6344
9.5676
9.5168
9.3748
9.2864
9.2908
9.2032
9.1176
9.1688
9.6724
9.5876
9.4936
9.3788
9.3848
9.344
9.3356
9.3352
9.1872
9.0672
9.4924
9.4468
9.3836
9.336
9.264
9.1256
9.0284
8.9784
9.0728
9.0256
9.5336
9.4288
9.3172
9.2868
)
;

boundaryField
{
    flow
    {
        type            calculated;
        value           nonuniform List<scalar> 
42
(
7.304
7.3716
7.4916
7.5012
7.464
7.4152
7.4684
7.4288
7.4672
7.4292
7.4988
7.4692
7.474
7.4604
7.374
7.4696
7.4964
7.4136
7.4864
7.4348
7.4312
7.4088
7.304
9.42
9.4784
9.4748
9.4972
9.5336
9.514
9.5344
9.5148
9.4828
9.4728
9.4808
9.432
9.43
9.4608
9.5332
9.5524
9.7668
10.222
13.1152
)
;
    }
    obstacle
    {
        type            calculated;
        value           nonuniform List<scalar> 10(23.0496 26.24 27.3108 28.2356 28.4784 28.7452 28.5044 28.3196 27.2836 27.4772);
    }
    frontAndBack
    {
        type            empty;
    }
    procBoundary0to1
    {
        type            processor;
        value           nonuniform List<scalar> 
21
(
27.2992
24.2716
22.7164
21.4456
20.0172
18.6892
16.9356
15.3152
13.886
12.46
11.7544
11.062
10.3588
9.8624
9.7824
9.4104
9.2896
9.2952
9.12
9.0592
8.9456
)
;
    }
    procBoundary0to2
    {
        type            processor;
        value           nonuniform List<scalar> 
31
(
7.4288
9.5684
9.6788
9.6152
9.6104
9.5708
9.584
9.5144
9.4544
9.4748
9.54
9.6172
9.5932
9.5516
9.5508
9.4936
9.5372
9.4536
9.3644
9.3412
9.284
9.228
9.1724
9.1456
9.0884
9.0748
9.4368
9.4144
9.4548
9.284
9.3064
)
;
    }
}


// ************************************************************************* //
