/*--------------------------------*- C++ -*----------------------------------*\
| =========                 |                                                 |
| \\      /  F ield         | OpenFOAM: The Open Source CFD Toolbox           |
|  \\    /   O peration     | Version:  2406                                  |
|   \\  /    A nd           | Website:  www.openfoam.com                      |
|    \\/     M anipulation  |                                                 |
\*---------------------------------------------------------------------------*/
FoamFile
{
    version     2.0;
    format      ascii;
    arch        "LSB;label=32;scalar=64";
    class       volScalarField;
    location    "0.005";
    object      iDof;
}
// * * * * * * * * * * * * * * * * * * * * * * * * * * * * * * * * * * * * * //

dimensions      [0 -3 0 0 0 0 0];

internalField   nonuniform List<scalar> 
654
(
1.24967977e+20
1.666239693e+20
2.082799616e+20
1.457959731e+20
2.291079578e+20
2.291079578e+20
1.874519654e+20
1.457959731e+20
1.457959731e+20
2.291079578e+20
2.082799616e+20
3.124199424e+20
2.291079578e+20
1.874519654e+20
8.331198464e+19
2.915919462e+20
6.248398848e+19
1.874519654e+20
1.666239693e+20
2.082799616e+20
1.666239693e+20
1.666239693e+20
2.291079578e+20
1.874519654e+20
1.874519654e+20
1.24967977e+20
1.041399808e+20
1.874519654e+20
1.24967977e+20
2.707639501e+20
1.874519654e+20
1.874519654e+20
1.874519654e+20
1.874519654e+20
2.291079578e+20
1.874519654e+20
2.082799616e+20
1.874519654e+20
2.915919462e+20
2.707639501e+20
1.666239693e+20
2.291079578e+20
2.291079578e+20
3.124199424e+20
1.874519654e+20
2.499359539e+20
2.707639501e+20
1.874519654e+20
2.291079578e+20
1.457959731e+20
1.457959731e+20
4.790439117e+20
3.332479385e+20
1.666239693e+20
1.874519654e+20
2.291079578e+20
2.499359539e+20
2.499359539e+20
2.082799616e+20
1.874519654e+20
1.041399808e+20
1.666239693e+20
1.457959731e+20
2.082799616e+20
1.666239693e+20
2.082799616e+20
1.457959731e+20
1.457959731e+20
2.915919462e+20
1.666239693e+20
1.874519654e+20
2.082799616e+20
1.666239693e+20
2.291079578e+20
1.874519654e+20
2.499359539e+20
5.20699904e+20
2.291079578e+20
2.082799616e+20
1.874519654e+20
1.24967977e+20
2.291079578e+20
2.082799616e+20
2.082799616e+20
2.291079578e+20
1.666239693e+20
1.874519654e+20
2.499359539e+20
1.041399808e+20
1.666239693e+20
2.291079578e+20
1.24967977e+20
1.041399808e+20
1.457959731e+20
2.082799616e+20
1.457959731e+20
1.041399808e+20
2.499359539e+20
8.331198464e+19
3.540759347e+20
1.24967977e+20
2.707639501e+20
1.874519654e+20
2.082799616e+20
1.457959731e+20
1.666239693e+20
2.082799616e+20
2.291079578e+20
2.499359539e+20
1.666239693e+20
2.082799616e+20
1.874519654e+20
2.082799616e+20
1.24967977e+20
1.874519654e+20
2.082799616e+20
2.291079578e+20
1.457959731e+20
2.082799616e+20
1.457959731e+20
1.666239693e+20
1.666239693e+20
1.457959731e+20
1.24967977e+20
3.124199424e+20
1.874519654e+20
1.666239693e+20
2.291079578e+20
1.457959731e+20
1.666239693e+20
2.291079578e+20
2.915919462e+20
1.457959731e+20
2.707639501e+20
2.291079578e+20
8.331198464e+19
2.707639501e+20
1.24967977e+20
2.291079578e+20
2.915919462e+20
1.666239693e+20
2.082799616e+20
1.457959731e+20
1.666239693e+20
3.540759347e+20
1.041399808e+20
2.082799616e+20
3.124199424e+20
2.707639501e+20
1.457959731e+20
2.082799616e+20
2.707639501e+20
2.291079578e+20
1.457959731e+20
2.082799616e+20
1.874519654e+20
6.248398848e+19
2.707639501e+20
2.915919462e+20
2.915919462e+20
1.24967977e+20
2.082799616e+20
2.707639501e+20
2.291079578e+20
1.24967977e+20
2.499359539e+20
1.041399808e+20
1.24967977e+20
1.666239693e+20
8.331198464e+19
2.082799616e+20
2.499359539e+20
2.082799616e+20
2.291079578e+20
1.666239693e+20
2.082799616e+20
3.749039309e+20
2.707639501e+20
1.457959731e+20
2.291079578e+20
1.666239693e+20
2.291079578e+20
1.874519654e+20
2.082799616e+20
1.666239693e+20
1.666239693e+20
1.24967977e+20
2.082799616e+20
2.291079578e+20
1.874519654e+20
1.874519654e+20
1.666239693e+20
2.707639501e+20
3.332479385e+20
1.24967977e+20
2.499359539e+20
2.499359539e+20
2.082799616e+20
1.457959731e+20
1.457959731e+20
8.331198464e+19
1.666239693e+20
2.291079578e+20
2.499359539e+20
1.874519654e+20
1.874519654e+20
1.874519654e+20
2.499359539e+20
2.499359539e+20
1.874519654e+20
1.874519654e+20
1.874519654e+20
3.124199424e+20
1.874519654e+20
2.291079578e+20
1.874519654e+20
2.291079578e+20
1.666239693e+20
1.874519654e+20
1.457959731e+20
1.041399808e+20
2.707639501e+20
2.915919462e+20
1.666239693e+20
1.874519654e+20
2.707639501e+20
1.666239693e+20
3.124199424e+20
1.874519654e+20
1.666239693e+20
1.666239693e+20
2.915919462e+20
2.082799616e+20
3.540759347e+20
1.666239693e+20
1.874519654e+20
2.291079578e+20
1.666239693e+20
2.082799616e+20
2.707639501e+20
1.457959731e+20
1.874519654e+20
1.874519654e+20
2.291079578e+20
2.291079578e+20
1.874519654e+20
2.291079578e+20
2.082799616e+20
1.041399808e+20
2.291079578e+20
2.291079578e+20
2.291079578e+20
1.24967977e+20
1.457959731e+20
1.874519654e+20
2.291079578e+20
2.291079578e+20
2.082799616e+20
2.082799616e+20
1.457959731e+20
1.666239693e+20
2.291079578e+20
2.707639501e+20
1.24967977e+20
2.082799616e+20
1.874519654e+20
2.082799616e+20
2.291079578e+20
6.248398848e+19
1.874519654e+20
2.707639501e+20
1.666239693e+20
1.874519654e+20
1.666239693e+20
1.457959731e+20
1.666239693e+20
1.874519654e+20
2.291079578e+20
1.041399808e+20
1.666239693e+20
1.457959731e+20
2.707639501e+20
2.707639501e+20
1.457959731e+20
1.666239693e+20
2.291079578e+20
2.499359539e+20
2.291079578e+20
1.874519654e+20
1.666239693e+20
2.499359539e+20
1.666239693e+20
3.332479385e+20
1.666239693e+20
2.082799616e+20
1.041399808e+20
1.24967977e+20
2.082799616e+20
2.082799616e+20
2.082799616e+20
1.457959731e+20
8.331198464e+19
1.457959731e+20
2.291079578e+20
2.499359539e+20
1.24967977e+20
1.041399808e+20
2.499359539e+20
1.24967977e+20
2.707639501e+20
3.332479385e+20
1.666239693e+20
3.749039309e+20
2.082799616e+20
8.331198464e+19
1.666239693e+20
3.332479385e+20
1.457959731e+20
3.124199424e+20
1.457959731e+20
1.666239693e+20
1.041399808e+20
3.749039309e+20
2.707639501e+20
1.041399808e+20
1.874519654e+20
1.874519654e+20
2.707639501e+20
1.666239693e+20
2.915919462e+20
3.332479385e+20
1.24967977e+20
1.457959731e+20
1.041399808e+20
1.666239693e+20
2.082799616e+20
3.124199424e+20
1.457959731e+20
8.331198464e+19
2.499359539e+20
1.666239693e+20
1.666239693e+20
1.874519654e+20
2.082799616e+20
2.291079578e+20
2.082799616e+20
1.457959731e+20
1.874519654e+20
1.874519654e+20
2.291079578e+20
2.291079578e+20
2.915919462e+20
2.082799616e+20
2.082799616e+20
1.24967977e+20
1.457959731e+20
1.457959731e+20
1.24967977e+20
2.499359539e+20
2.915919462e+20
1.874519654e+20
1.457959731e+20
1.874519654e+20
2.291079578e+20
1.457959731e+20
1.457959731e+20
1.874519654e+20
1.24967977e+20
1.874519654e+20
2.082799616e+20
1.874519654e+20
1.24967977e+20
2.082799616e+20
3.332479385e+20
3.124199424e+20
1.457959731e+20
1.666239693e+20
2.291079578e+20
2.082799616e+20
2.082799616e+20
1.24967977e+20
2.707639501e+20
2.499359539e+20
2.499359539e+20
3.332479385e+20
1.666239693e+20
1.874519654e+20
1.874519654e+20
2.082799616e+20
1.041399808e+20
1.666239693e+20
2.082799616e+20
2.082799616e+20
3.540759347e+20
8.331198464e+19
1.24967977e+20
1.457959731e+20
2.082799616e+20
1.874519654e+20
2.291079578e+20
1.041399808e+20
2.082799616e+20
1.24967977e+20
1.666239693e+20
1.874519654e+20
1.041399808e+20
2.082799616e+20
2.291079578e+20
1.874519654e+20
1.457959731e+20
1.24967977e+20
2.291079578e+20
1.666239693e+20
1.874519654e+20
1.041399808e+20
1.874519654e+20
2.291079578e+20
1.666239693e+20
2.707639501e+20
1.666239693e+20
1.666239693e+20
1.874519654e+20
2.291079578e+20
1.666239693e+20
1.666239693e+20
2.082799616e+20
2.082799616e+20
2.707639501e+20
2.082799616e+20
3.749039309e+20
1.24967977e+20
2.082799616e+20
2.082799616e+20
1.874519654e+20
2.291079578e+20
1.457959731e+20
1.457959731e+20
1.874519654e+20
1.666239693e+20
1.457959731e+20
3.762334362e+20
7.57640915e+20
6.145475425e+20
5.761540799e+20
6.016880814e+20
8.223503519e+20
6.102572364e+20
6.365852151e+20
4.643054996e+20
4.899546236e+20
3.135278636e+20
3.998660385e+20
5.085910699e+20
3.200856001e+20
6.231769416e+20
3.895343775e+20
4.576929276e+20
6.365852156e+20
5.527446424e+20
6.458492765e+20
2.090185757e+20
3.998660384e+20
4.662084804e+20
3.841027201e+20
4.297772014e+20
6.059423646e+20
6.756419403e+20
2.853657863e+20
5.748544281e+20
4.008719647e+20
1.881167181e+20
2.525469718e+20
2.966781241e+20
2.560684799e+20
3.438217607e+20
4.977383709e+20
3.705133224e+20
5.926827869e+20
4.643054996e+20
3.117893059e+20
1.881167181e+20
1.473190668e+20
2.754868295e+20
2.774075203e+20
2.363774608e+20
4.32815975e+20
3.051286184e+20
4.829267153e+20
4.864152856e+20
3.563306356e+20
2.090185757e+20
2.735925526e+20
2.119129457e+20
3.200855999e+20
2.578663205e+20
2.813303833e+20
3.269235193e+20
3.951218574e+20
4.421957136e+20
3.340599708e+20
2.508222908e+20
2.104558097e+20
1.695303566e+20
2.560684803e+20
3.223329011e+20
2.813303837e+20
4.358980263e+20
1.97560929e+20
3.758663568e+20
3.563306353e+20
2.090185757e+20
2.104558098e+20
1.059564729e+20
1.920513599e+20
2.578663205e+20
2.596895848e+20
2.179490132e+20
4.390242866e+19
2.432076426e+20
4.899546236e+20
2.508222908e+20
1.683646477e+20
1.48339062e+20
1.2803424e+20
1.719108806e+20
3.24611981e+20
1.743592104e+20
4.170730723e+20
2.87427214e+20
2.672479765e+20
2.299204334e+20
2.315013908e+20
1.271477675e+20
2.347294401e+20
3.008440408e+20
1.947671887e+20
3.051286184e+20
2.63414572e+20
2.432076426e+20
2.004359824e+20
1.46313003e+20
2.104558097e+20
2.119129457e+20
2.347294401e+20
2.363774606e+20
2.380487861e+20
1.961541117e+20
4.390242863e+19
3.095369997e+20
2.227066471e+20
1.881167181e+20
3.156837147e+20
1.907216512e+20
1.920513599e+20
1.074443003e+20
2.813303837e+20
1.525643097e+20
2.414633592e+20
1.547685006e+20
2.004359832e+20
1.254111454e+20
1.894102292e+20
3.178694198e+20
1.707123201e+20
1.074442998e+20
1.731263896e+20
2.615388152e+20
1.317072849e+20
1.768782848e+20
2.895186412e+20
2.5082229e+20
1.26273485e+20
1.907216498e+20
1.493732795e+20
1.933997406e+20
2.81330383e+20
1.525643084e+20
2.414633573e+20
1.989880704e+20
3.563306328e+20
1.881167191e+20
3.788204584e+20
3.390607131e+20
1.493732806e+20
2.793551828e+20
8.656319536e+19
3.051286189e+20
1.975609301e+20
2.874272148e+20
1.336239882e+20
2.299204329e+20
1.262734861e+20
1.48339063e+20
1.707123206e+20
1.933997406e+20
1.731263907e+20
1.089745067e+20
1.317072849e+20
3.31646784e+20
1.55894653e+20
1.672148603e+20
2.315013897e+20
1.695303554e+20
2.133903993e+20
3.00844041e+20
1.947671882e+20
1.743592108e+20
1.536585012e+20
2.210978576e+20
2.004359824e+20
1.254111452e+20
2.946381343e+20
1.695303577e+20
1.493732795e+20
2.148885992e+20
1.731263895e+20
2.833337155e+20
1.536585001e+20
1.989880718e+20
2.227066471e+20
2.090185768e+20
2.735925533e+20
2.754868294e+20
1.707123206e+20
1.933997406e+20
1.731263895e+20
1.743592108e+20
1.975609287e+20
4.42195712e+19
2.004359838e+20
1.463130028e+20
2.735925533e+20
2.331042402e+20
2.133903993e+20
2.793551809e+20
1.29844793e+20
3.051286189e+20
1.756097144e+20
1.768782861e+20
1.336239882e+20
2.508222905e+20
1.473190662e+20
1.907216511e+20
1.066952004e+20
1.074443004e+20
2.164079869e+20
1.743592108e+20
2.195121445e+20
1.326587145e+20
2.227066471e+20
1.672148603e+20
1.473190662e+20
2.119129457e+20
2.133904008e+20
)
;

boundaryField
{
    flow
    {
        type            zeroGradient;
    }
    obstacle
    {
        type            calculated;
        value           nonuniform List<scalar> 10(166.0239819 483.7844576 238.2499456 406.5375704 138.086326 801.877306 1e-300 361.2908655 129.5152411 1e-300);
    }
    frontAndBack
    {
        type            empty;
    }
    procBoundary0to1
    {
        type            processor;
        value           nonuniform List<scalar> 
21
(
5.832814549e+20
6.730170638e+20
5.384136507e+20
6.281492591e+20
4.486780422e+20
3.589424343e+20
3.589424338e+20
2.916407275e+20
4.935458468e+20
4.486780422e+20
2.01905119e+20
1.346034132e+20
2.692068246e+20
3.589424328e+20
2.019051199e+20
2.019051184e+20
1.570373143e+20
2.916407287e+20
2.243390221e+20
3.589424328e+20
1.570373155e+20
)
;
    }
    procBoundary0to2
    {
        type            processor;
        value           nonuniform List<scalar> 
31
(
1.666239693e+20
2.291079578e+20
2.291079578e+20
1.666239693e+20
1.041399808e+20
2.291079578e+20
1.666239693e+20
2.707639501e+20
1.666239693e+20
2.291079578e+20
2.082799616e+20
1.874519654e+20
1.24967977e+20
2.291079578e+20
1.24967977e+20
1.666239693e+20
1.457959731e+20
1.666239693e+20
1.666239693e+20
1.666239693e+20
1.504220205e+20
1.947671882e+20
1.525643084e+20
1.756097144e+20
1.326587145e+20
2.227066471e+20
3.553315781e+20
1.683646482e+20
2.331042402e+20
1.504220205e+20
2.347294393e+20
)
;
    }
}


// ************************************************************************* //
