/*--------------------------------*- C++ -*----------------------------------*\
| =========                 |                                                 |
| \\      /  F ield         | OpenFOAM: The Open Source CFD Toolbox           |
|  \\    /   O peration     | Version:  2406                                  |
|   \\  /    A nd           | Website:  www.openfoam.com                      |
|    \\/     M anipulation  |                                                 |
\*---------------------------------------------------------------------------*/
FoamFile
{
    version     2.0;
    format      ascii;
    arch        "LSB;label=32;scalar=64";
    class       volScalarField;
    location    "0.005";
    object      iDofMean;
}
// * * * * * * * * * * * * * * * * * * * * * * * * * * * * * * * * * * * * * //

dimensions      [0 -3 0 0 0 0 0];

internalField   nonuniform List<scalar> 
654
(
1.521276839e+20
1.961997238e+20
1.974160788e+20
1.97341098e+20
1.978076451e+20
1.985657842e+20
1.981575555e+20
1.985824466e+20
1.981742179e+20
1.97507722e+20
1.97299442e+20
1.97466066e+20
1.964496598e+20
1.964080038e+20
1.970495061e+20
1.98557453e+20
1.989573505e+20
2.034228729e+20
2.129037767e+20
2.731633352e+20
1.535356565e+20
1.981325619e+20
2.002570175e+20
1.994655536e+20
1.999737567e+20
2.00448635e+20
1.993239232e+20
1.991572993e+20
1.996321776e+20
1.999404319e+20
2.001903679e+20
2.005069534e+20
2.007902142e+20
2.017149772e+20
2.010234877e+20
2.026813962e+20
2.055140037e+20
2.107126715e+20
2.2328445e+20
2.599667169e+20
1.56035016e+20
2.020565563e+20
2.024731163e+20
2.016733212e+20
2.003653231e+20
2.011651181e+20
2.019232572e+20
2.012400989e+20
2.012151053e+20
1.995571968e+20
1.992739361e+20
1.996155152e+20
1.999071071e+20
2.011734493e+20
2.027230522e+20
2.021981867e+20
2.031062873e+20
2.072135682e+20
2.158280274e+20
2.370059339e+20
1.562349648e+20
1.980575811e+20
1.99815464e+20
1.999570943e+20
1.985741154e+20
1.979742691e+20
1.975577092e+20
1.977826515e+20
1.98265861e+20
1.99773808e+20
2.00740227e+20
2.009151822e+20
2.01914926e+20
1.999154383e+20
1.997404832e+20
1.988823697e+20
2.004652974e+20
2.036144905e+20
2.103794236e+20
2.261587135e+20
1.554601633e+20
1.997488144e+20
1.984991346e+20
1.981075683e+20
1.989906753e+20
1.995155408e+20
1.994905472e+20
1.987990577e+20
1.975827028e+20
1.975327156e+20
1.959247943e+20
1.960081063e+20
1.974910596e+20
1.980575811e+20
1.989323569e+20
2.025730906e+20
2.043476359e+20
2.073551986e+20
2.112292058e+20
2.185773229e+20
1.544437571e+20
1.98349173e+20
2.001403807e+20
1.992322801e+20
1.988157201e+20
1.99607184e+20
1.986324338e+20
1.99482216e+20
1.997488144e+20
2.003486607e+20
2.00865195e+20
1.997988016e+20
1.987990577e+20
1.988240513e+20
2.000820623e+20
1.990906497e+20
2.001820367e+20
2.033145673e+20
2.068053395e+20
2.119290265e+20
1.555518065e+20
1.993489168e+20
2.011651181e+20
2.005985966e+20
2.016816524e+20
2.010651437e+20
2.012484301e+20
2.006069278e+20
2.021731931e+20
2.024731163e+20
2.012650925e+20
2.022981611e+20
2.020898811e+20
2.013983917e+20
2.016483276e+20
2.006902398e+20
2.032895737e+20
2.023398171e+20
2.06030538e+20
2.097879085e+20
1.547270179e+20
1.985241282e+20
2.002986735e+20
2.008485326e+20
2.004153102e+20
2.008485326e+20
2.028563514e+20
2.042476615e+20
2.03847764e+20
2.023231547e+20
2.018899324e+20
2.001153871e+20
2.015316908e+20
2.016483276e+20
2.021065435e+20
2.037394584e+20
2.034062105e+20
2.043476359e+20
2.04814183e+20
2.057556085e+20
1.555268129e+20
2.015316908e+20
2.019899068e+20
2.010734749e+20
2.002153615e+20
1.989240257e+20
1.999071071e+20
1.9964884e+20
1.986490962e+20
1.992739361e+20
2.023648107e+20
2.018232828e+20
2.001320495e+20
1.995155408e+20
1.978659635e+20
1.988907009e+20
2.00698571e+20
2.01748302e+20
2.025980842e+20
2.05064119e+20
1.547353491e+20
1.967245893e+20
1.989323569e+20
1.993489168e+20
2.002486863e+20
2.009318445e+20
2.002153615e+20
1.994905472e+20
1.997071584e+20
1.996821648e+20
1.98474141e+20
1.986657586e+20
1.998071328e+20
2.002153615e+20
2.015316908e+20
2.021898555e+20
2.024064667e+20
1.999404319e+20
2.025480971e+20
2.035811657e+20
1.561849776e+20
1.993072608e+20
2.004319726e+20
1.9964884e+20
1.98724077e+20
1.970411749e+20
1.957665015e+20
1.963413542e+20
1.980242563e+20
1.987490706e+20
1.999570943e+20
2.010318189e+20
2.022565051e+20
2.013317421e+20
2.006069278e+20
1.973577604e+20
1.987657329e+20
1.999654255e+20
2.028980074e+20
2.032479177e+20
1.555684689e+20
1.99773808e+20
2.007652206e+20
1.99565528e+20
2.009735005e+20
2.014650412e+20
2.025397659e+20
2.025231035e+20
2.034228729e+20
2.007985454e+20
2.000237439e+20
1.978826259e+20
1.969828565e+20
1.992156177e+20
2.008402014e+20
2.028313578e+20
2.043393047e+20
2.024981099e+20
2.016316652e+20
2.039144136e+20
1.556684433e+20
1.993239232e+20
2.002903423e+20
1.998487887e+20
1.994905472e+20
1.990989809e+20
1.988073889e+20
1.980742435e+20
1.972327924e+20
1.983408418e+20
2.002070303e+20
2.007735518e+20
2.011401245e+20
2.012984173e+20
1.991739617e+20
2.007485582e+20
2.00448635e+20
2.024314603e+20
2.029063386e+20
2.021565307e+20
1.553851825e+20
2.009401757e+20
2.0187327e+20
2.025730906e+20
2.025980842e+20
2.023148235e+20
2.016899836e+20
2.022898299e+20
2.018982636e+20
2.011484557e+20
1.999071071e+20
1.996405088e+20
1.991156433e+20
1.989990065e+20
1.989073633e+20
1.969661941e+20
1.963413542e+20
1.966995957e+20
1.96582959e+20
1.995405344e+20
1.535856437e+20
1.992322801e+20
2.004569662e+20
1.988740385e+20
2.000237439e+20
2.006235902e+20
2.010568125e+20
2.008318702e+20
2.014567101e+20
2.013733981e+20
2.014317165e+20
2.010068253e+20
2.022148491e+20
2.009568381e+20
2.011401245e+20
1.995821904e+20
1.998987759e+20
1.994738848e+20
1.984991346e+20
1.981242307e+20
1.555768001e+20
1.997904704e+20
2.002570175e+20
2.002153615e+20
1.996238464e+20
2.007902142e+20
2.010984685e+20
2.000320751e+20
2.004652974e+20
1.997071584e+20
1.992072865e+20
1.978409699e+20
1.958164887e+20
1.968412261e+20
1.977076707e+20
1.999820879e+20
2.007235646e+20
1.99565528e+20
2.00865195e+20
1.998904447e+20
1.561349904e+20
1.994905472e+20
1.998071328e+20
2.004652974e+20
1.99732152e+20
1.998071328e+20
1.971161557e+20
1.989156945e+20
1.99398904e+20
1.997821392e+20
2.011067997e+20
2.01581678e+20
2.023898043e+20
2.035561721e+20
2.01581678e+20
2.012317677e+20
2.012734237e+20
2.017233084e+20
2.010984685e+20
2.017566332e+20
1.544104323e+20
1.982741922e+20
1.996821648e+20
1.999820879e+20
1.998737823e+20
1.991739617e+20
2.012567613e+20
2.004819598e+20
1.997404832e+20
1.98599109e+20
1.986324338e+20
1.994322288e+20
2.002070303e+20
2.00406979e+20
2.005069534e+20
2.006069278e+20
2.020898811e+20
2.011651181e+20
2.008068766e+20
2.00865195e+20
1.559267104e+20
2.000154127e+20
2.013234109e+20
2.000404063e+20
2.005069534e+20
2.020065691e+20
2.016816524e+20
2.021565307e+20
2.017316396e+20
2.018816012e+20
2.017982892e+20
2.004652974e+20
1.988323825e+20
1.984574786e+20
1.972077988e+20
1.980325875e+20
1.978243075e+20
1.98599109e+20
1.993739104e+20
1.987574017e+20
1.548519858e+20
1.998487887e+20
2.02589753e+20
2.021815243e+20
2.016150028e+20
2.018982636e+20
2.01789958e+20
2.022565051e+20
2.022481739e+20
2.016150028e+20
2.018566076e+20
2.024064667e+20
2.039810632e+20
2.035561721e+20
2.047392022e+20
2.033062361e+20
2.030229754e+20
2.037144648e+20
2.035811657e+20
2.041226936e+20
1.547770051e+20
1.987074146e+20
1.989823441e+20
1.987407394e+20
1.98474141e+20
1.988657073e+20
1.979326131e+20
1.946917769e+20
1.963246918e+20
1.97174474e+20
1.990823185e+20
1.993739104e+20
1.987157458e+20
1.988823697e+20
1.997154896e+20
2.011817805e+20
2.010651437e+20
1.997404832e+20
1.996655024e+20
1.986490962e+20
1.543104579e+20
1.977576579e+20
1.98349173e+20
1.965746278e+20
1.975160532e+20
1.966579397e+20
1.990489937e+20
2.011734493e+20
2.020982123e+20
2.017233084e+20
1.989323569e+20
1.989740129e+20
1.983824978e+20
1.985074658e+20
1.986157714e+20
1.981908803e+20
1.982491986e+20
1.978076451e+20
1.99690496e+20
1.998821135e+20
4.817794562e+20
5.522360447e+20
5.787512077e+20
6.025205978e+20
6.11968352e+20
6.220690878e+20
6.212505846e+20
6.216496089e+20
6.03234549e+20
6.119355083e+20
3.284517899e+20
3.955643217e+20
4.365915275e+20
4.719854225e+20
5.033980357e+20
5.19595578e+20
5.317781562e+20
5.407549943e+20
5.521078805e+20
5.467715434e+20
2.721756285e+20
3.152543846e+20
3.524536112e+20
3.887717021e+20
4.198063703e+20
4.507691813e+20
4.721473059e+20
4.917950059e+20
5.040412064e+20
5.115571683e+20
2.460901102e+20
2.741649925e+20
3.015436454e+20
3.304051596e+20
3.610214442e+20
3.931613751e+20
4.231785219e+20
4.415179445e+20
4.570977094e+20
4.73652497e+20
2.314671707e+20
2.485651477e+20
2.69273542e+20
2.964504796e+20
3.180437246e+20
3.384101545e+20
3.646984427e+20
3.84927714e+20
4.134795245e+20
4.381708743e+20
2.205145973e+20
2.333870747e+20
2.482772071e+20
2.625640837e+20
2.812805824e+20
3.02616273e+20
3.276732639e+20
3.509384532e+20
3.735050314e+20
3.957497121e+20
2.149128995e+20
2.230326488e+20
2.32197253e+20
2.462866643e+20
2.582445248e+20
2.774263836e+20
2.947542454e+20
3.173443153e+20
3.384477555e+20
3.606689608e+20
2.100720293e+20
2.154646581e+20
2.197028657e+20
2.309310908e+20
2.397898914e+20
2.524355891e+20
2.700213914e+20
2.854448107e+20
3.01975453e+20
3.208935536e+20
2.081239762e+20
2.127287324e+20
2.170836215e+20
2.23616068e+20
2.297588919e+20
2.376332827e+20
2.457331532e+20
2.599111582e+20
2.768322047e+20
2.915319093e+20
2.065855996e+20
2.085111981e+20
2.111670122e+20
2.139537507e+20
2.177509167e+20
2.286047417e+20
2.372331418e+20
2.446067715e+20
2.536788371e+20
2.644062397e+20
2.057578859e+20
2.075010101e+20
2.127775505e+20
2.153279849e+20
2.189027196e+20
2.211776194e+20
2.26344409e+20
2.351765297e+20
2.433314574e+20
2.52558246e+20
2.030155622e+20
2.040916261e+20
2.03911113e+20
2.058193085e+20
2.089662707e+20
2.130320229e+20
2.170772179e+20
2.234458023e+20
2.30392812e+20
2.371202223e+20
2.027563791e+20
2.047566669e+20
2.065896933e+20
2.072276853e+20
2.073503076e+20
2.111709138e+20
2.160920871e+20
2.175453127e+20
2.222210331e+20
2.285593778e+20
2.007748824e+20
2.015914097e+20
2.015376865e+20
2.022599561e+20
2.040840019e+20
2.056481818e+20
2.067725866e+20
2.09967755e+20
2.140669442e+20
2.180208977e+20
1.976312447e+20
1.979463169e+20
1.997576191e+20
2.036256561e+20
2.050037265e+20
2.077343562e+20
2.08542334e+20
2.10283854e+20
2.119001867e+20
2.150900797e+20
2.034921242e+20
2.0588471e+20
2.044197053e+20
2.035744424e+20
2.044622058e+20
2.046786754e+20
2.058223304e+20
2.0755312e+20
2.106620372e+20
2.106983047e+20
2.002983204e+20
2.007495869e+20
1.997406647e+20
2.00262622e+20
1.983593695e+20
2.001514189e+20
2.015854015e+20
2.021443437e+20
2.019684709e+20
2.066272272e+20
2.006160286e+20
1.985103384e+20
1.985539549e+20
1.999894823e+20
2.0194371e+20
2.017095564e+20
2.017074516e+20
2.027589762e+20
2.038080051e+20
2.059412907e+20
1.992615896e+20
2.027615458e+20
2.027498299e+20
2.030793766e+20
2.014537654e+20
2.009651129e+20
2.024920694e+20
2.020214154e+20
2.015881812e+20
2.04195272e+20
2.021711268e+20
2.017766126e+20
2.011816741e+20
2.001345877e+20
2.01668654e+20
2.022116244e+20
2.03468481e+20
2.049189757e+20
2.031270237e+20
2.01932571e+20
1.984087925e+20
1.988133935e+20
1.988506317e+20
1.992212782e+20
1.990727997e+20
1.974852725e+20
1.967730873e+20
1.970867838e+20
2.005976642e+20
2.010061114e+20
1.99269949e+20
1.98434573e+20
1.974435297e+20
1.981713974e+20
)
;

boundaryField
{
    flow
    {
        type            calculated;
        value           nonuniform List<scalar> 
42
(
1.521276839e+20
1.535356565e+20
1.56035016e+20
1.562349648e+20
1.554601633e+20
1.544437571e+20
1.555518065e+20
1.547270179e+20
1.555268129e+20
1.547353491e+20
1.561849776e+20
1.555684689e+20
1.556684433e+20
1.553851825e+20
1.535856437e+20
1.555768001e+20
1.561349904e+20
1.544104323e+20
1.559267104e+20
1.548519858e+20
1.547770051e+20
1.543104579e+20
1.521276839e+20
1.961997238e+20
1.974160788e+20
1.97341098e+20
1.978076451e+20
1.985657842e+20
1.981575555e+20
1.985824466e+20
1.981742179e+20
1.97507722e+20
1.97299442e+20
1.97466066e+20
1.964496598e+20
1.964080038e+20
1.970495061e+20
1.98557453e+20
1.989573505e+20
2.034228729e+20
2.129037767e+20
2.731633352e+20
)
;
    }
    obstacle
    {
        type            calculated;
        value           nonuniform List<scalar> 10(278.4837643 283.219111 295.2546105 276.1620308 304.4958357 299.3211867 279.1708985 281.4016939 285.4337581 272.2149589);
    }
    frontAndBack
    {
        type            empty;
    }
    procBoundary0to1
    {
        type            processor;
        value           nonuniform List<scalar> 
21
(
6.124275805e+20
5.445066989e+20
5.096174939e+20
4.811084911e+20
4.490639053e+20
4.192716839e+20
3.799315926e+20
3.435796976e+20
3.115171649e+20
2.795264203e+20
2.63697059e+20
2.48163826e+20
2.323883045e+20
2.212521155e+20
2.19457405e+20
2.111119918e+20
2.084019765e+20
2.085276078e+20
2.045971881e+20
2.032332054e+20
2.006847156e+20
)
;
    }
    procBoundary0to2
    {
        type            processor;
        value           nonuniform List<scalar> 
31
(
1.547270179e+20
1.992905985e+20
2.015900092e+20
2.002653487e+20
2.001653743e+20
1.993405856e+20
1.996155152e+20
1.981658867e+20
1.969162069e+20
1.97341098e+20
1.986990834e+20
2.003070047e+20
1.998071328e+20
1.989406881e+20
1.989240257e+20
1.977326643e+20
1.98640765e+20
1.968995445e+20
1.950416872e+20
1.945584777e+20
1.995025769e+20
1.997012903e+20
1.999115517e+20
2.007570255e+20
2.009425769e+20
2.021018281e+20
1.972466492e+20
1.98131518e+20
2.003594519e+20
1.995025769e+20
1.985896412e+20
)
;
    }
}


// ************************************************************************* //
