/*--------------------------------*- C++ -*----------------------------------*\
| =========                 |                                                 |
| \\      /  F ield         | OpenFOAM: The Open Source CFD Toolbox           |
|  \\    /   O peration     | Version:  2406                                  |
|   \\  /    A nd           | Website:  www.openfoam.com                      |
|    \\/     M anipulation  |                                                 |
\*---------------------------------------------------------------------------*/
FoamFile
{
    version     2.0;
    format      ascii;
    arch        "LSB;label=32;scalar=64";
    class       volScalarField;
    location    "0.005";
    object      internalE;
}
// * * * * * * * * * * * * * * * * * * * * * * * * * * * * * * * * * * * * * //

dimensions      [1 -1 -2 0 0 0 0];

internalField   nonuniform List<scalar> 
654
(
0.1912356551
0.551863172
0.3662377499
0.1030846544
0.6129136249
0.5634791082
0.5039893489
0.2179872638
0.2493723531
0.4564712673
0.3735893503
0.4865088526
0.6234174522
0.3536170906
0.1611157715
0.5059784839
0.1285165428
0.5197361121
0.2912437774
0.6800353708
0.5106532669
0.4123922296
0.5451767316
0.5208200183
0.4740828432
0.2420052306
0.2207374923
0.4649994048
0.2770156228
0.5968837018
0.1991161815
0.3521803891
0.3635334284
0.2980944535
0.4360738157
0.2949048007
0.347899439
0.6737255088
1.14106278
0.9311873819
0.2964307607
0.2226962243
0.3239573964
0.8415237463
0.7973023376
0.6051914504
0.5096255079
0.2242526594
0.5687325803
0.330092879
0.4542576865
0.6658801942
0.5039545066
0.3622003355
0.43734252
0.6520156804
0.2390594809
0.874611844
0.3809954973
1.367782054
0.144690776
0.1946484607
0.1789488803
0.6870099331
0.648059717
0.2751614539
0.1995160674
0.2140473823
0.6096227003
0.2481288901
0.2688458612
0.2893651303
0.3754655663
0.4229908962
0.3955012967
0.660830937
1.107786089
0.5285069109
0.6365118432
0.580079702
0.1872123625
0.4752444769
0.3038878413
0.5391217175
0.4419326375
0.4117834027
0.4568301077
0.6317877399
0.08557227581
0.2873463528
0.3800155317
0.2816583662
0.1077167984
0.1661034624
0.4080555162
0.5214791789
0.3037737379
0.7527445809
0.2566724716
0.8537199278
0.1790910369
0.8685530321
0.3856681366
0.3182633933
0.2945763554
0.2830452452
0.354187396
0.4948596232
0.3562109686
0.4252775375
0.4310934001
0.3319176423
0.3409987016
0.2229379216
0.3752249094
0.4579827278
0.5662094523
0.3988610178
0.7504722612
0.2453564891
0.4456613968
0.4128830887
0.1996492571
0.3400960045
0.716868646
0.68895608
0.3122460654
0.5485538405
0.2310058347
0.2777053113
0.4466569934
0.7022192242
0.2150477648
0.4492066699
0.4953334054
0.1035136248
0.5669236277
0.2066066516
0.9071928954
0.3526062185
0.35384071
0.2484311345
0.5125430406
0.2404135795
0.5783167117
0.1920285184
0.3345790756
0.5750043922
0.8064627423
0.2642202703
0.3378022671
0.4934378006
0.4010007102
0.197369628
0.7683326802
0.3515543627
0.07463101103
0.3970427396
0.4121351967
0.3552833388
0.2814771904
0.304549897
0.596601773
0.4705148968
0.1765665592
0.6667987933
0.2321519431
0.6291808091
0.1694096674
0.08542821473
0.3820631292
0.5588313043
0.5137206931
0.6425737529
0.5876238179
0.4195105357
0.7439611299
0.3695732121
0.3538865985
0.4588194672
0.1586203165
0.6010143203
0.2491755341
0.6393656183
0.142954506
0.3373161394
0.2133629941
0.4240931551
0.5256946409
0.4340756317
0.4221705398
0.1946368878
0.532232987
0.8866569377
0.2158873388
0.7613055358
0.5265160807
0.4047807909
0.3389039427
0.2523189852
0.3399651472
0.396473882
0.6774767638
0.4133106841
0.4997931827
0.1932918833
0.5324671419
0.5044335237
0.5300507995
0.4819072634
0.3234700197
0.2290987651
0.6674378923
0.3887343759
0.3753451397
0.5485330256
0.5373915779
0.5291507723
0.1902394021
0.1844178807
0.1557846535
0.4954207859
0.5861205126
0.3953435799
0.2876567716
0.5437106222
0.08003375977
0.631047841
0.3199037368
0.1665550952
0.3066123314
0.5080823353
0.3489006998
0.319067393
0.324729093
0.2607465582
0.4518901832
0.4177108751
0.3187997938
1.219799472
0.2054797349
0.4573469914
0.274404452
0.1960083293
0.5873114278
0.258513275
0.3469830515
0.3260681288
0.2766685863
0.2835590556
0.7803177437
0.4667017755
0.1542405299
0.4518242288
0.2384393634
0.7152047857
0.4650271357
0.4587533916
0.3367690944
0.4816824725
0.25449852
0.3293605509
0.32393343
0.09900846551
0.3807856641
0.3419048943
0.5044303314
0.5728057368
0.07809551667
0.3351472991
0.5418424704
0.3096473954
0.4692697613
0.3619821053
0.2480522088
0.1752356446
0.3638659891
0.4408521021
0.1384847453
1.033573415
0.2288619422
0.3875899991
0.4583781982
0.4327016904
0.3062936992
0.4125962144
0.6018740815
0.3567204947
0.276907961
0.3769642691
0.486557106
0.1993162192
0.5030218705
0.3423898849
0.4582565964
0.1104018639
0.2358410342
0.5157715521
0.4379272323
0.3194204792
0.2840932355
0.1621431518
0.4576160378
0.3453709207
0.7079153553
0.1362252544
0.1773408153
0.5483849446
0.3269914762
0.5998035963
0.7548914901
0.4696154136
0.8235117205
0.6488552527
0.1688755042
0.352959397
0.6786570738
0.4095816279
0.6421483787
0.2937279619
0.2498633996
0.468862248
1.19363219
0.4537738401
0.221311165
0.355448656
0.2603591631
0.3928484789
0.431937852
0.3586056243
0.9472911329
0.09923394847
0.3400809563
0.2226674528
0.428820895
0.4338056114
0.4729248761
0.1742280401
0.1885113619
0.7439368385
0.4636656005
0.1590306056
0.2791449656
0.5104993894
0.3815338421
0.4256994082
0.3903048353
0.2291006424
0.4385573311
0.2865774885
0.4203350053
0.6711624044
0.4488236748
0.4829848133
0.1964804378
0.1123610339
0.4126267909
0.3087015316
0.5485282955
0.8234245737
0.5913427937
0.3566759086
0.3319113587
0.6129037808
0.2620245476
0.2047330831
0.316667002
0.3370132497
0.4454653519
0.279328557
0.4136500676
0.3072603228
0.3105595351
0.5069531804
0.53566323
0.3633559598
0.5104654276
0.2503667422
0.3846635544
0.6103742317
0.04808830415
0.5313379627
0.36854013
0.4823590413
0.6824675235
0.4772965796
0.3669450602
0.4961411799
0.6102891822
0.3765771845
0.3367006821
0.518916984
0.2890632658
0.6844598848
0.1264145076
0.2505608139
0.3252976362
0.5056854606
0.6386138227
0.5488841488
0.1072120458
0.3532873838
0.1655876972
0.3996638586
0.353602853
0.0936472807
0.319233949
0.4766928519
0.4075287977
0.3099149041
0.3169736163
0.3306058238
0.3203858487
0.335738499
0.2501771093
0.1776316779
0.6147774557
0.3160028322
0.9072892598
0.4308711148
0.2699449151
0.2382948896
0.3035672866
0.285378308
0.349922764
0.3621112859
0.2931654392
0.6932713941
0.3153309149
0.7666785639
0.2683192028
0.524154469
0.7138450804
0.4561709782
0.4867955738
0.4147709793
0.2478059907
0.3037639284
0.2402278991
0.1607214071
1.398134218
3.724551945
2.214029617
2.724056653
2.28802428
3.145748188
2.750719117
3.892814016
2.125526785
2.218984936
1.127670407
1.242553996
0.9463136154
1.248787703
2.839152705
1.280809444
2.5896373
4.497375675
2.202780455
3.371646131
1.00611496
1.262087819
2.487605807
1.204082522
1.162401905
2.120670985
2.32200929
1.446973294
2.638289424
1.789070634
0.7618509716
0.4757687881
1.402182546
0.5602249098
1.772058995
2.06584265
1.767071164
3.566417682
2.203329725
1.560768505
0.4856783195
0.6715653435
0.8824708766
1.283882842
0.5855870329
1.462909409
1.23646493
2.391488513
1.705068372
1.790845992
0.4360643596
0.8941115314
0.3635737643
1.265823058
0.574258713
0.8194032503
1.564942683
0.8334378491
2.319981503
1.101890082
0.4640665108
0.4468693798
0.4256363809
0.568792081
1.062326781
1.481559738
1.231914552
0.3985432812
0.6839313382
1.034356472
0.4735289295
0.4579094193
0.1370793285
0.2874869678
0.4774105146
0.3493887665
0.5036866954
0.07118751428
0.9088812335
1.691765258
0.4670658847
0.3310316289
0.5513529798
0.3619170977
0.6657074469
1.306295935
0.5192424138
1.045636929
0.8377595248
0.4698227418
0.803422961
0.7347080596
0.2456765253
0.8424272674
1.017070127
1.101128935
0.6443778297
0.9080061144
0.4003991248
0.6289901549
0.4008443963
0.8456523993
0.3425134147
0.6966334736
0.3630902824
0.5656958207
0.4232778048
0.00179397888
1.194216099
0.6234432562
0.3176026664
0.6468101798
0.3085357196
0.4115217411
0.2397481504
0.5546518621
0.4496335673
0.3711580944
0.3409664558
0.3455383976
0.3437850096
0.3077534208
0.5914769959
0.2616883515
0.2516551184
0.4757522399
0.5518612335
0.5573261645
0.7579451839
0.9275368919
0.4844823479
0.2310574393
0.288847825
0.3916823871
0.2124155548
0.5836897737
0.2949203947
0.619090313
0.2747886837
0.8338588529
0.6693975002
0.5685658305
0.7706925312
0.3250375094
0.5195839158
0.2825242901
0.617497014
0.4153657147
0.7058097576
0.222448699
0.5459090929
0.287202108
0.5757649397
0.3173254474
0.5105299034
0.1758118804
0.2420149088
0.4952949702
0.7505836745
0.2798082813
0.3388921025
0.5357997088
0.8122666908
0.4135943803
0.7037904778
0.4833897714
0.3940923464
0.2897347517
0.9343968499
0.2854813232
0.07892078168
0.9587752195
0.2930765063
0.4182981989
0.4866026907
0.2418658583
0.4475723866
0.3849819538
0.855773095
0.1849612032
0.4924054013
0.4191385229
0.6778137628
0.4662638957
0.5724978494
0.280938603
0.3603316792
0.3680043751
0.1118589372
0.2462884967
0.3409219584
0.5743596722
0.3358825126
0.4052299235
0.6960816038
0.3925806963
0.5881711917
0.3835905992
0.389592054
0.2063741614
0.5136616921
0.2083526744
0.1795883129
0.1663905743
0.2621702128
0.5254756391
0.4268052679
0.2978533341
0.3206946422
0.3606969947
0.3719322276
0.373466393
0.2342190324
0.3921969748
)
;

boundaryField
{
    flow
    {
        type            zeroGradient;
    }
    obstacle
    {
        type            calculated;
        value           nonuniform List<scalar> 10(4.027112492e-19 2.196546922e-18 1.117273848e-18 1.560091221e-18 8.903909861e-20 1.921479455e-18 0 4.045905647e-19 4.887912769e-19 0);
    }
    frontAndBack
    {
        type            empty;
    }
    procBoundary0to1
    {
        type            processor;
        value           nonuniform List<scalar> 
21
(
3.302884526
4.134487273
2.146197033
2.704469113
2.18309309
2.247085445
1.55191634
1.551419745
1.325729232
1.27536737
1.118384754
0.6289343378
0.6373658286
0.6913197107
0.2792927871
0.4163836051
0.3824657311
0.764029651
0.4851841497
0.8935801496
1.02065218
)
;
    }
    procBoundary0to2
    {
        type            processor;
        value           nonuniform List<scalar> 
31
(
0.3373744218
0.6376545678
0.6735869734
0.1998139251
0.1822138422
0.7719970059
0.5034844442
0.5619489555
0.2005075026
0.3466334337
0.4335127223
0.308744047
0.2147828777
0.4617895679
0.2493462661
0.2471776753
0.2776195455
0.5034291723
0.452764149
0.2963860442
0.2392926121
0.7246531723
0.1645159658
0.636544953
0.5932612964
0.255945068
0.4554698988
0.3883845658
0.328235138
0.2392926121
0.3125376932
)
;
    }
}


// ************************************************************************* //
