/*--------------------------------*- C++ -*----------------------------------*\
| =========                 |                                                 |
| \\      /  F ield         | OpenFOAM: The Open Source CFD Toolbox           |
|  \\    /   O peration     | Version:  2406                                  |
|   \\  /    A nd           | Website:  www.openfoam.com                      |
|    \\/     M anipulation  |                                                 |
\*---------------------------------------------------------------------------*/
FoamFile
{
    version     2.0;
    format      ascii;
    arch        "LSB;label=32;scalar=64";
    class       volScalarField;
    location    "0.005";
    object      internalEMean;
}
// * * * * * * * * * * * * * * * * * * * * * * * * * * * * * * * * * * * * * //

dimensions      [1 -1 -2 0 0 0 0];

internalField   nonuniform List<scalar> 
654
(
0.3121853375
0.4042694208
0.4077968812
0.4080687572
0.4080454652
0.4103344771
0.4090561736
0.4091655599
0.4092277695
0.4063669902
0.4056946186
0.410582765
0.4059709819
0.4080910161
0.4133852462
0.4160811679
0.4233757296
0.4341883576
0.4918677732
0.8102749937
0.3201335961
0.4114421451
0.4133562095
0.4110673925
0.4146469953
0.4178896501
0.4137429536
0.4124775386
0.4136476698
0.4199055828
0.4200662259
0.4189731931
0.4201533721
0.4222783318
0.4171689462
0.4234118317
0.4387768309
0.4677390511
0.5371195814
0.7644785644
0.3241758054
0.4189399626
0.4205004707
0.4146894931
0.4099590524
0.4127784379
0.4113640325
0.4103088888
0.4092681999
0.4062470327
0.4039629619
0.4065435397
0.408468579
0.4124196753
0.4231195347
0.4242766914
0.4310008706
0.450752702
0.5082589803
0.6421957481
0.3219426351
0.407432164
0.4142964523
0.4130027445
0.413297661
0.4072384103
0.4066355102
0.4088129527
0.4108813756
0.4070497578
0.409610535
0.4133387301
0.4173456772
0.4142822163
0.4167634612
0.4210523143
0.4267293115
0.4379672603
0.478446613
0.5709342346
0.318347052
0.4123168227
0.4063707098
0.4103729875
0.4093998575
0.4117226298
0.4109232055
0.4116788903
0.4088608223
0.4103213533
0.4125326648
0.4119231646
0.4148004962
0.4186956528
0.4212636521
0.4295408015
0.434615549
0.4521643854
0.4836748302
0.5287698192
0.3177529385
0.4068338567
0.4098349937
0.4072610265
0.4065910864
0.4102006642
0.4102182654
0.4100777345
0.4099786139
0.4155013497
0.4156734715
0.412475017
0.4107919355
0.4118456004
0.4112815318
0.4170800676
0.426457543
0.4489078151
0.4580016154
0.4875393248
0.32265543
0.4138360852
0.418235552
0.4131019338
0.416438493
0.4127226896
0.4122710587
0.4091535494
0.4155957591
0.4142371136
0.4151201069
0.4134768595
0.4161660754
0.4165592872
0.4213326796
0.4194318202
0.4258238192
0.4220202576
0.4381719311
0.4622000582
0.3211824692
0.4130843276
0.4147497606
0.4179135205
0.4138717469
0.4163928245
0.4223279496
0.4238135892
0.4228409638
0.4191677033
0.4131890743
0.4124901048
0.4145916021
0.4168556128
0.4177511653
0.4230921516
0.4284326006
0.4386708516
0.4482388462
0.4533811537
0.3268613286
0.424048993
0.424677866
0.4204040907
0.4176097813
0.4111015279
0.4108117234
0.4110225989
0.4127671254
0.415975305
0.4212218685
0.4207406738
0.4201951383
0.4151769371
0.4120581412
0.4190560362
0.4243579474
0.4309874554
0.4351568413
0.4454449773
0.3233624998
0.4102884413
0.4139947192
0.4156289633
0.4194502172
0.4246485974
0.4241663481
0.4214062677
0.4164557358
0.4171531669
0.4142801023
0.4132105003
0.4204883113
0.4237884876
0.423420257
0.4243885487
0.425351794
0.4241497422
0.4355728358
0.4425460927
0.3258385586
0.4151065185
0.4196773035
0.416538629
0.4151759578
0.4113905552
0.4084300748
0.4068761536
0.4124404295
0.4123404524
0.4129939718
0.4126824861
0.4174225434
0.4124666233
0.4111233837
0.407491817
0.4129688021
0.4150804934
0.422175761
0.4303310345
0.319746917
0.4131138012
0.4144171406
0.4164665754
0.4210842087
0.4202877374
0.4221357825
0.420940046
0.4243854128
0.4195188616
0.4199415127
0.4182909601
0.4153231117
0.4214762825
0.4216473747
0.4206900255
0.4232748579
0.4197288972
0.4181906367
0.4305517948
0.3197939918
0.4080690148
0.4089450892
0.4073060314
0.4030612195
0.4026416039
0.4067148414
0.4078242365
0.4065498174
0.4076428925
0.4075270424
0.4094033485
0.4108079637
0.412573506
0.4084103246
0.4103033846
0.4153358303
0.4215863203
0.4204242387
0.4206897155
0.3171503774
0.408687292
0.411807017
0.4178291226
0.4231889204
0.4226978787
0.4189018251
0.4198517366
0.4172526122
0.4149072282
0.4142907955
0.4127773567
0.4106818835
0.4119426498
0.4122425329
0.410310258
0.4050974422
0.4075209822
0.4083216281
0.4153792623
0.3159440489
0.4136822014
0.417364818
0.4121426597
0.4112088052
0.4155637662
0.4115581035
0.4145124885
0.4114789332
0.4122515738
0.4157241502
0.4120319111
0.4161844666
0.4122865695
0.4130684357
0.4074380869
0.4089618367
0.4102905203
0.4101313408
0.4147138657
0.3243417942
0.412984735
0.4131815738
0.4086509779
0.4048579447
0.4069334358
0.4097957456
0.4105785891
0.4083046568
0.4097404214
0.4067372286
0.4052246366
0.4022875149
0.4033119923
0.4048745141
0.4114953315
0.4165905154
0.4096256582
0.4147404036
0.4209704734
0.3194762277
0.4087389951
0.4085646815
0.4098802632
0.4113874062
0.4095872524
0.4051468342
0.4070154963
0.4109462503
0.4128061857
0.4166720285
0.4158536029
0.4172013015
0.4221359437
0.4179049459
0.4125123957
0.4130992578
0.4164726328
0.4167549217
0.4217749931
0.3233323424
0.4145665718
0.417634868
0.4160407235
0.4134176547
0.4148492586
0.4182856783
0.4180622218
0.4178648485
0.4109156215
0.409491442
0.4115709421
0.4118512275
0.4137283499
0.4125828476
0.4114378378
0.4153749766
0.4115177659
0.4132983011
0.4110637568
0.3188675313
0.4092284923
0.4131383846
0.4123209645
0.4114600133
0.414571471
0.4114237758
0.4096158863
0.4098924141
0.4102277895
0.414316871
0.4098067689
0.4051771215
0.4029131007
0.4011273412
0.4050446092
0.4051552174
0.4097399688
0.4097991135
0.4126889557
0.3159941376
0.4092460863
0.4164249139
0.4134046929
0.4158526069
0.4149172147
0.4130827443
0.414987574
0.4154102667
0.4097058782
0.4134440771
0.4203920707
0.4245182128
0.4250735909
0.4297873793
0.4269641843
0.4269419012
0.4280326008
0.425677836
0.4237507409
0.3233557587
0.4133212479
0.4144646042
0.4097584975
0.407996806
0.4100099646
0.4092056323
0.4053163445
0.4085689717
0.4125789437
0.4150582766
0.4135940309
0.4116223383
0.4113167256
0.4124015458
0.4185796772
0.4192750554
0.4179822521
0.4174160394
0.4162197226
0.3197019426
0.4095011633
0.4118762124
0.4093004057
0.4100959776
0.4095939192
0.4139107284
0.4190085596
0.4181124099
0.4173568446
0.4124469675
0.4104848048
0.4074609514
0.4104395955
0.4099874627
0.4068238965
0.4038705923
0.4033680995
0.4079329586
0.4100666572
1.836483117
2.303376569
2.502793986
2.693345276
2.815027978
2.928292368
2.995508827
2.985074733
2.895024986
2.968211017
1.149274861
1.554965905
1.839269872
2.097630463
2.310559257
2.462364235
2.657629362
2.757927638
2.83146473
2.8393891
0.850794945
1.101122213
1.334337167
1.601032328
1.818272737
2.076563006
2.247949781
2.461182326
2.556656365
2.624802249
0.6879804432
0.8515908081
1.023052849
1.220429225
1.443073917
1.654388271
1.866857085
2.027559143
2.150438369
2.323326719
0.6191596811
0.7223749861
0.839307485
0.9970863014
1.139327455
1.295052499
1.498534952
1.629265269
1.844263425
2.014698932
0.546228161
0.6142689785
0.6969351915
0.7968150347
0.9117953153
1.05679087
1.236259128
1.38833025
1.536577295
1.718928846
0.5054448975
0.5594376032
0.5945106158
0.6828219637
0.7539625024
0.8668034569
0.9796496388
1.129169055
1.250555844
1.40543482
0.4754312837
0.5110579611
0.5391804531
0.5962571929
0.6497172488
0.7203671802
0.8192035731
0.9294267259
1.021756116
1.140648562
0.4676507542
0.4887385418
0.5103589304
0.5501985342
0.5891699052
0.6417430416
0.6910588216
0.7644819459
0.8578474546
0.9612729673
0.4573837172
0.4660187403
0.4825026509
0.5028868738
0.5222273914
0.5779070178
0.6288518994
0.6760899243
0.7221441699
0.784823711
0.4438203749
0.4610908574
0.4742619157
0.4876738796
0.5062747041
0.5360903818
0.5586735145
0.5928355308
0.6499261775
0.7038171463
0.4251156422
0.4376493962
0.4457436063
0.4536363238
0.4695433553
0.480528238
0.5032036781
0.5336038632
0.5639811338
0.6059327274
0.4285637012
0.4337758279
0.4405893518
0.4490782205
0.4505889882
0.4697220738
0.4959369898
0.5033695903
0.5230146068
0.5542427895
0.4232447154
0.4249751633
0.429090205
0.4337946989
0.4436800953
0.4460419949
0.4619370749
0.4739238693
0.4952552276
0.5074577488
0.416531209
0.4168596139
0.4195165633
0.4306266679
0.4427004207
0.4506963473
0.4599731659
0.4690372358
0.479699374
0.4925973118
0.4268283812
0.4351128125
0.4303988855
0.4280914663
0.4352166261
0.4432049574
0.4462704774
0.4566819657
0.4681225235
0.4749659621
0.4220629157
0.4200758594
0.4218737136
0.4220853029
0.4121620957
0.4272804114
0.4304822573
0.4402885513
0.4443833404
0.4548104685
0.4165698135
0.414043181
0.4176874424
0.4175949694
0.4249701678
0.4250064154
0.4270028478
0.4336223766
0.4382105766
0.4471335615
0.410396838
0.419752614
0.4233171791
0.4263373384
0.421178304
0.419620478
0.4228517736
0.4286845604
0.4271227951
0.4384253531
0.4228995303
0.4212531744
0.4183331684
0.416043504
0.420270703
0.4239270998
0.4310164697
0.4370814406
0.4342749772
0.4350061905
0.4148780802
0.4146630009
0.4197247268
0.4179544689
0.4169357241
0.411242437
0.4152435499
0.4165107741
0.4242954817
0.4243160595
0.4097839899
0.4054198741
0.4067161525
0.4125774272
)
;

boundaryField
{
    flow
    {
        type            calculated;
        value           nonuniform List<scalar> 
42
(
0.3121853375
0.3201335961
0.3241758054
0.3219426351
0.318347052
0.3177529385
0.32265543
0.3211824692
0.3268613286
0.3233624998
0.3258385586
0.319746917
0.3197939918
0.3171503774
0.3159440489
0.3243417942
0.3194762277
0.3233323424
0.3188675313
0.3159941376
0.3233557587
0.3197019426
0.3121853375
0.4042694208
0.4077968812
0.4080687572
0.4080454652
0.4103344771
0.4090561736
0.4091655599
0.4092277695
0.4063669902
0.4056946186
0.410582765
0.4059709819
0.4080910161
0.4133852462
0.4160811679
0.4233757296
0.4341883576
0.4918677732
0.8102749937
)
;
    }
    obstacle
    {
        type            calculated;
        value           nonuniform List<scalar> 10(1.022409855e-18 1.120355475e-18 1.174081672e-18 1.122965878e-18 1.273510794e-18 1.261510377e-18 1.201723976e-18 1.211692436e-18 1.242071343e-18 1.141809229e-18);
    }
    frontAndBack
    {
        type            empty;
    }
    procBoundary0to1
    {
        type            processor;
        value           nonuniform List<scalar> 
21
(
3.003311858
2.827374856
2.691742526
2.40613477
2.11850871
1.864621639
1.563928759
1.300097991
1.071765607
0.8741295891
0.7667799374
0.677695205
0.5850004318
0.5334688632
0.5056001091
0.4860478816
0.462209347
0.4609132813
0.4444375981
0.4371707243
0.4241536413
)
;
    }
    procBoundary0to2
    {
        type            processor;
        value           nonuniform List<scalar> 
31
(
0.3222808892
0.4184278883
0.4214298654
0.4156971963
0.4141327179
0.4109941786
0.4109904193
0.4072744737
0.4045507907
0.4037798852
0.4062503729
0.4102811715
0.4094122336
0.4060110847
0.4078318074
0.4042060879
0.4037029415
0.3996398513
0.3977426747
0.396113431
0.4193981723
0.4200358849
0.4189133274
0.4189066683
0.417182813
0.4178464502
0.4028445428
0.4058595267
0.4093139845
0.4193981723
0.4049344487
)
;
    }
}


// ************************************************************************* //
