/*--------------------------------*- C++ -*----------------------------------*\
| =========                 |                                                 |
| \\      /  F ield         | OpenFOAM: The Open Source CFD Toolbox           |
|  \\    /   O peration     | Version:  2406                                  |
|   \\  /    A nd           | Website:  www.openfoam.com                      |
|    \\/     M anipulation  |                                                 |
\*---------------------------------------------------------------------------*/
FoamFile
{
    version     2.0;
    format      ascii;
    arch        "LSB;label=32;scalar=64";
    class       volScalarField;
    location    "0.005";
    object      internalT;
}
// * * * * * * * * * * * * * * * * * * * * * * * * * * * * * * * * * * * * * //

dimensions      [1 2 -2 0 0 0 0];

internalField   nonuniform List<scalar> 
654
(
297.2697011
298.4825175
299.231822
299.5450888
298.8215274
299.3505028
299.0327219
298.472699
299.1330108
298.0442453
297.8652147
301.1997725
299.3574767
300.9845831
303.8967254
303.5556111
308.2565884
309.1895371
334.6658526
429.6911687
302.04274
300.8148826
299.0082153
298.5324326
300.3667917
301.9985865
300.6890287
300.0201848
300.1555904
304.2267663
303.9631844
302.6935709
303.1179875
303.2543576
300.6156369
302.6185184
309.2777417
321.5580419
348.4647922
425.9846613
300.9573312
300.3483435
300.8468839
297.8660319
296.3905264
297.2423766
295.111662
295.3539625
294.641434
294.8962198
293.655032
295.0252375
295.9898499
296.9717321
302.3474698
303.9613155
307.3980996
315.1131651
341.1329091
392.5135058
298.501597
297.9958654
300.3506091
299.2006405
301.4995786
297.9794976
298.1657249
299.4214099
300.2029213
295.1585385
295.5854861
298.0161116
299.4152345
300.1900933
302.2525256
306.680506
308.36116
311.587024
329.440222
365.6951146
296.6389064
299.0151843
296.5583648
300.0710495
298.0309449
298.9333759
298.3903296
299.978877
299.7595128
300.90644
305.010887
304.4307944
304.2553516
306.2339806
306.7573369
307.163118
308.0931485
315.8841411
331.7003426
350.4353869
298.0338657
297.1208249
296.6338543
296.1144118
296.2467069
297.6916066
299.1653068
297.7888303
297.3194981
300.4224571
299.7740368
299.0550693
299.3325779
300.0626293
297.7676076
303.4694446
308.600834
319.8416874
320.81278
333.2465076
300.4763655
300.7190046
301.1720527
298.3154429
299.1099593
297.3500082
296.7541122
295.4519049
297.7789095
296.3657677
298.7801292
296.0776823
298.3104759
299.6175317
302.6752567
302.7481665
303.4319053
302.1331256
308.077056
319.1508027
300.6990637
301.419829
299.9538699
301.4145114
299.1446797
300.3177298
301.5835245
300.5828399
300.4813352
300.1156365
296.4698715
298.5928815
298.0049998
299.4590396
299.4219909
300.8196629
305.1158014
310.9678983
317.0267164
319.1965434
304.442071
304.8028939
304.562449
302.8715975
302.1479591
299.3699809
297.6877699
298.2258659
300.9988982
302.3872311
301.524297
301.9879615
304.1450683
301.4413939
301.671167
305.213698
306.2911569
309.4575905
311.1407396
314.6667019
302.7237629
302.1183006
301.4642182
302.0218212
303.4290424
306.1451061
306.8917495
306.0025654
302.0797507
302.6235121
302.3684978
301.2969446
304.8522036
306.6183608
304.3509637
304.0539805
304.4179686
307.301712
311.5150395
314.8961221
302.2105455
301.7052248
303.315693
302.2281345
302.641239
302.443132
302.2217616
300.1904374
301.7096757
300.5365075
299.1942851
297.3703298
298.9646225
296.7720238
296.8743326
299.0963286
300.9692513
300.6933414
301.4129526
306.7064866
297.7358884
299.555677
299.0168265
302.3020029
303.5124821
302.1992765
301.9174826
301.0870446
302.2087696
302.647665
304.1260735
306.2084791
305.4246372
306.4757786
304.1201184
300.4509044
300.066118
300.2577977
300.4429145
305.8608405
297.5884806
296.5654753
295.7681379
295.2335572
292.6813782
292.9516907
296.3492943
298.2575351
298.5939784
297.7241889
294.8651913
295.386938
295.860194
296.8980696
297.0369994
296.0731765
300.1530037
301.6858222
300.1501265
301.4536298
295.6664376
294.6257861
295.5026114
298.7881376
302.5835772
302.6556336
300.866837
300.6549116
299.373172
298.8000712
300.2088207
299.5115647
298.7765873
299.8694675
300.2260247
301.7637583
298.8781163
300.1185956
300.8866473
301.5505175
297.9929267
300.7831679
301.6067676
300.2035854
297.8017546
300.0558332
296.5232576
298.9863666
295.877722
296.5559364
298.9673756
296.9384564
298.139296
297.1958886
297.4881656
295.7237725
296.3596316
297.9557943
299.3027716
303.2196633
301.9982863
299.437114
298.8818896
295.6661086
293.7897536
293.5805168
295.1923379
297.3329612
295.0472213
297.2087397
295.7706692
296.7057805
297.6005257
296.8051776
296.6492937
298.0713348
300.6473745
297.3363632
299.10113
305.0745645
296.4044403
296.8042734
296.2076236
296.1857787
298.3660534
296.9489831
297.7396185
296.4068884
298.5442105
299.3201373
300.1331666
298.8379929
298.6093641
300.4100488
300.3121155
296.9524136
297.3133285
299.0727089
300.205312
302.8303534
303.3324746
302.8827149
302.9729618
301.3638414
299.626062
301.7200388
301.0709922
302.0730798
303.0512931
299.724162
298.6352467
298.9480745
297.9939449
299.0534645
298.0767684
297.1014015
297.7434113
296.3345648
298.1476822
296.4496179
296.2348719
296.3799356
297.2676608
298.5823195
297.2655597
297.2900118
295.5081024
293.518456
294.3352392
294.3572485
297.4140881
296.1326706
295.1917371
294.0968126
294.6487328
296.2869974
296.6799384
298.8666343
297.7481598
300.7779078
295.602869
296.6397954
297.759501
296.1967809
298.7878825
297.6975555
296.5404225
297.2206589
297.535654
294.3714907
296.701815
300.8683683
301.4760904
302.5006046
304.0878374
304.2195672
304.6281198
304.369674
302.8934207
300.7222613
302.63598
301.3145182
301.7305628
298.6671557
297.7825405
298.6626477
299.4819435
301.5733128
301.4649707
303.1117466
302.0110179
300.5054367
300.0634187
299.5894269
299.1265305
301.3948935
302.0707228
303.1364386
302.8394831
303.5166083
300.1209507
299.9633728
300.8033819
301.6206779
300.7665326
301.7091031
301.2264443
301.7162012
299.6932659
299.7076694
300.3371707
298.8457781
297.5288195
299.5151566
299.0220699
297.3508518
295.1054223
295.3961798
295.922371
297.1850261
552.1855804
604.2081697
626.4401588
647.5398972
666.3465459
681.9023912
698.4739148
695.594184
695.2043931
702.6442826
506.8724336
569.4428658
610.2623145
643.7938067
664.8933554
686.488469
723.9529095
738.8031294
742.9055597
752.2555587
452.8163137
505.9653622
548.4158737
596.5568731
627.4171721
667.3248462
689.6924749
724.9466911
734.772198
743.2737809
404.9751086
449.9511473
491.4669148
535.07194
579.0312145
609.555137
639.0485496
665.2296079
681.4976361
710.5536166
387.4892542
420.9871726
451.5166934
487.2221129
518.9292256
554.3580858
595.2225367
613.1391078
646.1232127
666.0595329
358.8253701
381.2660906
406.6323644
439.6110498
469.5739568
505.8749479
546.5311284
573.0707301
595.942493
629.1927223
340.688702
363.3537199
370.8932545
401.6178288
422.9266215
452.6049218
481.456564
515.4358756
535.2514472
564.4797139
327.8430058
343.5899972
355.5042656
374.0224086
392.5002376
413.3802597
439.480961
471.6712475
490.1420951
514.9170388
325.4962003
332.8103585
340.5611148
356.4206195
371.4621991
391.2013089
407.3780831
426.0776046
448.8899206
477.6469742
320.7207459
323.7579163
330.9939281
340.4840671
347.4129906
366.2006684
383.9895583
400.3892297
412.369057
429.978573
312.4619548
321.8938611
322.8782901
328.0767221
335.0282815
351.1100289
357.5482939
365.1628984
386.9119744
403.6869298
303.3361383
310.6329679
316.6581176
319.2773469
325.4961868
326.75363
335.7963401
345.933932
354.6027092
370.170849
306.1873582
306.8836101
308.9382943
313.921178
314.7909864
322.2205754
332.4558933
335.184281
340.9377213
351.2751316
305.3715423
305.3781262
308.4172997
310.6853179
314.925177
314.1935562
323.6206738
326.9658358
335.1396851
337.169408
305.3081091
305.062479
304.2230792
306.3478405
312.8200474
314.2838816
319.5101543
323.1080603
327.9323119
331.7554418
303.8449918
306.1428883
304.996446
304.6209128
308.3463661
313.6739191
314.0885213
318.7359089
321.8990213
326.548614
305.2434023
303.1233994
305.9583946
305.3140082
300.9966962
309.2435914
309.3446266
315.5165886
318.7282734
318.8521158
300.7935818
302.1404733
304.7328511
302.478493
304.8417963
305.221702
306.6586557
309.7975609
311.464114
314.5141847
298.3505301
299.8846347
302.4487496
304.1122724
302.8565708
302.470066
302.500806
307.3879446
306.9262843
311.025772
303.0152384
302.4257443
301.2175561
301.1362188
301.8819282
303.6906776
306.8620069
308.97731
309.701636
312.0581008
302.9046736
302.1315277
305.7623296
303.9062624
303.3916209
301.6543615
305.6916626
306.1365164
306.4001219
305.7923425
297.8925042
295.9607313
298.3973161
301.5858005
)
;

boundaryField
{
    flow
    {
        type            calculated;
        value           nonuniform List<scalar> 
42
(
297.2697011
302.04274
300.9573312
298.501597
296.6389064
298.0338657
300.4763655
300.6990637
304.442071
302.7237629
302.2105455
297.7358884
297.5884806
295.6664376
297.9929267
301.9982863
296.4044403
303.3324746
296.2348719
295.602869
302.63598
300.1209507
297.2697011
298.4825175
299.231822
299.5450888
298.8215274
299.3505028
299.0327219
298.472699
299.1330108
298.0442453
297.8652147
301.1997725
299.3574767
300.9845831
303.8967254
303.5556111
308.2565884
309.1895371
334.6658526
429.6911687
)
;
    }
    obstacle
    {
        type            calculated;
        value           nonuniform List<scalar> 10(531.8284237 573.0330673 576.0338686 589.0457011 605.8535698 610.5198199 623.5639221 623.7521966 630.3584873 607.6142639);
    }
    frontAndBack
    {
        type            empty;
    }
    procBoundary0to1
    {
        type            processor;
        value           nonuniform List<scalar> 
21
(
710.3822289
752.1882808
765.130627
724.4748699
683.3898173
644.2309504
596.2905904
548.1444136
498.3841626
453.0012046
421.2227833
395.587295
364.6601596
349.2754353
333.736201
333.5128332
321.2797023
320.1857945
314.6715864
311.6038411
306.1648302
)
;
    }
    procBoundary0to2
    {
        type            processor;
        value           nonuniform List<scalar> 
31
(
301.727432
304.1446698
302.8326543
300.6890983
299.70707
298.6663806
298.2523007
297.7177271
297.6034703
296.396819
296.172211
296.7097712
296.8220952
295.6382843
296.9889239
296.1221067
294.4014422
294.0156688
295.4072455
294.9278651
304.5260311
304.6855954
303.5517113
302.2685201
300.7466783
299.4972738
295.8518225
296.7348644
295.9328294
304.5260311
295.3755423
)
;
    }
}


// ************************************************************************* //
