/*--------------------------------*- C++ -*----------------------------------*\
| =========                 |                                                 |
| \\      /  F ield         | OpenFOAM: The Open Source CFD Toolbox           |
|  \\    /   O peration     | Version:  2406                                  |
|   \\  /    A nd           | Website:  www.openfoam.com                      |
|    \\/     M anipulation  |                                                 |
\*---------------------------------------------------------------------------*/
FoamFile
{
    version     2.0;
    format      ascii;
    arch        "LSB;label=32;scalar=64";
    class       volScalarField;
    location    "0.005";
    object      linearKE;
}
// * * * * * * * * * * * * * * * * * * * * * * * * * * * * * * * * * * * * * //

dimensions      [1 -1 -2 0 0 0 0];

internalField   nonuniform List<scalar> 
654
(
5.39195954
6.529517726
7.018491765
6.784057994
8.703674787
7.781272343
7.343115677
6.284133547
5.409654995
9.297237202
8.110286853
12.02511711
8.069776019
6.845447585
3.122859965
11.93060508
3.073114356
8.1226063
6.458630406
7.351294943
6.677509535
7.719853479
9.967027987
6.168606563
6.332166998
4.986581589
4.140279049
7.02896083
6.035113358
9.266821165
8.720940221
7.177666489
6.56345493
7.285004331
9.272851232
6.886009899
7.971880489
6.565950823
10.85740277
7.046912112
6.79162487
9.029796601
8.654340193
12.29014655
7.01637299
10.46012655
10.10625368
6.605536398
8.242907518
6.986377021
6.039152836
15.72055049
12.2434945
6.736708945
7.620630954
10.36984532
9.474190517
8.899477152
9.628066503
4.468159413
3.975052803
6.60468395
5.942800044
9.162610653
6.136468498
8.450515629
4.658557207
4.874667905
12.05066209
7.113855794
7.287259376
7.498745527
7.4471384
9.078094829
6.586867099
9.796711632
19.41495458
9.060217659
7.99061791
5.414105585
4.507402399
8.39583074
6.797370344
9.19822129
7.749871866
6.963504045
8.541564804
9.802671019
5.575561651
6.25940108
10.32286953
5.016038387
3.954138887
6.411793895
9.455826866
5.601877653
3.785813917
9.116550632
3.860077534
14.28543495
4.396808924
11.92663544
8.102808221
9.644596164
5.963746647
7.76058957
6.880879273
7.81102436
11.50290123
7.170148989
8.860154274
7.67301407
7.671954825
5.085414919
5.714821272
8.230821473
8.659703029
3.993147889
7.366481176
5.805930106
7.140573457
7.351775967
5.327424293
5.992596204
11.47856583
6.949171776
6.818652813
8.959204323
6.014774699
6.05730084
9.83794075
11.52501562
6.383387268
10.64287266
8.59031184
2.521314437
9.240688486
4.714350648
9.46803535
10.74199098
7.457514866
7.48339943
5.719345412
6.811412906
15.06379657
4.33946773
7.957078475
12.59790465
9.546920769
4.921794955
10.49602001
10.87603108
8.554945774
6.330129982
7.195878266
6.822004609
3.111231455
11.24912089
12.12830808
12.10799289
4.806898297
9.042576711
11.16849363
6.812724476
5.023008784
8.811344731
3.457893124
4.668818161
6.949158761
3.295457574
8.09722863
11.31882784
7.233653263
10.02320561
5.823305053
7.724302053
16.72334668
11.47693356
6.846104922
8.698898545
6.701143746
9.288742221
7.514291011
6.666115225
6.95658811
6.709394007
4.82741465
8.55331742
7.518589221
8.194491115
7.331782781
6.735420759
9.612001974
13.54895291
4.831143091
8.379250226
9.828722841
7.3648829
5.615099892
4.616440632
3.786123756
7.278508512
8.425167711
8.56001861
8.11197433
8.001609873
7.919503502
9.87822847
9.176704569
6.077653672
6.347611274
7.211067214
12.69392525
8.133006892
7.933664927
7.085834646
9.244572613
4.788122475
6.841883224
4.552451348
4.725055435
11.85176631
10.48385757
6.493356303
7.32819714
9.736421832
6.23573361
13.36860321
6.625495517
6.690202745
6.767725019
12.34549505
8.980978158
14.39372712
7.308907581
5.758555452
10.48703456
6.98345565
8.906616324
9.706291167
6.375886937
6.410900779
8.140885072
10.2811583
8.510185928
7.510219232
8.895016479
8.275539469
3.372907921
8.518203835
10.20266999
9.986588672
5.221718382
5.627027364
6.742378179
8.757000951
9.094618633
7.921797603
7.839172673
5.989630318
6.687489259
8.432629022
8.934839163
4.442248547
7.471821752
7.003313249
9.115915907
9.070761481
2.344373468
7.433540141
10.52341601
5.932442774
8.185484991
6.667891606
4.733708788
6.873103979
7.724136996
10.03781644
4.006627465
5.447176692
4.988014752
10.37819033
11.28997579
5.913009754
6.27388043
7.699012089
10.06379544
9.119718486
6.543693866
7.747778507
8.170504593
6.731988314
12.81108854
5.47178282
8.234826233
3.421646275
4.645707824
7.679846856
7.600908303
8.57160939
5.814991021
3.906534233
7.608547741
8.234631447
9.572343844
4.864921169
4.848968169
10.09699689
5.830296807
9.881630921
13.17500942
6.201325188
15.13129041
7.595018086
2.39709817
6.653068326
12.41758995
5.244659792
12.38992138
6.483852943
6.937865828
4.720466664
15.28555585
10.49844973
3.177152152
6.790511363
8.012742556
10.11612456
6.872255801
12.30891089
12.99800379
3.872195359
6.499107031
2.893658109
6.615885935
8.772629521
13.27328927
5.200624973
3.922833371
11.04826053
5.383224086
6.75868881
7.007612739
8.183342632
8.120973671
6.748933478
5.149734079
8.633018256
7.459330518
7.596884419
8.328714956
10.99352268
7.946033226
8.602367104
3.932390936
6.599568705
5.070004349
4.749574225
11.67034955
10.51944171
7.081618297
6.734688692
6.441538653
9.771809133
4.589996225
5.126877
6.909808968
4.801102336
8.269190104
8.079691725
7.758883738
4.345920732
7.869623781
11.72645447
13.83505609
4.453726208
6.815384679
10.3160179
8.636120458
6.930722286
5.647081333
9.371044799
9.880367044
10.08350536
15.16493962
5.854572617
8.082625385
7.071686649
9.719761558
3.742687215
7.065574109
8.745234229
7.588779312
13.28111117
3.388927333
5.477873346
4.305684358
9.42308316
7.852509423
6.782642249
3.612821891
10.3722584
4.826186156
6.721139188
7.022401808
4.36503244
8.586981225
9.299208819
7.927146925
5.259488104
5.370970669
9.671709621
6.205031684
6.164485869
4.793780297
6.811874287
9.428426459
7.562463536
9.113932011
6.385940053
6.683287809
7.971906035
10.13045621
6.812710739
7.06470628
8.772654988
8.598420239
9.580184663
8.646183731
12.77147526
4.835832418
7.464281251
7.468684034
8.140186287
9.20822004
6.277702854
5.811942612
6.882990146
6.373487498
5.850747965
10.19443172
16.85201519
8.218910671
8.820337951
8.417923823
12.09354665
9.008466204
9.623130936
5.075518424
6.071314613
10.41494066
11.19570044
12.29025548
6.933314418
16.25274338
8.384856652
8.271790422
8.102923005
9.283216803
9.78508349
5.357410401
10.93896164
13.85250557
13.1138069
9.10723893
14.96537889
17.09316394
5.247732576
14.74770415
8.836943558
6.901084126
6.905706002
7.287666801
6.985848826
11.1670421
9.26990171
10.45551141
16.01163329
12.521708
9.925990443
6.100126798
4.854693518
10.27725559
9.619381306
7.703310358
14.12619478
8.151880128
13.74219167
11.98312574
5.486623154
5.962346011
8.551685393
6.166426274
11.07586145
10.51675662
10.53366138
9.540361488
13.11599841
13.99325765
7.591197143
8.173689123
7.512531344
7.12338944
10.44904058
12.76059099
7.466348687
14.0648946
9.671224254
12.98721164
10.55229694
7.36732352
8.487451606
3.588077188
6.149847015
11.27731131
8.180512239
8.812604715
1.259650351
7.928135033
14.89348821
9.035569103
5.599637147
6.353253736
3.837994848
6.888502237
11.85240479
6.941363982
15.8172605
12.62500054
8.794886076
8.595368884
8.070502746
5.487073713
8.07106344
12.62020783
6.710766309
12.63227235
10.5660114
10.44130836
6.71358424
5.555732381
6.535491077
8.260249917
9.761791176
9.605557423
7.829031361
6.349195265
1.720840989
11.20467023
8.232864651
9.046169411
12.3049017
6.630487531
7.333163868
4.30715602
11.54095655
6.004916823
10.83924574
5.565322848
7.508795865
5.457861013
7.736657147
13.05350662
6.477019028
4.497453782
7.385489007
10.22442706
4.898405042
7.850641858
8.966660648
8.823327124
5.45664563
6.303016011
4.953884738
6.681066387
10.88917393
5.549894741
9.632576537
7.600829397
13.80756221
8.077578631
14.56814528
14.32617357
7.145844104
11.32224005
3.492559258
13.72177576
7.118939669
10.01785598
4.920402003
9.860026584
6.329672269
6.853738498
6.565080776
6.926407817
7.411932222
4.310997696
5.221854762
12.50624319
7.692876904
7.880830054
8.833017158
5.353725922
8.261582132
13.07159795
7.079676586
7.94074478
7.249872494
6.432512869
7.690928363
4.90087443
11.27684778
7.439426956
6.546685255
6.43958307
7.882201888
11.59142861
6.02998883
8.140023386
8.934804438
9.050928492
9.844521498
10.90206165
6.198854522
7.11689434
7.969768804
6.78092503
6.472149512
1.261484929
6.858686227
6.740711406
12.3067849
8.060628621
9.175079939
12.49469638
5.128908606
10.68325466
6.919013968
7.555583594
4.215879834
10.20418267
4.744807888
8.057935728
4.195408441
3.573409901
9.057825301
6.59468518
8.013988931
4.100520395
8.365781347
6.58379627
4.489989055
8.055333686
9.614251933
)
;

boundaryField
{
    flow
    {
        type            zeroGradient;
    }
    obstacle
    {
        type            calculated;
        value           nonuniform List<scalar> 10(4.162215709e-18 6.768779832e-18 5.157960235e-18 7.443776196e-18 3.269394547e-18 1.305401334e-17 0 2.469180232e-18 6.299586043e-19 0);
    }
    frontAndBack
    {
        type            empty;
    }
    procBoundary0to1
    {
        type            processor;
        value           nonuniform List<scalar> 
21
(
6.466853989
10.28626118
12.39657566
12.58740887
10.46250629
6.119843288
10.22703516
8.874322264
15.84072833
15.32578382
6.267906041
4.185310721
9.073941873
14.1895987
7.224011676
7.414264842
5.657726763
12.82335524
7.76343599
14.62025162
5.49058682
)
;
    }
    procBoundary0to2
    {
        type            processor;
        value           nonuniform List<scalar> 
31
(
7.027610922
8.260361078
8.572615433
5.559532021
3.28238449
8.400955554
7.211782817
11.00973764
5.634887664
9.206124184
7.756820087
7.171729356
4.49614541
9.865017201
4.883613522
7.216455383
6.645632119
5.90423996
7.523231005
6.30382019
7.165537326
6.641604193
5.162920327
8.962145032
4.515188377
6.962204767
12.79925341
5.837906513
9.855649839
7.165537326
11.11813836
)
;
    }
}


// ************************************************************************* //
