/*--------------------------------*- C++ -*----------------------------------*\
| =========                 |                                                 |
| \\      /  F ield         | OpenFOAM: The Open Source CFD Toolbox           |
|  \\    /   O peration     | Version:  2406                                  |
|   \\  /    A nd           | Website:  www.openfoam.com                      |
|    \\/     M anipulation  |                                                 |
\*---------------------------------------------------------------------------*/
FoamFile
{
    version     2.0;
    format      ascii;
    arch        "LSB;label=32;scalar=64";
    class       volScalarField;
    location    "0.005";
    object      linearKEMean;
}
// * * * * * * * * * * * * * * * * * * * * * * * * * * * * * * * * * * * * * //

dimensions      [1 -1 -2 0 0 0 0];

internalField   nonuniform List<scalar> 
654
(
5.794687883
7.806823148
7.771400889
7.774521075
7.77460096
7.812985024
7.782280509
7.790385876
7.746999484
7.714804058
7.710085525
7.699986635
7.670188532
7.679501458
7.683066046
7.727515572
7.704869605
7.749657868
7.84741299
8.343313263
5.85806346
7.886759338
7.866546409
7.832155414
7.860899619
7.871516616
7.831690175
7.842525129
7.878597858
7.90216151
7.913645401
7.919115582
7.913888374
7.928710771
7.903119639
7.951651687
8.002162076
8.07717267
8.199149234
8.471787252
5.932611315
8.012090793
7.938773065
7.920347135
7.868693746
7.894614166
7.922058846
7.907110773
7.876788295
7.808046639
7.777366923
7.787871705
7.818177174
7.849478637
7.899965095
7.868840684
7.866566228
7.962626579
7.998998942
8.22290367
5.926541452
7.819285034
7.802497364
7.809464141
7.767465093
7.764914047
7.75034918
7.754724018
7.781689106
7.837928674
7.882063379
7.883126219
7.920701578
7.817084287
7.794870357
7.725024553
7.738244714
7.794970093
7.891890548
8.130746537
5.905601765
7.927396489
7.823771437
7.79881234
7.840378064
7.850125944
7.844934585
7.809347426
7.759428952
7.756189485
7.701930443
7.67561417
7.737278083
7.750436704
7.774033278
7.903382442
7.921477056
7.963648472
7.98375959
8.060724026
5.881820012
7.877833236
7.843775093
7.802512792
7.779294367
7.789853629
7.775207612
7.827129205
7.831957618
7.861947963
7.876294866
7.858000827
7.813962842
7.814459072
7.849324663
7.78869095
7.803265412
7.839019849
7.909580811
7.98183587
5.910835538
7.918237309
7.907534742
7.869979076
7.9080521
7.883840139
7.903347307
7.843767339
7.901545036
7.90682161
7.856977922
7.871513873
7.870997234
7.851599817
7.84771611
7.795255746
7.862199334
7.823644418
7.929092705
7.958702201
5.879841828
7.857783452
7.823379196
7.861547936
7.84084453
7.877419214
7.953493425
7.994327913
7.976512863
7.926691775
7.903441204
7.863601342
7.898216792
7.908650592
7.902618103
7.977624306
7.973611598
7.962097502
7.949543539
7.932768576
5.896368982
7.987327227
7.937556962
7.897906525
7.853497035
7.802558122
7.830610349
7.849500349
7.813703901
7.822103705
7.931413406
7.913726721
7.837271537
7.8382878
7.769872105
7.788344856
7.841083631
7.870127951
7.864716527
7.953911591
5.892536784
7.818788352
7.799110888
7.82771709
7.846608496
7.86084786
7.83826287
7.778664826
7.817315031
7.837620815
7.7814703
7.804778392
7.852890607
7.860400495
7.917211633
7.945793948
7.937326281
7.858056134
7.904560106
7.903252316
5.883911168
7.828713228
7.798481918
7.783325816
7.754864437
7.720865988
7.655397611
7.715095777
7.760088162
7.763276709
7.827226566
7.848666011
7.893201119
7.855026198
7.849033652
7.72014765
7.786850126
7.842600762
7.938699885
7.946120098
5.914606644
7.922422368
7.856090256
7.770258971
7.843341908
7.856586157
7.878630864
7.875167188
7.898252724
7.818732833
7.797902463
7.730300665
7.70517367
7.804587163
7.849833908
7.919009245
7.98294045
7.889658999
7.863812762
7.93085986
5.888962267
7.875818875
7.855181883
7.83929624
7.815645639
7.809341876
7.800821772
7.774159773
7.744390947
7.797669571
7.86858317
7.871444182
7.888284643
7.876382365
7.810413629
7.866671334
7.872037181
7.954410965
7.971124881
7.926949226
5.880481151
7.95227327
7.915311867
7.941851228
7.955254147
7.9442728
7.937932631
7.982075224
7.962640581
7.920982046
7.871235785
7.852414258
7.831492598
7.840794415
7.828180254
7.728208019
7.694892792
7.679991024
7.672604931
7.782051608
5.866103801
7.944980847
7.889514413
7.83347802
7.871037168
7.882133729
7.885469124
7.861017483
7.893954484
7.886019285
7.89376085
7.896419309
7.94300678
7.889774609
7.89701343
7.838927059
7.850409633
7.827705587
7.791179184
7.76133439
5.911840743
7.929747443
7.869018115
7.849049735
7.807296568
7.866437574
7.883577741
7.849548793
7.859663104
7.821938215
7.804940059
7.760544801
7.690347777
7.734102786
7.757514721
7.8631726
7.874395497
7.84856367
7.887465516
7.848412212
5.918549615
7.914132892
7.834129794
7.864496318
7.835361177
7.842687744
7.728285756
7.81996373
7.81698141
7.854051384
7.89260825
7.928225705
7.925751624
7.985195158
7.902596942
7.856679396
7.852344529
7.88258173
7.852371067
7.873548592
5.894515915
7.877934302
7.848303494
7.843881196
7.869463926
7.839540684
7.915370234
7.888879832
7.869790648
7.797474259
7.787262858
7.821613197
7.817484613
7.844301015
7.869721744
7.896034635
7.962867431
7.923665806
7.903061299
7.904602859
5.897697803
7.88727451
7.872423163
7.805563399
7.834940416
7.887646191
7.873390808
7.903113236
7.88741261
7.923047356
7.896029338
7.839380961
7.798194981
7.787812626
7.736954411
7.749887172
7.741952111
7.772090302
7.807929441
7.789682002
5.918367762
7.967432594
7.98025045
7.95466697
7.939113312
7.918690923
7.921617908
7.92904304
7.91866355
7.874211567
7.899949617
7.937247569
8.004177921
7.987634555
8.027171463
7.991876512
7.964348299
8.014166255
7.982348848
7.985727748
5.895390724
7.906397926
7.824494638
7.825024183
7.804221686
7.810665328
7.803097444
7.671617676
7.754956176
7.795686465
7.870303606
7.866972549
7.815251741
7.818616694
7.841919114
7.896883059
7.89375111
7.831370142
7.832017068
7.785901785
5.876453994
7.883183179
7.814676586
7.767772067
7.788067307
7.757416615
7.806724163
7.919771466
7.926005452
7.890317013
7.778889781
7.763443833
7.750413579
7.75536365
7.765822819
7.770530713
7.745330922
7.734907411
7.815445518
7.830222452
9.698752988
9.793511094
9.620893211
9.246361944
8.853132193
8.529333521
8.165307954
7.755553364
7.420118028
7.287147606
9.152478197
9.835939087
10.22948165
10.49126821
10.56417003
10.36125806
10.06557675
9.752368259
9.535311287
9.137319397
8.648718696
9.26571505
9.811176276
10.32462511
10.61317285
10.99158358
11.00767425
11.02035996
10.84343622
10.46927222
8.440970647
8.851927401
9.241352181
9.712929439
10.16525628
10.68865588
11.212453
11.40505266
11.52453729
11.48241179
8.207212412
8.462601641
8.907106328
9.453425572
9.872803175
10.21647778
10.65019935
10.99680453
11.44005981
11.79244017
8.149822276
8.406195329
8.701927074
8.955935907
9.319995219
9.751800601
10.25483137
10.71090714
11.16594085
11.57173527
8.076344289
8.241083201
8.410689694
8.709966079
8.972651064
9.419155186
9.819164539
10.29573067
10.76239011
11.21963086
8.013477811
8.068308752
8.201322515
8.447436484
8.705836433
8.989346903
9.393088522
9.706874237
10.02499299
10.42260896
7.978074934
8.112489928
8.192669041
8.328490611
8.484816857
8.672529277
8.846439182
9.212947069
9.64787935
9.991661382
7.993712735
8.039159414
8.125349828
8.146279783
8.235143952
8.520062061
8.745236687
8.941186147
9.177396973
9.455083126
8.017313431
8.022700382
8.216134285
8.271476705
8.378328027
8.379074901
8.50100827
8.666307684
8.870882674
9.128180045
7.925228674
7.925448977
7.915049722
7.918642949
8.015392562
8.123821966
8.2076552
8.352096937
8.531857357
8.775486849
7.906785697
7.928471648
7.971381386
7.998860354
7.972090665
8.06889366
8.23352584
8.311424272
8.439068168
8.601837886
7.820983811
7.841849487
7.821565842
7.849208504
7.897411074
7.960145922
7.969873386
8.095996937
8.178523626
8.301158605
7.737518437
7.708792063
7.818781431
7.927748708
7.988577185
8.108340786
8.107891758
8.164959739
8.201327372
8.287981344
7.999546511
8.08452379
8.019200831
7.997097209
8.005776527
7.976792891
8.009897982
8.033201346
8.093663867
8.074255634
7.813315805
7.844978151
7.811938188
7.827721948
7.754996668
7.825907539
7.848270083
7.870815557
7.867273153
8.036963007
7.870081635
7.779860892
7.771574535
7.809177661
7.859320996
7.849461516
7.850237555
7.913152432
7.941710859
7.994133692
7.803371928
7.938473611
7.942355997
7.941255811
7.939990981
7.920727547
7.948583578
7.90943061
7.848099761
7.948189587
7.931523513
7.922199724
7.892952083
7.852123941
7.895041158
7.906746622
7.943458199
8.00173184
7.928024573
7.889711887
7.781688966
7.801189886
7.805283678
7.801480593
7.804093338
7.736066442
7.696242168
7.694204538
7.836992508
7.853611999
7.812283673
7.780273832
7.718700715
7.770320312
)
;

boundaryField
{
    flow
    {
        type            calculated;
        value           nonuniform List<scalar> 
42
(
5.794687883
5.85806346
5.932611315
5.926541452
5.905601765
5.881820012
5.910835538
5.879841828
5.896368982
5.892536784
5.883911168
5.914606644
5.888962267
5.880481151
5.866103801
5.911840743
5.918549615
5.894515915
5.897697803
5.918367762
5.895390724
5.876453994
5.794687883
7.806823148
7.771400889
7.774521075
7.77460096
7.812985024
7.782280509
7.790385876
7.746999484
7.714804058
7.710085525
7.699986635
7.670188532
7.679501458
7.683066046
7.727515572
7.704869605
7.749657868
7.84741299
8.343313263
)
;
    }
    obstacle
    {
        type            calculated;
        value           nonuniform List<scalar> 10(4.103107162e-18 3.643510258e-18 3.417378281e-18 3.057224691e-18 3.113693371e-18 2.905207096e-18 2.733107069e-18 2.583591865e-18 2.566772358e-18 2.486897219e-18);
    }
    frontAndBack
    {
        type            empty;
    }
    procBoundary0to1
    {
        type            processor;
        value           nonuniform List<scalar> 
21
(
7.054366908
8.775320325
10.15638606
11.33304452
11.90914972
11.89861247
11.63020625
10.96828072
10.50962926
9.758868762
9.409317062
9.048755338
8.720877396
8.376609194
8.409538563
8.105460723
8.068833663
8.083656468
7.914274668
7.933704922
7.840947212
)
;
    }
    procBoundary0to2
    {
        type            processor;
        value           nonuniform List<scalar> 
31
(
5.878399862
7.873536383
7.878448544
7.805876136
7.812599389
7.801442833
7.815569666
7.763118993
7.733437837
7.768957706
7.820096212
7.902312286
7.897749057
7.842518457
7.83813202
7.794465334
7.828071845
7.776230806
7.714812254
7.674491692
7.847317207
7.83416951
7.855211195
7.877132899
7.882950551
7.933369037
7.769877281
7.819765746
7.91303565
7.847317207
7.814184128
)
;
    }
}


// ************************************************************************* //
