/*--------------------------------*- C++ -*----------------------------------*\
| =========                 |                                                 |
| \\      /  F ield         | OpenFOAM: The Open Source CFD Toolbox           |
|  \\    /   O peration     | Version:  2406                                  |
|   \\  /    A nd           | Website:  www.openfoam.com                      |
|    \\/     M anipulation  |                                                 |
\*---------------------------------------------------------------------------*/
FoamFile
{
    version     2.0;
    format      ascii;
    arch        "LSB;label=32;scalar=64";
    class       volVectorField;
    location    "0.005";
    object      momentumMean;
}
// * * * * * * * * * * * * * * * * * * * * * * * * * * * * * * * * * * * * * //

dimensions      [1 -2 -1 0 0 0 0];

internalField   nonuniform List<vector> 
654
(
(0.00624306149 -2.81736639e-05 -1.159216758e-05)
(0.008228369177 -3.366526558e-05 -2.018233453e-05)
(0.00824143333 -4.047805017e-05 -1.248359111e-05)
(0.00823838395 -3.597313631e-05 -9.677738631e-06)
(0.00824680115 -4.020771509e-05 -1.762015449e-05)
(0.008282538263 -3.765810957e-05 -9.911104882e-06)
(0.008254660818 -3.738893144e-05 2.811115859e-06)
(0.00826671893 -4.42261832e-05 -7.235993999e-06)
(0.008233791549 -3.56010849e-05 3.236143052e-06)
(0.008205597108 -4.038604829e-05 1.365108657e-06)
(0.008201019112 -3.096950637e-05 1.30002238e-06)
(0.008196236844 -2.514807064e-05 -1.040903215e-05)
(0.00816175937 -1.654518726e-05 -1.249711086e-05)
(0.008160002678 -1.242428528e-05 -1.440687177e-05)
(0.008162312601 -6.669752336e-06 -1.143182099e-05)
(0.008197088249 -2.380363256e-05 -9.533756121e-06)
(0.008144125272 -4.529850333e-05 5.874748884e-06)
(0.008124835977 -7.503363228e-05 5.118369994e-06)
(0.008021898339 -9.946880241e-05 -1.007875828e-05)
(0.007740980141 7.832534554e-05 1.762749402e-06)
(0.006307312194 1.925153988e-06 -6.209436445e-06)
(0.008308598676 -6.891666745e-06 -2.944220934e-06)
(0.008342066794 -5.945983192e-06 -1.281467539e-06)
(0.008305605446 -1.232060087e-05 -1.377721619e-05)
(0.008332317286 -8.332950745e-06 -1.114485515e-05)
(0.008347361158 -2.6625642e-05 -1.935943797e-05)
(0.008301593952 -3.589953994e-05 -3.556186624e-05)
(0.00830364604 -1.379184427e-05 -1.871905307e-05)
(0.008335305508 -1.595318322e-05 -1.534308349e-05)
(0.008354051656 -1.196469423e-05 -3.266498307e-06)
(0.008368801928 -9.414529397e-06 2.656001508e-07)
(0.008376015044 -8.837564298e-06 6.422467959e-06)
(0.008371554147 -4.592747558e-06 9.36701406e-06)
(0.008386163727 -1.369785005e-05 6.67251995e-06)
(0.008351780559 -8.717482885e-06 -2.913112833e-06)
(0.008386377506 -1.258265159e-05 1.127336464e-06)
(0.008413931652 8.662849073e-06 2.001364338e-05)
(0.008433402259 1.770673965e-05 6.820018536e-06)
(0.008371528792 9.293003815e-05 1.892912772e-05)
(0.008193831515 0.0004397717207 -2.130003302e-06)
(0.006393825192 -5.539160804e-06 1.338432111e-05)
(0.008449185851 -1.131096237e-05 1.382815427e-05)
(0.008428490348 -2.057367773e-05 9.932370553e-07)
(0.008400150714 -2.756561537e-05 -8.576063295e-07)
(0.008349381554 -3.264224477e-05 4.561272623e-06)
(0.008380425369 -2.010054956e-05 6.475790172e-06)
(0.008413044054 -3.778599776e-06 1.701922463e-05)
(0.008389839602 -4.006610539e-06 1.791275277e-05)
(0.008371731467 9.315460973e-06 8.629518187e-06)
(0.008298462219 -1.530515567e-07 -2.535184083e-06)
(0.008277595948 -3.225065118e-06 -8.056946143e-06)
(0.008289649586 -2.042870444e-05 -1.011828748e-05)
(0.008305843867 -2.199897746e-05 -8.812144635e-06)
(0.008337549745 -1.808225837e-05 -6.722483763e-06)
(0.008386263325 -2.204962105e-05 -1.566335696e-05)
(0.008333665454 -5.468739606e-06 -3.892348127e-06)
(0.008299568177 9.881967682e-06 6.594447882e-06)
(0.008327839388 4.814529837e-05 2.253076042e-06)
(0.008234083353 0.0001429161058 4.0722379e-06)
(0.008259775869 0.0003647764167 6.767713828e-06)
(0.006398962515 -2.697457299e-05 -5.30256919e-06)
(0.008266966698 -2.258479675e-05 -3.793107804e-06)
(0.008301614113 -1.428763129e-05 2.473975629e-06)
(0.008307141762 -8.508445992e-06 1.399623582e-05)
(0.008257216631 1.355195633e-05 8.510446608e-06)
(0.008244340873 7.553579139e-06 2.012338103e-06)
(0.008228672542 -9.239029394e-06 -8.554237175e-06)
(0.008235195812 -1.87220843e-05 -1.63159063e-05)
(0.008259123718 -2.971534208e-05 -1.334111777e-05)
(0.008320889792 -1.162129799e-05 -3.743551841e-06)
(0.008361047999 -4.357104645e-06 -1.986944818e-06)
(0.008367115215 1.29624008e-05 -1.384053774e-05)
(0.008405099516 2.05172343e-05 -2.021453726e-05)
(0.00830400951 1.77499089e-05 4.150077502e-07)
(0.008271494826 9.921717546e-06 4.649345082e-06)
(0.008189004948 -8.822716524e-06 9.031480488e-06)
(0.008190833669 1.006732679e-05 3.702502961e-06)
(0.008179312743 4.472484996e-05 1.072739097e-05)
(0.008203325253 0.0001060993179 -5.177098775e-06)
(0.008300919296 0.0003114738566 -2.666985117e-05)
(0.006371629167 -3.435779741e-06 7.386770314e-06)
(0.00836376185 -1.308261717e-05 2.004367058e-05)
(0.008288765713 -8.132615267e-06 2.071176899e-05)
(0.008270360655 -3.283651561e-06 1.387654113e-05)
(0.008306547877 -8.948969565e-06 1.772528108e-05)
(0.008318545143 -6.364619342e-06 9.871602456e-06)
(0.008315708828 1.773683236e-05 2.668116821e-05)
(0.008282255094 7.176954066e-06 2.25470517e-05)
(0.00823011575 -1.516851839e-06 1.092380544e-05)
(0.008229599195 -4.245377027e-06 9.358757125e-06)
(0.008166644308 -2.101295227e-05 1.68551961e-05)
(0.008150606291 -2.175899198e-05 1.470122603e-05)
(0.008215557913 -1.491417882e-05 1.584345042e-05)
(0.008227153742 -6.49698058e-06 -6.189739565e-06)
(0.008250782435 1.647825234e-05 -5.041774241e-06)
(0.008366914318 2.673239912e-05 -2.340282056e-05)
(0.008377142514 3.969857773e-05 -1.785522931e-05)
(0.008372348247 6.397368808e-05 -2.601500351e-05)
(0.008355529926 0.0001028800973 -2.67796672e-05)
(0.008353485405 0.0002244218633 -2.590748035e-05)
(0.006336866598 1.361498651e-05 -6.828088877e-06)
(0.008305015501 1.670773368e-05 -1.149194714e-05)
(0.008325953873 1.823453771e-05 -1.417925815e-06)
(0.008284183729 8.178096419e-06 -7.544186327e-06)
(0.008263700827 8.573536214e-06 -4.200866939e-06)
(0.008288323102 -9.969094256e-06 6.045191946e-06)
(0.008261931905 -9.210231137e-06 -9.194921712e-06)
(0.008307330465 -6.432225485e-06 -9.446923838e-06)
(0.008315278397 4.49709088e-06 -1.89875413e-06)
(0.008336614219 1.062858445e-05 6.478090771e-07)
(0.008357195317 1.710876624e-05 -6.68237936e-06)
(0.008332351227 8.063661288e-06 -2.275497074e-06)
(0.008283637797 -3.622878233e-06 -5.213758949e-06)
(0.008286081776 -1.957292991e-05 -4.777685856e-06)
(0.008312707572 -1.784908275e-05 3.40220845e-06)
(0.008249633494 -1.503241096e-05 8.459721566e-06)
(0.008244202288 1.313777415e-05 -1.189309764e-05)
(0.008249748449 6.1837157e-05 -2.439330655e-05)
(0.008304741228 8.58737074e-05 -2.259859699e-05)
(0.008309935064 0.0001987236792 -3.231327958e-05)
(0.006377165231 6.593926375e-06 -1.864584312e-05)
(0.008351642417 1.355516973e-05 -2.051379853e-05)
(0.008386799627 9.520495657e-06 -2.640968041e-05)
(0.008351612747 1.70139676e-05 -2.483572613e-05)
(0.008391473229 1.089614459e-05 -3.446447788e-05)
(0.008365764662 1.70378928e-05 -3.222983066e-05)
(0.008382303113 1.597213835e-06 -2.232223369e-05)
(0.008337955442 -1.182957979e-05 -2.433452471e-05)
(0.008401781767 -1.437055002e-05 -2.294034476e-05)
(0.008410005697 -1.619647977e-05 -6.959002165e-06)
(0.00835601504 -6.4492062e-06 -2.327814587e-05)
(0.008380904005 -1.166478608e-05 -1.671978834e-05)
(0.008376491901 1.337250477e-06 -7.833469201e-06)
(0.00835174756 1.334201681e-05 -2.212541709e-05)
(0.008351643649 7.987087016e-06 -2.083278239e-05)
(0.008292628685 1.264080468e-05 -2.218643238e-05)
(0.008337961609 2.911575819e-05 -2.220030675e-05)
(0.008287988115 2.990163289e-05 -2.624850779e-05)
(0.008354793348 7.168973476e-05 -1.204859883e-05)
(0.008360438242 0.0001340022412 -7.093572963e-06)
(0.006343213887 -1.980735771e-05 -2.419400535e-05)
(0.00830189806 -1.642574389e-05 -3.644633729e-05)
(0.008323293372 -1.518600598e-05 -3.759744203e-05)
(0.008350994603 -1.38011442e-05 -3.51753295e-05)
(0.008338643971 -1.169282638e-05 -2.538086393e-05)
(0.008363671481 -9.9655131e-06 -3.138345846e-05)
(0.008444835886 1.482791099e-05 -3.59522765e-05)
(0.008490162067 1.262629011e-05 -2.187753161e-05)
(0.008474163329 1.553926566e-05 -2.499346712e-05)
(0.008417186481 5.513124297e-06 -3.26821442e-05)
(0.008396018179 -6.587662137e-06 -2.092643247e-05)
(0.008336697804 -1.205652351e-06 -2.403157206e-05)
(0.008385833551 7.907960569e-06 -1.881053692e-05)
(0.008392549161 8.457483984e-06 -1.124497032e-05)
(0.008383761144 1.461148973e-05 -1.404687136e-05)
(0.008450979043 6.23720026e-06 -9.24609493e-06)
(0.008433457286 8.105871453e-06 -7.0441929e-06)
(0.008422879472 3.143348247e-05 -1.482308622e-05)
(0.008390559689 6.547778742e-05 -1.235929086e-05)
(0.008358170772 8.987009738e-05 -1.286645156e-05)
(0.006363105141 -1.289156871e-05 -1.183530686e-05)
(0.008427049654 -7.445072011e-06 -1.524280144e-05)
(0.008419957075 -4.659275956e-06 -1.967344905e-05)
(0.008375830727 -1.430438261e-06 -9.905734409e-06)
(0.008331074231 -1.386140775e-05 -1.07146349e-05)
(0.008278407617 -2.815067659e-06 -7.169357774e-06)
(0.008312650438 -1.380577325e-05 -1.334424969e-07)
(0.008319478939 -6.074502185e-06 -2.651320079e-06)
(0.008276779985 -2.960628052e-06 -4.631487643e-06)
(0.008292167043 1.383022505e-05 9.453537512e-07)
(0.00841304461 1.932137838e-05 6.093896127e-06)
(0.008395324807 1.467878526e-05 -8.848138117e-06)
(0.008319958891 -7.957443949e-06 -1.012168893e-07)
(0.008300814229 -8.027401081e-06 1.137408478e-06)
(0.008231181466 -1.03917784e-05 1.479063732e-06)
(0.008254084136 6.0833459e-06 -3.36728413e-06)
(0.008305056037 2.637889429e-05 -1.200679287e-06)
(0.008331573216 3.812219355e-05 -9.086803536e-06)
(0.008318003432 5.733453366e-05 -1.157032107e-05)
(0.008386143201 0.0001006693642 -2.216639834e-07)
(0.006347314181 -1.791694003e-06 2.366531789e-05)
(0.008239245741 -2.369007511e-05 2.583105034e-05)
(0.008276854766 -2.964592811e-05 2.321991586e-05)
(0.008304904363 -2.279959575e-05 2.358701043e-05)
(0.008331662244 -8.385881421e-06 1.615905014e-05)
(0.008350512257 -4.174334482e-06 1.005956149e-05)
(0.008325435939 -1.091198397e-05 1.293862808e-05)
(0.008277551033 -3.380343842e-06 8.320157298e-07)
(0.008303859695 4.499071571e-06 -4.744884526e-07)
(0.008311308246 1.20525982e-05 -7.218781529e-06)
(0.00825551267 1.401228499e-05 4.079565494e-06)
(0.008268059998 2.03533188e-05 2.458419084e-06)
(0.008312678115 1.379630557e-05 1.174324176e-05)
(0.00832981342 1.835952615e-05 2.765657131e-06)
(0.008382496664 1.361678757e-05 -2.487829893e-06)
(0.008408383401 2.014162002e-05 -2.448348077e-06)
(0.00840781567 1.813357117e-05 3.410933893e-06)
(0.008309397397 2.886451009e-05 1.273208922e-05)
(0.008356385749 4.518015578e-05 1.310182628e-05)
(0.008340929776 5.912436028e-05 1.150246546e-06)
(0.00637069158 1.404104152e-05 -5.589340995e-06)
(0.00829935659 2.070251461e-05 -1.077934226e-05)
(0.008307195026 8.187327061e-06 -1.932015358e-05)
(0.00828251771 -1.308344909e-06 -1.250729882e-05)
(0.008249723774 -1.390290649e-06 -6.097619772e-06)
(0.008199519349 -2.074769479e-05 2.559727308e-07)
(0.008139871469 -9.153786935e-06 1.398527269e-06)
(0.008182417318 -3.847680698e-07 -5.897110594e-06)
(0.008236115562 1.114953316e-06 -7.960265663e-06)
(0.008253113844 -8.274279244e-07 -7.696439399e-06)
(0.008311319818 -1.019752461e-05 -2.113328863e-05)
(0.00834873033 -5.528894769e-06 -1.451730396e-05)
(0.008392331065 9.697880559e-06 -1.367918314e-05)
(0.008351254443 1.474182964e-05 -2.295456997e-05)
(0.008329918057 1.823769269e-05 -2.60948605e-05)
(0.008196909745 7.83429124e-06 -6.990727941e-06)
(0.008253129437 9.794859916e-06 -7.121772122e-06)
(0.00831133124 -1.380599747e-05 -1.065606115e-05)
(0.008403836455 1.313674313e-05 -7.901877163e-06)
(0.008388610906 5.334917914e-05 6.800310431e-06)
(0.006374033097 -3.660341334e-07 -6.088686574e-06)
(0.008356028096 -3.700598137e-06 -8.114180472e-06)
(0.008348922498 7.055018634e-06 2.359689126e-06)
(0.008279835056 6.61311366e-06 -8.197479668e-06)
(0.008348783442 1.983411525e-06 -1.35554428e-05)
(0.008367350294 4.95699958e-06 -1.625254514e-05)
(0.008398608144 3.482506049e-06 -1.676220959e-05)
(0.008396539077 -1.846664568e-05 -7.29470961e-06)
(0.00841968387 -1.686875501e-05 -4.190973743e-06)
(0.00832501338 -1.228416517e-05 -5.698117219e-07)
(0.008300548458 -1.023611306e-06 -5.059730028e-06)
(0.008220150591 7.833175894e-06 -1.12335773e-05)
(0.008190045404 -2.38065031e-06 -8.983667263e-06)
(0.008287185261 -9.269054495e-06 -5.960677389e-06)
(0.008342338958 -1.10378519e-05 3.311927401e-06)
(0.008413604819 -4.240589837e-06 -4.784851759e-06)
(0.008473004355 -5.999394807e-06 -1.532084446e-06)
(0.008386552597 2.234618185e-06 6.992973037e-08)
(0.008348046548 -1.374761709e-06 -8.538272109e-06)
(0.008402850372 2.152535565e-05 1.284884418e-05)
(0.00636255876 1.554000636e-05 -5.826644744e-07)
(0.008317935806 8.217404993e-06 -1.019124003e-05)
(0.00833733656 4.302284238e-06 -7.569413857e-06)
(0.008317998 2.475500606e-06 -9.158379586e-06)
(0.008297766913 -2.444544105e-07 -1.817083944e-05)
(0.008283815536 6.30765665e-06 -1.276892504e-05)
(0.008273480777 -7.836027008e-06 -1.360179459e-05)
(0.008244797566 -2.089168054e-06 -2.5313004e-05)
(0.008213500096 7.372938025e-07 -1.587718692e-05)
(0.008267321645 -6.633479969e-06 -1.610727624e-05)
(0.008342076868 -1.711308081e-05 -9.991731808e-07)
(0.008355924512 -3.330323537e-05 -1.182186563e-06)
(0.008369802883 -3.850303282e-05 -1.780968867e-06)
(0.008361221742 -2.971127499e-05 -5.629270505e-06)
(0.008283699015 -1.87087926e-05 -3.042745987e-06)
(0.008346840806 -2.285702709e-05 -3.980308453e-06)
(0.008338338531 -3.286190182e-06 -1.127532706e-06)
(0.008417398424 7.626648025e-06 2.746501024e-06)
(0.008431919803 1.347331458e-05 1.599202476e-05)
(0.008390629522 2.695865102e-05 9.200131219e-06)
(0.006353431999 3.848173681e-06 -1.267596615e-05)
(0.008398608955 6.6909071e-06 -1.453905971e-05)
(0.008398472596 1.688667338e-05 -7.701603212e-06)
(0.008426064201 1.507009838e-05 -1.447949264e-05)
(0.008437715151 4.549995852e-06 -3.96835944e-06)
(0.008425249814 1.105549165e-05 -9.632928449e-06)
(0.00841112508 1.533405883e-05 5.247435144e-06)
(0.008447815356 1.309028304e-05 1.460507902e-05)
(0.008428135959 -2.65891484e-06 1.243210705e-05)
(0.008389816476 -1.821534535e-05 2.069487867e-05)
(0.008331190418 -1.357550237e-05 -8.409533467e-08)
(0.008319042719 -8.96815258e-06 3.072866739e-06)
(0.008299459973 -7.245363335e-06 5.627468172e-06)
(0.008305907959 -1.259827557e-05 1.459071124e-05)
(0.008293961923 -7.736664627e-06 8.310037752e-06)
(0.008202111407 -1.043232839e-05 -1.060069301e-06)
(0.008167523111 -8.447916463e-06 -1.205076234e-05)
(0.0081592038 -1.453121333e-05 3.380584468e-09)
(0.008145807942 2.875592934e-06 -1.821500943e-05)
(0.008259262441 7.472020142e-06 -9.627839576e-06)
(0.006307282401 4.203990519e-06 1.867902212e-05)
(0.008354134292 8.601231082e-06 1.938123993e-05)
(0.008356279492 3.446425591e-07 2.074843494e-05)
(0.008297836549 -9.287952597e-06 2.496284105e-05)
(0.008337318882 6.617659538e-06 1.703561982e-05)
(0.008356866425 3.567745666e-06 5.138712309e-06)
(0.008366571808 -4.295941377e-06 7.216824547e-06)
(0.008353950553 -9.669893082e-06 -1.096835423e-05)
(0.008381413174 -7.280294165e-07 -6.682069183e-06)
(0.008374605006 6.885178771e-06 -7.070396327e-06)
(0.008382142329 1.252275769e-05 -2.84525329e-06)
(0.00837392704 -9.025371434e-06 2.283642422e-06)
(0.008426489813 5.916074572e-06 -6.238696435e-06)
(0.008368578773 3.525389066e-06 -1.785468581e-05)
(0.008375754902 7.421346281e-06 -1.406996752e-05)
(0.008310686273 2.261972039e-05 -3.60757798e-06)
(0.008320496646 1.221483789e-05 -3.176865035e-06)
(0.008295367922 1.162608224e-05 -5.519517496e-06)
(0.008254771284 1.568547646e-05 4.816737964e-06)
(0.008228060318 -4.746554957e-06 -4.093298833e-06)
(0.006375053638 -1.921339929e-05 7.389138736e-07)
(0.008363986464 -2.952321472e-05 -2.600695114e-06)
(0.008343794369 -1.646758651e-05 -8.379312375e-07)
(0.008328160028 6.154515379e-06 5.541302172e-07)
(0.008292842231 -3.271094283e-06 5.977604428e-06)
(0.008349061749 -3.219500289e-06 1.503623843e-05)
(0.008362806292 1.202370113e-05 1.138747273e-05)
(0.008323051559 8.507014658e-06 1.50916916e-05)
(0.008338550939 -6.241720291e-06 4.710982808e-06)
(0.00830197852 2.077681692e-06 4.160378687e-06)
(0.008283392116 3.797551129e-06 4.936070842e-06)
(0.008233782687 2.495903489e-05 4.863516426e-07)
(0.008154113613 2.930516701e-05 1.618892622e-05)
(0.008198821782 2.298955244e-05 2.196889456e-05)
(0.008231972168 4.033684849e-06 2.243102626e-05)
(0.008335460749 -1.392420538e-05 9.575430578e-06)
(0.008355802933 -8.282352428e-06 -9.23627417e-06)
(0.008319346226 9.840961042e-06 -7.531701891e-06)
(0.008366210383 1.650660943e-05 -1.765172482e-05)
(0.00831708622 2.421895409e-05 -1.926090749e-05)
(0.006386173727 2.562037601e-05 3.02370031e-06)
(0.008345289069 2.381584284e-05 7.839713746e-06)
(0.008317281771 -4.389640413e-06 5.152988917e-07)
(0.008345171582 -6.637953394e-06 -1.124825962e-05)
(0.008313494031 -2.53651845e-06 -4.293532155e-06)
(0.008318359718 -5.653415469e-06 -9.567481328e-06)
(0.008202822591 2.078551079e-06 -9.196654873e-06)
(0.008290882187 1.224827931e-05 -3.173988072e-06)
(0.008296366704 1.928990364e-05 -7.361049932e-06)
(0.008327331441 1.301363025e-05 -9.009551809e-06)
(0.008375006037 1.090017843e-05 -4.869370894e-06)
(0.008403376005 2.162888064e-06 -6.649444403e-06)
(0.008419075739 -1.079246329e-05 -1.468793112e-05)
(0.008473133328 -4.132751935e-06 -2.475998609e-05)
(0.008388845548 8.748495679e-06 -1.868659943e-05)
(0.008349953432 6.132647143e-06 -7.625747436e-06)
(0.008349353093 1.082157925e-05 -3.203838235e-06)
(0.008370761629 -8.751669966e-06 7.887878888e-06)
(0.008343388308 4.172257377e-06 1.491020803e-05)
(0.008357746266 -5.986592508e-06 1.482179127e-05)
(0.006342852482 -1.29408526e-05 9.45425314e-06)
(0.008306489389 -1.927936416e-05 7.929217989e-06)
(0.008320486407 8.269978991e-06 1.231698643e-05)
(0.008325657122 2.491132193e-05 1.099103942e-05)
(0.008336349302 2.304451931e-05 1.676478337e-05)
(0.008306426218 7.889397918e-06 1.020055078e-05)
(0.008390681802 8.696224509e-08 1.32658079e-05)
(0.008362901997 -1.363349682e-06 1.236751395e-05)
(0.008340010596 -1.684981772e-05 1.999992652e-05)
(0.008276944577 -2.305766019e-05 1.20600652e-05)
(0.008271248856 -1.207143768e-05 1.256390202e-05)
(0.008306598934 -1.059837267e-05 1.424488876e-05)
(0.008315863928 5.242967366e-06 1.040547846e-05)
(0.00833199187 2.52728742e-06 1.761381372e-05)
(0.008347860056 5.75110739e-06 2.086901367e-05)
(0.008366390488 1.377100032e-05 2.037503827e-05)
(0.008434798513 6.376137639e-06 2.078368027e-05)
(0.008393879596 2.388942296e-07 8.187876582e-06)
(0.00837541149 5.111972944e-06 1.141382169e-05)
(0.00837013309 1.158675751e-05 4.828257733e-06)
(0.006376047935 1.427007504e-05 -1.360665534e-05)
(0.008345508674 2.001034576e-06 -1.49147246e-05)
(0.008371744846 3.455773943e-06 -1.404674732e-05)
(0.00830833723 -1.487767648e-05 2.952689511e-07)
(0.008332405762 -1.675953285e-05 -1.874114625e-05)
(0.008389771384 4.889793216e-06 -1.380739345e-05)
(0.008370672562 9.490910056e-06 -6.522868961e-06)
(0.008395601232 1.927407492e-06 4.779041638e-06)
(0.008376521157 1.934256687e-05 1.005577991e-06)
(0.008397641702 1.938769178e-05 2.916632378e-06)
(0.008384342767 7.295324943e-07 2.94356387e-06)
(0.008325667645 -6.556710915e-07 -1.70954322e-06)
(0.00827549503 2.646342509e-06 2.365888553e-06)
(0.008266756374 -7.732741662e-06 -1.246637475e-06)
(0.00821049681 -4.392343321e-06 -1.186575478e-05)
(0.008229827167 -6.634289018e-06 -1.227150506e-05)
(0.008222754175 1.809818717e-06 -8.440978982e-06)
(0.008257820068 2.659853821e-06 -2.197476821e-06)
(0.008291182441 8.887400572e-06 -4.019634194e-07)
(0.00827304208 5.02860684e-06 5.49545234e-06)
(0.006364057379 -3.551646726e-06 -1.415265641e-05)
(0.008383355664 4.285808264e-07 -2.825502088e-05)
(0.008452090806 -8.59881525e-06 -3.155128181e-05)
(0.008428250302 -3.540491824e-06 -2.909001664e-05)
(0.008410508273 -6.426924379e-06 -2.062108599e-05)
(0.008406741547 -8.590056608e-06 -9.494983485e-06)
(0.008404297178 -2.063921333e-05 -1.038945547e-05)
(0.008419061228 7.762788822e-07 -1.669078037e-05)
(0.008414868261 -4.089943068e-06 -2.1879545e-05)
(0.00837928213 1.2356819e-05 -3.408531832e-05)
(0.008399729712 1.271924111e-05 -2.922725449e-05)
(0.008431070282 1.558522515e-05 -1.807624989e-05)
(0.008493673265 2.470575383e-05 -2.216701652e-05)
(0.008475445486 2.781466209e-05 -2.267367088e-05)
(0.008521594888 9.443859693e-06 -1.240170906e-05)
(0.008473126783 1.302348751e-05 -1.792408669e-05)
(0.008456306375 7.139747364e-06 -7.293230573e-06)
(0.008498444525 -9.035849931e-06 -6.81202961e-06)
(0.008472956934 2.786851767e-06 -2.113562986e-05)
(0.008480686659 -9.383244155e-06 -2.592803316e-05)
(0.006348882534 -2.679927539e-05 4.416727867e-06)
(0.008329918907 -2.002150892e-05 6.762922366e-06)
(0.008297541847 4.022250893e-06 3.719141577e-06)
(0.00829071715 -3.784771432e-06 3.339916683e-06)
(0.008272344107 2.714820416e-06 -8.860355755e-06)
(0.008282341066 4.851725385e-06 -1.13908487e-05)
(0.008263546748 8.676911358e-06 -1.165488175e-05)
(0.008126950461 -2.302643151e-06 -2.636752317e-05)
(0.008204754671 -3.038820349e-06 -7.48457493e-06)
(0.008241174116 -1.157244499e-05 -7.69805225e-06)
(0.00831729089 -3.776452526e-06 -6.558028317e-06)
(0.008320326875 -5.387606745e-06 -2.333472573e-05)
(0.008284512483 -1.252219367e-05 -1.099951213e-05)
(0.008289099692 -5.234603096e-06 2.109356143e-06)
(0.008318526132 1.942305184e-05 5.701602126e-06)
(0.008375166788 9.615688192e-06 1.344620236e-05)
(0.0083678312 7.720132797e-06 5.620289507e-06)
(0.008306745159 7.567063132e-06 4.271748522e-06)
(0.008308873488 8.489882341e-06 7.092384069e-06)
(0.008261594647 4.265556807e-06 -2.10055385e-06)
(0.006330459765 1.046372229e-05 9.963202684e-06)
(0.008297144354 6.588409191e-06 5.440290932e-06)
(0.008278587348 -2.713426387e-05 -4.015026217e-06)
(0.008217698825 -1.205251555e-05 1.395594051e-06)
(0.008247388739 -7.216332749e-06 4.49975013e-06)
(0.008213475041 7.167497048e-07 5.310512561e-06)
(0.008288073601 2.306069234e-06 2.787439876e-06)
(0.008391990414 5.28262533e-06 1.440500027e-05)
(0.008410463881 7.206274836e-06 2.032492582e-05)
(0.008384516919 9.995340514e-06 8.902450449e-06)
(0.008269982523 1.653711766e-05 2.658065348e-05)
(0.008261081879 -2.374608213e-06 1.12818463e-05)
(0.00823854615 -5.528057253e-06 5.486583301e-06)
(0.008242182579 -1.239707813e-05 -7.596248395e-06)
(0.008247546765 -2.237631815e-05 -2.222725483e-05)
(0.008247316977 -1.4088343e-05 -1.90748162e-05)
(0.008234952135 -1.096544253e-06 -1.120732353e-05)
(0.008214829604 1.614204432e-05 -2.049996022e-05)
(0.008294446614 1.661574155e-05 -1.610854897e-05)
(0.008305934915 3.430419396e-05 -1.368176541e-05)
(0.007783597962 0.001739662372 -5.320155721e-05)
(0.008076793502 0.002279441154 -1.534286863e-05)
(0.008008419714 0.002312781998 -6.0664671e-05)
(0.00773532846 0.002184768288 1.549585103e-05)
(0.007383919924 0.002178154221 6.977525591e-05)
(0.007076072398 0.002061802309 -4.732774356e-07)
(0.006656370278 0.001905912707 -3.280228701e-05)
(0.006273032737 0.00184890109 -0.0001081332676)
(0.005951841638 0.001685190467 -8.144763442e-05)
(0.005809530648 0.001667718864 -3.286367082e-06)
(0.008443261649 0.001266111588 -9.389631651e-05)
(0.008994204178 0.002084404396 -7.140026424e-05)
(0.009476202957 0.002541699368 2.020426731e-06)
(0.009814280111 0.002829393168 -1.469838649e-05)
(0.009947496461 0.002988790463 -8.646258824e-05)
(0.009801635895 0.003022655185 -0.0001146176954)
(0.009616249791 0.003021987618 -8.409110137e-05)
(0.009347842874 0.002940668481 -0.0001646892149)
(0.009125895222 0.002771961422 -6.217617742e-05)
(0.008749892261 0.00261818628 -1.093139768e-05)
(0.008414062003 0.0008960720634 7.118890756e-06)
(0.008920389304 0.001506631235 -9.737568367e-05)
(0.00942176959 0.002031938638 -2.794202882e-05)
(0.009884364259 0.00249898534 -0.0001009698889)
(0.01021760576 0.00287942203 -8.090462706e-05)
(0.01061132262 0.003223995022 -5.657724798e-05)
(0.01073565172 0.003348968434 -7.805239641e-05)
(0.0108503222 0.003428036757 -6.048337902e-05)
(0.01074808499 0.003392626154 -4.898416085e-05)
(0.01046602069 0.003389300302 -1.241627317e-05)
(0.008464395946 0.0006107368077 1.728614341e-05)
(0.008752530716 0.001051476342 4.371227627e-06)
(0.009085552496 0.001513256901 5.163347655e-06)
(0.009474804668 0.001985971193 1.372388874e-06)
(0.009936586059 0.002411200715 7.093041203e-05)
(0.01051243045 0.00277387789 -2.792695202e-05)
(0.01102117887 0.003185591846 4.337769092e-05)
(0.01131970157 0.003419002042 -6.46353956e-05)
(0.01142607483 0.003621912504 -5.140613017e-05)
(0.01144905158 0.003696234405 -4.410884985e-05)
(0.008399448645 0.0004559839253 -2.850541101e-05)
(0.008559573208 0.0007524090681 6.895981781e-06)
(0.00893511843 0.001095485188 2.029165071e-05)
(0.009386911475 0.00148397095 4.771260064e-06)
(0.009785377379 0.001830533083 2.733109555e-05)
(0.01009901538 0.002241985731 5.653348466e-05)
(0.0104767299 0.002675551461 2.568666939e-05)
(0.01087619205 0.003005643601 2.212824354e-05)
(0.01132646612 0.003410150158 -1.20590001e-05)
(0.01178160875 0.003602006502 3.104119815e-05)
(0.008410853137 0.0003265602397 -2.490655457e-05)
(0.008585536126 0.0005225592505 -1.437043483e-05)
(0.008797950481 0.0008003923846 4.863213885e-05)
(0.009017398255 0.001092076294 1.511206878e-05)
(0.009337704686 0.001449074008 1.300940787e-05)
(0.009750726683 0.001762148082 -9.096532256e-06)
(0.01019711087 0.002189657188 -1.318542312e-05)
(0.01063711259 0.002513732355 3.132530085e-05)
(0.0110568818 0.002877043224 4.107554964e-05)
(0.01152899881 0.00317652757 -4.862589331e-06)
(0.008434253234 0.0002312746172 -7.483439999e-06)
(0.008508804391 0.000377571639 -7.010969604e-06)
(0.008657679019 0.0005451457125 -3.309741272e-05)
(0.008877243862 0.0008182479363 -5.84157959e-06)
(0.009119458226 0.001033452416 1.716606353e-07)
(0.009501083465 0.001371260799 -6.43709244e-05)
(0.009872466195 0.001667532196 -4.957185516e-05)
(0.01030601926 0.002052719881 -4.239132931e-05)
(0.01078629418 0.002362559587 -1.411133419e-05)
(0.01121122582 0.00274051303 -1.001024287e-06)
(0.00839766019 0.0001750339509 -1.835169092e-05)
(0.008406607694 0.000283437438 -2.61827657e-05)
(0.008511341514 0.0003815233255 2.723921246e-06)
(0.008688678724 0.0005625193251 -1.168701065e-05)
(0.008911674013 0.0007333912993 1.754254458e-05)
(0.009141323899 0.0009934160694 1.183022654e-05)
(0.009548141129 0.001233985502 -8.453106503e-06)
(0.009809615506 0.001533496598 -1.138170084e-05)
(0.01010420268 0.001846794534 -2.227775116e-05)
(0.0105172363 0.002177394951 2.729787101e-05)
(0.008382194282 0.0001539581709 -1.645462952e-05)
(0.008486580043 0.0001970116109 -5.615877006e-06)
(0.00856286696 0.0002837724997 -1.148101711e-05)
(0.008659942376 0.0003860483688 -2.213999442e-05)
(0.008778006962 0.0005377661351 2.468205808e-05)
(0.008896909061 0.0007071339753 3.565953149e-05)
(0.009025823578 0.000910644747 1.355152164e-05)
(0.009355977389 0.001160695054 -6.065021507e-06)
(0.009749701572 0.001403231047 -6.167417095e-06)
(0.01010396072 0.001667100607 -2.881045459e-05)
(0.008408788137 8.78891453e-05 8.875346188e-06)
(0.00844041117 0.0001453168815 -1.017215882e-05)
(0.008486165942 0.0002024070019 -6.199186808e-06)
(0.008471748788 0.0002858774507 -1.252691307e-05)
(0.008559923582 0.0003793697502 -1.67967499e-05)
(0.008808946228 0.0005357993062 -5.687957912e-06)
(0.009017187779 0.0006757374348 -2.827319051e-05)
(0.009162579626 0.0008273459007 -5.499333106e-06)
(0.009335389323 0.00106181567 -6.887797478e-06)
(0.009599418055 0.001262061918 -5.19070448e-06)
(0.008448638397 7.237965817e-05 -7.078323366e-06)
(0.008440106581 0.0001249111496 7.829245187e-06)
(0.008614703541 0.0001555780711 -2.256901959e-05)
(0.008655041063 0.0002357606278 -9.910802155e-06)
(0.008743999895 0.0002930908245 -7.888678964e-06)
(0.008701474938 0.0003921997427 -1.55398377e-05)
(0.008794903436 0.0005261718917 1.917121102e-05)
(0.008970985577 0.0006481844206 3.274135792e-05)
(0.009149644708 0.0008336381776 5.342338159e-05)
(0.009403157661 0.0009882127505 3.612368257e-05)
(0.008373406539 3.506283831e-05 1.007180742e-05)
(0.008354592236 6.533051489e-05 2.520572896e-05)
(0.008327146964 9.511017825e-05 2.347305663e-05)
(0.008316977282 0.0001561252537 3.37264425e-05)
(0.008409290745 0.000199521168 2.703136424e-05)
(0.008496050906 0.0002706347505 2.651254879e-05)
(0.008565764243 0.0003694152212 2.275613441e-05)
(0.008719221393 0.0004694771535 -5.424302249e-06)
(0.008875638136 0.0005815667682 8.36699302e-06)
(0.009083136465 0.0007062465034 4.672053004e-06)
(0.008365169702 5.820219337e-05 1.192212916e-05)
(0.008394157531 8.278235366e-05 1.963881871e-05)
(0.008428079779 0.0001063399905 2.00273026e-05)
(0.008451059803 0.000123041521 1.732960514e-06)
(0.008414078354 0.0001651664384 -4.326055371e-06)
(0.008488284407 0.0002315874936 -1.84205939e-05)
(0.008650112944 0.0002506196602 -1.623266138e-05)
(0.00868870869 0.0003175701103 -2.372454278e-05)
(0.008792430591 0.0004150001719 -3.060091505e-05)
(0.008939709003 0.0005237246038 -2.557055581e-05)
(0.008282904511 1.730507728e-05 -7.01547576e-06)
(0.00830250955 1.90559029e-05 -1.720321053e-05)
(0.008273155318 6.871841084e-05 -1.475292162e-05)
(0.008293902915 9.072165376e-05 -3.131569739e-06)
(0.008332871108 0.0001079200608 -2.554324874e-05)
(0.008381255932 0.0001272343222 -2.500959534e-05)
(0.008379125403 0.0001576682626 -2.024550168e-05)
(0.008483238928 0.0002246125013 -1.73205417e-05)
(0.008551585348 0.0002966477669 -2.201098379e-05)
(0.008663417122 0.00037964326 3.048907461e-06)
(0.008187754973 2.63651404e-05 -2.171797075e-06)
(0.00818041199 4.137807515e-05 -1.844955602e-05)
(0.008265558867 3.49590725e-05 -1.339370315e-05)
(0.008390598164 3.050895728e-05 -8.175354306e-06)
(0.008428244934 6.544742773e-05 7.243979535e-06)
(0.008534902251 9.66486579e-05 1.224715174e-05)
(0.008532969371 0.0001454678814 1.460692475e-05)