/*--------------------------------*- C++ -*----------------------------------*\
| =========                 |                                                 |
| \\      /  F ield         | OpenFOAM: The Open Source CFD Toolbox           |
|  \\    /   O peration     | Version:  2406                                  |
|   \\  /    A nd           | Website:  www.openfoam.com                      |
|    \\/     M anipulation  |                                                 |
\*---------------------------------------------------------------------------*/
FoamFile
{
    version     2.0;
    format      ascii;
    arch        "LSB;label=32;scalar=64";
    class       volVectorField;
    location    "0.005";
    object      momentum;
}
// * * * * * * * * * * * * * * * * * * * * * * * * * * * * * * * * * * * * * //

dimensions      [1 -2 -1 0 0 0 0];

internalField   nonuniform List<vector> 
654
(
(0.005423140017 5.481924196e-05 -3.051667696e-05)
(0.007100452382 7.41733635e-06 0.0001153466721)
(0.007940947832 4.165859161e-05 -0.000723116484)
(0.006601132575 -2.339769882e-05 0.0008570850248)
(0.009396803857 -0.0002594255078 0.0002372498486)
(0.008734291688 0.0001861551994 0.0005308441286)
(0.007657219833 -2.960634004e-05 -0.0007957637174)
(0.006594725224 -0.0001092341509 -2.395224431e-05)
(0.005896405338 0.0007366335625 0.0001925146352)
(0.00989930354 -7.86656282e-05 0.0002794691196)
(0.00857115107 -0.0003565715837 0.0003228248849)
(0.01306519104 -4.863099134e-05 -0.0003200130161)
(0.009112184026 -0.000471438517 -0.0002992065569)
(0.007536820919 0.0002702186583 -1.550542729e-05)
(0.003331597692 0.0002518005534 0.0001600408499)
(0.01243724338 -0.0003695478204 0.001387441689)
(0.002900986493 9.573810226e-05 9.118997178e-05)
(0.008031276158 -9.042901537e-05 6.431836365e-05)
(0.006266437574 -0.0001252975963 0.0003495135567)
(0.006403039805 -0.0001035500535 0.0002133315081)
(0.007164530125 -0.0004406564012 -6.35385855e-05)
(0.007678356717 0.0004154821813 -0.0006560707873)
(0.01000685249 -0.0003879447598 -2.022433546e-05)
(0.00716106739 -0.0007311509621 -0.0005436736217)
(0.007262653239 0.0004171333722 0.0004003987322)
(0.005171625265 7.981085669e-05 0.0004369504302)
(0.004511410293 -8.914638418e-05 -3.689427112e-05)
(0.007654280336 -0.0009125486323 -8.185654148e-05)
(0.005784827663 0.0003449439536 0.0007471763443)
(0.01033691248 0.0001239528075 -0.000856711546)
(0.008339889006 -0.0004655740104 0.0005491534899)
(0.007779639454 -0.000303198314 -0.0003219387386)
(0.007393529979 3.646293378e-06 -0.0003156842851)
(0.007265256191 -0.001148389811 0.0003502409128)
(0.009645493833 0.0004175539826 -0.0005405065853)
(0.007472784847 -0.0005224880671 0.0002866011748)
(0.008437844474 -3.224368678e-05 0.0006617371361)
(0.006752087002 0.0002294878903 -8.593882324e-05)
(0.01099744778 0.0006308191623 0.000222401878)
(0.005906759046 0.001500887322 0.0005318698937)
(0.007104652913 0.0002924092022 -0.0003505572888)
(0.009460840681 -0.0007241055598 0.0007287972974)
(0.009529795073 0.0002416372489 0.0006160528534)
(0.01314814702 -0.0002955352335 -0.00077901816)
(0.007756458289 -0.0003232291847 5.890758122e-06)
(0.01092720704 0.0005147547475 -0.0003817007522)
(0.01109736241 -0.0005115926714 -0.000417920329)
(0.007230685312 0.0006105928834 0.0007682377675)
(0.008964955549 0.0002853777025 0.0004432381405)
(0.006710655482 -0.0001802000295 -0.001063852331)
(0.006376777713 0.0005024286309 -0.0006235611723)
(0.01855203126 -0.0005309780623 -0.0001057007512)
(0.01303798765 0.001096636049 -0.0007933613916)
(0.007075739573 -0.0002062105088 -6.91263344e-05)
(0.00810516262 -3.040923205e-05 0.0001280387382)
(0.01022771596 -0.000307180996 0.0009129313036)
(0.01024956197 0.0006135295062 0.0005417466782)
(0.008495506473 -0.0006019288905 0.0003299794226)
(0.009503066334 0.0005130205084 0.0005884606808)
(0.00582467842 0.0002874040893 -0.0003612823055)
(0.004228010785 -0.0003870756789 -0.0003526386019)
(0.007157410419 0.0002617527978 -0.0007873512582)
(0.006046796419 -6.551696878e-05 0.0004872899151)
(0.009136851655 -0.001078420699 -0.0004674366889)
(0.006731973057 9.258061037e-05 -0.0009665211912)
(0.008816233672 0.0001503192928 0.0003746082511)
(0.005343056429 6.710603931e-05 7.779095225e-05)
(0.005580904781 -6.148763139e-05 -5.294996584e-06)
(0.01263306718 0.0007212904123 -0.0002495141179)
(0.007112621307 -0.0003898170122 -0.0001179307744)
(0.00771119111 0.0001600248963 -0.0004216969192)
(0.008157898647 -0.001123992502 0.0004764641424)
(0.007409409161 -0.0004904832456 0.0002409755917)
(0.009701853156 -0.0001142277036 -0.0002490428566)
(0.007199976043 0.0001266254197 -0.0002621941232)
(0.00992126097 0.0001996589953 -7.000162564e-05)
(0.02036445545 -0.0003378029452 0.0009696101927)
(0.009453450274 -0.0001688770863 -0.0006569655353)
(0.007912208007 -6.319362637e-05 0.0006155626871)
(0.006203697506 0.0001395683764 7.408333376e-06)
(0.004946172352 -0.0001619630471 1.506378539e-05)
(0.009204597946 0.000660434136 -0.0005063806729)
(0.007932630603 -0.0002047039812 0.000232225528)
(0.009198014215 -0.0002416397748 -0.0007016887985)
(0.00883737704 -0.0002869953737 -4.336959469e-05)
(0.007327238463 0.0004112305087 0.0003137824027)
(0.008566224054 0.0002746890719 0.0003682316946)
(0.01041399657 0.000663506631 0.0001071891447)
(0.00516839513 0.0002520453541 -3.961365224e-05)
(0.00672855221 0.0002779123993 -0.0007255729907)
(0.01012617714 3.973666404e-05 -0.0005690966599)
(0.005332206778 -0.0001526611636 -0.0002720062612)
(0.004159509718 -0.0004520626696 0.0001166521443)
(0.006483215884 0.0001845022808 0.0003149976234)
(0.009410458115 -0.0002872658887 0.0009126618705)
(0.006283526405 -0.000279162633 -3.043912724e-05)
(0.004210225526 0.0002738089714 -9.546102629e-05)
(0.009959677183 0.0007183974747 0.0005553372516)
(0.003810810525 -0.0006021563727 1.118209775e-05)
(0.014284555 0.0004852928043 0.0001679553421)
(0.005000085795 0.000306603805 -0.0005182840276)
(0.011974 -0.0006413553126 -0.0006362891492)
(0.008064403613 0.0003442183055 -0.0001766411955)
(0.009502013963 -0.0003871794878 -0.0005168460066)
(0.006228568932 0.0008974323335 -5.654200843e-06)
(0.007601045143 -5.263558939e-05 -0.0002737518856)
(0.007819118751 1.982377503e-05 0.0002814212918)
(0.008930747308 0.0001018760831 -0.0006132807014)
(0.01112648629 -4.088811348e-05 0.0003531389117)
(0.007190379858 0.0007696749533 4.824801654e-05)
(0.009147535527 -3.371535552e-05 -0.0002155474911)
(0.007950890873 0.0001456734906 1.570966756e-05)
(0.008420712937 0.0001814135684 0.0005755349254)
(0.005622201539 7.759546699e-05 0.0001842641963)
(0.006843320979 -0.0001743886466 -0.001064432453)
(0.008559309182 -0.0005315629324 -0.0001095282182)
(0.009215465169 -0.0002979738912 0.0004243043667)
(0.004866562934 -0.0002973015337 0.0003449293117)
(0.007958434298 0.0003211302529 0.0003895291053)
(0.005689373709 0.0008919757466 -0.0002697695224)
(0.007245108298 0.0008765922572 -9.334560323e-05)
(0.007491240223 -0.0007310476867 0.0003339133943)
(0.005874488546 -0.0005454356359 1.584024609e-05)
(0.005749685678 0.0004072279236 0.0006729774809)
(0.01271568712 -0.0001398876934 0.0004231180316)
(0.007586201781 0.0001698819221 -0.0003111243568)
(0.007119034008 -0.0003792190053 0.0001967278885)
(0.009568121683 -0.0006548189512 0.0005053051443)
(0.006473954441 0.0001044128011 -0.0003659603428)
(0.006551491122 6.718051481e-05 0.0007082073925)
(0.01028292647 -0.0003970862751 -0.0008708632629)
(0.01236044762 0.0007018903196 -0.0002321714362)
(0.006490607564 0.0004060123645 0.00010561868)
(0.01151367399 0.0005234927102 -0.0004627201864)
(0.00903772615 -0.0004801481311 0.0003714831346)
(0.003053418635 2.831677766e-05 -0.0002195064978)
(0.01041263202 -0.0002307538731 0.0008441182795)
(0.005131531064 -9.066747923e-05 0.0004158527322)
(0.009881075281 1.695798483e-05 -0.0001175461493)
(0.01203734939 0.0002628715009 -0.0005852543664)
(0.007438554322 -0.0009320327523 -0.0002814571994)
(0.008204045451 -0.000152598317 0.0001960545179)
(0.006138971582 -0.000680643298 0.0002314926406)
(0.006984516934 0.0006249063574 0.0005600758153)
(0.01538942308 0.0005072283914 0.0006621273904)
(0.00440848519 0.0001623199606 -0.0004991545539)
(0.008660474484 0.0005864920249 0.0005450715438)
(0.0131903704 -0.0007727293415 0.0003591841941)
(0.01064737276 0.0002188390164 -0.0008408135768)
(0.005577494699 -0.0003324811845 -0.0001071488447)
(0.00971150951 -0.0006847417762 0.0008365454783)
(0.01159872835 -0.0004335527297 0.0001504605524)
(0.009356528592 0.0007501221852 -2.423758695e-05)
(0.006403958493 5.628975695e-05 -0.000306167677)
(0.007714634395 0.0008251182593 -0.0001566734761)
(0.007568283738 -5.851990374e-05 -8.802023807e-05)
(0.002912487015 -0.0001365685527 -0.0003683026115)
(0.01178040013 -0.000260216692 -8.859972169e-05)
(0.01282109576 -4.682506051e-05 -0.0003728831081)
(0.0125482616 -9.191918372e-05 -0.0007107614424)
(0.005307352647 0.0003029286426 0.0001438719387)
(0.008749623203 0.0006090852191 -0.0002015530186)
(0.01158311809 -0.0004077423345 -0.0002121177899)
(0.008276808717 0.0001035651369 -3.257909392e-05)
(0.005230894883 -0.0001483653377 -1.56012043e-06)
(0.009976230216 -0.0003498573794 -0.0003258813729)
(0.004068741344 0.0001829284578 -0.0001730249244)
(0.005191989475 0.0002334897811 0.00032813899)
(0.007042043763 0.0001300758986 -0.000268642897)
(0.003615678 4.4212687e-05 -0.0003545000981)
(0.008792699291 -0.0003884386527 -0.0006903220136)
(0.01089567018 0.0001480768098 -0.0004906253831)
(0.008149976618 0.0001601518794 0.0004651231753)
(0.01019743933 0.0003670113653 -0.001198178874)
(0.006586360587 0.0009104914619 0.0004513372031)
(0.008481313778 6.439320749e-05 0.0001185328934)
(0.01667278275 0.0007006706521 6.24854172e-05)
(0.01166788325 0.0005801577186 -0.0004292081575)
(0.006764544578 0.0004545042087 -0.0003492897755)
(0.009355257476 0.0004863791628 -0.0005604617896)
(0.007108860604 -0.0006460896149 5.989483586e-05)
(0.009700010862 7.504661874e-05 -0.0007816071379)
(0.008126521633 -0.0004127330563 8.110950006e-05)
(0.007640171671 -0.000388413935 -0.0002203687104)
(0.007062195422 -0.0001179931953 0.0002982720039)
(0.007037972652 0.0004194532484 -0.00022587484)
(0.005059695141 0.0001493191322 0.0004192733244)
(0.008980528458 -0.0002125568601 -0.0002126195721)
(0.008765013272 0.0004787725898 -0.0006238406679)
(0.008321420723 8.738379263e-05 0.0006372536231)
(0.007821482863 0.0004595639221 0.0008024759478)
(0.006911039603 0.0004333620023 -0.0008312680877)
(0.01070303603 9.092042969e-05 0.0001090252404)
(0.01412872041 0.0004995513046 0.0001068767085)
(0.005159520528 -0.0002607830585 -6.698527944e-05)
(0.009623726778 8.969580634e-05 8.522141625e-06)
(0.01040518332 -0.0006275984227 0.0006548072742)
(0.008191269706 -0.000678925689 -0.0006468695211)
(0.005839713552 0.00017104218 0.0007463095539)
(0.005293916088 0.0002854311191 0.0001325384026)
(0.003694518675 -4.403456787e-05 0.0004001838173)
(0.007472390478 -0.0002800426126 0.0001444027627)
(0.009259598005 -0.0004490188292 0.0002665367424)
(0.009695843311 0.000703442255 0.0004450427121)
(0.008414895601 0.0001959015454 -4.126625756e-05)
(0.008175572052 0.0001890099788 0.0008624384805)
(0.008048391996 0.0002992376292 -0.0006111126141)
(0.01051688547 0.0001159704616 -0.0002416433573)
(0.01010876622 -0.0002031974489 -0.0002879643595)
(0.006901020067 -6.187658757e-05 0.0005213921432)
(0.007311499163 -0.0002630634242 0.000407596187)
(0.007640306228 0.0004544630331 -0.001156972711)
(0.01340432655 0.0005038961957 0.0001693783167)
(0.00837329287 0.0004006150212 -0.0002581253267)
(0.009049637356 -0.0006457486138 -0.0001658196535)
(0.007620601541 -0.0001089614822 0.0004439757326)
(0.009671368178 -0.0004799554371 -0.0007118320477)
(0.004827967434 0.0010847015 -0.0001036363878)
(0.007409812195 8.515457586e-05 0.0002087734221)
(0.005208247102 -9.90092296e-05 -0.0009599006013)
(0.004715266763 0.000264179351 -0.0004325656945)
(0.01170151184 0.002084422762 -0.0001638219277)
(0.01175580554 0.0006136516359 -0.000618590299)
(0.006979507214 0.0001830599957 0.0005625703494)
(0.007785816671 0.0001406995974 -0.0001947526913)
(0.01069434775 -6.521227025e-05 -0.0003028234876)
(0.006632392515 0.0002326914861 -0.0004481340813)
(0.0133802909 3.128968095e-05 0.0002249849574)
(0.00731095469 -0.0003657228714 -2.220347405e-05)
(0.007106450259 -0.0007073796683 -0.000205854373)
(0.007040936245 0.0003484697501 -7.064604412e-05)
(0.0128314084 -0.0005281395506 -0.0007613274921)
(0.009096443956 -0.0002355286261 -5.829834442e-05)
(0.01512799112 -0.0009912155905 0.0002129752697)
(0.007241335986 0.000559223098 0.001077308279)
(0.006908144696 8.550629328e-05 -3.159889559e-05)
(0.01055397762 -0.0004889406613 -0.000153819926)
(0.007050541428 -0.0001635720904 -0.0005433507942)
(0.009195634388 -0.0002539413882 -0.0007233139472)
(0.01027620808 0.000840181215 -0.0007701434188)
(0.006337053578 -6.300378179e-05 -0.0002225606863)
(0.007353387211 -9.58202955e-05 -0.0002659752023)
(0.008123014726 0.0001392882371 0.0007341054528)
(0.01029041237 -0.000343884336 -0.0004613284309)
(0.009348397863 -0.0001717258552 -0.0005754485726)
(0.00783787487 -0.0004849116553 0.0004255109129)
(0.009342524789 -0.0002580682277 -0.0002144551516)
(0.008783622001 0.001154608861 -0.0007274425454)
(0.00387843806 -0.0001771518115 0.0003475676987)
(0.009226165831 0.0004918864581 0.0001320193702)
(0.01032630265 -6.739702857e-05 -0.0003914365033)
(0.01017808892 0.0002672837047 -0.0005138651743)
(0.005452316197 -0.0007119410478 -4.063014619e-05)
(0.00601823723 -0.0005030935178 -0.0003157573685)
(0.007560084485 -0.0004095968578 6.854726338e-05)
(0.009404424659 0.0008958102604 -0.0006009301535)
(0.009734642272 0.000446128107 -0.0001606884195)
(0.00852416318 0.0004297776565 0.000821774266)
(0.008358482069 -0.0008675756037 0.0002005010778)
(0.00616124296 0.0009751734659 -0.0005097729666)
(0.006990791961 -0.0004961204228 0.0005474066027)
(0.009316763353 0.00030563206 -0.0003725960648)
(0.01033345794 -0.0009608787005 -0.0002749218726)
(0.00491547741 5.839954168e-05 -0.0004087225811)
(0.008271148282 0.000161803403 -0.0008806732429)
(0.007647567468 -0.0001885069442 0.0003917000419)
(0.009357252279 -0.0001493038056 -7.129639938e-05)
(0.009429101504 0.0001664754009 -0.0005536665309)
(0.00250079376 3.658773832e-05 -0.0001027477135)
(0.007850018386 0.0005267789619 0.0006648457119)
(0.01119561724 -0.0003951344542 -0.0004097655386)
(0.006476970377 -0.0002070600065 0.000406465456)
(0.008265326747 0.0003341024032 -0.0006614021206)
(0.007064916406 -2.838535067e-05 0.0001335032488)
(0.00563187641 -0.0001199549514 9.649725621e-05)
(0.007075574325 -0.0001196301514 0.0003359324436)
(0.007964877827 -1.410557509e-05 -0.0002328324956)
(0.01014515042 -6.479875423e-05 0.0007073524092)
(0.004348150805 0.0001024038023 0.0002940138248)
(0.00588316117 -4.571809308e-05 0.0002757782588)
(0.005779739656 -0.000393786785 -9.618725265e-05)
(0.01103448797 0.0007982674368 -0.0003569336492)
(0.01148241476 -0.001029753442 3.409202275e-05)
(0.006294926919 -0.0001334037233 0.0001453141211)
(0.00660479177 0.0004529450631 0.0003790804947)
(0.008750911804 0.0004413965632 0.0005450629113)
(0.01052921087 0.0002704658821 0.0003410153395)
(0.00958679045 -0.0008943578421 -0.0001806261906)
(0.007441992853 0.000253008972 -7.801785646e-05)
(0.007714704269 -0.0002944882758 -0.0004451945031)
(0.00938330686 9.497292053e-05 -0.0002203371301)
(0.007075510225 -0.0003720093401 0.0006019493082)
(0.01392784651 -0.0008453052181 0.0001827665294)
(0.006268207559 0.0001697901592 -0.0001320607124)
(0.008774615142 -4.336661338e-05 0.0003655442921)
(0.003947855498 -0.0001611608502 -0.0001431717755)
(0.005062248063 -0.0003018069001 -0.0004842803823)
(0.00839629402 -0.0005073903492 8.830348351e-05)
(0.008228164531 0.0004563342664 0.000633403403)
(0.008973056943 0.0003054833912 -0.0006939468744)
(0.006218019708 -0.000162310977 0.0003664483477)
(0.003858100418 9.209703217e-05 -0.0002010040377)
(0.007029727446 9.74500705e-05 -0.0002340307538)
(0.009197561165 1.39701012e-05 -0.0001103947801)
(0.0105738528 -0.0001831859564 0.00072439026)
(0.005161720532 -0.0004307024218 -0.0001966552075)
(0.004728428623 -0.0003916601337 0.0001590014113)
(0.01061161981 -0.0008718767863 -4.942934415e-05)
(0.005608352524 0.000407471216 0.0002122054543)
(0.01083768122 -0.001023519087 -9.331650764e-06)
(0.01402436365 -0.0004838993263 0.0003703990945)
(0.006604431394 0.0007592487792 -0.0002237305489)
(0.01572089981 -0.0001340088584 -0.0003494284066)
(0.008525265828 0.000314854482 -0.0004733193073)
(0.002849409107 0.0005815402279 -0.0003350209767)
(0.007083021345 0.0002735180256 -0.0003506924115)
(0.01356111805 0.0004534235667 -1.725478733e-05)
(0.005673266985 0.0005875322692 -7.071351558e-05)
(0.01293079896 -0.0006906344806 0.0009773451691)
(0.006458131766 -0.0005127597874 -0.0004188625869)
(0.007210889705 0.0007268077143 -8.03105901e-06)
(0.004528107184 0.0002805560913 -0.000476824184)
(0.01609060717 -0.001065619779 -0.001061284534)
(0.01095389325 0.0004882592506 -0.0004379863174)
(0.003866045961 -6.311014824e-05 -0.0001441433977)
(0.007458038814 -0.0001666939937 -0.0003683716736)
(0.007883825969 0.0001212556052 -0.001236105165)
(0.01100188332 -3.958190392e-05 -0.0007501039599)
(0.007334096772 0.0001693487301 0.0001489744491)
(0.01282366638 0.0001370882207 0.0002312289159)
(0.01383938858 0.0003880984317 -0.0003569532481)
(0.004500882216 0.0003227921808 0.001029263763)
(0.00639515461 6.00097633e-05 0.0003960690073)
(0.003628356353 -1.408476443e-05 -2.676159623e-05)
(0.006980371902 7.628881306e-05 0.0002352678628)
(0.009117469344 -9.128303444e-05 0.0008121703736)
(0.0137990708 -0.001283648934 0.0003685010875)
(0.005840534733 -0.0003460012538 -0.0001962533888)
(0.003960437213 -0.0002784675475 -3.761776182e-07)
(0.01096025019 -0.0001452254013 0.0002603667359)
(0.006349982113 0.0003923877253 0.0002332216107)
(0.007230410791 2.764982184e-05 -0.0001000110338)
(0.007521534059 -0.0001692445831 -0.0007014399857)
(0.008765581396 0.0004640648328 -0.000412815518)
(0.009066388596 8.023234321e-05 -0.0005105894309)
(0.007654454276 -5.962536041e-05 -0.0004210193542)
(0.005841848009 -0.0002353673674 9.142912554e-05)
(0.008758228825 0.0002112866088 0.0005256633483)
(0.007682630022 -0.0003395755523 -0.0004906049629)
(0.008697418856 -0.0008663391996 -0.00025780687)
(0.009185721246 -2.438849517e-05 -0.0005787023438)
(0.01181458046 -0.000713719505 -0.0008727492008)
(0.008686533079 -0.0004304078697 -0.0005597603771)
(0.008886743645 -0.0007230503992 -0.0001009562931)
(0.004741431892 0.0001966854886 -0.000117359345)
(0.006732552711 0.0003718238101 -0.0004517981407)
(0.005533875567 0.0001976675703 -0.0004860276111)
(0.005094184424 7.634451138e-05 -0.0004292587024)
(0.0115448316 0.0003688611525 -0.000253911916)
(0.01151337295 0.0005118840423 0.000655229729)
(0.007730416334 -0.0004181395546 -0.0004477507766)
(0.006794126062 0.0006904902899 -0.000171951324)
(0.00721692027 -8.451515017e-05 6.003718479e-05)
(0.01001182217 0.0003740616207 0.0002981143297)
(0.00552078064 0.0001836881291 -0.0005589356875)
(0.005351501071 -0.0004362191453 0.0003703227507)
(0.007773042111 -8.144777229e-05 -0.000384815164)
(0.005128900079 0.0001261434084 -0.0003371069274)
(0.00830191787 0.0001333701416 -0.0003183876614)
(0.008650591932 -0.000546649785 -7.241674781e-05)
(0.008101235821 0.0002195565667 0.0003669983152)
(0.004884300251 0.0006799636784 0.0002390922661)
(0.008473673005 -0.0003069815409 0.0003316740747)
(0.01306099557 8.342831483e-05 -0.0005322670816)
(0.01368833584 -0.0002083930478 -0.0004694617554)
(0.005285955702 -0.0002228945016 1.549718417e-06)
(0.007129441734 -0.0001456818793 6.116059192e-05)
(0.01043215521 0.00028246264 -0.0004568474334)
(0.009008587639 -0.0004254844716 -0.0001947642912)
(0.00802312244 -0.0003824776326 -0.0005547252613)
(0.005672287767 -0.0001468091209 3.006697937e-05)
(0.01071793366 0.0003694700269 -0.0005679777291)
(0.01046621362 0.0001051965188 -9.038623755e-06)
(0.01057363135 0.00054661998 0.0004887498452)
(0.01493431273 0.0005051143263 0.0003892557167)
(0.006658863569 0.0001643883836 -0.0001802624575)
(0.008190657475 -8.218828156e-05 -0.0002341947897)
(0.007684088133 -9.469665136e-05 2.458768943e-05)
(0.0094414984 -4.518535535e-05 -0.0002613173398)
(0.004080539946 0.000321896319 0.0002562658013)
(0.007289527371 -0.0001559380918 -4.795286063e-05)
(0.009224357786 6.782259428e-05 -0.0003718978882)
(0.008300154171 0.0005813276604 0.001156000289)
(0.01445301163 0.0003304609183 -1.636567911e-05)
(0.003515660961 -0.000453197594 0.0001931124764)
(0.005780266239 0.0001019620243 -0.0002756958224)
(0.005192743478 -2.619010877e-06 0.00120226624)
(0.009318598934 0.000264883913 0.0003447847812)
(0.008005637291 -0.0002557656648 0.0004279940065)
(0.008235239137 -0.0005305002236 -0.0004777538048)
(0.004131107053 8.297606721e-05 0.0004264690903)
(0.009893103958 0.0002672597889 -0.0001837732989)
(0.005173201319 -0.0001262751422 -0.0002455959542)
(0.007250039854 0.0005939548578 0.0001175485207)
(0.007655559284 0.0007713822578 8.633024321e-06)
(0.004416374052 -0.0002156768967 2.130365499e-05)
(0.008891641886 -0.000189655851 0.0003811000564)
(0.009724473468 -0.0009539794033 0.0006642653356)
(0.00799322889 0.0006953222037 0.0001387220738)
(0.005831146085 -8.022803218e-05 0.0005443961416)
(0.005504718018 -9.498975133e-05 -0.0001828592814)
(0.009897789476 -7.036860692e-05 -4.269454263e-06)
(0.006458295885 -0.0003585369777 -0.0003247735579)
(0.00717812721 -0.0007257103864 0.0007092088606)
(0.004595805684 -2.812658333e-06 1.941979391e-05)
(0.007667582103 -2.070829732e-05 -0.0001885750225)
(0.009718270985 0.001252131576 -0.0002273083857)
(0.007646244581 0.0001878144066 0.0007414031939)
(0.01037915875 -0.0007756937365 0.0007630915013)
(0.00682156784 -0.0001375576554 0.0002193545888)
(0.00705471821 0.0003331623365 0.0002599957556)
(0.00808572036 0.0005409759393 6.113876205e-05)
(0.01020954402 -0.0004755399951 -0.0005018563382)
(0.007147758384 9.758558249e-05 -0.0001534447637)
(0.007354265614 -2.259435311e-05 -0.0008737227364)
(0.009047646704 0.0002409986904 0.0003042408826)
(0.009007381565 0.0005272885569 -0.0006129274477)
(0.01062443213 3.842770798e-05 -0.00107961838)
(0.009182555351 0.0008120979505 -0.000367837812)
(0.01470271358 0.0002772365712 -0.0003009491198)
(0.005156082465 -0.0004730544018 -7.480308897e-05)
(0.008417823017 -9.087812544e-06 7.787051048e-05)
(0.008312965009 4.207592626e-05 -0.0001544218403)
(0.008079266062 0.0007303409201 -0.0002438717988)
(0.009839983731 0.0006038037368 -0.0003083036945)
(0.006230972725 9.382748548e-06 -0.0008666262349)
(0.006077324475 -0.0003380870877 -0.0002842200259)
(0.007528284229 9.743074176e-05 -0.0001265301745)
(0.006728571012 5.775348533e-05 0.0007207426857)
(0.006314580899 -0.0001633926324 -8.580920418e-05)
(0.008867539621 0.0008123332254 0.00184980943)
(0.01369314037 0.002972264497 -0.0008419596499)
(0.005219260948 0.003932123593 -0.0002742733959)
(0.005167694284 0.003935052441 -0.001014326025)
(0.005549101322 0.003350241416 -0.001924081432)
(0.01167520429 0.004463469988 0.0004714391916)
(0.007613482797 0.003009698008 0.001312810325)
(0.007269450792 0.0002578264919 0.001096723946)
(0.004603751334 0.0004145315917 -2.720738985e-05)
(0.005884441369 0.001373739936 -0.0009875158255)
(0.009938646296 0.0002766398491 -0.001072869054)
(0.009022286813 0.002619679135 5.426929254e-05)
(0.01208443668 0.002800699568 -0.001300004783)
(0.006197593745 0.002198976015 0.0004899291141)
(0.01492188949 0.003566307009 0.0006314348684)
(0.006342543638 0.002430487605 0.0001528458069)
(0.008473638638 0.002895438342 -0.000783482697)
(0.007812303758 0.003247984448 2.492781509e-05)
(0.009239460914 0.002673219153 0.0005324944762)
(0.008359935553 0.001653054732 0.0002447351853)
(0.004729684029 0.001226073414 -0.0002329773377)
(0.01252124269 0.0007245032885 0.001127228432)
(0.01500709098 0.0007290117797 8.097610495e-05)
(0.01293514314 0.001339058982 -0.0004586081258)
(0.01002936166 0.001678988924 0.0003391697062)
(0.01453968094 0.002081517883 -0.00123036183)
(0.01738065357 0.004397479134 -0.001629422216)
(0.004735593685 0.002006324358 -0.001404499779)
(0.01294055731 0.004616999331 0.00294600778)
(0.008698964841 0.003240402809 0.001544194548)
(0.00652403946 0.001352506399 0.0002750166041)
(0.007212639228 0.00037368115 -0.0002076377463)
(0.006883364834 0.002011415914 -0.0003236527721)
(0.006716599921 0.001391899398 -0.0008104893772)
(0.01094312726 0.002897117532 -0.001541717374)
(0.009723510257 0.005077810838 0.00041373958)
(0.009297145065 0.001896224325 0.0003096122118)
(0.01478352909 0.004846854605 -0.0004323243012)
(0.0130954052 0.001875546972 -0.001367700828)
(0.01013092497 0.001955327636 -0.001982713729)
(0.006113905051 0.0004576751259 0.0006893933021)
(0.004995639622 0.0001485443607 -0.0003191982054)
(0.01031062878 -0.000353991745 -0.000347563241)
(0.009688094631 0.001628896786 0.0008228725953)
(0.007431393843 -4.968160187e-05 0.00017309385)
(0.01475409541 0.0008196603427 0.0004693679904)
(0.007471577085 0.002440149032 -0.001530524707)
(0.01449409058 0.003437039103 0.001572020336)
(0.01084910251 0.003711204789 -0.0004392288972)
(0.005517569007 0.003107550926 -0.001141006654)
(0.007115910561 -4.80075543e-05 -1.986263504e-05)
(0.008790324301 0.0008728895383 0.001648237276)
(0.007463680941 2.243999169e-05 0.0004073538268)
(0.01058626738 0.001885944461 0.0006618754266)
(0.008967826423 0.003223624449 -0.001826254913)
(0.01001603631 0.002323595248 0.0002101617321)
(0.00844264751 0.003103121989 -0.001359398576)
(0.01281816644 0.002737834208 -0.0003271448438)
(0.01247748521 0.004226214639 -0.0008829632976)
(0.007892910934 0.003088952518 -0.001158162931)
(0.009153197174 0.001305212809 0.0009919078462)
(0.007846336255 0.0001217956718 0.0003837236279)
(0.007178834498 0.0002164376787 9.406254565e-05)
(0.01040783178 -0.0002021659956 0.0001320815128)
(0.01304353984 0.00133189748 -7.178658238e-05)
(0.007103141059 0.002637595695 0.001249325567)
(0.01428232835 0.001826461183 -0.0001230013977)
(0.008762036068 0.001768192561 0.0003190245995)
(0.01382787882 0.001786445761 -0.0007907133391)
(0.01140206277 0.002267082919 0.0002344797008)
(0.007372311951 0.001555339562 -0.0005460345712)
(0.008134162148 0.001067900533 0.0004231777684)
(0.004071014982 -0.0004257396138 -0.0001604853057)
(0.007165110238 0.0004948796867 -0.0006198522697)
(0.01101650314 0.0005206635858 -0.001185691021)
(0.009036050858 0.001522582934 -0.0005306418873)
(0.008654699604 6.912268245e-05 0.0004720746306)
(0.001478023559 -0.000136901125 0.0002568263831)
(0.007963106121 0.002170348571 0.001210435241)
(0.01555213875 0.00330649175 -4.404587002e-05)
(0.009944329092 -0.000264496321 -5.687539426e-05)
(0.00655562524 -0.0008080357652 -0.0001473698493)
(0.006325044348 -0.0002369431545 -0.0008200152772)
(0.004556105309 -0.0002842951415 -0.0004518163122)
(0.006103885606 0.00103329346 0.001007391809)
(0.01264791587 0.0002596459973 -0.0008110603923)
(0.007220560175 0.0007789840319 -0.0006636493203)
(0.01667242931 0.0003694506709 -0.0005463281874)
(0.01235765261 -0.0004498997747 0.0003664900931)
(0.009912053593 0.0005113526816 -0.001019725759)
(0.008203097931 0.001646746515 0.001034376332)
(0.008908392661 0.0005565797573 0.0004963944918)
(0.004762864322 -0.0005378932736 0.0004164576299)
(0.007897813176 0.001484889789 0.0003804287603)
(0.01184514473 0.001001215093 0.0005714257144)
(0.006475009766 0.001079380193 0.0001377150747)
(0.01271297172 0.001839191597 -0.0005783695737)
(0.009361634174 0.001995435574 -0.0002491701467)
(0.01012110061 0.001257274537 0.0009787791615)
(0.007416145472 0.0008889614097 -0.0003990159237)
(0.005942078089 -0.0007166166713 -2.45270121e-05)
(0.00712757627 0.001055761734 -0.0004060106067)
(0.008463914571 -0.0003586833237 0.0001807302844)
(0.009829127373 0.0005944951445 -0.0005478137538)
(0.01015273845 -0.0004038963229 0.001322459589)
(0.008154864598 -4.903376969e-05 0.0009457556327)
(0.0060200095 0.001063613847 0.001294999843)
(0.001895811625 -9.288269998e-05 -0.0003181444505)
(0.01211088661 0.001610962741 -0.0001277495497)
(0.008448695203 0.001082194144 0.000226703726)
(0.008671355694 6.177541159e-05 -9.7851363e-05)
(0.01301431795 -0.0002490386384 -0.001371941165)
(0.007442360158 0.0001384131985 -4.77671482e-05)
(0.007649468102 -0.0002162496452 0.0003761729151)
(0.004393081743 -0.0006863254025 0.0006243432985)
(0.01233878724 0.0001613864498 0.0003138821467)
(0.005675805908 0.0001915537922 0.001131816649)
(0.01093275576 0.0001497286646 -0.000591606428)
(0.005992145671 0.0005235467147 -0.001011627327)
(0.008125007506 0.0003876487764 0.0003863432393)
(0.005583676562 -0.0002318905692 -0.0003361504603)
(0.008163263306 -0.0005233339509 -0.0002404611859)
(0.01350551727 0.0006794778196 -2.752856253e-05)
(0.006980009281 0.000237499544 0.000272930465)
(0.004861191391 -0.0004104643599 0.0002205885308)
(0.007567043677 -0.0001388124087 0.0003684084468)
(0.01089155946 -0.0003678318841 0.0004785653491)
(0.005368836261 0.0003468967246 0.0001555388652)
(0.007480384242 0.001167256795 -0.0001338767887)
(0.009842835676 0.0009631035141 -3.050697577e-05)
(0.009761956056 0.0007156318992 0.0001805697879)
(0.005502581759 -0.0002432071331 -0.0002932797771)
(0.007215417712 -1.127842632e-05 0.0004729591319)
(0.005700523633 -0.0001769088752 -8.969442057e-05)
(0.007553300436 -4.012407828e-05 -0.0001055290707)
(0.01137402912 -0.001228326611 0.0006616468)
(0.006148729716 0.0003923024662 0.0002943321266)
(0.01010001494 0.0004705911311 -0.001347329861)
(0.008122684235 -0.0001689657592 0.0002794152082)
(0.0141125935 0.001987015255 0.0001157553478)
(0.007344207325 0.001557318699 0.0005430535525)
(0.0156811302 -0.0001936739579 -0.0001816929782)
(0.01480551433 6.881835884e-05 -0.0008492087287)
(0.006957690651 -3.106525192e-05 0.0001922458192)
(0.01212803199 -0.0003978809433 -4.454047907e-05)
(0.003535819521 -0.0002052385885 -1.062531015e-05)
(0.01376996088 0.0002835901169 -3.346895182e-05)
(0.007858739077 -0.0004869669763 -0.001150669746)
(0.01063521417 0.0008138671599 0.0007818867865)
(0.005408899583 -0.0002154939748 0.0003119423014)
(0.01008270615 0.0004063601107 -0.0006745414294)