/*--------------------------------*- C++ -*----------------------------------*\
| =========                 |                                                 |
| \\      /  F ield         | OpenFOAM: The Open Source CFD Toolbox           |
|  \\    /   O peration     | Version:  2406                                  |
|   \\  /    A nd           | Website:  www.openfoam.com                      |
|    \\/     M anipulation  |                                                 |
\*---------------------------------------------------------------------------*/
FoamFile
{
    version     2.0;
    format      ascii;
    arch        "LSB;label=32;scalar=64";
    class       volScalarField;
    location    "0.005";
    object      overallT;
}
// * * * * * * * * * * * * * * * * * * * * * * * * * * * * * * * * * * * * * //

dimensions      [1 2 -2 0 0 0 0];

internalField   nonuniform List<scalar> 
654
(
291.8163917
300.5532949
295.5684978
298.3673414
298.3377871
299.1985156
299.5633508
299.7665015
299.4357644
298.0220911
296.7021268
298.7608756
296.4723603
299.6341404
307.1596678
316.9922123
342.1407168
403.4547526
555.0068071
971.9405377
293.8098932
302.6012816
299.9132271
300.1195848
301.2199718
302.0226099
301.5382862
301.5943918
301.5208967
302.8644763
301.6757565
301.4915775
304.8841492
310.9334602
313.5173327
327.6189837
356.0534529
415.8596152
569.3927126
855.7699894
295.6724364
306.1372516
300.4344757
299.3415511
296.83052
297.9209046
295.410212
296.7981349
296.4381594
297.2287581
295.5924499
296.0408654
300.5350584
306.744158
313.5434677
326.8224442
352.4313269
403.6991509
526.2085711
697.7694805
291.6417009
302.3558626
297.9211517
298.5604681
298.4933995
296.7677604
296.5048311
297.2229214
298.2266867
296.2587213
298.4686082
298.8135772
301.2141006
303.2498177
313.4754393
327.0728107
344.8499114
395.6043821
470.5026017
601.0550591
291.5471645
301.9319715
297.3547392
297.377214
298.2109382
299.7792613
300.7495251
301.4752123
301.0122974
299.9021616
301.3698497
302.1781934
301.8798198
305.2349816
308.3971331
321.3045816
338.2939346
382.0085781
432.7079216
512.0324396
292.580032
302.0488164
298.6236402
299.268844
298.7158852
297.2404492
297.5547865
297.3149342
297.8922219
302.6214279
300.9143719
298.8712364
300.388056
299.7241709
307.2169133
315.5112264
334.9467886
375.5420343
397.2615348
458.1625232
292.8787135
302.4820231
299.5247038
299.3844786
301.2059486
300.7529717
299.5875986
297.8288301
298.6334678
298.6666033
300.3262699
300.0096023
300.5343708
301.8672505
305.0530794
309.7877368
330.7206589
335.1144971
368.4254483
408.428438
291.4877114
301.5178829
298.0018441
301.4035982
296.9508278
299.2724507
301.1566642
302.3743592
301.7915767
301.263703
299.3229401
301.049985
299.4618908
301.0312316
307.374064
311.2309471
317.391318
330.0369896
347.968694
368.2457057
297.0893934
307.0120223
300.8606793
301.1373592
302.4733007
300.7657182
299.8873616
300.5673388
301.6357167
302.8302042
303.1788059
302.7738544
303.3703573
305.9142719
305.6612923
309.3790083
315.5026409
322.541185
336.5502544
352.7902512
295.9023815
303.8944491
299.4242195
298.5303411
299.5862832
301.4863209
301.2081278
300.1948616
300.1030683
301.9732297
302.3908548
303.3368851
307.2857412
305.6539965
307.2120504
309.6157385
310.2002901
313.7359724
329.5229741
347.1658426
294.6189058
302.9606396
301.254921
300.9509174
300.4944827
299.257828
298.206568
299.4034114
300.8969153
300.5645954
299.6791796
297.5811909
300.5535201
300.0578248
303.9300411
303.1251881
307.5124035
306.168888
316.2149502
330.8988487
294.4755061
304.5144095
299.6364935
299.8154083
299.9932886
299.4328531
299.8180754
298.8577544
303.2581079
301.7262989
301.6920282
302.2571132
301.9471051
303.903766
303.1310696
303.7807008
307.3069916
306.4750843
309.5585144
325.0676719
294.4257284
304.0586493
297.95154
298.2588973
297.6722124
298.6375945
299.9939245
300.949209
299.4990853
298.5161686
298.5870981
298.8470621
299.5172983
301.0978337
301.2236179
300.3546487
303.7486392
307.9971676
309.9775551
311.4738544
291.6780535
300.9003048
299.2846786
300.9567429
301.3947421
302.1430194
300.3557486
300.7856286
300.1694092
299.9341028
303.1982242
300.8486332
299.2785014
298.6316701
299.8906262
299.0172477
300.086898
303.4859848
307.7049051
310.8642948
296.3607136
307.4131926
302.952575
300.408731
300.5777298
300.4691601
299.1102891
298.0511206
298.2938237
298.8302492
298.1252136
298.6988228
297.9100684
297.7648961
299.0381526
299.9711746
301.5070758
303.3568515
303.7569063
306.0333448
295.1196744
302.7327219
299.5100443
299.1399914
298.4231032
298.007804
300.1839417
300.4696912
299.0990562
300.1056399
300.0078243
299.5555087
300.3073318
300.5800125
299.5520964
300.1758806
301.540916
300.6192421
302.8193783
308.9705947
294.2278705
303.7825763
298.5238392
299.115629
300.0903679
299.685279
298.6845457
298.1760794
300.3445569
300.0442708
300.131391
300.5923713
299.8822366
301.3330594
301.1837152
302.2034248
301.2188031
303.6559463
303.3777156
309.1247132
295.8818033
303.6476767
301.6732333
300.7841199
301.1061912
302.2749955
301.4994127
300.5667829
299.9738676
298.1523799
298.1861294
297.6811564
298.4853974
300.1425967
300.3728711
299.0609817
298.2754585
298.9530723
299.6002039
302.5845569
290.2065262
300.0178259
296.298833
297.0882119
297.9021249
298.723964
300.0737127
299.5333837
300.5438339
302.2137908
301.5242654
300.7137482
298.7240322
295.8378474
298.2324291
300.8969028
300.955675
299.7515189
300.9425025
300.8085293
293.41582
303.424549
299.720886
298.48113
298.6120825
297.4746552
297.5882642
297.8269239
297.3133636
295.143305
295.723284
297.9814866
300.6962061
301.6554366
302.3084904
302.0579827
300.6990139
300.9014086
301.5634866
302.7081299
295.4701588
304.1560432
299.5105377
299.1189174
299.4726429
299.7174995
298.8888327
298.9210056
299.6049749
301.3027181
301.6846691
302.7924569
300.0962139
300.0160374
299.85052
301.7783378
303.0663923
303.2894129
302.1705927
303.2528171
295.1741731
303.8554028
299.64265
300.3019373
299.4568991
300.160025
299.4467839
300.6297843
300.6730402
300.0257849
299.1418235
298.7659549
299.2595152
301.4294489
302.1543607
298.8390049
297.5658887
300.3839017
300.6770537
301.1931032
1056.541287
990.4940173
963.4809573
933.5212127
913.7737647
897.7461978
890.9251429
867.4788897
863.9604957
853.319455
1001.205265
1010.168139
991.8828896
979.9925504
967.8753832
959.4254438
952.7162599
944.0603576
937.7256759
932.5510645
854.8859088
910.3478364
929.5393401
946.8740929
943.8664476
949.0628601
941.7394212
941.884065
936.3281385
924.796342
713.5856328
802.0045987
845.6975801
881.0621256
894.8753252
895.1716215
903.897517
896.9913065
903.4842606
909.9739012
614.3329732
698.383793
747.7195679
802.4595358
823.5057812
842.8837013
869.1876329
862.6790577
873.5173336
872.0202478
526.5150465
600.3859731
665.2391545
706.3965503
744.3911411
773.5621285
808.1215467
825.2345355
839.9445515
842.6192828
452.0746953
524.0151773
559.9945024
626.3491915
655.5488356
700.6909158
728.5086533
760.9968504
770.0994337
791.5174035
409.8102877
466.1356502
487.3425443
551.6539087
580.0859337
626.6226283
656.2006212
698.2931528
722.9264119
734.630427
391.5497758
419.7829185
442.7151339
486.7019593
518.3358542
566.156021
601.0261401
633.5632404
668.5147808
684.74837
367.959726
383.6876655
409.1365521
445.1975428
459.1792044
506.0306078
534.6396231
569.0904671
603.0646854
624.7659977
346.2248336
369.1976904
386.2064102
403.8055641
423.2524614
462.0938576
489.8243435
515.955769
545.6510691
561.6275346
327.4698485
349.6501786
360.7868529
383.1893498
395.6978727
415.6182626
439.1960472
458.3982763
486.5099872
508.4081469
326.2918228
336.1784408
348.2194508
352.5131037
362.9597721
389.4158411
402.810217
416.5150906
440.6473519
466.0262748
322.5633047
326.9925091
335.801353
340.3503206
353.5155002
361.5491318
379.2722769
392.4918294
417.9730465
430.454885
316.3782091
315.0699656
320.8626696
327.4768425
342.1234425
349.0385793
358.630888
371.411797
389.4233721
399.8696135
307.2482809
313.3203948
317.4807949
321.2886078
330.199605
339.0728597
343.0847338
352.9290167
370.1893536
379.4381926
310.9227935
312.0025105
314.7999173
315.093574
314.1346974
325.3027299
331.6156116
339.5164757
347.9551578
359.2970657
308.7152209
307.6460278
309.1392738
310.8365012
312.9886912
315.4509218
321.4176141
325.1152988
333.5592757
340.6748122
302.0872009
305.7241471
307.9414218
310.4870686
309.9945334
311.2525035
315.4152614
325.1352325
324.1422481
333.8881538
303.7538312
303.9930154
304.4505496
304.991561
308.2611728
309.5579666
312.7529914
319.4674113
324.621659
326.1055253
302.2924499
302.1022662
305.4646829
303.1187958
306.0732572
306.8654207
311.0187811
314.9168446
319.6399479
319.6550946
298.8179791
297.6840759
301.5311003
302.5874096
)
;

boundaryField
{
    flow
    {
        type            calculated;
        value           nonuniform List<scalar> 
42
(
291.8163917
293.8098932
295.6724364
291.6417009
291.5471645
292.580032
292.8787135
291.4877114
297.0893934
295.9023815
294.6189058
294.4755061
294.4257284
291.6780535
296.3607136
295.1196744
294.2278705
295.8818033
290.2065262
293.41582
295.4701588
295.1741731
291.8163917
300.5532949
295.5684978
298.3673414
298.3377871
299.1985156
299.5633508
299.7665015
299.4357644
298.0220911
296.7021268
298.7608756
296.4723603
299.6341404
307.1596678
316.9922123
342.1407168
403.4547526
555.0068071
971.9405377
)
;
    }
    obstacle
    {
        type            calculated;
        value           nonuniform List<scalar> 10(928.3884587 883.8514159 828.0742604 818.1881482 779.102633 761.4209597 781.4180953 745.7418006 736.4914636 739.3881712);
    }
    frontAndBack
    {
        type            empty;
    }
    procBoundary0to1
    {
        type            processor;
        value           nonuniform List<scalar> 
21
(
843.946515
916.68066
921.9600039
904.8416081
874.4773415
840.8564021
806.8907524
763.1695875
710.9725335
654.2243846
590.7260369
546.2938057
485.9696809
449.1707543
413.7710431
392.2526047
369.5871183
355.4281188
340.2568505
335.0002779
323.8168688
)
;
    }
    procBoundary0to2
    {
        type            processor;
        value           nonuniform List<scalar> 
31
(
291.2292737
302.5500455
298.9773809
299.4792147
298.6685763
297.9331129
298.7998401
300.0161229
299.5993366
298.7238832
300.5759896
300.3167455
300.0243991
299.2490478
299.0029563
298.6361652
298.2581539
296.7212773
298.107479
299.0195113
304.8457195
307.0638995
304.2495793
306.5560612
309.3415214
312.6377717
299.6553302
301.914925
300.9529095
304.8457195
300.3463248
)
;
    }
}


// ************************************************************************* //
