/*--------------------------------*- C++ -*----------------------------------*\
| =========                 |                                                 |
| \\      /  F ield         | OpenFOAM: The Open Source CFD Toolbox           |
|  \\    /   O peration     | Version:  2406                                  |
|   \\  /    A nd           | Website:  www.openfoam.com                      |
|    \\/     M anipulation  |                                                 |
\*---------------------------------------------------------------------------*/
FoamFile
{
    version     2.0;
    format      ascii;
    arch        "LSB;label=32;scalar=64";
    class       volScalarField;
    location    "0.005";
    object      p;
}
// * * * * * * * * * * * * * * * * * * * * * * * * * * * * * * * * * * * * * //

dimensions      [1 -1 -2 0 0 0 0];

internalField   nonuniform List<scalar> 
654
(
0.3026404514
0.4089439102
0.3994761741
0.4053946918
0.4069445401
0.4099872498
0.4102659466
0.412121606
0.4099180712
0.4063166468
0.4030543948
0.4050417634
0.3994499404
0.4050393453
0.4207827826
0.4467768985
0.5009394547
0.6548127871
1.031603223
2.514487755
0.3055903406
0.4155144159
0.4154413932
0.4147098024
0.4166099762
0.417945054
0.41569056
0.4160846572
0.4167835754
0.4167717738
0.4147976537
0.4162002951
0.4242335147
0.4401001072
0.4470087495
0.4817112645
0.5493791339
0.6963578525
1.10467913
2.049977396
0.3146881092
0.4323976971
0.4195397504
0.418113193
0.4109733636
0.4143488831
0.4120576272
0.413652655
0.4134277336
0.4116025143
0.4084049374
0.4088760915
0.4189226249
0.4350387793
0.449233228
0.4774602357
0.5362355279
0.6619486409
0.9678372694
1.47458362
0.3096116401
0.4173674422
0.4087112265
0.4115299705
0.40642951
0.4044783437
0.4028603257
0.4038101343
0.406373325
0.4095785071
0.4162693936
0.4151821619
0.4215246506
0.4213199203
0.4425548109
0.467714486
0.5108883097
0.634792167
0.8198885159
1.183352633
0.3092397896
0.4190201635
0.4081894819
0.404232901
0.4098119468
0.4136643675
0.4163380826
0.4151014072
0.4117087416
0.4080389336
0.4043250518
0.4068432004
0.4094027727
0.4164191988
0.4250168171
0.4625001384
0.5056207589
0.6099179809
0.7291515319
0.9351578321
0.3080618045
0.4180799763
0.4144168707
0.414491775
0.4122392274
0.4091645524
0.4065376645
0.4089900833
0.4112948439
0.4205701859
0.4183088288
0.4120524276
0.4132060947
0.4110713587
0.4330340933
0.4446632244
0.4871369594
0.5792031144
0.6399023757
0.7921260122
0.3090580007
0.4178797309
0.4144227819
0.4155692367
0.4213020924
0.4205948951
0.4188318464
0.4146396501
0.4175835357
0.4195969964
0.4187004102
0.4226285002
0.4213369164
0.4217722735
0.4268493427
0.4356863628
0.4896503379
0.4988010191
0.5812258149
0.6776892454
0.3047844308
0.4133082928
0.4102512788
0.417888302
0.408813028
0.4139773455
0.4213316803
0.4280235778
0.4259139433
0.4218401866
0.4198162614
0.4181473667
0.4179697038
0.4205031737
0.4362422799
0.4474973196
0.4571606632
0.4835042818
0.5211527661
0.5694954322
0.3137044415
0.4291713124
0.4160750344
0.4163920446
0.4183592256
0.4142959571
0.4158708164
0.416401063
0.4142225999
0.4169909227
0.4250740474
0.4225655649
0.4184112866
0.4254444707
0.4211417826
0.4285876006
0.4456283755
0.4613570723
0.4943857946
0.5353917021
0.311218431
0.4143085728
0.4093255707
0.4076209312
0.4105967131
0.4138783964
0.4110737779
0.4080762988
0.4119138847
0.415659191
0.4143311553
0.4178732581
0.4260826841
0.4215670153
0.4300542761
0.4373267471
0.438817495
0.4389511017
0.4775385312
0.5181310117
0.3121965852
0.4179853266
0.4149250534
0.4136048063
0.4102676071
0.4041693408
0.3993863524
0.4050982704
0.4105886756
0.4124046809
0.4141095151
0.4131701985
0.4211199802
0.4200778711
0.4274084267
0.4166400807
0.4279322229
0.4276780044
0.4567299306
0.4869037116
0.3139112238
0.4245113531
0.4158485017
0.4107571438
0.4129468343
0.4138753361
0.4172435247
0.4157455487
0.4268413524
0.4173902563
0.4143399068
0.4092947981
0.4074417379
0.4155810786
0.4193619301
0.428460636
0.4402982158
0.4342140876
0.4393375188
0.4756133317
0.3141294067
0.4252531465
0.413976573
0.4142623278
0.4145162913
0.4156663989
0.4150514294
0.413958364
0.4086037271
0.4094501853
0.4161003255
0.4173961777
0.4192712378
0.4223002527
0.4180042933
0.420192283
0.423628247
0.4362858118
0.4433665867
0.4439957069
0.3100200588
0.4231933546
0.4205913829
0.4228834646
0.420417775
0.4215046581
0.4177158305
0.4201559711
0.4191022105
0.417531714
0.4211664671
0.4158485324
0.4118317228
0.4091086304
0.4114749694
0.4040861759
0.4078280668
0.4151417572
0.4237429514
0.4367618042
0.3130598192
0.428879878
0.4204687086
0.4126120591
0.4175973138
0.4165178313
0.4175425346
0.4123514582
0.4170790786
0.4175208947
0.4137723927
0.4161030528
0.4156511534
0.4136021672
0.4166554171
0.4171912955
0.4208005398
0.4226861097
0.4203037615
0.4211276577
0.3120292447
0.4205602587
0.4146288678
0.4166532795
0.4154996158
0.4171612443
0.4213449276
0.4177976238
0.4176499577
0.4163966699
0.4164486308
0.41171131
0.4083858144
0.4118610131
0.4114775459
0.4163376329
0.4186540674
0.4171634258
0.4233334157
0.4299306527
0.3155662418
0.4247557484
0.4138893468
0.4166377778
0.4153498837
0.4158776255
0.407289838
0.4110644807
0.4150765464
0.4144706622
0.41666792
0.4199224998
0.4201652858
0.4242976332
0.4199264306
0.4246698274
0.4221433003
0.4271099176
0.4240949808
0.4363860534
0.310095805
0.4163116235
0.4146488372
0.4147068555
0.416821406
0.4161209859
0.4192777043
0.4145877543
0.4107926248
0.4073241536
0.4084650523
0.4086639342
0.4129832712
0.4162396337
0.4178797637
0.4159606788
0.4166120547
0.4175782715
0.416654159
0.4252418326
0.3080526684
0.417600226
0.4108942791
0.4088822037
0.4129285158
0.4179042193
0.4220179615
0.4236059772
0.4243026031
0.4284764314
0.4238597714
0.4203727348
0.4132577744
0.4068884681
0.4092585973
0.4155480362
0.4148870124
0.4117618996
0.4171265522
0.4127589805
0.312097611
0.4248465661
0.420996666
0.4187185063
0.4154448098
0.4143994344
0.4155154946
0.4163983801
0.4148930083
0.4114962286
0.4111714932
0.4136691852
0.4226879125
0.4230942085
0.425595932
0.4219079723
0.4177640445
0.4199036118
0.4225627498
0.4284145864
0.3105950512
0.4198175753
0.4093821347
0.4107914937
0.4118562017
0.4124235002
0.4078549426
0.3993751499
0.4043676183
0.4084750278
0.4143107665
0.4188401804
0.4116973183
0.4122929061
0.4140651361
0.4194672282
0.4215783758
0.4183338019
0.4158794412
0.4156168172
0.3109194033
0.4183566378
0.4092273179
0.4063178458
0.4071198294
0.4060889262
0.4098350541
0.416493956
0.4203906048
0.4180951624
0.4097110573
0.4103020673
0.411411218
0.4148116689
0.4171452395
0.4102172853
0.4094827678
0.414719453
0.4188569485
0.4192841402
4.632163809
4.757723196
4.747072423
4.675839402
4.557150871
4.473121902
4.371101482
4.214452206
4.066270781
4.029050567
3.017346123
3.560764952
3.756213918
3.923320404
4.065371823
4.09402613
4.057278862
4.034958375
4.069007152
3.973598275
2.109873475
2.56787125
2.879840712
3.167994393
3.346737677
3.537737275
3.617132179
3.688680469
3.725520401
3.693185661
1.561770793
1.962102045
2.252015506
2.53569328
2.754996276
2.94637028
3.156365714
3.204873325
3.317888138
3.410081387
1.223273142
1.515686488
1.756974883
2.072293781
2.253841775
2.418441361
2.648094561
2.734416254
2.926035065
3.053016609
0.9716757054
1.202653092
1.435653948
1.602749804
1.801172511
1.988804369
2.222459566
2.406490314
2.585134908
2.690716606
0.7808648612
0.971708327
1.099699543
1.319627651
1.445132151
1.658670664
1.817470078
2.025756025
2.165049781
2.347561013
0.6735434358
0.8148499423
0.872437696
1.068216703
1.167244164
1.339703333
1.492488409
1.673689658
1.830531101
1.951833476
0.6258195459
0.7016067268
0.765502641
0.8853858489
0.9774262683
1.120081459
1.238552676
1.384944122
1.557367978
1.655931659
0.5696638479
0.609790701
0.6723551931
0.7606523978
0.8022369664
0.9456867186
1.040046151
1.150866294
1.278723824
1.377387306
0.5237482578
0.5740233372
0.6292951302
0.6752874045
0.7284732121
0.8185154441
0.9031450485
1.000851478
1.094336878
1.162759037
0.4814866469
0.5292680184
0.5492732519
0.6049823052
0.6383253384
0.6983374241
0.7614510476
0.8227313673
0.9136363691
0.9830671556
0.4754633284
0.5027889054
0.5339567523
0.5410906668
0.565502933
0.6329803195
0.6708539849
0.7069364968
0.777946764
0.8560005284
0.4629576638
0.4751074153
0.4925876647
0.5028276837
0.5342929323
0.5580885078
0.5943325038
0.63221937
0.6992679477
0.7414570233
0.4417027325
0.4396512131
0.4577592449
0.480127652
0.51181697
0.5337625189
0.5538381418
0.5859034584
0.6296145749
0.6611595199
0.4347963714
0.4521148134
0.4597612488
0.4671306879
0.4866246851
0.5030172641
0.514935587
0.5383345986
0.5851664345
0.6031793864
0.4351511615
0.4405840101
0.4421924131
0.4446184485
0.4421457365
0.4642618047
0.482135888
0.4961064063
0.5122987697
0.5509615561
0.4348543111
0.4266175602
0.4277536769
0.4368264314
0.4438990423
0.4487459027
0.4612543799
0.4693560016
0.4900214332
0.5091196081
0.4189634833
0.4333753558
0.4361300525
0.4412321315
0.4377227416
0.439927119
0.4529392987
0.4699353015
0.4670527444
0.4921371283
0.4246175435
0.424891632
0.4258165105
0.4249209377
0.4350723487
0.4375775177
0.4448072035
0.4618137237
0.4691439818
0.46764283
0.4134805108
0.4145960673
0.4190437531
0.4161494978
0.4230777854
0.423082747
0.4273039138
0.436420744
0.4548524666
0.4563758788
0.411905811
0.4093543946
0.4138350764
0.4148611406
)
;

boundaryField
{
    flow
    {
        type            calculated;
        value           nonuniform List<scalar> 
42
(
0.3026404514
0.3055903406
0.3146881092
0.3096116401
0.3092397896
0.3080618045
0.3090580007
0.3047844308
0.3137044415
0.311218431
0.3121965852
0.3139112238
0.3141294067
0.3100200588
0.3130598192
0.3120292447
0.3155662418
0.310095805
0.3080526684
0.312097611
0.3105950512
0.3109194033
0.3026404514
0.4089439102
0.3994761741
0.4053946918
0.4069445401
0.4099872498
0.4102659466
0.412121606
0.4099180712
0.4063166468
0.4030543948
0.4050417634
0.3994499404
0.4050393453
0.4207827826
0.4467768985
0.5009394547
0.6548127871
1.031603223
2.514487755
)
;
    }
    obstacle
    {
        type            calculated;
        value           nonuniform List<scalar> 10(3.653854157 3.657778699 3.650173228 3.484995898 3.590711438 3.464366883 3.40122946 3.454773903 3.316921272 3.315803894);
    }
    frontAndBack
    {
        type            empty;
    }
    procBoundary0to1
    {
        type            processor;
        value           nonuniform List<scalar> 
21
(
3.944437138
3.857882839
3.611289874
3.404528453
3.105794381
2.813122254
2.484519198
2.150098433
1.833710981
1.521277006
1.281043408
1.107996687
0.9093486434
0.7877621652
0.7076839944
0.6287227587
0.5780385297
0.5454665605
0.5046646932
0.4918782078
0.4649115149
)
;
    }
    procBoundary0to2
    {
        type            processor;
        value           nonuniform List<scalar> 
31
(
0.3035920804
0.4147715402
0.4124880326
0.4129094596
0.4117410813
0.4093124316
0.4122479309
0.4125147727
0.4090726313
0.4090634648
0.4163179207
0.4185938606
0.4167738957
0.4142757449
0.4124413309
0.4099255626
0.412517243
0.4057691672
0.4038020955
0.4052724843
0.4201319725
0.4255003872
0.4205184697
0.4288100017
0.4370534722
0.4484015999
0.4114762418
0.4176679185
0.4208863685
0.4201319725
0.4162919739
)
;
    }
}


// ************************************************************************* //
