/*--------------------------------*- C++ -*----------------------------------*\
| =========                 |                                                 |
| \\      /  F ield         | OpenFOAM: The Open Source CFD Toolbox           |
|  \\    /   O peration     | Version:  2406                                  |
|   \\  /    A nd           | Website:  www.openfoam.com                      |
|    \\/     M anipulation  |                                                 |
\*---------------------------------------------------------------------------*/
FoamFile
{
    version     2.0;
    format      ascii;
    arch        "LSB;label=32;scalar=64";
    class       volScalarField;
    location    "0.005";
    object      rhoMMean;
}
// * * * * * * * * * * * * * * * * * * * * * * * * * * * * * * * * * * * * * //

dimensions      [1 -3 0 0 0 0 0];

internalField   nonuniform List<scalar> 
654
(
3.649011024e-06
4.706225946e-06
4.73516803e-06
4.735437794e-06
4.746643506e-06
4.765345713e-06
4.753868904e-06
4.764271572e-06
4.752905068e-06
4.738236327e-06
4.73278714e-06
4.735971741e-06
4.710409957e-06
4.707759303e-06
4.723804858e-06
4.760491624e-06
4.769485903e-06
4.877666348e-06
5.107997242e-06
6.554505241e-06
3.683759453e-06
4.752046871e-06
4.803701718e-06
4.783811065e-06
4.797391668e-06
4.809066843e-06
4.780628464e-06
4.77606505e-06
4.789312072e-06
4.79526563e-06
4.802676064e-06
4.808740594e-06
4.815023067e-06
4.837819892e-06
4.822073677e-06
4.864480727e-06
4.93130402e-06
5.056612826e-06
5.35693137e-06
6.238142476e-06
3.743303528e-06
4.847498912e-06
4.859445184e-06
4.837623526e-06
4.806330128e-06
4.828206939e-06
4.845282146e-06
4.830060547e-06
4.829093378e-06
4.788478786e-06
4.781644787e-06
4.789062553e-06
4.797606947e-06
4.82950369e-06
4.866386822e-06
4.854845529e-06
4.876868886e-06
4.975479283e-06
5.179322799e-06
5.685966055e-06
3.748310829e-06
4.750524178e-06
4.792939226e-06
4.79750064e-06
4.762754211e-06
4.747649581e-06
4.737661224e-06
4.743249626e-06
4.755504569e-06
4.792467097e-06
4.816094542e-06
4.821320453e-06
4.846494836e-06
4.798600359e-06
4.797179973e-06
4.774002412e-06
4.811439735e-06
4.888601879e-06
5.051429405e-06
5.428418384e-06
3.730213966e-06
4.792051453e-06
4.763520348e-06
4.754912804e-06
4.774590178e-06
4.785745403e-06
4.788638911e-06
4.772451476e-06
4.742103003e-06
4.740003208e-06
4.699833834e-06
4.701329618e-06
4.737766197e-06
4.749365975e-06
4.769539056e-06
4.855068555e-06
4.898643139e-06
4.97256753e-06
5.067188283e-06
5.244209088e-06
3.704624607e-06
4.756338522e-06
4.799252608e-06
4.778580489e-06
4.768150911e-06
4.786469717e-06
4.763144944e-06
4.78342633e-06
4.791665386e-06
4.805584236e-06
4.817538506e-06
4.794813079e-06
4.769059595e-06
4.769447662e-06
4.798861875e-06
4.778127938e-06
4.804991804e-06
4.882400801e-06
4.962540932e-06
5.085306723e-06
3.732951348e-06
4.783057175e-06
4.827076312e-06
4.812608602e-06
4.839003005e-06
4.824751907e-06
4.829040892e-06
4.813353828e-06
4.851479225e-06
4.859445184e-06
4.829455869e-06
4.852454392e-06
4.846370951e-06
4.831203837e-06
4.838779729e-06
4.814546273e-06
4.876938701e-06
4.854277758e-06
4.945822883e-06
5.03552573e-06
3.710107368e-06
4.761316246e-06
4.805690542e-06
4.819853579e-06
4.810277533e-06
4.819991461e-06
4.870368468e-06
4.902109751e-06
4.893418811e-06
4.856785865e-06
4.845775853e-06
4.802201269e-06
4.83565428e-06
4.838972763e-06
4.848605961e-06
4.887453673e-06
4.879567777e-06
4.901731681e-06
4.911255241e-06
4.935156449e-06
3.731184467e-06
4.83521306e-06
4.846969631e-06
4.822739506e-06
4.802622911e-06
4.771689338e-06
4.794104761e-06
4.789947659e-06
4.762346565e-06
4.77726016e-06
4.85204608e-06
4.840861946e-06
4.800630755e-06
4.784890538e-06
4.745793307e-06
4.767357198e-06
4.808176821e-06
4.835313118e-06
4.856890588e-06
4.918141726e-06
3.712782933e-06
4.716085087e-06
4.767332954e-06
4.778948311e-06
4.800143713e-06
4.815668652e-06
4.798982844e-06
4.780393607e-06
4.788849274e-06
4.787689071e-06
4.759354332e-06
4.761879102e-06
4.789519102e-06
4.799782556e-06
4.831214501e-06
4.849329609e-06
4.855799785e-06
4.795182901e-06
4.85732781e-06
4.881705146e-06
3.74712105e-06
4.782171402e-06
4.808320951e-06
4.788568846e-06
4.766323546e-06
4.724962395e-06
4.694912595e-06
4.709987649e-06
4.747460547e-06
4.766766766e-06
4.793088438e-06
4.821026445e-06
4.84963828e-06
4.826648421e-06
4.813353828e-06
4.734860025e-06
4.766602641e-06
4.796398256e-06
4.868248428e-06
4.876245962e-06
3.731656596e-06
4.791832843e-06
4.818964474e-06
4.791347384e-06
4.824413661e-06
4.837965355e-06
4.862759668e-06
4.861186488e-06
4.883677974e-06
4.817836513e-06
4.80040148e-06
4.747587097e-06
4.727715356e-06
4.781750426e-06
4.819053201e-06
4.864327266e-06
4.902144659e-06
4.858454438e-06
4.836351685e-06
4.891521381e-06
3.736076797e-06
4.77955299e-06
4.804338638e-06
4.792886739e-06
4.785550369e-06
4.774791876e-06
4.767929635e-06
4.751518257e-06
4.729858724e-06
4.757358177e-06
4.803035889e-06
4.818441191e-06
4.825143974e-06
4.826149383e-06
4.776286993e-06
4.813889108e-06
4.803910081e-06
4.852933852e-06
4.865656925e-06
4.848086011e-06
3.726953968e-06
4.819750606e-06
4.841472623e-06
4.857936487e-06
4.85997913e-06
4.853999996e-06
4.838176384e-06
4.853611929e-06
4.842770707e-06
4.824730996e-06
4.793773845e-06
4.786968756e-06
4.774296836e-06
4.772881116e-06
4.769812819e-06
4.722970905e-06
4.708967327e-06
4.716607036e-06
4.714694943e-06
4.785774978e-06
3.685914401e-06
4.779187167e-06
4.809867222e-06
4.771933525e-06
4.797423244e-06
4.811479975e-06
4.821469665e-06
4.818004636e-06
4.832477011e-06
4.830346974e-06
4.830158605e-06
4.821245056e-06
4.850434659e-06
4.817021888e-06
4.823516974e-06
4.787653497e-06
4.794903806e-06
4.782901715e-06
4.758005095e-06
4.747854612e-06
3.732843042e-06
4.792302972e-06
4.803260498e-06
4.800499539e-06
4.786388321e-06
4.813561525e-06
4.82218998e-06
4.795438419e-06
4.806420855e-06
4.788077139e-06
4.777999388e-06
4.74562585e-06
4.697150272e-06
4.723071213e-06
4.745311847e-06
4.799239945e-06
4.817527175e-06
4.791181926e-06
4.825535623e-06
4.801466291e-06
3.744938526e-06
4.78524703e-06
4.795117085e-06
4.809840312e-06
4.79138829e-06
4.792662797e-06
4.726926308e-06
4.771302604e-06
4.783612699e-06
4.794067187e-06
4.825582528e-06
4.837864381e-06
4.857866672e-06
4.884819265e-06
4.83816772e-06
4.828598338e-06
4.828270756e-06
4.837792982e-06
4.823320607e-06
4.838098987e-06
3.705035585e-06
4.756222218e-06
4.790170935e-06
4.799157216e-06
4.796611535e-06
4.781250721e-06
4.831137354e-06
4.812047746e-06
4.79461538e-06
4.766479006e-06
4.767805333e-06
4.785931772e-06
4.803670143e-06
4.807684697e-06
4.810726085e-06
4.812719574e-06
4.847832493e-06
4.827627837e-06
4.819105688e-06
4.820544319e-06
3.739627221e-06
4.796098916e-06
4.82948811e-06
4.798830966e-06
4.811112153e-06
4.847163998e-06
4.838727243e-06
4.849271791e-06
4.838427903e-06
4.84323817e-06
4.841246014e-06
4.807772092e-06
4.770192888e-06
4.76067666e-06
4.731980097e-06
4.751956145e-06
4.74840972e-06
4.765679295e-06
4.78567892e-06
4.772530872e-06
3.715577467e-06
4.79398979e-06
4.860612718e-06
4.847839824e-06
4.834447589e-06
4.842577673e-06
4.838956517e-06
4.851899534e-06
4.852477969e-06
4.837674013e-06
4.843787696e-06
4.857592242e-06
4.894311916e-06
4.88470896e-06
4.914062022e-06
4.877987932e-06
4.872725781e-06
4.890347182e-06
4.884766112e-06
4.897301483e-06
3.712041706e-06
4.767838908e-06
4.774286173e-06
4.767483082e-06
4.761174366e-06
4.768982198e-06
4.747839283e-06
4.66931857e-06
4.708607503e-06
4.727647957e-06
4.771619273e-06
4.781818242e-06
4.767729269e-06
4.77135509e-06
4.791579991e-06
4.825726408e-06
4.821442755e-06
4.789238008e-06
4.788818365e-06
4.764690548e-06
3.703731502e-06
4.744074914e-06
4.758875538e-06
4.71695553e-06
4.738457604e-06
4.7186995e-06
4.775615165e-06
4.826966673e-06
4.847998617e-06
4.839502711e-06
4.773206699e-06
4.773761557e-06
4.757526967e-06
4.761838862e-06
4.76344695e-06
4.753099435e-06
4.754841405e-06
4.743830727e-06
4.786200619e-06
4.790104202e-06
1.156398556e-05
1.325416528e-05
1.389590364e-05
1.446938026e-05
1.469002798e-05
1.492644453e-05
1.490090254e-05
1.491799011e-05
1.448874686e-05
1.46883134e-05
7.878652135e-06
9.482702975e-06
1.04739167e-05
1.132427942e-05
1.207907717e-05
1.246637334e-05
1.27663896e-05
1.29808945e-05
1.325391701e-05
1.312837298e-05
6.528139138e-06
7.559489595e-06
8.458593466e-06
9.327347564e-06
1.007471372e-05
1.081776568e-05
1.132895413e-05
1.179848558e-05
1.208657286e-05
1.22756115e-05
5.904852684e-06
6.576018236e-06
7.234562343e-06
7.929415268e-06
8.665571828e-06
9.42769806e-06
1.015886094e-05
1.059676038e-05
1.097148368e-05
1.136628636e-05
5.552111598e-06
5.964744113e-06
6.460574043e-06
7.117140624e-06
7.632824273e-06
8.121323464e-06
8.754125329e-06
9.23296664e-06
9.9218523e-06
1.05215238e-05
5.293368507e-06
5.603020918e-06
5.959194282e-06
6.296452062e-06
6.745959754e-06
7.252755799e-06
7.858229336e-06
8.411850988e-06
8.955092533e-06
9.488761277e-06
5.154937511e-06
5.346955125e-06
5.565162168e-06
5.904073387e-06
6.189061429e-06
6.647893753e-06
7.066775926e-06
7.608379394e-06
8.112376819e-06
8.651402361e-06
5.037129207e-06
5.167376974e-06
5.265633221e-06
5.537506826e-06
5.748127031e-06
6.056829433e-06
6.477857118e-06
6.849335993e-06
7.247095233e-06
7.695545521e-06
4.992307431e-06
5.103404466e-06
5.210038619e-06
5.367121765e-06
5.509813518e-06
5.695914147e-06
5.887790761e-06
6.228097398e-06
6.634851389e-06
6.984108602e-06
4.952610459e-06
5.001195006e-06
5.062376834e-06
5.128431202e-06
5.220328743e-06
5.483651069e-06
5.689992358e-06
5.865469571e-06
6.080259606e-06
6.343322962e-06
4.935552366e-06
4.974475869e-06
5.10422684e-06
5.163942011e-06
5.253054471e-06
5.304609639e-06
5.431317738e-06
5.6454608e-06
5.838248634e-06
6.053408794e-06
4.86708875e-06
4.894037389e-06
4.889973616e-06
4.934813212e-06
5.01258622e-06
5.105540003e-06
5.202004449e-06
5.355806487e-06
5.523725197e-06
5.684390407e-06
4.864023869e-06
4.911227177e-06
4.953962103e-06
4.969620433e-06
4.970918096e-06
5.063959708e-06
5.180918114e-06
5.212720228e-06
5.327174105e-06
5.479306067e-06
4.813470871e-06
4.83451414e-06
4.83221018e-06
4.848300633e-06
4.893553926e-06
4.932060595e-06
4.961238656e-06
5.037733613e-06
5.134781295e-06
5.230158314e-06
4.737835283e-06
4.746644925e-06
4.789645209e-06
4.88398031e-06
4.919062956e-06
4.984747404e-06
5.004232098e-06
5.046594213e-06
5.084199271e-06
5.159628403e-06
4.885972903e-06
4.942525492e-06
4.907157328e-06
4.887338306e-06
4.907439941e-06
4.91066567e-06
4.939318338e-06
4.979268275e-06
5.054973194e-06
5.058846519e-06
4.804881471e-06
4.816947993e-06
4.794301327e-06
4.804659651e-06
4.760570029e-06
4.806868228e-06
4.841386872e-06
4.856391505e-06
4.849422797e-06
4.96036074e-06
4.814620483e-06
4.763770893e-06
4.765700265e-06
4.801727752e-06
4.848571949e-06
4.838539191e-06
4.836346724e-06
4.864636523e-06
4.891489406e-06
4.941758944e-06
4.784624175e-06
4.868546571e-06
4.868529125e-06
4.873878579e-06
4.835246053e-06
4.824096122e-06
4.862091767e-06
4.846412888e-06
4.835780229e-06
4.89299629e-06
4.848202828e-06
4.837259705e-06
4.824830726e-06
4.799733405e-06
4.83654355e-06
4.848407169e-06
4.876251827e-06
4.912705819e-06
4.869626277e-06
4.842187159e-06
4.759593918e-06
4.768977874e-06
4.765948425e-06
4.772763623e-06
4.768365844e-06
4.731041207e-06
4.714322074e-06
4.725724706e-06
4.807832786e-06
4.81790474e-06
4.774164018e-06
4.755600545e-06
4.73410308e-06
4.751970265e-06
)
;

boundaryField
{
    flow
    {
        type            calculated;
        value           nonuniform List<scalar> 
42
(
3.649011024e-06
3.683759453e-06
3.743303528e-06
3.748310829e-06
3.730213966e-06
3.704624607e-06
3.732951348e-06
3.710107368e-06
3.731184467e-06
3.712782933e-06
3.74712105e-06
3.731656596e-06
3.736076797e-06
3.726953968e-06
3.685914401e-06
3.732843042e-06
3.744938526e-06
3.705035585e-06
3.739627221e-06
3.715577467e-06
3.712041706e-06
3.703731502e-06
3.649011024e-06
4.706225946e-06
4.73516803e-06
4.735437794e-06
4.746643506e-06
4.765345713e-06
4.753868904e-06
4.764271572e-06
4.752905068e-06
4.738236327e-06
4.73278714e-06
4.735971741e-06
4.710409957e-06
4.707759303e-06
4.723804858e-06
4.760491624e-06
4.769485903e-06
4.877666348e-06
5.107997242e-06
6.554505241e-06
)
;
    }
    obstacle
    {
        type            calculated;
        value           nonuniform List<scalar> 10(6.69008348e-24 6.795481713e-24 7.077395418e-24 6.639827983e-24 7.315645196e-24 7.182859155e-24 6.689603052e-24 6.76163858e-24 6.847672868e-24 6.537305914e-24);
    }
    frontAndBack
    {
        type            empty;
    }
    procBoundary0to1
    {
        type            processor;
        value           nonuniform List<scalar> 
21
(
1.470010205e-05
1.307217007e-05
1.222220461e-05
1.153759837e-05
1.078127481e-05
1.005320029e-05
9.114098024e-06
8.239659517e-06
7.463522964e-06
6.706639355e-06
6.321735691e-06
5.944875411e-06
5.569777838e-06
5.309762453e-06
5.26346125e-06
5.071747187e-06
4.999680072e-06
5.005957382e-06
4.902575321e-06
4.87407059e-06
4.811818251e-06
)
;
    }
    procBoundary0to2
    {
        type            processor;
        value           nonuniform List<scalar> 
31
(
3.711486182e-06
4.778805764e-06
4.834859234e-06
4.802902673e-06
4.800164624e-06
4.780960712e-06
4.786828875e-06
4.752601063e-06
4.722001737e-06
4.733976252e-06
4.765935479e-06
4.804064209e-06
4.791256407e-06
4.770946112e-06
4.768931711e-06
4.741177407e-06
4.762318323e-06
4.720207947e-06
4.678253697e-06
4.66404084e-06
4.785015757e-06
4.788551975e-06
4.795169181e-06
4.814981383e-06
4.819628268e-06
4.847714649e-06
4.730000399e-06
4.752734169e-06
4.803862279e-06
4.785015757e-06
4.761072869e-06
)
;
    }
}


// ************************************************************************* //
