/*--------------------------------*- C++ -*----------------------------------*\
| =========                 |                                                 |
| \\      /  F ield         | OpenFOAM: The Open Source CFD Toolbox           |
|  \\    /   O peration     | Version:  2406                                  |
|   \\  /    A nd           | Website:  www.openfoam.com                      |
|    \\/     M anipulation  |                                                 |
\*---------------------------------------------------------------------------*/
FoamFile
{
    version     2.0;
    format      ascii;
    arch        "LSB;label=32;scalar=64";
    class       volScalarField;
    location    "0.005";
    object      rhoM;
}
// * * * * * * * * * * * * * * * * * * * * * * * * * * * * * * * * * * * * * //

dimensions      [1 -3 0 0 0 0 0];

internalField   nonuniform List<scalar> 
654
(
2.974446132e-06
4.149769955e-06
4.842509107e-06
3.596578377e-06
5.464641352e-06
5.395700685e-06
4.358258196e-06
3.596578377e-06
3.458697042e-06
5.671463354e-06
5.049331109e-06
7.53952633e-06
5.53358202e-06
4.496139531e-06
1.937003643e-06
6.986334752e-06
1.452752732e-06
4.427198864e-06
4.01188862e-06
4.911449774e-06
4.01188862e-06
4.01188862e-06
5.395700685e-06
4.427198864e-06
4.496139531e-06
2.974446132e-06
2.559135888e-06
4.565080198e-06
2.974446132e-06
6.364202506e-06
4.358258196e-06
4.496139531e-06
4.427198864e-06
4.496139531e-06
5.464641352e-06
4.496139531e-06
4.911449774e-06
4.634020865e-06
7.193156754e-06
6.571024508e-06
4.01188862e-06
5.395700685e-06
5.671463354e-06
7.401644995e-06
4.496139531e-06
6.01783293e-06
6.571024508e-06
4.427198864e-06
5.464641352e-06
3.52763771e-06
3.596578377e-06
1.168929628e-05
7.816955239e-06
3.942947953e-06
4.496139531e-06
5.464641352e-06
5.948892263e-06
6.01783293e-06
5.049331109e-06
4.565080198e-06
2.490195221e-06
4.149769955e-06
3.458697042e-06
4.980390442e-06
4.01188862e-06
4.911449774e-06
3.389756375e-06
3.458697042e-06
7.055275419e-06
3.942947953e-06
4.496139531e-06
4.980390442e-06
4.01188862e-06
5.53358202e-06
4.358258196e-06
6.086773598e-06
1.231309477e-05
5.53358202e-06
4.980390442e-06
4.496139531e-06
3.043386799e-06
5.395700685e-06
5.049331109e-06
4.980390442e-06
5.53358202e-06
4.01188862e-06
4.565080198e-06
5.879951596e-06
2.559135888e-06
3.874007286e-06
5.395700685e-06
3.043386799e-06
2.421254554e-06
3.52763771e-06
5.049331109e-06
3.665519044e-06
2.490195221e-06
6.01783293e-06
2.00594431e-06
8.439087484e-06
2.974446132e-06
6.502083841e-06
4.358258196e-06
4.980390442e-06
3.52763771e-06
4.01188862e-06
4.911449774e-06
5.464641352e-06
5.879951596e-06
3.874007286e-06
5.049331109e-06
4.496139531e-06
5.049331109e-06
3.250208801e-06
4.496139531e-06
5.049331109e-06
5.326760018e-06
3.458697042e-06
5.118271776e-06
3.596578377e-06
4.01188862e-06
4.080829287e-06
3.52763771e-06
3.043386799e-06
7.53952633e-06
4.496139531e-06
4.080829287e-06
5.53358202e-06
3.596578377e-06
4.01188862e-06
5.809344689e-06
7.055275419e-06
3.596578377e-06
6.77784651e-06
5.395700685e-06
1.937003643e-06
6.502083841e-06
2.905505464e-06
5.602522687e-06
7.124216086e-06
4.01188862e-06
4.980390442e-06
3.52763771e-06
4.01188862e-06
8.508028151e-06
2.421254554e-06
4.980390442e-06
7.470585662e-06
6.364202506e-06
3.389756375e-06
4.980390442e-06
6.571024508e-06
5.395700685e-06
3.52763771e-06
4.842509107e-06
4.565080198e-06
1.452752732e-06
6.77784651e-06
7.124216086e-06
7.055275419e-06
3.043386799e-06
4.842509107e-06
6.571024508e-06
5.464641352e-06
2.974446132e-06
6.01783293e-06
2.490195221e-06
3.043386799e-06
3.942947953e-06
2.074884977e-06
5.118271776e-06
6.01783293e-06
4.911449774e-06
5.53358202e-06
4.080829287e-06
4.980390442e-06
9.061219729e-06
6.364202506e-06
3.52763771e-06
5.53358202e-06
4.01188862e-06
5.464641352e-06
4.634020865e-06
4.842509107e-06
3.942947953e-06
4.01188862e-06
2.905505464e-06
4.980390442e-06
5.464641352e-06
4.496139531e-06
4.427198864e-06
3.874007286e-06
6.502083841e-06
7.885895906e-06
2.974446132e-06
5.948892263e-06
5.879951596e-06
4.911449774e-06
3.52763771e-06
3.458697042e-06
1.937003643e-06
4.080829287e-06
5.464641352e-06
6.01783293e-06
4.634020865e-06
4.496139531e-06
4.496139531e-06
5.948892263e-06
5.948892263e-06
4.496139531e-06
4.496139531e-06
4.565080198e-06
7.608466997e-06
4.565080198e-06
5.53358202e-06
4.427198864e-06
5.464641352e-06
3.942947953e-06
4.358258196e-06
3.52763771e-06
2.490195221e-06
6.502083841e-06
7.055275419e-06
4.01188862e-06
4.427198864e-06
6.502083841e-06
4.01188862e-06
7.332704328e-06
4.565080198e-06
4.01188862e-06
4.01188862e-06
7.055275419e-06
4.911449774e-06
8.439087484e-06
4.01188862e-06
4.496139531e-06
5.671463354e-06
3.874007286e-06
5.256153111e-06
6.502083841e-06
3.52763771e-06
4.496139531e-06
4.358258196e-06
5.53358202e-06
5.53358202e-06
4.496139531e-06
5.53358202e-06
5.118271776e-06
2.490195221e-06
5.464641352e-06
5.602522687e-06
5.53358202e-06
2.974446132e-06
3.458697042e-06
4.565080198e-06
5.395700685e-06
5.602522687e-06
4.980390442e-06
4.980390442e-06
3.389756375e-06
3.942947953e-06
5.53358202e-06
6.571024508e-06
2.905505464e-06
4.980390442e-06
4.427198864e-06
5.187212443e-06
5.395700685e-06
1.521693399e-06
4.427198864e-06
6.502083841e-06
3.874007286e-06
4.427198864e-06
4.080829287e-06
3.52763771e-06
4.01188862e-06
4.634020865e-06
5.53358202e-06
2.490195221e-06
3.942947953e-06
3.52763771e-06
6.364202506e-06
6.502083841e-06
3.52763771e-06
3.942947953e-06
5.464641352e-06
5.811010928e-06
5.395700685e-06
4.565080198e-06
4.01188862e-06
5.811010928e-06
4.01188862e-06
8.02377724e-06
4.080829287e-06
4.980390442e-06
2.421254554e-06
3.043386799e-06
4.980390442e-06
4.911449774e-06
5.187212443e-06
3.52763771e-06
2.00594431e-06
3.458697042e-06
5.464641352e-06
6.155714265e-06
2.905505464e-06
2.559135888e-06
5.948892263e-06
2.905505464e-06
6.433143174e-06
8.161658575e-06
3.942947953e-06
8.992279062e-06
5.187212443e-06
1.937003643e-06
3.942947953e-06
8.02377724e-06
3.52763771e-06
7.53952633e-06
3.596578377e-06
3.942947953e-06
2.490195221e-06
9.130160396e-06
6.433143174e-06
2.490195221e-06
4.427198864e-06
4.496139531e-06
6.433143174e-06
4.080829287e-06
7.193156754e-06
8.092717908e-06
2.974446132e-06
3.389756375e-06
2.490195221e-06
4.01188862e-06
5.049331109e-06
7.608466997e-06
3.458697042e-06
2.074884977e-06
5.948892263e-06
4.080829287e-06
4.01188862e-06
4.496139531e-06
5.118271776e-06
5.395700685e-06
4.980390442e-06
3.458697042e-06
4.702961533e-06
4.358258196e-06
5.53358202e-06
5.395700685e-06
7.055275419e-06
4.980390442e-06
4.911449774e-06
2.974446132e-06
3.596578377e-06
3.389756375e-06
2.974446132e-06
6.01783293e-06
6.848453417e-06
4.496139531e-06
3.596578377e-06
4.427198864e-06
5.464641352e-06
3.52763771e-06
3.389756375e-06
4.565080198e-06
2.974446132e-06
4.565080198e-06
4.911449774e-06
4.496139531e-06
3.043386799e-06
4.980390442e-06
8.02377724e-06
7.401644995e-06
3.52763771e-06
3.942947953e-06
5.740404021e-06
4.980390442e-06
4.911449774e-06
3.043386799e-06
6.502083841e-06
6.01783293e-06
6.01783293e-06
7.885895906e-06
4.080829287e-06
4.496139531e-06
4.496139531e-06
4.842509107e-06
2.490195221e-06
4.01188862e-06
5.118271776e-06
4.980390442e-06
8.508028151e-06
1.937003643e-06
3.181268133e-06
3.52763771e-06
4.911449774e-06
4.496139531e-06
5.395700685e-06
2.490195221e-06
4.980390442e-06
2.974446132e-06
4.149769955e-06
4.496139531e-06
2.421254554e-06
4.911449774e-06
5.53358202e-06
4.496139531e-06
3.52763771e-06
2.905505464e-06
5.395700685e-06
3.874007286e-06
4.565080198e-06
2.421254554e-06
4.496139531e-06
5.395700685e-06
4.01188862e-06
6.502083841e-06
3.942947953e-06
3.942947953e-06
4.496139531e-06
5.53358202e-06
4.01188862e-06
4.149769955e-06
4.980390442e-06
5.118271776e-06
6.433143174e-06
5.187212443e-06
9.130160396e-06
3.043386799e-06
5.118271776e-06
4.980390442e-06
4.496139531e-06
5.602522687e-06
3.389756375e-06
3.458697042e-06
4.358258196e-06
3.874007286e-06
3.596578377e-06
9.024167986e-06
1.838142088e-05
1.491951903e-05
1.389000792e-05
1.420263227e-05
1.990758716e-05
1.454918636e-05
1.530921589e-05
1.123420321e-05
1.18337404e-05
7.427893126e-06
9.714850633e-06
1.224560149e-05
7.65388687e-06
1.47733764e-05
9.199936364e-06
1.092992506e-05
1.53092159e-05
1.31440465e-05
1.538457518e-05
5.06723733e-06
9.436207138e-06
1.133034947e-05
9.283549355e-06
1.027683244e-05
1.423142206e-05
1.62858041e-05
6.707413051e-06
1.351173223e-05
9.46770498e-06
4.442898844e-06
6.080699713e-06
7.038052756e-06
6.30675327e-06
8.207240316e-06
1.200220339e-05
8.830858115e-06
1.421582591e-05
1.116101982e-05
7.543964963e-06
4.512083993e-06
3.494829175e-06
6.615498342e-06
6.520357069e-06
5.495775963e-06
1.042112664e-05
7.166381502e-06
1.180931429e-05
1.160188895e-05
8.432119078e-06
4.859681884e-06
6.570009466e-06
5.137405542e-06
7.51262242e-06
6.208776332e-06
7.042348719e-06
7.74525407e-06
9.404558742e-06
1.050060051e-05
8.135473823e-06
6.039173707e-06
5.032419321e-06
4.011723977e-06
6.024224388e-06
7.778752457e-06
6.68419351e-06
1.049533473e-05
4.883925676e-06
9.104809749e-06
8.653266772e-06
5.06723733e-06
5.032419324e-06
2.463487995e-06
4.535826341e-06
6.279904458e-06
6.252675978e-06
5.283737926e-06
1.093389986e-06
5.727761082e-06
1.17600245e-05
5.900803409e-06
4.053799806e-06
3.448883191e-06
3.047428303e-06
4.0680561e-06
7.76212169e-06
4.125992765e-06
1.013290005e-05
6.829049507e-06
6.508379054e-06
5.484020373e-06
5.591389955e-06
2.956185594e-06
5.598723927e-06
7.136880202e-06
4.599968182e-06
7.382804872e-06
6.269705837e-06
5.947311254e-06
4.881284291e-06
3.470962467e-06
4.962758448e-06
4.997119172e-06
5.598723927e-06
5.638032213e-06
5.534634276e-06
4.84914759e-06
1.093389985e-06
7.343102025e-06
5.472793145e-06
4.373713696e-06
7.478968113e-06
4.434278391e-06
4.535826341e-06
2.569208108e-06
6.970717685e-06
3.691402449e-06
5.83199866e-06
3.671551031e-06
4.881284311e-06
3.054179428e-06
4.543109575e-06
7.671036751e-06
4.110325886e-06
2.711464351e-06
4.168450646e-06
6.297200824e-06
3.062194373e-06
4.258786902e-06
7.026172009e-06
6.108358835e-06
3.0055194e-06
4.504421542e-06
3.472928749e-06
4.638800223e-06
6.684193491e-06
3.691402415e-06
5.831998615e-06
4.626472637e-06
8.505834911e-06
4.442898868e-06
9.086219151e-06
8.093591134e-06
3.543560996e-06
6.850648638e-06
2.012594292e-06
7.454946006e-06
4.738608664e-06
6.902232918e-06
3.254189527e-06
5.622390659e-06
3.075180299e-06
3.519026399e-06
4.1103259e-06
4.567672097e-06
4.240081717e-06
2.533657282e-06
3.207511411e-06
8.223071461e-06
3.845698382e-06
4.095300947e-06
5.661050801e-06
3.941580763e-06
5.031959007e-06
7.208008334e-06
4.743230257e-06
4.270275021e-06
3.717877192e-06
5.213708579e-06
4.80756839e-06
3.054179423e-06
7.268301862e-06
4.081867187e-06
3.543560971e-06
5.209544311e-06
4.025188556e-06
6.659650009e-06
3.790535685e-06
4.772839451e-06
5.251645445e-06
4.85968191e-06
6.70933123e-06
6.825927893e-06
4.1103259e-06
4.49654397e-06
4.311712731e-06
4.198133897e-06
4.738608631e-06
1.02810503e-06
4.955000226e-06
3.470962463e-06
6.430687737e-06
5.559959955e-06
5.173223451e-06
6.566136083e-06
3.090522482e-06
7.310663759e-06
4.228242898e-06
4.112420151e-06
3.180473627e-06
5.96998855e-06
3.425168288e-06
4.574564758e-06
2.480663409e-06
2.640336237e-06
5.103116739e-06
4.198133897e-06
5.17631588e-06
3.157498504e-06
5.399077245e-06
3.956930651e-06
3.425168288e-06
5.067262357e-06
5.102591264e-06
)
;

boundaryField
{
    flow
    {
        type            zeroGradient;
    }
    obstacle
    {
        type            calculated;
        value           nonuniform List<scalar> 10(3.860057579e-24 1.124798864e-23 5.539311236e-24 9.451998511e-24 3.210507079e-24 1.900657683e-23 1e-300 8.400012624e-24 3.011229357e-24 1e-300);
    }
    frontAndBack
    {
        type            empty;
    }
    procBoundary0to1
    {
        type            processor;
        value           nonuniform List<scalar> 
21
(
1.408108734e-05
1.624169646e-05
1.274088603e-05
1.475298271e-05
1.058027691e-05
8.716692678e-06
8.642436449e-06
6.929159345e-06
1.17719658e-05
1.087730178e-05
4.842806449e-06
3.278041788e-06
6.481827318e-06
8.345411562e-06
4.917062686e-06
4.917062651e-06
3.725373774e-06
7.151928024e-06
5.29013848e-06
8.642436425e-06
3.725373801e-06
)
;
    }
    procBoundary0to2
    {
        type            processor;
        value           nonuniform List<scalar> 
31
(
4.01188862e-06
5.395700685e-06
5.53358202e-06
3.942947953e-06
2.421254554e-06
5.395700685e-06
4.01188862e-06
6.364202506e-06
4.01188862e-06
5.326760018e-06
4.911449774e-06
4.496139531e-06
2.974446132e-06
5.671463354e-06
2.974446132e-06
3.942947953e-06
3.596578377e-06
4.01188862e-06
4.218710622e-06
3.942947953e-06
3.710696357e-06
4.671599213e-06
3.619261292e-06
4.300901418e-06
3.157498504e-06
5.399077245e-06
8.399829489e-06
4.12346069e-06
5.63010314e-06
3.710696357e-06
5.66935613e-06
)
;
    }
}


// ************************************************************************* //
