/*--------------------------------*- C++ -*----------------------------------*\
| =========                 |                                                 |
| \\      /  F ield         | OpenFOAM: The Open Source CFD Toolbox           |
|  \\    /   O peration     | Version:  2406                                  |
|   \\  /    A nd           | Website:  www.openfoam.com                      |
|    \\/     M anipulation  |                                                 |
\*---------------------------------------------------------------------------*/
FoamFile
{
    version     2.0;
    format      ascii;
    arch        "LSB;label=32;scalar=64";
    class       volScalarField;
    location    "0.005";
    object      rhoNMean;
}
// * * * * * * * * * * * * * * * * * * * * * * * * * * * * * * * * * * * * * //

dimensions      [0 -3 0 0 0 0 0];

internalField   nonuniform List<scalar> 
654
(
7.606384197e+19
9.809986191e+19
9.87080394e+19
9.867054901e+19
9.890382256e+19
9.928289209e+19
9.907877773e+19
9.929122329e+19
9.908710893e+19
9.875386099e+19
9.864972101e+19
9.873303299e+19
9.822482989e+19
9.820400189e+19
9.852475303e+19
9.927872649e+19
9.947867526e+19
1.017114364e+20
1.064518884e+20
1.365816676e+20
7.676782824e+19
9.906628093e+19
1.001285087e+20
9.973277681e+19
9.998687836e+19
1.002243175e+20
9.966196162e+19
9.957864964e+19
9.981608879e+19
9.997021597e+19
1.000951839e+20
1.002534767e+20
1.003951071e+20
1.008574886e+20
1.005117439e+20
1.013406981e+20
1.027570019e+20
1.053563358e+20
1.11642225e+20
1.299833584e+20
7.801750801e+19
1.010282782e+20
1.012365581e+20
1.008366606e+20
1.001826615e+20
1.005825591e+20
1.009616286e+20
1.006200494e+20
1.006075526e+20
9.97785984e+19
9.963696803e+19
9.98077576e+19
9.995355357e+19
1.005867247e+20
1.013615261e+20
1.010990934e+20
1.015531437e+20
1.036067841e+20
1.079140137e+20
1.185029669e+20
7.81174824e+19
9.902879054e+19
9.990773198e+19
9.997854716e+19
9.928705769e+19
9.898713455e+19
9.877885459e+19
9.889132576e+19
9.913293052e+19
9.988690398e+19
1.003701135e+20
1.004575911e+20
1.00957463e+20
9.995771917e+19
9.987024158e+19
9.944118486e+19
1.002326487e+20
1.018072452e+20
1.051897118e+20
1.130793567e+20
7.773008167e+19
9.987440718e+19
9.92495673e+19
9.905378413e+19
9.949533765e+19
9.97577704e+19
9.974527361e+19
9.939952887e+19
9.879135138e+19
9.876635779e+19
9.796239714e+19
9.800405313e+19
9.874552979e+19
9.902879054e+19
9.946617846e+19
1.012865453e+20
1.02173818e+20
1.036775993e+20
1.056146029e+20
1.092886614e+20
7.722187856e+19
9.917458651e+19
1.000701903e+20
9.961614003e+19
9.940786007e+19
9.9803592e+19
9.931621689e+19
9.974110801e+19
9.987440718e+19
1.001743303e+20
1.004325975e+20
9.989940078e+19
9.939952887e+19
9.941202567e+19
1.000410312e+20
9.954532484e+19
1.000910183e+20
1.016572837e+20
1.034026697e+20
1.059645133e+20
7.777590326e+19
9.967445842e+19
1.005825591e+20
1.002992983e+20
1.008408262e+20
1.005325719e+20
1.00624215e+20
1.003034639e+20
1.010865966e+20
1.012365581e+20
1.006325462e+20
1.011490805e+20
1.010449406e+20
1.006991958e+20
1.008241638e+20
1.003451199e+20
1.016447869e+20
1.011699085e+20
1.03015269e+20
1.048939543e+20
7.736350893e+19
9.92620641e+19
1.001493367e+20
1.004242663e+20
1.002076551e+20
1.004242663e+20
1.014281757e+20
1.021238308e+20
1.01923882e+20
1.011615773e+20
1.009449662e+20
1.000576935e+20
1.007658454e+20
1.008241638e+20
1.010532718e+20
1.018697292e+20
1.017031052e+20
1.02173818e+20
1.024070915e+20
1.028778042e+20
7.776340646e+19
1.007658454e+20
1.009949534e+20
1.005367375e+20
1.001076807e+20
9.946201286e+19
9.995355357e+19
9.982441999e+19
9.932454808e+19
9.963696803e+19
1.011824053e+20
1.009116414e+20
1.000660247e+20
9.97577704e+19
9.893298176e+19
9.944535046e+19
1.003492855e+20
1.00874151e+20
1.012990421e+20
1.025320595e+20
7.736767453e+19
9.836229466e+19
9.946617846e+19
9.967445842e+19
1.001243431e+20
1.004659223e+20
1.001076807e+20
9.974527361e+19
9.985357919e+19
9.984108239e+19
9.92370705e+19
9.933287928e+19
9.990356638e+19
1.001076807e+20
1.007658454e+20
1.010949278e+20
1.012032333e+20
9.997021597e+19
1.012740485e+20
1.017905828e+20
7.80924888e+19
9.965363042e+19
1.002159863e+20
9.982441999e+19
9.936203848e+19
9.852058743e+19
9.788325075e+19
9.81706771e+19
9.901212814e+19
9.937453528e+19
9.997854716e+19
1.005159095e+20
1.011282526e+20
1.00665871e+20
1.003034639e+20
9.86788802e+19
9.938286647e+19
9.998271276e+19
1.014490037e+20
1.016239589e+20
7.778423446e+19
9.988690398e+19
1.003826103e+20
9.9782764e+19
1.004867503e+20
1.007325206e+20
1.012698829e+20
1.012615517e+20
1.017114364e+20
1.003992727e+20
1.00011872e+20
9.894131296e+19
9.849142824e+19
9.960780883e+19
1.004201007e+20
1.014156789e+20
1.021696524e+20
1.012490549e+20
1.008158326e+20
1.019572068e+20
7.783422165e+19
9.966196162e+19
1.001451711e+20
9.992439437e+19
9.974527361e+19
9.954949044e+19
9.940369447e+19
9.903712174e+19
9.861639622e+19
9.917042091e+19
1.001035151e+20
1.003867759e+20
1.005700623e+20
1.006492086e+20
9.958698084e+19
1.003742791e+20
1.002243175e+20
1.012157301e+20
1.014531693e+20
1.010782654e+20
7.769259127e+19
1.004700879e+20
1.00936635e+20
1.012865453e+20
1.012990421e+20
1.011574117e+20
1.008449918e+20
1.011449149e+20
1.009491318e+20
1.005742279e+20
9.995355357e+19
9.982025439e+19
9.955782164e+19
9.949950325e+19
9.945368166e+19
9.848309704e+19
9.81706771e+19
9.834979786e+19
9.829147948e+19
9.97702672e+19
7.679282184e+19
9.961614003e+19
1.002284831e+20
9.943701926e+19
1.00011872e+20
1.003117951e+20
1.005284063e+20
1.004159351e+20
1.00728355e+20
1.00686699e+20
1.007158582e+20
1.005034127e+20
1.011074246e+20
1.004784191e+20
1.005700623e+20
9.97910952e+19
9.994938797e+19
9.973694241e+19
9.92495673e+19
9.906211533e+19
7.778840006e+19
9.989523518e+19
1.001285087e+20
1.001076807e+20
9.981192319e+19
1.003951071e+20
1.005492343e+20
1.000160376e+20
1.002326487e+20
9.985357919e+19
9.960364323e+19
9.892048496e+19
9.790824435e+19
9.842061305e+19
9.885383537e+19
9.999104396e+19
1.003617823e+20
9.9782764e+19
1.004325975e+20
9.994522237e+19
7.80674952e+19
9.974527361e+19
9.990356638e+19
1.002326487e+20
9.986607598e+19
9.990356638e+19
9.855807783e+19
9.945784726e+19
9.969945202e+19
9.989106958e+19
1.005533999e+20
1.00790839e+20
1.011949021e+20
1.01778086e+20
1.00790839e+20
1.006158838e+20
1.006367118e+20
1.008616542e+20
1.005492343e+20
1.008783166e+20
7.720521616e+19
9.913709612e+19
9.984108239e+19
9.999104396e+19
9.993689117e+19
9.958698084e+19
1.006283806e+20
1.002409799e+20
9.987024158e+19
9.929955449e+19
9.931621689e+19
9.971611441e+19
1.001035151e+20
1.002034895e+20
1.002534767e+20
1.003034639e+20
1.010449406e+20
1.005825591e+20
1.004034383e+20
1.004325975e+20
7.796335522e+19
1.000077064e+20
1.006617054e+20
1.000202032e+20
1.002534767e+20
1.010032846e+20
1.008408262e+20
1.010782654e+20
1.008658198e+20
1.009408006e+20
1.008991446e+20
1.002326487e+20
9.941619127e+19
9.92287393e+19
9.860389942e+19
9.901629374e+19
9.891215376e+19
9.929955449e+19
9.968695522e+19
9.937870087e+19
7.742599292e+19
9.992439437e+19
1.012948765e+20
1.010907622e+20
1.008075014e+20
1.009491318e+20
1.00894979e+20
1.011282526e+20
1.01124087e+20
1.008075014e+20
1.009283038e+20
1.012032333e+20
1.019905316e+20
1.01778086e+20
1.023696011e+20
1.016531181e+20
1.015114877e+20
1.018572324e+20
1.017905828e+20
1.020613468e+20
7.738850253e+19
9.935370728e+19
9.949117205e+19
9.937036968e+19
9.92370705e+19
9.943285366e+19
9.896630655e+19
9.734588845e+19
9.81623459e+19
9.858723702e+19
9.954115924e+19
9.968695522e+19
9.935787288e+19
9.944118486e+19
9.985774479e+19
1.005908903e+20
1.005325719e+20
9.987024158e+19
9.983275119e+19
9.932454808e+19
7.715522897e+19
9.887882897e+19
9.917458651e+19
9.828731388e+19
9.875802659e+19
9.832896987e+19
9.952449685e+19
1.005867247e+20
1.010491062e+20
1.008616542e+20
9.946617846e+19
9.948700645e+19
9.919124891e+19
9.92537329e+19
9.930788569e+19
9.909544013e+19
9.912459932e+19
9.890382256e+19
9.984524799e+19
9.994105677e+19
2.408897281e+20
2.761180223e+20
2.893756039e+20
3.012602989e+20
3.05984176e+20
3.110345439e+20
3.106252923e+20
3.108248045e+20
3.016172745e+20
3.059677541e+20
1.64225895e+20
1.977821609e+20
2.182957637e+20
2.359927112e+20
2.516990178e+20
2.59797789e+20
2.658890781e+20
2.703774971e+20
2.760539403e+20
2.733857717e+20
1.360878142e+20
1.576271923e+20
1.762268056e+20
1.94385851e+20
2.099031852e+20
2.253845907e+20
2.360736529e+20
2.458975029e+20
2.520206032e+20
2.557785842e+20
1.230450551e+20
1.370824963e+20
1.507718227e+20
1.652025798e+20
1.805107221e+20
1.965806875e+20
2.11589261e+20
2.207589723e+20
2.285488547e+20
2.368262485e+20
1.157335853e+20
1.242825738e+20
1.34636771e+20
1.482252398e+20
1.590218623e+20
1.692050773e+20
1.823492214e+20
1.92463857e+20
2.067397623e+20
2.190854371e+20
1.102572987e+20
1.166935373e+20
1.241386036e+20
1.312820418e+20
1.406402912e+20
1.513081365e+20
1.638366319e+20
1.754692266e+20
1.867525157e+20
1.978748561e+20
1.074564497e+20
1.115163244e+20
1.160986265e+20
1.231433322e+20
1.291222624e+20
1.387131918e+20
1.473771227e+20
1.586721577e+20
1.692238777e+20
1.803344804e+20
1.050360146e+20
1.07732329e+20
1.098514328e+20
1.154655454e+20
1.198949457e+20
1.262177945e+20
1.350106957e+20
1.427224053e+20
1.509877265e+20
1.604467768e+20
1.040619881e+20
1.063643662e+20
1.085418108e+20
1.11808034e+20
1.148794459e+20
1.188166414e+20
1.228665766e+20
1.299555791e+20
1.384161024e+20
1.457659546e+20
1.032927998e+20
1.042555991e+20
1.055835061e+20
1.069768754e+20
1.088754584e+20
1.143023708e+20
1.186165709e+20
1.223033858e+20
1.268394186e+20
1.322031198e+20
1.028789429e+20
1.03750505e+20
1.063887752e+20
1.076639925e+20
1.094513598e+20
1.105888097e+20
1.131722045e+20
1.175882648e+20
1.216657287e+20
1.26279123e+20
1.015077811e+20
1.020458131e+20
1.019555565e+20
1.029096543e+20
1.044831354e+20
1.065160114e+20
1.085386089e+20
1.117229012e+20
1.15196406e+20
1.185601111e+20
1.013781896e+20
1.023783334e+20
1.032948467e+20
1.036138427e+20
1.036751538e+20
1.055854569e+20
1.080460436e+20
1.087726563e+20
1.111105166e+20
1.142796889e+20
1.003874412e+20
1.007957049e+20
1.007688432e+20
1.011299781e+20
1.020420009e+20
1.028240909e+20
1.033862933e+20
1.049838775e+20
1.070334721e+20
1.090104488e+20
9.881562236e+19
9.897315843e+19
9.987880955e+19
1.01812828e+20
1.025018632e+20
1.038671781e+20
1.04271167e+20
1.05141927e+20
1.059500933e+20
1.075450399e+20
1.017460621e+20
1.02942355e+20
1.022098526e+20
1.017872212e+20
1.022311029e+20
1.023393377e+20
1.029111652e+20
1.0377656e+20
1.053310186e+20
1.053491523e+20
1.001491602e+20
1.003747935e+20
9.987033235e+19
1.00131311e+20
9.917968477e+19
1.000757095e+20
1.007927008e+20
1.010721718e+20
1.009842355e+20
1.033136136e+20
1.003080143e+20
9.925516922e+19
9.927697746e+19
9.999474113e+19
1.00971855e+20
1.008547782e+20
1.008537258e+20
1.013794881e+20
1.019040026e+20
1.029706453e+20
9.963079481e+19
1.013807729e+20
1.013749149e+20
1.015396883e+20
1.007268827e+20
1.004825565e+20
1.012460347e+20
1.010107077e+20
1.007940906e+20
1.02097636e+20
1.010855634e+20
1.008883063e+20
1.00590837e+20
1.000672939e+20
1.00834327e+20
1.011058122e+20
1.017342405e+20
1.024594879e+20
1.015635119e+20
1.009662855e+20
9.920439625e+19
9.940669673e+19
9.942531584e+19
9.961063909e+19
9.953639985e+19
9.874263626e+19
9.838654366e+19
9.854339192e+19
1.002988321e+20
1.005030557e+20
9.963497451e+19
9.921728651e+19
9.872176486e+19
9.908569871e+19
)
;

boundaryField
{
    flow
    {
        type            calculated;
        value           nonuniform List<scalar> 
42
(
7.606384197e+19
7.676782824e+19
7.801750801e+19
7.81174824e+19
7.773008167e+19
7.722187856e+19
7.777590326e+19
7.736350893e+19
7.776340646e+19
7.736767453e+19
7.80924888e+19
7.778423446e+19
7.783422165e+19
7.769259127e+19
7.679282184e+19
7.778840006e+19
7.80674952e+19
7.720521616e+19
7.796335522e+19
7.742599292e+19
7.738850253e+19
7.715522897e+19
7.606384197e+19
9.809986191e+19
9.87080394e+19
9.867054901e+19
9.890382256e+19
9.928289209e+19
9.907877773e+19
9.929122329e+19
9.908710893e+19
9.875386099e+19
9.864972101e+19
9.873303299e+19
9.822482989e+19
9.820400189e+19
9.852475303e+19
9.927872649e+19
9.947867526e+19
1.017114364e+20
1.064518884e+20
1.365816676e+20
)
;
    }
    obstacle
    {
        type            calculated;
        value           nonuniform List<scalar> 10(139.2418821 141.6095555 147.6273052 138.0810154 152.2479178 149.6605933 139.5854492 140.700847 142.7168791 136.1074794);
    }
    frontAndBack
    {
        type            empty;
    }
    procBoundary0to1
    {
        type            processor;
        value           nonuniform List<scalar> 
21
(
3.062137903e+20
2.722533494e+20
2.54808747e+20
2.405542456e+20
2.245319527e+20
2.09635842e+20
1.899657963e+20
1.717898488e+20
1.557585825e+20
1.397632102e+20
1.318485295e+20
1.24081913e+20
1.161941523e+20
1.106260578e+20
1.097287025e+20
1.055559959e+20
1.042009882e+20
1.042638039e+20
1.022985941e+20
1.016166027e+20
1.003423578e+20
)
;
    }
    procBoundary0to2
    {
        type            processor;
        value           nonuniform List<scalar> 
31
(
7.736350893e+19
9.964529923e+19
1.007950046e+20
1.001326743e+20
1.000826871e+20
9.967029282e+19
9.98077576e+19
9.908294333e+19
9.845810344e+19
9.867054901e+19
9.934954168e+19
1.001535023e+20
9.990356638e+19
9.947034406e+19
9.946201286e+19
9.886633217e+19
9.932038249e+19
9.844977225e+19
9.752084362e+19
9.727923886e+19
9.975128845e+19
9.985064515e+19
9.995577586e+19
1.003785127e+20
1.004712884e+20
1.01050914e+20
9.862332461e+19
9.906575899e+19
1.001797259e+20
9.975128845e+19
9.929482062e+19
)
;
    }
}


// ************************************************************************* //
