/*--------------------------------*- C++ -*----------------------------------*\
| =========                 |                                                 |
| \\      /  F ield         | OpenFOAM: The Open Source CFD Toolbox           |
|  \\    /   O peration     | Version:  2406                                  |
|   \\  /    A nd           | Website:  www.openfoam.com                      |
|    \\/     M anipulation  |                                                 |
\*---------------------------------------------------------------------------*/
FoamFile
{
    version     2.0;
    format      ascii;
    arch        "LSB;label=32;scalar=64";
    class       volScalarField;
    location    "0.005";
    object      rhoN;
}
// * * * * * * * * * * * * * * * * * * * * * * * * * * * * * * * * * * * * * //

dimensions      [0 -3 0 0 0 0 0];

internalField   nonuniform List<scalar> 
654
(
6.248398848e+19
8.331198464e+19
1.041399808e+20
7.289798656e+19
1.145539789e+20
1.145539789e+20
9.372598272e+19
7.289798656e+19
7.289798656e+19
1.145539789e+20
1.041399808e+20
1.562099712e+20
1.145539789e+20
9.372598272e+19
4.165599232e+19
1.457959731e+20
3.124199424e+19
9.372598272e+19
8.331198464e+19
1.041399808e+20
8.331198464e+19
8.331198464e+19
1.145539789e+20
9.372598272e+19
9.372598272e+19
6.248398848e+19
5.20699904e+19
9.372598272e+19
6.248398848e+19
1.35381975e+20
9.372598272e+19
9.372598272e+19
9.372598272e+19
9.372598272e+19
1.145539789e+20
9.372598272e+19
1.041399808e+20
9.372598272e+19
1.457959731e+20
1.35381975e+20
8.331198464e+19
1.145539789e+20
1.145539789e+20
1.562099712e+20
9.372598272e+19
1.24967977e+20
1.35381975e+20
9.372598272e+19
1.145539789e+20
7.289798656e+19
7.289798656e+19
2.395219558e+20
1.666239693e+20
8.331198464e+19
9.372598272e+19
1.145539789e+20
1.24967977e+20
1.24967977e+20
1.041399808e+20
9.372598272e+19
5.20699904e+19
8.331198464e+19
7.289798656e+19
1.041399808e+20
8.331198464e+19
1.041399808e+20
7.289798656e+19
7.289798656e+19
1.457959731e+20
8.331198464e+19
9.372598272e+19
1.041399808e+20
8.331198464e+19
1.145539789e+20
9.372598272e+19
1.24967977e+20
2.60349952e+20
1.145539789e+20
1.041399808e+20
9.372598272e+19
6.248398848e+19
1.145539789e+20
1.041399808e+20
1.041399808e+20
1.145539789e+20
8.331198464e+19
9.372598272e+19
1.24967977e+20
5.20699904e+19
8.331198464e+19
1.145539789e+20
6.248398848e+19
5.20699904e+19
7.289798656e+19
1.041399808e+20
7.289798656e+19
5.20699904e+19
1.24967977e+20
4.165599232e+19
1.770379674e+20
6.248398848e+19
1.35381975e+20
9.372598272e+19
1.041399808e+20
7.289798656e+19
8.331198464e+19
1.041399808e+20
1.145539789e+20
1.24967977e+20
8.331198464e+19
1.041399808e+20
9.372598272e+19
1.041399808e+20
6.248398848e+19
9.372598272e+19
1.041399808e+20
1.145539789e+20
7.289798656e+19
1.041399808e+20
7.289798656e+19
8.331198464e+19
8.331198464e+19
7.289798656e+19
6.248398848e+19
1.562099712e+20
9.372598272e+19
8.331198464e+19
1.145539789e+20
7.289798656e+19
8.331198464e+19
1.145539789e+20
1.457959731e+20
7.289798656e+19
1.35381975e+20
1.145539789e+20
4.165599232e+19
1.35381975e+20
6.248398848e+19
1.145539789e+20
1.457959731e+20
8.331198464e+19
1.041399808e+20
7.289798656e+19
8.331198464e+19
1.770379674e+20
5.20699904e+19
1.041399808e+20
1.562099712e+20
1.35381975e+20
7.289798656e+19
1.041399808e+20
1.35381975e+20
1.145539789e+20
7.289798656e+19
1.041399808e+20
9.372598272e+19
3.124199424e+19
1.35381975e+20
1.457959731e+20
1.457959731e+20
6.248398848e+19
1.041399808e+20
1.35381975e+20
1.145539789e+20
6.248398848e+19
1.24967977e+20
5.20699904e+19
6.248398848e+19
8.331198464e+19
4.165599232e+19
1.041399808e+20
1.24967977e+20
1.041399808e+20
1.145539789e+20
8.331198464e+19
1.041399808e+20
1.874519654e+20
1.35381975e+20
7.289798656e+19
1.145539789e+20
8.331198464e+19
1.145539789e+20
9.372598272e+19
1.041399808e+20
8.331198464e+19
8.331198464e+19
6.248398848e+19
1.041399808e+20
1.145539789e+20
9.372598272e+19
9.372598272e+19
8.331198464e+19
1.35381975e+20
1.666239693e+20
6.248398848e+19
1.24967977e+20
1.24967977e+20
1.041399808e+20
7.289798656e+19
7.289798656e+19
4.165599232e+19
8.331198464e+19
1.145539789e+20
1.24967977e+20
9.372598272e+19
9.372598272e+19
9.372598272e+19
1.24967977e+20
1.24967977e+20
9.372598272e+19
9.372598272e+19
9.372598272e+19
1.562099712e+20
9.372598272e+19
1.145539789e+20
9.372598272e+19
1.145539789e+20
8.331198464e+19
9.372598272e+19
7.289798656e+19
5.20699904e+19
1.35381975e+20
1.457959731e+20
8.331198464e+19
9.372598272e+19
1.35381975e+20
8.331198464e+19
1.562099712e+20
9.372598272e+19
8.331198464e+19
8.331198464e+19
1.457959731e+20
1.041399808e+20
1.770379674e+20
8.331198464e+19
9.372598272e+19
1.145539789e+20
8.331198464e+19
1.041399808e+20
1.35381975e+20
7.289798656e+19
9.372598272e+19
9.372598272e+19
1.145539789e+20
1.145539789e+20
9.372598272e+19
1.145539789e+20
1.041399808e+20
5.20699904e+19
1.145539789e+20
1.145539789e+20
1.145539789e+20
6.248398848e+19
7.289798656e+19
9.372598272e+19
1.145539789e+20
1.145539789e+20
1.041399808e+20
1.041399808e+20
7.289798656e+19
8.331198464e+19
1.145539789e+20
1.35381975e+20
6.248398848e+19
1.041399808e+20
9.372598272e+19
1.041399808e+20
1.145539789e+20
3.124199424e+19
9.372598272e+19
1.35381975e+20
8.331198464e+19
9.372598272e+19
8.331198464e+19
7.289798656e+19
8.331198464e+19
9.372598272e+19
1.145539789e+20
5.20699904e+19
8.331198464e+19
7.289798656e+19
1.35381975e+20
1.35381975e+20
7.289798656e+19
8.331198464e+19
1.145539789e+20
1.24967977e+20
1.145539789e+20
9.372598272e+19
8.331198464e+19
1.24967977e+20
8.331198464e+19
1.666239693e+20
8.331198464e+19
1.041399808e+20
5.20699904e+19
6.248398848e+19
1.041399808e+20
1.041399808e+20
1.041399808e+20
7.289798656e+19
4.165599232e+19
7.289798656e+19
1.145539789e+20
1.24967977e+20
6.248398848e+19
5.20699904e+19
1.24967977e+20
6.248398848e+19
1.35381975e+20
1.666239693e+20
8.331198464e+19
1.874519654e+20
1.041399808e+20
4.165599232e+19
8.331198464e+19
1.666239693e+20
7.289798656e+19
1.562099712e+20
7.289798656e+19
8.331198464e+19
5.20699904e+19
1.874519654e+20
1.35381975e+20
5.20699904e+19
9.372598272e+19
9.372598272e+19
1.35381975e+20
8.331198464e+19
1.457959731e+20
1.666239693e+20
6.248398848e+19
7.289798656e+19
5.20699904e+19
8.331198464e+19
1.041399808e+20
1.562099712e+20
7.289798656e+19
4.165599232e+19
1.24967977e+20
8.331198464e+19
8.331198464e+19
9.372598272e+19
1.041399808e+20
1.145539789e+20
1.041399808e+20
7.289798656e+19
9.372598272e+19
9.372598272e+19
1.145539789e+20
1.145539789e+20
1.457959731e+20
1.041399808e+20
1.041399808e+20
6.248398848e+19
7.289798656e+19
7.289798656e+19
6.248398848e+19
1.24967977e+20
1.457959731e+20
9.372598272e+19
7.289798656e+19
9.372598272e+19
1.145539789e+20
7.289798656e+19
7.289798656e+19
9.372598272e+19
6.248398848e+19
9.372598272e+19
1.041399808e+20
9.372598272e+19
6.248398848e+19
1.041399808e+20
1.666239693e+20
1.562099712e+20
7.289798656e+19
8.331198464e+19
1.145539789e+20
1.041399808e+20
1.041399808e+20
6.248398848e+19
1.35381975e+20
1.24967977e+20
1.24967977e+20
1.666239693e+20
8.331198464e+19
9.372598272e+19
9.372598272e+19
1.041399808e+20
5.20699904e+19
8.331198464e+19
1.041399808e+20
1.041399808e+20
1.770379674e+20
4.165599232e+19
6.248398848e+19
7.289798656e+19
1.041399808e+20
9.372598272e+19
1.145539789e+20
5.20699904e+19
1.041399808e+20
6.248398848e+19
8.331198464e+19
9.372598272e+19
5.20699904e+19
1.041399808e+20
1.145539789e+20
9.372598272e+19
7.289798656e+19
6.248398848e+19
1.145539789e+20
8.331198464e+19
9.372598272e+19
5.20699904e+19
9.372598272e+19
1.145539789e+20
8.331198464e+19
1.35381975e+20
8.331198464e+19
8.331198464e+19
9.372598272e+19
1.145539789e+20
8.331198464e+19
8.331198464e+19
1.041399808e+20
1.041399808e+20
1.35381975e+20
1.041399808e+20
1.874519654e+20
6.248398848e+19
1.041399808e+20
1.041399808e+20
9.372598272e+19
1.145539789e+20
7.289798656e+19
7.289798656e+19
9.372598272e+19
8.331198464e+19
7.289798656e+19
1.881167181e+20
3.788204575e+20
3.072737712e+20
2.8807704e+20
3.008440407e+20
4.111751759e+20
3.051286182e+20
3.182926076e+20
2.321527498e+20
2.449773118e+20
1.567639318e+20
1.999330192e+20
2.54295535e+20
1.600428001e+20
3.115884708e+20
1.947671887e+20
2.288464638e+20
3.182926078e+20
2.763723212e+20
3.229246383e+20
1.045092878e+20
1.999330192e+20
2.331042402e+20
1.920513601e+20
2.148886007e+20
3.029711823e+20
3.378209702e+20
1.426828931e+20
2.87427214e+20
2.004359824e+20
9.405835905e+19
1.262734859e+20
1.483390621e+20
1.2803424e+20
1.719108803e+20
2.488691854e+20
1.852566612e+20
2.963413935e+20
2.321527498e+20
1.55894653e+20
9.405835905e+19
7.365953338e+19
1.377434148e+20
1.387037601e+20
1.181887304e+20
2.164079875e+20
1.525643092e+20
2.414633576e+20
2.432076428e+20
1.781653178e+20
1.045092878e+20
1.367962763e+20
1.059564728e+20
1.600427999e+20
1.289331602e+20
1.406651917e+20
1.634617596e+20
1.975609287e+20
2.210978568e+20
1.670299854e+20
1.254111454e+20
1.052279048e+20
8.476517832e+19
1.280342401e+20
1.611664505e+20
1.406651919e+20
2.179490132e+20
9.878046449e+19
1.879331784e+20
1.781653177e+20
1.045092878e+20
1.052279049e+20
5.297823645e+19
9.602567996e+19
1.289331602e+20
1.298447924e+20
1.089745066e+20
2.195121433e+19
1.216038213e+20
2.449773118e+20
1.254111454e+20
8.418232386e+19
7.416953098e+19
6.401712002e+19
8.595544028e+19
1.623059905e+20
8.71796052e+19
2.085365361e+20
1.43713607e+20
1.336239882e+20
1.149602167e+20
1.157506954e+20
6.357388374e+19
1.1736472e+20
1.504220204e+20
9.738359437e+19
1.525643092e+20
1.31707286e+20
1.216038213e+20
1.002179912e+20
7.315650148e+19
1.052279048e+20
1.059564728e+20
1.1736472e+20
1.181887303e+20
1.19024393e+20
9.807705585e+19
2.195121431e+19
1.547684999e+20
1.113533235e+20
9.405835905e+19
1.578418574e+20
9.536082561e+19
9.602567996e+19
5.372215014e+19
1.406651919e+20
7.628215487e+19
1.207316796e+20
7.738425031e+19
1.002179916e+20
6.27055727e+19
9.47051146e+19
1.589347099e+20
8.535616003e+19
5.372214992e+19
8.656319482e+19
1.307694076e+20
6.585364244e+19
8.84391424e+19
1.447593206e+20
1.25411145e+20
6.313674252e+19
9.53608249e+19
7.468663977e+19
9.669987032e+19
1.406651915e+20
7.628215418e+19
1.207316786e+20
9.94940352e+19
1.781653164e+20
9.405835955e+19
1.894102292e+20
1.695303565e+20
7.468664028e+19
1.396775914e+20
4.328159768e+19
1.525643094e+20
9.878046504e+19
1.437136074e+20
6.681199412e+19
1.149602165e+20
6.313674307e+19
7.416953148e+19
8.535616032e+19
9.669987032e+19
8.656319536e+19
5.448725337e+19
6.585364244e+19
1.65823392e+20
7.794732648e+19
8.360743015e+19
1.157506948e+20
8.476517769e+19
1.066951997e+20
1.504220205e+20
9.73835941e+19
8.717960539e+19
7.682925059e+19
1.105489288e+20
1.002179912e+20
6.270557261e+19
1.473190672e+20
8.476517884e+19
7.468663977e+19
1.074442996e+20
8.656319476e+19
1.416668578e+20
7.682925005e+19
9.949403591e+19
1.113533235e+20
1.045092884e+20
1.367962766e+20
1.377434147e+20
8.535616032e+19
9.669987032e+19
8.656319476e+19
8.717960539e+19
9.878046435e+19
2.21097856e+19
1.002179919e+20
7.315650138e+19
1.367962766e+20
1.165521201e+20
1.066951997e+20
1.396775905e+20
6.492239652e+19
1.525643094e+20
8.78048572e+19
8.843914303e+19
6.681199412e+19
1.254111452e+20
7.365953308e+19
9.536082555e+19
5.33476002e+19
5.372215018e+19
1.082039934e+20
8.717960539e+19
1.097560723e+20
6.632935727e+19
1.113533235e+20
8.360743015e+19
7.365953308e+19
1.059564728e+20
1.066952004e+20
)
;

boundaryField
{
    flow
    {
        type            zeroGradient;
    }
    obstacle
    {
        type            calculated;
        value           nonuniform List<scalar> 10(83.01199095 241.8922288 119.1249728 203.2687852 69.04316299 400.938653 1e-300 180.6454328 64.75762057 1e-300);
    }
    frontAndBack
    {
        type            empty;
    }
    procBoundary0to1
    {
        type            processor;
        value           nonuniform List<scalar> 
21
(
2.916407275e+20
3.365085319e+20
2.692068253e+20
3.140746296e+20
2.243390211e+20
1.794712172e+20
1.794712169e+20
1.458203637e+20
2.467729234e+20
2.243390211e+20
1.009525595e+20
6.730170658e+19
1.346034123e+20
1.794712164e+20
1.009525599e+20
1.009525592e+20
7.851865717e+19
1.458203644e+20
1.12169511e+20
1.794712164e+20
7.851865773e+19
)
;
    }
    procBoundary0to2
    {
        type            processor;
        value           nonuniform List<scalar> 
31
(
8.331198464e+19
1.145539789e+20
1.145539789e+20
8.331198464e+19
5.20699904e+19
1.145539789e+20
8.331198464e+19
1.35381975e+20
8.331198464e+19
1.145539789e+20
1.041399808e+20
9.372598272e+19
6.248398848e+19
1.145539789e+20
6.248398848e+19
8.331198464e+19
7.289798656e+19
8.331198464e+19
8.331198464e+19
8.331198464e+19
7.521101025e+19
9.73835941e+19
7.628215418e+19
8.78048572e+19
6.632935727e+19
1.113533235e+20
1.776657891e+20
8.418232409e+19
1.165521201e+20
7.521101025e+19
1.173647196e+20
)
;
    }
}


// ************************************************************************* //
