/*--------------------------------*- C++ -*----------------------------------*\
| =========                 |                                                 |
| \\      /  F ield         | OpenFOAM: The Open Source CFD Toolbox           |
|  \\    /   O peration     | Version:  2406                                  |
|   \\  /    A nd           | Website:  www.openfoam.com                      |
|    \\/     M anipulation  |                                                 |
\*---------------------------------------------------------------------------*/
FoamFile
{
    version     2.0;
    format      ascii;
    arch        "LSB;label=32;scalar=64";
    class       volScalarField;
    location    "0.005";
    object      translationalT;
}
// * * * * * * * * * * * * * * * * * * * * * * * * * * * * * * * * * * * * * //

dimensions      [1 2 -2 0 0 0 0];

internalField   nonuniform List<scalar> 
654
(
288.180852
301.9338133
293.1262816
297.5821765
298.0152935
299.0971908
299.9171034
300.6290365
299.6376002
298.0073216
295.9267349
297.1349443
294.5489495
298.7338453
309.3349627
325.9499465
364.7301357
466.2982297
701.9007767
1333.440117
288.3213287
303.7922142
300.5165682
301.1776862
301.7887585
302.0386255
302.104458
302.6438631
302.4311009
301.9562831
300.1508046
300.6902485
306.0615903
316.0528619
322.1184633
344.2859605
387.2372603
478.7273308
716.677993
1142.293542
292.1491732
309.9965237
300.159537
300.3252307
297.123849
298.3732565
295.6092453
297.7609165
297.6359764
298.7837837
296.8840618
296.7179508
303.5651975
313.2591085
321.0074664
342.0631967
382.4534785
462.7564747
649.5923457
901.2734637
287.0684368
305.2625274
296.3015134
298.1336865
296.4892801
295.9599355
295.3975686
295.7572624
296.909197
296.9921765
300.3906896
299.3452209
302.4133446
305.289634
320.9573817
340.6676804
369.1757457
451.6159541
564.5441882
757.9616888
288.1526699
303.8764963
297.8856555
295.5813237
298.3309337
300.3431848
302.322322
302.4727692
301.8474871
299.2326427
298.9424916
300.6764595
300.2961319
304.5689822
309.4903306
330.732224
358.427792
426.0915361
500.0463076
619.7638081
288.9441429
305.334144
299.9501641
301.3717988
300.3620041
296.9396776
296.4811063
296.9990035
298.2740377
304.0874085
301.6745952
298.7486811
301.0917081
299.498532
313.5164504
323.539081
352.5107584
412.675599
448.2273713
541.4398669
287.8136122
303.6573688
298.4264713
300.0971691
302.6032747
303.021614
301.4765895
299.4134468
299.2031733
300.2004936
301.3570304
302.6308823
302.0169674
303.367063
306.6382946
314.4807836
348.9131613
357.1020781
408.6577098
467.9468615
285.3468099
301.5832522
296.7004936
301.3963228
295.4882599
298.575598
300.8720907
303.5687053
302.6650711
302.0290807
301.2249859
302.688054
300.4331514
302.0793596
312.6754461
318.1718032
325.5749958
342.7497172
368.5966791
400.9451473
292.1876083
308.4847746
298.3928328
299.9812003
302.6901951
301.6962097
301.3537561
302.1283207
302.0602623
303.1255196
304.2818118
303.297783
302.8538832
308.8961906
308.3213758
312.1558818
321.6436302
331.2635812
353.4899309
378.2059507
291.3547939
305.078548
298.0642203
296.2026877
297.0244438
298.3804641
297.4190466
296.323059
298.7852799
301.5397081
302.4057595
304.6968454
308.9080996
305.0110869
309.1194415
313.3235772
314.0551711
318.0254793
341.5282638
368.6789896
289.5578126
303.7975828
299.881073
300.0994394
299.0633118
297.1342919
295.5297722
298.8787274
300.355075
300.5833207
300.0024426
297.721765
301.6127852
302.2483589
308.6338468
305.8110943
311.874505
309.8192525
326.0829485
347.0270901
292.301918
307.8202312
300.0496049
298.1576785
297.6471595
297.5885709
298.4184707
297.371561
303.9576668
301.1120548
300.0693314
299.6228693
299.6287504
302.1890909
302.4717038
306.0005651
312.1342407
310.619942
315.6355811
337.8722262
292.3172269
309.0540986
299.4071414
300.2757907
300.9994352
302.4281971
302.423678
302.7436582
300.1024899
299.044155
301.0683693
301.1538115
301.9553678
303.8976764
304.0146969
303.2089635
306.1457295
312.2047312
316.5291742
318.1540041
289.0191307
305.0833173
301.8060568
302.4024798
300.6021853
301.8012766
300.0150229
300.8727733
300.700234
300.6901239
305.1911598
301.7400122
299.6131108
297.8064718
299.6670272
297.1862407
300.8927524
305.730911
312.2504104
317.0734797
295.2725715
311.833209
303.8497799
300.5454947
302.4283799
300.7447113
300.8349768
297.4276232
299.9045582
300.3464577
297.5637722
299.8724004
297.7572499
298.1442344
300.0714773
302.802776
304.9387052
306.9575564
306.7263294
307.9091324
290.5339332
304.9297939
299.9288142
301.4559133
301.5120028
300.9593288
303.5116776
302.5608446
301.8002794
302.0369068
302.8325944
301.4553276
302.1118692
303.0965691
301.4872982
301.5789111
302.1366103
302.8078281
305.2982104
311.5679481
292.776824
308.4347782
300.0679829
301.0688626
301.2399109
301.5094763
299.3144972
299.35554
301.5447878
300.5270265
300.1302072
301.761957
300.7308183
301.9483998
301.7647816
305.7040989
303.8224527
306.711438
305.4926514
313.320953
290.9146891
304.1576513
300.8067476
300.3976389
302.0929441
302.6449666
301.7850264
299.5625849
297.9222507
297.1045251
297.8867179
296.8365444
298.8130323
300.8686848
301.9036062
300.3673685
298.6301567
300.698744
300.5685517
306.6745162
286.1876291
302.443086
295.6529477
296.0921402
298.3265017
299.6799321
303.1174529
303.5433354
304.682897
307.4514857
304.2643836
303.7678
301.0788956
296.9985373
300.62156
303.970173
303.8061661
300.341442
303.0720644
300.8289437
291.9577873
307.9477181
301.028476
300.0040294
298.4948825
297.3260551
298.2868252
298.2311006
297.1651701
295.6578479
295.0709299
296.0568989
300.1762833
301.0919912
301.122259
300.6169264
298.0796099
298.5892317
300.6768638
304.0320423
290.6929447
306.0503932
298.0305209
299.4200919
300.5993778
300.420734
298.4934255
297.1528008
298.3649778
300.0966991
301.4671032
304.317137
300.1180774
300.3004443
300.3331797
302.0339673
303.730172
303.3913957
301.7246658
303.0769564
291.8763213
306.4500894
298.8688287
299.422777
298.58381
299.1273063
298.2603437
299.9055063
301.326223
300.2378619
298.3449254
298.7127394
300.4133123
302.7056437
304.2425545
299.8311069
299.2061997
303.7090496
303.8468422
303.8651545
1392.778424
1248.017916
1188.174823
1124.175423
1078.725244
1041.642069
1019.225962
982.0686935
976.4645641
953.76957
1330.760486
1303.984989
1246.296606
1204.125046
1169.863402
1141.383427
1105.22516
1080.89851
1067.605753
1052.748068
1122.932306
1179.936153
1183.621651
1180.418906
1154.832631
1136.888203
1109.770719
1086.508981
1070.698765
1045.811383
919.3259822
1036.7069
1081.851357
1111.722249
1105.438066
1085.582611
1080.463495
1051.499105
1051.475344
1042.920758
765.5621193
883.3148733
945.1881508
1012.617818
1026.556818
1035.234112
1051.83103
1029.039024
1025.113414
1009.327391
638.3081641
746.4658948
837.6436813
884.2535507
927.6025972
952.0202488
982.515159
993.3437391
1002.612591
984.9036566
526.3320242
631.1228156
686.062001
776.1700999
810.6303116
866.0815785
893.2100461
924.7041669
926.664758
942.8758633
464.4551423
547.8327522
575.2347301
670.0749088
705.1430645
768.7842074
800.6803946
849.3744229
878.1159565
881.1060191
435.5854929
477.7646252
510.8178133
573.5561859
616.2516242
682.7924957
730.1248448
771.8869975
814.9313542
822.8159672
399.4523795
423.6408317
461.2316347
515.0065265
533.6900137
599.2505675
635.0729997
681.5579587
730.1951043
754.6242809
368.7334194
400.7335765
428.4251569
454.2914587
482.0685814
536.0830767
578.0083766
616.4843494
651.4771322
666.9212712
343.5589887
375.6616524
390.2060098
425.7973517
442.4989967
474.861351
508.1291853
533.3745059
574.4481725
600.5663454
339.6947992
355.7083279
374.4068884
378.2410542
395.0722959
434.2126848
449.7130995
470.7356303
507.120439
542.5270369
334.0244797
341.4020977
354.0573885
360.126989
379.2423823
393.1195155
416.3733456
436.1758251
473.1952875
492.645203
323.7582757
321.7416234
331.9557299
341.5628439
361.6590393
372.2083778
384.7113771
403.6142881
430.4174122
445.2790613
309.5171402
318.105399
325.8036942
332.4004045
344.7684309
356.0054868
362.4155422
375.7244219
402.3829085
414.6979117
314.7090543
317.9219178
320.6942658
321.6132845
322.8933648
336.0088223
346.4629349
355.5164004
367.4397474
386.2603657
313.9963136
311.3163975
312.0768888
316.4085067
318.4199544
322.2704017
331.2569197
335.327124
348.2893834
358.1152305
304.5783148
309.6171553
311.6032033
314.7369326
314.7531751
317.1074619
324.0248983
336.9667578
335.6195574
349.1297416
304.2462263
305.0378628
306.6058786
307.5617892
312.5140025
313.4694926
316.6803144
326.4608121
334.568341
335.470475
301.8843008
302.0827585
305.2662518
302.593818
307.8610147
310.3394601
314.5701935
320.7703967
328.4664985
328.8969293
299.4349623
298.8329723
303.6202898
303.2551491
)
;

boundaryField
{
    flow
    {
        type            calculated;
        value           nonuniform List<scalar> 
42
(
288.180852
288.3213287
292.1491732
287.0684368
288.1526699
288.9441429
287.8136122
285.3468099
292.1876083
291.3547939
289.5578126
292.301918
292.3172269
289.0191307
295.2725715
290.5339332
292.776824
290.9146891
286.1876291
291.9577873
290.6929447
291.8763213
288.180852
301.9338133
293.1262816
297.5821765
298.0152935
299.0971908
299.9171034
300.6290365
299.6376002
298.0073216
295.9267349
297.1349443
294.5489495
298.7338453
309.3349627
325.9499465
364.7301357
466.2982297
701.9007767
1333.440117
)
;
    }
    obstacle
    {
        type            calculated;
        value           nonuniform List<scalar> 10(1192.761815 1091.063648 996.1011882 970.9497796 894.6020085 862.0217195 886.6542108 827.0682032 807.2467811 827.2374427);
    }
    frontAndBack
    {
        type            empty;
    }
    procBoundary0to1
    {
        type            processor;
        value           nonuniform List<scalar> 
21
(
932.9893723
1026.342246
1026.512922
1025.0861
1001.869024
971.9400365
947.2908604
906.5197034
852.698114
788.3731713
703.728206
646.7648128
566.8426951
515.7676336
467.1276045
431.4124523
401.7920623
378.9230017
357.3136932
350.5979024
335.5848946
)
;
    }
    procBoundary0to2
    {
        type            processor;
        value           nonuniform List<scalar> 
31
(
284.2305016
301.4869627
296.4071986
298.6726256
297.9762472
297.4442678
299.1648663
301.5483868
300.9299141
300.2752593
303.5118421
302.7213951
302.1592684
301.6562234
300.3456445
300.3122042
300.829295
298.5250162
299.9076347
301.7472755
305.0588452
308.6494356
304.7148246
309.4144219
315.0714168
321.3981037
302.191002
305.3682987
304.2996296
305.0588452
303.6601799
)
;
    }
}


// ************************************************************************* //
