/*--------------------------------*- C++ -*----------------------------------*\
| =========                 |                                                 |
| \\      /  F ield         | OpenFOAM: The Open Source CFD Toolbox           |
|  \\    /   O peration     | Version:  2406                                  |
|   \\  /    A nd           | Website:  www.openfoam.com                      |
|    \\/     M anipulation  |                                                 |
\*---------------------------------------------------------------------------*/
FoamFile
{
    version     2.0;
    format      ascii;
    arch        "LSB;label=32;scalar=64";
    class       volVectorField;
    location    "0.005";
    object      UMean;
}
// * * * * * * * * * * * * * * * * * * * * * * * * * * * * * * * * * * * * * //

dimensions      [0 1 -1 0 0 0 0];

internalField   nonuniform List<vector> 
654
(
(1710.891375 -7.720904022 -3.176797085)
(1748.400793 -7.153346645 -4.288432974)
(1740.473258 -8.548387284 -2.636356521)
(1739.73016 -7.596580903 -2.043684038)
(1737.39636 -8.470767826 -3.712129312)
(1738.077101 -7.90249267 -2.079829141)
(1736.409014 -7.864947939 0.5913322214)
(1735.148554 -9.282884599 -1.518803848)
(1732.370294 -7.490384173 0.6808768543)
(1731.782997 -8.523434777 0.2881048058)
(1732.809626 -6.543608545 0.2746843122)
(1730.63466 -5.310012816 -2.197866186)
(1732.706801 -3.512472886 -2.653083483)
(1733.309235 -2.639108008 -3.060239668)
(1727.910624 -1.411944933 -2.42004514)
(1721.899521 -5.000246705 -2.0026831)
(1707.547824 -9.497565199 1.231736293)
(1665.721966 -15.38310063 1.049348116)
(1570.458628 -19.47315116 -1.97313307)
(1181.016699 11.94984864 0.268937065)
(1712.194369 0.5226057814 -1.685624842)
(1748.425237 -1.450252266 -0.6195690013)
(1736.591338 -1.237791924 -0.2667666759)
(1736.190107 -2.57547815 -2.879966622)
(1736.843239 -1.736975282 -2.323107205)
(1735.754863 -5.536550618 -4.025612161)
(1736.506824 -7.509376688 -7.438742941)
(1738.595675 -2.887700256 -3.919346338)
(1740.397239 -3.330996808 -3.203609049)
(1742.145754 -2.495105622 -0.681192359)
(1742.528918 -1.960267416 0.05530253285)
(1741.831334 -1.837812651 1.335582121)
(1738.6322 -0.9538370832 1.945372624)
(1733.459268 -2.831409675 1.379241084)
(1731.989413 -1.807828637 -0.6041203491)
(1724.002618 -2.586638184 0.2317485724)
(1706.228539 1.756705536 4.058489054)
(1667.796715 3.501699706 1.348732594)
(1562.747068 17.3476253 3.533576671)
(1313.505029 70.49722291 -0.3414483253)
(1708.070196 -1.479751979 3.575537225)
(1742.99902 -2.333360477 2.852636901)
(1734.455278 -4.233750347 0.2043930979)
(1736.420924 -5.69817292 -0.1772784354)
(1737.16356 -6.791511174 0.9490135929)
(1735.722076 -4.163149968 1.341241221)
(1736.337286 -0.7798513404 3.512535311)
(1737.005058 -0.8295155931 3.708597977)
(1733.603145 1.929028959 1.786985157)
(1733.005948 -0.03196245897 -0.5294341264)
(1731.118959 -0.6744677326 -1.684973791)
(1730.954544 -4.265700064 -2.112790837)
(1731.247257 -4.58540637 -1.836779197)
(1726.378171 -3.744123523 -1.391961617)
(1723.303887 -4.531004596 -3.218683087)
(1716.566553 -1.126449765 -0.8017449996)
(1701.823111 2.026293492 1.352188881)
(1673.776317 9.676514688 0.4528359809)
(1589.799222 27.59358923 0.7862491022)
(1452.660074 64.15381541 1.190248722)
(1707.158986 -7.196461079 -1.414655676)
(1740.222002 -4.754169414 -0.7984608987)
(1732.050778 -2.98097485 0.5161708739)
(1731.556155 -1.773516385 2.917401552)
(1733.706227 2.845403254 1.786875037)
(1736.509979 1.591014461 0.4238598634)
(1736.863856 -1.950124535 -1.805582284)
(1736.192792 -3.94710078 -3.439816072)
(1736.750244 -6.248620236 -2.805405309)
(1736.243489 -2.424909291 -0.7811325076)
(1736.063926 -0.9046966596 -0.4125634995)
(1735.440591 2.688558232 -2.870694424)
(1734.263587 4.233417138 -4.17096024)
(1730.506583 3.69897628 0.08648516634)
(1724.24109 2.068239591 0.9691829593)
(1715.333224 -1.848075422 1.89180476)
(1702.366468 2.09237304 0.7695208013)
(1673.139467 9.148801859 2.194367885)
(1623.961179 21.00382078 -1.024877982)
(1529.159823 57.37838068 -4.91300583)
(1708.11359 -0.9210677383 1.980253782)
(1745.340577 -2.73006609 4.182691021)
(1740.050447 -1.707269975 4.34799633)
(1739.329615 -0.6905808154 2.918358695)
(1739.740494 -1.874290616 3.712419375)
(1738.192161 -1.329911812 2.062709489)
(1736.549567 3.70394024 5.571764484)
(1735.429922 1.503829657 4.72441717)
(1735.541329 -0.3198690198 2.303578272)
(1736.201187 -0.8956485557 1.974419998)
(1737.645329 -4.470998978 3.586338729)
(1733.681098 -4.628263437 3.127035802)
(1734.057269 -3.147934744 3.34407604)
(1732.263587 -1.36796798 -1.303277026)
(1729.890947 3.4548941 -1.057077882)
(1723.335978 5.506080669 -4.820286324)
(1710.094464 8.103994637 -3.644933669)
(1683.707299 12.86532314 -5.231704418)
(1648.947988 20.30319213 -5.284916547)
(1592.897092 42.79422493 -4.940207363)
(1710.528669 3.675132559 -1.843125715)
(1746.094283 3.512730141 -2.416133144)
(1734.84385 3.799453622 -0.2954472145)
(1733.607658 1.711407067 -1.578750498)
(1733.103876 1.798084074 -0.8810264224)
(1731.615072 -2.082765555 1.262975074)
(1734.553956 -1.933644944 -1.930430801)
(1736.690374 -1.344689986 -1.97492826)
(1735.362912 0.938523565 -0.3962618374)
(1734.776421 2.211715356 0.1348033965)
(1734.743855 3.55135018 -1.387094125)
(1737.78437 1.681746745 -0.4745747198)
(1736.954138 -0.7596630238 -1.09324676)
(1737.325234 -4.103814802 -1.001727285)
(1732.224804 -3.71944082 0.7089615285)
(1726.540938 -3.146087998 1.770509638)
(1715.757825 2.734192833 -2.475154614)
(1689.69095 12.66531764 -4.996170437)
(1673.485688 17.30438269 -4.553835887)
(1634.106951 39.0780124 -6.354243969)
(1708.344052 1.766411014 -4.994933333)
(1746.088769 2.833997009 -4.288846606)
(1737.449148 1.97231099 -5.471154526)
(1735.36089 3.53529011 -5.160553908)
(1734.132676 2.251733379 -7.122227004)
(1733.926391 3.531351068 -6.680101128)
(1735.811169 0.3307517726 -4.622498379)
(1732.254835 -2.457658467 -5.055627652)
(1731.797948 -2.962096579 -4.728525817)
(1730.651418 -3.332989499 -1.432056933)
(1730.218738 -1.335389819 -4.820034907)
(1727.147404 -2.403894017 -3.445635341)
(1728.405024 0.2759282132 -1.616357741)
(1728.709415 2.761634007 -4.579690245)
(1725.981366 1.650640753 -4.305379364)
(1722.411254 2.625544332 -4.608208359)
(1709.671193 5.970089019 -4.552098789)
(1707.357619 6.15985207 -5.407294164)
(1689.262545 14.49500648 -2.436116115)
(1660.291038 26.61137056 -1.408705534)
(1709.711676 -5.338755928 -6.52110652)
(1743.614083 -3.449832576 -7.654676861)
(1731.966155 -3.160004967 -7.823525402)
(1732.624128 -2.863394909 -7.298007901)
(1733.505793 -2.430800781 -5.276382444)
(1735.204626 -2.067537501 -6.511102502)
(1733.921354 3.044515234 -7.381839123)
(1731.940429 2.57568491 -4.462880826)
(1731.746997 3.175543779 -5.107567549)
(1733.077536 1.135138433 -6.72917133)
(1732.646832 -1.35946489 -4.318489568)
(1736.01591 -0.2510624365 -5.004282559)
(1734.167305 1.635344487 -3.889967278)
(1734.365861 1.747784994 -2.323834183)
(1729.107544 3.013544479 -2.89709485)
(1729.116961 1.276165602 -1.891802061)
(1728.320554 1.661186364 -1.443610012)
(1718.347723 6.412730136 -3.024050925)
(1708.434866 13.33218988 -2.516523833)
(1693.597935 18.21018205 -2.607101051)
(1705.384764 -3.455087473 -3.171997248)
(1742.849705 -1.5397609 -3.152457037)
(1737.159033 -0.9612760779 -4.058917334)
(1736.737121 -0.2966028456 -2.053964224)
(1734.69256 -2.886216138 -2.230996499)
(1734.900793 -0.5899519981 -1.5024779)
(1733.931746 -2.879739583 -0.02783470607)
(1736.862181 -1.268177153 -0.5535175472)
(1737.962551 -0.6216742127 -0.9725221756)
(1735.757896 2.895011908 0.1978861773)
(1733.916882 3.982109416 1.255943581)
(1734.26239 3.032266862 -1.8278022)
(1733.097027 -1.657583004 -0.02108408134)
(1734.7971 -1.677656159 0.237708359)
(1734.416342 -2.189682047 0.3116578486)
(1731.375224 1.276041557 -0.7063209217)
(1727.277583 5.486257113 -0.2497161256)
(1723.067982 7.88412097 -1.879258554)
(1712.619068 11.80478181 -2.382248655)
(1705.14468 20.46898399 -0.04507067827)
(1709.583969 -0.4825744019 6.374010634)
(1747.05197 -5.023250148 5.477223134)
(1736.160416 -6.218556243 4.8706302)
(1737.810042 -4.770839579 4.935606936)
(1735.711 -1.747006324 3.366367989)
(1734.029656 -0.8668234431 2.088923101)
(1734.833445 -2.273811831 2.696118845)
(1731.562652 -0.7071266761 0.1740475363)
(1733.998967 0.9394890742 -0.09908193502)
(1735.97494 2.517414564 -1.507779938)
(1734.586688 2.944156709 0.8571678445)
(1736.301956 4.27421998 0.5162707895)
(1735.597653 2.880520001 2.451862392)
(1735.456414 3.825074561 0.5762046715)
(1735.070273 2.818501967 -0.514949169)
(1733.926971 4.15348546 -0.504883824)
(1731.499659 3.734414922 0.7024453322)
(1732.863494 6.019480525 2.655183229)
(1720.366851 9.301442593 2.697332111)
(1708.609907 12.11141569 0.2356239288)
(1700.156332 3.747154505 -1.491636091)
(1735.478696 4.329103429 -2.254068571)
(1727.670659 1.702741382 -4.01806655)
(1729.643653 -0.2732225328 -2.611907487)
(1730.835873 -0.2916903637 -1.27931302)
(1735.361822 -4.391081465 0.05417455409)
(1733.764219 -1.949724675 0.2978814282)
(1737.248147 -0.08169194878 -1.252043749)
(1734.846552 0.2348525712 -1.676741825)
(1731.386126 -0.1735826326 -1.61460373)
(1734.021795 -2.127547769 -4.409117191)
(1731.732946 -1.14682938 -3.011247526)
(1730.506603 1.999712143 -2.8206605)
(1730.238815 3.054258017 -4.755799048)
(1730.585025 3.788978192 -5.421346827)
(1731.183119 1.654598277 -1.476438143)
(1731.449013 2.054893318 -1.494098136)
(1732.827592 -2.878409326 -2.221679806)
(1726.254644 2.69845373 -1.623145836)
(1720.301021 10.94062514 1.394579044)
(1708.097445 -0.09808891143 -1.631630997)
(1743.806257 -0.7722719591 -1.69333546)
(1732.513809 1.464011339 0.4896672591)
(1728.080724 1.380220036 -1.710892367)
(1730.528108 0.4111197059 -2.809759642)
(1729.51844 1.024604191 -3.35937609)
(1727.127952 0.7161583723 -3.447056966)
(1727.261256 -3.798793922 -1.500602709)
(1724.045671 -3.454108789 -0.8581593146)
(1727.956803 -2.549726445 -0.1182712864)
(1729.136301 -0.2132345201 -1.054022262)
(1731.437554 1.649927791 -2.366165606)
(1732.3474 -0.5035519549 -1.900213229)
(1733.086113 -1.938422893 -1.246547155)
(1731.115763 -2.290460685 0.6872568663)
(1729.654351 -0.8717731364 -0.9836615624)
(1728.428054 -1.223830634 -0.3125335036)
(1726.17706 0.4599442506 0.01439341076)
(1726.104116 -0.284255943 -1.765436566)
(1717.839853 4.40054412 2.626758258)
(1703.005346 4.159445109 -0.1559562359)
(1740.316683 1.719283165 -2.132257985)
(1735.376539 0.8954997893 -1.575537119)
(1735.488121 0.5164947015 -1.910827458)
(1733.921132 -0.05108177568 -3.797021875)
(1734.906097 1.321032793 -2.674236987)
(1735.235503 -1.643486294 -2.852767476)
(1735.192231 -0.4396843159 -5.327350677)
(1736.521232 0.155880724 -3.356799399)
(1737.796764 -1.394362107 -3.385760677)
(1736.834174 -3.562971672 -0.2080295055)
(1734.15513 -6.911620179 -0.2453462679)
(1734.622413 -7.97966507 -0.369101705)
(1732.482996 -6.156310681 -1.166410332)
(1734.338625 -3.917016005 -0.6370525873)
(1733.907994 -4.748141592 -0.8268384178)
(1735.739926 -0.6840657145 -0.2347114511)
(1734.496838 1.571554086 0.5659465197)
(1732.945814 2.769063826 3.286714416)
(1730.709707 5.560679195 1.897683168)
(1704.725106 1.032525144 -3.401159838)
(1742.540152 1.388226829 -3.016558511)
(1734.693811 3.487920866 -1.590756328)
(1734.494517 3.102160437 -2.980585003)
(1736.162836 0.9362171586 -0.8165383705)
(1735.733379 2.277604379 -1.984534087)
(1738.490789 3.169388135 1.084589467)
(1740.521385 2.697018887 3.009115527)
(1740.354122 -0.5490482621 2.567147569)
(1738.919016 -3.775411596 4.289333164)
(1737.918952 -2.831902967 -0.01754261619)
(1737.851894 -1.873451246 0.6419232913)
(1738.362791 -1.517577055 1.178700941)
(1740.229383 -2.639553607 3.057002863)
(1738.844319 -1.622005919 1.742214646)
(1736.642374 -2.208848753 -0.2244496784)
(1734.461623 -1.794006175 -2.559109356)
(1729.8884 -3.080861563 0.0007167407507)
(1727.748675 0.6099213138 -3.863454508)
(1725.794146 1.561297841 -2.011761861)
(1711.185262 1.140555656 5.06767659)
(1748.024089 1.79972677 4.055342312)
(1737.320202 0.07165323765 4.313723016)
(1738.883517 -1.94637091 5.231179546)
(1737.874367 1.379419576 3.550993722)
(1736.859858 0.7415069135 1.068010744)
(1735.274178 -0.8910024693 1.496810111)
(1733.902556 -2.007032747 -2.276534594)
(1734.392767 -0.1506534671 -1.382742053)
(1733.748124 1.425400454 -1.46374502)
(1735.376209 2.59261832 -0.5890600129)
(1736.880607 -1.872000143 0.4736623829)
(1737.264885 1.21969988 -1.286213891)
(1737.293076 0.7318607114 -3.706581832)
(1736.441469 1.538575757 -2.916952008)
(1735.857927 4.724594294 -0.7535169332)
(1735.279159 2.547462553 -0.6625503166)
(1734.379759 2.430759177 -1.154010228)
(1734.92275 3.296649783 1.012344011)
(1733.005955 -0.9997262647 -0.8621365158)
(1707.827939 -5.1471222 0.1979493553)
(1745.295845 -6.160548465 -0.5426816978)
(1737.110526 -3.428418366 -0.1744505087)
(1734.852792 1.282057279 0.1154317822)
(1732.588682 -0.6834159836 1.248875776)
(1734.487386 -0.6688395427 3.123724159)
(1734.234098 2.493410915 2.361473268)
(1735.618484 1.773980586 3.147093191)
(1734.877405 -1.298621257 0.9801436349)
(1733.885708 0.4339281996 0.8689038557)
(1733.652821 0.7947994172 1.033083189)
(1735.025674 5.259376882 0.1024841945)
(1735.970352 6.238924733 3.446542112)
(1735.908991 4.867500701 4.651400238)
(1734.758944 0.8500357782 4.726986757)
(1736.829341 -2.901335532 1.9951973)
(1734.45891 -1.719212394 -1.917223055)
(1736.387045 2.053973569 -1.571992466)
(1733.737151 3.420679221 -3.657982492)
(1732.197149 5.044074586 -4.01146365)
(1705.281324 6.841334197 0.8074098649)
(1743.962018 4.976930697 1.638309098)
(1734.53153 -0.9154396724 0.1074632553)
(1735.020508 -1.380077708 -2.338593153)
(1735.090861 -0.5293911277 -0.8960935526)
(1735.644687 -1.179598004 -1.996276753)
(1735.339639 0.439725721 -1.945588798)
(1737.655914 2.567072419 -0.6652246432)
(1734.330772 4.032496953 -1.538805584)
(1737.007663 2.714528133 -1.879312796)
(1735.543012 2.258831626 -1.009074214)
(1737.001152 0.4470749682 -1.374458621)
(1733.080858 -2.221646664 -3.02353525)
(1734.584816 -0.8460398861 -5.068761964)
(1733.88895 1.80822497 -3.862329815)
(1729.270659 1.270067774 -1.579288005)
(1729.263647 2.241295031 -0.6635581137)
(1730.285207 -1.809021179 1.63047053)
(1729.801725 0.8650176335 3.091274506)
(1727.485586 -1.237385288 3.063556845)
(1711.954538 -3.492774172 2.551730726)
(1746.446867 -4.053503658 1.667125215)
(1736.991544 1.726447574 2.571304155)
(1734.816499 5.190770131 2.290201994)
(1737.966321 4.804333046 3.495130521)
(1737.291496 1.650069904 2.133448207)
(1736.792226 0.01800036693 2.745897482)
(1737.909189 -0.2833200654 2.570114555)
(1739.453519 -3.514321043 4.17133074)
(1736.490304 -4.837461816 2.53018322)
(1734.812619 -2.531864628 2.635154152)
(1735.628365 -2.214484698 2.976408659)
(1731.147993 1.091450331 2.166151745)
(1733.057052 0.5256766155 3.663679052)
(1735.259898 1.195475961 4.338017442)
(1738.391435 2.861376007 4.233581026)
(1739.911295 1.315255353 4.287210893)
(1738.717208 0.04948480654 1.696045523)
(1737.959703 1.060772117 2.368452247)
(1736.346051 2.40362016 1.001600113)
(1704.995594 3.815908431 -3.638505803)
(1740.061834 0.4172212898 -3.109761674)
(1733.464221 0.7155569832 -2.908537508)
(1731.325252 -3.100271 0.06152935021)
(1731.908444 -3.483504919 -3.895387523)
(1730.861879 1.008794672 -2.848550917)
(1729.932716 1.961447624 -1.348054692)
(1731.31175 0.3974632843 0.9855173815)
(1731.248522 3.997696619 0.2078315542)
(1733.889891 4.003043231 0.6022070927)
(1731.856374 0.1506910602 0.6080178247)
(1731.710132 -0.1363773238 -0.355579089)
(1734.834466 0.5547663524 0.4959733513)
(1736.466676 -1.624294657 -0.2618614041)
(1735.108061 -0.9282252315 -2.507566502)
(1731.88197 -1.396117476 -2.582411261)
(1731.685903 0.3811420716 -1.777643354)
(1732.768732 0.5581269021 -0.461104637)
(1732.498686 1.8570825 -0.08399297699)
(1733.470626 1.05365622 1.151475493)
(1712.804385 -0.9558801447 -3.809005879)
(1748.722052 0.08939961185 -5.893842523)
(1738.894106 -1.769080515 -6.491214924)
(1738.557916 -0.7303235981 -6.000614231)
(1739.704096 -1.329402017 -4.265448247)
(1736.005515 -1.773860367 -1.960729208)
(1736.799483 -4.265219837 -2.147044602)
(1735.209307 0.1599948385 -3.440050696)
(1734.138375 -0.842856597 -4.508942676)
(1732.089039 2.554289307 -7.045807185)
(1734.124251 2.625887405 -6.033966871)
(1735.648005 3.20842598 -3.721236569)
(1735.417238 5.047850291 -4.529138497)
(1735.097332 5.694231185 -4.641764959)
(1734.124407 1.921803114 -2.523718465)
(1737.012658 2.669848242 -3.674483606)
(1735.436541 1.465247109 -1.496745539)
(1737.799835 -1.847690889 -1.392954193)
(1734.56758 0.5705189774 -4.326845825)
(1731.706061 -1.916002963 -5.294351032)
(1710.347845 -7.219551263 1.189837889)
(1747.105779 -4.199283849 1.418446071)
(1737.964912 0.8424821528 0.7789942712)
(1739.013439 -0.7938720215 0.7005618322)
(1737.458759 0.5701997464 -1.860960148)
(1736.710418 1.017350282 -2.388528249)
(1740.485778 1.827549511 -2.454775964)
(1740.500319 -0.4931432962 -5.646974557)
(1742.501295 -0.6453755908 -1.589551672)
(1743.186927 -2.447822913 -1.628304882)
(1743.075131 -0.7914404545 -1.374382142)
(1739.99229 -1.126685807 -4.879885548)
(1737.622255 -2.62644814 -2.307075657)
(1737.263217 -1.097089401 0.4420874371)
(1736.07164 4.053579795 1.189921098)
(1735.524578 1.992588759 2.786358203)
(1735.545069 1.601208018 1.165686246)
(1734.460711 1.580014006 0.8919474278)
(1735.057138 1.772855367 1.481030085)
(1733.920506 0.8952431986 -0.4408583996)
(1709.211308 2.825183813 2.690044534)
(1748.948848 1.388765842 1.146754853)
(1739.609973 -5.701822553 -0.8436922094)
(1742.161607 -2.555147164 0.2958675447)
(1740.521796 -1.52292863 0.9496233809)
(1740.62261 0.1518956028 1.12541868)
(1735.498635 0.4828842263 0.583681846)
(1738.563985 1.09439855 2.984275891)
(1734.832154 1.486443253 4.19243639)
(1732.516215 2.065365206 1.839538271)
(1732.584203 3.46457187 5.568720391)
(1730.51833 -0.4974291624 2.363303271)
(1731.686695 -1.161960256 1.153242712)
(1730.882295 -2.603422437 -1.595234239)
(1731.424082 -4.697505479 -4.666212318)
(1735.145054 -2.964032878 -4.013132159)
(1731.908897 -0.2306163674 -2.357034142)
(1731.686917 3.402744585 -4.321393702)
(1732.991839 3.471593206 -3.365623436)
(1733.977919 7.16147134 -2.856256321)
(673.089561 150.4379579 -4.600624667)
(609.3777563 171.979231 -1.157588449)
(576.3151447 166.4362432 -4.365651389)
(534.5998459 150.9925268 1.070940894)
(502.6484587 148.2743412 4.749838189)
(474.0628206 138.1308392 -0.03170731212)
(446.7092016 127.9058568 -2.201362429)
(420.5011997 123.9376804 -7.248514502)
(410.7906429 116.3102981 -5.621440916)
(395.520608 113.5405283 -0.2237402615)
(1071.663211 160.7015472 -11.91781473)
(948.4852792 219.811208 -7.529526595)
(904.7430137 242.6694275 0.192900783)
(866.6582431 249.8519386 -1.297953357)
(823.5311624 247.4353315 -7.158045854)
(786.2459778 242.464677 -9.194149112)
(753.2474014 236.7143501 -6.586913294)
(720.1231685 226.5382006 -12.68704672)
(688.5432598 209.1428081 -4.691154877)
(666.4871782 199.4296083 -0.8326544121)
(1288.89134 137.2630155 1.090493111)
(1180.025343 199.3033016 -12.8812511)
(1113.869537 240.2218107 -3.303389498)
(1059.71866 267.9202552 -10.8251449)
(1014.183236 285.8068337 -8.030464118)
(980.9162936 298.0278106 -5.230030825)
(947.629552 295.6114392 -6.889638314)
(919.6368576 290.548879 -5.12636801)
(889.2582799 280.6938074 -4.052775045)
(852.5865034 276.1003232 -1.011458629)
(1433.464372 103.4296434 2.927447022)
(1330.977257 159.895594 0.6647225525)
(1255.853784 209.1704832 0.7137055996)
(1194.893236 250.456197 0.1730756718)
(1146.674017 278.2506178 8.185312342)
(1115.058032 294.2264243 -2.962223847)
(1084.883328 313.5776603 4.269936478)
(1068.22285 322.6459711 -6.099543002)
(1041.433881 330.1205752 -4.685431038)
(1007.281641 325.1927927 -3.880673814)
(1512.838583 82.12801873 -5.134156708)
(1435.027731 126.1427236 1.156123658)
(1383.022371 169.5646828 3.140843303)
(1318.916117 208.506622 0.6703900226)
(1282.012664 239.8238211 3.580731663)
(1243.518427 276.0616223 6.961117226)
(1196.77632 305.6332141 2.934235966)
(1177.973718 325.5338959 2.396655854)
(1141.567701 343.7009598 -1.215398066)
(1119.762591 342.3464671 2.950256896)
(1588.941546 61.69233056 -4.705237229)
(1532.30485 93.26384073 -2.564765515)
(1476.365774 134.3121816 8.160858088)
(1432.139587 173.4431206 2.400092724)
(1384.192172 214.8062042 1.928473982)
(1344.416792 242.9625553 -1.254217363)
(1297.634675 278.6451113 -1.67791274)
(1264.538875 298.8322497 3.723948617)
(1234.703244 321.2745389 4.586836986)
(1215.016214 334.7673608 -0.5124577581)
(1636.150432 44.8646791 -1.451703339)
(1591.336413 70.61432726 -1.311207863)
(1555.692136 97.95684225 -5.947250363)
(1503.579525 138.5904074 -0.9894151387)
(1473.479999 166.9804747 0.02773613371)
(1429.18702 206.2699631 -9.682905111)
(1397.025503 235.9678888 -7.014776707)
(1354.561691 269.7972557 -5.571663441)
(1329.60961 291.2290244 -1.73948209)
(1295.885379 316.7709599 -0.1157065925)
(1667.152031 34.74875146 -3.643283736)
(1626.861701 54.85131807 -5.066935474)
(1616.394678 72.45535523 0.5173017435)
(1569.059686 101.5835001 -2.110518509)
(1550.361355 127.5878726 3.051871415)
(1509.258928 164.0158569 1.953204505)
(1473.965998 190.4928558 -1.304923272)
(1432.199489 223.8898193 -1.661723245)
(1394.241742 254.8323811 -3.074024895)
(1366.665465 282.9422482 3.54723014)
(1679.022055 30.83908053 -3.29599684)
(1662.92523 38.60395784 -1.100417779)
(1643.532339 54.46648681 -2.203633783)
(1613.517031 71.92837906 -4.125114985)
(1593.158631 97.60151289 4.479653985)
(1561.980892 124.1475832 6.260545817)
(1532.972883 154.6666286 2.301630983)
(1502.220789 186.3643068 -0.9738160982)
(1469.467966 211.493968 -0.9295486415)
(1446.707275 238.6991242 -4.125144128)
(1697.849691 17.74602425 1.792054162)
(1687.678877 29.05643177 -2.033945648)
(1676.320476 39.98260274 -1.22456052)
(1651.91819 55.74364545 -2.442640367)
(1639.728838 72.67162068 -3.217565545)
(1606.401669 97.7084974 -1.037257448)
(1584.745147 118.7589354 -4.968932949)
(1562.122097 141.0536515 -0.937577638)
(1535.360318 174.6332786 -1.132813058)
(1513.310628 198.9591142 -0.8182942145)
(1711.791866 14.66495598 -1.43415019)
(1696.682586 25.11041422 1.573883439)
(1687.758756 30.48024235 -4.421633344)
(1676.053109 45.65516562 -1.919231884)
(1664.555344 55.79436233 -1.501731803)
(1640.361031 73.93564642 -2.929496939)
(1619.294591 96.87739093 3.529753174)
(1589.061707 114.8151486 5.799589987)
(1567.189971 142.7890845 9.150583496)
(1553.365712 163.24897 5.967494316)
(1720.413777 7.204067998 2.069369995)
(1707.096119 13.349002 5.150293501)
(1702.902228 19.45003914 4.800241979)
(1685.368204 31.63752041 6.834390899)
(1677.635132 39.80403714 5.392698112)
(1664.084681 53.00805602 5.192898062)
(1646.627627 71.01401485 4.374493454)
(1627.994106 87.65760202 -1.012789066)
(1606.821089 105.2852464 1.514737378)
(1597.908626 124.2431383 0.8219092407)
(1719.80441 11.96585275 2.451083605)
(1709.177203 16.855737 3.998759985)
(1701.280632 21.46564472 4.042683852)
(1700.544321 24.75873614 0.3487108396)
(1692.660831 33.22654593 -0.8702729128)
(1676.214839 45.73249137 -3.63758698)
(1669.610048 48.37359995 -3.133163084)
(1666.828126 60.92214744 -4.551278746)
(1650.486809 77.90249834 -5.744305413)
(1631.540362 95.58228676 -4.666750771)
(1720.775867 3.595134935 -1.457467168)
(1717.341042 3.94163764 -3.5584156)
(1712.085156 14.22090685 -3.053038066)
(1710.682473 18.71205204 -0.6459107996)
(1702.826051 22.05351417 -5.219774652)
(1699.341638 25.79739639 -5.070820777)
(1688.918027 31.78001977 -4.080735294)
(1683.939561 44.58602191 -3.438161489)
(1665.423483 57.77223018 -4.28664485)
(1656.434969 72.58733622 0.5829474518)
(1728.163704 5.564807305 -0.4583943816)
(1723.409296 8.717331043 -3.88686247)
(1725.714225 7.298885613 -2.796387323)
(1717.983618 6.246740433 -1.673912217)
(1713.384238 13.3048567 1.472634036)
(1712.20356 19.38887772 2.456925246)
(1705.150601 29.06897174 2.918914324)
(1698.898484 35.64678682 2.568798222)
(1688.856288 49.50421484 1.848446773)
(1680.719889 58.07742311 3.484427327)
(1734.217889 2.3642294 -3.385068016)
(1731.180535 0.9672802169 -1.939072267)
(1728.370444 3.399012326 -4.158768703)
(1727.946216 6.341198363 0.240270691)
(1721.951101 10.60823108 -0.09864416243)
(1714.976943 17.759912 0.4090475795)
(1711.733276 23.08171243 -0.7527984835)
(1703.370376 29.02460006 0.8412268742)
(1689.322123 34.07096699 2.487159786)
(1683.104819 39.91349321 -0.6119493867)
(1726.423861 0.5636761153 2.824044291)
(1727.083492 -2.73626863 4.369795895)
(1726.885358 -2.071912773 2.669455212)
(1726.484873 3.135402628 3.289292579)
(1726.08269 4.158066885 1.773563087)
(1722.281088 10.22058315 5.479639372)
(1715.595615 9.33530573 6.586223325)
(1713.04887 20.12967764 4.214734068)
(1710.773432 30.69303342 3.338662887)
(1704.658326 37.25050612 2.993146326)
(1731.550982 3.700199555 1.291158235)
(1731.337815 8.170293033 -0.6377768309)
(1729.781335 6.920256227 0.4322345955)
(1726.181787 5.602914922 -0.01220924788)
(1722.561649 5.891884656 -0.8502112293)
(1722.277188 6.346046363 -6.867694272)
(1720.468295 13.28877393 -6.708710163)
(1721.531813 14.30507227 -3.374318001)
(1716.503188 14.658789 -4.614527045)
(1710.494126 21.5604389 -3.533353784)
(1731.805059 3.349550266 0.1053528633)
(1730.335958 2.646764657 -3.336500894)
(1730.300747 5.027514749 -4.783693344)
(1728.309083 4.929354244 -5.847544994)
(1735.665674 6.919788131 -6.936395983)
(1734.97194 10.18355837 -2.427126343)
(1729.159001 10.67394912 -6.175176292)
(1724.217213 13.5798238 -5.366180297)
(1719.23589 17.86513593 -2.64648127)
(1716.582549 20.10811917 -1.705133628)
(1734.69909 -1.068241805 -3.782000803)
(1735.501288 -1.776520554 -3.33225794)
(1734.081582 -0.2813379501 0.2917462422)
(1733.857029 6.997811275 -0.7267468538)
(1730.54573 9.513757464 -0.7036726124)
(1729.381304 8.37331792 -0.03798172824)
(1727.489995 11.77704453 0.6447778144)
(1724.90354 16.18538557 -0.1669669675)
(1722.43266 17.75542525 0.1405776712)
(1722.98065 18.5700318 -1.194467969)
(1734.725967 1.552273232 -0.6214578696)
(1735.16472 5.913355807 -0.7124767958)
(1735.40229 6.34036821 -1.691152685)
(1734.234285 4.546909772 -0.2163085251)
(1734.092444 4.404261579 2.01982445)
(1732.635204 5.996081295 1.575767579)
(1730.053327 6.437025746 1.651984453)
(1726.02186 9.975285346 -2.387675053)
(1725.128729 14.10001658 2.45664631)
(1725.046265 12.49735135 7.852517785)
(1736.051465 4.646518416 -1.757257064)
(1736.024056 5.573959718 -1.043368064)
(1731.645594 6.476237928 -2.636248787)
(1734.468047 7.17553745 -4.180407081)
)
;

boundaryField
{
    flow
    {
        type            calculated;
        value           nonuniform List<vector> 
42
(
(1710.891375 -7.720904022 -3.176797085)
(1712.194369 0.5226057814 -1.685624842)
(1708.070196 -1.479751979 3.575537225)
(1707.158986 -7.196461079 -1.414655676)
(1708.11359 -0.9210677383 1.980253782)
(1710.528669 3.675132559 -1.843125715)
(1708.344052 1.766411014 -4.994933333)
(1709.711676 -5.338755928 -6.52110652)
(1705.384764 -3.455087473 -3.171997248)
(1709.583969 -0.4825744019 6.374010634)
(1700.156332 3.747154505 -1.491636091)
(1708.097445 -0.09808891143 -1.631630997)
(1703.005346 4.159445109 -0.1559562359)
(1704.725106 1.032525144 -3.401159838)
(1711.185262 1.140555656 5.06767659)
(1707.827939 -5.1471222 0.1979493553)
(1705.281324 6.841334197 0.8074098649)
(1711.954538 -3.492774172 2.551730726)
(1704.995594 3.815908431 -3.638505803)
(1712.804385 -0.9558801447 -3.809005879)
(1710.347845 -7.219551263 1.189837889)
(1709.211308 2.825183813 2.690044534)
(1710.891375 -7.720904022 -3.176797085)
(1748.400793 -7.153346645 -4.288432974)
(1740.473258 -8.548387284 -2.636356521)
(1739.73016 -7.596580903 -2.043684038)
(1737.39636 -8.470767826 -3.712129312)
(1738.077101 -7.90249267 -2.079829141)
(1736.409014 -7.864947939 0.5913322214)
(1735.148554 -9.282884599 -1.518803848)
(1732.370294 -7.490384173 0.6808768543)
(1731.782997 -8.523434777 0.2881048058)
(1732.809626 -6.543608545 0.2746843122)
(1730.63466 -5.310012816 -2.197866186)
(1732.706801 -3.512472886 -2.653083483)
(1733.309235 -2.639108008 -3.060239668)
(1727.910624 -1.411944933 -2.42004514)
(1721.899521 -5.000246705 -2.0026831)
(1707.547824 -9.497565199 1.231736293)
(1665.721966 -15.38310063 1.049348116)
(1570.458628 -19.47315116 -1.97313307)
(1181.016699 11.94984864 0.268937065)
)
;
    }
    obstacle
    {
        type            calculated;
        value           nonuniform List<vector> 10((430.2172954 115.2763769 1.510644086) (349.0204074 93.51973634 -6.337484627) (313.1467064 83.90740707 -3.828012553) (280.8510053 75.25380005 1.466628067) (273.237391 73.2137382 9.110685791) (245.4450364 65.7667994 20.67224945) (217.6247607 58.31237871 7.732468723) (218.8675441 58.6453818 3.259289893) (220.2953747 59.02796785 -28.39316993) (210.422726 56.38259932 0.4202276229));
    }
    frontAndBack
    {
        type            empty;
    }
    procBoundary0to1
    {
        type            processor;
        value           nonuniform List<vector> 
21
(
(379.2249589 104.7759236 0.03884004387)
(645.9085204 199.8280276 -10.06152359)
(838.1809326 269.9605632 -11.03194956)
(990.7960767 312.4419099 0.9557913905)
(1107.900635 342.8784239 0.02323012234)
(1185.556633 349.4456904 -1.344960198)
(1272.592967 338.8718928 -1.766600507)
(1335.34408 310.3547811 -3.8717269)
(1416.064111 271.9504738 1.082596356)
(1475.774434 227.5877013 3.235225062)
(1527.604203 187.9270451 -0.04609080889)
(1569.395553 148.5834712 2.352415679)
(1621.580868 110.2967549 -3.862035518)
(1643.688323 91.53189122 0.4346558262)
(1669.614371 66.87075081 0.04125753672)
(1679.780669 52.48162735 2.086514109)
(1696.696026 45.92252041 2.898304923)
(1703.447352 31.42195794 -1.975235415)
(1708.565325 24.63919635 -0.8193048568)
(1718.229563 20.09552376 -2.300046753)
(1723.045277 15.78206334 6.85663779)
)
;
    }
    procBoundary0to2
    {
        type            processor;
        value           nonuniform List<vector> 
31
(
(1709.466265 -3.119196987 1.090587333)
(1742.069752 -0.8895787456 0.476055686)
(1732.933475 3.675689784 0.7727441901)
(1729.901632 3.235046986 0.4208345002)